Protein in INSANE! Membrane UpperLeaflet>POPC=1.0 LowerLeaflet>POPC=1.0
243803
   22AUC    AUC    1  24.150  29.104   7.500
   23AUC    AUC    2  24.396  29.104   7.348
   24AUC    AUC    3  24.396  29.104   7.651
   25AUC    AUC    4  23.905  29.104   7.348
   26AUC    AUC    5  23.905  29.104   7.651
   27AUC    AUC    6  23.999  29.349   7.500
   28AUC    AUC    7  24.302  29.349   7.500
   29AUC    AUC    8  23.999  28.858   7.500
   30AUC    AUC    9  24.302  28.858   7.500
   31AUC    AUC   10  24.150  28.952   7.745
   32AUC    AUC   11  24.150  29.255   7.745
   33AUC    AUC   12  24.150  28.952   7.254
   34AUC    AUC   13  24.150  29.255   7.254
   35AUC    AUC   14  24.641  29.104   7.196
   36AUC    AUC   15  24.641  29.104   7.500
   37AUC    AUC   16  24.641  29.104   7.803
   38AUC    AUC   17  23.659  29.104   7.196
   39AUC    AUC   18  23.659  29.104   7.500
   40AUC    AUC   19  23.659  29.104   7.803
   41AUC    AUC   20  23.847  29.594   7.500
   42AUC    AUC   21  24.150  29.594   7.500
   43AUC    AUC   22  24.454  29.594   7.500
   44AUC    AUC   23  23.847  28.613   7.500
   45AUC    AUC   24  24.150  28.613   7.500
   46AUC    AUC   25  24.454  28.613   7.500
   47AUC    AUC   26  24.150  28.800   7.991
   48AUC    AUC   27  24.150  29.104   7.991
   49AUC    AUC   28  24.150  29.407   7.991
   50AUC    AUC   29  24.150  28.800   7.009
   51AUC    AUC   30  24.150  29.104   7.009
   52AUC    AUC   31  24.150  29.407   7.009
   53AUC    AUC   32  24.396  28.952   7.897
   54AUC    AUC   33  24.396  29.255   7.897
   55AUC    AUC   34  24.396  28.952   7.103
   56AUC    AUC   35  24.396  29.255   7.103
   57AUC    AUC   36  23.905  28.952   7.897
   58AUC    AUC   37  23.905  29.255   7.897
   59AUC    AUC   38  23.905  28.952   7.103
   60AUC    AUC   39  23.905  29.255   7.103
   61AUC    AUC   40  24.547  29.349   7.348
   62AUC    AUC   41  24.547  29.349   7.651
   63AUC    AUC   42  23.753  29.349   7.348
   64AUC    AUC   43  23.753  29.349   7.651
   65AUC    AUC   44  24.547  28.858   7.348
   66AUC    AUC   45  24.547  28.858   7.651
   67AUC    AUC   46  23.753  28.858   7.348
   68AUC    AUC   47  23.753  28.858   7.651
   69AUC    AUC   48  23.999  29.501   7.745
   70AUC    AUC   49  24.302  29.501   7.745
   71AUC    AUC   50  23.999  28.706   7.745
   72AUC    AUC   51  24.302  28.706   7.745
   73AUC    AUC   52  23.999  29.501   7.254
   74AUC    AUC   53  24.302  29.501   7.254
   75AUC    AUC   54  23.999  28.706   7.254
   76AUC    AUC   55  24.302  28.706   7.254
   77AUSL   AUS   56  24.559  29.104   8.080
   78AUSL   AUS   57  24.415  28.687   8.011
   79AUL    AUL   58  24.641  28.800   8.294
   80THSLK    S   59  24.533  28.499   8.156
   81ETHY    C1   60  24.629  28.131   8.412
   82ETHY    C1   61  24.807  27.748   8.753
   83ETHY    C1   62  25.049  27.448   9.130
   84ETHY    C1   63  25.345  27.229   9.534
   85THSLK    S   64  24.658  29.057   8.327
   86ETHY    C1   65  24.885  28.907   8.694
   87ETHY    C1   66  25.169  28.819   9.148
   88ETHY    C1   67  25.453  28.841   9.607
   89ETHY    C1   68  25.730  28.963  10.061
   90AUSL   AUS   69  24.314  28.952   8.173
   91AUSL   AUS   70  23.987  29.255   8.173
   92AUL    AUL   71  24.150  29.104   8.482
   93THSLK    S   72  24.395  28.901   8.418
   94ETHY    C1   73  24.485  28.683   8.810
   95ETHY    C1   74  24.613  28.509   9.308
   96ETHY    C1   75  24.759  28.444   9.823
   97ETHY    C1   76  24.916  28.478  10.346
   98THSLK    S   77  23.900  29.215   8.432
   99ETHY    C1   78  23.811  29.141   8.874
  100ETHY    C1   79  23.687  29.143   9.403
  101ETHY    C1   80  23.542  29.252   9.912
  102ETHY    C1   81  23.379  29.456  10.392
  103AUSL   AUS   82  24.314  29.255   8.173
  104AUSL   AUS   83  24.660  29.368   7.916
  105AUL    AUL   84  24.641  29.407   8.294
  106THSLK    S   85  24.401  29.307   8.416
  107ETHY    C1   86  24.489  29.524   8.809
  108ETHY    C1   87  24.614  29.697   9.308
  109ETHY    C1   88  24.759  29.763   9.823
  110ETHY    C1   89  24.922  29.730  10.345
  111THSLK    S   90  24.836  29.474   8.079
  112ETHY    C1   91  25.198  29.524   8.355
  113ETHY    C1   92  25.605  29.673   8.681
  114ETHY    C1   93  25.967  29.922   8.995
  115ETHY    C1   94  26.279  30.258   9.293
  116AUSL   AUS   95  24.559  29.104   6.920
  117AUSL   AUS   96  24.415  29.520   6.990
  118AUL    AUL   97  24.641  29.407   6.706
  119THSLK    S   98  24.663  29.057   6.676
  120ETHY    C1   99  24.890  28.907   6.308
  121ETHY    C1  100  25.169  28.819   5.851
  122ETHY    C1  101  25.453  28.841   5.393
  123ETHY    C1  102  25.735  28.963   4.941
  124THSLK    S  103  24.592  29.639   6.820
  125ETHY    C1  104  24.864  29.780   6.480
  126ETHY    C1  105  25.142  30.027   6.085
  127ETHY    C1  106  25.358  30.360   5.720
  128ETHY    C1  107  25.515  30.767   5.391
  129AUSL   AUS  108  24.314  28.952   6.826
  130AUSL   AUS  109  24.660  28.839   7.083
  131AUL    AUL  110  24.641  28.800   6.706
  132THSLK    S  111  24.800  28.648   6.939
  133ETHY    C1  112  25.033  28.331   6.707
  134ETHY    C1  113  25.363  28.024   6.403
  135ETHY    C1  114  25.743  27.815   6.083
  136ETHY    C1  115  26.164  27.698   5.754
  137THSLK    S  116  24.401  28.900   6.583
  138ETHY    C1  117  24.489  28.683   6.191
  139ETHY    C1  118  24.614  28.510   5.692
  140ETHY    C1  119  24.759  28.444   5.176
  141ETHY    C1  120  24.922  28.477   4.656
  142AUSL   AUS  121  24.314  29.255   6.826
  143AUSL   AUS  122  23.987  28.952   6.826
  144AUL    AUL  123  24.150  29.104   6.518
  145THSLK    S  124  23.891  28.900   6.586
  146ETHY    C1  125  23.752  28.685   6.206
  147ETHY    C1  126  23.595  28.514   5.717
  148ETHY    C1  127  23.456  28.448   5.199
  149ETHY    C1  128  23.340  28.479   4.666
  150THSLK    S  129  24.416  29.216   6.572
  151ETHY    C1  130  24.553  29.139   6.142
  152ETHY    C1  131  24.706  29.139   5.622
  153ETHY    C1  132  24.844  29.248   5.112
  154ETHY    C1  133  24.967  29.455   4.621
  155AUSL   AUS  134  23.741  29.104   8.080
  156AUSL   AUS  135  23.886  29.520   8.011
  157AUL    AUL  136  23.659  29.407   8.294
  158THSLK    S  137  23.637  29.057   8.325
  159ETHY    C1  138  23.411  28.907   8.691
  160ETHY    C1  139  23.131  28.819   9.148
  161ETHY    C1  140  22.848  28.841   9.607
  162ETHY    C1  141  22.565  28.963  10.058
  163THSLK    S  142  23.763  29.653   8.201
  164ETHY    C1  143  23.667  29.848   8.604
  165ETHY    C1  144  23.494  30.129   9.034
  166ETHY    C1  145  23.251  30.455   9.390
  167ETHY    C1  146  22.950  30.814   9.671
  168AUSL   AUS  147  23.987  28.952   8.173
  169AUSL   AUS  148  23.640  28.839   7.916
  170AUL    AUL  149  23.659  28.800   8.294
  171THSLK    S  150  23.461  28.673   8.032
  172ETHY    C1  151  23.100  28.426   8.166
  173ETHY    C1  152  22.695  28.160   8.410
  174ETHY    C1  153  22.334  27.940   8.745
  175ETHY    C1  154  22.018  27.767   9.156
  176THSLK    S  155  23.885  28.902   8.413
  177ETHY    C1  156  23.747  28.687   8.793
  178ETHY    C1  157  23.594  28.514   9.284
  179ETHY    C1  158  23.457  28.448   9.800
  180ETHY    C1  159  23.333  28.480  10.332
  181AUSL   AUS  160  23.741  29.104   6.920
  182AUSL   AUS  161  23.886  28.687   6.990
  183AUL    AUL  162  23.659  28.800   6.706
  184THSLK    S  163  23.642  29.057   6.673
  185ETHY    C1  164  23.415  28.907   6.305
  186ETHY    C1  165  23.132  28.819   5.851
  187ETHY    C1  166  22.848  28.841   5.393
  188ETHY    C1  167  22.571  28.963   4.938
  189THSLK    S  168  23.712  28.512   6.865
  190ETHY    C1  169  23.440  28.199   6.673
  191ETHY    C1  170  23.159  27.851   6.367
  192ETHY    C1  171  22.942  27.543   5.980
  193ETHY    C1  172  22.790  27.276   5.528
  194AUSL   AUS  173  23.987  29.255   6.826
  195AUSL   AUS  174  23.640  29.368   7.083
  196AUL    AUL  175  23.659  29.407   6.706
  197THSLK    S  176  23.504  29.499   6.893
  198ETHY    C1  177  23.270  29.620   6.518
  199ETHY    C1  178  22.938  29.808   6.132
  200ETHY    C1  179  22.558  30.047   5.833
  201ETHY    C1  180  22.141  30.327   5.618
  202THSLK    S  181  23.906  29.217   6.566
  203ETHY    C1  182  23.816  29.142   6.124
  204ETHY    C1  183  23.688  29.143   5.597
  205ETHY    C1  184  23.542  29.252   5.089
  206ETHY    C1  185  23.385  29.458   4.608
  207AUSL   AUS  186  24.730  29.513   7.500
  208AUSL   AUS  187  24.660  29.368   7.083
  209AUL    AUL  188  24.944  29.594   7.196
  210THSLK    S  189  24.840  29.475   6.925
  211ETHY    C1  190  25.201  29.525   6.648
  212ETHY    C1  191  25.605  29.673   6.319
  213ETHY    C1  192  25.967  29.922   6.005
  214ETHY    C1  193  26.283  30.259   5.713
  215THSLK    S  194  25.000  29.574   7.503
  216ETHY    C1  195  25.447  29.674   7.502
  217ETHY    C1  196  25.949  29.880   7.500
  218ETHY    C1  197  26.396  30.182   7.500
  219ETHY    C1  198  26.784  30.566   7.503
  220AUSL   AUS  199  24.824  29.267   7.348
  221AUSL   AUS  200  24.824  28.940   7.651
  222AUL    AUL  201  25.132  29.104   7.500
  223THSLK    S  202  25.086  29.314   7.345
  224ETHY    C1  203  25.536  29.283   7.270
  225ETHY    C1  204  26.068  29.338   7.179
  226ETHY    C1  205  26.575  29.501   7.091
  227ETHY    C1  206  27.050  29.759   7.011
  228THSLK    S  207  25.061  28.803   7.659
  229ETHY    C1  208  25.432  28.545   7.726
  230ETHY    C1  209  25.918  28.319   7.808
  231ETHY    C1  210  26.437  28.199   7.896
  232ETHY    C1  211  26.975  28.177   7.989
  233AUSL   AUS  212  24.824  29.267   7.651
  234AUSL   AUS  213  24.567  29.614   7.764
  235AUL    AUL  214  24.944  29.594   7.803
  236THSLK    S  215  24.752  29.738   7.924
  237ETHY    C1  216  25.109  29.930   8.136
  238ETHY    C1  217  25.486  30.237   8.377
  239ETHY    C1  218  25.787  30.624   8.602
  240ETHY    C1  219  26.014  31.075   8.809
  241THSLK    S  220  25.085  29.313   7.661
  242ETHY    C1  221  25.536  29.283   7.734
  243ETHY    C1  222  26.069  29.338   7.821
  244ETHY    C1  223  26.575  29.501   7.908
  245ETHY    C1  224  27.049  29.759   7.995
  246AUSL   AUS  225  23.570  29.513   7.500
  247AUSL   AUS  226  23.640  29.368   7.916
  248AUL    AUL  227  23.356  29.594   7.803
  249THSLK    S  228  23.500  29.494   8.107
  250ETHY    C1  229  23.267  29.615   8.482
  251ETHY    C1  230  22.938  29.808   8.868
  252ETHY    C1  231  22.558  30.047   9.166
  253ETHY    C1  232  22.137  30.322   9.381
  254THSLK    S  233  23.349  29.653   7.503
  255ETHY    C1  234  23.060  30.008   7.502
  256ETHY    C1  235  22.652  30.365   7.500
  257ETHY    C1  236  22.182  30.629   7.500
  258ETHY    C1  237  21.664  30.805   7.503
  259AUSL   AUS  238  23.477  29.267   7.348
  260AUSL   AUS  239  23.734  29.614   7.236
  261AUL    AUL  240  23.356  29.594   7.196
  262THSLK    S  241  23.240  29.381   7.303
  263ETHY    C1  242  22.868  29.555   7.101
  264ETHY    C1  243  22.382  29.731   6.936
  265ETHY    C1  244  21.864  29.863   6.868
  266ETHY    C1  245  21.326  29.955   6.890
  267THSLK    S  246  23.614  29.781   7.056
  268ETHY    C1  247  23.462  30.100   6.765
  269ETHY    C1  248  23.208  30.480   6.473
  270ETHY    C1  249  22.875  30.848   6.260
  271ETHY    C1  250  22.479  31.198   6.122
  272AUSL   AUS  251  23.477  29.267   7.651
  273AUSL   AUS  252  23.477  28.940   7.348
  274AUL    AUL  253  23.169  29.104   7.500
  275THSLK    S  254  23.215  28.865   7.384
  276ETHY    C1  255  22.765  28.814   7.446
  277ETHY    C1  256  22.232  28.711   7.434
  278ETHY    C1  257  21.725  28.561   7.327
  279ETHY    C1  258  21.252  28.368   7.135
  280THSLK    S  259  23.239  29.375   7.699
  281ETHY    C1  260  22.868  29.551   7.901
  282ETHY    C1  261  22.382  29.730   8.063
  283ETHY    C1  262  21.864  29.863   8.133
  284ETHY    C1  263  21.325  29.949   8.114
  285AUSL   AUS  264  24.730  28.694   7.500
  286AUSL   AUS  265  24.660  28.839   7.916
  287AUL    AUL  266  24.944  28.613   7.803
  288THSLK    S  267  24.951  28.554   7.503
  289ETHY    C1  268  25.240  28.199   7.502
  290ETHY    C1  269  25.649  27.842   7.500
  291ETHY    C1  270  26.119  27.578   7.500
  292ETHY    C1  271  26.636  27.402   7.503
  293THSLK    S  272  24.797  28.649   8.066
  294ETHY    C1  273  25.030  28.332   8.297
  295ETHY    C1  274  25.363  28.025   8.598
  296ETHY    C1  275  25.743  27.815   8.918
  297ETHY    C1  276  26.160  27.699   9.250
  298AUSL   AUS  277  24.824  28.940   7.348
  299AUSL   AUS  278  24.567  28.593   7.236
  300AUL    AUL  279  24.944  28.613   7.196
  301THSLK    S  280  25.062  28.803   7.346
  302ETHY    C1  281  25.433  28.545   7.279
  303ETHY    C1  282  25.918  28.319   7.192
  304ETHY    C1  283  26.437  28.199   7.103
  305ETHY    C1  284  26.976  28.177   7.018
  306THSLK    S  285  24.690  28.402   7.099
  307ETHY    C1  286  24.840  28.000   6.942
  308ETHY    C1  287  25.093  27.570   6.728
  309ETHY    C1  288  25.425  27.214   6.495
  310ETHY    C1  289  25.824  26.933   6.249
  311AUSL   AUS  290  23.570  28.694   7.500
  312AUSL   AUS  291  23.640  28.839   7.083
  313AUL    AUL  292  23.356  28.613   7.196
  314THSLK    S  293  23.465  28.668   6.966
  315ETHY    C1  294  23.103  28.422   6.833
  316ETHY    C1  295  22.695  28.159   6.589
  317ETHY    C1  296  22.334  27.940   6.255
  318ETHY    C1  297  22.022  27.762   5.843
  319THSLK    S  298  23.300  28.633   7.503
  320ETHY    C1  299  22.854  28.533   7.502
  321ETHY    C1  300  22.352  28.327   7.500
  322ETHY    C1  301  21.905  28.025   7.500
  323ETHY    C1  302  21.517  27.641   7.503
  324AUSL   AUS  303  23.477  28.940   7.651
  325AUSL   AUS  304  23.734  28.593   7.764
  326AUL    AUL  305  23.356  28.613   7.803
  327THSLK    S  306  23.546  28.445   7.881
  328ETHY    C1  307  23.190  28.169   7.958
  329ETHY    C1  308  22.815  27.812   8.122
  330ETHY    C1  309  22.514  27.438   8.367
  331ETHY    C1  310  22.283  27.056   8.682
  332THSLK    S  311  23.214  28.870   7.618
  333ETHY    C1  312  22.764  28.818   7.557
  334ETHY    C1  313  22.232  28.712   7.566
  335ETHY    C1  314  21.725  28.561   7.673
  336ETHY    C1  315  21.251  28.373   7.867
  337AUSL   AUS  316  24.150  29.684   7.909
  338AUSL   AUS  317  23.734  29.614   7.764
  339AUL    AUL  318  23.847  29.898   7.991
  340THSLK    S  319  23.611  29.776   7.948
  341ETHY    C1  320  23.460  30.096   8.237
  342ETHY    C1  321  23.207  30.479   8.527
  343ETHY    C1  322  22.875  30.847   8.740
  344ETHY    C1  323  22.476  31.193   8.881
  345THSLK    S  324  24.188  29.915   8.034
  346ETHY    C1  325  24.316  30.241   8.327
  347ETHY    C1  326  24.393  30.673   8.646
  348ETHY    C1  327  24.374  31.138   8.920
  349ETHY    C1  328  24.268  31.623   9.147
  350AUSL   AUS  329  23.999  29.777   7.663
  351AUSL   AUS  330  24.302  29.777   7.336
  352AUL    AUL  331  24.150  30.085   7.500
  353THSLK    S  332  24.036  30.029   7.772
  354ETHY    C1  333  24.109  30.453   7.929
  355ETHY    C1  334  24.106  30.969   8.095
  356ETHY    C1  335  23.998  31.480   8.229
  357ETHY    C1  336  23.794  31.976   8.336
  358THSLK    S  337  24.353  30.017   7.237
  359ETHY    C1  338  24.566  30.394   7.091
  360ETHY    C1  339  24.736  30.883   6.929
  361ETHY    C1  340  24.803  31.401   6.792
  362ETHY    C1  341  24.774  31.935   6.682
  363AUSL   AUS  342  24.302  29.777   7.663
  364AUSL   AUS  343  24.415  29.520   8.011
  365AUL    AUL  344  24.454  29.898   7.991
  366THSLK    S  345  24.588  29.637   8.184
  367ETHY    C1  346  24.861  29.778   8.522
  368ETHY    C1  347  25.142  30.027   8.915
  369ETHY    C1  348  25.358  30.360   9.279
  370ETHY    C1  349  25.510  30.765   9.614
  371THSLK    S  350  24.352  30.015   7.768
  372ETHY    C1  351  24.565  30.394   7.913
  373ETHY    C1  352  24.736  30.883   8.072
  374ETHY    C1  353  24.803  31.401   8.207
  375ETHY    C1  354  24.772  31.934   8.325
  376AUSL   AUS  355  24.150  28.523   7.909
  377AUSL   AUS  356  24.567  28.593   7.764
  378AUL    AUL  357  24.454  28.309   7.991
  379THSLK    S  358  24.109  28.266   7.992
  380ETHY    C1  359  23.982  27.857   8.152
  381ETHY    C1  360  23.908  27.376   8.391
  382ETHY    C1  361  23.927  26.924   8.684
  383ETHY    C1  362  24.029  26.506   9.021
  384THSLK    S  363  24.687  28.403   7.907
  385ETHY    C1  364  24.838  28.001   8.062
  386ETHY    C1  365  25.093  27.570   8.272
  387ETHY    C1  366  25.425  27.214   8.505
  388ETHY    C1  367  25.821  26.935   8.758
  389AUSL   AUS  368  23.999  28.430   7.663
  390AUSL   AUS  369  23.886  28.687   8.011
  391AUL    AUL  370  23.847  28.309   7.991
  392THSLK    S  371  23.948  28.185   7.744
  393ETHY    C1  372  23.735  27.786   7.812
  394ETHY    C1  373  23.564  27.283   7.925
  395ETHY    C1  374  23.498  26.769   8.072
  396ETHY    C1  375  23.527  26.254   8.252
  397THSLK    S  376  23.708  28.517   8.136
  398ETHY    C1  377  23.436  28.202   8.327
  399ETHY    C1  378  23.158  27.851   8.633
  400ETHY    C1  379  22.942  27.543   9.019
  401ETHY    C1  380  22.786  27.281   9.473
  402AUSL   AUS  381  24.302  28.430   7.663
  403AUSL   AUS  382  23.999  28.430   7.336
  404AUL    AUL  383  24.150  28.122   7.500
  405THSLK    S  384  23.949  28.183   7.261
  406ETHY    C1  385  23.736  27.785   7.192
  407ETHY    C1  386  23.564  27.283   7.076
  408ETHY    C1  387  23.498  26.769   6.927
  409ETHY    C1  388  23.529  26.252   6.754
  410THSLK    S  389  24.263  28.171   7.748
  411ETHY    C1  390  24.191  27.726   7.829
  412ETHY    C1  391  24.194  27.197   7.948
  413ETHY    C1  392  24.303  26.689   8.095
  414ETHY    C1  393  24.505  26.211   8.264
  415AUSL   AUS  394  24.150  29.684   7.091
  416AUSL   AUS  395  24.567  29.614   7.236
  417AUL    AUL  396  24.454  29.898   7.009
  418THSLK    S  397  24.192  29.918   6.971
  419ETHY    C1  398  24.319  30.243   6.676
  420ETHY    C1  399  24.393  30.673   6.353
  421ETHY    C1  400  24.374  31.138   6.080
  422ETHY    C1  401  24.271  31.626   5.857
  423THSLK    S  402  24.754  29.739   7.081
  424ETHY    C1  403  25.111  29.931   6.869
  425ETHY    C1  404  25.486  30.237   6.623
  426ETHY    C1  405  25.787  30.624   6.398
  427ETHY    C1  406  26.017  31.076   6.197
  428AUSL   AUS  407  23.999  29.777   7.336
  429AUSL   AUS  408  23.886  29.520   6.990
  430AUL    AUL  409  23.847  29.898   7.009
  431THSLK    S  410  24.038  30.031   7.233
  432ETHY    C1  411  24.110  30.454   7.074
  433ETHY    C1  412  24.107  30.970   6.906
  434ETHY    C1  413  23.998  31.480   6.770
  435ETHY    C1  414  23.796  31.978   6.670
  436THSLK    S  415  23.767  29.657   6.800
  437ETHY    C1  416  23.671  29.851   6.396
  438ETHY    C1  417  23.494  30.129   5.966
  439ETHY    C1  418  23.251  30.454   5.611
  440ETHY    C1  419  22.955  30.819   5.330
  441AUSL   AUS  420  24.150  28.523   7.091
  442AUSL   AUS  421  23.734  28.593   7.236
  443AUL    AUL  422  23.847  28.309   7.009
  444THSLK    S  423  23.549  28.440   7.122
  445ETHY    C1  424  23.192  28.166   7.044
  446ETHY    C1  425  22.815  27.812   6.878
  447ETHY    C1  426  22.513  27.438   6.633
  448ETHY    C1  427  22.286  27.051   6.321
  449THSLK    S  428  24.112  28.263   7.013
  450ETHY    C1  429  23.984  27.855   6.852
  451ETHY    C1  430  23.908  27.376   6.609
  452ETHY    C1  431  23.927  26.924   6.315
  453ETHY    C1  432  24.033  26.503   5.983
  454AUSL   AUS  433  24.302  28.430   7.336
  455AUSL   AUS  434  24.415  28.687   6.990
  456AUL    AUL  435  24.454  28.309   7.009
  457THSLK    S  436  24.265  28.170   7.258
  458ETHY    C1  437  24.192  27.725   7.175
  459ETHY    C1  438  24.194  27.197   7.052
  460ETHY    C1  439  24.302  26.689   6.905
  461ETHY    C1  440  24.507  26.210   6.742
  462THSLK    S  441  24.538  28.497   6.847
  463ETHY    C1  442  24.633  28.129   6.592
  464ETHY    C1  443  24.807  27.748   6.247
  465ETHY    C1  444  25.049  27.448   5.870
  466ETHY    C1  445  25.350  27.227   5.471
  467AUC    AUC  446  19.073  14.867   7.500
  468AUC    AUC  447  19.319  14.867   7.348
  469AUC    AUC  448  19.319  14.867   7.651
  470AUC    AUC  449  18.828  14.867   7.348
  471AUC    AUC  450  18.828  14.867   7.651
  472AUC    AUC  451  18.922  15.112   7.500
  473AUC    AUC  452  19.225  15.112   7.500
  474AUC    AUC  453  18.922  14.621   7.500
  475AUC    AUC  454  19.225  14.621   7.500
  476AUC    AUC  455  19.073  14.715   7.745
  477AUC    AUC  456  19.073  15.018   7.745
  478AUC    AUC  457  19.073  14.715   7.254
  479AUC    AUC  458  19.073  15.018   7.254
  480AUC    AUC  459  19.564  14.867   7.196
  481AUC    AUC  460  19.564  14.867   7.500
  482AUC    AUC  461  19.564  14.867   7.803
  483AUC    AUC  462  18.582  14.867   7.196
  484AUC    AUC  463  18.582  14.867   7.500
  485AUC    AUC  464  18.582  14.867   7.803
  486AUC    AUC  465  18.770  15.357   7.500
  487AUC    AUC  466  19.073  15.357   7.500
  488AUC    AUC  467  19.377  15.357   7.500
  489AUC    AUC  468  18.770  14.376   7.500
  490AUC    AUC  469  19.073  14.376   7.500
  491AUC    AUC  470  19.377  14.376   7.500
  492AUC    AUC  471  19.073  14.563   7.991
  493AUC    AUC  472  19.073  14.867   7.991
  494AUC    AUC  473  19.073  15.170   7.991
  495AUC    AUC  474  19.073  14.563   7.009
  496AUC    AUC  475  19.073  14.867   7.009
  497AUC    AUC  476  19.073  15.170   7.009
  498AUC    AUC  477  19.319  14.715   7.897
  499AUC    AUC  478  19.319  15.018   7.897
  500AUC    AUC  479  19.319  14.715   7.103
  501AUC    AUC  480  19.319  15.018   7.103
  502AUC    AUC  481  18.828  14.715   7.897
  503AUC    AUC  482  18.828  15.018   7.897
  504AUC    AUC  483  18.828  14.715   7.103
  505AUC    AUC  484  18.828  15.018   7.103
  506AUC    AUC  485  19.470  15.112   7.348
  507AUC    AUC  486  19.470  15.112   7.651
  508AUC    AUC  487  18.676  15.112   7.348
  509AUC    AUC  488  18.676  15.112   7.651
  510AUC    AUC  489  19.470  14.621   7.348
  511AUC    AUC  490  19.470  14.621   7.651
  512AUC    AUC  491  18.676  14.621   7.348
  513AUC    AUC  492  18.676  14.621   7.651
  514AUC    AUC  493  18.922  15.264   7.745
  515AUC    AUC  494  19.225  15.264   7.745
  516AUC    AUC  495  18.922  14.469   7.745
  517AUC    AUC  496  19.225  14.469   7.745
  518AUC    AUC  497  18.922  15.264   7.254
  519AUC    AUC  498  19.225  15.264   7.254
  520AUC    AUC  499  18.922  14.469   7.254
  521AUC    AUC  500  19.225  14.469   7.254
  522AUSL   AUS  501  19.482  14.867   8.080
  523AUSL   AUS  502  19.338  14.450   8.011
  524AUL    AUL  503  19.564  14.563   8.294
  525THSLK    S  504  19.456  14.262   8.156
  526ETHY    C1  505  19.552  13.894   8.412
  527ETHY    C1  506  19.730  13.511   8.753
  528ETHY    C1  507  19.972  13.211   9.130
  529ETHY    C1  508  20.268  12.992   9.534
  530THSLK    S  509  19.581  14.820   8.327
  531ETHY    C1  510  19.808  14.670   8.694
  532ETHY    C1  511  20.092  14.582   9.148
  533ETHY    C1  512  20.376  14.604   9.607
  534ETHY    C1  513  20.653  14.726  10.061
  535AUSL   AUS  514  19.237  14.715   8.173
  536AUSL   AUS  515  18.910  15.018   8.173
  537AUL    AUL  516  19.073  14.867   8.482
  538THSLK    S  517  19.318  14.664   8.418
  539ETHY    C1  518  19.408  14.446   8.810
  540ETHY    C1  519  19.536  14.272   9.308
  541ETHY    C1  520  19.682  14.207   9.823
  542ETHY    C1  521  19.839  14.241  10.346
  543THSLK    S  522  18.823  14.978   8.432
  544ETHY    C1  523  18.734  14.904   8.874
  545ETHY    C1  524  18.610  14.906   9.403
  546ETHY    C1  525  18.465  15.015   9.912
  547ETHY    C1  526  18.302  15.219  10.392
  548AUSL   AUS  527  19.237  15.018   8.173
  549AUSL   AUS  528  19.583  15.131   7.916
  550AUL    AUL  529  19.564  15.170   8.294
  551THSLK    S  530  19.324  15.070   8.416
  552ETHY    C1  531  19.412  15.287   8.809
  553ETHY    C1  532  19.537  15.460   9.308
  554ETHY    C1  533  19.682  15.526   9.823
  555ETHY    C1  534  19.845  15.493  10.345
  556THSLK    S  535  19.759  15.237   8.079
  557ETHY    C1  536  20.121  15.287   8.355
  558ETHY    C1  537  20.528  15.436   8.681
  559ETHY    C1  538  20.890  15.685   8.995
  560ETHY    C1  539  21.202  16.021   9.293
  561AUSL   AUS  540  19.482  14.867   6.920
  562AUSL   AUS  541  19.338  15.283   6.990
  563AUL    AUL  542  19.564  15.170   6.706
  564THSLK    S  543  19.586  14.820   6.676
  565ETHY    C1  544  19.813  14.670   6.308
  566ETHY    C1  545  20.092  14.582   5.851
  567ETHY    C1  546  20.376  14.604   5.393
  568ETHY    C1  547  20.658  14.726   4.941
  569THSLK    S  548  19.515  15.402   6.820
  570ETHY    C1  549  19.787  15.543   6.480
  571ETHY    C1  550  20.065  15.790   6.085
  572ETHY    C1  551  20.281  16.123   5.720
  573ETHY    C1  552  20.438  16.530   5.391
  574AUSL   AUS  553  19.237  14.715   6.826
  575AUSL   AUS  554  19.583  14.602   7.083
  576AUL    AUL  555  19.564  14.563   6.706
  577THSLK    S  556  19.723  14.411   6.939
  578ETHY    C1  557  19.956  14.094   6.707
  579ETHY    C1  558  20.286  13.787   6.403
  580ETHY    C1  559  20.666  13.578   6.083
  581ETHY    C1  560  21.087  13.461   5.754
  582THSLK    S  561  19.324  14.663   6.583
  583ETHY    C1  562  19.412  14.446   6.191
  584ETHY    C1  563  19.537  14.273   5.692
  585ETHY    C1  564  19.682  14.207   5.176
  586ETHY    C1  565  19.845  14.240   4.656
  587AUSL   AUS  566  19.237  15.018   6.826
  588AUSL   AUS  567  18.910  14.715   6.826
  589AUL    AUL  568  19.073  14.867   6.518
  590THSLK    S  569  18.814  14.663   6.586
  591ETHY    C1  570  18.675  14.448   6.206
  592ETHY    C1  571  18.518  14.277   5.717
  593ETHY    C1  572  18.379  14.211   5.199
  594ETHY    C1  573  18.263  14.242   4.666
  595THSLK    S  574  19.339  14.979   6.572
  596ETHY    C1  575  19.476  14.902   6.142
  597ETHY    C1  576  19.629  14.902   5.622
  598ETHY    C1  577  19.767  15.011   5.112
  599ETHY    C1  578  19.890  15.218   4.621
  600AUSL   AUS  579  18.664  14.867   8.080
  601AUSL   AUS  580  18.809  15.283   8.011
  602AUL    AUL  581  18.582  15.170   8.294
  603THSLK    S  582  18.560  14.820   8.325
  604ETHY    C1  583  18.334  14.670   8.691
  605ETHY    C1  584  18.054  14.582   9.148
  606ETHY    C1  585  17.771  14.604   9.607
  607ETHY    C1  586  17.488  14.726  10.058
  608THSLK    S  587  18.686  15.416   8.201
  609ETHY    C1  588  18.590  15.611   8.604
  610ETHY    C1  589  18.417  15.892   9.034
  611ETHY    C1  590  18.174  16.218   9.390
  612ETHY    C1  591  17.873  16.577   9.671
  613AUSL   AUS  592  18.910  14.715   8.173
  614AUSL   AUS  593  18.563  14.602   7.916
  615AUL    AUL  594  18.582  14.563   8.294
  616THSLK    S  595  18.384  14.436   8.032
  617ETHY    C1  596  18.023  14.189   8.166
  618ETHY    C1  597  17.618  13.923   8.410
  619ETHY    C1  598  17.257  13.703   8.745
  620ETHY    C1  599  16.941  13.530   9.156
  621THSLK    S  600  18.808  14.665   8.413
  622ETHY    C1  601  18.670  14.450   8.793
  623ETHY    C1  602  18.517  14.277   9.284
  624ETHY    C1  603  18.380  14.211   9.800
  625ETHY    C1  604  18.256  14.243  10.332
  626AUSL   AUS  605  18.664  14.867   6.920
  627AUSL   AUS  606  18.809  14.450   6.990
  628AUL    AUL  607  18.582  14.563   6.706
  629THSLK    S  608  18.565  14.820   6.673
  630ETHY    C1  609  18.338  14.670   6.305
  631ETHY    C1  610  18.055  14.582   5.851
  632ETHY    C1  611  17.771  14.604   5.393
  633ETHY    C1  612  17.494  14.726   4.938
  634THSLK    S  613  18.635  14.275   6.865
  635ETHY    C1  614  18.363  13.962   6.673
  636ETHY    C1  615  18.082  13.614   6.367
  637ETHY    C1  616  17.865  13.306   5.980
  638ETHY    C1  617  17.713  13.039   5.528
  639AUSL   AUS  618  18.910  15.018   6.826
  640AUSL   AUS  619  18.563  15.131   7.083
  641AUL    AUL  620  18.582  15.170   6.706
  642THSLK    S  621  18.427  15.262   6.893
  643ETHY    C1  622  18.193  15.383   6.518
  644ETHY    C1  623  17.861  15.571   6.132
  645ETHY    C1  624  17.481  15.810   5.833
  646ETHY    C1  625  17.064  16.090   5.618
  647THSLK    S  626  18.829  14.980   6.566
  648ETHY    C1  627  18.739  14.905   6.124
  649ETHY    C1  628  18.611  14.906   5.597
  650ETHY    C1  629  18.465  15.015   5.089
  651ETHY    C1  630  18.308  15.221   4.608
  652AUSL   AUS  631  19.653  15.276   7.500
  653AUSL   AUS  632  19.583  15.131   7.083
  654AUL    AUL  633  19.867  15.357   7.196
  655THSLK    S  634  19.763  15.238   6.925
  656ETHY    C1  635  20.124  15.288   6.648
  657ETHY    C1  636  20.528  15.436   6.319
  658ETHY    C1  637  20.890  15.685   6.005
  659ETHY    C1  638  21.206  16.022   5.713
  660THSLK    S  639  19.923  15.337   7.503
  661ETHY    C1  640  20.370  15.437   7.502
  662ETHY    C1  641  20.872  15.643   7.500
  663ETHY    C1  642  21.319  15.945   7.500
  664ETHY    C1  643  21.707  16.329   7.503
  665AUSL   AUS  644  19.747  15.030   7.348
  666AUSL   AUS  645  19.747  14.703   7.651
  667AUL    AUL  646  20.055  14.867   7.500
  668THSLK    S  647  20.009  15.077   7.345
  669ETHY    C1  648  20.459  15.046   7.270
  670ETHY    C1  649  20.991  15.101   7.179
  671ETHY    C1  650  21.498  15.264   7.091
  672ETHY    C1  651  21.973  15.522   7.011
  673THSLK    S  652  19.984  14.566   7.659
  674ETHY    C1  653  20.355  14.308   7.726
  675ETHY    C1  654  20.841  14.082   7.808
  676ETHY    C1  655  21.360  13.962   7.896
  677ETHY    C1  656  21.898  13.940   7.989
  678AUSL   AUS  657  19.747  15.030   7.651
  679AUSL   AUS  658  19.490  15.377   7.764
  680AUL    AUL  659  19.867  15.357   7.803
  681THSLK    S  660  19.675  15.501   7.924
  682ETHY    C1  661  20.032  15.693   8.136
  683ETHY    C1  662  20.409  16.000   8.377
  684ETHY    C1  663  20.710  16.387   8.602
  685ETHY    C1  664  20.937  16.838   8.809
  686THSLK    S  665  20.008  15.076   7.661
  687ETHY    C1  666  20.459  15.046   7.734
  688ETHY    C1  667  20.992  15.101   7.821
  689ETHY    C1  668  21.498  15.264   7.908
  690ETHY    C1  669  21.972  15.522   7.995
  691AUSL   AUS  670  18.493  15.276   7.500
  692AUSL   AUS  671  18.563  15.131   7.916
  693AUL    AUL  672  18.279  15.357   7.803
  694THSLK    S  673  18.423  15.257   8.107
  695ETHY    C1  674  18.190  15.378   8.482
  696ETHY    C1  675  17.861  15.571   8.868
  697ETHY    C1  676  17.481  15.810   9.166
  698ETHY    C1  677  17.060  16.085   9.381
  699THSLK    S  678  18.272  15.416   7.503
  700ETHY    C1  679  17.983  15.771   7.502
  701ETHY    C1  680  17.575  16.128   7.500
  702ETHY    C1  681  17.105  16.392   7.500
  703ETHY    C1  682  16.587  16.568   7.503
  704AUSL   AUS  683  18.400  15.030   7.348
  705AUSL   AUS  684  18.657  15.377   7.236
  706AUL    AUL  685  18.279  15.357   7.196
  707THSLK    S  686  18.163  15.144   7.303
  708ETHY    C1  687  17.791  15.318   7.101
  709ETHY    C1  688  17.305  15.494   6.936
  710ETHY    C1  689  16.787  15.626   6.868
  711ETHY    C1  690  16.249  15.718   6.890
  712THSLK    S  691  18.537  15.544   7.056
  713ETHY    C1  692  18.385  15.863   6.765
  714ETHY    C1  693  18.131  16.243   6.473
  715ETHY    C1  694  17.798  16.611   6.260
  716ETHY    C1  695  17.402  16.961   6.122
  717AUSL   AUS  696  18.400  15.030   7.651
  718AUSL   AUS  697  18.400  14.703   7.348
  719AUL    AUL  698  18.092  14.867   7.500
  720THSLK    S  699  18.138  14.628   7.384
  721ETHY    C1  700  17.688  14.577   7.446
  722ETHY    C1  701  17.155  14.474   7.434
  723ETHY    C1  702  16.648  14.324   7.327
  724ETHY    C1  703  16.175  14.131   7.135
  725THSLK    S  704  18.162  15.138   7.699
  726ETHY    C1  705  17.791  15.314   7.901
  727ETHY    C1  706  17.305  15.493   8.063
  728ETHY    C1  707  16.787  15.626   8.133
  729ETHY    C1  708  16.248  15.712   8.114
  730AUSL   AUS  709  19.653  14.457   7.500
  731AUSL   AUS  710  19.583  14.602   7.916
  732AUL    AUL  711  19.867  14.376   7.803
  733THSLK    S  712  19.874  14.317   7.503
  734ETHY    C1  713  20.163  13.962   7.502
  735ETHY    C1  714  20.572  13.605   7.500
  736ETHY    C1  715  21.042  13.341   7.500
  737ETHY    C1  716  21.559  13.165   7.503
  738THSLK    S  717  19.720  14.412   8.066
  739ETHY    C1  718  19.953  14.095   8.297
  740ETHY    C1  719  20.286  13.788   8.598
  741ETHY    C1  720  20.666  13.578   8.918
  742ETHY    C1  721  21.083  13.462   9.250
  743AUSL   AUS  722  19.747  14.703   7.348
  744AUSL   AUS  723  19.490  14.356   7.236
  745AUL    AUL  724  19.867  14.376   7.196
  746THSLK    S  725  19.985  14.566   7.346
  747ETHY    C1  726  20.356  14.308   7.279
  748ETHY    C1  727  20.841  14.082   7.192
  749ETHY    C1  728  21.360  13.962   7.103
  750ETHY    C1  729  21.899  13.940   7.018
  751THSLK    S  730  19.613  14.165   7.099
  752ETHY    C1  731  19.763  13.763   6.942
  753ETHY    C1  732  20.016  13.333   6.728
  754ETHY    C1  733  20.348  12.977   6.495
  755ETHY    C1  734  20.747  12.696   6.249
  756AUSL   AUS  735  18.493  14.457   7.500
  757AUSL   AUS  736  18.563  14.602   7.083
  758AUL    AUL  737  18.279  14.376   7.196
  759THSLK    S  738  18.388  14.431   6.966
  760ETHY    C1  739  18.026  14.185   6.833
  761ETHY    C1  740  17.618  13.922   6.589
  762ETHY    C1  741  17.257  13.703   6.255
  763ETHY    C1  742  16.945  13.525   5.843
  764THSLK    S  743  18.223  14.396   7.503
  765ETHY    C1  744  17.777  14.296   7.502
  766ETHY    C1  745  17.275  14.090   7.500
  767ETHY    C1  746  16.828  13.788   7.500
  768ETHY    C1  747  16.440  13.404   7.503
  769AUSL   AUS  748  18.400  14.703   7.651
  770AUSL   AUS  749  18.657  14.356   7.764
  771AUL    AUL  750  18.279  14.376   7.803
  772THSLK    S  751  18.469  14.208   7.881
  773ETHY    C1  752  18.113  13.932   7.958
  774ETHY    C1  753  17.738  13.575   8.122
  775ETHY    C1  754  17.437  13.201   8.367
  776ETHY    C1  755  17.206  12.819   8.682
  777THSLK    S  756  18.137  14.633   7.618
  778ETHY    C1  757  17.687  14.581   7.557
  779ETHY    C1  758  17.155  14.475   7.566
  780ETHY    C1  759  16.648  14.324   7.673
  781ETHY    C1  760  16.174  14.136   7.867
  782AUSL   AUS  761  19.073  15.447   7.909
  783AUSL   AUS  762  18.657  15.377   7.764
  784AUL    AUL  763  18.770  15.661   7.991
  785THSLK    S  764  18.534  15.539   7.948
  786ETHY    C1  765  18.383  15.859   8.237
  787ETHY    C1  766  18.130  16.242   8.527
  788ETHY    C1  767  17.798  16.610   8.740
  789ETHY    C1  768  17.399  16.956   8.881
  790THSLK    S  769  19.111  15.678   8.034
  791ETHY    C1  770  19.239  16.004   8.327
  792ETHY    C1  771  19.316  16.436   8.646
  793ETHY    C1  772  19.297  16.901   8.920
  794ETHY    C1  773  19.191  17.386   9.147
  795AUSL   AUS  774  18.922  15.540   7.663
  796AUSL   AUS  775  19.225  15.540   7.336
  797AUL    AUL  776  19.073  15.848   7.500
  798THSLK    S  777  18.959  15.792   7.772
  799ETHY    C1  778  19.032  16.216   7.929
  800ETHY    C1  779  19.029  16.732   8.095
  801ETHY    C1  780  18.921  17.243   8.229
  802ETHY    C1  781  18.717  17.739   8.336
  803THSLK    S  782  19.276  15.780   7.237
  804ETHY    C1  783  19.489  16.157   7.091
  805ETHY    C1  784  19.659  16.646   6.929
  806ETHY    C1  785  19.726  17.164   6.792
  807ETHY    C1  786  19.697  17.698   6.682
  808AUSL   AUS  787  19.225  15.540   7.663
  809AUSL   AUS  788  19.338  15.283   8.011
  810AUL    AUL  789  19.377  15.661   7.991
  811THSLK    S  790  19.511  15.400   8.184
  812ETHY    C1  791  19.784  15.541   8.522
  813ETHY    C1  792  20.065  15.790   8.915
  814ETHY    C1  793  20.281  16.123   9.279
  815ETHY    C1  794  20.433  16.528   9.614
  816THSLK    S  795  19.275  15.778   7.768
  817ETHY    C1  796  19.488  16.157   7.913
  818ETHY    C1  797  19.659  16.646   8.072
  819ETHY    C1  798  19.726  17.164   8.207
  820ETHY    C1  799  19.695  17.697   8.325
  821AUSL   AUS  800  19.073  14.286   7.909
  822AUSL   AUS  801  19.490  14.356   7.764
  823AUL    AUL  802  19.377  14.072   7.991
  824THSLK    S  803  19.032  14.029   7.992
  825ETHY    C1  804  18.905  13.620   8.152
  826ETHY    C1  805  18.831  13.139   8.391
  827ETHY    C1  806  18.850  12.687   8.684
  828ETHY    C1  807  18.952  12.269   9.021
  829THSLK    S  808  19.610  14.166   7.907
  830ETHY    C1  809  19.761  13.764   8.062
  831ETHY    C1  810  20.016  13.333   8.272
  832ETHY    C1  811  20.348  12.977   8.505
  833ETHY    C1  812  20.744  12.698   8.758
  834AUSL   AUS  813  18.922  14.193   7.663
  835AUSL   AUS  814  18.809  14.450   8.011
  836AUL    AUL  815  18.770  14.072   7.991
  837THSLK    S  816  18.871  13.948   7.744
  838ETHY    C1  817  18.658  13.549   7.812
  839ETHY    C1  818  18.487  13.046   7.925
  840ETHY    C1  819  18.421  12.532   8.072
  841ETHY    C1  820  18.450  12.017   8.252
  842THSLK    S  821  18.631  14.280   8.136
  843ETHY    C1  822  18.359  13.965   8.327
  844ETHY    C1  823  18.081  13.614   8.633
  845ETHY    C1  824  17.865  13.306   9.019
  846ETHY    C1  825  17.709  13.044   9.473
  847AUSL   AUS  826  19.225  14.193   7.663
  848AUSL   AUS  827  18.922  14.193   7.336
  849AUL    AUL  828  19.073  13.885   7.500
  850THSLK    S  829  18.872  13.946   7.261
  851ETHY    C1  830  18.659  13.548   7.192
  852ETHY    C1  831  18.487  13.046   7.076
  853ETHY    C1  832  18.421  12.532   6.927
  854ETHY    C1  833  18.452  12.015   6.754
  855THSLK    S  834  19.186  13.934   7.748
  856ETHY    C1  835  19.114  13.489   7.829
  857ETHY    C1  836  19.117  12.960   7.948
  858ETHY    C1  837  19.226  12.452   8.095
  859ETHY    C1  838  19.428  11.974   8.264
  860AUSL   AUS  839  19.073  15.447   7.091
  861AUSL   AUS  840  19.490  15.377   7.236
  862AUL    AUL  841  19.377  15.661   7.009
  863THSLK    S  842  19.115  15.681   6.971
  864ETHY    C1  843  19.242  16.006   6.676
  865ETHY    C1  844  19.316  16.436   6.353
  866ETHY    C1  845  19.297  16.901   6.080
  867ETHY    C1  846  19.194  17.389   5.857
  868THSLK    S  847  19.677  15.502   7.081
  869ETHY    C1  848  20.034  15.694   6.869
  870ETHY    C1  849  20.409  16.000   6.623
  871ETHY    C1  850  20.710  16.387   6.398
  872ETHY    C1  851  20.940  16.839   6.197
  873AUSL   AUS  852  18.922  15.540   7.336
  874AUSL   AUS  853  18.809  15.283   6.990
  875AUL    AUL  854  18.770  15.661   7.009
  876THSLK    S  855  18.961  15.794   7.233
  877ETHY    C1  856  19.033  16.217   7.074
  878ETHY    C1  857  19.030  16.733   6.906
  879ETHY    C1  858  18.921  17.243   6.770
  880ETHY    C1  859  18.719  17.741   6.670
  881THSLK    S  860  18.690  15.420   6.800
  882ETHY    C1  861  18.594  15.614   6.396
  883ETHY    C1  862  18.417  15.892   5.966
  884ETHY    C1  863  18.174  16.217   5.611
  885ETHY    C1  864  17.878  16.582   5.330
  886AUSL   AUS  865  19.073  14.286   7.091
  887AUSL   AUS  866  18.657  14.356   7.236
  888AUL    AUL  867  18.770  14.072   7.009
  889THSLK    S  868  18.472  14.203   7.122
  890ETHY    C1  869  18.115  13.929   7.044
  891ETHY    C1  870  17.738  13.575   6.878
  892ETHY    C1  871  17.436  13.201   6.633
  893ETHY    C1  872  17.209  12.814   6.321
  894THSLK    S  873  19.035  14.026   7.013
  895ETHY    C1  874  18.907  13.618   6.852
  896ETHY    C1  875  18.831  13.139   6.609
  897ETHY    C1  876  18.850  12.687   6.315
  898ETHY    C1  877  18.956  12.266   5.983
  899AUSL   AUS  878  19.225  14.193   7.336
  900AUSL   AUS  879  19.338  14.450   6.990
  901AUL    AUL  880  19.377  14.072   7.009
  902THSLK    S  881  19.188  13.933   7.258
  903ETHY    C1  882  19.115  13.488   7.175
  904ETHY    C1  883  19.117  12.960   7.052
  905ETHY    C1  884  19.225  12.452   6.905
  906ETHY    C1  885  19.430  11.973   6.742
  907THSLK    S  886  19.461  14.260   6.847
  908ETHY    C1  887  19.556  13.892   6.592
  909ETHY    C1  888  19.730  13.511   6.247
  910ETHY    C1  889  19.972  13.211   5.870
  911ETHY    C1  890  20.273  12.990   5.471
  912AUC    AUC  891  21.864  39.308   7.500
  913AUC    AUC  892  22.110  39.308   7.348
  914AUC    AUC  893  22.110  39.308   7.651
  915AUC    AUC  894  21.619  39.308   7.348
  916AUC    AUC  895  21.619  39.308   7.651
  917AUC    AUC  896  21.713  39.553   7.500
  918AUC    AUC  897  22.016  39.553   7.500
  919AUC    AUC  898  21.713  39.062   7.500
  920AUC    AUC  899  22.016  39.062   7.500
  921AUC    AUC  900  21.864  39.156   7.745
  922AUC    AUC  901  21.864  39.459   7.745
  923AUC    AUC  902  21.864  39.156   7.254
  924AUC    AUC  903  21.864  39.459   7.254
  925AUC    AUC  904  22.355  39.308   7.196
  926AUC    AUC  905  22.355  39.308   7.500
  927AUC    AUC  906  22.355  39.308   7.803
  928AUC    AUC  907  21.373  39.308   7.196
  929AUC    AUC  908  21.373  39.308   7.500
  930AUC    AUC  909  21.373  39.308   7.803
  931AUC    AUC  910  21.561  39.798   7.500
  932AUC    AUC  911  21.864  39.798   7.500
  933AUC    AUC  912  22.168  39.798   7.500
  934AUC    AUC  913  21.561  38.817   7.500
  935AUC    AUC  914  21.864  38.817   7.500
  936AUC    AUC  915  22.168  38.817   7.500
  937AUC    AUC  916  21.864  39.004   7.991
  938AUC    AUC  917  21.864  39.308   7.991
  939AUC    AUC  918  21.864  39.611   7.991
  940AUC    AUC  919  21.864  39.004   7.009
  941AUC    AUC  920  21.864  39.308   7.009
  942AUC    AUC  921  21.864  39.611   7.009
  943AUC    AUC  922  22.110  39.156   7.897
  944AUC    AUC  923  22.110  39.459   7.897
  945AUC    AUC  924  22.110  39.156   7.103
  946AUC    AUC  925  22.110  39.459   7.103
  947AUC    AUC  926  21.619  39.156   7.897
  948AUC    AUC  927  21.619  39.459   7.897
  949AUC    AUC  928  21.619  39.156   7.103
  950AUC    AUC  929  21.619  39.459   7.103
  951AUC    AUC  930  22.261  39.553   7.348
  952AUC    AUC  931  22.261  39.553   7.651
  953AUC    AUC  932  21.467  39.553   7.348
  954AUC    AUC  933  21.467  39.553   7.651
  955AUC    AUC  934  22.261  39.062   7.348
  956AUC    AUC  935  22.261  39.062   7.651
  957AUC    AUC  936  21.467  39.062   7.348
  958AUC    AUC  937  21.467  39.062   7.651
  959AUC    AUC  938  21.713  39.705   7.745
  960AUC    AUC  939  22.016  39.705   7.745
  961AUC    AUC  940  21.713  38.910   7.745
  962AUC    AUC  941  22.016  38.910   7.745
  963AUC    AUC  942  21.713  39.705   7.254
  964AUC    AUC  943  22.016  39.705   7.254
  965AUC    AUC  944  21.713  38.910   7.254
  966AUC    AUC  945  22.016  38.910   7.254
  967AUSL   AUS  946  22.273  39.308   8.080
  968AUSL   AUS  947  22.129  38.891   8.011
  969AUL    AUL  948  22.355  39.004   8.294
  970THSLK    S  949  22.247  38.703   8.156
  971ETHY    C1  950  22.343  38.335   8.412
  972ETHY    C1  951  22.521  37.952   8.753
  973ETHY    C1  952  22.763  37.652   9.130
  974ETHY    C1  953  23.059  37.433   9.534
  975THSLK    S  954  22.372  39.261   8.327
  976ETHY    C1  955  22.599  39.111   8.694
  977ETHY    C1  956  22.883  39.023   9.148
  978ETHY    C1  957  23.167  39.045   9.607
  979ETHY    C1  958  23.444  39.167  10.061
  980AUSL   AUS  959  22.028  39.156   8.173
  981AUSL   AUS  960  21.701  39.459   8.173
  982AUL    AUL  961  21.864  39.308   8.482
  983THSLK    S  962  22.109  39.105   8.418
  984ETHY    C1  963  22.199  38.887   8.810
  985ETHY    C1  964  22.327  38.713   9.308
  986ETHY    C1  965  22.473  38.648   9.823
  987ETHY    C1  966  22.630  38.682  10.346
  988THSLK    S  967  21.614  39.419   8.432
  989ETHY    C1  968  21.525  39.345   8.874
  990ETHY    C1  969  21.401  39.347   9.403
  991ETHY    C1  970  21.256  39.456   9.912
  992ETHY    C1  971  21.093  39.660  10.392
  993AUSL   AUS  972  22.028  39.459   8.173
  994AUSL   AUS  973  22.374  39.572   7.916
  995AUL    AUL  974  22.355  39.611   8.294
  996THSLK    S  975  22.115  39.511   8.416
  997ETHY    C1  976  22.203  39.728   8.809
  998ETHY    C1  977  22.328  39.901   9.308
  999ETHY    C1  978  22.473  39.967   9.823
 1000ETHY    C1  979  22.636  39.934  10.345
 1001THSLK    S  980  22.550  39.678   8.079
 1002ETHY    C1  981  22.912  39.728   8.355
 1003ETHY    C1  982  23.319  39.877   8.681
 1004ETHY    C1  983  23.681  40.126   8.995
 1005ETHY    C1  984  23.993  40.462   9.293
 1006AUSL   AUS  985  22.273  39.308   6.920
 1007AUSL   AUS  986  22.129  39.724   6.990
 1008AUL    AUL  987  22.355  39.611   6.706
 1009THSLK    S  988  22.377  39.261   6.676
 1010ETHY    C1  989  22.604  39.111   6.308
 1011ETHY    C1  990  22.883  39.023   5.851
 1012ETHY    C1  991  23.167  39.045   5.393
 1013ETHY    C1  992  23.449  39.167   4.941
 1014THSLK    S  993  22.306  39.843   6.820
 1015ETHY    C1  994  22.578  39.984   6.480
 1016ETHY    C1  995  22.856  40.231   6.085
 1017ETHY    C1  996  23.072  40.564   5.720
 1018ETHY    C1  997  23.229  40.971   5.391
 1019AUSL   AUS  998  22.028  39.156   6.826
 1020AUSL   AUS  999  22.374  39.043   7.083
 1021AUL    AUL 1000  22.355  39.004   6.706
 1022THSLK    S 1001  22.514  38.852   6.939
 1023ETHY    C1 1002  22.747  38.535   6.707
 1024ETHY    C1 1003  23.077  38.228   6.403
 1025ETHY    C1 1004  23.457  38.019   6.083
 1026ETHY    C1 1005  23.878  37.902   5.754
 1027THSLK    S 1006  22.115  39.104   6.583
 1028ETHY    C1 1007  22.203  38.887   6.191
 1029ETHY    C1 1008  22.328  38.714   5.692
 1030ETHY    C1 1009  22.473  38.648   5.176
 1031ETHY    C1 1010  22.636  38.681   4.656
 1032AUSL   AUS 1011  22.028  39.459   6.826
 1033AUSL   AUS 1012  21.701  39.156   6.826
 1034AUL    AUL 1013  21.864  39.308   6.518
 1035THSLK    S 1014  21.605  39.104   6.586
 1036ETHY    C1 1015  21.466  38.889   6.206
 1037ETHY    C1 1016  21.309  38.718   5.717
 1038ETHY    C1 1017  21.170  38.652   5.199
 1039ETHY    C1 1018  21.054  38.683   4.666
 1040THSLK    S 1019  22.130  39.420   6.572
 1041ETHY    C1 1020  22.267  39.343   6.142
 1042ETHY    C1 1021  22.420  39.343   5.622
 1043ETHY    C1 1022  22.558  39.452   5.112
 1044ETHY    C1 1023  22.681  39.659   4.621
 1045AUSL   AUS 1024  21.455  39.308   8.080
 1046AUSL   AUS 1025  21.600  39.724   8.011
 1047AUL    AUL 1026  21.373  39.611   8.294
 1048THSLK    S 1027  21.351  39.261   8.325
 1049ETHY    C1 1028  21.125  39.111   8.691
 1050ETHY    C1 1029  20.845  39.023   9.148
 1051ETHY    C1 1030  20.562  39.045   9.607
 1052ETHY    C1 1031  20.279  39.167  10.058
 1053THSLK    S 1032  21.477  39.857   8.201
 1054ETHY    C1 1033  21.381  40.052   8.604
 1055ETHY    C1 1034  21.208  40.333   9.034
 1056ETHY    C1 1035  20.965  40.659   9.390
 1057ETHY    C1 1036  20.664  41.018   9.671
 1058AUSL   AUS 1037  21.701  39.156   8.173
 1059AUSL   AUS 1038  21.354  39.043   7.916
 1060AUL    AUL 1039  21.373  39.004   8.294
 1061THSLK    S 1040  21.175  38.877   8.032
 1062ETHY    C1 1041  20.814  38.630   8.166
 1063ETHY    C1 1042  20.409  38.364   8.410
 1064ETHY    C1 1043  20.048  38.144   8.745
 1065ETHY    C1 1044  19.732  37.971   9.156
 1066THSLK    S 1045  21.599  39.106   8.413
 1067ETHY    C1 1046  21.461  38.891   8.793
 1068ETHY    C1 1047  21.308  38.718   9.284
 1069ETHY    C1 1048  21.171  38.652   9.800
 1070ETHY    C1 1049  21.047  38.684  10.332
 1071AUSL   AUS 1050  21.455  39.308   6.920
 1072AUSL   AUS 1051  21.600  38.891   6.990
 1073AUL    AUL 1052  21.373  39.004   6.706
 1074THSLK    S 1053  21.356  39.261   6.673
 1075ETHY    C1 1054  21.129  39.111   6.305
 1076ETHY    C1 1055  20.846  39.023   5.851
 1077ETHY    C1 1056  20.562  39.045   5.393
 1078ETHY    C1 1057  20.285  39.167   4.938
 1079THSLK    S 1058  21.426  38.716   6.865
 1080ETHY    C1 1059  21.154  38.403   6.673
 1081ETHY    C1 1060  20.873  38.055   6.367
 1082ETHY    C1 1061  20.656  37.747   5.980
 1083ETHY    C1 1062  20.504  37.480   5.528
 1084AUSL   AUS 1063  21.701  39.459   6.826
 1085AUSL   AUS 1064  21.354  39.572   7.083
 1086AUL    AUL 1065  21.373  39.611   6.706
 1087THSLK    S 1066  21.218  39.703   6.893
 1088ETHY    C1 1067  20.984  39.824   6.518
 1089ETHY    C1 1068  20.652  40.012   6.132
 1090ETHY    C1 1069  20.272  40.251   5.833
 1091ETHY    C1 1070  19.855  40.531   5.618
 1092THSLK    S 1071  21.620  39.421   6.566
 1093ETHY    C1 1072  21.530  39.346   6.124
 1094ETHY    C1 1073  21.402  39.347   5.597
 1095ETHY    C1 1074  21.256  39.456   5.089
 1096ETHY    C1 1075  21.099  39.662   4.608
 1097AUSL   AUS 1076  22.444  39.717   7.500
 1098AUSL   AUS 1077  22.374  39.572   7.083
 1099AUL    AUL 1078  22.658  39.798   7.196
 1100THSLK    S 1079  22.554  39.679   6.925
 1101ETHY    C1 1080  22.915  39.729   6.648
 1102ETHY    C1 1081  23.319  39.877   6.319
 1103ETHY    C1 1082  23.681  40.126   6.005
 1104ETHY    C1 1083  23.997  40.463   5.713
 1105THSLK    S 1084  22.714  39.778   7.503
 1106ETHY    C1 1085  23.161  39.878   7.502
 1107ETHY    C1 1086  23.663  40.084   7.500
 1108ETHY    C1 1087  24.110  40.386   7.500
 1109ETHY    C1 1088  24.498  40.770   7.503
 1110AUSL   AUS 1089  22.538  39.471   7.348
 1111AUSL   AUS 1090  22.538  39.144   7.651
 1112AUL    AUL 1091  22.846  39.308   7.500
 1113THSLK    S 1092  22.800  39.518   7.345
 1114ETHY    C1 1093  23.250  39.487   7.270
 1115ETHY    C1 1094  23.782  39.542   7.179
 1116ETHY    C1 1095  24.289  39.705   7.091
 1117ETHY    C1 1096  24.764  39.963   7.011
 1118THSLK    S 1097  22.775  39.007   7.659
 1119ETHY    C1 1098  23.146  38.749   7.726
 1120ETHY    C1 1099  23.632  38.523   7.808
 1121ETHY    C1 1100  24.151  38.403   7.896
 1122ETHY    C1 1101  24.689  38.381   7.989
 1123AUSL   AUS 1102  22.538  39.471   7.651
 1124AUSL   AUS 1103  22.281  39.818   7.764
 1125AUL    AUL 1104  22.658  39.798   7.803
 1126THSLK    S 1105  22.466  39.942   7.924
 1127ETHY    C1 1106  22.823  40.134   8.136
 1128ETHY    C1 1107  23.200  40.441   8.377
 1129ETHY    C1 1108  23.501  40.828   8.602
 1130ETHY    C1 1109  23.728  41.279   8.809
 1131THSLK    S 1110  22.799  39.517   7.661
 1132ETHY    C1 1111  23.250  39.487   7.734
 1133ETHY    C1 1112  23.783  39.542   7.821
 1134ETHY    C1 1113  24.289  39.705   7.908
 1135ETHY    C1 1114  24.763  39.963   7.995
 1136AUSL   AUS 1115  21.284  39.717   7.500
 1137AUSL   AUS 1116  21.354  39.572   7.916
 1138AUL    AUL 1117  21.070  39.798   7.803
 1139THSLK    S 1118  21.214  39.698   8.107
 1140ETHY    C1 1119  20.981  39.819   8.482
 1141ETHY    C1 1120  20.652  40.012   8.868
 1142ETHY    C1 1121  20.272  40.251   9.166
 1143ETHY    C1 1122  19.851  40.526   9.381
 1144THSLK    S 1123  21.063  39.857   7.503
 1145ETHY    C1 1124  20.774  40.212   7.502
 1146ETHY    C1 1125  20.366  40.569   7.500
 1147ETHY    C1 1126  19.896  40.833   7.500
 1148ETHY    C1 1127  19.378  41.009   7.503
 1149AUSL   AUS 1128  21.191  39.471   7.348
 1150AUSL   AUS 1129  21.448  39.818   7.236
 1151AUL    AUL 1130  21.070  39.798   7.196
 1152THSLK    S 1131  20.954  39.585   7.303
 1153ETHY    C1 1132  20.582  39.759   7.101
 1154ETHY    C1 1133  20.096  39.935   6.936
 1155ETHY    C1 1134  19.578  40.067   6.868
 1156ETHY    C1 1135  19.040  40.159   6.890
 1157THSLK    S 1136  21.328  39.985   7.056
 1158ETHY    C1 1137  21.176  40.304   6.765
 1159ETHY    C1 1138  20.922  40.684   6.473
 1160ETHY    C1 1139  20.589  41.052   6.260
 1161ETHY    C1 1140  20.193  41.402   6.122
 1162AUSL   AUS 1141  21.191  39.471   7.651
 1163AUSL   AUS 1142  21.191  39.144   7.348
 1164AUL    AUL 1143  20.883  39.308   7.500
 1165THSLK    S 1144  20.929  39.069   7.384
 1166ETHY    C1 1145  20.479  39.018   7.446
 1167ETHY    C1 1146  19.946  38.915   7.434
 1168ETHY    C1 1147  19.439  38.765   7.327
 1169ETHY    C1 1148  18.966  38.572   7.135
 1170THSLK    S 1149  20.953  39.579   7.699
 1171ETHY    C1 1150  20.582  39.755   7.901
 1172ETHY    C1 1151  20.096  39.934   8.063
 1173ETHY    C1 1152  19.578  40.067   8.133
 1174ETHY    C1 1153  19.039  40.153   8.114
 1175AUSL   AUS 1154  22.444  38.898   7.500
 1176AUSL   AUS 1155  22.374  39.043   7.916
 1177AUL    AUL 1156  22.658  38.817   7.803
 1178THSLK    S 1157  22.665  38.758   7.503
 1179ETHY    C1 1158  22.954  38.403   7.502
 1180ETHY    C1 1159  23.363  38.046   7.500
 1181ETHY    C1 1160  23.833  37.782   7.500
 1182ETHY    C1 1161  24.350  37.606   7.503
 1183THSLK    S 1162  22.511  38.853   8.066
 1184ETHY    C1 1163  22.744  38.536   8.297
 1185ETHY    C1 1164  23.077  38.229   8.598
 1186ETHY    C1 1165  23.457  38.019   8.918
 1187ETHY    C1 1166  23.874  37.903   9.250
 1188AUSL   AUS 1167  22.538  39.144   7.348
 1189AUSL   AUS 1168  22.281  38.797   7.236
 1190AUL    AUL 1169  22.658  38.817   7.196
 1191THSLK    S 1170  22.776  39.007   7.346
 1192ETHY    C1 1171  23.147  38.749   7.279
 1193ETHY    C1 1172  23.632  38.523   7.192
 1194ETHY    C1 1173  24.151  38.403   7.103
 1195ETHY    C1 1174  24.690  38.381   7.018
 1196THSLK    S 1175  22.404  38.606   7.099
 1197ETHY    C1 1176  22.554  38.204   6.942
 1198ETHY    C1 1177  22.807  37.774   6.728
 1199ETHY    C1 1178  23.139  37.418   6.495
 1200ETHY    C1 1179  23.538  37.137   6.249
 1201AUSL   AUS 1180  21.284  38.898   7.500
 1202AUSL   AUS 1181  21.354  39.043   7.083
 1203AUL    AUL 1182  21.070  38.817   7.196
 1204THSLK    S 1183  21.179  38.872   6.966
 1205ETHY    C1 1184  20.817  38.626   6.833
 1206ETHY    C1 1185  20.409  38.363   6.589
 1207ETHY    C1 1186  20.048  38.144   6.255
 1208ETHY    C1 1187  19.736  37.966   5.843
 1209THSLK    S 1188  21.014  38.837   7.503
 1210ETHY    C1 1189  20.568  38.737   7.502
 1211ETHY    C1 1190  20.066  38.531   7.500
 1212ETHY    C1 1191  19.619  38.229   7.500
 1213ETHY    C1 1192  19.231  37.845   7.503
 1214AUSL   AUS 1193  21.191  39.144   7.651
 1215AUSL   AUS 1194  21.448  38.797   7.764
 1216AUL    AUL 1195  21.070  38.817   7.803
 1217THSLK    S 1196  21.260  38.649   7.881
 1218ETHY    C1 1197  20.904  38.373   7.958
 1219ETHY    C1 1198  20.529  38.016   8.122
 1220ETHY    C1 1199  20.228  37.642   8.367
 1221ETHY    C1 1200  19.997  37.260   8.682
 1222THSLK    S 1201  20.928  39.074   7.618
 1223ETHY    C1 1202  20.478  39.022   7.557
 1224ETHY    C1 1203  19.946  38.916   7.566
 1225ETHY    C1 1204  19.439  38.765   7.673
 1226ETHY    C1 1205  18.965  38.577   7.867
 1227AUSL   AUS 1206  21.864  39.888   7.909
 1228AUSL   AUS 1207  21.448  39.818   7.764
 1229AUL    AUL 1208  21.561  40.102   7.991
 1230THSLK    S 1209  21.325  39.980   7.948
 1231ETHY    C1 1210  21.174  40.300   8.237
 1232ETHY    C1 1211  20.921  40.683   8.527
 1233ETHY    C1 1212  20.589  41.051   8.740
 1234ETHY    C1 1213  20.190  41.397   8.881
 1235THSLK    S 1214  21.902  40.119   8.034
 1236ETHY    C1 1215  22.030  40.445   8.327
 1237ETHY    C1 1216  22.107  40.877   8.646
 1238ETHY    C1 1217  22.088  41.342   8.920
 1239ETHY    C1 1218  21.982  41.827   9.147
 1240AUSL   AUS 1219  21.713  39.981   7.663
 1241AUSL   AUS 1220  22.016  39.981   7.336
 1242AUL    AUL 1221  21.864  40.289   7.500
 1243THSLK    S 1222  21.750  40.233   7.772
 1244ETHY    C1 1223  21.823  40.657   7.929
 1245ETHY    C1 1224  21.820  41.173   8.095
 1246ETHY    C1 1225  21.712  41.684   8.229
 1247ETHY    C1 1226  21.508  42.180   8.336
 1248THSLK    S 1227  22.067  40.221   7.237
 1249ETHY    C1 1228  22.280  40.598   7.091
 1250ETHY    C1 1229  22.450  41.087   6.929
 1251ETHY    C1 1230  22.517  41.605   6.792
 1252ETHY    C1 1231  22.488  42.139   6.682
 1253AUSL   AUS 1232  22.016  39.981   7.663
 1254AUSL   AUS 1233  22.129  39.724   8.011
 1255AUL    AUL 1234  22.168  40.102   7.991
 1256THSLK    S 1235  22.302  39.841   8.184
 1257ETHY    C1 1236  22.575  39.982   8.522
 1258ETHY    C1 1237  22.856  40.231   8.915
 1259ETHY    C1 1238  23.072  40.564   9.279
 1260ETHY    C1 1239  23.224  40.969   9.614
 1261THSLK    S 1240  22.066  40.219   7.768
 1262ETHY    C1 1241  22.279  40.598   7.913
 1263ETHY    C1 1242  22.450  41.087   8.072
 1264ETHY    C1 1243  22.517  41.605   8.207
 1265ETHY    C1 1244  22.486  42.138   8.325
 1266AUSL   AUS 1245  21.864  38.727   7.909
 1267AUSL   AUS 1246  22.281  38.797   7.764
 1268AUL    AUL 1247  22.168  38.513   7.991
 1269THSLK    S 1248  21.823  38.470   7.992
 1270ETHY    C1 1249  21.696  38.061   8.152
 1271ETHY    C1 1250  21.622  37.580   8.391
 1272ETHY    C1 1251  21.641  37.128   8.684
 1273ETHY    C1 1252  21.743  36.710   9.021
 1274THSLK    S 1253  22.401  38.607   7.907
 1275ETHY    C1 1254  22.552  38.205   8.062
 1276ETHY    C1 1255  22.807  37.774   8.272
 1277ETHY    C1 1256  23.139  37.418   8.505
 1278ETHY    C1 1257  23.535  37.139   8.758
 1279AUSL   AUS 1258  21.713  38.634   7.663
 1280AUSL   AUS 1259  21.600  38.891   8.011
 1281AUL    AUL 1260  21.561  38.513   7.991
 1282THSLK    S 1261  21.662  38.389   7.744
 1283ETHY    C1 1262  21.449  37.990   7.812
 1284ETHY    C1 1263  21.278  37.487   7.925
 1285ETHY    C1 1264  21.212  36.973   8.072
 1286ETHY    C1 1265  21.241  36.458   8.252
 1287THSLK    S 1266  21.422  38.721   8.136
 1288ETHY    C1 1267  21.150  38.406   8.327
 1289ETHY    C1 1268  20.872  38.055   8.633
 1290ETHY    C1 1269  20.656  37.747   9.019
 1291ETHY    C1 1270  20.500  37.485   9.473
 1292AUSL   AUS 1271  22.016  38.634   7.663
 1293AUSL   AUS 1272  21.713  38.634   7.336
 1294AUL    AUL 1273  21.864  38.326   7.500
 1295THSLK    S 1274  21.663  38.387   7.261
 1296ETHY    C1 1275  21.450  37.989   7.192
 1297ETHY    C1 1276  21.278  37.487   7.076
 1298ETHY    C1 1277  21.212  36.973   6.927
 1299ETHY    C1 1278  21.243  36.456   6.754
 1300THSLK    S 1279  21.977  38.375   7.748
 1301ETHY    C1 1280  21.905  37.930   7.829
 1302ETHY    C1 1281  21.908  37.401   7.948
 1303ETHY    C1 1282  22.017  36.893   8.095
 1304ETHY    C1 1283  22.219  36.415   8.264
 1305AUSL   AUS 1284  21.864  39.888   7.091
 1306AUSL   AUS 1285  22.281  39.818   7.236
 1307AUL    AUL 1286  22.168  40.102   7.009
 1308THSLK    S 1287  21.906  40.122   6.971
 1309ETHY    C1 1288  22.033  40.447   6.676
 1310ETHY    C1 1289  22.107  40.877   6.353
 1311ETHY    C1 1290  22.088  41.342   6.080
 1312ETHY    C1 1291  21.985  41.830   5.857
 1313THSLK    S 1292  22.468  39.943   7.081
 1314ETHY    C1 1293  22.825  40.135   6.869
 1315ETHY    C1 1294  23.200  40.441   6.623
 1316ETHY    C1 1295  23.501  40.828   6.398
 1317ETHY    C1 1296  23.731  41.280   6.197
 1318AUSL   AUS 1297  21.713  39.981   7.336
 1319AUSL   AUS 1298  21.600  39.724   6.990
 1320AUL    AUL 1299  21.561  40.102   7.009
 1321THSLK    S 1300  21.752  40.235   7.233
 1322ETHY    C1 1301  21.824  40.658   7.074
 1323ETHY    C1 1302  21.821  41.174   6.906
 1324ETHY    C1 1303  21.712  41.684   6.770
 1325ETHY    C1 1304  21.510  42.182   6.670
 1326THSLK    S 1305  21.481  39.861   6.800
 1327ETHY    C1 1306  21.385  40.055   6.396
 1328ETHY    C1 1307  21.208  40.333   5.966
 1329ETHY    C1 1308  20.965  40.658   5.611
 1330ETHY    C1 1309  20.669  41.023   5.330
 1331AUSL   AUS 1310  21.864  38.727   7.091
 1332AUSL   AUS 1311  21.448  38.797   7.236
 1333AUL    AUL 1312  21.561  38.513   7.009
 1334THSLK    S 1313  21.263  38.644   7.122
 1335ETHY    C1 1314  20.906  38.370   7.044
 1336ETHY    C1 1315  20.529  38.016   6.878
 1337ETHY    C1 1316  20.227  37.642   6.633
 1338ETHY    C1 1317  20.000  37.255   6.321
 1339THSLK    S 1318  21.826  38.467   7.013
 1340ETHY    C1 1319  21.698  38.059   6.852
 1341ETHY    C1 1320  21.622  37.580   6.609
 1342ETHY    C1 1321  21.641  37.128   6.315
 1343ETHY    C1 1322  21.747  36.707   5.983
 1344AUSL   AUS 1323  22.016  38.634   7.336
 1345AUSL   AUS 1324  22.129  38.891   6.990
 1346AUL    AUL 1325  22.168  38.513   7.009
 1347THSLK    S 1326  21.979  38.374   7.258
 1348ETHY    C1 1327  21.906  37.929   7.175
 1349ETHY    C1 1328  21.908  37.401   7.052
 1350ETHY    C1 1329  22.016  36.893   6.905
 1351ETHY    C1 1330  22.221  36.414   6.742
 1352THSLK    S 1331  22.252  38.701   6.847
 1353ETHY    C1 1332  22.347  38.333   6.592
 1354ETHY    C1 1333  22.521  37.952   6.247
 1355ETHY    C1 1334  22.763  37.652   5.870
 1356ETHY    C1 1335  23.064  37.431   5.471
 1357AUC    AUC 1336  27.258   9.146   7.500
 1358AUC    AUC 1337  27.504   9.146   7.348
 1359AUC    AUC 1338  27.504   9.146   7.651
 1360AUC    AUC 1339  27.013   9.146   7.348
 1361AUC    AUC 1340  27.013   9.146   7.651
 1362AUC    AUC 1341  27.107   9.391   7.500
 1363AUC    AUC 1342  27.410   9.391   7.500
 1364AUC    AUC 1343  27.107   8.900   7.500
 1365AUC    AUC 1344  27.410   8.900   7.500
 1366AUC    AUC 1345  27.258   8.994   7.745
 1367AUC    AUC 1346  27.258   9.297   7.745
 1368AUC    AUC 1347  27.258   8.994   7.254
 1369AUC    AUC 1348  27.258   9.297   7.254
 1370AUC    AUC 1349  27.749   9.146   7.196
 1371AUC    AUC 1350  27.749   9.146   7.500
 1372AUC    AUC 1351  27.749   9.146   7.803
 1373AUC    AUC 1352  26.767   9.146   7.196
 1374AUC    AUC 1353  26.767   9.146   7.500
 1375AUC    AUC 1354  26.767   9.146   7.803
 1376AUC    AUC 1355  26.955   9.636   7.500
 1377AUC    AUC 1356  27.258   9.636   7.500
 1378AUC    AUC 1357  27.562   9.636   7.500
 1379AUC    AUC 1358  26.955   8.655   7.500
 1380AUC    AUC 1359  27.258   8.655   7.500
 1381AUC    AUC 1360  27.562   8.655   7.500
 1382AUC    AUC 1361  27.258   8.842   7.991
 1383AUC    AUC 1362  27.258   9.146   7.991
 1384AUC    AUC 1363  27.258   9.449   7.991
 1385AUC    AUC 1364  27.258   8.842   7.009
 1386AUC    AUC 1365  27.258   9.146   7.009
 1387AUC    AUC 1366  27.258   9.449   7.009
 1388AUC    AUC 1367  27.504   8.994   7.897
 1389AUC    AUC 1368  27.504   9.297   7.897
 1390AUC    AUC 1369  27.504   8.994   7.103
 1391AUC    AUC 1370  27.504   9.297   7.103
 1392AUC    AUC 1371  27.013   8.994   7.897
 1393AUC    AUC 1372  27.013   9.297   7.897
 1394AUC    AUC 1373  27.013   8.994   7.103
 1395AUC    AUC 1374  27.013   9.297   7.103
 1396AUC    AUC 1375  27.655   9.391   7.348
 1397AUC    AUC 1376  27.655   9.391   7.651
 1398AUC    AUC 1377  26.861   9.391   7.348
 1399AUC    AUC 1378  26.861   9.391   7.651
 1400AUC    AUC 1379  27.655   8.900   7.348
 1401AUC    AUC 1380  27.655   8.900   7.651
 1402AUC    AUC 1381  26.861   8.900   7.348
 1403AUC    AUC 1382  26.861   8.900   7.651
 1404AUC    AUC 1383  27.107   9.543   7.745
 1405AUC    AUC 1384  27.410   9.543   7.745
 1406AUC    AUC 1385  27.107   8.748   7.745
 1407AUC    AUC 1386  27.410   8.748   7.745
 1408AUC    AUC 1387  27.107   9.543   7.254
 1409AUC    AUC 1388  27.410   9.543   7.254
 1410AUC    AUC 1389  27.107   8.748   7.254
 1411AUC    AUC 1390  27.410   8.748   7.254
 1412AUSL   AUS 1391  27.667   9.146   8.080
 1413AUSL   AUS 1392  27.523   8.729   8.011
 1414AUL    AUL 1393  27.749   8.842   8.294
 1415THSLK    S 1394  27.641   8.541   8.156
 1416ETHY    C1 1395  27.737   8.173   8.412
 1417ETHY    C1 1396  27.915   7.790   8.753
 1418ETHY    C1 1397  28.157   7.490   9.130
 1419ETHY    C1 1398  28.453   7.271   9.534
 1420THSLK    S 1399  27.766   9.099   8.327
 1421ETHY    C1 1400  27.993   8.949   8.694
 1422ETHY    C1 1401  28.277   8.861   9.148
 1423ETHY    C1 1402  28.561   8.883   9.607
 1424ETHY    C1 1403  28.838   9.005  10.061
 1425AUSL   AUS 1404  27.422   8.994   8.173
 1426AUSL   AUS 1405  27.095   9.297   8.173
 1427AUL    AUL 1406  27.258   9.146   8.482
 1428THSLK    S 1407  27.503   8.943   8.418
 1429ETHY    C1 1408  27.593   8.725   8.810
 1430ETHY    C1 1409  27.721   8.551   9.308
 1431ETHY    C1 1410  27.867   8.486   9.823
 1432ETHY    C1 1411  28.024   8.520  10.346
 1433THSLK    S 1412  27.008   9.257   8.432
 1434ETHY    C1 1413  26.919   9.183   8.874
 1435ETHY    C1 1414  26.795   9.185   9.403
 1436ETHY    C1 1415  26.650   9.294   9.912
 1437ETHY    C1 1416  26.487   9.498  10.392
 1438AUSL   AUS 1417  27.422   9.297   8.173
 1439AUSL   AUS 1418  27.768   9.410   7.916
 1440AUL    AUL 1419  27.749   9.449   8.294
 1441THSLK    S 1420  27.509   9.349   8.416
 1442ETHY    C1 1421  27.597   9.566   8.809
 1443ETHY    C1 1422  27.722   9.739   9.308
 1444ETHY    C1 1423  27.867   9.805   9.823
 1445ETHY    C1 1424  28.030   9.772  10.345
 1446THSLK    S 1425  27.944   9.516   8.079
 1447ETHY    C1 1426  28.306   9.566   8.355
 1448ETHY    C1 1427  28.713   9.715   8.681
 1449ETHY    C1 1428  29.075   9.964   8.995
 1450ETHY    C1 1429  29.387  10.300   9.293
 1451AUSL   AUS 1430  27.667   9.146   6.920
 1452AUSL   AUS 1431  27.523   9.562   6.990
 1453AUL    AUL 1432  27.749   9.449   6.706
 1454THSLK    S 1433  27.771   9.099   6.676
 1455ETHY    C1 1434  27.998   8.949   6.308
 1456ETHY    C1 1435  28.277   8.861   5.851
 1457ETHY    C1 1436  28.561   8.883   5.393
 1458ETHY    C1 1437  28.843   9.005   4.941
 1459THSLK    S 1438  27.700   9.681   6.820
 1460ETHY    C1 1439  27.972   9.822   6.480
 1461ETHY    C1 1440  28.250  10.069   6.085
 1462ETHY    C1 1441  28.466  10.402   5.720
 1463ETHY    C1 1442  28.623  10.809   5.391
 1464AUSL   AUS 1443  27.422   8.994   6.826
 1465AUSL   AUS 1444  27.768   8.881   7.083
 1466AUL    AUL 1445  27.749   8.842   6.706
 1467THSLK    S 1446  27.908   8.690   6.939
 1468ETHY    C1 1447  28.141   8.373   6.707
 1469ETHY    C1 1448  28.471   8.066   6.403
 1470ETHY    C1 1449  28.851   7.857   6.083
 1471ETHY    C1 1450  29.272   7.740   5.754
 1472THSLK    S 1451  27.509   8.942   6.583
 1473ETHY    C1 1452  27.597   8.725   6.191
 1474ETHY    C1 1453  27.722   8.552   5.692
 1475ETHY    C1 1454  27.867   8.486   5.176
 1476ETHY    C1 1455  28.030   8.519   4.656
 1477AUSL   AUS 1456  27.422   9.297   6.826
 1478AUSL   AUS 1457  27.095   8.994   6.826
 1479AUL    AUL 1458  27.258   9.146   6.518
 1480THSLK    S 1459  26.999   8.942   6.586
 1481ETHY    C1 1460  26.860   8.727   6.206
 1482ETHY    C1 1461  26.703   8.556   5.717
 1483ETHY    C1 1462  26.564   8.490   5.199
 1484ETHY    C1 1463  26.448   8.521   4.666
 1485THSLK    S 1464  27.524   9.258   6.572
 1486ETHY    C1 1465  27.661   9.181   6.142
 1487ETHY    C1 1466  27.814   9.181   5.622
 1488ETHY    C1 1467  27.952   9.290   5.112
 1489ETHY    C1 1468  28.075   9.497   4.621
 1490AUSL   AUS 1469  26.849   9.146   8.080
 1491AUSL   AUS 1470  26.994   9.562   8.011
 1492AUL    AUL 1471  26.767   9.449   8.294
 1493THSLK    S 1472  26.745   9.099   8.325
 1494ETHY    C1 1473  26.519   8.949   8.691
 1495ETHY    C1 1474  26.239   8.861   9.148
 1496ETHY    C1 1475  25.956   8.883   9.607
 1497ETHY    C1 1476  25.673   9.005  10.058
 1498THSLK    S 1477  26.871   9.695   8.201
 1499ETHY    C1 1478  26.775   9.890   8.604
 1500ETHY    C1 1479  26.602  10.171   9.034
 1501ETHY    C1 1480  26.359  10.497   9.390
 1502ETHY    C1 1481  26.058  10.856   9.671
 1503AUSL   AUS 1482  27.095   8.994   8.173
 1504AUSL   AUS 1483  26.748   8.881   7.916
 1505AUL    AUL 1484  26.767   8.842   8.294
 1506THSLK    S 1485  26.569   8.715   8.032
 1507ETHY    C1 1486  26.208   8.468   8.166
 1508ETHY    C1 1487  25.803   8.202   8.410
 1509ETHY    C1 1488  25.442   7.982   8.745
 1510ETHY    C1 1489  25.126   7.809   9.156
 1511THSLK    S 1490  26.993   8.944   8.413
 1512ETHY    C1 1491  26.855   8.729   8.793
 1513ETHY    C1 1492  26.702   8.556   9.284
 1514ETHY    C1 1493  26.565   8.490   9.800
 1515ETHY    C1 1494  26.441   8.522  10.332
 1516AUSL   AUS 1495  26.849   9.146   6.920
 1517AUSL   AUS 1496  26.994   8.729   6.990
 1518AUL    AUL 1497  26.767   8.842   6.706
 1519THSLK    S 1498  26.750   9.099   6.673
 1520ETHY    C1 1499  26.523   8.949   6.305
 1521ETHY    C1 1500  26.240   8.861   5.851
 1522ETHY    C1 1501  25.956   8.883   5.393
 1523ETHY    C1 1502  25.679   9.005   4.938
 1524THSLK    S 1503  26.820   8.554   6.865
 1525ETHY    C1 1504  26.548   8.241   6.673
 1526ETHY    C1 1505  26.267   7.893   6.367
 1527ETHY    C1 1506  26.050   7.585   5.980
 1528ETHY    C1 1507  25.898   7.318   5.528
 1529AUSL   AUS 1508  27.095   9.297   6.826
 1530AUSL   AUS 1509  26.748   9.410   7.083
 1531AUL    AUL 1510  26.767   9.449   6.706
 1532THSLK    S 1511  26.612   9.541   6.893
 1533ETHY    C1 1512  26.378   9.662   6.518
 1534ETHY    C1 1513  26.046   9.850   6.132
 1535ETHY    C1 1514  25.666  10.089   5.833
 1536ETHY    C1 1515  25.249  10.369   5.618
 1537THSLK    S 1516  27.014   9.259   6.566
 1538ETHY    C1 1517  26.924   9.184   6.124
 1539ETHY    C1 1518  26.796   9.185   5.597
 1540ETHY    C1 1519  26.650   9.294   5.089
 1541ETHY    C1 1520  26.493   9.500   4.608
 1542AUSL   AUS 1521  27.838   9.555   7.500
 1543AUSL   AUS 1522  27.768   9.410   7.083
 1544AUL    AUL 1523  28.052   9.636   7.196
 1545THSLK    S 1524  27.948   9.517   6.925
 1546ETHY    C1 1525  28.309   9.567   6.648
 1547ETHY    C1 1526  28.713   9.715   6.319
 1548ETHY    C1 1527  29.075   9.964   6.005
 1549ETHY    C1 1528  29.391  10.301   5.713
 1550THSLK    S 1529  28.108   9.616   7.503
 1551ETHY    C1 1530  28.555   9.716   7.502
 1552ETHY    C1 1531  29.057   9.922   7.500
 1553ETHY    C1 1532  29.504  10.224   7.500
 1554ETHY    C1 1533  29.892  10.608   7.503
 1555AUSL   AUS 1534  27.932   9.309   7.348
 1556AUSL   AUS 1535  27.932   8.982   7.651
 1557AUL    AUL 1536  28.240   9.146   7.500
 1558THSLK    S 1537  28.194   9.356   7.345
 1559ETHY    C1 1538  28.644   9.325   7.270
 1560ETHY    C1 1539  29.176   9.380   7.179
 1561ETHY    C1 1540  29.683   9.543   7.091
 1562ETHY    C1 1541  30.158   9.801   7.011
 1563THSLK    S 1542  28.169   8.845   7.659
 1564ETHY    C1 1543  28.540   8.587   7.726
 1565ETHY    C1 1544  29.026   8.361   7.808
 1566ETHY    C1 1545  29.545   8.241   7.896
 1567ETHY    C1 1546  30.083   8.219   7.989
 1568AUSL   AUS 1547  27.932   9.309   7.651
 1569AUSL   AUS 1548  27.675   9.656   7.764
 1570AUL    AUL 1549  28.052   9.636   7.803
 1571THSLK    S 1550  27.860   9.780   7.924
 1572ETHY    C1 1551  28.217   9.972   8.136
 1573ETHY    C1 1552  28.594  10.279   8.377
 1574ETHY    C1 1553  28.895  10.666   8.602
 1575ETHY    C1 1554  29.122  11.117   8.809
 1576THSLK    S 1555  28.193   9.355   7.661
 1577ETHY    C1 1556  28.644   9.325   7.734
 1578ETHY    C1 1557  29.177   9.380   7.821
 1579ETHY    C1 1558  29.683   9.543   7.908
 1580ETHY    C1 1559  30.157   9.801   7.995
 1581AUSL   AUS 1560  26.678   9.555   7.500
 1582AUSL   AUS 1561  26.748   9.410   7.916
 1583AUL    AUL 1562  26.464   9.636   7.803
 1584THSLK    S 1563  26.608   9.536   8.107
 1585ETHY    C1 1564  26.375   9.657   8.482
 1586ETHY    C1 1565  26.046   9.850   8.868
 1587ETHY    C1 1566  25.666  10.089   9.166
 1588ETHY    C1 1567  25.245  10.364   9.381
 1589THSLK    S 1568  26.457   9.695   7.503
 1590ETHY    C1 1569  26.168  10.050   7.502
 1591ETHY    C1 1570  25.760  10.407   7.500
 1592ETHY    C1 1571  25.290  10.671   7.500
 1593ETHY    C1 1572  24.772  10.847   7.503
 1594AUSL   AUS 1573  26.585   9.309   7.348
 1595AUSL   AUS 1574  26.842   9.656   7.236
 1596AUL    AUL 1575  26.464   9.636   7.196
 1597THSLK    S 1576  26.348   9.423   7.303
 1598ETHY    C1 1577  25.976   9.597   7.101
 1599ETHY    C1 1578  25.490   9.773   6.936
 1600ETHY    C1 1579  24.972   9.905   6.868
 1601ETHY    C1 1580  24.434   9.997   6.890
 1602THSLK    S 1581  26.722   9.823   7.056
 1603ETHY    C1 1582  26.570  10.142   6.765
 1604ETHY    C1 1583  26.316  10.522   6.473
 1605ETHY    C1 1584  25.983  10.890   6.260
 1606ETHY    C1 1585  25.587  11.240   6.122
 1607AUSL   AUS 1586  26.585   9.309   7.651
 1608AUSL   AUS 1587  26.585   8.982   7.348
 1609AUL    AUL 1588  26.277   9.146   7.500
 1610THSLK    S 1589  26.323   8.907   7.384
 1611ETHY    C1 1590  25.873   8.856   7.446
 1612ETHY    C1 1591  25.340   8.753   7.434
 1613ETHY    C1 1592  24.833   8.603   7.327
 1614ETHY    C1 1593  24.360   8.410   7.135
 1615THSLK    S 1594  26.347   9.417   7.699
 1616ETHY    C1 1595  25.976   9.593   7.901
 1617ETHY    C1 1596  25.490   9.772   8.063
 1618ETHY    C1 1597  24.972   9.905   8.133
 1619ETHY    C1 1598  24.433   9.991   8.114
 1620AUSL   AUS 1599  27.838   8.736   7.500
 1621AUSL   AUS 1600  27.768   8.881   7.916
 1622AUL    AUL 1601  28.052   8.655   7.803
 1623THSLK    S 1602  28.059   8.596   7.503
 1624ETHY    C1 1603  28.348   8.241   7.502
 1625ETHY    C1 1604  28.757   7.884   7.500
 1626ETHY    C1 1605  29.227   7.620   7.500
 1627ETHY    C1 1606  29.744   7.444   7.503
 1628THSLK    S 1607  27.905   8.691   8.066
 1629ETHY    C1 1608  28.138   8.374   8.297
 1630ETHY    C1 1609  28.471   8.067   8.598
 1631ETHY    C1 1610  28.851   7.857   8.918
 1632ETHY    C1 1611  29.268   7.741   9.250
 1633AUSL   AUS 1612  27.932   8.982   7.348
 1634AUSL   AUS 1613  27.675   8.635   7.236
 1635AUL    AUL 1614  28.052   8.655   7.196
 1636THSLK    S 1615  28.170   8.845   7.346
 1637ETHY    C1 1616  28.541   8.587   7.279
 1638ETHY    C1 1617  29.026   8.361   7.192
 1639ETHY    C1 1618  29.545   8.241   7.103
 1640ETHY    C1 1619  30.084   8.219   7.018
 1641THSLK    S 1620  27.798   8.444   7.099
 1642ETHY    C1 1621  27.948   8.042   6.942
 1643ETHY    C1 1622  28.201   7.612   6.728
 1644ETHY    C1 1623  28.533   7.256   6.495
 1645ETHY    C1 1624  28.932   6.975   6.249
 1646AUSL   AUS 1625  26.678   8.736   7.500
 1647AUSL   AUS 1626  26.748   8.881   7.083
 1648AUL    AUL 1627  26.464   8.655   7.196
 1649THSLK    S 1628  26.573   8.710   6.966
 1650ETHY    C1 1629  26.211   8.464   6.833
 1651ETHY    C1 1630  25.803   8.201   6.589
 1652ETHY    C1 1631  25.442   7.982   6.255
 1653ETHY    C1 1632  25.130   7.804   5.843
 1654THSLK    S 1633  26.408   8.675   7.503
 1655ETHY    C1 1634  25.962   8.575   7.502
 1656ETHY    C1 1635  25.460   8.369   7.500
 1657ETHY    C1 1636  25.013   8.067   7.500
 1658ETHY    C1 1637  24.625   7.683   7.503
 1659AUSL   AUS 1638  26.585   8.982   7.651
 1660AUSL   AUS 1639  26.842   8.635   7.764
 1661AUL    AUL 1640  26.464   8.655   7.803
 1662THSLK    S 1641  26.654   8.487   7.881
 1663ETHY    C1 1642  26.298   8.211   7.958
 1664ETHY    C1 1643  25.923   7.854   8.122
 1665ETHY    C1 1644  25.622   7.480   8.367
 1666ETHY    C1 1645  25.391   7.098   8.682
 1667THSLK    S 1646  26.322   8.912   7.618
 1668ETHY    C1 1647  25.872   8.860   7.557
 1669ETHY    C1 1648  25.340   8.754   7.566
 1670ETHY    C1 1649  24.833   8.603   7.673
 1671ETHY    C1 1650  24.359   8.415   7.867
 1672AUSL   AUS 1651  27.258   9.726   7.909
 1673AUSL   AUS 1652  26.842   9.656   7.764
 1674AUL    AUL 1653  26.955   9.940   7.991
 1675THSLK    S 1654  26.719   9.818   7.948
 1676ETHY    C1 1655  26.568  10.138   8.237
 1677ETHY    C1 1656  26.315  10.521   8.527
 1678ETHY    C1 1657  25.983  10.889   8.740
 1679ETHY    C1 1658  25.584  11.235   8.881
 1680THSLK    S 1659  27.296   9.957   8.034
 1681ETHY    C1 1660  27.424  10.283   8.327
 1682ETHY    C1 1661  27.501  10.715   8.646
 1683ETHY    C1 1662  27.482  11.180   8.920
 1684ETHY    C1 1663  27.376  11.665   9.147
 1685AUSL   AUS 1664  27.107   9.819   7.663
 1686AUSL   AUS 1665  27.410   9.819   7.336
 1687AUL    AUL 1666  27.258  10.127   7.500
 1688THSLK    S 1667  27.144  10.071   7.772
 1689ETHY    C1 1668  27.217  10.495   7.929
 1690ETHY    C1 1669  27.214  11.011   8.095
 1691ETHY    C1 1670  27.106  11.522   8.229
 1692ETHY    C1 1671  26.902  12.018   8.336
 1693THSLK    S 1672  27.461  10.059   7.237
 1694ETHY    C1 1673  27.674  10.436   7.091
 1695ETHY    C1 1674  27.844  10.925   6.929
 1696ETHY    C1 1675  27.911  11.443   6.792
 1697ETHY    C1 1676  27.882  11.977   6.682
 1698AUSL   AUS 1677  27.410   9.819   7.663
 1699AUSL   AUS 1678  27.523   9.562   8.011
 1700AUL    AUL 1679  27.562   9.940   7.991
 1701THSLK    S 1680  27.696   9.679   8.184
 1702ETHY    C1 1681  27.969   9.820   8.522
 1703ETHY    C1 1682  28.250  10.069   8.915
 1704ETHY    C1 1683  28.466  10.402   9.279
 1705ETHY    C1 1684  28.618  10.807   9.614
 1706THSLK    S 1685  27.460  10.057   7.768
 1707ETHY    C1 1686  27.673  10.436   7.913
 1708ETHY    C1 1687  27.844  10.925   8.072
 1709ETHY    C1 1688  27.911  11.443   8.207
 1710ETHY    C1 1689  27.880  11.976   8.325
 1711AUSL   AUS 1690  27.258   8.565   7.909
 1712AUSL   AUS 1691  27.675   8.635   7.764
 1713AUL    AUL 1692  27.562   8.351   7.991
 1714THSLK    S 1693  27.217   8.308   7.992
 1715ETHY    C1 1694  27.090   7.899   8.152
 1716ETHY    C1 1695  27.016   7.418   8.391
 1717ETHY    C1 1696  27.035   6.966   8.684
 1718ETHY    C1 1697  27.137   6.548   9.021
 1719THSLK    S 1698  27.795   8.445   7.907
 1720ETHY    C1 1699  27.946   8.043   8.062
 1721ETHY    C1 1700  28.201   7.612   8.272
 1722ETHY    C1 1701  28.533   7.256   8.505
 1723ETHY    C1 1702  28.929   6.977   8.758
 1724AUSL   AUS 1703  27.107   8.472   7.663
 1725AUSL   AUS 1704  26.994   8.729   8.011
 1726AUL    AUL 1705  26.955   8.351   7.991
 1727THSLK    S 1706  27.056   8.227   7.744
 1728ETHY    C1 1707  26.843   7.828   7.812
 1729ETHY    C1 1708  26.672   7.325   7.925
 1730ETHY    C1 1709  26.606   6.811   8.072
 1731ETHY    C1 1710  26.635   6.296   8.252
 1732THSLK    S 1711  26.816   8.559   8.136
 1733ETHY    C1 1712  26.544   8.244   8.327
 1734ETHY    C1 1713  26.266   7.893   8.633
 1735ETHY    C1 1714  26.050   7.585   9.019
 1736ETHY    C1 1715  25.894   7.323   9.473
 1737AUSL   AUS 1716  27.410   8.472   7.663
 1738AUSL   AUS 1717  27.107   8.472   7.336
 1739AUL    AUL 1718  27.258   8.164   7.500
 1740THSLK    S 1719  27.057   8.225   7.261
 1741ETHY    C1 1720  26.844   7.827   7.192
 1742ETHY    C1 1721  26.672   7.325   7.076
 1743ETHY    C1 1722  26.606   6.811   6.927
 1744ETHY    C1 1723  26.637   6.294   6.754
 1745THSLK    S 1724  27.371   8.213   7.748
 1746ETHY    C1 1725  27.299   7.768   7.829
 1747ETHY    C1 1726  27.302   7.239   7.948
 1748ETHY    C1 1727  27.411   6.731   8.095
 1749ETHY    C1 1728  27.613   6.253   8.264
 1750AUSL   AUS 1729  27.258   9.726   7.091
 1751AUSL   AUS 1730  27.675   9.656   7.236
 1752AUL    AUL 1731  27.562   9.940   7.009
 1753THSLK    S 1732  27.300   9.960   6.971
 1754ETHY    C1 1733  27.427  10.285   6.676
 1755ETHY    C1 1734  27.501  10.715   6.353
 1756ETHY    C1 1735  27.482  11.180   6.080
 1757ETHY    C1 1736  27.379  11.668   5.857
 1758THSLK    S 1737  27.862   9.781   7.081
 1759ETHY    C1 1738  28.219   9.973   6.869
 1760ETHY    C1 1739  28.594  10.279   6.623
 1761ETHY    C1 1740  28.895  10.666   6.398
 1762ETHY    C1 1741  29.125  11.118   6.197
 1763AUSL   AUS 1742  27.107   9.819   7.336
 1764AUSL   AUS 1743  26.994   9.562   6.990
 1765AUL    AUL 1744  26.955   9.940   7.009
 1766THSLK    S 1745  27.146  10.073   7.233
 1767ETHY    C1 1746  27.218  10.496   7.074
 1768ETHY    C1 1747  27.215  11.012   6.906
 1769ETHY    C1 1748  27.106  11.522   6.770
 1770ETHY    C1 1749  26.904  12.020   6.670
 1771THSLK    S 1750  26.875   9.699   6.800
 1772ETHY    C1 1751  26.779   9.893   6.396
 1773ETHY    C1 1752  26.602  10.171   5.966
 1774ETHY    C1 1753  26.359  10.496   5.611
 1775ETHY    C1 1754  26.063  10.861   5.330
 1776AUSL   AUS 1755  27.258   8.565   7.091
 1777AUSL   AUS 1756  26.842   8.635   7.236
 1778AUL    AUL 1757  26.955   8.351   7.009
 1779THSLK    S 1758  26.657   8.482   7.122
 1780ETHY    C1 1759  26.300   8.208   7.044
 1781ETHY    C1 1760  25.923   7.854   6.878
 1782ETHY    C1 1761  25.621   7.480   6.633
 1783ETHY    C1 1762  25.394   7.093   6.321
 1784THSLK    S 1763  27.220   8.305   7.013
 1785ETHY    C1 1764  27.092   7.897   6.852
 1786ETHY    C1 1765  27.016   7.418   6.609
 1787ETHY    C1 1766  27.035   6.966   6.315
 1788ETHY    C1 1767  27.141   6.545   5.983
 1789AUSL   AUS 1768  27.410   8.472   7.336
 1790AUSL   AUS 1769  27.523   8.729   6.990
 1791AUL    AUL 1770  27.562   8.351   7.009
 1792THSLK    S 1771  27.373   8.212   7.258
 1793ETHY    C1 1772  27.300   7.767   7.175
 1794ETHY    C1 1773  27.302   7.239   7.052
 1795ETHY    C1 1774  27.410   6.731   6.905
 1796ETHY    C1 1775  27.615   6.252   6.742
 1797THSLK    S 1776  27.646   8.539   6.847
 1798ETHY    C1 1777  27.741   8.171   6.592
 1799ETHY    C1 1778  27.915   7.790   6.247
 1800ETHY    C1 1779  28.157   7.490   5.870
 1801ETHY    C1 1780  28.458   7.269   5.471
 1802AUC    AUC 1781  33.880  14.571   7.500
 1803AUC    AUC 1782  34.126  14.571   7.348
 1804AUC    AUC 1783  34.126  14.571   7.651
 1805AUC    AUC 1784  33.635  14.571   7.348
 1806AUC    AUC 1785  33.635  14.571   7.651
 1807AUC    AUC 1786  33.729  14.816   7.500
 1808AUC    AUC 1787  34.032  14.816   7.500
 1809AUC    AUC 1788  33.729  14.325   7.500
 1810AUC    AUC 1789  34.032  14.325   7.500
 1811AUC    AUC 1790  33.880  14.419   7.745
 1812AUC    AUC 1791  33.880  14.722   7.745
 1813AUC    AUC 1792  33.880  14.419   7.254
 1814AUC    AUC 1793  33.880  14.722   7.254
 1815AUC    AUC 1794  34.371  14.571   7.196
 1816AUC    AUC 1795  34.371  14.571   7.500
 1817AUC    AUC 1796  34.371  14.571   7.803
 1818AUC    AUC 1797  33.389  14.571   7.196
 1819AUC    AUC 1798  33.389  14.571   7.500
 1820AUC    AUC 1799  33.389  14.571   7.803
 1821AUC    AUC 1800  33.577  15.061   7.500
 1822AUC    AUC 1801  33.880  15.061   7.500
 1823AUC    AUC 1802  34.184  15.061   7.500
 1824AUC    AUC 1803  33.577  14.080   7.500
 1825AUC    AUC 1804  33.880  14.080   7.500
 1826AUC    AUC 1805  34.184  14.080   7.500
 1827AUC    AUC 1806  33.880  14.267   7.991
 1828AUC    AUC 1807  33.880  14.571   7.991
 1829AUC    AUC 1808  33.880  14.874   7.991
 1830AUC    AUC 1809  33.880  14.267   7.009
 1831AUC    AUC 1810  33.880  14.571   7.009
 1832AUC    AUC 1811  33.880  14.874   7.009
 1833AUC    AUC 1812  34.126  14.419   7.897
 1834AUC    AUC 1813  34.126  14.722   7.897
 1835AUC    AUC 1814  34.126  14.419   7.103
 1836AUC    AUC 1815  34.126  14.722   7.103
 1837AUC    AUC 1816  33.635  14.419   7.897
 1838AUC    AUC 1817  33.635  14.722   7.897
 1839AUC    AUC 1818  33.635  14.419   7.103
 1840AUC    AUC 1819  33.635  14.722   7.103
 1841AUC    AUC 1820  34.277  14.816   7.348
 1842AUC    AUC 1821  34.277  14.816   7.651
 1843AUC    AUC 1822  33.483  14.816   7.348
 1844AUC    AUC 1823  33.483  14.816   7.651
 1845AUC    AUC 1824  34.277  14.325   7.348
 1846AUC    AUC 1825  34.277  14.325   7.651
 1847AUC    AUC 1826  33.483  14.325   7.348
 1848AUC    AUC 1827  33.483  14.325   7.651
 1849AUC    AUC 1828  33.729  14.968   7.745
 1850AUC    AUC 1829  34.032  14.968   7.745
 1851AUC    AUC 1830  33.729  14.173   7.745
 1852AUC    AUC 1831  34.032  14.173   7.745
 1853AUC    AUC 1832  33.729  14.968   7.254
 1854AUC    AUC 1833  34.032  14.968   7.254
 1855AUC    AUC 1834  33.729  14.173   7.254
 1856AUC    AUC 1835  34.032  14.173   7.254
 1857AUSL   AUS 1836  34.289  14.571   8.080
 1858AUSL   AUS 1837  34.145  14.154   8.011
 1859AUL    AUL 1838  34.371  14.267   8.294
 1860THSLK    S 1839  34.263  13.966   8.156
 1861ETHY    C1 1840  34.359  13.598   8.412
 1862ETHY    C1 1841  34.537  13.215   8.753
 1863ETHY    C1 1842  34.779  12.915   9.130
 1864ETHY    C1 1843  35.075  12.696   9.534
 1865THSLK    S 1844  34.388  14.524   8.327
 1866ETHY    C1 1845  34.615  14.374   8.694
 1867ETHY    C1 1846  34.899  14.286   9.148
 1868ETHY    C1 1847  35.183  14.308   9.607
 1869ETHY    C1 1848  35.460  14.430  10.061
 1870AUSL   AUS 1849  34.044  14.419   8.173
 1871AUSL   AUS 1850  33.717  14.722   8.173
 1872AUL    AUL 1851  33.880  14.571   8.482
 1873THSLK    S 1852  34.125  14.368   8.418
 1874ETHY    C1 1853  34.215  14.150   8.810
 1875ETHY    C1 1854  34.343  13.976   9.308
 1876ETHY    C1 1855  34.489  13.911   9.823
 1877ETHY    C1 1856  34.646  13.945  10.346
 1878THSLK    S 1857  33.630  14.682   8.432
 1879ETHY    C1 1858  33.541  14.608   8.874
 1880ETHY    C1 1859  33.417  14.610   9.403
 1881ETHY    C1 1860  33.272  14.719   9.912
 1882ETHY    C1 1861  33.109  14.923  10.392
 1883AUSL   AUS 1862  34.044  14.722   8.173
 1884AUSL   AUS 1863  34.390  14.835   7.916
 1885AUL    AUL 1864  34.371  14.874   8.294
 1886THSLK    S 1865  34.131  14.774   8.416
 1887ETHY    C1 1866  34.219  14.991   8.809
 1888ETHY    C1 1867  34.344  15.164   9.308
 1889ETHY    C1 1868  34.489  15.230   9.823
 1890ETHY    C1 1869  34.652  15.197  10.345
 1891THSLK    S 1870  34.566  14.941   8.079
 1892ETHY    C1 1871  34.928  14.991   8.355
 1893ETHY    C1 1872  35.335  15.140   8.681
 1894ETHY    C1 1873  35.697  15.389   8.995
 1895ETHY    C1 1874  36.009  15.725   9.293
 1896AUSL   AUS 1875  34.289  14.571   6.920
 1897AUSL   AUS 1876  34.145  14.987   6.990
 1898AUL    AUL 1877  34.371  14.874   6.706
 1899THSLK    S 1878  34.393  14.524   6.676
 1900ETHY    C1 1879  34.620  14.374   6.308
 1901ETHY    C1 1880  34.899  14.286   5.851
 1902ETHY    C1 1881  35.183  14.308   5.393
 1903ETHY    C1 1882  35.465  14.430   4.941
 1904THSLK    S 1883  34.322  15.106   6.820
 1905ETHY    C1 1884  34.594  15.247   6.480
 1906ETHY    C1 1885  34.872  15.494   6.085
 1907ETHY    C1 1886  35.088  15.827   5.720
 1908ETHY    C1 1887  35.245  16.234   5.391
 1909AUSL   AUS 1888  34.044  14.419   6.826
 1910AUSL   AUS 1889  34.390  14.306   7.083
 1911AUL    AUL 1890  34.371  14.267   6.706
 1912THSLK    S 1891  34.530  14.115   6.939
 1913ETHY    C1 1892  34.763  13.798   6.707
 1914ETHY    C1 1893  35.093  13.491   6.403
 1915ETHY    C1 1894  35.473  13.282   6.083
 1916ETHY    C1 1895  35.894  13.165   5.754
 1917THSLK    S 1896  34.131  14.367   6.583
 1918ETHY    C1 1897  34.219  14.150   6.191
 1919ETHY    C1 1898  34.344  13.977   5.692
 1920ETHY    C1 1899  34.489  13.911   5.176
 1921ETHY    C1 1900  34.652  13.944   4.656
 1922AUSL   AUS 1901  34.044  14.722   6.826
 1923AUSL   AUS 1902  33.717  14.419   6.826
 1924AUL    AUL 1903  33.880  14.571   6.518
 1925THSLK    S 1904  33.621  14.367   6.586
 1926ETHY    C1 1905  33.482  14.152   6.206
 1927ETHY    C1 1906  33.325  13.981   5.717
 1928ETHY    C1 1907  33.186  13.915   5.199
 1929ETHY    C1 1908  33.070  13.946   4.666
 1930THSLK    S 1909  34.146  14.683   6.572
 1931ETHY    C1 1910  34.283  14.606   6.142
 1932ETHY    C1 1911  34.436  14.606   5.622
 1933ETHY    C1 1912  34.574  14.715   5.112
 1934ETHY    C1 1913  34.697  14.922   4.621
 1935AUSL   AUS 1914  33.471  14.571   8.080
 1936AUSL   AUS 1915  33.616  14.987   8.011
 1937AUL    AUL 1916  33.389  14.874   8.294
 1938THSLK    S 1917  33.367  14.524   8.325
 1939ETHY    C1 1918  33.141  14.374   8.691
 1940ETHY    C1 1919  32.861  14.286   9.148
 1941ETHY    C1 1920  32.578  14.308   9.607
 1942ETHY    C1 1921  32.295  14.430  10.058
 1943THSLK    S 1922  33.493  15.120   8.201
 1944ETHY    C1 1923  33.397  15.315   8.604
 1945ETHY    C1 1924  33.224  15.596   9.034
 1946ETHY    C1 1925  32.981  15.922   9.390
 1947ETHY    C1 1926  32.680  16.281   9.671
 1948AUSL   AUS 1927  33.717  14.419   8.173
 1949AUSL   AUS 1928  33.370  14.306   7.916
 1950AUL    AUL 1929  33.389  14.267   8.294
 1951THSLK    S 1930  33.191  14.140   8.032
 1952ETHY    C1 1931  32.830  13.893   8.166
 1953ETHY    C1 1932  32.425  13.627   8.410
 1954ETHY    C1 1933  32.064  13.407   8.745
 1955ETHY    C1 1934  31.748  13.234   9.156
 1956THSLK    S 1935  33.615  14.369   8.413
 1957ETHY    C1 1936  33.477  14.154   8.793
 1958ETHY    C1 1937  33.324  13.981   9.284
 1959ETHY    C1 1938  33.187  13.915   9.800
 1960ETHY    C1 1939  33.063  13.947  10.332
 1961AUSL   AUS 1940  33.471  14.571   6.920
 1962AUSL   AUS 1941  33.616  14.154   6.990
 1963AUL    AUL 1942  33.389  14.267   6.706
 1964THSLK    S 1943  33.372  14.524   6.673
 1965ETHY    C1 1944  33.145  14.374   6.305
 1966ETHY    C1 1945  32.862  14.286   5.851
 1967ETHY    C1 1946  32.578  14.308   5.393
 1968ETHY    C1 1947  32.301  14.430   4.938
 1969THSLK    S 1948  33.442  13.979   6.865
 1970ETHY    C1 1949  33.170  13.666   6.673
 1971ETHY    C1 1950  32.889  13.318   6.367
 1972ETHY    C1 1951  32.672  13.010   5.980
 1973ETHY    C1 1952  32.520  12.743   5.528
 1974AUSL   AUS 1953  33.717  14.722   6.826
 1975AUSL   AUS 1954  33.370  14.835   7.083
 1976AUL    AUL 1955  33.389  14.874   6.706
 1977THSLK    S 1956  33.234  14.966   6.893
 1978ETHY    C1 1957  33.000  15.087   6.518
 1979ETHY    C1 1958  32.668  15.275   6.132
 1980ETHY    C1 1959  32.288  15.514   5.833
 1981ETHY    C1 1960  31.871  15.794   5.618
 1982THSLK    S 1961  33.636  14.684   6.566
 1983ETHY    C1 1962  33.546  14.609   6.124
 1984ETHY    C1 1963  33.418  14.610   5.597
 1985ETHY    C1 1964  33.272  14.719   5.089
 1986ETHY    C1 1965  33.115  14.925   4.608
 1987AUSL   AUS 1966  34.460  14.980   7.500
 1988AUSL   AUS 1967  34.390  14.835   7.083
 1989AUL    AUL 1968  34.674  15.061   7.196
 1990THSLK    S 1969  34.570  14.942   6.925
 1991ETHY    C1 1970  34.931  14.992   6.648
 1992ETHY    C1 1971  35.335  15.140   6.319
 1993ETHY    C1 1972  35.697  15.389   6.005
 1994ETHY    C1 1973  36.013  15.726   5.713
 1995THSLK    S 1974  34.730  15.041   7.503
 1996ETHY    C1 1975  35.177  15.141   7.502
 1997ETHY    C1 1976  35.679  15.347   7.500
 1998ETHY    C1 1977  36.126  15.649   7.500
 1999ETHY    C1 1978  36.514  16.033   7.503
 2000AUSL   AUS 1979  34.554  14.734   7.348
 2001AUSL   AUS 1980  34.554  14.407   7.651
 2002AUL    AUL 1981  34.862  14.571   7.500
 2003THSLK    S 1982  34.816  14.781   7.345
 2004ETHY    C1 1983  35.266  14.750   7.270
 2005ETHY    C1 1984  35.798  14.805   7.179
 2006ETHY    C1 1985  36.305  14.968   7.091
 2007ETHY    C1 1986  36.780  15.226   7.011
 2008THSLK    S 1987  34.791  14.270   7.659
 2009ETHY    C1 1988  35.162  14.012   7.726
 2010ETHY    C1 1989  35.648  13.786   7.808
 2011ETHY    C1 1990  36.167  13.666   7.896
 2012ETHY    C1 1991  36.705  13.644   7.989
 2013AUSL   AUS 1992  34.554  14.734   7.651
 2014AUSL   AUS 1993  34.297  15.081   7.764
 2015AUL    AUL 1994  34.674  15.061   7.803
 2016THSLK    S 1995  34.482  15.205   7.924
 2017ETHY    C1 1996  34.839  15.397   8.136
 2018ETHY    C1 1997  35.216  15.704   8.377
 2019ETHY    C1 1998  35.517  16.091   8.602
 2020ETHY    C1 1999  35.744  16.542   8.809
 2021THSLK    S 2000  34.815  14.780   7.661
 2022ETHY    C1 2001  35.266  14.750   7.734
 2023ETHY    C1 2002  35.799  14.805   7.821
 2024ETHY    C1 2003  36.305  14.968   7.908
 2025ETHY    C1 2004  36.779  15.226   7.995
 2026AUSL   AUS 2005  33.300  14.980   7.500
 2027AUSL   AUS 2006  33.370  14.835   7.916
 2028AUL    AUL 2007  33.086  15.061   7.803
 2029THSLK    S 2008  33.230  14.961   8.107
 2030ETHY    C1 2009  32.997  15.082   8.482
 2031ETHY    C1 2010  32.668  15.275   8.868
 2032ETHY    C1 2011  32.288  15.514   9.166
 2033ETHY    C1 2012  31.867  15.789   9.381
 2034THSLK    S 2013  33.079  15.120   7.503
 2035ETHY    C1 2014  32.790  15.475   7.502
 2036ETHY    C1 2015  32.382  15.832   7.500
 2037ETHY    C1 2016  31.912  16.096   7.500
 2038ETHY    C1 2017  31.394  16.272   7.503
 2039AUSL   AUS 2018  33.207  14.734   7.348
 2040AUSL   AUS 2019  33.464  15.081   7.236
 2041AUL    AUL 2020  33.086  15.061   7.196
 2042THSLK    S 2021  32.970  14.848   7.303
 2043ETHY    C1 2022  32.598  15.022   7.101
 2044ETHY    C1 2023  32.112  15.198   6.936
 2045ETHY    C1 2024  31.594  15.330   6.868
 2046ETHY    C1 2025  31.056  15.422   6.890
 2047THSLK    S 2026  33.344  15.248   7.056
 2048ETHY    C1 2027  33.192  15.567   6.765
 2049ETHY    C1 2028  32.938  15.947   6.473
 2050ETHY    C1 2029  32.605  16.315   6.260
 2051ETHY    C1 2030  32.209  16.665   6.122
 2052AUSL   AUS 2031  33.207  14.734   7.651
 2053AUSL   AUS 2032  33.207  14.407   7.348
 2054AUL    AUL 2033  32.899  14.571   7.500
 2055THSLK    S 2034  32.945  14.332   7.384
 2056ETHY    C1 2035  32.495  14.281   7.446
 2057ETHY    C1 2036  31.962  14.178   7.434
 2058ETHY    C1 2037  31.455  14.028   7.327
 2059ETHY    C1 2038  30.982  13.835   7.135
 2060THSLK    S 2039  32.969  14.842   7.699
 2061ETHY    C1 2040  32.598  15.018   7.901
 2062ETHY    C1 2041  32.112  15.197   8.063
 2063ETHY    C1 2042  31.594  15.330   8.133
 2064ETHY    C1 2043  31.055  15.416   8.114
 2065AUSL   AUS 2044  34.460  14.161   7.500
 2066AUSL   AUS 2045  34.390  14.306   7.916
 2067AUL    AUL 2046  34.674  14.080   7.803
 2068THSLK    S 2047  34.681  14.021   7.503
 2069ETHY    C1 2048  34.970  13.666   7.502
 2070ETHY    C1 2049  35.379  13.309   7.500
 2071ETHY    C1 2050  35.849  13.045   7.500
 2072ETHY    C1 2051  36.366  12.869   7.503
 2073THSLK    S 2052  34.527  14.116   8.066
 2074ETHY    C1 2053  34.760  13.799   8.297
 2075ETHY    C1 2054  35.093  13.492   8.598
 2076ETHY    C1 2055  35.473  13.282   8.918
 2077ETHY    C1 2056  35.890  13.166   9.250
 2078AUSL   AUS 2057  34.554  14.407   7.348
 2079AUSL   AUS 2058  34.297  14.060   7.236
 2080AUL    AUL 2059  34.674  14.080   7.196
 2081THSLK    S 2060  34.792  14.270   7.346
 2082ETHY    C1 2061  35.163  14.012   7.279
 2083ETHY    C1 2062  35.648  13.786   7.192
 2084ETHY    C1 2063  36.167  13.666   7.103
 2085ETHY    C1 2064  36.706  13.644   7.018
 2086THSLK    S 2065  34.420  13.869   7.099
 2087ETHY    C1 2066  34.570  13.467   6.942
 2088ETHY    C1 2067  34.823  13.037   6.728
 2089ETHY    C1 2068  35.155  12.681   6.495
 2090ETHY    C1 2069  35.554  12.400   6.249
 2091AUSL   AUS 2070  33.300  14.161   7.500
 2092AUSL   AUS 2071  33.370  14.306   7.083
 2093AUL    AUL 2072  33.086  14.080   7.196
 2094THSLK    S 2073  33.195  14.135   6.966
 2095ETHY    C1 2074  32.833  13.889   6.833
 2096ETHY    C1 2075  32.425  13.626   6.589
 2097ETHY    C1 2076  32.064  13.407   6.255
 2098ETHY    C1 2077  31.752  13.229   5.843
 2099THSLK    S 2078  33.030  14.100   7.503
 2100ETHY    C1 2079  32.584  14.000   7.502
 2101ETHY    C1 2080  32.082  13.794   7.500
 2102ETHY    C1 2081  31.635  13.492   7.500
 2103ETHY    C1 2082  31.247  13.108   7.503
 2104AUSL   AUS 2083  33.207  14.407   7.651
 2105AUSL   AUS 2084  33.464  14.060   7.764
 2106AUL    AUL 2085  33.086  14.080   7.803
 2107THSLK    S 2086  33.276  13.912   7.881
 2108ETHY    C1 2087  32.920  13.636   7.958
 2109ETHY    C1 2088  32.545  13.279   8.122
 2110ETHY    C1 2089  32.244  12.905   8.367
 2111ETHY    C1 2090  32.013  12.523   8.682
 2112THSLK    S 2091  32.944  14.337   7.618
 2113ETHY    C1 2092  32.494  14.285   7.557
 2114ETHY    C1 2093  31.962  14.179   7.566
 2115ETHY    C1 2094  31.455  14.028   7.673
 2116ETHY    C1 2095  30.981  13.840   7.867
 2117AUSL   AUS 2096  33.880  15.151   7.909
 2118AUSL   AUS 2097  33.464  15.081   7.764
 2119AUL    AUL 2098  33.577  15.365   7.991
 2120THSLK    S 2099  33.341  15.243   7.948
 2121ETHY    C1 2100  33.190  15.563   8.237
 2122ETHY    C1 2101  32.937  15.946   8.527
 2123ETHY    C1 2102  32.605  16.314   8.740
 2124ETHY    C1 2103  32.206  16.660   8.881
 2125THSLK    S 2104  33.918  15.382   8.034
 2126ETHY    C1 2105  34.046  15.708   8.327
 2127ETHY    C1 2106  34.123  16.140   8.646
 2128ETHY    C1 2107  34.104  16.605   8.920
 2129ETHY    C1 2108  33.998  17.090   9.147
 2130AUSL   AUS 2109  33.729  15.244   7.663
 2131AUSL   AUS 2110  34.032  15.244   7.336
 2132AUL    AUL 2111  33.880  15.552   7.500
 2133THSLK    S 2112  33.766  15.496   7.772
 2134ETHY    C1 2113  33.839  15.920   7.929
 2135ETHY    C1 2114  33.836  16.436   8.095
 2136ETHY    C1 2115  33.728  16.947   8.229
 2137ETHY    C1 2116  33.524  17.443   8.336
 2138THSLK    S 2117  34.083  15.484   7.237
 2139ETHY    C1 2118  34.296  15.861   7.091
 2140ETHY    C1 2119  34.466  16.350   6.929
 2141ETHY    C1 2120  34.533  16.868   6.792
 2142ETHY    C1 2121  34.504  17.402   6.682
 2143AUSL   AUS 2122  34.032  15.244   7.663
 2144AUSL   AUS 2123  34.145  14.987   8.011
 2145AUL    AUL 2124  34.184  15.365   7.991
 2146THSLK    S 2125  34.318  15.104   8.184
 2147ETHY    C1 2126  34.591  15.245   8.522
 2148ETHY    C1 2127  34.872  15.494   8.915
 2149ETHY    C1 2128  35.088  15.827   9.279
 2150ETHY    C1 2129  35.240  16.232   9.614
 2151THSLK    S 2130  34.082  15.482   7.768
 2152ETHY    C1 2131  34.295  15.861   7.913
 2153ETHY    C1 2132  34.466  16.350   8.072
 2154ETHY    C1 2133  34.533  16.868   8.207
 2155ETHY    C1 2134  34.502  17.401   8.325
 2156AUSL   AUS 2135  33.880  13.990   7.909
 2157AUSL   AUS 2136  34.297  14.060   7.764
 2158AUL    AUL 2137  34.184  13.776   7.991
 2159THSLK    S 2138  33.839  13.733   7.992
 2160ETHY    C1 2139  33.712  13.324   8.152
 2161ETHY    C1 2140  33.638  12.843   8.391
 2162ETHY    C1 2141  33.657  12.391   8.684
 2163ETHY    C1 2142  33.759  11.973   9.021
 2164THSLK    S 2143  34.417  13.870   7.907
 2165ETHY    C1 2144  34.568  13.468   8.062
 2166ETHY    C1 2145  34.823  13.037   8.272
 2167ETHY    C1 2146  35.155  12.681   8.505
 2168ETHY    C1 2147  35.551  12.402   8.758
 2169AUSL   AUS 2148  33.729  13.897   7.663
 2170AUSL   AUS 2149  33.616  14.154   8.011
 2171AUL    AUL 2150  33.577  13.776   7.991
 2172THSLK    S 2151  33.678  13.652   7.744
 2173ETHY    C1 2152  33.465  13.253   7.812
 2174ETHY    C1 2153  33.294  12.750   7.925
 2175ETHY    C1 2154  33.228  12.236   8.072
 2176ETHY    C1 2155  33.257  11.721   8.252
 2177THSLK    S 2156  33.438  13.984   8.136
 2178ETHY    C1 2157  33.166  13.669   8.327
 2179ETHY    C1 2158  32.888  13.318   8.633
 2180ETHY    C1 2159  32.672  13.010   9.019
 2181ETHY    C1 2160  32.516  12.748   9.473
 2182AUSL   AUS 2161  34.032  13.897   7.663
 2183AUSL   AUS 2162  33.729  13.897   7.336
 2184AUL    AUL 2163  33.880  13.589   7.500
 2185THSLK    S 2164  33.679  13.650   7.261
 2186ETHY    C1 2165  33.466  13.252   7.192
 2187ETHY    C1 2166  33.294  12.750   7.076
 2188ETHY    C1 2167  33.228  12.236   6.927
 2189ETHY    C1 2168  33.259  11.719   6.754
 2190THSLK    S 2169  33.993  13.638   7.748
 2191ETHY    C1 2170  33.921  13.193   7.829
 2192ETHY    C1 2171  33.924  12.664   7.948
 2193ETHY    C1 2172  34.033  12.156   8.095
 2194ETHY    C1 2173  34.235  11.678   8.264
 2195AUSL   AUS 2174  33.880  15.151   7.091
 2196AUSL   AUS 2175  34.297  15.081   7.236
 2197AUL    AUL 2176  34.184  15.365   7.009
 2198THSLK    S 2177  33.922  15.385   6.971
 2199ETHY    C1 2178  34.049  15.710   6.676
 2200ETHY    C1 2179  34.123  16.140   6.353
 2201ETHY    C1 2180  34.104  16.605   6.080
 2202ETHY    C1 2181  34.001  17.093   5.857
 2203THSLK    S 2182  34.484  15.206   7.081
 2204ETHY    C1 2183  34.841  15.398   6.869
 2205ETHY    C1 2184  35.216  15.704   6.623
 2206ETHY    C1 2185  35.517  16.091   6.398
 2207ETHY    C1 2186  35.747  16.543   6.197
 2208AUSL   AUS 2187  33.729  15.244   7.336
 2209AUSL   AUS 2188  33.616  14.987   6.990
 2210AUL    AUL 2189  33.577  15.365   7.009
 2211THSLK    S 2190  33.768  15.498   7.233
 2212ETHY    C1 2191  33.840  15.921   7.074
 2213ETHY    C1 2192  33.837  16.437   6.906
 2214ETHY    C1 2193  33.728  16.947   6.770
 2215ETHY    C1 2194  33.526  17.445   6.670
 2216THSLK    S 2195  33.497  15.124   6.800
 2217ETHY    C1 2196  33.401  15.318   6.396
 2218ETHY    C1 2197  33.224  15.596   5.966
 2219ETHY    C1 2198  32.981  15.921   5.611
 2220ETHY    C1 2199  32.685  16.286   5.330
 2221AUSL   AUS 2200  33.880  13.990   7.091
 2222AUSL   AUS 2201  33.464  14.060   7.236
 2223AUL    AUL 2202  33.577  13.776   7.009
 2224THSLK    S 2203  33.279  13.907   7.122
 2225ETHY    C1 2204  32.922  13.633   7.044
 2226ETHY    C1 2205  32.545  13.279   6.878
 2227ETHY    C1 2206  32.243  12.905   6.633
 2228ETHY    C1 2207  32.016  12.518   6.321
 2229THSLK    S 2208  33.842  13.730   7.013
 2230ETHY    C1 2209  33.714  13.322   6.852
 2231ETHY    C1 2210  33.638  12.843   6.609
 2232ETHY    C1 2211  33.657  12.391   6.315
 2233ETHY    C1 2212  33.763  11.970   5.983
 2234AUSL   AUS 2213  34.032  13.897   7.336
 2235AUSL   AUS 2214  34.145  14.154   6.990
 2236AUL    AUL 2215  34.184  13.776   7.009
 2237THSLK    S 2216  33.995  13.637   7.258
 2238ETHY    C1 2217  33.922  13.192   7.175
 2239ETHY    C1 2218  33.924  12.664   7.052
 2240ETHY    C1 2219  34.032  12.156   6.905
 2241ETHY    C1 2220  34.237  11.677   6.742
 2242THSLK    S 2221  34.268  13.964   6.847
 2243ETHY    C1 2222  34.363  13.596   6.592
 2244ETHY    C1 2223  34.537  13.215   6.247
 2245ETHY    C1 2224  34.779  12.915   5.870
 2246ETHY    C1 2225  35.080  12.694   5.471
 2247AUC    AUC 2226  39.908  42.777   7.500
 2248AUC    AUC 2227  40.154  42.777   7.348
 2249AUC    AUC 2228  40.154  42.777   7.651
 2250AUC    AUC 2229  39.663  42.777   7.348
 2251AUC    AUC 2230  39.663  42.777   7.651
 2252AUC    AUC 2231  39.757  43.022   7.500
 2253AUC    AUC 2232  40.060  43.022   7.500
 2254AUC    AUC 2233  39.757  42.531   7.500
 2255AUC    AUC 2234  40.060  42.531   7.500
 2256AUC    AUC 2235  39.908  42.625   7.745
 2257AUC    AUC 2236  39.908  42.928   7.745
 2258AUC    AUC 2237  39.908  42.625   7.254
 2259AUC    AUC 2238  39.908  42.928   7.254
 2260AUC    AUC 2239  40.399  42.777   7.196
 2261AUC    AUC 2240  40.399  42.777   7.500
 2262AUC    AUC 2241  40.399  42.777   7.803
 2263AUC    AUC 2242  39.417  42.777   7.196
 2264AUC    AUC 2243  39.417  42.777   7.500
 2265AUC    AUC 2244  39.417  42.777   7.803
 2266AUC    AUC 2245  39.605  43.267   7.500
 2267AUC    AUC 2246  39.908  43.267   7.500
 2268AUC    AUC 2247  40.212  43.267   7.500
 2269AUC    AUC 2248  39.605  42.286   7.500
 2270AUC    AUC 2249  39.908  42.286   7.500
 2271AUC    AUC 2250  40.212  42.286   7.500
 2272AUC    AUC 2251  39.908  42.473   7.991
 2273AUC    AUC 2252  39.908  42.777   7.991
 2274AUC    AUC 2253  39.908  43.080   7.991
 2275AUC    AUC 2254  39.908  42.473   7.009
 2276AUC    AUC 2255  39.908  42.777   7.009
 2277AUC    AUC 2256  39.908  43.080   7.009
 2278AUC    AUC 2257  40.154  42.625   7.897
 2279AUC    AUC 2258  40.154  42.928   7.897
 2280AUC    AUC 2259  40.154  42.625   7.103
 2281AUC    AUC 2260  40.154  42.928   7.103
 2282AUC    AUC 2261  39.663  42.625   7.897
 2283AUC    AUC 2262  39.663  42.928   7.897
 2284AUC    AUC 2263  39.663  42.625   7.103
 2285AUC    AUC 2264  39.663  42.928   7.103
 2286AUC    AUC 2265  40.305  43.022   7.348
 2287AUC    AUC 2266  40.305  43.022   7.651
 2288AUC    AUC 2267  39.511  43.022   7.348
 2289AUC    AUC 2268  39.511  43.022   7.651
 2290AUC    AUC 2269  40.305  42.531   7.348
 2291AUC    AUC 2270  40.305  42.531   7.651
 2292AUC    AUC 2271  39.511  42.531   7.348
 2293AUC    AUC 2272  39.511  42.531   7.651
 2294AUC    AUC 2273  39.757  43.174   7.745
 2295AUC    AUC 2274  40.060  43.174   7.745
 2296AUC    AUC 2275  39.757  42.379   7.745
 2297AUC    AUC 2276  40.060  42.379   7.745
 2298AUC    AUC 2277  39.757  43.174   7.254
 2299AUC    AUC 2278  40.060  43.174   7.254
 2300AUC    AUC 2279  39.757  42.379   7.254
 2301AUC    AUC 2280  40.060  42.379   7.254
 2302AUSL   AUS 2281  40.317  42.777   8.080
 2303AUSL   AUS 2282  40.173  42.360   8.011
 2304AUL    AUL 2283  40.399  42.473   8.294
 2305THSLK    S 2284  40.291  42.172   8.156
 2306ETHY    C1 2285  40.387  41.804   8.412
 2307ETHY    C1 2286  40.565  41.421   8.753
 2308ETHY    C1 2287  40.807  41.121   9.130
 2309ETHY    C1 2288  41.103  40.902   9.534
 2310THSLK    S 2289  40.416  42.730   8.327
 2311ETHY    C1 2290  40.643  42.580   8.694
 2312ETHY    C1 2291  40.927  42.492   9.148
 2313ETHY    C1 2292  41.211  42.514   9.607
 2314ETHY    C1 2293  41.488  42.636  10.061
 2315AUSL   AUS 2294  40.072  42.625   8.173
 2316AUSL   AUS 2295  39.745  42.928   8.173
 2317AUL    AUL 2296  39.908  42.777   8.482
 2318THSLK    S 2297  40.153  42.574   8.418
 2319ETHY    C1 2298  40.243  42.356   8.810
 2320ETHY    C1 2299  40.371  42.182   9.308
 2321ETHY    C1 2300  40.517  42.117   9.823
 2322ETHY    C1 2301  40.674  42.151  10.346
 2323THSLK    S 2302  39.658  42.888   8.432
 2324ETHY    C1 2303  39.569  42.814   8.874
 2325ETHY    C1 2304  39.445  42.816   9.403
 2326ETHY    C1 2305  39.300  42.925   9.912
 2327ETHY    C1 2306  39.137  43.129  10.392
 2328AUSL   AUS 2307  40.072  42.928   8.173
 2329AUSL   AUS 2308  40.418  43.041   7.916
 2330AUL    AUL 2309  40.399  43.080   8.294
 2331THSLK    S 2310  40.159  42.980   8.416
 2332ETHY    C1 2311  40.247  43.197   8.809
 2333ETHY    C1 2312  40.372  43.370   9.308
 2334ETHY    C1 2313  40.517  43.436   9.823
 2335ETHY    C1 2314  40.680  43.403  10.345
 2336THSLK    S 2315  40.594  43.147   8.079
 2337ETHY    C1 2316  40.956  43.197   8.355
 2338ETHY    C1 2317  41.363  43.346   8.681
 2339ETHY    C1 2318  41.725  43.595   8.995
 2340ETHY    C1 2319  42.037  43.931   9.293
 2341AUSL   AUS 2320  40.317  42.777   6.920
 2342AUSL   AUS 2321  40.173  43.193   6.990
 2343AUL    AUL 2322  40.399  43.080   6.706
 2344THSLK    S 2323  40.421  42.730   6.676
 2345ETHY    C1 2324  40.648  42.580   6.308
 2346ETHY    C1 2325  40.927  42.492   5.851
 2347ETHY    C1 2326  41.211  42.514   5.393
 2348ETHY    C1 2327  41.493  42.636   4.941
 2349THSLK    S 2328  40.350  43.312   6.820
 2350ETHY    C1 2329  40.622  43.453   6.480
 2351ETHY    C1 2330  40.900  43.700   6.085
 2352ETHY    C1 2331  41.116  44.033   5.720
 2353ETHY    C1 2332  41.273  44.440   5.391
 2354AUSL   AUS 2333  40.072  42.625   6.826
 2355AUSL   AUS 2334  40.418  42.512   7.083
 2356AUL    AUL 2335  40.399  42.473   6.706
 2357THSLK    S 2336  40.558  42.321   6.939
 2358ETHY    C1 2337  40.791  42.004   6.707
 2359ETHY    C1 2338  41.121  41.697   6.403
 2360ETHY    C1 2339  41.501  41.488   6.083
 2361ETHY    C1 2340  41.922  41.371   5.754
 2362THSLK    S 2341  40.159  42.573   6.583
 2363ETHY    C1 2342  40.247  42.356   6.191
 2364ETHY    C1 2343  40.372  42.183   5.692
 2365ETHY    C1 2344  40.517  42.117   5.176
 2366ETHY    C1 2345  40.680  42.150   4.656
 2367AUSL   AUS 2346  40.072  42.928   6.826
 2368AUSL   AUS 2347  39.745  42.625   6.826
 2369AUL    AUL 2348  39.908  42.777   6.518
 2370THSLK    S 2349  39.649  42.573   6.586
 2371ETHY    C1 2350  39.510  42.358   6.206
 2372ETHY    C1 2351  39.353  42.187   5.717
 2373ETHY    C1 2352  39.214  42.121   5.199
 2374ETHY    C1 2353  39.098  42.152   4.666
 2375THSLK    S 2354  40.174  42.889   6.572
 2376ETHY    C1 2355  40.311  42.812   6.142
 2377ETHY    C1 2356  40.464  42.812   5.622
 2378ETHY    C1 2357  40.602  42.921   5.112
 2379ETHY    C1 2358  40.725  43.128   4.621
 2380AUSL   AUS 2359  39.499  42.777   8.080
 2381AUSL   AUS 2360  39.644  43.193   8.011
 2382AUL    AUL 2361  39.417  43.080   8.294
 2383THSLK    S 2362  39.395  42.730   8.325
 2384ETHY    C1 2363  39.169  42.580   8.691
 2385ETHY    C1 2364  38.889  42.492   9.148
 2386ETHY    C1 2365  38.606  42.514   9.607
 2387ETHY    C1 2366  38.323  42.636  10.058
 2388THSLK    S 2367  39.521  43.326   8.201
 2389ETHY    C1 2368  39.425  43.521   8.604
 2390ETHY    C1 2369  39.252  43.802   9.034
 2391ETHY    C1 2370  39.009  44.128   9.390
 2392ETHY    C1 2371  38.708  44.487   9.671
 2393AUSL   AUS 2372  39.745  42.625   8.173
 2394AUSL   AUS 2373  39.398  42.512   7.916
 2395AUL    AUL 2374  39.417  42.473   8.294
 2396THSLK    S 2375  39.219  42.346   8.032
 2397ETHY    C1 2376  38.858  42.099   8.166
 2398ETHY    C1 2377  38.453  41.833   8.410
 2399ETHY    C1 2378  38.092  41.613   8.745
 2400ETHY    C1 2379  37.776  41.440   9.156
 2401THSLK    S 2380  39.643  42.575   8.413
 2402ETHY    C1 2381  39.505  42.360   8.793
 2403ETHY    C1 2382  39.352  42.187   9.284
 2404ETHY    C1 2383  39.215  42.121   9.800
 2405ETHY    C1 2384  39.091  42.153  10.332
 2406AUSL   AUS 2385  39.499  42.777   6.920
 2407AUSL   AUS 2386  39.644  42.360   6.990
 2408AUL    AUL 2387  39.417  42.473   6.706
 2409THSLK    S 2388  39.400  42.730   6.673
 2410ETHY    C1 2389  39.173  42.580   6.305
 2411ETHY    C1 2390  38.890  42.492   5.851
 2412ETHY    C1 2391  38.606  42.514   5.393
 2413ETHY    C1 2392  38.329  42.636   4.938
 2414THSLK    S 2393  39.470  42.185   6.865
 2415ETHY    C1 2394  39.198  41.872   6.673
 2416ETHY    C1 2395  38.917  41.524   6.367
 2417ETHY    C1 2396  38.700  41.216   5.980
 2418ETHY    C1 2397  38.548  40.949   5.528
 2419AUSL   AUS 2398  39.745  42.928   6.826
 2420AUSL   AUS 2399  39.398  43.041   7.083
 2421AUL    AUL 2400  39.417  43.080   6.706
 2422THSLK    S 2401  39.262  43.172   6.893
 2423ETHY    C1 2402  39.028  43.293   6.518
 2424ETHY    C1 2403  38.696  43.481   6.132
 2425ETHY    C1 2404  38.316  43.720   5.833
 2426ETHY    C1 2405  37.899  44.000   5.618
 2427THSLK    S 2406  39.664  42.890   6.566
 2428ETHY    C1 2407  39.574  42.815   6.124
 2429ETHY    C1 2408  39.446  42.816   5.597
 2430ETHY    C1 2409  39.300  42.925   5.089
 2431ETHY    C1 2410  39.143  43.131   4.608
 2432AUSL   AUS 2411  40.488  43.186   7.500
 2433AUSL   AUS 2412  40.418  43.041   7.083
 2434AUL    AUL 2413  40.702  43.267   7.196
 2435THSLK    S 2414  40.598  43.148   6.925
 2436ETHY    C1 2415  40.959  43.198   6.648
 2437ETHY    C1 2416  41.363  43.346   6.319
 2438ETHY    C1 2417  41.725  43.595   6.005
 2439ETHY    C1 2418  42.041  43.932   5.713
 2440THSLK    S 2419  40.758  43.247   7.503
 2441ETHY    C1 2420  41.205  43.347   7.502
 2442ETHY    C1 2421  41.707  43.553   7.500
 2443ETHY    C1 2422  42.154  43.855   7.500
 2444ETHY    C1 2423  42.542  44.239   7.503
 2445AUSL   AUS 2424  40.582  42.940   7.348
 2446AUSL   AUS 2425  40.582  42.613   7.651
 2447AUL    AUL 2426  40.890  42.777   7.500
 2448THSLK    S 2427  40.844  42.987   7.345
 2449ETHY    C1 2428  41.294  42.956   7.270
 2450ETHY    C1 2429  41.826  43.011   7.179
 2451ETHY    C1 2430  42.333  43.174   7.091
 2452ETHY    C1 2431  42.808  43.432   7.011
 2453THSLK    S 2432  40.819  42.476   7.659
 2454ETHY    C1 2433  41.190  42.218   7.726
 2455ETHY    C1 2434  41.676  41.992   7.808
 2456ETHY    C1 2435  42.195  41.872   7.896
 2457ETHY    C1 2436  42.733  41.850   7.989
 2458AUSL   AUS 2437  40.582  42.940   7.651
 2459AUSL   AUS 2438  40.325  43.287   7.764
 2460AUL    AUL 2439  40.702  43.267   7.803
 2461THSLK    S 2440  40.510  43.411   7.924
 2462ETHY    C1 2441  40.867  43.603   8.136
 2463ETHY    C1 2442  41.244  43.910   8.377
 2464ETHY    C1 2443  41.545  44.297   8.602
 2465ETHY    C1 2444  41.772  44.748   8.809
 2466THSLK    S 2445  40.843  42.986   7.661
 2467ETHY    C1 2446  41.294  42.956   7.734
 2468ETHY    C1 2447  41.827  43.011   7.821
 2469ETHY    C1 2448  42.333  43.174   7.908
 2470ETHY    C1 2449  42.807  43.432   7.995
 2471AUSL   AUS 2450  39.328  43.186   7.500
 2472AUSL   AUS 2451  39.398  43.041   7.916
 2473AUL    AUL 2452  39.114  43.267   7.803
 2474THSLK    S 2453  39.258  43.167   8.107
 2475ETHY    C1 2454  39.025  43.288   8.482
 2476ETHY    C1 2455  38.696  43.481   8.868
 2477ETHY    C1 2456  38.316  43.720   9.166
 2478ETHY    C1 2457  37.895  43.995   9.381
 2479THSLK    S 2458  39.107  43.326   7.503
 2480ETHY    C1 2459  38.818  43.681   7.502
 2481ETHY    C1 2460  38.410  44.038   7.500
 2482ETHY    C1 2461  37.940  44.302   7.500
 2483ETHY    C1 2462  37.422  44.478   7.503
 2484AUSL   AUS 2463  39.235  42.940   7.348
 2485AUSL   AUS 2464  39.492  43.287   7.236
 2486AUL    AUL 2465  39.114  43.267   7.196
 2487THSLK    S 2466  38.998  43.054   7.303
 2488ETHY    C1 2467  38.626  43.228   7.101
 2489ETHY    C1 2468  38.140  43.404   6.936
 2490ETHY    C1 2469  37.622  43.536   6.868
 2491ETHY    C1 2470  37.084  43.628   6.890
 2492THSLK    S 2471  39.372  43.454   7.056
 2493ETHY    C1 2472  39.220  43.773   6.765
 2494ETHY    C1 2473  38.966  44.153   6.473
 2495ETHY    C1 2474  38.633  44.521   6.260
 2496ETHY    C1 2475  38.237  44.871   6.122
 2497AUSL   AUS 2476  39.235  42.940   7.651
 2498AUSL   AUS 2477  39.235  42.613   7.348
 2499AUL    AUL 2478  38.927  42.777   7.500
 2500THSLK    S 2479  38.973  42.538   7.384
 2501ETHY    C1 2480  38.523  42.487   7.446
 2502ETHY    C1 2481  37.990  42.384   7.434
 2503ETHY    C1 2482  37.483  42.234   7.327
 2504ETHY    C1 2483  37.010  42.041   7.135
 2505THSLK    S 2484  38.997  43.048   7.699
 2506ETHY    C1 2485  38.626  43.224   7.901
 2507ETHY    C1 2486  38.140  43.403   8.063
 2508ETHY    C1 2487  37.622  43.536   8.133
 2509ETHY    C1 2488  37.083  43.622   8.114
 2510AUSL   AUS 2489  40.488  42.367   7.500
 2511AUSL   AUS 2490  40.418  42.512   7.916
 2512AUL    AUL 2491  40.702  42.286   7.803
 2513THSLK    S 2492  40.709  42.227   7.503
 2514ETHY    C1 2493  40.998  41.872   7.502
 2515ETHY    C1 2494  41.407  41.515   7.500
 2516ETHY    C1 2495  41.877  41.251   7.500
 2517ETHY    C1 2496  42.394  41.075   7.503
 2518THSLK    S 2497  40.555  42.322   8.066
 2519ETHY    C1 2498  40.788  42.005   8.297
 2520ETHY    C1 2499  41.121  41.698   8.598
 2521ETHY    C1 2500  41.501  41.488   8.918
 2522ETHY    C1 2501  41.918  41.372   9.250
 2523AUSL   AUS 2502  40.582  42.613   7.348
 2524AUSL   AUS 2503  40.325  42.266   7.236
 2525AUL    AUL 2504  40.702  42.286   7.196
 2526THSLK    S 2505  40.820  42.476   7.346
 2527ETHY    C1 2506  41.191  42.218   7.279
 2528ETHY    C1 2507  41.676  41.992   7.192
 2529ETHY    C1 2508  42.195  41.872   7.103
 2530ETHY    C1 2509  42.734  41.850   7.018
 2531THSLK    S 2510  40.448  42.075   7.099
 2532ETHY    C1 2511  40.598  41.673   6.942
 2533ETHY    C1 2512  40.851  41.243   6.728
 2534ETHY    C1 2513  41.183  40.887   6.495
 2535ETHY    C1 2514  41.582  40.606   6.249
 2536AUSL   AUS 2515  39.328  42.367   7.500
 2537AUSL   AUS 2516  39.398  42.512   7.083
 2538AUL    AUL 2517  39.114  42.286   7.196
 2539THSLK    S 2518  39.223  42.341   6.966
 2540ETHY    C1 2519  38.861  42.095   6.833
 2541ETHY    C1 2520  38.453  41.832   6.589
 2542ETHY    C1 2521  38.092  41.613   6.255
 2543ETHY    C1 2522  37.780  41.435   5.843
 2544THSLK    S 2523  39.058  42.306   7.503
 2545ETHY    C1 2524  38.612  42.206   7.502
 2546ETHY    C1 2525  38.110  42.000   7.500
 2547ETHY    C1 2526  37.663  41.698   7.500
 2548ETHY    C1 2527  37.275  41.314   7.503
 2549AUSL   AUS 2528  39.235  42.613   7.651
 2550AUSL   AUS 2529  39.492  42.266   7.764
 2551AUL    AUL 2530  39.114  42.286   7.803
 2552THSLK    S 2531  39.304  42.118   7.881
 2553ETHY    C1 2532  38.948  41.842   7.958
 2554ETHY    C1 2533  38.573  41.485   8.122
 2555ETHY    C1 2534  38.272  41.111   8.367
 2556ETHY    C1 2535  38.041  40.729   8.682
 2557THSLK    S 2536  38.972  42.543   7.618
 2558ETHY    C1 2537  38.522  42.491   7.557
 2559ETHY    C1 2538  37.990  42.385   7.566
 2560ETHY    C1 2539  37.483  42.234   7.673
 2561ETHY    C1 2540  37.009  42.046   7.867
 2562AUSL   AUS 2541  39.908  43.357   7.909
 2563AUSL   AUS 2542  39.492  43.287   7.764
 2564AUL    AUL 2543  39.605  43.571   7.991
 2565THSLK    S 2544  39.369  43.449   7.948
 2566ETHY    C1 2545  39.218  43.769   8.237
 2567ETHY    C1 2546  38.965  44.152   8.527
 2568ETHY    C1 2547  38.633  44.520   8.740
 2569ETHY    C1 2548  38.234  44.866   8.881
 2570THSLK    S 2549  39.946  43.588   8.034
 2571ETHY    C1 2550  40.074  43.914   8.327
 2572ETHY    C1 2551  40.151  44.346   8.646
 2573ETHY    C1 2552  40.132  44.811   8.920
 2574ETHY    C1 2553  40.026  45.296   9.147
 2575AUSL   AUS 2554  39.757  43.450   7.663
 2576AUSL   AUS 2555  40.060  43.450   7.336
 2577AUL    AUL 2556  39.908  43.758   7.500
 2578THSLK    S 2557  39.794  43.702   7.772
 2579ETHY    C1 2558  39.867  44.126   7.929
 2580ETHY    C1 2559  39.864  44.642   8.095
 2581ETHY    C1 2560  39.756  45.153   8.229
 2582ETHY    C1 2561  39.552  45.649   8.336
 2583THSLK    S 2562  40.111  43.690   7.237
 2584ETHY    C1 2563  40.324  44.067   7.091
 2585ETHY    C1 2564  40.494  44.556   6.929
 2586ETHY    C1 2565  40.561  45.074   6.792
 2587ETHY    C1 2566  40.532  45.608   6.682
 2588AUSL   AUS 2567  40.060  43.450   7.663
 2589AUSL   AUS 2568  40.173  43.193   8.011
 2590AUL    AUL 2569  40.212  43.571   7.991
 2591THSLK    S 2570  40.346  43.310   8.184
 2592ETHY    C1 2571  40.619  43.451   8.522
 2593ETHY    C1 2572  40.900  43.700   8.915
 2594ETHY    C1 2573  41.116  44.033   9.279
 2595ETHY    C1 2574  41.268  44.438   9.614
 2596THSLK    S 2575  40.110  43.688   7.768
 2597ETHY    C1 2576  40.323  44.067   7.913
 2598ETHY    C1 2577  40.494  44.556   8.072
 2599ETHY    C1 2578  40.561  45.074   8.207
 2600ETHY    C1 2579  40.530  45.607   8.325
 2601AUSL   AUS 2580  39.908  42.196   7.909
 2602AUSL   AUS 2581  40.325  42.266   7.764
 2603AUL    AUL 2582  40.212  41.982   7.991
 2604THSLK    S 2583  39.867  41.939   7.992
 2605ETHY    C1 2584  39.740  41.530   8.152
 2606ETHY    C1 2585  39.666  41.049   8.391
 2607ETHY    C1 2586  39.685  40.597   8.684
 2608ETHY    C1 2587  39.787  40.179   9.021
 2609THSLK    S 2588  40.445  42.076   7.907
 2610ETHY    C1 2589  40.596  41.674   8.062
 2611ETHY    C1 2590  40.851  41.243   8.272
 2612ETHY    C1 2591  41.183  40.887   8.505
 2613ETHY    C1 2592  41.579  40.608   8.758
 2614AUSL   AUS 2593  39.757  42.103   7.663
 2615AUSL   AUS 2594  39.644  42.360   8.011
 2616AUL    AUL 2595  39.605  41.982   7.991
 2617THSLK    S 2596  39.706  41.858   7.744
 2618ETHY    C1 2597  39.493  41.459   7.812
 2619ETHY    C1 2598  39.322  40.956   7.925
 2620ETHY    C1 2599  39.256  40.442   8.072
 2621ETHY    C1 2600  39.285  39.927   8.252
 2622THSLK    S 2601  39.466  42.190   8.136
 2623ETHY    C1 2602  39.194  41.875   8.327
 2624ETHY    C1 2603  38.916  41.524   8.633
 2625ETHY    C1 2604  38.700  41.216   9.019
 2626ETHY    C1 2605  38.544  40.954   9.473
 2627AUSL   AUS 2606  40.060  42.103   7.663
 2628AUSL   AUS 2607  39.757  42.103   7.336
 2629AUL    AUL 2608  39.908  41.795   7.500
 2630THSLK    S 2609  39.707  41.856   7.261
 2631ETHY    C1 2610  39.494  41.458   7.192
 2632ETHY    C1 2611  39.322  40.956   7.076
 2633ETHY    C1 2612  39.256  40.442   6.927
 2634ETHY    C1 2613  39.287  39.925   6.754
 2635THSLK    S 2614  40.021  41.844   7.748
 2636ETHY    C1 2615  39.949  41.399   7.829
 2637ETHY    C1 2616  39.952  40.870   7.948
 2638ETHY    C1 2617  40.061  40.362   8.095
 2639ETHY    C1 2618  40.263  39.884   8.264
 2640AUSL   AUS 2619  39.908  43.357   7.091
 2641AUSL   AUS 2620  40.325  43.287   7.236
 2642AUL    AUL 2621  40.212  43.571   7.009
 2643THSLK    S 2622  39.950  43.591   6.971
 2644ETHY    C1 2623  40.077  43.916   6.676
 2645ETHY    C1 2624  40.151  44.346   6.353
 2646ETHY    C1 2625  40.132  44.811   6.080
 2647ETHY    C1 2626  40.029  45.299   5.857
 2648THSLK    S 2627  40.512  43.412   7.081
 2649ETHY    C1 2628  40.869  43.604   6.869
 2650ETHY    C1 2629  41.244  43.910   6.623
 2651ETHY    C1 2630  41.545  44.297   6.398
 2652ETHY    C1 2631  41.775  44.749   6.197
 2653AUSL   AUS 2632  39.757  43.450   7.336
 2654AUSL   AUS 2633  39.644  43.193   6.990
 2655AUL    AUL 2634  39.605  43.571   7.009
 2656THSLK    S 2635  39.796  43.704   7.233
 2657ETHY    C1 2636  39.868  44.127   7.074
 2658ETHY    C1 2637  39.865  44.643   6.906
 2659ETHY    C1 2638  39.756  45.153   6.770
 2660ETHY    C1 2639  39.554  45.651   6.670
 2661THSLK    S 2640  39.525  43.330   6.800
 2662ETHY    C1 2641  39.429  43.524   6.396
 2663ETHY    C1 2642  39.252  43.802   5.966
 2664ETHY    C1 2643  39.009  44.127   5.611
 2665ETHY    C1 2644  38.713  44.492   5.330
 2666AUSL   AUS 2645  39.908  42.196   7.091
 2667AUSL   AUS 2646  39.492  42.266   7.236
 2668AUL    AUL 2647  39.605  41.982   7.009
 2669THSLK    S 2648  39.307  42.113   7.122
 2670ETHY    C1 2649  38.950  41.839   7.044
 2671ETHY    C1 2650  38.573  41.485   6.878
 2672ETHY    C1 2651  38.271  41.111   6.633
 2673ETHY    C1 2652  38.044  40.724   6.321
 2674THSLK    S 2653  39.870  41.936   7.013
 2675ETHY    C1 2654  39.742  41.528   6.852
 2676ETHY    C1 2655  39.666  41.049   6.609
 2677ETHY    C1 2656  39.685  40.597   6.315
 2678ETHY    C1 2657  39.791  40.176   5.983
 2679AUSL   AUS 2658  40.060  42.103   7.336
 2680AUSL   AUS 2659  40.173  42.360   6.990
 2681AUL    AUL 2660  40.212  41.982   7.009
 2682THSLK    S 2661  40.023  41.843   7.258
 2683ETHY    C1 2662  39.950  41.398   7.175
 2684ETHY    C1 2663  39.952  40.870   7.052
 2685ETHY    C1 2664  40.060  40.362   6.905
 2686ETHY    C1 2665  40.265  39.883   6.742
 2687THSLK    S 2666  40.296  42.170   6.847
 2688ETHY    C1 2667  40.391  41.802   6.592
 2689ETHY    C1 2668  40.565  41.421   6.247
 2690ETHY    C1 2669  40.807  41.121   5.870
 2691ETHY    C1 2670  41.108  40.900   5.471
 2692AUC    AUC 2671  -3.915  35.833   7.500
 2693AUC    AUC 2672  -3.669  35.833   7.348
 2694AUC    AUC 2673  -3.669  35.833   7.651
 2695AUC    AUC 2674  -4.160  35.833   7.348
 2696AUC    AUC 2675  -4.160  35.833   7.651
 2697AUC    AUC 2676  -4.066  36.078   7.500
 2698AUC    AUC 2677  -3.763  36.078   7.500
 2699AUC    AUC 2678  -4.066  35.587   7.500
 2700AUC    AUC 2679  -3.763  35.587   7.500
 2701AUC    AUC 2680  -3.915  35.681   7.745
 2702AUC    AUC 2681  -3.915  35.984   7.745
 2703AUC    AUC 2682  -3.915  35.681   7.254
 2704AUC    AUC 2683  -3.915  35.984   7.254
 2705AUC    AUC 2684  -3.424  35.833   7.196
 2706AUC    AUC 2685  -3.424  35.833   7.500
 2707AUC    AUC 2686  -3.424  35.833   7.803
 2708AUC    AUC 2687  -4.406  35.833   7.196
 2709AUC    AUC 2688  -4.406  35.833   7.500
 2710AUC    AUC 2689  -4.406  35.833   7.803
 2711AUC    AUC 2690  -4.218  36.323   7.500
 2712AUC    AUC 2691  -3.915  36.323   7.500
 2713AUC    AUC 2692  -3.611  36.323   7.500
 2714AUC    AUC 2693  -4.218  35.342   7.500
 2715AUC    AUC 2694  -3.915  35.342   7.500
 2716AUC    AUC 2695  -3.611  35.342   7.500
 2717AUC    AUC 2696  -3.915  35.529   7.991
 2718AUC    AUC 2697  -3.915  35.833   7.991
 2719AUC    AUC 2698  -3.915  36.136   7.991
 2720AUC    AUC 2699  -3.915  35.529   7.009
 2721AUC    AUC 2700  -3.915  35.833   7.009
 2722AUC    AUC 2701  -3.915  36.136   7.009
 2723AUC    AUC 2702  -3.669  35.681   7.897
 2724AUC    AUC 2703  -3.669  35.984   7.897
 2725AUC    AUC 2704  -3.669  35.681   7.103
 2726AUC    AUC 2705  -3.669  35.984   7.103
 2727AUC    AUC 2706  -4.160  35.681   7.897
 2728AUC    AUC 2707  -4.160  35.984   7.897
 2729AUC    AUC 2708  -4.160  35.681   7.103
 2730AUC    AUC 2709  -4.160  35.984   7.103
 2731AUC    AUC 2710  -3.518  36.078   7.348
 2732AUC    AUC 2711  -3.518  36.078   7.651
 2733AUC    AUC 2712  -4.312  36.078   7.348
 2734AUC    AUC 2713  -4.312  36.078   7.651
 2735AUC    AUC 2714  -3.518  35.587   7.348
 2736AUC    AUC 2715  -3.518  35.587   7.651
 2737AUC    AUC 2716  -4.312  35.587   7.348
 2738AUC    AUC 2717  -4.312  35.587   7.651
 2739AUC    AUC 2718  -4.066  36.230   7.745
 2740AUC    AUC 2719  -3.763  36.230   7.745
 2741AUC    AUC 2720  -4.066  35.435   7.745
 2742AUC    AUC 2721  -3.763  35.435   7.745
 2743AUC    AUC 2722  -4.066  36.230   7.254
 2744AUC    AUC 2723  -3.763  36.230   7.254
 2745AUC    AUC 2724  -4.066  35.435   7.254
 2746AUC    AUC 2725  -3.763  35.435   7.254
 2747AUSL   AUS 2726  -3.506  35.833   8.080
 2748AUSL   AUS 2727  -3.650  35.416   8.011
 2749AUL    AUL 2728  -3.424  35.529   8.294
 2750THSLK    S 2729  -3.532  35.228   8.156
 2751ETHY    C1 2730  -3.436  34.860   8.412
 2752ETHY    C1 2731  -3.258  34.477   8.753
 2753ETHY    C1 2732  -3.016  34.177   9.130
 2754ETHY    C1 2733  -2.720  33.958   9.534
 2755THSLK    S 2734  -3.407  35.786   8.327
 2756ETHY    C1 2735  -3.180  35.636   8.694
 2757ETHY    C1 2736  -2.896  35.548   9.148
 2758ETHY    C1 2737  -2.612  35.570   9.607
 2759ETHY    C1 2738  -2.335  35.692  10.061
 2760AUSL   AUS 2739  -3.751  35.681   8.173
 2761AUSL   AUS 2740  -4.078  35.984   8.173
 2762AUL    AUL 2741  -3.915  35.833   8.482
 2763THSLK    S 2742  -3.670  35.630   8.418
 2764ETHY    C1 2743  -3.580  35.412   8.810
 2765ETHY    C1 2744  -3.452  35.238   9.308
 2766ETHY    C1 2745  -3.306  35.173   9.823
 2767ETHY    C1 2746  -3.149  35.207  10.346
 2768THSLK    S 2747  -4.165  35.944   8.432
 2769ETHY    C1 2748  -4.254  35.870   8.874
 2770ETHY    C1 2749  -4.378  35.872   9.403
 2771ETHY    C1 2750  -4.523  35.981   9.912
 2772ETHY    C1 2751  -4.686  36.185  10.392
 2773AUSL   AUS 2752  -3.751  35.984   8.173
 2774AUSL   AUS 2753  -3.405  36.097   7.916
 2775AUL    AUL 2754  -3.424  36.136   8.294
 2776THSLK    S 2755  -3.664  36.036   8.416
 2777ETHY    C1 2756  -3.576  36.253   8.809
 2778ETHY    C1 2757  -3.451  36.426   9.308
 2779ETHY    C1 2758  -3.306  36.492   9.823
 2780ETHY    C1 2759  -3.143  36.459  10.345
 2781THSLK    S 2760  -3.229  36.203   8.079
 2782ETHY    C1 2761  -2.867  36.253   8.355
 2783ETHY    C1 2762  -2.460  36.402   8.681
 2784ETHY    C1 2763  -2.098  36.651   8.995
 2785ETHY    C1 2764  -1.786  36.987   9.293
 2786AUSL   AUS 2765  -3.506  35.833   6.920
 2787AUSL   AUS 2766  -3.650  36.249   6.990
 2788AUL    AUL 2767  -3.424  36.136   6.706
 2789THSLK    S 2768  -3.402  35.786   6.676
 2790ETHY    C1 2769  -3.175  35.636   6.308
 2791ETHY    C1 2770  -2.896  35.548   5.851
 2792ETHY    C1 2771  -2.612  35.570   5.393
 2793ETHY    C1 2772  -2.330  35.692   4.941
 2794THSLK    S 2773  -3.473  36.368   6.820
 2795ETHY    C1 2774  -3.201  36.509   6.480
 2796ETHY    C1 2775  -2.923  36.756   6.085
 2797ETHY    C1 2776  -2.707  37.089   5.720
 2798ETHY    C1 2777  -2.550  37.496   5.391
 2799AUSL   AUS 2778  -3.751  35.681   6.826
 2800AUSL   AUS 2779  -3.405  35.568   7.083
 2801AUL    AUL 2780  -3.424  35.529   6.706
 2802THSLK    S 2781  -3.265  35.377   6.939
 2803ETHY    C1 2782  -3.032  35.060   6.707
 2804ETHY    C1 2783  -2.702  34.753   6.403
 2805ETHY    C1 2784  -2.322  34.544   6.083
 2806ETHY    C1 2785  -1.901  34.427   5.754
 2807THSLK    S 2786  -3.664  35.629   6.583
 2808ETHY    C1 2787  -3.576  35.412   6.191
 2809ETHY    C1 2788  -3.451  35.239   5.692
 2810ETHY    C1 2789  -3.306  35.173   5.176
 2811ETHY    C1 2790  -3.143  35.206   4.656
 2812AUSL   AUS 2791  -3.751  35.984   6.826
 2813AUSL   AUS 2792  -4.078  35.681   6.826
 2814AUL    AUL 2793  -3.915  35.833   6.518
 2815THSLK    S 2794  -4.174  35.629   6.586
 2816ETHY    C1 2795  -4.313  35.414   6.206
 2817ETHY    C1 2796  -4.470  35.243   5.717
 2818ETHY    C1 2797  -4.609  35.177   5.199
 2819ETHY    C1 2798  -4.725  35.208   4.666
 2820THSLK    S 2799  -3.649  35.945   6.572
 2821ETHY    C1 2800  -3.512  35.868   6.142
 2822ETHY    C1 2801  -3.359  35.868   5.622
 2823ETHY    C1 2802  -3.221  35.977   5.112
 2824ETHY    C1 2803  -3.098  36.184   4.621
 2825AUSL   AUS 2804  -4.324  35.833   8.080
 2826AUSL   AUS 2805  -4.179  36.249   8.011
 2827AUL    AUL 2806  -4.406  36.136   8.294
 2828THSLK    S 2807  -4.428  35.786   8.325
 2829ETHY    C1 2808  -4.654  35.636   8.691
 2830ETHY    C1 2809  -4.934  35.548   9.148
 2831ETHY    C1 2810  -5.217  35.570   9.607
 2832ETHY    C1 2811  -5.500  35.692  10.058
 2833THSLK    S 2812  -4.302  36.382   8.201
 2834ETHY    C1 2813  -4.398  36.577   8.604
 2835ETHY    C1 2814  -4.571  36.858   9.034
 2836ETHY    C1 2815  -4.814  37.184   9.390
 2837ETHY    C1 2816  -5.115  37.543   9.671
 2838AUSL   AUS 2817  -4.078  35.681   8.173
 2839AUSL   AUS 2818  -4.425  35.568   7.916
 2840AUL    AUL 2819  -4.406  35.529   8.294
 2841THSLK    S 2820  -4.604  35.402   8.032
 2842ETHY    C1 2821  -4.965  35.155   8.166
 2843ETHY    C1 2822  -5.370  34.889   8.410
 2844ETHY    C1 2823  -5.731  34.669   8.745
 2845ETHY    C1 2824  -6.047  34.496   9.156
 2846THSLK    S 2825  -4.180  35.631   8.413
 2847ETHY    C1 2826  -4.318  35.416   8.793
 2848ETHY    C1 2827  -4.471  35.243   9.284
 2849ETHY    C1 2828  -4.608  35.177   9.800
 2850ETHY    C1 2829  -4.732  35.209  10.332
 2851AUSL   AUS 2830  -4.324  35.833   6.920
 2852AUSL   AUS 2831  -4.179  35.416   6.990
 2853AUL    AUL 2832  -4.406  35.529   6.706
 2854THSLK    S 2833  -4.423  35.786   6.673
 2855ETHY    C1 2834  -4.650  35.636   6.305
 2856ETHY    C1 2835  -4.933  35.548   5.851
 2857ETHY    C1 2836  -5.217  35.570   5.393
 2858ETHY    C1 2837  -5.494  35.692   4.938
 2859THSLK    S 2838  -4.353  35.241   6.865
 2860ETHY    C1 2839  -4.625  34.928   6.673
 2861ETHY    C1 2840  -4.906  34.580   6.367
 2862ETHY    C1 2841  -5.123  34.272   5.980
 2863ETHY    C1 2842  -5.275  34.005   5.528
 2864AUSL   AUS 2843  -4.078  35.984   6.826
 2865AUSL   AUS 2844  -4.425  36.097   7.083
 2866AUL    AUL 2845  -4.406  36.136   6.706
 2867THSLK    S 2846  -4.561  36.228   6.893
 2868ETHY    C1 2847  -4.795  36.349   6.518
 2869ETHY    C1 2848  -5.127  36.537   6.132
 2870ETHY    C1 2849  -5.507  36.776   5.833
 2871ETHY    C1 2850  -5.924  37.056   5.618
 2872THSLK    S 2851  -4.159  35.946   6.566
 2873ETHY    C1 2852  -4.249  35.871   6.124
 2874ETHY    C1 2853  -4.377  35.872   5.597
 2875ETHY    C1 2854  -4.523  35.981   5.089
 2876ETHY    C1 2855  -4.680  36.187   4.608
 2877AUSL   AUS 2856  -3.335  36.242   7.500
 2878AUSL   AUS 2857  -3.405  36.097   7.083
 2879AUL    AUL 2858  -3.121  36.323   7.196
 2880THSLK    S 2859  -3.225  36.204   6.925
 2881ETHY    C1 2860  -2.864  36.254   6.648
 2882ETHY    C1 2861  -2.460  36.402   6.319
 2883ETHY    C1 2862  -2.098  36.651   6.005
 2884ETHY    C1 2863  -1.782  36.988   5.713
 2885THSLK    S 2864  -3.065  36.303   7.503
 2886ETHY    C1 2865  -2.618  36.403   7.502
 2887ETHY    C1 2866  -2.116  36.609   7.500
 2888ETHY    C1 2867  -1.669  36.911   7.500
 2889ETHY    C1 2868  -1.281  37.295   7.503
 2890AUSL   AUS 2869  -3.241  35.996   7.348
 2891AUSL   AUS 2870  -3.241  35.669   7.651
 2892AUL    AUL 2871  -2.933  35.833   7.500
 2893THSLK    S 2872  -2.979  36.043   7.345
 2894ETHY    C1 2873  -2.529  36.012   7.270
 2895ETHY    C1 2874  -1.997  36.067   7.179
 2896ETHY    C1 2875  -1.490  36.230   7.091
 2897ETHY    C1 2876  -1.015  36.488   7.011
 2898THSLK    S 2877  -3.004  35.532   7.659
 2899ETHY    C1 2878  -2.633  35.274   7.726
 2900ETHY    C1 2879  -2.147  35.048   7.808
 2901ETHY    C1 2880  -1.628  34.928   7.896
 2902ETHY    C1 2881  -1.090  34.906   7.989
 2903AUSL   AUS 2882  -3.241  35.996   7.651
 2904AUSL   AUS 2883  -3.498  36.343   7.764
 2905AUL    AUL 2884  -3.121  36.323   7.803
 2906THSLK    S 2885  -3.313  36.467   7.924
 2907ETHY    C1 2886  -2.956  36.659   8.136
 2908ETHY    C1 2887  -2.579  36.966   8.377
 2909ETHY    C1 2888  -2.278  37.353   8.602
 2910ETHY    C1 2889  -2.051  37.804   8.809
 2911THSLK    S 2890  -2.980  36.042   7.661
 2912ETHY    C1 2891  -2.529  36.012   7.734
 2913ETHY    C1 2892  -1.996  36.067   7.821
 2914ETHY    C1 2893  -1.490  36.230   7.908
 2915ETHY    C1 2894  -1.016  36.488   7.995
 2916AUSL   AUS 2895  -4.495  36.242   7.500
 2917AUSL   AUS 2896  -4.425  36.097   7.916
 2918AUL    AUL 2897  -4.709  36.323   7.803
 2919THSLK    S 2898  -4.565  36.223   8.107
 2920ETHY    C1 2899  -4.798  36.344   8.482
 2921ETHY    C1 2900  -5.127  36.537   8.868
 2922ETHY    C1 2901  -5.507  36.776   9.166
 2923ETHY    C1 2902  -5.928  37.051   9.381
 2924THSLK    S 2903  -4.716  36.382   7.503
 2925ETHY    C1 2904  -5.005  36.737   7.502
 2926ETHY    C1 2905  -5.413  37.094   7.500
 2927ETHY    C1 2906  -5.883  37.358   7.500
 2928ETHY    C1 2907  -6.401  37.534   7.503
 2929AUSL   AUS 2908  -4.588  35.996   7.348
 2930AUSL   AUS 2909  -4.331  36.343   7.236
 2931AUL    AUL 2910  -4.709  36.323   7.196
 2932THSLK    S 2911  -4.825  36.110   7.303
 2933ETHY    C1 2912  -5.197  36.284   7.101
 2934ETHY    C1 2913  -5.683  36.460   6.936
 2935ETHY    C1 2914  -6.201  36.592   6.868
 2936ETHY    C1 2915  -6.739  36.684   6.890
 2937THSLK    S 2916  -4.451  36.510   7.056
 2938ETHY    C1 2917  -4.603  36.829   6.765
 2939ETHY    C1 2918  -4.857  37.209   6.473
 2940ETHY    C1 2919  -5.190  37.577   6.260
 2941ETHY    C1 2920  -5.586  37.927   6.122
 2942AUSL   AUS 2921  -4.588  35.996   7.651
 2943AUSL   AUS 2922  -4.588  35.669   7.348
 2944AUL    AUL 2923  -4.896  35.833   7.500
 2945THSLK    S 2924  -4.850  35.594   7.384
 2946ETHY    C1 2925  -5.300  35.543   7.446
 2947ETHY    C1 2926  -5.833  35.440   7.434
 2948ETHY    C1 2927  -6.340  35.290   7.327
 2949ETHY    C1 2928  -6.813  35.097   7.135
 2950THSLK    S 2929  -4.826  36.104   7.699
 2951ETHY    C1 2930  -5.197  36.280   7.901
 2952ETHY    C1 2931  -5.683  36.459   8.063
 2953ETHY    C1 2932  -6.201  36.592   8.133
 2954ETHY    C1 2933  -6.740  36.678   8.114
 2955AUSL   AUS 2934  -3.335  35.423   7.500
 2956AUSL   AUS 2935  -3.405  35.568   7.916
 2957AUL    AUL 2936  -3.121  35.342   7.803
 2958THSLK    S 2937  -3.114  35.283   7.503
 2959ETHY    C1 2938  -2.825  34.928   7.502
 2960ETHY    C1 2939  -2.416  34.571   7.500
 2961ETHY    C1 2940  -1.946  34.307   7.500
 2962ETHY    C1 2941  -1.429  34.131   7.503
 2963THSLK    S 2942  -3.268  35.378   8.066
 2964ETHY    C1 2943  -3.035  35.061   8.297
 2965ETHY    C1 2944  -2.702  34.754   8.598
 2966ETHY    C1 2945  -2.322  34.544   8.918
 2967ETHY    C1 2946  -1.905  34.428   9.250
 2968AUSL   AUS 2947  -3.241  35.669   7.348
 2969AUSL   AUS 2948  -3.498  35.322   7.236
 2970AUL    AUL 2949  -3.121  35.342   7.196
 2971THSLK    S 2950  -3.003  35.532   7.346
 2972ETHY    C1 2951  -2.632  35.274   7.279
 2973ETHY    C1 2952  -2.147  35.048   7.192
 2974ETHY    C1 2953  -1.628  34.928   7.103
 2975ETHY    C1 2954  -1.089  34.906   7.018
 2976THSLK    S 2955  -3.375  35.131   7.099
 2977ETHY    C1 2956  -3.225  34.729   6.942
 2978ETHY    C1 2957  -2.972  34.299   6.728
 2979ETHY    C1 2958  -2.640  33.943   6.495
 2980ETHY    C1 2959  -2.241  33.662   6.249
 2981AUSL   AUS 2960  -4.495  35.423   7.500
 2982AUSL   AUS 2961  -4.425  35.568   7.083
 2983AUL    AUL 2962  -4.709  35.342   7.196
 2984THSLK    S 2963  -4.600  35.397   6.966
 2985ETHY    C1 2964  -4.962  35.151   6.833
 2986ETHY    C1 2965  -5.370  34.888   6.589
 2987ETHY    C1 2966  -5.731  34.669   6.255
 2988ETHY    C1 2967  -6.043  34.491   5.843
 2989THSLK    S 2968  -4.765  35.362   7.503
 2990ETHY    C1 2969  -5.211  35.262   7.502
 2991ETHY    C1 2970  -5.713  35.056   7.500
 2992ETHY    C1 2971  -6.160  34.754   7.500
 2993ETHY    C1 2972  -6.548  34.370   7.503
 2994AUSL   AUS 2973  -4.588  35.669   7.651
 2995AUSL   AUS 2974  -4.331  35.322   7.764
 2996AUL    AUL 2975  -4.709  35.342   7.803
 2997THSLK    S 2976  -4.519  35.174   7.881
 2998ETHY    C1 2977  -4.875  34.898   7.958
 2999ETHY    C1 2978  -5.250  34.541   8.122
 3000ETHY    C1 2979  -5.551  34.167   8.367
 3001ETHY    C1 2980  -5.782  33.785   8.682
 3002THSLK    S 2981  -4.851  35.599   7.618
 3003ETHY    C1 2982  -5.301  35.547   7.557
 3004ETHY    C1 2983  -5.833  35.441   7.566
 3005ETHY    C1 2984  -6.340  35.290   7.673
 3006ETHY    C1 2985  -6.814  35.102   7.867
 3007AUSL   AUS 2986  -3.915  36.413   7.909
 3008AUSL   AUS 2987  -4.331  36.343   7.764
 3009AUL    AUL 2988  -4.218  36.627   7.991
 3010THSLK    S 2989  -4.454  36.505   7.948
 3011ETHY    C1 2990  -4.605  36.825   8.237
 3012ETHY    C1 2991  -4.858  37.208   8.527
 3013ETHY    C1 2992  -5.190  37.576   8.740
 3014ETHY    C1 2993  -5.589  37.922   8.881
 3015THSLK    S 2994  -3.877  36.644   8.034
 3016ETHY    C1 2995  -3.749  36.970   8.327
 3017ETHY    C1 2996  -3.672  37.402   8.646
 3018ETHY    C1 2997  -3.691  37.867   8.920
 3019ETHY    C1 2998  -3.797  38.352   9.147
 3020AUSL   AUS 2999  -4.066  36.506   7.663
 3021AUSL   AUS 3000  -3.763  36.506   7.336
 3022AUL    AUL 3001  -3.915  36.814   7.500
 3023THSLK    S 3002  -4.029  36.758   7.772
 3024ETHY    C1 3003  -3.956  37.182   7.929
 3025ETHY    C1 3004  -3.959  37.698   8.095
 3026ETHY    C1 3005  -4.067  38.209   8.229
 3027ETHY    C1 3006  -4.271  38.705   8.336
 3028THSLK    S 3007  -3.712  36.746   7.237
 3029ETHY    C1 3008  -3.499  37.123   7.091
 3030ETHY    C1 3009  -3.329  37.612   6.929
 3031ETHY    C1 3010  -3.262  38.130   6.792
 3032ETHY    C1 3011  -3.291  38.664   6.682
 3033AUSL   AUS 3012  -3.763  36.506   7.663
 3034AUSL   AUS 3013  -3.650  36.249   8.011
 3035AUL    AUL 3014  -3.611  36.627   7.991
 3036THSLK    S 3015  -3.477  36.366   8.184
 3037ETHY    C1 3016  -3.204  36.507   8.522
 3038ETHY    C1 3017  -2.923  36.756   8.915
 3039ETHY    C1 3018  -2.707  37.089   9.279
 3040ETHY    C1 3019  -2.555  37.494   9.614
 3041THSLK    S 3020  -3.713  36.744   7.768
 3042ETHY    C1 3021  -3.500  37.123   7.913
 3043ETHY    C1 3022  -3.329  37.612   8.072
 3044ETHY    C1 3023  -3.262  38.130   8.207
 3045ETHY    C1 3024  -3.293  38.663   8.325
 3046AUSL   AUS 3025  -3.915  35.252   7.909
 3047AUSL   AUS 3026  -3.498  35.322   7.764
 3048AUL    AUL 3027  -3.611  35.038   7.991
 3049THSLK    S 3028  -3.956  34.995   7.992
 3050ETHY    C1 3029  -4.083  34.586   8.152
 3051ETHY    C1 3030  -4.157  34.105   8.391
 3052ETHY    C1 3031  -4.138  33.653   8.684
 3053ETHY    C1 3032  -4.036  33.235   9.021
 3054THSLK    S 3033  -3.378  35.132   7.907
 3055ETHY    C1 3034  -3.227  34.730   8.062
 3056ETHY    C1 3035  -2.972  34.299   8.272
 3057ETHY    C1 3036  -2.640  33.943   8.505
 3058ETHY    C1 3037  -2.244  33.664   8.758
 3059AUSL   AUS 3038  -4.066  35.159   7.663
 3060AUSL   AUS 3039  -4.179  35.416   8.011
 3061AUL    AUL 3040  -4.218  35.038   7.991
 3062THSLK    S 3041  -4.117  34.914   7.744
 3063ETHY    C1 3042  -4.330  34.515   7.812
 3064ETHY    C1 3043  -4.501  34.012   7.925
 3065ETHY    C1 3044  -4.567  33.498   8.072
 3066ETHY    C1 3045  -4.538  32.983   8.252
 3067THSLK    S 3046  -4.357  35.246   8.136
 3068ETHY    C1 3047  -4.629  34.931   8.327
 3069ETHY    C1 3048  -4.907  34.580   8.633
 3070ETHY    C1 3049  -5.123  34.272   9.019
 3071ETHY    C1 3050  -5.279  34.010   9.473
 3072AUSL   AUS 3051  -3.763  35.159   7.663
 3073AUSL   AUS 3052  -4.066  35.159   7.336
 3074AUL    AUL 3053  -3.915  34.851   7.500
 3075THSLK    S 3054  -4.116  34.912   7.261
 3076ETHY    C1 3055  -4.329  34.514   7.192
 3077ETHY    C1 3056  -4.501  34.012   7.076
 3078ETHY    C1 3057  -4.567  33.498   6.927
 3079ETHY    C1 3058  -4.536  32.981   6.754
 3080THSLK    S 3059  -3.802  34.900   7.748
 3081ETHY    C1 3060  -3.874  34.455   7.829
 3082ETHY    C1 3061  -3.871  33.926   7.948
 3083ETHY    C1 3062  -3.762  33.418   8.095
 3084ETHY    C1 3063  -3.560  32.940   8.264
 3085AUSL   AUS 3064  -3.915  36.413   7.091
 3086AUSL   AUS 3065  -3.498  36.343   7.236
 3087AUL    AUL 3066  -3.611  36.627   7.009
 3088THSLK    S 3067  -3.873  36.647   6.971
 3089ETHY    C1 3068  -3.746  36.972   6.676
 3090ETHY    C1 3069  -3.672  37.402   6.353
 3091ETHY    C1 3070  -3.691  37.867   6.080
 3092ETHY    C1 3071  -3.794  38.355   5.857
 3093THSLK    S 3072  -3.311  36.468   7.081
 3094ETHY    C1 3073  -2.954  36.660   6.869
 3095ETHY    C1 3074  -2.579  36.966   6.623
 3096ETHY    C1 3075  -2.278  37.353   6.398
 3097ETHY    C1 3076  -2.048  37.805   6.197
 3098AUSL   AUS 3077  -4.066  36.506   7.336
 3099AUSL   AUS 3078  -4.179  36.249   6.990
 3100AUL    AUL 3079  -4.218  36.627   7.009
 3101THSLK    S 3080  -4.027  36.760   7.233
 3102ETHY    C1 3081  -3.955  37.183   7.074
 3103ETHY    C1 3082  -3.958  37.699   6.906
 3104ETHY    C1 3083  -4.067  38.209   6.770
 3105ETHY    C1 3084  -4.269  38.707   6.670
 3106THSLK    S 3085  -4.298  36.386   6.800
 3107ETHY    C1 3086  -4.394  36.580   6.396
 3108ETHY    C1 3087  -4.571  36.858   5.966
 3109ETHY    C1 3088  -4.814  37.183   5.611
 3110ETHY    C1 3089  -5.110  37.548   5.330
 3111AUSL   AUS 3090  -3.915  35.252   7.091
 3112AUSL   AUS 3091  -4.331  35.322   7.236
 3113AUL    AUL 3092  -4.218  35.038   7.009
 3114THSLK    S 3093  -4.516  35.169   7.122
 3115ETHY    C1 3094  -4.873  34.895   7.044
 3116ETHY    C1 3095  -5.250  34.541   6.878
 3117ETHY    C1 3096  -5.552  34.167   6.633
 3118ETHY    C1 3097  -5.779  33.780   6.321
 3119THSLK    S 3098  -3.953  34.992   7.013
 3120ETHY    C1 3099  -4.081  34.584   6.852
 3121ETHY    C1 3100  -4.157  34.105   6.609
 3122ETHY    C1 3101  -4.138  33.653   6.315
 3123ETHY    C1 3102  -4.032  33.232   5.983
 3124AUSL   AUS 3103  -3.763  35.159   7.336
 3125AUSL   AUS 3104  -3.650  35.416   6.990
 3126AUL    AUL 3105  -3.611  35.038   7.009
 3127THSLK    S 3106  -3.800  34.899   7.258
 3128ETHY    C1 3107  -3.873  34.454   7.175
 3129ETHY    C1 3108  -3.871  33.926   7.052
 3130ETHY    C1 3109  -3.763  33.418   6.905
 3131ETHY    C1 3110  -3.558  32.939   6.742
 3132THSLK    S 3111  -3.527  35.226   6.847
 3133ETHY    C1 3112  -3.432  34.858   6.592
 3134ETHY    C1 3113  -3.258  34.477   6.247
 3135ETHY    C1 3114  -3.016  34.177   5.870
 3136ETHY    C1 3115  -2.715  33.956   5.471
 3137AUC    AUC 3116   7.278  11.501   7.500
 3138AUC    AUC 3117   7.524  11.501   7.348
 3139AUC    AUC 3118   7.524  11.501   7.651
 3140AUC    AUC 3119   7.033  11.501   7.348
 3141AUC    AUC 3120   7.033  11.501   7.651
 3142AUC    AUC 3121   7.127  11.746   7.500
 3143AUC    AUC 3122   7.430  11.746   7.500
 3144AUC    AUC 3123   7.127  11.255   7.500
 3145AUC    AUC 3124   7.430  11.255   7.500
 3146AUC    AUC 3125   7.278  11.349   7.745
 3147AUC    AUC 3126   7.278  11.652   7.745
 3148AUC    AUC 3127   7.278  11.349   7.254
 3149AUC    AUC 3128   7.278  11.652   7.254
 3150AUC    AUC 3129   7.769  11.501   7.196
 3151AUC    AUC 3130   7.769  11.501   7.500
 3152AUC    AUC 3131   7.769  11.501   7.803
 3153AUC    AUC 3132   6.787  11.501   7.196
 3154AUC    AUC 3133   6.787  11.501   7.500
 3155AUC    AUC 3134   6.787  11.501   7.803
 3156AUC    AUC 3135   6.975  11.991   7.500
 3157AUC    AUC 3136   7.278  11.991   7.500
 3158AUC    AUC 3137   7.582  11.991   7.500
 3159AUC    AUC 3138   6.975  11.010   7.500
 3160AUC    AUC 3139   7.278  11.010   7.500
 3161AUC    AUC 3140   7.582  11.010   7.500
 3162AUC    AUC 3141   7.278  11.197   7.991
 3163AUC    AUC 3142   7.278  11.501   7.991
 3164AUC    AUC 3143   7.278  11.804   7.991
 3165AUC    AUC 3144   7.278  11.197   7.009
 3166AUC    AUC 3145   7.278  11.501   7.009
 3167AUC    AUC 3146   7.278  11.804   7.009
 3168AUC    AUC 3147   7.524  11.349   7.897
 3169AUC    AUC 3148   7.524  11.652   7.897
 3170AUC    AUC 3149   7.524  11.349   7.103
 3171AUC    AUC 3150   7.524  11.652   7.103
 3172AUC    AUC 3151   7.033  11.349   7.897
 3173AUC    AUC 3152   7.033  11.652   7.897
 3174AUC    AUC 3153   7.033  11.349   7.103
 3175AUC    AUC 3154   7.033  11.652   7.103
 3176AUC    AUC 3155   7.675  11.746   7.348
 3177AUC    AUC 3156   7.675  11.746   7.651
 3178AUC    AUC 3157   6.881  11.746   7.348
 3179AUC    AUC 3158   6.881  11.746   7.651
 3180AUC    AUC 3159   7.675  11.255   7.348
 3181AUC    AUC 3160   7.675  11.255   7.651
 3182AUC    AUC 3161   6.881  11.255   7.348
 3183AUC    AUC 3162   6.881  11.255   7.651
 3184AUC    AUC 3163   7.127  11.898   7.745
 3185AUC    AUC 3164   7.430  11.898   7.745
 3186AUC    AUC 3165   7.127  11.103   7.745
 3187AUC    AUC 3166   7.430  11.103   7.745
 3188AUC    AUC 3167   7.127  11.898   7.254
 3189AUC    AUC 3168   7.430  11.898   7.254
 3190AUC    AUC 3169   7.127  11.103   7.254
 3191AUC    AUC 3170   7.430  11.103   7.254
 3192AUSL   AUS 3171   7.687  11.501   8.080
 3193AUSL   AUS 3172   7.543  11.084   8.011
 3194AUL    AUL 3173   7.769  11.197   8.294
 3195THSLK    S 3174   7.661  10.896   8.156
 3196ETHY    C1 3175   7.757  10.528   8.412
 3197ETHY    C1 3176   7.935  10.145   8.753
 3198ETHY    C1 3177   8.177   9.845   9.130
 3199ETHY    C1 3178   8.473   9.626   9.534
 3200THSLK    S 3179   7.786  11.454   8.327
 3201ETHY    C1 3180   8.013  11.304   8.694
 3202ETHY    C1 3181   8.297  11.216   9.148
 3203ETHY    C1 3182   8.581  11.238   9.607
 3204ETHY    C1 3183   8.858  11.360  10.061
 3205AUSL   AUS 3184   7.442  11.349   8.173
 3206AUSL   AUS 3185   7.115  11.652   8.173
 3207AUL    AUL 3186   7.278  11.501   8.482
 3208THSLK    S 3187   7.523  11.298   8.418
 3209ETHY    C1 3188   7.613  11.080   8.810
 3210ETHY    C1 3189   7.741  10.906   9.308
 3211ETHY    C1 3190   7.887  10.841   9.823
 3212ETHY    C1 3191   8.044  10.875  10.346
 3213THSLK    S 3192   7.028  11.612   8.432
 3214ETHY    C1 3193   6.939  11.538   8.874
 3215ETHY    C1 3194   6.815  11.540   9.403
 3216ETHY    C1 3195   6.670  11.649   9.912
 3217ETHY    C1 3196   6.507  11.853  10.392
 3218AUSL   AUS 3197   7.442  11.652   8.173
 3219AUSL   AUS 3198   7.788  11.765   7.916
 3220AUL    AUL 3199   7.769  11.804   8.294
 3221THSLK    S 3200   7.529  11.704   8.416
 3222ETHY    C1 3201   7.617  11.921   8.809
 3223ETHY    C1 3202   7.742  12.094   9.308
 3224ETHY    C1 3203   7.887  12.160   9.823
 3225ETHY    C1 3204   8.050  12.127  10.345
 3226THSLK    S 3205   7.964  11.871   8.079
 3227ETHY    C1 3206   8.326  11.921   8.355
 3228ETHY    C1 3207   8.733  12.070   8.681
 3229ETHY    C1 3208   9.095  12.319   8.995
 3230ETHY    C1 3209   9.407  12.655   9.293
 3231AUSL   AUS 3210   7.687  11.501   6.920
 3232AUSL   AUS 3211   7.543  11.917   6.990
 3233AUL    AUL 3212   7.769  11.804   6.706
 3234THSLK    S 3213   7.791  11.454   6.676
 3235ETHY    C1 3214   8.018  11.304   6.308
 3236ETHY    C1 3215   8.297  11.216   5.851
 3237ETHY    C1 3216   8.581  11.238   5.393
 3238ETHY    C1 3217   8.863  11.360   4.941
 3239THSLK    S 3218   7.720  12.036   6.820
 3240ETHY    C1 3219   7.992  12.177   6.480
 3241ETHY    C1 3220   8.270  12.424   6.085
 3242ETHY    C1 3221   8.486  12.757   5.720
 3243ETHY    C1 3222   8.643  13.164   5.391
 3244AUSL   AUS 3223   7.442  11.349   6.826
 3245AUSL   AUS 3224   7.788  11.236   7.083
 3246AUL    AUL 3225   7.769  11.197   6.706
 3247THSLK    S 3226   7.928  11.045   6.939
 3248ETHY    C1 3227   8.161  10.728   6.707
 3249ETHY    C1 3228   8.491  10.421   6.403
 3250ETHY    C1 3229   8.871  10.212   6.083
 3251ETHY    C1 3230   9.292  10.095   5.754
 3252THSLK    S 3231   7.529  11.297   6.583
 3253ETHY    C1 3232   7.617  11.080   6.191
 3254ETHY    C1 3233   7.742  10.907   5.692
 3255ETHY    C1 3234   7.887  10.841   5.176
 3256ETHY    C1 3235   8.050  10.874   4.656
 3257AUSL   AUS 3236   7.442  11.652   6.826
 3258AUSL   AUS 3237   7.115  11.349   6.826
 3259AUL    AUL 3238   7.278  11.501   6.518
 3260THSLK    S 3239   7.019  11.297   6.586
 3261ETHY    C1 3240   6.880  11.082   6.206
 3262ETHY    C1 3241   6.723  10.911   5.717
 3263ETHY    C1 3242   6.584  10.845   5.199
 3264ETHY    C1 3243   6.468  10.876   4.666
 3265THSLK    S 3244   7.544  11.613   6.572
 3266ETHY    C1 3245   7.681  11.536   6.142
 3267ETHY    C1 3246   7.834  11.536   5.622
 3268ETHY    C1 3247   7.972  11.645   5.112
 3269ETHY    C1 3248   8.095  11.852   4.621
 3270AUSL   AUS 3249   6.869  11.501   8.080
 3271AUSL   AUS 3250   7.014  11.917   8.011
 3272AUL    AUL 3251   6.787  11.804   8.294
 3273THSLK    S 3252   6.765  11.454   8.325
 3274ETHY    C1 3253   6.539  11.304   8.691
 3275ETHY    C1 3254   6.259  11.216   9.148
 3276ETHY    C1 3255   5.976  11.238   9.607
 3277ETHY    C1 3256   5.693  11.360  10.058
 3278THSLK    S 3257   6.891  12.050   8.201
 3279ETHY    C1 3258   6.795  12.245   8.604
 3280ETHY    C1 3259   6.622  12.526   9.034
 3281ETHY    C1 3260   6.379  12.852   9.390
 3282ETHY    C1 3261   6.078  13.211   9.671
 3283AUSL   AUS 3262   7.115  11.349   8.173
 3284AUSL   AUS 3263   6.768  11.236   7.916
 3285AUL    AUL 3264   6.787  11.197   8.294
 3286THSLK    S 3265   6.589  11.070   8.032
 3287ETHY    C1 3266   6.228  10.823   8.166
 3288ETHY    C1 3267   5.823  10.557   8.410
 3289ETHY    C1 3268   5.462  10.337   8.745
 3290ETHY    C1 3269   5.146  10.164   9.156
 3291THSLK    S 3270   7.013  11.299   8.413
 3292ETHY    C1 3271   6.875  11.084   8.793
 3293ETHY    C1 3272   6.722  10.911   9.284
 3294ETHY    C1 3273   6.585  10.845   9.800
 3295ETHY    C1 3274   6.461  10.877  10.332
 3296AUSL   AUS 3275   6.869  11.501   6.920
 3297AUSL   AUS 3276   7.014  11.084   6.990
 3298AUL    AUL 3277   6.787  11.197   6.706
 3299THSLK    S 3278   6.770  11.454   6.673
 3300ETHY    C1 3279   6.543  11.304   6.305
 3301ETHY    C1 3280   6.260  11.216   5.851
 3302ETHY    C1 3281   5.976  11.238   5.393
 3303ETHY    C1 3282   5.699  11.360   4.938
 3304THSLK    S 3283   6.840  10.909   6.865
 3305ETHY    C1 3284   6.568  10.596   6.673
 3306ETHY    C1 3285   6.287  10.248   6.367
 3307ETHY    C1 3286   6.070   9.940   5.980
 3308ETHY    C1 3287   5.918   9.673   5.528
 3309AUSL   AUS 3288   7.115  11.652   6.826
 3310AUSL   AUS 3289   6.768  11.765   7.083
 3311AUL    AUL 3290   6.787  11.804   6.706
 3312THSLK    S 3291   6.632  11.896   6.893
 3313ETHY    C1 3292   6.398  12.017   6.518
 3314ETHY    C1 3293   6.066  12.205   6.132
 3315ETHY    C1 3294   5.686  12.444   5.833
 3316ETHY    C1 3295   5.269  12.724   5.618
 3317THSLK    S 3296   7.034  11.614   6.566
 3318ETHY    C1 3297   6.944  11.539   6.124
 3319ETHY    C1 3298   6.816  11.540   5.597
 3320ETHY    C1 3299   6.670  11.649   5.089
 3321ETHY    C1 3300   6.513  11.855   4.608
 3322AUSL   AUS 3301   7.858  11.910   7.500
 3323AUSL   AUS 3302   7.788  11.765   7.083
 3324AUL    AUL 3303   8.072  11.991   7.196
 3325THSLK    S 3304   7.968  11.872   6.925
 3326ETHY    C1 3305   8.329  11.922   6.648
 3327ETHY    C1 3306   8.733  12.070   6.319
 3328ETHY    C1 3307   9.095  12.319   6.005
 3329ETHY    C1 3308   9.411  12.656   5.713
 3330THSLK    S 3309   8.128  11.971   7.503
 3331ETHY    C1 3310   8.575  12.071   7.502
 3332ETHY    C1 3311   9.077  12.277   7.500
 3333ETHY    C1 3312   9.524  12.579   7.500
 3334ETHY    C1 3313   9.912  12.963   7.503
 3335AUSL   AUS 3314   7.952  11.664   7.348
 3336AUSL   AUS 3315   7.952  11.337   7.651
 3337AUL    AUL 3316   8.260  11.501   7.500
 3338THSLK    S 3317   8.214  11.711   7.345
 3339ETHY    C1 3318   8.664  11.680   7.270
 3340ETHY    C1 3319   9.196  11.735   7.179
 3341ETHY    C1 3320   9.703  11.898   7.091
 3342ETHY    C1 3321  10.178  12.156   7.011
 3343THSLK    S 3322   8.189  11.200   7.659
 3344ETHY    C1 3323   8.560  10.942   7.726
 3345ETHY    C1 3324   9.046  10.716   7.808
 3346ETHY    C1 3325   9.565  10.596   7.896
 3347ETHY    C1 3326  10.103  10.574   7.989
 3348AUSL   AUS 3327   7.952  11.664   7.651
 3349AUSL   AUS 3328   7.695  12.011   7.764
 3350AUL    AUL 3329   8.072  11.991   7.803
 3351THSLK    S 3330   7.880  12.135   7.924
 3352ETHY    C1 3331   8.237  12.327   8.136
 3353ETHY    C1 3332   8.614  12.634   8.377
 3354ETHY    C1 3333   8.915  13.021   8.602
 3355ETHY    C1 3334   9.142  13.472   8.809
 3356THSLK    S 3335   8.213  11.710   7.661
 3357ETHY    C1 3336   8.664  11.680   7.734
 3358ETHY    C1 3337   9.197  11.735   7.821
 3359ETHY    C1 3338   9.703  11.898   7.908
 3360ETHY    C1 3339  10.177  12.156   7.995
 3361AUSL   AUS 3340   6.698  11.910   7.500
 3362AUSL   AUS 3341   6.768  11.765   7.916
 3363AUL    AUL 3342   6.484  11.991   7.803
 3364THSLK    S 3343   6.628  11.891   8.107
 3365ETHY    C1 3344   6.395  12.012   8.482
 3366ETHY    C1 3345   6.066  12.205   8.868
 3367ETHY    C1 3346   5.686  12.444   9.166
 3368ETHY    C1 3347   5.265  12.719   9.381
 3369THSLK    S 3348   6.477  12.050   7.503
 3370ETHY    C1 3349   6.188  12.405   7.502
 3371ETHY    C1 3350   5.780  12.762   7.500
 3372ETHY    C1 3351   5.310  13.026   7.500
 3373ETHY    C1 3352   4.792  13.202   7.503
 3374AUSL   AUS 3353   6.605  11.664   7.348
 3375AUSL   AUS 3354   6.862  12.011   7.236
 3376AUL    AUL 3355   6.484  11.991   7.196
 3377THSLK    S 3356   6.368  11.778   7.303
 3378ETHY    C1 3357   5.996  11.952   7.101
 3379ETHY    C1 3358   5.510  12.128   6.936
 3380ETHY    C1 3359   4.992  12.260   6.868
 3381ETHY    C1 3360   4.454  12.352   6.890
 3382THSLK    S 3361   6.742  12.178   7.056
 3383ETHY    C1 3362   6.590  12.497   6.765
 3384ETHY    C1 3363   6.336  12.877   6.473
 3385ETHY    C1 3364   6.003  13.245   6.260
 3386ETHY    C1 3365   5.607  13.595   6.122
 3387AUSL   AUS 3366   6.605  11.664   7.651
 3388AUSL   AUS 3367   6.605  11.337   7.348
 3389AUL    AUL 3368   6.297  11.501   7.500
 3390THSLK    S 3369   6.343  11.262   7.384
 3391ETHY    C1 3370   5.893  11.211   7.446
 3392ETHY    C1 3371   5.360  11.108   7.434
 3393ETHY    C1 3372   4.853  10.958   7.327
 3394ETHY    C1 3373   4.380  10.765   7.135
 3395THSLK    S 3374   6.367  11.772   7.699
 3396ETHY    C1 3375   5.996  11.948   7.901
 3397ETHY    C1 3376   5.510  12.127   8.063
 3398ETHY    C1 3377   4.992  12.260   8.133
 3399ETHY    C1 3378   4.453  12.346   8.114
 3400AUSL   AUS 3379   7.858  11.091   7.500
 3401AUSL   AUS 3380   7.788  11.236   7.916
 3402AUL    AUL 3381   8.072  11.010   7.803
 3403THSLK    S 3382   8.079  10.951   7.503
 3404ETHY    C1 3383   8.368  10.596   7.502
 3405ETHY    C1 3384   8.777  10.239   7.500
 3406ETHY    C1 3385   9.247   9.975   7.500
 3407ETHY    C1 3386   9.764   9.799   7.503
 3408THSLK    S 3387   7.925  11.046   8.066
 3409ETHY    C1 3388   8.158  10.729   8.297
 3410ETHY    C1 3389   8.491  10.422   8.598
 3411ETHY    C1 3390   8.871  10.212   8.918
 3412ETHY    C1 3391   9.288  10.096   9.250
 3413AUSL   AUS 3392   7.952  11.337   7.348
 3414AUSL   AUS 3393   7.695  10.990   7.236
 3415AUL    AUL 3394   8.072  11.010   7.196
 3416THSLK    S 3395   8.190  11.200   7.346
 3417ETHY    C1 3396   8.561  10.942   7.279
 3418ETHY    C1 3397   9.046  10.716   7.192
 3419ETHY    C1 3398   9.565  10.596   7.103
 3420ETHY    C1 3399  10.104  10.574   7.018
 3421THSLK    S 3400   7.818  10.799   7.099
 3422ETHY    C1 3401   7.968  10.397   6.942
 3423ETHY    C1 3402   8.221   9.967   6.728
 3424ETHY    C1 3403   8.553   9.611   6.495
 3425ETHY    C1 3404   8.952   9.330   6.249
 3426AUSL   AUS 3405   6.698  11.091   7.500
 3427AUSL   AUS 3406   6.768  11.236   7.083
 3428AUL    AUL 3407   6.484  11.010   7.196
 3429THSLK    S 3408   6.593  11.065   6.966
 3430ETHY    C1 3409   6.231  10.819   6.833
 3431ETHY    C1 3410   5.823  10.556   6.589
 3432ETHY    C1 3411   5.462  10.337   6.255
 3433ETHY    C1 3412   5.150  10.159   5.843
 3434THSLK    S 3413   6.428  11.030   7.503
 3435ETHY    C1 3414   5.982  10.930   7.502
 3436ETHY    C1 3415   5.480  10.724   7.500
 3437ETHY    C1 3416   5.033  10.422   7.500
 3438ETHY    C1 3417   4.645  10.038   7.503
 3439AUSL   AUS 3418   6.605  11.337   7.651
 3440AUSL   AUS 3419   6.862  10.990   7.764
 3441AUL    AUL 3420   6.484  11.010   7.803
 3442THSLK    S 3421   6.674  10.842   7.881
 3443ETHY    C1 3422   6.318  10.566   7.958
 3444ETHY    C1 3423   5.943  10.209   8.122
 3445ETHY    C1 3424   5.642   9.835   8.367
 3446ETHY    C1 3425   5.411   9.453   8.682
 3447THSLK    S 3426   6.342  11.267   7.618
 3448ETHY    C1 3427   5.892  11.215   7.557
 3449ETHY    C1 3428   5.360  11.109   7.566
 3450ETHY    C1 3429   4.853  10.958   7.673
 3451ETHY    C1 3430   4.379  10.770   7.867
 3452AUSL   AUS 3431   7.278  12.081   7.909
 3453AUSL   AUS 3432   6.862  12.011   7.764
 3454AUL    AUL 3433   6.975  12.295   7.991
 3455THSLK    S 3434   6.739  12.173   7.948
 3456ETHY    C1 3435   6.588  12.493   8.237
 3457ETHY    C1 3436   6.335  12.876   8.527
 3458ETHY    C1 3437   6.003  13.244   8.740
 3459ETHY    C1 3438   5.604  13.590   8.881
 3460THSLK    S 3439   7.316  12.312   8.034
 3461ETHY    C1 3440   7.444  12.638   8.327
 3462ETHY    C1 3441   7.521  13.070   8.646
 3463ETHY    C1 3442   7.502  13.535   8.920
 3464ETHY    C1 3443   7.396  14.020   9.147
 3465AUSL   AUS 3444   7.127  12.174   7.663
 3466AUSL   AUS 3445   7.430  12.174   7.336
 3467AUL    AUL 3446   7.278  12.482   7.500
 3468THSLK    S 3447   7.164  12.426   7.772
 3469ETHY    C1 3448   7.237  12.850   7.929
 3470ETHY    C1 3449   7.234  13.366   8.095
 3471ETHY    C1 3450   7.126  13.877   8.229
 3472ETHY    C1 3451   6.922  14.373   8.336
 3473THSLK    S 3452   7.481  12.414   7.237
 3474ETHY    C1 3453   7.694  12.791   7.091
 3475ETHY    C1 3454   7.864  13.280   6.929
 3476ETHY    C1 3455   7.931  13.798   6.792
 3477ETHY    C1 3456   7.902  14.332   6.682
 3478AUSL   AUS 3457   7.430  12.174   7.663
 3479AUSL   AUS 3458   7.543  11.917   8.011
 3480AUL    AUL 3459   7.582  12.295   7.991
 3481THSLK    S 3460   7.716  12.034   8.184
 3482ETHY    C1 3461   7.989  12.175   8.522
 3483ETHY    C1 3462   8.270  12.424   8.915
 3484ETHY    C1 3463   8.486  12.757   9.279
 3485ETHY    C1 3464   8.638  13.162   9.614
 3486THSLK    S 3465   7.480  12.412   7.768
 3487ETHY    C1 3466   7.693  12.791   7.913
 3488ETHY    C1 3467   7.864  13.280   8.072
 3489ETHY    C1 3468   7.931  13.798   8.207
 3490ETHY    C1 3469   7.900  14.331   8.325
 3491AUSL   AUS 3470   7.278  10.920   7.909
 3492AUSL   AUS 3471   7.695  10.990   7.764
 3493AUL    AUL 3472   7.582  10.706   7.991
 3494THSLK    S 3473   7.237  10.663   7.992
 3495ETHY    C1 3474   7.110  10.254   8.152
 3496ETHY    C1 3475   7.036   9.773   8.391
 3497ETHY    C1 3476   7.055   9.321   8.684
 3498ETHY    C1 3477   7.157   8.903   9.021
 3499THSLK    S 3478   7.815  10.800   7.907
 3500ETHY    C1 3479   7.966  10.398   8.062
 3501ETHY    C1 3480   8.221   9.967   8.272
 3502ETHY    C1 3481   8.553   9.611   8.505
 3503ETHY    C1 3482   8.949   9.332   8.758
 3504AUSL   AUS 3483   7.127  10.827   7.663
 3505AUSL   AUS 3484   7.014  11.084   8.011
 3506AUL    AUL 3485   6.975  10.706   7.991
 3507THSLK    S 3486   7.076  10.582   7.744
 3508ETHY    C1 3487   6.863  10.183   7.812
 3509ETHY    C1 3488   6.692   9.680   7.925
 3510ETHY    C1 3489   6.626   9.166   8.072
 3511ETHY    C1 3490   6.655   8.651   8.252
 3512THSLK    S 3491   6.836  10.914   8.136
 3513ETHY    C1 3492   6.564  10.599   8.327
 3514ETHY    C1 3493   6.286  10.248   8.633
 3515ETHY    C1 3494   6.070   9.940   9.019
 3516ETHY    C1 3495   5.914   9.678   9.473
 3517AUSL   AUS 3496   7.430  10.827   7.663
 3518AUSL   AUS 3497   7.127  10.827   7.336
 3519AUL    AUL 3498   7.278  10.519   7.500
 3520THSLK    S 3499   7.077  10.580   7.261
 3521ETHY    C1 3500   6.864  10.182   7.192
 3522ETHY    C1 3501   6.692   9.680   7.076
 3523ETHY    C1 3502   6.626   9.166   6.927
 3524ETHY    C1 3503   6.657   8.649   6.754
 3525THSLK    S 3504   7.391  10.568   7.748
 3526ETHY    C1 3505   7.319  10.123   7.829
 3527ETHY    C1 3506   7.322   9.594   7.948
 3528ETHY    C1 3507   7.431   9.086   8.095
 3529ETHY    C1 3508   7.633   8.608   8.264
 3530AUSL   AUS 3509   7.278  12.081   7.091
 3531AUSL   AUS 3510   7.695  12.011   7.236
 3532AUL    AUL 3511   7.582  12.295   7.009
 3533THSLK    S 3512   7.320  12.315   6.971
 3534ETHY    C1 3513   7.447  12.640   6.676
 3535ETHY    C1 3514   7.521  13.070   6.353
 3536ETHY    C1 3515   7.502  13.535   6.080
 3537ETHY    C1 3516   7.399  14.023   5.857
 3538THSLK    S 3517   7.882  12.136   7.081
 3539ETHY    C1 3518   8.239  12.328   6.869
 3540ETHY    C1 3519   8.614  12.634   6.623
 3541ETHY    C1 3520   8.915  13.021   6.398
 3542ETHY    C1 3521   9.145  13.473   6.197
 3543AUSL   AUS 3522   7.127  12.174   7.336
 3544AUSL   AUS 3523   7.014  11.917   6.990
 3545AUL    AUL 3524   6.975  12.295   7.009
 3546THSLK    S 3525   7.166  12.428   7.233
 3547ETHY    C1 3526   7.238  12.851   7.074
 3548ETHY    C1 3527   7.235  13.367   6.906
 3549ETHY    C1 3528   7.126  13.877   6.770
 3550ETHY    C1 3529   6.924  14.375   6.670
 3551THSLK    S 3530   6.895  12.054   6.800
 3552ETHY    C1 3531   6.799  12.248   6.396
 3553ETHY    C1 3532   6.622  12.526   5.966
 3554ETHY    C1 3533   6.379  12.851   5.611
 3555ETHY    C1 3534   6.083  13.216   5.330
 3556AUSL   AUS 3535   7.278  10.920   7.091
 3557AUSL   AUS 3536   6.862  10.990   7.236
 3558AUL    AUL 3537   6.975  10.706   7.009
 3559THSLK    S 3538   6.677  10.837   7.122
 3560ETHY    C1 3539   6.320  10.563   7.044
 3561ETHY    C1 3540   5.943  10.209   6.878
 3562ETHY    C1 3541   5.641   9.835   6.633
 3563ETHY    C1 3542   5.414   9.448   6.321
 3564THSLK    S 3543   7.240  10.660   7.013
 3565ETHY    C1 3544   7.112  10.252   6.852
 3566ETHY    C1 3545   7.036   9.773   6.609
 3567ETHY    C1 3546   7.055   9.321   6.315
 3568ETHY    C1 3547   7.161   8.900   5.983
 3569AUSL   AUS 3548   7.430  10.827   7.336
 3570AUSL   AUS 3549   7.543  11.084   6.990
 3571AUL    AUL 3550   7.582  10.706   7.009
 3572THSLK    S 3551   7.393  10.567   7.258
 3573ETHY    C1 3552   7.320  10.122   7.175
 3574ETHY    C1 3553   7.322   9.594   7.052
 3575ETHY    C1 3554   7.430   9.086   6.905
 3576ETHY    C1 3555   7.635   8.607   6.742
 3577THSLK    S 3556   7.666  10.894   6.847
 3578ETHY    C1 3557   7.761  10.526   6.592
 3579ETHY    C1 3558   7.935  10.145   6.247
 3580ETHY    C1 3559   8.177   9.845   5.870
 3581ETHY    C1 3560   8.478   9.624   5.471
 3582AUC    AUC 3561  41.001  23.421   7.500
 3583AUC    AUC 3562  41.247  23.421   7.348
 3584AUC    AUC 3563  41.247  23.421   7.651
 3585AUC    AUC 3564  40.756  23.421   7.348
 3586AUC    AUC 3565  40.756  23.421   7.651
 3587AUC    AUC 3566  40.850  23.666   7.500
 3588AUC    AUC 3567  41.153  23.666   7.500
 3589AUC    AUC 3568  40.850  23.175   7.500
 3590AUC    AUC 3569  41.153  23.175   7.500
 3591AUC    AUC 3570  41.001  23.269   7.745
 3592AUC    AUC 3571  41.001  23.572   7.745
 3593AUC    AUC 3572  41.001  23.269   7.254
 3594AUC    AUC 3573  41.001  23.572   7.254
 3595AUC    AUC 3574  41.492  23.421   7.196
 3596AUC    AUC 3575  41.492  23.421   7.500
 3597AUC    AUC 3576  41.492  23.421   7.803
 3598AUC    AUC 3577  40.510  23.421   7.196
 3599AUC    AUC 3578  40.510  23.421   7.500
 3600AUC    AUC 3579  40.510  23.421   7.803
 3601AUC    AUC 3580  40.698  23.911   7.500
 3602AUC    AUC 3581  41.001  23.911   7.500
 3603AUC    AUC 3582  41.305  23.911   7.500
 3604AUC    AUC 3583  40.698  22.930   7.500
 3605AUC    AUC 3584  41.001  22.930   7.500
 3606AUC    AUC 3585  41.305  22.930   7.500
 3607AUC    AUC 3586  41.001  23.117   7.991
 3608AUC    AUC 3587  41.001  23.421   7.991
 3609AUC    AUC 3588  41.001  23.724   7.991
 3610AUC    AUC 3589  41.001  23.117   7.009
 3611AUC    AUC 3590  41.001  23.421   7.009
 3612AUC    AUC 3591  41.001  23.724   7.009
 3613AUC    AUC 3592  41.247  23.269   7.897
 3614AUC    AUC 3593  41.247  23.572   7.897
 3615AUC    AUC 3594  41.247  23.269   7.103
 3616AUC    AUC 3595  41.247  23.572   7.103
 3617AUC    AUC 3596  40.756  23.269   7.897
 3618AUC    AUC 3597  40.756  23.572   7.897
 3619AUC    AUC 3598  40.756  23.269   7.103
 3620AUC    AUC 3599  40.756  23.572   7.103
 3621AUC    AUC 3600  41.398  23.666   7.348
 3622AUC    AUC 3601  41.398  23.666   7.651
 3623AUC    AUC 3602  40.604  23.666   7.348
 3624AUC    AUC 3603  40.604  23.666   7.651
 3625AUC    AUC 3604  41.398  23.175   7.348
 3626AUC    AUC 3605  41.398  23.175   7.651
 3627AUC    AUC 3606  40.604  23.175   7.348
 3628AUC    AUC 3607  40.604  23.175   7.651
 3629AUC    AUC 3608  40.850  23.818   7.745
 3630AUC    AUC 3609  41.153  23.818   7.745
 3631AUC    AUC 3610  40.850  23.023   7.745
 3632AUC    AUC 3611  41.153  23.023   7.745
 3633AUC    AUC 3612  40.850  23.818   7.254
 3634AUC    AUC 3613  41.153  23.818   7.254
 3635AUC    AUC 3614  40.850  23.023   7.254
 3636AUC    AUC 3615  41.153  23.023   7.254
 3637AUSL   AUS 3616  41.410  23.421   8.080
 3638AUSL   AUS 3617  41.266  23.004   8.011
 3639AUL    AUL 3618  41.492  23.117   8.294
 3640THSLK    S 3619  41.384  22.816   8.156
 3641ETHY    C1 3620  41.480  22.448   8.412
 3642ETHY    C1 3621  41.658  22.065   8.753
 3643ETHY    C1 3622  41.900  21.765   9.130
 3644ETHY    C1 3623  42.196  21.546   9.534
 3645THSLK    S 3624  41.509  23.374   8.327
 3646ETHY    C1 3625  41.736  23.224   8.694
 3647ETHY    C1 3626  42.020  23.136   9.148
 3648ETHY    C1 3627  42.304  23.158   9.607
 3649ETHY    C1 3628  42.581  23.280  10.061
 3650AUSL   AUS 3629  41.165  23.269   8.173
 3651AUSL   AUS 3630  40.838  23.572   8.173
 3652AUL    AUL 3631  41.001  23.421   8.482
 3653THSLK    S 3632  41.246  23.218   8.418
 3654ETHY    C1 3633  41.336  23.000   8.810
 3655ETHY    C1 3634  41.464  22.826   9.308
 3656ETHY    C1 3635  41.610  22.761   9.823
 3657ETHY    C1 3636  41.767  22.795  10.346
 3658THSLK    S 3637  40.751  23.532   8.432
 3659ETHY    C1 3638  40.662  23.458   8.874
 3660ETHY    C1 3639  40.538  23.460   9.403
 3661ETHY    C1 3640  40.393  23.569   9.912
 3662ETHY    C1 3641  40.230  23.773  10.392
 3663AUSL   AUS 3642  41.165  23.572   8.173
 3664AUSL   AUS 3643  41.511  23.685   7.916
 3665AUL    AUL 3644  41.492  23.724   8.294
 3666THSLK    S 3645  41.252  23.624   8.416
 3667ETHY    C1 3646  41.340  23.841   8.809
 3668ETHY    C1 3647  41.465  24.014   9.308
 3669ETHY    C1 3648  41.610  24.080   9.823
 3670ETHY    C1 3649  41.773  24.047  10.345
 3671THSLK    S 3650  41.687  23.791   8.079
 3672ETHY    C1 3651  42.049  23.841   8.355
 3673ETHY    C1 3652  42.456  23.990   8.681
 3674ETHY    C1 3653  42.818  24.239   8.995
 3675ETHY    C1 3654  43.130  24.575   9.293
 3676AUSL   AUS 3655  41.410  23.421   6.920
 3677AUSL   AUS 3656  41.266  23.837   6.990
 3678AUL    AUL 3657  41.492  23.724   6.706
 3679THSLK    S 3658  41.514  23.374   6.676
 3680ETHY    C1 3659  41.741  23.224   6.308
 3681ETHY    C1 3660  42.020  23.136   5.851
 3682ETHY    C1 3661  42.304  23.158   5.393
 3683ETHY    C1 3662  42.586  23.280   4.941
 3684THSLK    S 3663  41.443  23.956   6.820
 3685ETHY    C1 3664  41.715  24.097   6.480
 3686ETHY    C1 3665  41.993  24.344   6.085
 3687ETHY    C1 3666  42.209  24.677   5.720
 3688ETHY    C1 3667  42.366  25.084   5.391
 3689AUSL   AUS 3668  41.165  23.269   6.826
 3690AUSL   AUS 3669  41.511  23.156   7.083
 3691AUL    AUL 3670  41.492  23.117   6.706
 3692THSLK    S 3671  41.651  22.965   6.939
 3693ETHY    C1 3672  41.884  22.648   6.707
 3694ETHY    C1 3673  42.214  22.341   6.403
 3695ETHY    C1 3674  42.594  22.132   6.083
 3696ETHY    C1 3675  43.015  22.015   5.754
 3697THSLK    S 3676  41.252  23.217   6.583
 3698ETHY    C1 3677  41.340  23.000   6.191
 3699ETHY    C1 3678  41.465  22.827   5.692
 3700ETHY    C1 3679  41.610  22.761   5.176
 3701ETHY    C1 3680  41.773  22.794   4.656
 3702AUSL   AUS 3681  41.165  23.572   6.826
 3703AUSL   AUS 3682  40.838  23.269   6.826
 3704AUL    AUL 3683  41.001  23.421   6.518
 3705THSLK    S 3684  40.742  23.217   6.586
 3706ETHY    C1 3685  40.603  23.002   6.206
 3707ETHY    C1 3686  40.446  22.831   5.717
 3708ETHY    C1 3687  40.307  22.765   5.199
 3709ETHY    C1 3688  40.191  22.796   4.666
 3710THSLK    S 3689  41.267  23.533   6.572
 3711ETHY    C1 3690  41.404  23.456   6.142
 3712ETHY    C1 3691  41.557  23.456   5.622
 3713ETHY    C1 3692  41.695  23.565   5.112
 3714ETHY    C1 3693  41.818  23.772   4.621
 3715AUSL   AUS 3694  40.592  23.421   8.080
 3716AUSL   AUS 3695  40.737  23.837   8.011
 3717AUL    AUL 3696  40.510  23.724   8.294
 3718THSLK    S 3697  40.488  23.374   8.325
 3719ETHY    C1 3698  40.262  23.224   8.691
 3720ETHY    C1 3699  39.982  23.136   9.148
 3721ETHY    C1 3700  39.699  23.158   9.607
 3722ETHY    C1 3701  39.416  23.280  10.058
 3723THSLK    S 3702  40.614  23.970   8.201
 3724ETHY    C1 3703  40.518  24.165   8.604
 3725ETHY    C1 3704  40.345  24.446   9.034
 3726ETHY    C1 3705  40.102  24.772   9.390
 3727ETHY    C1 3706  39.801  25.131   9.671
 3728AUSL   AUS 3707  40.838  23.269   8.173
 3729AUSL   AUS 3708  40.491  23.156   7.916
 3730AUL    AUL 3709  40.510  23.117   8.294
 3731THSLK    S 3710  40.312  22.990   8.032
 3732ETHY    C1 3711  39.951  22.743   8.166
 3733ETHY    C1 3712  39.546  22.477   8.410
 3734ETHY    C1 3713  39.185  22.257   8.745
 3735ETHY    C1 3714  38.869  22.084   9.156
 3736THSLK    S 3715  40.736  23.219   8.413
 3737ETHY    C1 3716  40.598  23.004   8.793
 3738ETHY    C1 3717  40.445  22.831   9.284
 3739ETHY    C1 3718  40.308  22.765   9.800
 3740ETHY    C1 3719  40.184  22.797  10.332
 3741AUSL   AUS 3720  40.592  23.421   6.920
 3742AUSL   AUS 3721  40.737  23.004   6.990
 3743AUL    AUL 3722  40.510  23.117   6.706
 3744THSLK    S 3723  40.493  23.374   6.673
 3745ETHY    C1 3724  40.266  23.224   6.305
 3746ETHY    C1 3725  39.983  23.136   5.851
 3747ETHY    C1 3726  39.699  23.158   5.393
 3748ETHY    C1 3727  39.422  23.280   4.938
 3749THSLK    S 3728  40.563  22.829   6.865
 3750ETHY    C1 3729  40.291  22.516   6.673
 3751ETHY    C1 3730  40.010  22.168   6.367
 3752ETHY    C1 3731  39.793  21.860   5.980
 3753ETHY    C1 3732  39.641  21.593   5.528
 3754AUSL   AUS 3733  40.838  23.572   6.826
 3755AUSL   AUS 3734  40.491  23.685   7.083
 3756AUL    AUL 3735  40.510  23.724   6.706
 3757THSLK    S 3736  40.355  23.816   6.893
 3758ETHY    C1 3737  40.121  23.937   6.518
 3759ETHY    C1 3738  39.789  24.125   6.132
 3760ETHY    C1 3739  39.409  24.364   5.833
 3761ETHY    C1 3740  38.992  24.644   5.618
 3762THSLK    S 3741  40.757  23.534   6.566
 3763ETHY    C1 3742  40.667  23.459   6.124
 3764ETHY    C1 3743  40.539  23.460   5.597
 3765ETHY    C1 3744  40.393  23.569   5.089
 3766ETHY    C1 3745  40.236  23.775   4.608
 3767AUSL   AUS 3746  41.581  23.830   7.500
 3768AUSL   AUS 3747  41.511  23.685   7.083
 3769AUL    AUL 3748  41.795  23.911   7.196
 3770THSLK    S 3749  41.691  23.792   6.925
 3771ETHY    C1 3750  42.052  23.842   6.648
 3772ETHY    C1 3751  42.456  23.990   6.319
 3773ETHY    C1 3752  42.818  24.239   6.005
 3774ETHY    C1 3753  43.134  24.576   5.713
 3775THSLK    S 3754  41.851  23.891   7.503
 3776ETHY    C1 3755  42.298  23.991   7.502
 3777ETHY    C1 3756  42.800  24.197   7.500
 3778ETHY    C1 3757  43.247  24.499   7.500
 3779ETHY    C1 3758  43.635  24.883   7.503
 3780AUSL   AUS 3759  41.675  23.584   7.348
 3781AUSL   AUS 3760  41.675  23.257   7.651
 3782AUL    AUL 3761  41.983  23.421   7.500
 3783THSLK    S 3762  41.937  23.631   7.345
 3784ETHY    C1 3763  42.387  23.600   7.270
 3785ETHY    C1 3764  42.919  23.655   7.179
 3786ETHY    C1 3765  43.426  23.818   7.091
 3787ETHY    C1 3766  43.901  24.076   7.011
 3788THSLK    S 3767  41.912  23.120   7.659
 3789ETHY    C1 3768  42.283  22.862   7.726
 3790ETHY    C1 3769  42.769  22.636   7.808
 3791ETHY    C1 3770  43.288  22.516   7.896
 3792ETHY    C1 3771  43.826  22.494   7.989
 3793AUSL   AUS 3772  41.675  23.584   7.651
 3794AUSL   AUS 3773  41.418  23.931   7.764
 3795AUL    AUL 3774  41.795  23.911   7.803
 3796THSLK    S 3775  41.603  24.055   7.924
 3797ETHY    C1 3776  41.960  24.247   8.136
 3798ETHY    C1 3777  42.337  24.554   8.377
 3799ETHY    C1 3778  42.638  24.941   8.602
 3800ETHY    C1 3779  42.865  25.392   8.809
 3801THSLK    S 3780  41.936  23.630   7.661
 3802ETHY    C1 3781  42.387  23.600   7.734
 3803ETHY    C1 3782  42.920  23.655   7.821
 3804ETHY    C1 3783  43.426  23.818   7.908
 3805ETHY    C1 3784  43.900  24.076   7.995
 3806AUSL   AUS 3785  40.421  23.830   7.500
 3807AUSL   AUS 3786  40.491  23.685   7.916
 3808AUL    AUL 3787  40.207  23.911   7.803
 3809THSLK    S 3788  40.351  23.811   8.107
 3810ETHY    C1 3789  40.118  23.932   8.482
 3811ETHY    C1 3790  39.789  24.125   8.868
 3812ETHY    C1 3791  39.409  24.364   9.166
 3813ETHY    C1 3792  38.988  24.639   9.381
 3814THSLK    S 3793  40.200  23.970   7.503
 3815ETHY    C1 3794  39.911  24.325   7.502
 3816ETHY    C1 3795  39.503  24.682   7.500
 3817ETHY    C1 3796  39.033  24.946   7.500
 3818ETHY    C1 3797  38.515  25.122   7.503
 3819AUSL   AUS 3798  40.328  23.584   7.348
 3820AUSL   AUS 3799  40.585  23.931   7.236
 3821AUL    AUL 3800  40.207  23.911   7.196
 3822THSLK    S 3801  40.091  23.698   7.303
 3823ETHY    C1 3802  39.719  23.872   7.101
 3824ETHY    C1 3803  39.233  24.048   6.936
 3825ETHY    C1 3804  38.715  24.180   6.868
 3826ETHY    C1 3805  38.177  24.272   6.890
 3827THSLK    S 3806  40.465  24.098   7.056
 3828ETHY    C1 3807  40.313  24.417   6.765
 3829ETHY    C1 3808  40.059  24.797   6.473
 3830ETHY    C1 3809  39.726  25.165   6.260
 3831ETHY    C1 3810  39.330  25.515   6.122
 3832AUSL   AUS 3811  40.328  23.584   7.651
 3833AUSL   AUS 3812  40.328  23.257   7.348
 3834AUL    AUL 3813  40.020  23.421   7.500
 3835THSLK    S 3814  40.066  23.182   7.384
 3836ETHY    C1 3815  39.616  23.131   7.446
 3837ETHY    C1 3816  39.083  23.028   7.434
 3838ETHY    C1 3817  38.576  22.878   7.327
 3839ETHY    C1 3818  38.103  22.685   7.135
 3840THSLK    S 3819  40.090  23.692   7.699
 3841ETHY    C1 3820  39.719  23.868   7.901
 3842ETHY    C1 3821  39.233  24.047   8.063
 3843ETHY    C1 3822  38.715  24.180   8.133
 3844ETHY    C1 3823  38.176  24.266   8.114
 3845AUSL   AUS 3824  41.581  23.011   7.500
 3846AUSL   AUS 3825  41.511  23.156   7.916
 3847AUL    AUL 3826  41.795  22.930   7.803
 3848THSLK    S 3827  41.802  22.871   7.503
 3849ETHY    C1 3828  42.091  22.516   7.502
 3850ETHY    C1 3829  42.500  22.159   7.500
 3851ETHY    C1 3830  42.970  21.895   7.500
 3852ETHY    C1 3831  43.487  21.719   7.503
 3853THSLK    S 3832  41.648  22.966   8.066
 3854ETHY    C1 3833  41.881  22.649   8.297
 3855ETHY    C1 3834  42.214  22.342   8.598
 3856ETHY    C1 3835  42.594  22.132   8.918
 3857ETHY    C1 3836  43.011  22.016   9.250
 3858AUSL   AUS 3837  41.675  23.257   7.348
 3859AUSL   AUS 3838  41.418  22.910   7.236
 3860AUL    AUL 3839  41.795  22.930   7.196
 3861THSLK    S 3840  41.913  23.120   7.346
 3862ETHY    C1 3841  42.284  22.862   7.279
 3863ETHY    C1 3842  42.769  22.636   7.192
 3864ETHY    C1 3843  43.288  22.516   7.103
 3865ETHY    C1 3844  43.827  22.494   7.018
 3866THSLK    S 3845  41.541  22.719   7.099
 3867ETHY    C1 3846  41.691  22.317   6.942
 3868ETHY    C1 3847  41.944  21.887   6.728
 3869ETHY    C1 3848  42.276  21.531   6.495
 3870ETHY    C1 3849  42.675  21.250   6.249
 3871AUSL   AUS 3850  40.421  23.011   7.500
 3872AUSL   AUS 3851  40.491  23.156   7.083
 3873AUL    AUL 3852  40.207  22.930   7.196
 3874THSLK    S 3853  40.316  22.985   6.966
 3875ETHY    C1 3854  39.954  22.739   6.833
 3876ETHY    C1 3855  39.546  22.476   6.589
 3877ETHY    C1 3856  39.185  22.257   6.255
 3878ETHY    C1 3857  38.873  22.079   5.843
 3879THSLK    S 3858  40.151  22.950   7.503
 3880ETHY    C1 3859  39.705  22.850   7.502
 3881ETHY    C1 3860  39.203  22.644   7.500
 3882ETHY    C1 3861  38.756  22.342   7.500
 3883ETHY    C1 3862  38.368  21.958   7.503
 3884AUSL   AUS 3863  40.328  23.257   7.651
 3885AUSL   AUS 3864  40.585  22.910   7.764
 3886AUL    AUL 3865  40.207  22.930   7.803
 3887THSLK    S 3866  40.397  22.762   7.881
 3888ETHY    C1 3867  40.041  22.486   7.958
 3889ETHY    C1 3868  39.666  22.129   8.122
 3890ETHY    C1 3869  39.365  21.755   8.367
 3891ETHY    C1 3870  39.134  21.373   8.682
 3892THSLK    S 3871  40.065  23.187   7.618
 3893ETHY    C1 3872  39.615  23.135   7.557
 3894ETHY    C1 3873  39.083  23.029   7.566
 3895ETHY    C1 3874  38.576  22.878   7.673
 3896ETHY    C1 3875  38.102  22.690   7.867
 3897AUSL   AUS 3876  41.001  24.001   7.909
 3898AUSL   AUS 3877  40.585  23.931   7.764
 3899AUL    AUL 3878  40.698  24.215   7.991
 3900THSLK    S 3879  40.462  24.093   7.948
 3901ETHY    C1 3880  40.311  24.413   8.237
 3902ETHY    C1 3881  40.058  24.796   8.527
 3903ETHY    C1 3882  39.726  25.164   8.740
 3904ETHY    C1 3883  39.327  25.510   8.881
 3905THSLK    S 3884  41.039  24.232   8.034
 3906ETHY    C1 3885  41.167  24.558   8.327
 3907ETHY    C1 3886  41.244  24.990   8.646
 3908ETHY    C1 3887  41.225  25.455   8.920
 3909ETHY    C1 3888  41.119  25.940   9.147
 3910AUSL   AUS 3889  40.850  24.094   7.663
 3911AUSL   AUS 3890  41.153  24.094   7.336
 3912AUL    AUL 3891  41.001  24.402   7.500
 3913THSLK    S 3892  40.887  24.346   7.772
 3914ETHY    C1 3893  40.960  24.770   7.929
 3915ETHY    C1 3894  40.957  25.286   8.095
 3916ETHY    C1 3895  40.849  25.797   8.229
 3917ETHY    C1 3896  40.645  26.293   8.336
 3918THSLK    S 3897  41.204  24.334   7.237
 3919ETHY    C1 3898  41.417  24.711   7.091
 3920ETHY    C1 3899  41.587  25.200   6.929
 3921ETHY    C1 3900  41.654  25.718   6.792
 3922ETHY    C1 3901  41.625  26.252   6.682
 3923AUSL   AUS 3902  41.153  24.094   7.663
 3924AUSL   AUS 3903  41.266  23.837   8.011
 3925AUL    AUL 3904  41.305  24.215   7.991
 3926THSLK    S 3905  41.439  23.954   8.184
 3927ETHY    C1 3906  41.712  24.095   8.522
 3928ETHY    C1 3907  41.993  24.344   8.915
 3929ETHY    C1 3908  42.209  24.677   9.279
 3930ETHY    C1 3909  42.361  25.082   9.614
 3931THSLK    S 3910  41.203  24.332   7.768
 3932ETHY    C1 3911  41.416  24.711   7.913
 3933ETHY    C1 3912  41.587  25.200   8.072
 3934ETHY    C1 3913  41.654  25.718   8.207
 3935ETHY    C1 3914  41.623  26.251   8.325
 3936AUSL   AUS 3915  41.001  22.840   7.909
 3937AUSL   AUS 3916  41.418  22.910   7.764
 3938AUL    AUL 3917  41.305  22.626   7.991
 3939THSLK    S 3918  40.960  22.583   7.992
 3940ETHY    C1 3919  40.833  22.174   8.152
 3941ETHY    C1 3920  40.759  21.693   8.391
 3942ETHY    C1 3921  40.778  21.241   8.684
 3943ETHY    C1 3922  40.880  20.823   9.021
 3944THSLK    S 3923  41.538  22.720   7.907
 3945ETHY    C1 3924  41.689  22.318   8.062
 3946ETHY    C1 3925  41.944  21.887   8.272
 3947ETHY    C1 3926  42.276  21.531   8.505
 3948ETHY    C1 3927  42.672  21.252   8.758
 3949AUSL   AUS 3928  40.850  22.747   7.663
 3950AUSL   AUS 3929  40.737  23.004   8.011
 3951AUL    AUL 3930  40.698  22.626   7.991
 3952THSLK    S 3931  40.799  22.502   7.744
 3953ETHY    C1 3932  40.586  22.103   7.812
 3954ETHY    C1 3933  40.415  21.600   7.925
 3955ETHY    C1 3934  40.349  21.086   8.072
 3956ETHY    C1 3935  40.378  20.571   8.252
 3957THSLK    S 3936  40.559  22.834   8.136
 3958ETHY    C1 3937  40.287  22.519   8.327
 3959ETHY    C1 3938  40.009  22.168   8.633
 3960ETHY    C1 3939  39.793  21.860   9.019
 3961ETHY    C1 3940  39.637  21.598   9.473
 3962AUSL   AUS 3941  41.153  22.747   7.663
 3963AUSL   AUS 3942  40.850  22.747   7.336
 3964AUL    AUL 3943  41.001  22.439   7.500
 3965THSLK    S 3944  40.800  22.500   7.261
 3966ETHY    C1 3945  40.587  22.102   7.192
 3967ETHY    C1 3946  40.415  21.600   7.076
 3968ETHY    C1 3947  40.349  21.086   6.927
 3969ETHY    C1 3948  40.380  20.569   6.754
 3970THSLK    S 3949  41.114  22.488   7.748
 3971ETHY    C1 3950  41.042  22.043   7.829
 3972ETHY    C1 3951  41.045  21.514   7.948
 3973ETHY    C1 3952  41.154  21.006   8.095
 3974ETHY    C1 3953  41.356  20.528   8.264
 3975AUSL   AUS 3954  41.001  24.001   7.091
 3976AUSL   AUS 3955  41.418  23.931   7.236
 3977AUL    AUL 3956  41.305  24.215   7.009
 3978THSLK    S 3957  41.043  24.235   6.971
 3979ETHY    C1 3958  41.170  24.560   6.676
 3980ETHY    C1 3959  41.244  24.990   6.353
 3981ETHY    C1 3960  41.225  25.455   6.080
 3982ETHY    C1 3961  41.122  25.943   5.857
 3983THSLK    S 3962  41.605  24.056   7.081
 3984ETHY    C1 3963  41.962  24.248   6.869
 3985ETHY    C1 3964  42.337  24.554   6.623
 3986ETHY    C1 3965  42.638  24.941   6.398
 3987ETHY    C1 3966  42.868  25.393   6.197
 3988AUSL   AUS 3967  40.850  24.094   7.336
 3989AUSL   AUS 3968  40.737  23.837   6.990
 3990AUL    AUL 3969  40.698  24.215   7.009
 3991THSLK    S 3970  40.889  24.348   7.233
 3992ETHY    C1 3971  40.961  24.771   7.074
 3993ETHY    C1 3972  40.958  25.287   6.906
 3994ETHY    C1 3973  40.849  25.797   6.770
 3995ETHY    C1 3974  40.647  26.295   6.670
 3996THSLK    S 3975  40.618  23.974   6.800
 3997ETHY    C1 3976  40.522  24.168   6.396
 3998ETHY    C1 3977  40.345  24.446   5.966
 3999ETHY    C1 3978  40.102  24.771   5.611
 4000ETHY    C1 3979  39.806  25.136   5.330
 4001AUSL   AUS 3980  41.001  22.840   7.091
 4002AUSL   AUS 3981  40.585  22.910   7.236
 4003AUL    AUL 3982  40.698  22.626   7.009
 4004THSLK    S 3983  40.400  22.757   7.122
 4005ETHY    C1 3984  40.043  22.483   7.044
 4006ETHY    C1 3985  39.666  22.129   6.878
 4007ETHY    C1 3986  39.364  21.755   6.633
 4008ETHY    C1 3987  39.137  21.368   6.321
 4009THSLK    S 3988  40.963  22.580   7.013
 4010ETHY    C1 3989  40.835  22.172   6.852
 4011ETHY    C1 3990  40.759  21.693   6.609
 4012ETHY    C1 3991  40.778  21.241   6.315
 4013ETHY    C1 3992  40.884  20.820   5.983
 4014AUSL   AUS 3993  41.153  22.747   7.336
 4015AUSL   AUS 3994  41.266  23.004   6.990
 4016AUL    AUL 3995  41.305  22.626   7.009
 4017THSLK    S 3996  41.116  22.487   7.258
 4018ETHY    C1 3997  41.043  22.042   7.175
 4019ETHY    C1 3998  41.045  21.514   7.052
 4020ETHY    C1 3999  41.153  21.006   6.905
 4021ETHY    C1 4000  41.358  20.527   6.742
 4022THSLK    S 4001  41.389  22.814   6.847
 4023ETHY    C1 4002  41.484  22.446   6.592
 4024ETHY    C1 4003  41.658  22.065   6.247
 4025ETHY    C1 4004  41.900  21.765   5.870
 4026ETHY    C1 4005  42.201  21.544   5.471
 4027AUC    AUC 4006  14.505   5.013   7.500
 4028AUC    AUC 4007  14.751   5.013   7.348
 4029AUC    AUC 4008  14.751   5.013   7.651
 4030AUC    AUC 4009  14.260   5.013   7.348
 4031AUC    AUC 4010  14.260   5.013   7.651
 4032AUC    AUC 4011  14.354   5.258   7.500
 4033AUC    AUC 4012  14.657   5.258   7.500
 4034AUC    AUC 4013  14.354   4.767   7.500
 4035AUC    AUC 4014  14.657   4.767   7.500
 4036AUC    AUC 4015  14.505   4.861   7.745
 4037AUC    AUC 4016  14.505   5.164   7.745
 4038AUC    AUC 4017  14.505   4.861   7.254
 4039AUC    AUC 4018  14.505   5.164   7.254
 4040AUC    AUC 4019  14.996   5.013   7.196
 4041AUC    AUC 4020  14.996   5.013   7.500
 4042AUC    AUC 4021  14.996   5.013   7.803
 4043AUC    AUC 4022  14.014   5.013   7.196
 4044AUC    AUC 4023  14.014   5.013   7.500
 4045AUC    AUC 4024  14.014   5.013   7.803
 4046AUC    AUC 4025  14.202   5.503   7.500
 4047AUC    AUC 4026  14.505   5.503   7.500
 4048AUC    AUC 4027  14.809   5.503   7.500
 4049AUC    AUC 4028  14.202   4.522   7.500
 4050AUC    AUC 4029  14.505   4.522   7.500
 4051AUC    AUC 4030  14.809   4.522   7.500
 4052AUC    AUC 4031  14.505   4.709   7.991
 4053AUC    AUC 4032  14.505   5.013   7.991
 4054AUC    AUC 4033  14.505   5.316   7.991
 4055AUC    AUC 4034  14.505   4.709   7.009
 4056AUC    AUC 4035  14.505   5.013   7.009
 4057AUC    AUC 4036  14.505   5.316   7.009
 4058AUC    AUC 4037  14.751   4.861   7.897
 4059AUC    AUC 4038  14.751   5.164   7.897
 4060AUC    AUC 4039  14.751   4.861   7.103
 4061AUC    AUC 4040  14.751   5.164   7.103
 4062AUC    AUC 4041  14.260   4.861   7.897
 4063AUC    AUC 4042  14.260   5.164   7.897
 4064AUC    AUC 4043  14.260   4.861   7.103
 4065AUC    AUC 4044  14.260   5.164   7.103
 4066AUC    AUC 4045  14.902   5.258   7.348
 4067AUC    AUC 4046  14.902   5.258   7.651
 4068AUC    AUC 4047  14.108   5.258   7.348
 4069AUC    AUC 4048  14.108   5.258   7.651
 4070AUC    AUC 4049  14.902   4.767   7.348
 4071AUC    AUC 4050  14.902   4.767   7.651
 4072AUC    AUC 4051  14.108   4.767   7.348
 4073AUC    AUC 4052  14.108   4.767   7.651
 4074AUC    AUC 4053  14.354   5.410   7.745
 4075AUC    AUC 4054  14.657   5.410   7.745
 4076AUC    AUC 4055  14.354   4.615   7.745
 4077AUC    AUC 4056  14.657   4.615   7.745
 4078AUC    AUC 4057  14.354   5.410   7.254
 4079AUC    AUC 4058  14.657   5.410   7.254
 4080AUC    AUC 4059  14.354   4.615   7.254
 4081AUC    AUC 4060  14.657   4.615   7.254
 4082AUSL   AUS 4061  14.914   5.013   8.080
 4083AUSL   AUS 4062  14.770   4.596   8.011
 4084AUL    AUL 4063  14.996   4.709   8.294
 4085THSLK    S 4064  14.888   4.408   8.156
 4086ETHY    C1 4065  14.984   4.040   8.412
 4087ETHY    C1 4066  15.162   3.657   8.753
 4088ETHY    C1 4067  15.404   3.357   9.130
 4089ETHY    C1 4068  15.700   3.138   9.534
 4090THSLK    S 4069  15.013   4.966   8.327
 4091ETHY    C1 4070  15.240   4.816   8.694
 4092ETHY    C1 4071  15.524   4.728   9.148
 4093ETHY    C1 4072  15.808   4.750   9.607
 4094ETHY    C1 4073  16.085   4.872  10.061
 4095AUSL   AUS 4074  14.669   4.861   8.173
 4096AUSL   AUS 4075  14.342   5.164   8.173
 4097AUL    AUL 4076  14.505   5.013   8.482
 4098THSLK    S 4077  14.750   4.810   8.418
 4099ETHY    C1 4078  14.840   4.592   8.810
 4100ETHY    C1 4079  14.968   4.418   9.308
 4101ETHY    C1 4080  15.114   4.353   9.823
 4102ETHY    C1 4081  15.271   4.387  10.346
 4103THSLK    S 4082  14.255   5.124   8.432
 4104ETHY    C1 4083  14.166   5.050   8.874
 4105ETHY    C1 4084  14.042   5.052   9.403
 4106ETHY    C1 4085  13.897   5.161   9.912
 4107ETHY    C1 4086  13.734   5.365  10.392
 4108AUSL   AUS 4087  14.669   5.164   8.173
 4109AUSL   AUS 4088  15.015   5.277   7.916
 4110AUL    AUL 4089  14.996   5.316   8.294
 4111THSLK    S 4090  14.756   5.216   8.416
 4112ETHY    C1 4091  14.844   5.433   8.809
 4113ETHY    C1 4092  14.969   5.606   9.308
 4114ETHY    C1 4093  15.114   5.672   9.823
 4115ETHY    C1 4094  15.277   5.639  10.345
 4116THSLK    S 4095  15.191   5.383   8.079
 4117ETHY    C1 4096  15.553   5.433   8.355
 4118ETHY    C1 4097  15.960   5.582   8.681
 4119ETHY    C1 4098  16.322   5.831   8.995
 4120ETHY    C1 4099  16.634   6.167   9.293
 4121AUSL   AUS 4100  14.914   5.013   6.920
 4122AUSL   AUS 4101  14.770   5.429   6.990
 4123AUL    AUL 4102  14.996   5.316   6.706
 4124THSLK    S 4103  15.018   4.966   6.676
 4125ETHY    C1 4104  15.245   4.816   6.308
 4126ETHY    C1 4105  15.524   4.728   5.851
 4127ETHY    C1 4106  15.808   4.750   5.393
 4128ETHY    C1 4107  16.090   4.872   4.941
 4129THSLK    S 4108  14.947   5.548   6.820
 4130ETHY    C1 4109  15.219   5.689   6.480
 4131ETHY    C1 4110  15.497   5.936   6.085
 4132ETHY    C1 4111  15.713   6.269   5.720
 4133ETHY    C1 4112  15.870   6.676   5.391
 4134AUSL   AUS 4113  14.669   4.861   6.826
 4135AUSL   AUS 4114  15.015   4.748   7.083
 4136AUL    AUL 4115  14.996   4.709   6.706
 4137THSLK    S 4116  15.155   4.557   6.939
 4138ETHY    C1 4117  15.388   4.240   6.707
 4139ETHY    C1 4118  15.718   3.933   6.403
 4140ETHY    C1 4119  16.098   3.724   6.083
 4141ETHY    C1 4120  16.519   3.607   5.754
 4142THSLK    S 4121  14.756   4.809   6.583
 4143ETHY    C1 4122  14.844   4.592   6.191
 4144ETHY    C1 4123  14.969   4.419   5.692
 4145ETHY    C1 4124  15.114   4.353   5.176
 4146ETHY    C1 4125  15.277   4.386   4.656
 4147AUSL   AUS 4126  14.669   5.164   6.826
 4148AUSL   AUS 4127  14.342   4.861   6.826
 4149AUL    AUL 4128  14.505   5.013   6.518
 4150THSLK    S 4129  14.246   4.809   6.586
 4151ETHY    C1 4130  14.107   4.594   6.206
 4152ETHY    C1 4131  13.950   4.423   5.717
 4153ETHY    C1 4132  13.811   4.357   5.199
 4154ETHY    C1 4133  13.695   4.388   4.666
 4155THSLK    S 4134  14.771   5.125   6.572
 4156ETHY    C1 4135  14.908   5.048   6.142
 4157ETHY    C1 4136  15.061   5.048   5.622
 4158ETHY    C1 4137  15.199   5.157   5.112
 4159ETHY    C1 4138  15.322   5.364   4.621
 4160AUSL   AUS 4139  14.096   5.013   8.080
 4161AUSL   AUS 4140  14.241   5.429   8.011
 4162AUL    AUL 4141  14.014   5.316   8.294
 4163THSLK    S 4142  13.992   4.966   8.325
 4164ETHY    C1 4143  13.766   4.816   8.691
 4165ETHY    C1 4144  13.486   4.728   9.148
 4166ETHY    C1 4145  13.203   4.750   9.607
 4167ETHY    C1 4146  12.920   4.872  10.058
 4168THSLK    S 4147  14.118   5.562   8.201
 4169ETHY    C1 4148  14.022   5.757   8.604
 4170ETHY    C1 4149  13.849   6.038   9.034
 4171ETHY    C1 4150  13.606   6.364   9.390
 4172ETHY    C1 4151  13.305   6.723   9.671
 4173AUSL   AUS 4152  14.342   4.861   8.173
 4174AUSL   AUS 4153  13.995   4.748   7.916
 4175AUL    AUL 4154  14.014   4.709   8.294
 4176THSLK    S 4155  13.816   4.582   8.032
 4177ETHY    C1 4156  13.455   4.335   8.166
 4178ETHY    C1 4157  13.050   4.069   8.410
 4179ETHY    C1 4158  12.689   3.849   8.745
 4180ETHY    C1 4159  12.373   3.676   9.156
 4181THSLK    S 4160  14.240   4.811   8.413
 4182ETHY    C1 4161  14.102   4.596   8.793
 4183ETHY    C1 4162  13.949   4.423   9.284
 4184ETHY    C1 4163  13.812   4.357   9.800
 4185ETHY    C1 4164  13.688   4.389  10.332
 4186AUSL   AUS 4165  14.096   5.013   6.920
 4187AUSL   AUS 4166  14.241   4.596   6.990
 4188AUL    AUL 4167  14.014   4.709   6.706
 4189THSLK    S 4168  13.997   4.966   6.673
 4190ETHY    C1 4169  13.770   4.816   6.305
 4191ETHY    C1 4170  13.487   4.728   5.851
 4192ETHY    C1 4171  13.203   4.750   5.393
 4193ETHY    C1 4172  12.926   4.872   4.938
 4194THSLK    S 4173  14.067   4.421   6.865
 4195ETHY    C1 4174  13.795   4.108   6.673
 4196ETHY    C1 4175  13.514   3.760   6.367
 4197ETHY    C1 4176  13.297   3.452   5.980
 4198ETHY    C1 4177  13.145   3.185   5.528
 4199AUSL   AUS 4178  14.342   5.164   6.826
 4200AUSL   AUS 4179  13.995   5.277   7.083
 4201AUL    AUL 4180  14.014   5.316   6.706
 4202THSLK    S 4181  13.859   5.408   6.893
 4203ETHY    C1 4182  13.625   5.529   6.518
 4204ETHY    C1 4183  13.293   5.717   6.132
 4205ETHY    C1 4184  12.913   5.956   5.833
 4206ETHY    C1 4185  12.496   6.236   5.618
 4207THSLK    S 4186  14.261   5.126   6.566
 4208ETHY    C1 4187  14.171   5.051   6.124
 4209ETHY    C1 4188  14.043   5.052   5.597
 4210ETHY    C1 4189  13.897   5.161   5.089
 4211ETHY    C1 4190  13.740   5.367   4.608
 4212AUSL   AUS 4191  15.085   5.422   7.500
 4213AUSL   AUS 4192  15.015   5.277   7.083
 4214AUL    AUL 4193  15.299   5.503   7.196
 4215THSLK    S 4194  15.195   5.384   6.925
 4216ETHY    C1 4195  15.556   5.434   6.648
 4217ETHY    C1 4196  15.960   5.582   6.319
 4218ETHY    C1 4197  16.322   5.831   6.005
 4219ETHY    C1 4198  16.638   6.168   5.713
 4220THSLK    S 4199  15.355   5.483   7.503
 4221ETHY    C1 4200  15.802   5.583   7.502
 4222ETHY    C1 4201  16.304   5.789   7.500
 4223ETHY    C1 4202  16.751   6.091   7.500
 4224ETHY    C1 4203  17.139   6.475   7.503
 4225AUSL   AUS 4204  15.179   5.176   7.348
 4226AUSL   AUS 4205  15.179   4.849   7.651
 4227AUL    AUL 4206  15.487   5.013   7.500
 4228THSLK    S 4207  15.441   5.223   7.345
 4229ETHY    C1 4208  15.891   5.192   7.270
 4230ETHY    C1 4209  16.423   5.247   7.179
 4231ETHY    C1 4210  16.930   5.410   7.091
 4232ETHY    C1 4211  17.405   5.668   7.011
 4233THSLK    S 4212  15.416   4.712   7.659
 4234ETHY    C1 4213  15.787   4.454   7.726
 4235ETHY    C1 4214  16.273   4.228   7.808
 4236ETHY    C1 4215  16.792   4.108   7.896
 4237ETHY    C1 4216  17.330   4.086   7.989
 4238AUSL   AUS 4217  15.179   5.176   7.651
 4239AUSL   AUS 4218  14.922   5.523   7.764
 4240AUL    AUL 4219  15.299   5.503   7.803
 4241THSLK    S 4220  15.107   5.647   7.924
 4242ETHY    C1 4221  15.464   5.839   8.136
 4243ETHY    C1 4222  15.841   6.146   8.377
 4244ETHY    C1 4223  16.142   6.533   8.602
 4245ETHY    C1 4224  16.369   6.984   8.809
 4246THSLK    S 4225  15.440   5.222   7.661
 4247ETHY    C1 4226  15.891   5.192   7.734
 4248ETHY    C1 4227  16.424   5.247   7.821
 4249ETHY    C1 4228  16.930   5.410   7.908
 4250ETHY    C1 4229  17.404   5.668   7.995
 4251AUSL   AUS 4230  13.925   5.422   7.500
 4252AUSL   AUS 4231  13.995   5.277   7.916
 4253AUL    AUL 4232  13.711   5.503   7.803
 4254THSLK    S 4233  13.855   5.403   8.107
 4255ETHY    C1 4234  13.622   5.524   8.482
 4256ETHY    C1 4235  13.293   5.717   8.868
 4257ETHY    C1 4236  12.913   5.956   9.166
 4258ETHY    C1 4237  12.492   6.231   9.381
 4259THSLK    S 4238  13.704   5.562   7.503
 4260ETHY    C1 4239  13.415   5.917   7.502
 4261ETHY    C1 4240  13.007   6.274   7.500
 4262ETHY    C1 4241  12.537   6.538   7.500
 4263ETHY    C1 4242  12.019   6.714   7.503
 4264AUSL   AUS 4243  13.832   5.176   7.348
 4265AUSL   AUS 4244  14.089   5.523   7.236
 4266AUL    AUL 4245  13.711   5.503   7.196
 4267THSLK    S 4246  13.595   5.290   7.303
 4268ETHY    C1 4247  13.223   5.464   7.101
 4269ETHY    C1 4248  12.737   5.640   6.936
 4270ETHY    C1 4249  12.219   5.772   6.868
 4271ETHY    C1 4250  11.681   5.864   6.890
 4272THSLK    S 4251  13.969   5.690   7.056
 4273ETHY    C1 4252  13.817   6.009   6.765
 4274ETHY    C1 4253  13.563   6.389   6.473
 4275ETHY    C1 4254  13.230   6.757   6.260
 4276ETHY    C1 4255  12.834   7.107   6.122
 4277AUSL   AUS 4256  13.832   5.176   7.651
 4278AUSL   AUS 4257  13.832   4.849   7.348
 4279AUL    AUL 4258  13.524   5.013   7.500
 4280THSLK    S 4259  13.570   4.774   7.384
 4281ETHY    C1 4260  13.120   4.723   7.446
 4282ETHY    C1 4261  12.587   4.620   7.434
 4283ETHY    C1 4262  12.080   4.470   7.327
 4284ETHY    C1 4263  11.607   4.277   7.135
 4285THSLK    S 4264  13.594   5.284   7.699
 4286ETHY    C1 4265  13.223   5.460   7.901
 4287ETHY    C1 4266  12.737   5.639   8.063
 4288ETHY    C1 4267  12.219   5.772   8.133
 4289ETHY    C1 4268  11.680   5.858   8.114
 4290AUSL   AUS 4269  15.085   4.603   7.500
 4291AUSL   AUS 4270  15.015   4.748   7.916
 4292AUL    AUL 4271  15.299   4.522   7.803
 4293THSLK    S 4272  15.306   4.463   7.503
 4294ETHY    C1 4273  15.595   4.108   7.502
 4295ETHY    C1 4274  16.004   3.751   7.500
 4296ETHY    C1 4275  16.474   3.487   7.500
 4297ETHY    C1 4276  16.991   3.311   7.503
 4298THSLK    S 4277  15.152   4.558   8.066
 4299ETHY    C1 4278  15.385   4.241   8.297
 4300ETHY    C1 4279  15.718   3.934   8.598
 4301ETHY    C1 4280  16.098   3.724   8.918
 4302ETHY    C1 4281  16.515   3.608   9.250
 4303AUSL   AUS 4282  15.179   4.849   7.348
 4304AUSL   AUS 4283  14.922   4.502   7.236
 4305AUL    AUL 4284  15.299   4.522   7.196
 4306THSLK    S 4285  15.417   4.712   7.346
 4307ETHY    C1 4286  15.788   4.454   7.279
 4308ETHY    C1 4287  16.273   4.228   7.192
 4309ETHY    C1 4288  16.792   4.108   7.103
 4310ETHY    C1 4289  17.331   4.086   7.018
 4311THSLK    S 4290  15.045   4.311   7.099
 4312ETHY    C1 4291  15.195   3.909   6.942
 4313ETHY    C1 4292  15.448   3.479   6.728
 4314ETHY    C1 4293  15.780   3.123   6.495
 4315ETHY    C1 4294  16.179   2.842   6.249
 4316AUSL   AUS 4295  13.925   4.603   7.500
 4317AUSL   AUS 4296  13.995   4.748   7.083
 4318AUL    AUL 4297  13.711   4.522   7.196
 4319THSLK    S 4298  13.820   4.577   6.966
 4320ETHY    C1 4299  13.458   4.331   6.833
 4321ETHY    C1 4300  13.050   4.068   6.589
 4322ETHY    C1 4301  12.689   3.849   6.255
 4323ETHY    C1 4302  12.377   3.671   5.843
 4324THSLK    S 4303  13.655   4.542   7.503
 4325ETHY    C1 4304  13.209   4.442   7.502
 4326ETHY    C1 4305  12.707   4.236   7.500
 4327ETHY    C1 4306  12.260   3.934   7.500
 4328ETHY    C1 4307  11.872   3.550   7.503
 4329AUSL   AUS 4308  13.832   4.849   7.651
 4330AUSL   AUS 4309  14.089   4.502   7.764
 4331AUL    AUL 4310  13.711   4.522   7.803
 4332THSLK    S 4311  13.901   4.354   7.881
 4333ETHY    C1 4312  13.545   4.078   7.958
 4334ETHY    C1 4313  13.170   3.721   8.122
 4335ETHY    C1 4314  12.869   3.347   8.367
 4336ETHY    C1 4315  12.638   2.965   8.682
 4337THSLK    S 4316  13.569   4.779   7.618
 4338ETHY    C1 4317  13.119   4.727   7.557
 4339ETHY    C1 4318  12.587   4.621   7.566
 4340ETHY    C1 4319  12.080   4.470   7.673
 4341ETHY    C1 4320  11.606   4.282   7.867
 4342AUSL   AUS 4321  14.505   5.593   7.909
 4343AUSL   AUS 4322  14.089   5.523   7.764
 4344AUL    AUL 4323  14.202   5.807   7.991
 4345THSLK    S 4324  13.966   5.685   7.948
 4346ETHY    C1 4325  13.815   6.005   8.237
 4347ETHY    C1 4326  13.562   6.388   8.527
 4348ETHY    C1 4327  13.230   6.756   8.740
 4349ETHY    C1 4328  12.831   7.102   8.881
 4350THSLK    S 4329  14.543   5.824   8.034
 4351ETHY    C1 4330  14.671   6.150   8.327
 4352ETHY    C1 4331  14.748   6.582   8.646
 4353ETHY    C1 4332  14.729   7.047   8.920
 4354ETHY    C1 4333  14.623   7.532   9.147
 4355AUSL   AUS 4334  14.354   5.686   7.663
 4356AUSL   AUS 4335  14.657   5.686   7.336
 4357AUL    AUL 4336  14.505   5.994   7.500
 4358THSLK    S 4337  14.391   5.938   7.772
 4359ETHY    C1 4338  14.464   6.362   7.929
 4360ETHY    C1 4339  14.461   6.878   8.095
 4361ETHY    C1 4340  14.353   7.389   8.229
 4362ETHY    C1 4341  14.149   7.885   8.336
 4363THSLK    S 4342  14.708   5.926   7.237
 4364ETHY    C1 4343  14.921   6.303   7.091
 4365ETHY    C1 4344  15.091   6.792   6.929
 4366ETHY    C1 4345  15.158   7.310   6.792
 4367ETHY    C1 4346  15.129   7.844   6.682
 4368AUSL   AUS 4347  14.657   5.686   7.663
 4369AUSL   AUS 4348  14.770   5.429   8.011
 4370AUL    AUL 4349  14.809   5.807   7.991
 4371THSLK    S 4350  14.943   5.546   8.184
 4372ETHY    C1 4351  15.216   5.687   8.522
 4373ETHY    C1 4352  15.497   5.936   8.915
 4374ETHY    C1 4353  15.713   6.269   9.279
 4375ETHY    C1 4354  15.865   6.674   9.614
 4376THSLK    S 4355  14.707   5.924   7.768
 4377ETHY    C1 4356  14.920   6.303   7.913
 4378ETHY    C1 4357  15.091   6.792   8.072
 4379ETHY    C1 4358  15.158   7.310   8.207
 4380ETHY    C1 4359  15.127   7.843   8.325
 4381AUSL   AUS 4360  14.505   4.432   7.909
 4382AUSL   AUS 4361  14.922   4.502   7.764
 4383AUL    AUL 4362  14.809   4.218   7.991
 4384THSLK    S 4363  14.464   4.175   7.992
 4385ETHY    C1 4364  14.337   3.766   8.152
 4386ETHY    C1 4365  14.263   3.285   8.391
 4387ETHY    C1 4366  14.282   2.833   8.684
 4388ETHY    C1 4367  14.384   2.415   9.021
 4389THSLK    S 4368  15.042   4.312   7.907
 4390ETHY    C1 4369  15.193   3.910   8.062
 4391ETHY    C1 4370  15.448   3.479   8.272
 4392ETHY    C1 4371  15.780   3.123   8.505
 4393ETHY    C1 4372  16.176   2.844   8.758
 4394AUSL   AUS 4373  14.354   4.339   7.663
 4395AUSL   AUS 4374  14.241   4.596   8.011
 4396AUL    AUL 4375  14.202   4.218   7.991
 4397THSLK    S 4376  14.303   4.094   7.744
 4398ETHY    C1 4377  14.090   3.695   7.812
 4399ETHY    C1 4378  13.919   3.192   7.925
 4400ETHY    C1 4379  13.853   2.678   8.072
 4401ETHY    C1 4380  13.882   2.163   8.252
 4402THSLK    S 4381  14.063   4.426   8.136
 4403ETHY    C1 4382  13.791   4.111   8.327
 4404ETHY    C1 4383  13.513   3.760   8.633
 4405ETHY    C1 4384  13.297   3.452   9.019
 4406ETHY    C1 4385  13.141   3.190   9.473
 4407AUSL   AUS 4386  14.657   4.339   7.663
 4408AUSL   AUS 4387  14.354   4.339   7.336
 4409AUL    AUL 4388  14.505   4.031   7.500
 4410THSLK    S 4389  14.304   4.092   7.261
 4411ETHY    C1 4390  14.091   3.694   7.192
 4412ETHY    C1 4391  13.919   3.192   7.076
 4413ETHY    C1 4392  13.853   2.678   6.927
 4414ETHY    C1 4393  13.884   2.161   6.754
 4415THSLK    S 4394  14.618   4.080   7.748
 4416ETHY    C1 4395  14.546   3.635   7.829
 4417ETHY    C1 4396  14.549   3.106   7.948
 4418ETHY    C1 4397  14.658   2.598   8.095
 4419ETHY    C1 4398  14.860   2.120   8.264
 4420AUSL   AUS 4399  14.505   5.593   7.091
 4421AUSL   AUS 4400  14.922   5.523   7.236
 4422AUL    AUL 4401  14.809   5.807   7.009
 4423THSLK    S 4402  14.547   5.827   6.971
 4424ETHY    C1 4403  14.674   6.152   6.676
 4425ETHY    C1 4404  14.748   6.582   6.353
 4426ETHY    C1 4405  14.729   7.047   6.080
 4427ETHY    C1 4406  14.626   7.535   5.857
 4428THSLK    S 4407  15.109   5.648   7.081
 4429ETHY    C1 4408  15.466   5.840   6.869
 4430ETHY    C1 4409  15.841   6.146   6.623
 4431ETHY    C1 4410  16.142   6.533   6.398
 4432ETHY    C1 4411  16.372   6.985   6.197
 4433AUSL   AUS 4412  14.354   5.686   7.336
 4434AUSL   AUS 4413  14.241   5.429   6.990
 4435AUL    AUL 4414  14.202   5.807   7.009
 4436THSLK    S 4415  14.393   5.940   7.233
 4437ETHY    C1 4416  14.465   6.363   7.074
 4438ETHY    C1 4417  14.462   6.879   6.906
 4439ETHY    C1 4418  14.353   7.389   6.770
 4440ETHY    C1 4419  14.151   7.887   6.670
 4441THSLK    S 4420  14.122   5.566   6.800
 4442ETHY    C1 4421  14.026   5.760   6.396
 4443ETHY    C1 4422  13.849   6.038   5.966
 4444ETHY    C1 4423  13.606   6.363   5.611
 4445ETHY    C1 4424  13.310   6.728   5.330
 4446AUSL   AUS 4425  14.505   4.432   7.091
 4447AUSL   AUS 4426  14.089   4.502   7.236
 4448AUL    AUL 4427  14.202   4.218   7.009
 4449THSLK    S 4428  13.904   4.349   7.122
 4450ETHY    C1 4429  13.547   4.075   7.044
 4451ETHY    C1 4430  13.170   3.721   6.878
 4452ETHY    C1 4431  12.868   3.347   6.633
 4453ETHY    C1 4432  12.641   2.960   6.321
 4454THSLK    S 4433  14.467   4.172   7.013
 4455ETHY    C1 4434  14.339   3.764   6.852
 4456ETHY    C1 4435  14.263   3.285   6.609
 4457ETHY    C1 4436  14.282   2.833   6.315
 4458ETHY    C1 4437  14.388   2.412   5.983
 4459AUSL   AUS 4438  14.657   4.339   7.336
 4460AUSL   AUS 4439  14.770   4.596   6.990
 4461AUL    AUL 4440  14.809   4.218   7.009
 4462THSLK    S 4441  14.620   4.079   7.258
 4463ETHY    C1 4442  14.547   3.634   7.175
 4464ETHY    C1 4443  14.549   3.106   7.052
 4465ETHY    C1 4444  14.657   2.598   6.905
 4466ETHY    C1 4445  14.862   2.119   6.742
 4467THSLK    S 4446  14.893   4.406   6.847
 4468ETHY    C1 4447  14.988   4.038   6.592
 4469ETHY    C1 4448  15.162   3.657   6.247
 4470ETHY    C1 4449  15.404   3.357   5.870
 4471ETHY    C1 4450  15.705   3.136   5.471
 4472POPC   NC3 4451  17.531  29.948   9.450
 4472POPC   PO4 4452  17.516  29.914   9.150
 4472POPC   GL1 4453  17.474  29.934   8.850
 4472POPC   GL2 4454  17.617  29.992   8.850
 4472POPC   C1A 4455  17.474  29.872   8.550
 4472POPC   D2A 4456  17.478  29.932   8.250
 4472POPC   C3A 4457  17.497  29.970   7.950
 4472POPC   C4A 4458  17.513  29.930   7.650
 4472POPC   C1B 4459  17.720  30.018   8.550
 4472POPC   C2B 4460  17.769  29.996   8.250
 4472POPC   C3B 4461  17.772  30.041   7.950
 4472POPC   C4B 4462  17.706  30.009   7.650
 4473POPC   NC3 4463  10.555  31.464   9.450
 4473POPC   PO4 4464  10.505  31.510   9.150
 4473POPC   GL1 4465  10.487  31.426   8.850
 4473POPC   GL2 4466  10.681  31.507   8.850
 4473POPC   C1A 4467  10.554  31.487   8.550
 4473POPC   D2A 4468  10.490  31.486   8.250
 4473POPC   C3A 4469  10.492  31.503   7.950
 4473POPC   C4A 4470  10.513  31.504   7.650
 4473POPC   C1B 4471  10.732  31.633   8.550
 4473POPC   C2B 4472  10.763  31.613   8.250
 4473POPC   C3B 4473  10.727  31.606   7.950
 4473POPC   C4B 4474  10.711  31.562   7.650
 4474POPC   NC3 4475  43.931   9.699   9.450
 4474POPC   PO4 4476  43.910   9.768   9.150
 4474POPC   GL1 4477  43.871   9.736   8.850
 4474POPC   GL2 4478  43.747   9.764   8.850
 4474POPC   C1A 4479  43.921   9.714   8.550
 4474POPC   D2A 4480  43.854   9.773   8.250
 4474POPC   C3A 4481  43.891   9.700   7.950
 4474POPC   C4A 4482  43.891   9.761   7.650
 4474POPC   C1B 4483  43.615   9.712   8.550
 4474POPC   C2B 4484  43.595   9.744   8.250
 4474POPC   C3B 4485  43.680   9.730   7.950
 4474POPC   C4B 4486  43.658   9.677   7.650
 4475POPC   NC3 4487   4.269   1.173   9.450
 4475POPC   PO4 4488   4.273   1.189   9.150
 4475POPC   GL1 4489   4.282   1.244   8.850
 4475POPC   GL2 4490   4.337   1.319   8.850
 4475POPC   C1A 4491   4.356   1.215   8.550
 4475POPC   D2A 4492   4.313   1.210   8.250
 4475POPC   C3A 4493   4.351   1.177   7.950
 4475POPC   C4A 4494   4.324   1.169   7.650
 4475POPC   C1B 4495   4.395   1.449   8.550
 4475POPC   C2B 4496   4.403   1.442   8.250
 4475POPC   C3B 4497   4.355   1.477   7.950
 4475POPC   C4B 4498   4.359   1.418   7.650
 4476POPC   NC3 4499  32.228  36.940   9.450
 4476POPC   PO4 4500  32.250  36.923   9.150
 4476POPC   GL1 4501  32.200  36.904   8.850
 4476POPC   GL2 4502  32.283  37.068   8.850
 4476POPC   C1A 4503  32.296  36.936   8.550
 4476POPC   D2A 4504  32.296  36.909   8.250
 4476POPC   C3A 4505  32.274  36.947   7.950
 4476POPC   C4A 4506  32.220  36.938   7.650
 4476POPC   C1B 4507  32.364  37.183   8.550
 4476POPC   C2B 4508  32.310  37.122   8.250
 4476POPC   C3B 4509  32.325  37.101   7.950
 4476POPC   C4B 4510  32.300  37.111   7.650
 4477POPC   NC3 4511  19.101   2.013   9.450
 4477POPC   PO4 4512  19.019   1.991   9.150
 4477POPC   GL1 4513  19.051   1.978   8.850
 4477POPC   GL2 4514  18.995   2.147   8.850
 4477POPC   C1A 4515  19.106   1.995   8.550
 4477POPC   D2A 4516  19.093   2.030   8.250
 4477POPC   C3A 4517  19.087   2.018   7.950
 4477POPC   C4A 4518  19.069   1.967   7.650
 4477POPC   C1B 4519  19.000   2.203   8.550
 4477POPC   C2B 4520  18.953   2.184   8.250
 4477POPC   C3B 4521  19.014   2.203   7.950
 4477POPC   C4B 4522  18.940   2.267   7.650
 4478POPC   NC3 4523  32.207  26.818   9.450
 4478POPC   PO4 4524  32.282  26.821   9.150
 4478POPC   GL1 4525  32.289  26.846   8.850
 4478POPC   GL2 4526  32.369  26.789   8.850
 4478POPC   C1A 4527  32.283  26.774   8.550
 4478POPC   D2A 4528  32.275  26.820   8.250
 4478POPC   C3A 4529  32.203  26.775   7.950
 4478POPC   C4A 4530  32.237  26.810   7.650
 4478POPC   C1B 4531  32.512  26.707   8.550
 4478POPC   C2B 4532  32.461  26.702   8.250
 4478POPC   C3B 4533  32.452  26.673   7.950
 4478POPC   C4B 4534  32.455  26.726   7.650
 4479POPC   NC3 4535  35.389   1.236   9.450
 4479POPC   PO4 4536  35.388   1.259   9.150
 4479POPC   GL1 4537  35.396   1.218   8.850
 4479POPC   GL2 4538  35.239   1.215   8.850
 4479POPC   C1A 4539  35.350   1.188   8.550
 4479POPC   D2A 4540  35.346   1.188   8.250
 4479POPC   C3A 4541  35.394   1.187   7.950
 4479POPC   C4A 4542  35.393   1.234   7.650
 4479POPC   C1B 4543  35.069   1.095   8.550
 4479POPC   C2B 4544  35.108   1.132   8.250
 4479POPC   C3B 4545  35.134   1.158   7.950
 4479POPC   C4B 4546  35.086   1.172   7.650
 4480POPC   NC3 4547  19.792   3.570   9.450
 4480POPC   PO4 4548  19.800   3.495   9.150
 4480POPC   GL1 4549  19.846   3.517   8.850
 4480POPC   GL2 4550  19.884   3.610   8.850
 4480POPC   C1A 4551  19.803   3.560   8.550
 4480POPC   D2A 4552  19.807   3.517   8.250
 4480POPC   C3A 4553  19.884   3.510   7.950
 4480POPC   C4A 4554  19.867   3.582   7.650
 4480POPC   C1B 4555  20.036   3.711   8.550
 4480POPC   C2B 4556  19.982   3.721   8.250
 4480POPC   C3B 4557  19.959   3.701   7.950
 4480POPC   C4B 4558  20.003   3.715   7.650
 4481POPC   NC3 4559   7.443  24.521   9.450
 4481POPC   PO4 4560   7.433  24.499   9.150
 4481POPC   GL1 4561   7.375  24.462   8.850
 4481POPC   GL2 4562   7.284  24.546   8.850
 4481POPC   C1A 4563   7.379  24.484   8.550
 4481POPC   D2A 4564   7.454  24.491   8.250
 4481POPC   C3A 4565   7.451  24.451   7.950
 4481POPC   C4A 4566   7.405  24.462   7.650
 4481POPC   C1B 4567   7.273  24.628   8.550
 4481POPC   C2B 4568   7.217  24.629   8.250
 4481POPC   C3B 4569   7.252  24.608   7.950
 4481POPC   C4B 4570   7.254  24.620   7.650
 4482POPC   NC3 4571   6.640  21.339   9.450
 4482POPC   PO4 4572   6.660  21.415   9.150
 4482POPC   GL1 4573   6.673  21.341   8.850
 4482POPC   GL2 4574   6.682  21.308   8.850
 4482POPC   C1A 4575   6.647  21.350   8.550
 4482POPC   D2A 4576   6.620  21.378   8.250
 4482POPC   C3A 4577   6.625  21.410   7.950
 4482POPC   C4A 4578   6.652  21.374   7.650
 4482POPC   C1B 4579   6.702  21.140   8.550
 4482POPC   C2B 4580   6.746  21.192   8.250
 4482POPC   C3B 4581   6.729  21.185   7.950
 4482POPC   C4B 4582   6.775  21.179   7.650
 4483POPC   NC3 4583  29.129  39.187   9.450
 4483POPC   PO4 4584  29.149  39.221   9.150
 4483POPC   GL1 4585  29.160  39.236   8.850
 4483POPC   GL2 4586  29.123  39.306   8.850
 4483POPC   C1A 4587  29.187  39.207   8.550
 4483POPC   D2A 4588  29.123  39.251   8.250
 4483POPC   C3A 4589  29.160  39.273   7.950
 4483POPC   C4A 4590  29.124  39.243   7.650
 4483POPC   C1B 4591  29.205  39.435   8.550
 4483POPC   C2B 4592  29.170  39.469   8.250
 4483POPC   C3B 4593  29.198  39.433   7.950
 4483POPC   C4B 4594  29.140  39.448   7.650
 4484POPC   NC3 4595  29.142  40.776   9.450
 4484POPC   PO4 4596  29.150  40.776   9.150
 4484POPC   GL1 4597  29.096  40.766   8.850
 4484POPC   GL2 4598  29.106  40.859   8.850
 4484POPC   C1A 4599  29.126  40.811   8.550
 4484POPC   D2A 4600  29.157  40.741   8.250
 4484POPC   C3A 4601  29.173  40.813   7.950
 4484POPC   C4A 4602  29.098  40.767   7.650
 4484POPC   C1B 4603  29.083  40.998   8.550
 4484POPC   C2B 4604  29.050  41.042   8.250
 4484POPC   C3B 4605  29.102  41.042   7.950
 4484POPC   C4B 4606  29.036  41.004   7.650
 4485POPC   NC3 4607  33.042   9.755   9.450
 4485POPC   PO4 4608  33.009   9.743   9.150
 4485POPC   GL1 4609  33.048   9.775   8.850
 4485POPC   GL2 4610  33.087   9.765   8.850
 4485POPC   C1A 4611  33.048   9.720   8.550
 4485POPC   D2A 4612  33.068   9.781   8.250
 4485POPC   C3A 4613  33.011   9.720   7.950
 4485POPC   C4A 4614  33.056   9.749   7.650
 4485POPC   C1B 4615  33.236   9.832   8.550
 4485POPC   C2B 4616  33.254   9.810   8.250
 4485POPC   C3B 4617  33.292   9.894   7.950
 4485POPC   C4B 4618  33.281   9.827   7.650
 4486POPC   NC3 4619  43.861   6.645   9.450
 4486POPC   PO4 4620  43.845   6.626   9.150
 4486POPC   GL1 4621  43.904   6.678   8.850
 4486POPC   GL2 4622  43.799   6.683   8.850
 4486POPC   C1A 4623  43.920   6.602   8.550
 4486POPC   D2A 4624  43.859   6.641   8.250
 4486POPC   C3A 4625  43.877   6.664   7.950
 4486POPC   C4A 4626  43.879   6.612   7.650
 4486POPC   C1B 4627  43.725   6.775   8.550
 4486POPC   C2B 4628  43.694   6.754   8.250
 4486POPC   C3B 4629  43.629   6.785   7.950
 4486POPC   C4B 4630  43.630   6.829   7.650
 4487POPC   NC3 4631   0.426   8.946   9.450
 4487POPC   PO4 4632   0.461   8.929   9.150
 4487POPC   GL1 4633   0.424   8.946   8.850
 4487POPC   GL2 4634   0.349   9.023   8.850
 4487POPC   C1A 4635   0.412   8.993   8.550
 4487POPC   D2A 4636   0.391   8.953   8.250
 4487POPC   C3A 4637   0.430   8.925   7.950
 4487POPC   C4A 4638   0.477   8.947   7.650
 4487POPC   C1B 4639   0.190   9.098   8.550
 4487POPC   C2B 4640   0.175   9.092   8.250
 4487POPC   C3B 4641   0.180   9.086   7.950
 4487POPC   C4B 4642   0.204   9.092   7.650
 4488POPC   NC3 4643  32.256  20.590   9.450
 4488POPC   PO4 4644  32.280  20.580   9.150
 4488POPC   GL1 4645  32.201  20.640   8.850
 4488POPC   GL2 4646  32.353  20.710   8.850
 4488POPC   C1A 4647  32.263  20.577   8.550
 4488POPC   D2A 4648  32.213  20.602   8.250
 4488POPC   C3A 4649  32.288  20.566   7.950
 4488POPC   C4A 4650  32.265  20.561   7.650
 4488POPC   C1B 4651  32.443  20.819   8.550
 4488POPC   C2B 4652  32.361  20.785   8.250
 4488POPC   C3B 4653  32.406  20.811   7.950
 4488POPC   C4B 4654  32.413  20.827   7.650
 4489POPC   NC3 4655  10.508  44.630   9.450
 4489POPC   PO4 4656  10.523  44.614   9.150
 4489POPC   GL1 4657  10.573  44.645   8.850
 4489POPC   GL2 4658  10.377  44.628   8.850
 4489POPC   C1A 4659  10.571  44.622   8.550
 4489POPC   D2A 4660  10.549  44.668   8.250
 4489POPC   C3A 4661  10.550  44.674   7.950
 4489POPC   C4A 4662  10.527  44.647   7.650
 4489POPC   C1B 4663  10.363  44.503   8.550
 4489POPC   C2B 4664  10.344  44.473   8.250
 4489POPC   C3B 4665  10.323  44.506   7.950
 4489POPC   C4B 4666  10.357  44.498   7.650
 4490POPC   NC3 4667  22.922  36.935   9.450
 4490POPC   PO4 4668  22.903  36.948   9.150
 4490POPC   GL1 4669  22.960  36.942   8.850
 4490POPC   GL2 4670  23.001  36.790   8.850
 4490POPC   C1A 4671  22.986  36.920   8.550
 4490POPC   D2A 4672  22.897  36.881   8.250
 4490POPC   C3A 4673  22.933  36.859   7.950
 4490POPC   C4A 4674  22.981  36.869   7.650
 4490POPC   C1B 4675  23.102  36.712   8.550
 4490POPC   C2B 4676  23.095  36.742   8.250
 4490POPC   C3B 4677  23.091  36.727   7.950
 4490POPC   C4B 4678  23.125  36.746   7.650
 4491POPC   NC3 4679  26.865  18.245   9.450
 4491POPC   PO4 4680  26.840  18.289   9.150
 4491POPC   GL1 4681  26.778  18.249   8.850
 4491POPC   GL2 4682  26.754  18.201   8.850
 4491POPC   C1A 4683  26.865  18.236   8.550
 4491POPC   D2A 4684  26.821  18.329   8.250
 4491POPC   C3A 4685  26.780  18.250   7.950
 4491POPC   C4A 4686  26.828  18.257   7.650
 4491POPC   C1B 4687  26.616  18.104   8.550
 4491POPC   C2B 4688  26.675  18.042   8.250
 4491POPC   C3B 4689  26.676  18.046   7.950
 4491POPC   C4B 4690  26.614  18.062   7.650
 4492POPC   NC3 4691  29.133  44.698   9.450
 4492POPC   PO4 4692  29.175  44.662   9.150
 4492POPC   GL1 4693  29.132  44.645   8.850
 4492POPC   GL2 4694  29.123  44.832   8.850
 4492POPC   C1A 4695  29.159  44.640   8.550
 4492POPC   D2A 4696  29.147  44.626   8.250
 4492POPC   C3A 4697  29.178  44.685   7.950
 4492POPC   C4A 4698  29.141  44.657   7.650
 4492POPC   C1B 4699  29.197  44.939   8.550
 4492POPC   C2B 4700  29.139  44.913   8.250
 4492POPC   C3B 4701  29.184  44.959   7.950
 4492POPC   C4B 4702  29.150  44.886   7.650
 4493POPC   NC3 4703   9.747  18.250   9.450
 4493POPC   PO4 4704   9.777  18.286   9.150
 4493POPC   GL1 4705   9.754  18.244   8.850
 4493POPC   GL2 4706   9.670  18.175   8.850
 4493POPC   C1A 4707   9.743  18.264   8.550
 4493POPC   D2A 4708   9.768  18.284   8.250
 4493POPC   C3A 4709   9.736  18.285   7.950
 4493POPC   C4A 4710   9.748  18.283   7.650
 4493POPC   C1B 4711   9.574  18.114   8.550
 4493POPC   C2B 4712   9.600  18.084   8.250
 4493POPC   C3B 4713   9.591  18.039   7.950
 4493POPC   C4B 4714   9.597  18.072   7.650
 4494POPC   NC3 4715  39.181  19.797   9.450
 4494POPC   PO4 4716  39.203  19.825   9.150
 4494POPC   GL1 4717  39.196  19.805   8.850
 4494POPC   GL2 4718  39.340  19.887   8.850
 4494POPC   C1A 4719  39.193  19.857   8.550
 4494POPC   D2A 4720  39.205  19.820   8.250
 4494POPC   C3A 4721  39.267  19.787   7.950
 4494POPC   C4A 4722  39.261  19.863   7.650
 4494POPC   C1B 4723  39.409  20.053   8.550
 4494POPC   C2B 4724  39.449  20.039   8.250
 4494POPC   C3B 4725  39.410  20.013   7.950
 4494POPC   C4B 4726  39.374  20.043   7.650
 4495POPC   NC3 4727  16.709  44.703   9.450
 4495POPC   PO4 4728  16.751  44.672   9.150
 4495POPC   GL1 4729  16.769  44.688   8.850
 4495POPC   GL2 4730  16.713  44.813   8.850
 4495POPC   C1A 4731  16.739  44.622   8.550
 4495POPC   D2A 4732  16.711  44.650   8.250
 4495POPC   C3A 4733  16.688  44.697   7.950
 4495POPC   C4A 4734  16.769  44.689   7.650
 4495POPC   C1B 4735  16.621  44.924   8.550
 4495POPC   C2B 4736  16.685  44.931   8.250
 4495POPC   C3B 4737  16.649  44.919   7.950
 4495POPC   C4B 4738  16.710  44.908   7.650
 4496POPC   NC3 4739  11.310  15.978   9.450
 4496POPC   PO4 4740  11.266  15.940   9.150
 4496POPC   GL1 4741  11.333  15.955   8.850
 4496POPC   GL2 4742  11.349  16.089   8.850
 4496POPC   C1A 4743  11.304  15.945   8.550
 4496POPC   D2A 4744  11.322  15.985   8.250
 4496POPC   C3A 4745  11.320  15.940   7.950
 4496POPC   C4A 4746  11.313  15.931   7.650
 4496POPC   C1B 4747  11.487  16.163   8.550
 4496POPC   C2B 4748  11.443  16.161   8.250
 4496POPC   C3B 4749  11.507  16.085   7.950
 4496POPC   C4B 4750  11.430  16.137   7.650
 4497POPC   NC3 4751  11.285  43.877   9.450
 4497POPC   PO4 4752  11.269  43.936   9.150
 4497POPC   GL1 4753  11.293  43.930   8.850
 4497POPC   GL2 4754  11.148  43.924   8.850
 4497POPC   C1A 4755  11.262  43.927   8.550
 4497POPC   D2A 4756  11.312  43.870   8.250
 4497POPC   C3A 4757  11.322  43.900   7.950
 4497POPC   C4A 4758  11.305  43.864   7.650
 4497POPC   C1B 4759  11.036  44.045   8.550
 4497POPC   C2B 4760  11.080  43.972   8.250
 4497POPC   C3B 4761  11.072  44.045   7.950
 4497POPC   C4B 4762  11.094  43.983   7.650
 4498POPC   NC3 4763  17.507  20.588   9.450
 4498POPC   PO4 4764  17.539  20.624   9.150
 4498POPC   GL1 4765  17.500  20.594   8.850
 4498POPC   GL2 4766  17.457  20.747   8.850
 4498POPC   C1A 4767  17.539  20.585   8.550
 4498POPC   D2A 4768  17.469  20.596   8.250
 4498POPC   C3A 4769  17.484  20.586   7.950
 4498POPC   C4A 4770  17.524  20.585   7.650
 4498POPC   C1B 4771  17.395  20.866   8.550
 4498POPC   C2B 4772  17.384  20.842   8.250
 4498POPC   C3B 4773  17.350  20.790   7.950
 4498POPC   C4B 4774  17.397  20.814   7.650
 4499POPC   NC3 4775   6.610  23.701   9.450
 4499POPC   PO4 4776   6.600  23.758   9.150
 4499POPC   GL1 4777   6.645  23.711   8.850
 4499POPC   GL2 4778   6.520  23.767   8.850
 4499POPC   C1A 4779   6.616  23.719   8.550
 4499POPC   D2A 4780   6.677  23.690   8.250
 4499POPC   C3A 4781   6.624  23.713   7.950
 4499POPC   C4A 4782   6.685  23.699   7.650
 4499POPC   C1B 4783   6.447  23.712   8.550
 4499POPC   C2B 4784   6.432  23.761   8.250
 4499POPC   C3B 4785   6.360  23.712   7.950
 4499POPC   C4B 4786   6.371  23.771   7.650
 4500POPC   NC3 4787  38.484   5.897   9.450
 4500POPC   PO4 4788  38.474   5.905   9.150
 4500POPC   GL1 4789  38.442   5.851   8.850
 4500POPC   GL2 4790  38.556   5.834   8.850
 4500POPC   C1A 4791  38.475   5.895   8.550
 4500POPC   D2A 4792  38.438   5.903   8.250
 4500POPC   C3A 4793  38.482   5.866   7.950
 4500POPC   C4A 4794  38.416   5.845   7.650
 4500POPC   C1B 4795  38.683   5.771   8.550
 4500POPC   C2B 4796  38.672   5.769   8.250
 4500POPC   C3B 4797  38.685   5.744   7.950
 4500POPC   C4B 4798  38.659   5.751   7.650
 4501POPC   NC3 4799  26.080  40.797   9.450
 4501POPC   PO4 4800  26.057  40.781   9.150
 4501POPC   GL1 4801  26.051  40.798   8.850
 4501POPC   GL2 4802  25.993  40.691   8.850
 4501POPC   C1A 4803  26.035  40.766   8.550
 4501POPC   D2A 4804  25.997  40.767   8.250
 4501POPC   C3A 4805  26.032  40.829   7.950
 4501POPC   C4A 4806  26.022  40.773   7.650
 4501POPC   C1B 4807  25.846  40.622   8.550
 4501POPC   C2B 4808  25.834  40.611   8.250
 4501POPC   C3B 4809  25.867  40.609   7.950
 4501POPC   C4B 4810  25.862  40.637   7.650
 4502POPC   NC3 4811  23.737  11.303   9.450
 4502POPC   PO4 4812  23.745  11.258   9.150
 4502POPC   GL1 4813  23.686  11.277   8.850
 4502POPC   GL2 4814  23.809  11.276   8.850
 4502POPC   C1A 4815  23.697  11.256   8.550
 4502POPC   D2A 4816  23.746  11.295   8.250
 4502POPC   C3A 4817  23.693  11.264   7.950
 4502POPC   C4A 4818  23.747  11.287   7.650
 4502POPC   C1B 4819  23.912  11.222   8.550
 4502POPC   C2B 4820  24.009  11.246   8.250
 4502POPC   C3B 4821  23.989  11.276   7.950
 4502POPC   C4B 4822  23.936  11.258   7.650
 4503POPC   NC3 4823  29.138  26.003   9.450
 4503POPC   PO4 4824  29.121  26.012   9.150
 4503POPC   GL1 4825  29.155  26.053   8.850
 4503POPC   GL2 4826  29.246  26.092   8.850
 4503POPC   C1A 4827  29.134  26.032   8.550
 4503POPC   D2A 4828  29.152  26.007   8.250
 4503POPC   C3A 4829  29.117  26.084   7.950
 4503POPC   C4A 4830  29.149  26.076   7.650
 4503POPC   C1B 4831  29.352  26.139   8.550
 4503POPC   C2B 4832  29.435  26.097   8.250
 4503POPC   C3B 4833  29.342  26.155   7.950
 4503POPC   C4B 4834  29.431  26.081   7.650
 4504POPC   NC3 4835   0.484  32.254   9.450
 4504POPC   PO4 4836   0.475  32.220   9.150
 4504POPC   GL1 4837   0.417  32.213   8.850
 4504POPC   GL2 4838   0.443  32.396   8.850
 4504POPC   C1A 4839   0.482  32.233   8.550
 4504POPC   D2A 4840   0.438  32.264   8.250
 4504POPC   C3A 4841   0.486  32.273   7.950
 4504POPC   C4A 4842   0.454  32.241   7.650
 4504POPC   C1B 4843   0.446  32.515   8.550
 4504POPC   C2B 4844   0.447  32.539   8.250
 4504POPC   C3B 4845   0.407  32.448   7.950
 4504POPC   C4B 4846   0.404  32.526   7.650
 4505POPC   NC3 4847  32.278   6.599   9.450
 4505POPC   PO4 4848  32.270   6.631   9.150
 4505POPC   GL1 4849  32.263   6.635   8.850
 4505POPC   GL2 4850  32.296   6.707   8.850
 4505POPC   C1A 4851  32.258   6.621   8.550
 4505POPC   D2A 4852  32.222   6.621   8.250
 4505POPC   C3A 4853  32.262   6.660   7.950
 4505POPC   C4A 4854  32.223   6.646   7.650
 4505POPC   C1B 4855  32.385   6.822   8.550
 4505POPC   C2B 4856  32.423   6.888   8.250
 4505POPC   C3B 4857  32.379   6.818   7.950
 4505POPC   C4B 4858  32.358   6.829   7.650
 4506POPC   NC3 4859  36.874  29.101   9.450
 4506POPC   PO4 4860  36.858  29.128   9.150
 4506POPC   GL1 4861  36.951  29.114   8.850
 4506POPC   GL2 4862  36.977  29.218   8.850
 4506POPC   C1A 4863  36.879  29.140   8.550
 4506POPC   D2A 4864  36.866  29.098   8.250
 4506POPC   C3A 4865  36.871  29.118   7.950
 4506POPC   C4A 4866  36.881  29.123   7.650
 4506POPC   C1B 4867  37.031  29.303   8.550
 4506POPC   C2B 4868  37.057  29.301   8.250
 4506POPC   C3B 4869  37.110  29.322   7.950
 4506POPC   C4B 4870  37.115  29.290   7.650
 4507POPC   NC3 4871  22.186   8.934   9.450
 4507POPC   PO4 4872  22.184   8.965   9.150
 4507POPC   GL1 4873  22.139   8.948   8.850
 4507POPC   GL2 4874  22.282   9.067   8.850
 4507POPC   C1A 4875  22.148   8.977   8.550
 4507POPC   D2A 4876  22.114   8.926   8.250
 4507POPC   C3A 4877  22.206   8.978   7.950
 4507POPC   C4A 4878  22.175   8.998   7.650
 4507POPC   C1B 4879  22.310   9.106   8.550
 4507POPC   C2B 4880  22.311   9.136   8.250
 4507POPC   C3B 4881  22.321   9.121   7.950
 4507POPC   C4B 4882  22.354   9.178   7.650
 4508POPC   NC3 4883  33.002  28.399   9.450
 4508POPC   PO4 4884  33.030  28.342   9.150
 4508POPC   GL1 4885  33.003  28.328   8.850
 4508POPC   GL2 4886  32.916  28.295   8.850
 4508POPC   C1A 4887  33.043  28.343   8.550
 4508POPC   D2A 4888  33.051  28.404   8.250
 4508POPC   C3A 4889  33.038  28.348   7.950
 4508POPC   C4A 4890  33.052  28.395   7.650
 4508POPC   C1B 4891  32.808  28.282   8.550
 4508POPC   C2B 4892  32.789  28.246   8.250
 4508POPC   C3B 4893  32.774  28.224   7.950
 4508POPC   C4B 4894  32.847  28.197   7.650
 4509POPC   NC3 4895  12.096  44.698   9.450
 4509POPC   PO4 4896  12.086  44.639   9.150
 4509POPC   GL1 4897  12.030  44.613   8.850
 4509POPC   GL2 4898  12.132  44.505   8.850
 4509POPC   C1A 4899  12.081  44.698   8.550
 4509POPC   D2A 4900  12.062  44.703   8.250
 4509POPC   C3A 4901  12.083  44.663   7.950
 4509POPC   C4A 4902  12.089  44.631   7.650
 4509POPC   C1B 4903  12.123  44.421   8.550
 4509POPC   C2B 4904  12.139  44.453   8.250
 4509POPC   C3B 4905  12.211  44.417   7.950
 4509POPC   C4B 4906  12.182  44.408   7.650
 4510POPC   NC3 4907  32.238  22.922   9.450
 4510POPC   PO4 4908  32.206  22.957   9.150
 4510POPC   GL1 4909  32.247  22.959   8.850
 4510POPC   GL2 4910  32.313  23.007   8.850
 4510POPC   C1A 4911  32.213  22.969   8.550
 4510POPC   D2A 4912  32.274  22.973   8.250
 4510POPC   C3A 4913  32.213  22.950   7.950
 4510POPC   C4A 4914  32.244  22.917   7.650
 4510POPC   C1B 4915  32.482  23.068   8.550
 4510POPC   C2B 4916  32.401  23.083   8.250
 4510POPC   C3B 4917  32.439  23.114   7.950
 4510POPC   C4B 4918  32.486  23.106   7.650
 4511POPC   NC3 4919  42.317  13.585   9.450
 4511POPC   PO4 4920  42.378  13.580   9.150
 4511POPC   GL1 4921  42.286  13.580   8.850
 4511POPC   GL2 4922  42.321  13.524   8.850
 4511POPC   C1A 4923  42.313  13.624   8.550
 4511POPC   D2A 4924  42.340  13.637   8.250
 4511POPC   C3A 4925  42.288  13.634   7.950
 4511POPC   C4A 4926  42.310  13.607   7.650
 4511POPC   C1B 4927  42.172  13.457   8.550
 4511POPC   C2B 4928  42.184  13.432   8.250
 4511POPC   C3B 4929  42.193  13.366   7.950
 4511POPC   C4B 4930  42.217  13.425   7.650
 4512POPC   NC3 4931  14.438  31.453   9.450
 4512POPC   PO4 4932  14.359  31.501   9.150
 4512POPC   GL1 4933  14.391  31.497   8.850
 4512POPC   GL2 4934  14.414  31.632   8.850
 4512POPC   C1A 4935  14.367  31.461   8.550
 4512POPC   D2A 4936  14.412  31.427   8.250
 4512POPC   C3A 4937  14.357  31.424   7.950
 4512POPC   C4A 4938  14.433  31.436   7.650
 4512POPC   C1B 4939  14.352  31.738   8.550
 4512POPC   C2B 4940  14.341  31.682   8.250
 4512POPC   C3B 4941  14.397  31.734   7.950
 4512POPC   C4B 4942  14.371  31.737   7.650
 4513POPC   NC3 4943   5.078   4.290   9.450
 4513POPC   PO4 4944   5.059   4.356   9.150
 4513POPC   GL1 4945   5.060   4.362   8.850
 4513POPC   GL2 4946   5.226   4.280   8.850
 4513POPC   C1A 4947   5.078   4.285   8.550
 4513POPC   D2A 4948   5.091   4.319   8.250
 4513POPC   C3A 4949   5.077   4.307   7.950
 4513POPC   C4A 4950   5.063   4.336   7.650
 4513POPC   C1B 4951   5.380   4.315   8.550
 4513POPC   C2B 4952   5.314   4.288   8.250
 4513POPC   C3B 4953   5.383   4.318   7.950
 4513POPC   C4B 4954   5.306   4.273   7.650
 4514POPC   NC3 4955   7.459  21.407   9.450
 4514POPC   PO4 4956   7.413  21.350   9.150
 4514POPC   GL1 4957   7.416  21.396   8.850
 4514POPC   GL2 4958   7.408  21.492   8.850
 4514POPC   C1A 4959   7.462  21.343   8.550
 4514POPC   D2A 4960   7.378  21.407   8.250
 4514POPC   C3A 4961   7.395  21.423   7.950
 4514POPC   C4A 4962   7.454  21.406   7.650
 4514POPC   C1B 4963   7.302  21.626   8.550
 4514POPC   C2B 4964   7.340  21.600   8.250
 4514POPC   C3B 4965   7.354  21.622   7.950
 4514POPC   C4B 4966   7.300  21.656   7.650
 4515POPC   NC3 4967   5.904   2.014   9.450
 4515POPC   PO4 4968   5.873   1.953   9.150
 4515POPC   GL1 4969   5.860   2.010   8.850
 4515POPC   GL2 4970   6.006   1.967   8.850
 4515POPC   C1A 4971   5.883   1.980   8.550
 4515POPC   D2A 4972   5.873   1.969   8.250
 4515POPC   C3A 4973   5.852   2.002   7.950
 4515POPC   C4A 4974   5.830   2.020   7.650
 4515POPC   C1B 4975   6.127   2.012   8.550
 4515POPC   C2B 4976   6.105   2.009   8.250
 4515POPC   C3B 4977   6.114   2.037   7.950
 4515POPC   C4B 4978   6.132   2.013   7.650
 4516POPC   NC3 4979  43.868   8.198   9.450
 4516POPC   PO4 4980  43.915   8.211   9.150
 4516POPC   GL1 4981  43.922   8.231   8.850
 4516POPC   GL2 4982  43.786   8.305   8.850
 4516POPC   C1A 4983  43.917   8.229   8.550
 4516POPC   D2A 4984  43.869   8.165   8.250
 4516POPC   C3A 4985  43.848   8.188   7.950
 4516POPC   C4A 4986  43.857   8.188   7.650
 4516POPC   C1B 4987  43.786   8.462   8.550
 4516POPC   C2B 4988  43.823   8.411   8.250
 4516POPC   C3B 4989  43.824   8.395   7.950
 4516POPC   C4B 4990  43.803   8.456   7.650
 4517POPC   NC3 4991  38.429  28.333   9.450
 4517POPC   PO4 4992  38.430  28.328   9.150
 4517POPC   GL1 4993  38.443  28.335   8.850
 4517POPC   GL2 4994  38.437  28.444   8.850
 4517POPC   C1A 4995  38.469  28.391   8.550
 4517POPC   D2A 4996  38.453  28.388   8.250
 4517POPC   C3A 4997  38.447  28.343   7.950
 4517POPC   C4A 4998  38.443  28.326   7.650
 4517POPC   C1B 4999  38.439  28.597   8.550
 4517POPC   C2B 5000  38.418  28.635   8.250
 4517POPC   C3B 5001  38.387  28.583   7.950
 4517POPC   C4B 5002  38.444  28.632   7.650
 4518POPC   NC3 5003  43.148   0.459   9.450
 4518POPC   PO4 5004  43.099   0.411   9.150
 4518POPC   GL1 5005  43.159   0.425   8.850
 4518POPC   GL2 5006  43.014   0.371   8.850
 4518POPC   C1A 5007  43.101   0.417   8.550
 4518POPC   D2A 5008  43.143   0.452   8.250
 4518POPC   C3A 5009  43.145   0.437   7.950
 4518POPC   C4A 5010  43.127   0.456   7.650
 4518POPC   C1B 5011  42.990   0.279   8.550
 4518POPC   C2B 5012  42.917   0.219   8.250
 4518POPC   C3B 5013  42.943   0.275   7.950
 4518POPC   C4B 5014  42.958   0.301   7.650
 4519POPC   NC3 5015  30.698  20.580   9.450
 4519POPC   PO4 5016  30.702  20.637   9.150
 4519POPC   GL1 5017  30.685  20.568   8.850
 4519POPC   GL2 5018  30.774  20.509   8.850
 4519POPC   C1A 5019  30.687  20.607   8.550
 4519POPC   D2A 5020  30.664  20.609   8.250
 4519POPC   C3A 5021  30.652  20.579   7.950
 4519POPC   C4A 5022  30.684  20.576   7.650
 4519POPC   C1B 5023  30.902  20.501   8.550
 4519POPC   C2B 5024  30.927  20.510   8.250
 4519POPC   C3B 5025  30.852  20.417   7.950
 4519POPC   C4B 5026  30.950  20.451   7.650
 4520POPC   NC3 5027  42.359  39.267   9.450
 4520POPC   PO4 5028  42.323  39.249   9.150
 4520POPC   GL1 5029  42.337  39.215   8.850
 4520POPC   GL2 5030  42.294  39.363   8.850
 4520POPC   C1A 5031  42.358  39.232   8.550
 4520POPC   D2A 5032  42.311  39.209   8.250
 4520POPC   C3A 5033  42.376  39.229   7.950
 4520POPC   C4A 5034  42.286  39.202   7.650
 4520POPC   C1B 5035  42.215  39.417   8.550
 4520POPC   C2B 5036  42.256  39.410   8.250
 4520POPC   C3B 5037  42.278  39.446   7.950
 4520POPC   C4B 5038  42.273  39.440   7.650
 4521POPC   NC3 5039  23.668  25.296   9.450
 4521POPC   PO4 5040  23.760  25.223   9.150
 4521POPC   GL1 5041  23.739  25.258   8.850
 4521POPC   GL2 5042  23.774  25.396   8.850
 4521POPC   C1A 5043  23.731  25.279   8.550
 4521POPC   D2A 5044  23.723  25.246   8.250
 4521POPC   C3A 5045  23.762  25.313   7.950
 4521POPC   C4A 5046  23.755  25.294   7.650
 4521POPC   C1B 5047  23.841  25.516   8.550
 4521POPC   C2B 5048  23.905  25.468   8.250
 4521POPC   C3B 5049  23.904  25.428   7.950
 4521POPC   C4B 5050  23.903  25.514   7.650
 4522POPC   NC3 5051  20.565  10.572   9.450
 4522POPC   PO4 5052  20.577  10.533   9.150
 4522POPC   GL1 5053  20.655  10.571   8.850
 4522POPC   GL2 5054  20.512  10.651   8.850
 4522POPC   C1A 5055  20.619  10.512   8.550
 4522POPC   D2A 5056  20.587  10.548   8.250
 4522POPC   C3A 5057  20.614  10.494   7.950
 4522POPC   C4A 5058  20.634  10.534   7.650
 4522POPC   C1B 5059  20.452  10.763   8.550
 4522POPC   C2B 5060  20.472  10.755   8.250
 4522POPC   C3B 5061  20.503  10.699   7.950
 4522POPC   C4B 5062  20.528  10.767   7.650
 4523POPC   NC3 5063  11.305   2.796   9.450
 4523POPC   PO4 5064  11.320   2.759   9.150
 4523POPC   GL1 5065  11.308   2.798   8.850
 4523POPC   GL2 5066  11.336   2.897   8.850
 4523POPC   C1A 5067  11.345   2.800   8.550
 4523POPC   D2A 5068  11.256   2.796   8.250
 4523POPC   C3A 5069  11.333   2.756   7.950
 4523POPC   C4A 5070  11.325   2.743   7.650
 4523POPC   C1B 5071  11.441   2.950   8.550
 4523POPC   C2B 5072  11.438   2.938   8.250
 4523POPC   C3B 5073  11.451   3.004   7.950
 4523POPC   C4B 5074  11.407   2.944   7.650
 4524POPC   NC3 5075   2.722  29.124   9.450
 4524POPC   PO4 5076   2.793  29.180   9.150
 4524POPC   GL1 5077   2.718  29.179   8.850
 4524POPC   GL2 5078   2.843  29.159   8.850
 4524POPC   C1A 5079   2.716  29.133   8.550
 4524POPC   D2A 5080   2.814  29.161   8.250
 4524POPC   C3A 5081   2.748  29.181   7.950
 4524POPC   C4A 5082   2.815  29.158   7.650
 4524POPC   C1B 5083   3.013  29.225   8.550
 4524POPC   C2B 5084   2.968  29.280   8.250
 4524POPC   C3B 5085   2.983  29.242   7.950
 4524POPC   C4B 5086   2.981  29.297   7.650
 4525POPC   NC3 5087  26.786  42.289   9.450
 4525POPC   PO4 5088  26.806  42.304   9.150
 4525POPC   GL1 5089  26.771  42.379   8.850
 4525POPC   GL2 5090  26.898  42.207   8.850
 4525POPC   C1A 5091  26.794  42.318   8.550
 4525POPC   D2A 5092  26.812  42.321   8.250
 4525POPC   C3A 5093  26.803  42.313   7.950
 4525POPC   C4A 5094  26.833  42.378   7.650
 4525POPC   C1B 5095  26.946  42.134   8.550
 4525POPC   C2B 5096  26.954  42.091   8.250
 4525POPC   C3B 5097  26.947  42.102   7.950
 4525POPC   C4B 5098  27.015  42.168   7.650
 4526POPC   NC3 5099   8.187  39.207   9.450
 4526POPC   PO4 5100   8.207  39.265   9.150
 4526POPC   GL1 5101   8.191  39.273   8.850
 4526POPC   GL2 5102   8.177  39.123   8.850
 4526POPC   C1A 5103   8.218  39.208   8.550
 4526POPC   D2A 5104   8.208  39.206   8.250
 4526POPC   C3A 5105   8.158  39.231   7.950
 4526POPC   C4A 5106   8.243  39.208   7.650
 4526POPC   C1B 5107   8.094  38.979   8.550
 4526POPC   C2B 5108   8.085  38.965   8.250
 4526POPC   C3B 5109   8.133  39.041   7.950
 4526POPC   C4B 5110   8.089  39.011   7.650
 4527POPC   NC3 5111  22.963  42.334   9.450
 4527POPC   PO4 5112  22.905  42.303   9.150
 4527POPC   GL1 5113  22.980  42.338   8.850
 4527POPC   GL2 5114  23.019  42.437   8.850
 4527POPC   C1A 5115  22.965  42.363   8.550
 4527POPC   D2A 5116  22.898  42.359   8.250
 4527POPC   C3A 5117  22.987  42.364   7.950
 4527POPC   C4A 5118  22.935  42.352   7.650
 4527POPC   C1B 5119  23.099  42.513   8.550
 4527POPC   C2B 5120  23.008  42.586   8.250
 4527POPC   C3B 5121  23.020  42.592   7.950
 4527POPC   C4B 5122  23.014  42.572   7.650
 4528POPC   NC3 5123  40.012  12.832   9.450
 4528POPC   PO4 5124  40.003  12.856   9.150
 4528POPC   GL1 5125  39.999  12.874   8.850
 4528POPC   GL2 5126  40.150  12.757   8.850
 4528POPC   C1A 5127  40.005  12.822   8.550
 4528POPC   D2A 5128  39.962  12.852   8.250
 4528POPC   C3A 5129  40.007  12.829   7.950
 4528POPC   C4A 5130  40.047  12.847   7.650
 4528POPC   C1B 5131  40.253  12.713   8.550
 4528POPC   C2B 5132  40.221  12.688   8.250
 4528POPC   C3B 5133  40.201  12.715   7.950
 4528POPC   C4B 5134  40.216  12.769   7.650
 4529POPC   NC3 5135   4.338  30.655   9.450
 4529POPC   PO4 5136   4.298  30.737   9.150
 4529POPC   GL1 5137   4.311  30.729   8.850
 4529POPC   GL2 5138   4.286  30.828   8.850
 4529POPC   C1A 5139   4.339  30.688   8.550
 4529POPC   D2A 5140   4.315  30.722   8.250
 4529POPC   C3A 5141   4.345  30.658   7.950
 4529POPC   C4A 5142   4.295  30.659   7.650
 4529POPC   C1B 5143   4.295  30.934   8.550
 4529POPC   C2B 5144   4.234  30.981   8.250
 4529POPC   C3B 5145   4.302  30.979   7.950
 4529POPC   C4B 5146   4.284  30.969   7.650
 4530POPC   NC3 5147  13.578  30.734   9.450
 4530POPC   PO4 5148  13.591  30.688   9.150
 4530POPC   GL1 5149  13.649  30.685   8.850
 4530POPC   GL2 5150  13.709  30.673   8.850
 4530POPC   C1A 5151  13.645  30.693   8.550
 4530POPC   D2A 5152  13.662  30.722   8.250
 4530POPC   C3A 5153  13.663  30.737   7.950
 4530POPC   C4A 5154  13.670  30.734   7.650
 4530POPC   C1B 5155  13.864  30.712   8.550
 4530POPC   C2B 5156  13.907  30.720   8.250
 4530POPC   C3B 5157  13.900  30.727   7.950
 4530POPC   C4B 5158  13.833  30.717   7.650
 4531POPC   NC3 5159  19.097  29.945   9.450
 4531POPC   PO4 5160  19.025  29.924   9.150
 4531POPC   GL1 5161  19.026  29.906   8.850
 4531POPC   GL2 5162  19.164  29.971   8.850
 4531POPC   C1A 5163  19.038  29.942   8.550
 4531POPC   D2A 5164  19.020  29.956   8.250
 4531POPC   C3A 5165  19.029  29.903   7.950
 4531POPC   C4A 5166  19.058  29.922   7.650
 4531POPC   C1B 5167  19.339  29.984   8.550
 4531POPC   C2B 5168  19.306  29.946   8.250
 4531POPC   C3B 5169  19.282  29.978   7.950
 4531POPC   C4B 5170  19.319  29.915   7.650
 4532POPC   NC3 5171   9.729   1.184   9.450
 4532POPC   PO4 5172   9.721   1.225   9.150
 4532POPC   GL1 5173   9.718   1.191   8.850
 4532POPC   GL2 5174   9.905   1.171   8.850
 4532POPC   C1A 5175   9.753   1.176   8.550
 4532POPC   D2A 5176   9.713   1.246   8.250
 4532POPC   C3A 5177   9.709   1.191   7.950
 4532POPC   C4A 5178   9.746   1.190   7.650
 4532POPC   C1B 5179  10.012   1.162   8.550
 4532POPC   C2B 5180   9.984   1.166   8.250
 4532POPC   C3B 5181  10.004   1.243   7.950
 4532POPC   C4B 5182  10.027   1.179   7.650
 4533POPC   NC3 5183  32.998  41.551   9.450
 4533POPC   PO4 5184  33.008  41.591   9.150
 4533POPC   GL1 5185  32.995  41.595   8.850
 4533POPC   GL2 5186  33.135  41.601   8.850
 4533POPC   C1A 5187  33.044  41.585   8.550
 4533POPC   D2A 5188  33.052  41.532   8.250
 4533POPC   C3A 5189  32.984  41.601   7.950
 4533POPC   C4A 5190  33.050  41.596   7.650
 4533POPC   C1B 5191  33.232  41.743   8.550
 4533POPC   C2B 5192  33.249  41.743   8.250
 4533POPC   C3B 5193  33.259  41.697   7.950
 4533POPC   C4B 5194  33.241  41.768   7.650
 4534POPC   NC3 5195  12.038   2.726   9.450
 4534POPC   PO4 5196  12.117   2.772   9.150
 4534POPC   GL1 5197  12.098   2.795   8.850
 4534POPC   GL2 5198  11.979   2.904   8.850
 4534POPC   C1A 5199  12.064   2.744   8.550
 4534POPC   D2A 5200  12.043   2.756   8.250
 4534POPC   C3A 5201  12.099   2.747   7.950
 4534POPC   C4A 5202  12.074   2.806   7.650
 4534POPC   C1B 5203  11.949   2.949   8.550
 4534POPC   C2B 5204  11.956   2.957   8.250
 4534POPC   C3B 5205  11.887   2.965   7.950
 4534POPC   C4B 5206  11.940   2.954   7.650
 4535POPC   NC3 5207  42.370  19.080   9.450
 4535POPC   PO4 5208  42.345  19.095   9.150
 4535POPC   GL1 5209  42.299  19.079   8.850
 4535POPC   GL2 5210  42.393  18.979   8.850
 4535POPC   C1A 5211  42.366  19.019   8.550
 4535POPC   D2A 5212  42.326  19.067   8.250
 4535POPC   C3A 5213  42.286  19.069   7.950
 4535POPC   C4A 5214  42.313  19.104   7.650
 4535POPC   C1B 5215  42.523  18.878   8.550
 4535POPC   C2B 5216  42.541  18.925   8.250
 4535POPC   C3B 5217  42.551  18.931   7.950
 4535POPC   C4B 5218  42.508  18.897   7.650
 4536POPC   NC3 5219   2.000  35.368   9.450
 4536POPC   PO4 5220   2.017  35.394   9.150
 4536POPC   GL1 5221   2.009  35.370   8.850
 4536POPC   GL2 5222   1.947  35.500   8.850
 4536POPC   C1A 5223   1.978  35.339   8.550
 4536POPC   D2A 5224   2.013  35.396   8.250
 4536POPC   C3A 5225   2.026  35.401   7.950
 4536POPC   C4A 5226   1.976  35.389   7.650
 4536POPC   C1B 5227   1.798  35.531   8.550
 4536POPC   C2B 5228   1.875  35.519   8.250
 4536POPC   C3B 5229   1.851  35.508   7.950
 4536POPC   C4B 5230   1.810  35.524   7.650
 4537POPC   NC3 5231   9.746   4.269   9.450
 4537POPC   PO4 5232   9.737   4.278   9.150
 4537POPC   GL1 5233   9.735   4.315   8.850
 4537POPC   GL2 5234   9.822   4.243   8.850
 4537POPC   C1A 5235   9.786   4.348   8.550
 4537POPC   D2A 5236   9.792   4.270   8.250
 4537POPC   C3A 5237   9.786   4.324   7.950
 4537POPC   C4A 5238   9.758   4.360   7.650
 4537POPC   C1B 5239   9.935   4.211   8.550
 4537POPC   C2B 5240   9.993   4.243   8.250
 4537POPC   C3B 5241   9.963   4.250   7.950
 4537POPC   C4B 5242   9.990   4.223   7.650
 4538POPC   NC3 5243   1.960   3.518   9.450
 4538POPC   PO4 5244   2.024   3.553   9.150
 4538POPC   GL1 5245   2.007   3.542   8.850
 4538POPC   GL2 5246   2.097   3.559   8.850
 4538POPC   C1A 5247   1.978   3.588   8.550
 4538POPC   D2A 5248   1.959   3.546   8.250
 4538POPC   C3A 5249   1.956   3.498   7.950
 4538POPC   C4A 5250   1.956   3.568   7.650
 4538POPC   C1B 5251   2.220   3.611   8.550
 4538POPC   C2B 5252   2.178   3.674   8.250
 4538POPC   C3B 5253   2.190   3.665   7.950
 4538POPC   C4B 5254   2.187   3.640   7.650
 4539POPC   NC3 5255  18.291  19.854   9.450
 4539POPC   PO4 5256  18.314  19.808   9.150
 4539POPC   GL1 5257  18.292  19.822   8.850
 4539POPC   GL2 5258  18.343  19.717   8.850
 4539POPC   C1A 5259  18.321  19.868   8.550
 4539POPC   D2A 5260  18.285  19.870   8.250
 4539POPC   C3A 5261  18.300  19.807   7.950
 4539POPC   C4A 5262  18.286  19.831   7.650
 4539POPC   C1B 5263  18.361  19.629   8.550
 4539POPC   C2B 5264  18.296  19.589   8.250
 4539POPC   C3B 5265  18.351  19.552   7.950
 4539POPC   C4B 5266  18.290  19.636   7.650
 4540POPC   NC3 5267  12.046  40.057   9.450
 4540POPC   PO4 5268  12.091  40.014   9.150
 4540POPC   GL1 5269  12.125  39.962   8.850
 4540POPC   GL2 5270  12.056  39.858   8.850
 4540POPC   C1A 5271  12.103  39.983   8.550
 4540POPC   D2A 5272  12.080  40.034   8.250
 4540POPC   C3A 5273  12.125  40.036   7.950
 4540POPC   C4A 5274  12.095  40.029   7.650
 4540POPC   C1B 5275  12.102  39.751   8.550
 4540POPC   C2B 5276  12.091  39.778   8.250
 4540POPC   C3B 5277  12.103  39.773   7.950
 4540POPC   C4B 5278  12.119  39.741   7.650
 4541POPC   NC3 5279   5.076  36.153   9.450
 4541POPC   PO4 5280   5.054  36.097   9.150
 4541POPC   GL1 5281   5.117  36.103   8.850
 4541POPC   GL2 5282   5.181  36.035   8.850
 4541POPC   C1A 5283   5.045  36.162   8.550
 4541POPC   D2A 5284   5.051  36.117   8.250
 4541POPC   C3A 5285   5.065  36.169   7.950
 4541POPC   C4A 5286   5.085  36.148   7.650
 4541POPC   C1B 5287   5.182  35.930   8.550
 4541POPC   C2B 5288   5.211  35.872   8.250
 4541POPC   C3B 5289   5.147  35.859   7.950
 4541POPC   C4B 5290   5.221  35.894   7.650
 4542POPC   NC3 5291  12.885  19.864   9.450
 4542POPC   PO4 5292  12.831  19.827   9.150
 4542POPC   GL1 5293  12.860  19.852   8.850
 4542POPC   GL2 5294  12.691  19.768   8.850
 4542POPC   C1A 5295  12.870  19.792   8.550
 4542POPC   D2A 5296  12.870  19.805   8.250
 4542POPC   C3A 5297  12.873  19.839   7.950
 4542POPC   C4A 5298  12.803  19.809   7.650
 4542POPC   C1B 5299  12.649  19.797   8.550
 4542POPC   C2B 5300  12.633  19.739   8.250
 4542POPC   C3B 5301  12.610  19.749   7.950
 4542POPC   C4B 5302  12.618  19.728   7.650
 4543POPC   NC3 5303  36.895   3.554   9.450
 4543POPC   PO4 5304  36.885   3.524   9.150
 4543POPC   GL1 5305  36.921   3.568   8.850
 4543POPC   GL2 5306  36.987   3.638   8.850
 4543POPC   C1A 5307  36.867   3.506   8.550
 4543POPC   D2A 5308  36.876   3.539   8.250
 4543POPC   C3A 5309  36.940   3.561   7.950
 4543POPC   C4A 5310  36.949   3.586   7.650
 4543POPC   C1B 5311  37.066   3.759   8.550
 4543POPC   C2B 5312  37.043   3.717   8.250
 4543POPC   C3B 5313  37.098   3.729   7.950
 4543POPC   C4B 5314  37.114   3.673   7.650
 4544POPC   NC3 5315  15.170  38.479   9.450
 4544POPC   PO4 5316  15.145  38.420   9.150
 4544POPC   GL1 5317  15.218  38.469   8.850
 4544POPC   GL2 5318  15.226  38.368   8.850
 4544POPC   C1A 5319  15.162  38.479   8.550
 4544POPC   D2A 5320  15.207  38.462   8.250
 4544POPC   C3A 5321  15.196  38.469   7.950
 4544POPC   C4A 5322  15.229  38.484   7.650
 4544POPC   C1B 5323  15.329  38.275   8.550
 4544POPC   C2B 5324  15.280  38.257   8.250
 4544POPC   C3B 5325  15.315  38.270   7.950
 4544POPC   C4B 5326  15.304  38.285   7.650
 4545POPC   NC3 5327  29.959  34.566   9.450
 4545POPC   PO4 5328  29.945  34.588   9.150
 4545POPC   GL1 5329  29.954  34.572   8.850
 4545POPC   GL2 5330  29.879  34.698   8.850
 4545POPC   C1A 5331  29.895  34.587   8.550
 4545POPC   D2A 5332  29.918  34.547   8.250
 4545POPC   C3A 5333  29.903  34.531   7.950
 4545POPC   C4A 5334  29.919  34.543   7.650
 4545POPC   C1B 5335  29.826  34.854   8.550
 4545POPC   C2B 5336  29.923  34.843   8.250
 4545POPC   C3B 5337  29.852  34.868   7.950
 4545POPC   C4B 5338  29.906  34.846   7.650
 4546POPC   NC3 5339  40.761  38.455   9.450
 4546POPC   PO4 5340  40.790  38.439   9.150
 4546POPC   GL1 5341  40.779  38.408   8.850
 4546POPC   GL2 5342  40.736  38.576   8.850
 4546POPC   C1A 5343  40.751  38.480   8.550
 4546POPC   D2A 5344  40.793  38.481   8.250
 4546POPC   C3A 5345  40.739  38.424   7.950
 4546POPC   C4A 5346  40.737  38.452   7.650
 4546POPC   C1B 5347  40.614  38.596   8.550
 4546POPC   C2B 5348  40.588  38.572   8.250
 4546POPC   C3B 5349  40.621  38.656   7.950
 4546POPC   C4B 5350  40.632  38.578   7.650
 4547POPC   NC3 5351  27.557  33.849   9.450
 4547POPC   PO4 5352  27.603  33.794   9.150
 4547POPC   GL1 5353  27.566  33.847   8.850
 4547POPC   GL2 5354  27.672  33.837   8.850
 4547POPC   C1A 5355  27.618  33.791   8.550
 4547POPC   D2A 5356  27.555  33.758   8.250
 4547POPC   C3A 5357  27.640  33.847   7.950
 4547POPC   C4A 5358  27.618  33.780   7.650
 4547POPC   C1B 5359  27.808  33.923   8.550
 4547POPC   C2B 5360  27.783  33.919   8.250
 4547POPC   C3B 5361  27.800  33.874   7.950
 4547POPC   C4B 5362  27.808  33.860   7.650
 4548POPC   NC3 5363  21.414  14.444   9.450
 4548POPC   PO4 5364  21.402  14.427   9.150
 4548POPC   GL1 5365  21.406  14.372   8.850
 4548POPC   GL2 5366  21.472  14.470   8.850
 4548POPC   C1A 5367  21.415  14.367   8.550
 4548POPC   D2A 5368  21.434  14.406   8.250
 4548POPC   C3A 5369  21.368  14.433   7.950
 4548POPC   C4A 5370  21.418  14.406   7.650
 4548POPC   C1B 5371  21.485  14.621   8.550
 4548POPC   C2B 5372  21.532  14.662   8.250
 4548POPC   C3B 5373  21.537  14.576   7.950
 4548POPC   C4B 5374  21.486  14.673   7.650
 4549POPC   NC3 5375   4.361  21.351   9.450
 4549POPC   PO4 5376   4.267  21.423   9.150
 4549POPC   GL1 5377   4.344  21.386   8.850
 4549POPC   GL2 5378   4.333  21.473   8.850
 4549POPC   C1A 5379   4.322  21.385   8.550
 4549POPC   D2A 5380   4.352  21.397   8.250
 4549POPC   C3A 5381   4.360  21.346   7.950
 4549POPC   C4A 5382   4.302  21.354   7.650
 4549POPC   C1B 5383   4.358  21.626   8.550
 4549POPC   C2B 5384   4.344  21.659   8.250
 4549POPC   C3B 5385   4.333  21.621   7.950
 4549POPC   C4B 5386   4.336  21.640   7.650
 4550POPC   NC3 5387  19.878   8.201   9.450
 4550POPC   PO4 5388  19.822   8.226   9.150
 4550POPC   GL1 5389  19.837   8.240   8.850
 4550POPC   GL2 5390  19.878   8.124   8.850
 4550POPC   C1A 5391  19.801   8.161   8.550
 4550POPC   D2A 5392  19.794   8.175   8.250
 4550POPC   C3A 5393  19.811   8.173   7.950
 4550POPC   C4A 5394  19.879   8.197   7.650
 4550POPC   C1B 5395  20.036   8.004   8.550
 4550POPC   C2B 5396  20.047   8.039   8.250
 4550POPC   C3B 5397  20.029   8.031   7.950
 4550POPC   C4B 5398  19.998   8.048   7.650
 4551POPC   NC3 5399   5.085  26.856   9.450
 4551POPC   PO4 5400   5.065  26.800   9.150
 4551POPC   GL1 5401   5.141  26.768   8.850
 4551POPC   GL2 5402   4.962  26.833   8.850
 4551POPC   C1A 5403   5.129  26.821   8.550
 4551POPC   D2A 5404   5.099  26.786   8.250
 4551POPC   C3A 5405   5.136  26.858   7.950
 4551POPC   C4A 5406   5.082  26.857   7.650
 4551POPC   C1B 5407   4.799  26.837   8.550
 4551POPC   C2B 5408   4.862  26.791   8.250
 4551POPC   C3B 5409   4.866  26.828   7.950
 4551POPC   C4B 5410   4.847  26.824   7.650
 4552POPC   NC3 5411  29.892  40.799   9.450
 4552POPC   PO4 5412  29.908  40.783   9.150
 4552POPC   GL1 5413  29.907  40.733   8.850
 4552POPC   GL2 5414  30.064  40.768   8.850
 4552POPC   C1A 5415  29.956  40.742   8.550
 4552POPC   D2A 5416  29.963  40.831   8.250
 4552POPC   C3A 5417  29.919  40.808   7.950
 4552POPC   C4A 5418  29.898  40.806   7.650
 4552POPC   C1B 5419  30.124  40.828   8.550
 4552POPC   C2B 5420  30.206  40.828   8.250
 4552POPC   C3B 5421  30.175  40.849   7.950
 4552POPC   C4B 5422  30.190  40.858   7.650
 4553POPC   NC3 5423   7.449  42.358   9.450
 4553POPC   PO4 5424   7.444  42.338   9.150
 4553POPC   GL1 5425   7.440  42.345   8.850
 4553POPC   GL2 5426   7.408  42.200   8.850
 4553POPC   C1A 5427   7.404  42.288   8.550
 4553POPC   D2A 5428   7.422  42.354   8.250
 4553POPC   C3A 5429   7.379  42.315   7.950
 4553POPC   C4A 5430   7.466  42.313   7.650
 4553POPC   C1B 5431   7.481  42.079   8.550
 4553POPC   C2B 5432   7.497  42.079   8.250
 4553POPC   C3B 5433   7.411  42.091   7.950
 4553POPC   C4B 5434   7.439  42.089   7.650
 4554POPC   NC3 5435  16.760  36.915   9.450
 4554POPC   PO4 5436  16.732  36.910   9.150
 4554POPC   GL1 5437  16.758  36.906   8.850
 4554POPC   GL2 5438  16.601  36.928   8.850
 4554POPC   C1A 5439  16.689  36.860   8.550
 4554POPC   D2A 5440  16.780  36.929   8.250
 4554POPC   C3A 5441  16.718  36.902   7.950
 4554POPC   C4A 5442  16.759  36.948   7.650
 4554POPC   C1B 5443  16.523  37.051   8.550
 4554POPC   C2B 5444  16.479  37.054   8.250
 4554POPC   C3B 5445  16.507  36.985   7.950
 4554POPC   C4B 5446  16.489  36.984   7.650
 4555POPC   NC3 5447  41.518  12.093   9.450
 4555POPC   PO4 5448  41.576  12.049   9.150
 4555POPC   GL1 5449  41.538  12.075   8.850
 4555POPC   GL2 5450  41.505  11.997   8.850
 4555POPC   C1A 5451  41.581  12.043   8.550
 4555POPC   D2A 5452  41.534  12.030   8.250
 4555POPC   C3A 5453  41.593  12.110   7.950
 4555POPC   C4A 5454  41.509  12.042   7.650
 4555POPC   C1B 5455  41.417  11.888   8.550
 4555POPC   C2B 5456  41.458  11.871   8.250
 4555POPC   C3B 5457  41.487  11.899   7.950
 4555POPC   C4B 5458  41.446  11.824   7.650
 4556POPC   NC3 5459  43.062  18.318   9.450
 4556POPC   PO4 5460  43.079  18.330   9.150
 4556POPC   GL1 5461  43.102  18.290   8.850
 4556POPC   GL2 5462  43.083  18.128   8.850
 4556POPC   C1A 5463  43.140  18.315   8.550
 4556POPC   D2A 5464  43.076  18.309   8.250
 4556POPC   C3A 5465  43.141  18.312   7.950
 4556POPC   C4A 5466  43.149  18.260   7.650
 4556POPC   C1B 5467  43.032  18.084   8.550
 4556POPC   C2B 5468  43.036  18.036   8.250
 4556POPC   C3B 5469  42.953  18.039   7.950
 4556POPC   C4B 5470  42.984  18.039   7.650
 4557POPC   NC3 5471   9.716  14.430   9.450
 4557POPC   PO4 5472   9.747  14.428   9.150
 4557POPC   GL1 5473   9.792  14.405   8.850
 4557POPC   GL2 5474   9.636  14.444   8.850
 4557POPC   C1A 5475   9.732  14.434   8.550
 4557POPC   D2A 5476   9.751  14.354   8.250
 4557POPC   C3A 5477   9.739  14.359   7.950
 4557POPC   C4A 5478   9.710  14.358   7.650
 4557POPC   C1B 5479   9.547  14.502   8.550
 4557POPC   C2B 5480   9.542  14.550   8.250
 4557POPC   C3B 5481   9.496  14.531   7.950
 4557POPC   C4B 5482   9.515  14.485   7.650
 4558POPC   NC3 5483  28.380   0.431   9.450
 4558POPC   PO4 5484  28.334   0.408   9.150
 4558POPC   GL1 5485  28.325   0.469   8.850
 4558POPC   GL2 5486  28.331   0.533   8.850
 4558POPC   C1A 5487  28.320   0.469   8.550
 4558POPC   D2A 5488  28.360   0.423   8.250
 4558POPC   C3A 5489  28.380   0.452   7.950
 4558POPC   C4A 5490  28.377   0.411   7.650
 4558POPC   C1B 5491  28.276   0.644   8.550
 4558POPC   C2B 5492  28.307   0.701   8.250
 4558POPC   C3B 5493  28.257   0.631   7.950
 4558POPC   C4B 5494  28.314   0.648   7.650
 4559POPC   NC3 5495  12.852  43.856   9.450
 4559POPC   PO4 5496  12.860  43.875   9.150
 4559POPC   GL1 5497  12.901  43.917   8.850
 4559POPC   GL2 5498  12.749  43.818   8.850
 4559POPC   C1A 5499  12.823  43.849   8.550
 4559POPC   D2A 5500  12.875  43.934   8.250
 4559POPC   C3A 5501  12.824  43.850   7.950
 4559POPC   C4A 5502  12.887  43.881   7.650
 4559POPC   C1B 5503  12.681  43.654   8.550
 4559POPC   C2B 5504  12.677  43.644   8.250
 4559POPC   C3B 5505  12.726  43.674   7.950
 4559POPC   C4B 5506  12.713  43.731   7.650
 4560POPC   NC3 5507  28.398  14.425   9.450
 4560POPC   PO4 5508  28.366  14.442   9.150
 4560POPC   GL1 5509  28.331  14.377   8.850
 4560POPC   GL2 5510  28.354  14.567   8.850
 4560POPC   C1A 5511  28.337  14.371   8.550
 4560POPC   D2A 5512  28.378  14.428   8.250
 4560POPC   C3A 5513  28.412  14.400   7.950
 4560POPC   C4A 5514  28.399  14.420   7.650
 4560POPC   C1B 5515  28.340  14.620   8.550
 4560POPC   C2B 5516  28.371  14.617   8.250
 4560POPC   C3B 5517  28.364  14.655   7.950
 4560POPC   C4B 5518  28.368  14.646   7.650
 4561POPC   NC3 5519  37.726  24.497   9.450
 4561POPC   PO4 5520  37.650  24.504   9.150
 4561POPC   GL1 5521  37.635  24.497   8.850
 4561POPC   GL2 5522  37.530  24.476   8.850
 4561POPC   C1A 5523  37.697  24.499   8.550
 4561POPC   D2A 5524  37.688  24.503   8.250
 4561POPC   C3A 5525  37.664  24.513   7.950
 4561POPC   C4A 5526  37.718  24.492   7.650
 4561POPC   C1B 5527  37.448  24.573   8.550
 4561POPC   C2B 5528  37.384  24.507   8.250
 4561POPC   C3B 5529  37.409  24.488   7.950
 4561POPC   C4B 5530  37.438  24.502   7.650
 4562POPC   NC3 5531  26.789  19.043   9.450
 4562POPC   PO4 5532  26.775  19.024   9.150
 4562POPC   GL1 5533  26.841  19.011   8.850
 4562POPC   GL2 5534  26.953  19.082   8.850
 4562POPC   C1A 5535  26.857  19.038   8.550
 4562POPC   D2A 5536  26.811  19.059   8.250
 4562POPC   C3A 5537  26.801  19.101   7.950
 4562POPC   C4A 5538  26.773  19.069   7.650
 4562POPC   C1B 5539  27.036  19.154   8.550
 4562POPC   C2B 5540  27.076  19.117   8.250
 4562POPC   C3B 5541  27.011  19.190   7.950
 4562POPC   C4B 5542  27.029  19.125   7.650
 4563POPC   NC3 5543  12.082  26.073   9.450
 4563POPC   PO4 5544  12.054  26.000   9.150
 4563POPC   GL1 5545  12.107  26.082   8.850
 4563POPC   GL2 5546  12.028  25.942   8.850
 4563POPC   C1A 5547  12.034  26.012   8.550
 4563POPC   D2A 5548  12.057  26.081   8.250
 4563POPC   C3A 5549  12.037  26.029   7.950
 4563POPC   C4A 5550  12.097  26.020   7.650
 4563POPC   C1B 5551  11.939  25.858   8.550
 4563POPC   C2B 5552  12.016  25.763   8.250
 4563POPC   C3B 5553  12.010  25.817   7.950
 4563POPC   C4B 5554  11.971  25.832   7.650
 4564POPC   NC3 5555  12.061  33.754   9.450
 4564POPC   PO4 5556  12.115  33.813   9.150
 4564POPC   GL1 5557  12.046  33.808   8.850
 4564POPC   GL2 5558  11.998  33.696   8.850
 4564POPC   C1A 5559  12.110  33.786   8.550
 4564POPC   D2A 5560  12.042  33.762   8.250
 4564POPC   C3A 5561  12.109  33.809   7.950
 4564POPC   C4A 5562  12.080  33.801   7.650
 4564POPC   C1B 5563  11.943  33.639   8.550
 4564POPC   C2B 5564  11.971  33.624   8.250
 4564POPC   C3B 5565  11.889  33.587   7.950
 4564POPC   C4B 5566  11.908  33.643   7.650
 4565POPC   NC3 5567   7.455  15.941   9.450
 4565POPC   PO4 5568   7.452  15.936   9.150
 4565POPC   GL1 5569   7.439  15.966   8.850
 4565POPC   GL2 5570   7.535  16.017   8.850
 4565POPC   C1A 5571   7.403  15.958   8.550
 4565POPC   D2A 5572   7.470  15.935   8.250
 4565POPC   C3A 5573   7.430  15.939   7.950
 4565POPC   C4A 5574   7.371  15.983   7.650
 4565POPC   C1B 5575   7.699  15.963   8.550
 4565POPC   C2B 5576   7.717  16.006   8.250
 4565POPC   C3B 5577   7.694  15.999   7.950
 4565POPC   C4B 5578   7.678  16.028   7.650
 4566POPC   NC3 5579  11.338  22.186   9.450
 4566POPC   PO4 5580  11.266  22.161   9.150
 4566POPC   GL1 5581  11.280  22.163   8.850
 4566POPC   GL2 5582  11.170  22.151   8.850
 4566POPC   C1A 5583  11.314  22.207   8.550
 4566POPC   D2A 5584  11.283  22.158   8.250
 4566POPC   C3A 5585  11.265  22.194   7.950
 4566POPC   C4A 5586  11.323  22.186   7.650
 4566POPC   C1B 5587  11.027  22.070   8.550
 4566POPC   C2B 5588  11.014  22.080   8.250
 4566POPC   C3B 5589  11.056  22.074   7.950
 4566POPC   C4B 5590  11.024  22.089   7.650
 4567POPC   NC3 5591   4.303   5.847   9.450
 4567POPC   PO4 5592   4.358   5.909   9.150
 4567POPC   GL1 5593   4.340   5.917   8.850
 4567POPC   GL2 5594   4.181   5.775   8.850
 4567POPC   C1A 5595   4.306   5.833   8.550
 4567POPC   D2A 5596   4.310   5.878   8.250
 4567POPC   C3A 5597   4.316   5.862   7.950
 4567POPC   C4A 5598   4.353   5.822   7.650
 4567POPC   C1B 5599   4.077   5.780   8.550
 4567POPC   C2B 5600   4.079   5.707   8.250
 4567POPC   C3B 5601   4.143   5.730   7.950
 4567POPC   C4B 5602   4.088   5.732   7.650
 4568POPC   NC3 5603  12.111  34.623   9.450
 4568POPC   PO4 5604  12.105  34.552   9.150
 4568POPC   GL1 5605  12.078  34.558   8.850
 4568POPC   GL2 5606  11.989  34.661   8.850
 4568POPC   C1A 5607  12.116  34.543   8.550
 4568POPC   D2A 5608  12.091  34.614   8.250
 4568POPC   C3A 5609  12.030  34.591   7.950
 4568POPC   C4A 5610  12.123  34.582   7.650
 4568POPC   C1B 5611  11.850  34.697   8.550
 4568POPC   C2B 5612  11.818  34.652   8.250
 4568POPC   C3B 5613  11.841  34.653   7.950
 4568POPC   C4B 5614  11.804  34.730   7.650
 4569POPC   NC3 5615   6.609  33.788   9.450
 4569POPC   PO4 5616   6.608  33.765   9.150
 4569POPC   GL1 5617   6.614  33.819   8.850
 4569POPC   GL2 5618   6.785  33.785   8.850
 4569POPC   C1A 5619   6.677  33.844   8.550
 4569POPC   D2A 5620   6.601  33.761   8.250
 4569POPC   C3A 5621   6.601  33.785   7.950
 4569POPC   C4A 5622   6.601  33.776   7.650
 4569POPC   C1B 5623   6.929  33.709   8.550
 4569POPC   C2B 5624   6.886  33.746   8.250
 4569POPC   C3B 5625   6.848  33.750   7.950
 4569POPC   C4B 5626   6.933  33.704   7.650
 4570POPC   NC3 5627  13.604  24.471   9.450
 4570POPC   PO4 5628  13.625  24.440   9.150
 4570POPC   GL1 5629  13.640  24.486   8.850
 4570POPC   GL2 5630  13.485  24.489   8.850
 4570POPC   C1A 5631  13.607  24.474   8.550
 4570POPC   D2A 5632  13.642  24.452   8.250
 4570POPC   C3A 5633  13.617  24.519   7.950
 4570POPC   C4A 5634  13.629  24.446   7.650
 4570POPC   C1B 5635  13.421  24.450   8.550
 4570POPC   C2B 5636  13.396  24.495   8.250
 4570POPC   C3B 5637  13.377  24.448   7.950
 4570POPC   C4B 5638  13.359  24.482   7.650
 4571POPC   NC3 5639  30.728  29.096   9.450
 4571POPC   PO4 5640  30.669  29.139   9.150
 4571POPC   GL1 5641  30.679  29.144   8.850
 4571POPC   GL2 5642  30.752  29.058   8.850
 4571POPC   C1A 5643  30.679  29.146   8.550
 4571POPC   D2A 5644  30.679  29.161   8.250
 4571POPC   C3A 5645  30.663  29.118   7.950
 4571POPC   C4A 5646  30.661  29.137   7.650
 4571POPC   C1B 5647  30.712  28.915   8.550
 4571POPC   C2B 5648  30.747  28.921   8.250
 4571POPC   C3B 5649  30.732  28.868   7.950
 4571POPC   C4B 5650  30.700  28.863   7.650
 4572POPC   NC3 5651  40.022   2.029   9.450
 4572POPC   PO4 5652  39.961   2.020   9.150
 4572POPC   GL1 5653  40.046   1.987   8.850
 4572POPC   GL2 5654  39.935   2.087   8.850
 4572POPC   C1A 5655  40.037   2.032   8.550
 4572POPC   D2A 5656  39.965   2.021   8.250
 4572POPC   C3A 5657  40.025   1.955   7.950
 4572POPC   C4A 5658  40.045   1.945   7.650
 4572POPC   C1B 5659  39.817   2.129   8.550
 4572POPC   C2B 5660  39.754   2.067   8.250
 4572POPC   C3B 5661  39.818   2.079   7.950
 4572POPC   C4B 5662  39.802   2.113   7.650
 4573POPC   NC3 5663  30.742   7.446   9.450
 4573POPC   PO4 5664  30.668   7.429   9.150
 4573POPC   GL1 5665  30.657   7.403   8.850
 4573POPC   GL2 5666  30.644   7.327   8.850
 4573POPC   C1A 5667  30.740   7.409   8.550
 4573POPC   D2A 5668  30.682   7.449   8.250
 4573POPC   C3A 5669  30.737   7.433   7.950
 4573POPC   C4A 5670  30.714   7.415   7.650
 4573POPC   C1B 5671  30.646   7.144   8.550
 4573POPC   C2B 5672  30.647   7.173   8.250
 4573POPC   C3B 5673  30.675   7.188   7.950
 4573POPC   C4B 5674  30.662   7.174   7.650
 4574POPC   NC3 5675  35.340   4.312   9.450
 4574POPC   PO4 5676  35.328   4.365   9.150
 4574POPC   GL1 5677  35.304   4.332   8.850
 4574POPC   GL2 5678  35.431   4.431   8.850
 4574POPC   C1A 5679  35.336   4.356   8.550
 4574POPC   D2A 5680  35.334   4.364   8.250
 4574POPC   C3A 5681  35.400   4.295   7.950
 4574POPC   C4A 5682  35.364   4.284   7.650
 4574POPC   C1B 5683  35.508   4.550   8.550
 4574POPC   C2B 5684  35.514   4.545   8.250
 4574POPC   C3B 5685  35.482   4.481   7.950
 4574POPC   C4B 5686  35.529   4.495   7.650
 4575POPC   NC3 5687  17.460   9.724   9.450
 4575POPC   PO4 5688  17.548   9.790   9.150
 4575POPC   GL1 5689  17.459   9.791   8.850
 4575POPC   GL2 5690  17.645   9.661   8.850
 4575POPC   C1A 5691  17.547   9.735   8.550
 4575POPC   D2A 5692  17.514   9.708   8.250
 4575POPC   C3A 5693  17.518   9.777   7.950
 4575POPC   C4A 5694  17.480   9.719   7.650
 4575POPC   C1B 5695  17.694   9.611   8.550
 4575POPC   C2B 5696  17.686   9.600   8.250
 4575POPC   C3B 5697  17.714   9.595   7.950
 4575POPC   C4B 5698  17.728   9.577   7.650
 4576POPC   NC3 5699  33.763   5.843   9.450
 4576POPC   PO4 5700  33.789   5.836   9.150
 4576POPC   GL1 5701  33.800   5.917   8.850
 4576POPC   GL2 5702  33.775   5.736   8.850
 4576POPC   C1A 5703  33.805   5.890   8.550
 4576POPC   D2A 5704  33.799   5.859   8.250
 4576POPC   C3A 5705  33.814   5.919   7.950
 4576POPC   C4A 5706  33.789   5.915   7.650
 4576POPC   C1B 5707  33.700   5.674   8.550
 4576POPC   C2B 5708  33.700   5.617   8.250
 4576POPC   C3B 5709  33.731   5.657   7.950
 4576POPC   C4B 5710  33.715   5.644   7.650
 4577POPC   NC3 5711  18.258  27.590   9.450
 4577POPC   PO4 5712  18.259  27.606   9.150
 4577POPC   GL1 5713  18.248  27.569   8.850
 4577POPC   GL2 5714  18.154  27.526   8.850
 4577POPC   C1A 5715  18.289  27.590   8.550
 4577POPC   D2A 5716  18.326  27.561   8.250
 4577POPC   C3A 5717  18.328  27.570   7.950
 4577POPC   C4A 5718  18.252  27.592   7.650
 4577POPC   C1B 5719  18.078  27.447   8.550
 4577POPC   C2B 5720  18.041  27.451   8.250
 4577POPC   C3B 5721  18.056  27.426   7.950
 4577POPC   C4B 5722  18.105  27.521   7.650
 4578POPC   NC3 5723  43.934  26.080   9.450
 4578POPC   PO4 5724  43.930  26.037   9.150
 4578POPC   GL1 5725  43.910  26.066   8.850
 4578POPC   GL2 5726  43.963  25.961   8.850
 4578POPC   C1A 5727  43.859  26.083   8.550
 4578POPC   D2A 5728  43.848  26.045   8.250
 4578POPC   C3A 5729  43.931  26.021   7.950
 4578POPC   C4A 5730  43.895  25.993   7.650
 4578POPC   C1B 5731  43.984  25.853   8.550
 4578POPC   C2B 5732  43.941  25.772   8.250
 4578POPC   C3B 5733  43.950  25.820   7.950
 4578POPC   C4B 5734  43.993  25.765   7.650
 4579POPC   NC3 5735   8.971  42.341   9.450
 4579POPC   PO4 5736   9.007  42.300   9.150
 4579POPC   GL1 5737   9.020  42.337   8.850
 4579POPC   GL2 5738   9.060  42.430   8.850
 4579POPC   C1A 5739   8.930  42.354   8.550
 4579POPC   D2A 5740   8.995  42.317   8.250
 4579POPC   C3A 5741   9.019  42.345   7.950
 4579POPC   C4A 5742   8.945  42.309   7.650
 4579POPC   C1B 5743   9.142  42.541   8.550
 4579POPC   C2B 5744   9.160  42.444   8.250
 4579POPC   C3B 5745   9.162  42.472   7.950
 4579POPC   C4B 5746   9.147  42.530   7.650
 4580POPC   NC3 5747   2.794  35.323   9.450
 4580POPC   PO4 5748   2.787  35.394   9.150
 4580POPC   GL1 5749   2.796  35.335   8.850
 4580POPC   GL2 5750   2.727  35.193   8.850
 4580POPC   C1A 5751   2.805  35.341   8.550
 4580POPC   D2A 5752   2.722  35.335   8.250
 4580POPC   C3A 5753   2.720  35.367   7.950
 4580POPC   C4A 5754   2.798  35.361   7.650
 4580POPC   C1B 5755   2.654  35.101   8.550
 4580POPC   C2B 5756   2.662  35.089   8.250
 4580POPC   C3B 5757   2.660  35.087   7.950
 4580POPC   C4B 5758   2.661  35.116   7.650
 4581POPC   NC3 5759  20.614   2.793   9.450
 4581POPC   PO4 5760  20.644   2.762   9.150
 4581POPC   GL1 5761  20.607   2.762   8.850
 4581POPC   GL2 5762  20.510   2.803   8.850
 4581POPC   C1A 5763  20.577   2.749   8.550
 4581POPC   D2A 5764  20.586   2.748   8.250
 4581POPC   C3A 5765  20.595   2.761   7.950
 4581POPC   C4A 5766  20.591   2.803   7.650
 4581POPC   C1B 5767  20.358   2.874   8.550
 4581POPC   C2B 5768  20.350   2.872   8.250
 4581POPC   C3B 5769  20.399   2.815   7.950
 4581POPC   C4B 5770  20.393   2.808   7.650
 4582POPC   NC3 5771  15.193  29.181   9.450
 4582POPC   PO4 5772  15.220  29.133   9.150
 4582POPC   GL1 5773  15.148  29.184   8.850
 4582POPC   GL2 5774  15.336  29.161   8.850
 4582POPC   C1A 5775  15.181  29.132   8.550
 4582POPC   D2A 5776  15.178  29.158   8.250
 4582POPC   C3A 5777  15.227  29.179   7.950
 4582POPC   C4A 5778  15.148  29.109   7.650
 4582POPC   C1B 5779  15.435  29.165   8.550
 4582POPC   C2B 5780  15.412  29.170   8.250
 4582POPC   C3B 5781  15.384  29.122   7.950
 4582POPC   C4B 5782  15.479  29.106   7.650
 4583POPC   NC3 5783  12.033  43.916   9.450
 4583POPC   PO4 5784  12.089  43.927   9.150
 4583POPC   GL1 5785  12.029  43.919   8.850
 4583POPC   GL2 5786  12.141  43.996   8.850
 4583POPC   C1A 5787  12.062  43.890   8.550
 4583POPC   D2A 5788  12.050  43.925   8.250
 4583POPC   C3A 5789  12.088  43.879   7.950
 4583POPC   C4A 5790  12.106  43.896   7.650
 4583POPC   C1B 5791  12.209  44.109   8.550
 4583POPC   C2B 5792  12.201  44.140   8.250
 4583POPC   C3B 5793  12.145  44.092   7.950
 4583POPC   C4B 5794  12.178  44.119   7.650
 4584POPC   NC3 5795  43.922  33.069   9.450
 4584POPC   PO4 5796  43.877  33.016   9.150
 4584POPC   GL1 5797  43.870  33.028   8.850
 4584POPC   GL2 5798  43.742  33.031   8.850
 4584POPC   C1A 5799  43.918  33.025   8.550
 4584POPC   D2A 5800  43.914  33.017   8.250
 4584POPC   C3A 5801  43.935  33.058   7.950
 4584POPC   C4A 5802  43.924  33.025   7.650
 4584POPC   C1B 5803  43.685  33.127   8.550
 4584POPC   C2B 5804  43.662  33.125   8.250
 4584POPC   C3B 5805  43.635  33.081   7.950
 4584POPC   C4B 5806  43.686  33.062   7.650
 4585POPC   NC3 5807   9.006   8.988   9.450
 4585POPC   PO4 5808   9.006   8.933   9.150
 4585POPC   GL1 5809   8.938   8.933   8.850
 4585POPC   GL2 5810   8.960   9.112   8.850
 4585POPC   C1A 5811   8.999   8.997   8.550
 4585POPC   D2A 5812   8.977   8.969   8.250
 4585POPC   C3A 5813   9.003   8.971   7.950
 4585POPC   C4A 5814   8.993   9.022   7.650
 4585POPC   C1B 5815   8.937   9.196   8.550
 4585POPC   C2B 5816   8.971   9.237   8.250
 4585POPC   C3B 5817   9.003   9.225   7.950
 4585POPC   C4B 5818   9.008   9.260   7.650
 4586POPC   NC3 5819   6.642  20.642   9.450
 4586POPC   PO4 5820   6.689  20.656   9.150
 4586POPC   GL1 5821   6.621  20.617   8.850
 4586POPC   GL2 5822   6.611  20.505   8.850
 4586POPC   C1A 5823   6.667  20.563   8.550
 4586POPC   D2A 5824   6.639  20.588   8.250
 4586POPC   C3A 5825   6.686  20.606   7.950
 4586POPC   C4A 5826   6.663  20.606   7.650
 4586POPC   C1B 5827   6.511  20.451   8.550
 4586POPC   C2B 5828   6.532  20.372   8.250
 4586POPC   C3B 5829   6.457  20.392   7.950
 4586POPC   C4B 5830   6.452  20.463   7.650
 4587POPC   NC3 5831   5.052   1.210   9.450
 4587POPC   PO4 5832   5.079   1.197   9.150
 4587POPC   GL1 5833   5.078   1.230   8.850
 4587POPC   GL2 5834   5.216   1.185   8.850
 4587POPC   C1A 5835   5.111   1.196   8.550
 4587POPC   D2A 5836   5.129   1.231   8.250
 4587POPC   C3A 5837   5.139   1.220   7.950
 4587POPC   C4A 5838   5.122   1.209   7.650
 4587POPC   C1B 5839   5.330   1.165   8.550
 4587POPC   C2B 5840   5.333   1.163   8.250
 4587POPC   C3B 5841   5.285   1.182   7.950
 4587POPC   C4B 5842   5.299   1.087   7.650
 4588POPC   NC3 5843  22.145  12.895   9.450
 4588POPC   PO4 5844  22.139  12.894   9.150
 4588POPC   GL1 5845  22.121  12.899   8.850
 4588POPC   GL2 5846  22.053  12.755   8.850
 4588POPC   C1A 5847  22.157  12.828   8.550
 4588POPC   D2A 5848  22.153  12.832   8.250
 4588POPC   C3A 5849  22.141  12.842   7.950
 4588POPC   C4A 5850  22.173  12.869   7.650
 4588POPC   C1B 5851  22.043  12.643   8.550
 4588POPC   C2B 5852  22.015  12.619   8.250
 4588POPC   C3B 5853  22.011  12.686   7.950
 4588POPC   C4B 5854  21.981  12.632   7.650
 4589POPC   NC3 5855  26.010  32.240   9.450
 4589POPC   PO4 5856  26.018  32.250   9.150
 4589POPC   GL1 5857  26.024  32.292   8.850
 4589POPC   GL2 5858  26.159  32.141   8.850
 4589POPC   C1A 5859  26.091  32.225   8.550
 4589POPC   D2A 5860  26.060  32.210   8.250
 4589POPC   C3A 5861  26.017  32.294   7.950
 4589POPC   C4A 5862  26.033  32.284   7.650
 4589POPC   C1B 5863  26.253  32.059   8.550
 4589POPC   C2B 5864  26.234  32.060   8.250
 4589POPC   C3B 5865  26.173  32.101   7.950
 4589POPC   C4B 5866  26.188  32.041   7.650
 4590POPC   NC3 5867  29.965   1.223   9.450
 4590POPC   PO4 5868  29.967   1.222   9.150
 4590POPC   GL1 5869  29.875   1.212   8.850
 4590POPC   GL2 5870  29.851   1.112   8.850
 4590POPC   C1A 5871  29.944   1.235   8.550
 4590POPC   D2A 5872  29.888   1.165   8.250
 4590POPC   C3A 5873  29.964   1.232   7.950
 4590POPC   C4A 5874  29.943   1.245   7.650
 4590POPC   C1B 5875  29.759   1.083   8.550
 4590POPC   C2B 5876  29.743   1.091   8.250
 4590POPC   C3B 5877  29.713   1.051   7.950
 4590POPC   C4B 5878  29.764   1.007   7.650
 4591POPC   NC3 5879  12.099  27.569   9.450
 4591POPC   PO4 5880  12.093  27.602   9.150
 4591POPC   GL1 5881  12.059  27.599   8.850
 4591POPC   GL2 5882  12.058  27.505   8.850
 4591POPC   C1A 5883  12.102  27.568   8.550
 4591POPC   D2A 5884  12.115  27.545   8.250
 4591POPC   C3A 5885  12.049  27.568   7.950
 4591POPC   C4A 5886  12.047  27.558   7.650
 4591POPC   C1B 5887  11.962  27.351   8.550
 4591POPC   C2B 5888  11.941  27.406   8.250
 4591POPC   C3B 5889  11.969  27.343   7.950
 4591POPC   C4B 5890  11.993  27.327   7.650
 4592POPC   NC3 5891  40.818  32.282   9.450
 4592POPC   PO4 5892  40.810  32.248   9.150
 4592POPC   GL1 5893  40.805  32.199   8.850
 4592POPC   GL2 5894  40.788  32.103   8.850
 4592POPC   C1A 5895  40.747  32.280   8.550
 4592POPC   D2A 5896  40.820  32.275   8.250
 4592POPC   C3A 5897  40.799  32.242   7.950
 4592POPC   C4A 5898  40.808  32.223   7.650
 4592POPC   C1B 5899  40.701  32.042   8.550
 4592POPC   C2B 5900  40.692  32.040   8.250
 4592POPC   C3B 5901  40.674  31.990   7.950
 4592POPC   C4B 5902  40.754  32.041   7.650
 4593POPC   NC3 5903   9.700  16.755   9.450
 4593POPC   PO4 5904   9.749  16.719   9.150
 4593POPC   GL1 5905   9.775  16.717   8.850
 4593POPC   GL2 5906   9.663  16.820   8.850
 4593POPC   C1A 5907   9.777  16.684   8.550
 4593POPC   D2A 5908   9.761  16.687   8.250
 4593POPC   C3A 5909   9.739  16.737   7.950
 4593POPC   C4A 5910   9.744  16.689   7.650
 4593POPC   C1B 5911   9.629  16.992   8.550
 4593POPC   C2B 5912   9.676  16.933   8.250
 4593POPC   C3B 5913   9.661  16.962   7.950
 4593POPC   C4B 5914   9.644  16.958   7.650
 4594POPC   NC3 5915  15.186  32.277   9.450
 4594POPC   PO4 5916  15.170  32.260   9.150
 4594POPC   GL1 5917  15.179  32.257   8.850
 4594POPC   GL2 5918  15.149  32.412   8.850
 4594POPC   C1A 5919  15.206  32.274   8.550
 4594POPC   D2A 5920  15.145  32.264   8.250
 4594POPC   C3A 5921  15.214  32.235   7.950
 4594POPC   C4A 5922  15.188  32.274   7.650
 4594POPC   C1B 5923  15.189  32.447   8.550
 4594POPC   C2B 5924  15.108  32.514   8.250
 4594POPC   C3B 5925  15.160  32.500   7.950
 4594POPC   C4B 5926  15.141  32.474   7.650
 4595POPC   NC3 5927  40.044  11.290   9.450
 4595POPC   PO4 5928  40.009  11.323   9.150
 4595POPC   GL1 5929  40.005  11.294   8.850
 4595POPC   GL2 5930  40.006  11.429   8.850
 4595POPC   C1A 5931  39.986  11.263   8.550
 4595POPC   D2A 5932  39.985  11.347   8.250
 4595POPC   C3A 5933  40.044  11.272   7.950
 4595POPC   C4A 5934  39.974  11.330   7.650
 4595POPC   C1B 5935  39.884  11.556   8.550
 4595POPC   C2B 5936  39.879  11.500   8.250
 4595POPC   C3B 5937  39.876  11.524   7.950
 4595POPC   C4B 5938  39.889  11.526   7.650
 4596POPC   NC3 5939  15.930   0.403   9.450
 4596POPC   PO4 5940  15.965   0.487   9.150
 4596POPC   GL1 5941  15.963   0.392   8.850
 4596POPC   GL2 5942  15.960   0.331   8.850
 4596POPC   C1A 5943  15.953   0.428   8.550
 4596POPC   D2A 5944  15.966   0.457   8.250
 4596POPC   C3A 5945  15.916   0.477   7.950
 4596POPC   C4A 5946  15.921   0.437   7.650
 4596POPC   C1B 5947  16.040   0.169   8.550
 4596POPC   C2B 5948  16.010   0.223   8.250
 4596POPC   C3B 5949  15.997   0.187   7.950
 4596POPC   C4B 5950  16.025   0.196   7.650
 4597POPC   NC3 5951  15.174  33.810   9.450
 4597POPC   PO4 5952  15.132  33.845   9.150
 4597POPC   GL1 5953  15.147  33.789   8.850
 4597POPC   GL2 5954  15.224  33.848   8.850
 4597POPC   C1A 5955  15.149  33.804   8.550
 4597POPC   D2A 5956  15.160  33.763   8.250
 4597POPC   C3A 5957  15.199  33.780   7.950
 4597POPC   C4A 5958  15.130  33.850   7.650
 4597POPC   C1B 5959  15.347  33.973   8.550
 4597POPC   C2B 5960  15.363  33.991   8.250
 4597POPC   C3B 5961  15.375  33.929   7.950
 4597POPC   C4B 5962  15.381  33.926   7.650
 4598POPC   NC3 5963   6.624   0.461   9.450
 4598POPC   PO4 5964   6.606   0.425   9.150
 4598POPC   GL1 5965   6.692   0.435   8.850
 4598POPC   GL2 5966   6.662   0.313   8.850
 4598POPC   C1A 5967   6.662   0.468   8.550
 4598POPC   D2A 5968   6.619   0.438   8.250
 4598POPC   C3A 5969   6.618   0.413   7.950
 4598POPC   C4A 5970   6.605   0.406   7.650
 4598POPC   C1B 5971   6.644   0.176   8.550
 4598POPC   C2B 5972   6.613   0.193   8.250
 4598POPC   C3B 5973   6.620   0.207   7.950
 4598POPC   C4B 5974   6.635   0.231   7.650
 4599POPC   NC3 5975  34.573   8.976   9.450
 4599POPC   PO4 5976  34.549   8.988   9.150
 4599POPC   GL1 5977  34.565   8.995   8.850
 4599POPC   GL2 5978  34.469   9.043   8.850
 4599POPC   C1A 5979  34.571   8.947   8.550
 4599POPC   D2A 5980  34.545   9.021   8.250
 4599POPC   C3A 5981  34.624   8.935   7.950
 4599POPC   C4A 5982  34.580   8.986   7.650
 4599POPC   C1B 5983  34.350   8.994   8.550
 4599POPC   C2B 5984  34.362   9.037   8.250
 4599POPC   C3B 5985  34.295   9.028   7.950
 4599POPC   C4B 5986  34.315   8.988   7.650
 4600POPC   NC3 5987   0.430   2.780   9.450
 4600POPC   PO4 5988   0.404   2.738   9.150
 4600POPC   GL1 5989   0.476   2.732   8.850
 4600POPC   GL2 5990   0.294   2.760   8.850
 4600POPC   C1A 5991   0.415   2.780   8.550
 4600POPC   D2A 5992   0.460   2.735   8.250
 4600POPC   C3A 5993   0.399   2.724   7.950
 4600POPC   C4A 5994   0.478   2.794   7.650
 4600POPC   C1B 5995   0.208   2.642   8.550
 4600POPC   C2B 5996   0.243   2.649   8.250
 4600POPC   C3B 5997   0.196   2.627   7.950
 4600POPC   C4B 5998   0.236   2.626   7.650
 4601POPC   NC3 5999  19.024   5.866   9.450
 4601POPC   PO4 6000  19.013   5.900   9.150
 4601POPC   GL1 6001  19.034   5.908   8.850
 4601POPC   GL2 6002  19.081   5.963   8.850
 4601POPC   C1A 6003  19.017   5.822   8.550
 4601POPC   D2A 6004  19.049   5.909   8.250
 4601POPC   C3A 6005  19.097   5.840   7.950
 4601POPC   C4A 6006  19.057   5.897   7.650
 4601POPC   C1B 6007  19.152   6.140   8.550
 4601POPC   C2B 6008  19.160   6.066   8.250
 4601POPC   C3B 6009  19.096   6.111   7.950
 4601POPC   C4B 6010  19.107   6.151   7.650
 4602POPC   NC3 6011   8.946  23.689   9.450
 4602POPC   PO4 6012   8.925  23.672   9.150
 4602POPC   GL1 6013   8.953  23.690   8.850
 4602POPC   GL2 6014   8.915  23.594   8.850
 4602POPC   C1A 6015   8.949  23.677   8.550
 4602POPC   D2A 6016   8.961  23.721   8.250
 4602POPC   C3A 6017   8.971  23.753   7.950
 4602POPC   C4A 6018   8.937  23.684   7.650
 4602POPC   C1B 6019   8.918  23.504   8.550
 4602POPC   C2B 6020   8.960  23.449   8.250
 4602POPC   C3B 6021   8.897  23.422   7.950
 4602POPC   C4B 6022   8.945  23.484   7.650
 4603POPC   NC3 6023  33.063  35.319   9.450
 4603POPC   PO4 6024  33.059  35.308   9.150
 4603POPC   GL1 6025  33.046  35.383   8.850
 4603POPC   GL2 6026  32.930  35.379   8.850
 4603POPC   C1A 6027  33.036  35.337   8.550
 4603POPC   D2A 6028  33.063  35.385   8.250
 4603POPC   C3A 6029  33.014  35.328   7.950
 4603POPC   C4A 6030  33.043  35.395   7.650
 4603POPC   C1B 6031  32.842  35.485   8.550
 4603POPC   C2B 6032  32.851  35.522   8.250
 4603POPC   C3B 6033  32.842  35.474   7.950
 4603POPC   C4B 6034  32.834  35.447   7.650
 4604POPC   NC3 6035   3.495   8.986   9.450
 4604POPC   PO4 6036   3.539   8.978   9.150
 4604POPC   GL1 6037   3.555   8.923   8.850
 4604POPC   GL2 6038   3.697   8.865   8.850
 4604POPC   C1A 6039   3.514   9.002   8.550
 4604POPC   D2A 6040   3.562   8.961   8.250
 4604POPC   C3A 6041   3.529   8.969   7.950
 4604POPC   C4A 6042   3.524   8.983   7.650
 4604POPC   C1B 6043   3.758   8.882   8.550
 4604POPC   C2B 6044   3.713   8.840   8.250
 4604POPC   C3B 6045   3.753   8.846   7.950
 4604POPC   C4B 6046   3.750   8.874   7.650
 4605POPC   NC3 6047  33.027   6.681   9.450
 4605POPC   PO4 6048  33.013   6.605   9.150
 4605POPC   GL1 6049  32.993   6.629   8.850
 4605POPC   GL2 6050  32.872   6.608   8.850
 4605POPC   C1A 6051  33.069   6.685   8.550
 4605POPC   D2A 6052  33.049   6.692   8.250
 4605POPC   C3A 6053  33.049   6.680   7.950
 4605POPC   C4A 6054  33.011   6.626   7.650
 4605POPC   C1B 6055  32.771   6.581   8.550
 4605POPC   C2B 6056  32.803   6.569   8.250
 4605POPC   C3B 6057  32.803   6.623   7.950
 4605POPC   C4B 6058  32.822   6.619   7.650
 4606POPC   NC3 6059  40.769   9.748   9.450
 4606POPC   PO4 6060  40.812   9.773   9.150
 4606POPC   GL1 6061  40.808   9.752   8.850
 4606POPC   GL2 6062  40.892   9.701   8.850
 4606POPC   C1A 6063  40.796   9.726   8.550
 4606POPC   D2A 6064  40.810   9.704   8.250
 4606POPC   C3A 6065  40.744   9.771   7.950
 4606POPC   C4A 6066  40.770   9.795   7.650
 4606POPC   C1B 6067  40.962   9.598   8.550
 4606POPC   C2B 6068  41.009   9.611   8.250
 4606POPC   C3B 6069  40.991   9.672   7.950
 4606POPC   C4B 6070  41.047   9.678   7.650
 4607POPC   NC3 6071  24.482   3.525   9.450
 4607POPC   PO4 6072  24.512   3.533   9.150
 4607POPC   GL1 6073  24.442   3.590   8.850
 4607POPC   GL2 6074  24.578   3.645   8.850
 4607POPC   C1A 6075  24.464   3.523   8.550
 4607POPC   D2A 6076  24.467   3.533   8.250
 4607POPC   C3A 6077  24.494   3.569   7.950
 4607POPC   C4A 6078  24.514   3.549   7.650
 4607POPC   C1B 6079  24.660   3.731   8.550
 4607POPC   C2B 6080  24.583   3.753   8.250
 4607POPC   C3B 6081  24.615   3.761   7.950
 4607POPC   C4B 6082  24.600   3.793   7.650
 4608POPC   NC3 6083   6.630  26.050   9.450
 4608POPC   PO4 6084   6.668  25.993   9.150
 4608POPC   GL1 6085   6.623  26.061   8.850
 4608POPC   GL2 6086   6.559  26.137   8.850
 4608POPC   C1A 6087   6.623  26.006   8.550
 4608POPC   D2A 6088   6.618  26.030   8.250
 4608POPC   C3A 6089   6.616  26.026   7.950
 4608POPC   C4A 6090   6.692  26.038   7.650
 4608POPC   C1B 6091   6.458  26.194   8.550
 4608POPC   C2B 6092   6.479  26.251   8.250
 4608POPC   C3B 6093   6.506  26.165   7.950
 4608POPC   C4B 6094   6.419  26.177   7.650
 4609POPC   NC3 6095  29.104  25.288   9.450
 4609POPC   PO4 6096  29.167  25.240   9.150
 4609POPC   GL1 6097  29.188  25.299   8.850
 4609POPC   GL2 6098  29.076  25.093   8.850
 4609POPC   C1A 6099  29.166  25.289   8.550
 4609POPC   D2A 6100  29.124  25.288   8.250
 4609POPC   C3A 6101  29.098  25.283   7.950
 4609POPC   C4A 6102  29.193  25.237   7.650
 4609POPC   C1B 6103  29.113  24.994   8.550
 4609POPC   C2B 6104  29.052  24.992   8.250
 4609POPC   C3B 6105  29.088  25.044   7.950
 4609POPC   C4B 6106  29.102  25.026   7.650
 4610POPC   NC3 6107  39.256  13.611   9.450
 4610POPC   PO4 6108  39.216  13.608   9.150
 4610POPC   GL1 6109  39.261  13.582   8.850
 4610POPC   GL2 6110  39.232  13.741   8.850
 4610POPC   C1A 6111  39.266  13.628   8.550
 4610POPC   D2A 6112  39.217  13.628   8.250
 4610POPC   C3A 6113  39.205  13.595   7.950
 4610POPC   C4A 6114  39.272  13.599   7.650
 4610POPC   C1B 6115  39.253  13.852   8.550
 4610POPC   C2B 6116  39.170  13.872   8.250
 4610POPC   C3B 6117  39.169  13.915   7.950
 4610POPC   C4B 6118  39.232  13.867   7.650
 4611POPC   NC3 6119   1.235   5.045   9.450
 4611POPC   PO4 6120   1.171   5.130   9.150
 4611POPC   GL1 6121   1.181   5.097   8.850
 4611POPC   GL2 6122   1.373   5.049   8.850
 4611POPC   C1A 6123   1.225   5.099   8.550
 4611POPC   D2A 6124   1.200   5.059   8.250
 4611POPC   C3A 6125   1.241   5.116   7.950
 4611POPC   C4A 6126   1.257   5.071   7.650
 4611POPC   C1B 6127   1.457   4.995   8.550
 4611POPC   C2B 6128   1.443   4.961   8.250
 4611POPC   C3B 6129   1.490   4.970   7.950
 4611POPC   C4B 6130   1.492   5.015   7.650
 4612POPC   NC3 6131  22.906  15.964   9.450
 4612POPC   PO4 6132  22.892  15.966   9.150
 4612POPC   GL1 6133  22.955  15.936   8.850
 4612POPC   GL2 6134  22.872  15.852   8.850
 4612POPC   C1A 6135  22.943  15.933   8.550
 4612POPC   D2A 6136  22.949  15.911   8.250
 4612POPC   C3A 6137  22.918  15.990   7.950
 4612POPC   C4A 6138  22.981  15.955   7.650
 4612POPC   C1B 6139  22.829  15.754   8.550
 4612POPC   C2B 6140  22.786  15.766   8.250
 4612POPC   C3B 6141  22.787  15.746   7.950
 4612POPC   C4B 6142  22.776  15.766   7.650
 4613POPC   NC3 6143  30.713   0.460   9.450
 4613POPC   PO4 6144  30.689   0.402   9.150
 4613POPC   GL1 6145  30.714   0.427   8.850
 4613POPC   GL2 6146  30.608   0.478   8.850
 4613POPC   C1A 6147  30.658   0.458   8.550
 4613POPC   D2A 6148  30.686   0.417   8.250
 4613POPC   C3A 6149  30.665   0.439   7.950
 4613POPC   C4A 6150  30.656   0.442   7.650
 4613POPC   C1B 6151  30.495   0.604   8.550
 4613POPC   C2B 6152  30.522   0.601   8.250
 4613POPC   C3B 6153  30.472   0.562   7.950
 4613POPC   C4B 6154  30.514   0.596   7.650
 4614POPC   NC3 6155   8.242   3.555   9.450
 4614POPC   PO4 6156   8.166   3.547   9.150
 4614POPC   GL1 6157   8.188   3.565   8.850
 4614POPC   GL2 6158   8.329   3.485   8.850
 4614POPC   C1A 6159   8.240   3.560   8.550
 4614POPC   D2A 6160   8.177   3.525   8.250
 4614POPC   C3A 6161   8.148   3.515   7.950
 4614POPC   C4A 6162   8.227   3.504   7.650
 4614POPC   C1B 6163   8.372   3.360   8.550
 4614POPC   C2B 6164   8.415   3.417   8.250
 4614POPC   C3B 6165   8.424   3.425   7.950
 4614POPC   C4B 6166   8.451   3.376   7.650
 4615POPC   NC3 6167  10.502  36.936   9.450
 4615POPC   PO4 6168  10.567  36.945   9.150
 4615POPC   GL1 6169  10.496  36.879   8.850
 4615POPC   GL2 6170  10.611  36.880   8.850
 4615POPC   C1A 6171  10.489  36.928   8.550
 4615POPC   D2A 6172  10.534  36.924   8.250
 4615POPC   C3A 6173  10.499  36.890   7.950
 4615POPC   C4A 6174  10.539  36.913   7.650
 4615POPC   C1B 6175  10.777  36.898   8.550
 4615POPC   C2B 6176  10.795  36.852   8.250
 4615POPC   C3B 6177  10.777  36.865   7.950
 4615POPC   C4B 6178  10.794  36.946   7.650
 4616POPC   NC3 6179  39.261  16.701   9.450
 4616POPC   PO4 6180  39.279  16.730   9.150
 4616POPC   GL1 6181  39.242  16.705   8.850
 4616POPC   GL2 6182  39.308  16.686   8.850
 4616POPC   C1A 6183  39.229  16.775   8.550
 4616POPC   D2A 6184  39.197  16.753   8.250
 4616POPC   C3A 6185  39.236  16.693   7.950
 4616POPC   C4A 6186  39.262  16.745   7.650
 4616POPC   C1B 6187  39.397  16.572   8.550
 4616POPC   C2B 6188  39.382  16.590   8.250
 4616POPC   C3B 6189  39.447  16.548   7.950
 4616POPC   C4B 6190  39.475  16.558   7.650
 4617POPC   NC3 6191  29.937  41.541   9.450
 4617POPC   PO4 6192  29.968  41.599   9.150
 4617POPC   GL1 6193  29.953  41.534   8.850
 4617POPC   GL2 6194  30.001  41.463   8.850
 4617POPC   C1A 6195  29.950  41.596   8.550
 4617POPC   D2A 6196  29.946  41.547   8.250
 4617POPC   C3A 6197  29.956  41.606   7.950
 4617POPC   C4A 6198  29.958  41.570   7.650
 4617POPC   C1B 6199  30.162  41.403   8.550
 4617POPC   C2B 6200  30.149  41.405   8.250
 4617POPC   C3B 6201  30.085  41.362   7.950
 4617POPC   C4B 6202  30.136  41.355   7.650
 4618POPC   NC3 6203  19.821   8.937   9.450
 4618POPC   PO4 6204  19.833   8.940   9.150
 4618POPC   GL1 6205  19.844   8.970   8.850
 4618POPC   GL2 6206  19.995   8.981   8.850
 4618POPC   C1A 6207  19.878   8.998   8.550
 4618POPC   D2A 6208  19.844   9.001   8.250
 4618POPC   C3A 6209  19.841   8.951   7.950
 4618POPC   C4A 6210  19.842   9.010   7.650
 4618POPC   C1B 6211  20.084   9.022   8.550
 4618POPC   C2B 6212  20.050   9.032   8.250
 4618POPC   C3B 6213  20.054   9.047   7.950
 4618POPC   C4B 6214  20.068   8.968   7.650
 4619POPC   NC3 6215  43.843  10.530   9.450
 4619POPC   PO4 6216  43.902  10.502   9.150
 4619POPC   GL1 6217  43.846  10.551   8.850
 4619POPC   GL2 6218  43.941  10.641   8.850
 4619POPC   C1A 6219  43.878  10.557   8.550
 4619POPC   D2A 6220  43.922  10.537   8.250
 4619POPC   C3A 6221  43.851  10.551   7.950
 4619POPC   C4A 6222  43.884  10.516   7.650
 4619POPC   C1B 6223  43.960  10.819   8.550
 4619POPC   C2B 6224  43.896  10.806   8.250
 4619POPC   C3B 6225  43.888  10.760   7.950
 4619POPC   C4B 6226  43.930  10.724   7.650
 4620POPC   NC3 6227  29.110  38.472   9.450
 4620POPC   PO4 6228  29.112  38.418   9.150
 4620POPC   GL1 6229  29.140  38.494   8.850
 4620POPC   GL2 6230  28.993  38.396   8.850
 4620POPC   C1A 6231  29.190  38.435   8.550
 4620POPC   D2A 6232  29.148  38.406   8.250
 4620POPC   C3A 6233  29.151  38.410   7.950
 4620POPC   C4A 6234  29.118  38.408   7.650
 4620POPC   C1B 6235  28.909  38.323   8.550
 4620POPC   C2B 6236  28.900  38.349   8.250
 4620POPC   C3B 6237  28.956  38.327   7.950
 4620POPC   C4B 6238  28.946  38.385   7.650
 4621POPC   NC3 6239  21.422   8.167   9.450
 4621POPC   PO4 6240  21.370   8.234   9.150
 4621POPC   GL1 6241  21.336   8.221   8.850
 4621POPC   GL2 6242  21.470   8.285   8.850
 4621POPC   C1A 6243  21.433   8.213   8.550
 4621POPC   D2A 6244  21.354   8.200   8.250
 4621POPC   C3A 6245  21.430   8.181   7.950
 4621POPC   C4A 6246  21.401   8.167   7.650
 4621POPC   C1B 6247  21.642   8.258   8.550
 4621POPC   C2B 6248  21.612   8.292   8.250
 4621POPC   C3B 6249  21.655   8.235   7.950
 4621POPC   C4B 6250  21.592   8.276   7.650
 4622POPC   NC3 6251  44.630  23.752   9.450
 4622POPC   PO4 6252  44.671  23.676   9.150
 4622POPC   GL1 6253  44.658  23.674   8.850
 4622POPC   GL2 6254  44.799  23.614   8.850
 4622POPC   C1A 6255  44.710  23.694   8.550
 4622POPC   D2A 6256  44.710  23.667   8.250
 4622POPC   C3A 6257  44.618  23.679   7.950
 4622POPC   C4A 6258  44.650  23.676   7.650
 4622POPC   C1B 6259  44.844  23.522   8.550
 4622POPC   C2B 6260  44.842  23.537   8.250
 4622POPC   C3B 6261  44.852  23.556   7.950
 4622POPC   C4B 6262  44.832  23.515   7.650
 4623POPC   NC3 6263   5.115  27.626   9.450
 4623POPC   PO4 6264   5.074  27.589   9.150
 4623POPC   GL1 6265   5.089  27.629   8.850
 4623POPC   GL2 6266   5.189  27.535   8.850
 4623POPC   C1A 6267   5.085  27.565   8.550
 4623POPC   D2A 6268   5.137  27.603   8.250
 4623POPC   C3A 6269   5.081  27.634   7.950
 4623POPC   C4A 6270   5.077  27.549   7.650
 4623POPC   C1B 6271   5.335  27.462   8.550
 4623POPC   C2B 6272   5.335  27.472   8.250
 4623POPC   C3B 6273   5.322  27.542   7.950
 4623POPC   C4B 6274   5.339  27.461   7.650
 4624POPC   NC3 6275  32.239   0.461   9.450
 4624POPC   PO4 6276  32.292   0.414   9.150
 4624POPC   GL1 6277  32.278   0.415   8.850
 4624POPC   GL2 6278  32.313   0.378   8.850
 4624POPC   C1A 6279  32.273   0.392   8.550
 4624POPC   D2A 6280  32.208   0.393   8.250
 4624POPC   C3A 6281  32.207   0.407   7.950
 4624POPC   C4A 6282  32.237   0.419   7.650
 4624POPC   C1B 6283  32.459   0.312   8.550
 4624POPC   C2B 6284  32.446   0.267   8.250
 4624POPC   C3B 6285  32.396   0.305   7.950
 4624POPC   C4B 6286  32.460   0.309   7.650
 4625POPC   NC3 6287  37.727  36.078   9.450
 4625POPC   PO4 6288  37.650  36.085   9.150
 4625POPC   GL1 6289  37.713  36.160   8.850
 4625POPC   GL2 6290  37.806  36.125   8.850
 4625POPC   C1A 6291  37.696  36.174   8.550
 4625POPC   D2A 6292  37.705  36.096   8.250
 4625POPC   C3A 6293  37.703  36.104   7.950
 4625POPC   C4A 6294  37.722  36.092   7.650
 4625POPC   C1B 6295  37.898  36.243   8.550
 4625POPC   C2B 6296  37.903  36.207   8.250
 4625POPC   C3B 6297  37.929  36.193   7.950
 4625POPC   C4B 6298  37.955  36.183   7.650
 4626POPC   NC3 6299  13.631  19.075   9.450
 4626POPC   PO4 6300  13.592  19.061   9.150
 4626POPC   GL1 6301  13.618  19.080   8.850
 4626POPC   GL2 6302  13.718  18.921   8.850
 4626POPC   C1A 6303  13.674  19.059   8.550
 4626POPC   D2A 6304  13.594  19.060   8.250
 4626POPC   C3A 6305  13.620  19.020   7.950
 4626POPC   C4A 6306  13.646  19.077   7.650
 4626POPC   C1B 6307  13.705  18.877   8.550
 4626POPC   C2B 6308  13.682  18.830   8.250
 4626POPC   C3B 6309  13.738  18.847   7.950
 4626POPC   C4B 6310  13.710  18.792   7.650
 4627POPC   NC3 6311  25.300   5.106   9.450
 4627POPC   PO4 6312  25.262   5.091   9.150
 4627POPC   GL1 6313  25.310   5.070   8.850
 4627POPC   GL2 6314  25.229   5.217   8.850
 4627POPC   C1A 6315  25.275   5.062   8.550
 4627POPC   D2A 6316  25.281   5.104   8.250
 4627POPC   C3A 6317  25.312   5.067   7.950
 4627POPC   C4A 6318  25.256   5.047   7.650
 4627POPC   C1B 6319  25.147   5.374   8.550
 4627POPC   C2B 6320  25.215   5.285   8.250
 4627POPC   C3B 6321  25.246   5.289   7.950
 4627POPC   C4B 6322  25.179   5.367   7.650
 4628POPC   NC3 6323  38.448   5.067   9.450
 4628POPC   PO4 6324  38.428   5.057   9.150
 4628POPC   GL1 6325  38.436   5.052   8.850
 4628POPC   GL2 6326  38.447   5.198   8.850
 4628POPC   C1A 6327  38.466   5.101   8.550
 4628POPC   D2A 6328  38.444   5.105   8.250
 4628POPC   C3A 6329  38.409   5.100   7.950
 4628POPC   C4A 6330  38.500   5.126   7.650
 4628POPC   C1B 6331  38.462   5.346   8.550
 4628POPC   C2B 6332  38.489   5.320   8.250
 4628POPC   C3B 6333  38.418   5.317   7.950
 4628POPC   C4B 6334  38.451   5.321   7.650
 4629POPC   NC3 6335  11.282  41.511   9.450
 4629POPC   PO4 6336  11.261  41.577   9.150
 4629POPC   GL1 6337  11.295  41.523   8.850
 4629POPC   GL2 6338  11.228  41.508   8.850
 4629POPC   C1A 6339  11.256  41.569   8.550
 4629POPC   D2A 6340  11.327  41.542   8.250
 4629POPC   C3A 6341  11.340  41.582   7.950
 4629POPC   C4A 6342  11.303  41.603   7.650
 4629POPC   C1B 6343  11.071  41.453   8.550
 4629POPC   C2B 6344  11.034  41.446   8.250
 4629POPC   C3B 6345  11.033  41.478   7.950
 4629POPC   C4B 6346  11.112  41.420   7.650
 4630POPC   NC3 6347  44.695  32.289   9.450
 4630POPC   PO4 6348  44.619  32.266   9.150
 4630POPC   GL1 6349  44.711  32.225   8.850
 4630POPC   GL2 6350  44.771  32.193   8.850
 4630POPC   C1A 6351  44.647  32.216   8.550
 4630POPC   D2A 6352  44.700  32.282   8.250
 4630POPC   C3A 6353  44.703  32.279   7.950
 4630POPC   C4A 6354  44.677  32.244   7.650
 4630POPC   C1B 6355  44.825  32.037   8.550
 4630POPC   C2B 6356  44.837  32.096   8.250
 4630POPC   C3B 6357  44.839  32.016   7.950
 4630POPC   C4B 6358  44.805  32.041   7.650
 4631POPC   NC3 6359  14.385  22.926   9.450
 4631POPC   PO4 6360  14.370  22.970   9.150
 4631POPC   GL1 6361  14.401  22.937   8.850
 4631POPC   GL2 6362  14.574  22.996   8.850
 4631POPC   C1A 6363  14.420  22.940   8.550
 4631POPC   D2A 6364  14.376  22.959   8.250
 4631POPC   C3A 6365  14.394  22.909   7.950
 4631POPC   C4A 6366  14.376  22.961   7.650
 4631POPC   C1B 6367  14.684  23.015   8.550
 4631POPC   C2B 6368  14.615  22.989   8.250
 4631POPC   C3B 6369  14.650  22.976   7.950
 4631POPC   C4B 6370  14.643  22.970   7.650
 4632POPC   NC3 6371  39.228   4.315   9.450
 4632POPC   PO4 6372  39.198   4.328   9.150
 4632POPC   GL1 6373  39.220   4.292   8.850
 4632POPC   GL2 6374  39.207   4.166   8.850
 4632POPC   C1A 6375  39.230   4.273   8.550
 4632POPC   D2A 6376  39.269   4.357   8.250
 4632POPC   C3A 6377  39.232   4.288   7.950
 4632POPC   C4A 6378  39.231   4.333   7.650
 4632POPC   C1B 6379  39.152   4.053   8.550
 4632POPC   C2B 6380  39.228   4.042   8.250
 4632POPC   C3B 6381  39.205   4.098   7.950
 4632POPC   C4B 6382  39.153   4.079   7.650
 4633POPC   NC3 6383  39.222  11.349   9.450
 4633POPC   PO4 6384  39.220  11.262   9.150
 4633POPC   GL1 6385  39.256  11.320   8.850
 4633POPC   GL2 6386  39.138  11.351   8.850
 4633POPC   C1A 6387  39.249  11.345   8.550
 4633POPC   D2A 6388  39.255  11.281   8.250
 4633POPC   C3A 6389  39.235  11.277   7.950
 4633POPC   C4A 6390  39.262  11.307   7.650
 4633POPC   C1B 6391  39.010  11.401   8.550
 4633POPC   C2B 6392  39.051  11.364   8.250
 4633POPC   C3B 6393  39.041  11.415   7.950
 4633POPC   C4B 6394  38.998  11.414   7.650
 4634POPC   NC3 6395   8.226  19.853   9.450
 4634POPC   PO4 6396   8.199  19.799   9.150
 4634POPC   GL1 6397   8.186  19.850   8.850
 4634POPC   GL2 6398   8.214  19.926   8.850
 4634POPC   C1A 6399   8.212  19.882   8.550
 4634POPC   D2A 6400   8.219  19.808   8.250
 4634POPC   C3A 6401   8.181  19.835   7.950
 4634POPC   C4A 6402   8.169  19.863   7.650
 4634POPC   C1B 6403   8.284  20.040   8.550
 4634POPC   C2B 6404   8.230  20.081   8.250
 4634POPC   C3B 6405   8.246  20.082   7.950
 4634POPC   C4B 6406   8.224  20.033   7.650
 4635POPC   NC3 6407   6.652  34.603   9.450
 4635POPC   PO4 6408   6.608  34.590   9.150
 4635POPC   GL1 6409   6.631  34.587   8.850
 4635POPC   GL2 6410   6.590  34.465   8.850
 4635POPC   C1A 6411   6.611  34.551   8.550
 4635POPC   D2A 6412   6.684  34.567   8.250
 4635POPC   C3A 6413   6.620  34.570   7.950
 4635POPC   C4A 6414   6.661  34.556   7.650
 4635POPC   C1B 6415   6.561  34.388   8.550
 4635POPC   C2B 6416   6.504  34.356   8.250
 4635POPC   C3B 6417   6.571  34.399   7.950
 4635POPC   C4B 6418   6.510  34.330   7.650
 4636POPC   NC3 6419  17.541  42.306   9.450
 4636POPC   PO4 6420  17.494  42.325   9.150
 4636POPC   GL1 6421  17.549  42.288   8.850
 4636POPC   GL2 6422  17.392  42.268   8.850
 4636POPC   C1A 6423  17.518  42.335   8.550
 4636POPC   D2A 6424  17.516  42.325   8.250
 4636POPC   C3A 6425  17.476  42.367   7.950
 4636POPC   C4A 6426  17.551  42.345   7.650
 4636POPC   C1B 6427  17.349  42.156   8.550
 4636POPC   C2B 6428  17.361  42.177   8.250
 4636POPC   C3B 6429  17.341  42.164   7.950
 4636POPC   C4B 6430  17.297  42.134   7.650
 4637POPC   NC3 6431  11.313  15.132   9.450
 4637POPC   PO4 6432  11.257  15.183   9.150
 4637POPC   GL1 6433  11.327  15.217   8.850
 4637POPC   GL2 6434  11.377  15.075   8.850
 4637POPC   C1A 6435  11.302  15.211   8.550
 4637POPC   D2A 6436  11.289  15.134   8.250
 4637POPC   C3A 6437  11.348  15.189   7.950
 4637POPC   C4A 6438  11.267  15.226   7.650
 4637POPC   C1B 6439  11.439  14.977   8.550
 4637POPC   C2B 6440  11.483  15.016   8.250
 4637POPC   C3B 6441  11.477  15.027   7.950
 4637POPC   C4B 6442  11.525  15.013   7.650
 4638POPC   NC3 6443  21.348  18.288   9.450
 4638POPC   PO4 6444  21.429  18.243   9.150
 4638POPC   GL1 6445  21.389  18.333   8.850
 4638POPC   GL2 6446  21.525  18.326   8.850
 4638POPC   C1A 6447  21.377  18.249   8.550
 4638POPC   D2A 6448  21.360  18.329   8.250
 4638POPC   C3A 6449  21.343  18.235   7.950
 4638POPC   C4A 6450  21.372  18.303   7.650
 4638POPC   C1B 6451  21.621  18.269   8.550
 4638POPC   C2B 6452  21.612  18.315   8.250
 4638POPC   C3B 6453  21.607  18.282   7.950
 4638POPC   C4B 6454  21.632  18.296   7.650
 4639POPC   NC3 6455  30.726  34.595   9.450
 4639POPC   PO4 6456  30.740  34.624   9.150
 4639POPC   GL1 6457  30.735  34.529   8.850
 4639POPC   GL2 6458  30.823  34.621   8.850
 4639POPC   C1A 6459  30.734  34.588   8.550
 4639POPC   D2A 6460  30.652  34.575   8.250
 4639POPC   C3A 6461  30.684  34.610   7.950
 4639POPC   C4A 6462  30.655  34.579   7.650
 4639POPC   C1B 6463  30.977  34.640   8.550
 4639POPC   C2B 6464  30.907  34.702   8.250
 4639POPC   C3B 6465  30.963  34.643   7.950
 4639POPC   C4B 6466  30.920  34.634   7.650
 4640POPC   NC3 6467  26.865  26.035   9.450
 4640POPC   PO4 6468  26.771  26.043   9.150
 4640POPC   GL1 6469  26.865  26.031   8.850
 4640POPC   GL2 6470  26.914  26.084   8.850
 4640POPC   C1A 6471  26.803  26.064   8.550
 4640POPC   D2A 6472  26.789  26.069   8.250
 4640POPC   C3A 6473  26.812  26.041   7.950
 4640POPC   C4A 6474  26.836  26.058   7.650
 4640POPC   C1B 6475  27.023  26.207   8.550
 4640POPC   C2B 6476  27.020  26.133   8.250
 4640POPC   C3B 6477  27.085  26.136   7.950
 4640POPC   C4B 6478  27.074  26.139   7.650
 4641POPC   NC3 6479  20.630   7.445   9.450
 4641POPC   PO4 6480  20.566   7.447   9.150
 4641POPC   GL1 6481  20.592   7.452   8.850
 4641POPC   GL2 6482  20.600   7.522   8.850
 4641POPC   C1A 6483  20.645   7.380   8.550
 4641POPC   D2A 6484  20.627   7.455   8.250
 4641POPC   C3A 6485  20.591   7.406   7.950
 4641POPC   C4A 6486  20.575   7.425   7.650
 4641POPC   C1B 6487  20.639   7.626   8.550
 4641POPC   C2B 6488  20.728   7.684   8.250
 4641POPC   C3B 6489  20.642   7.638   7.950
 4641POPC   C4B 6490  20.651   7.630   7.650
 4642POPC   NC3 6491  17.497   5.133   9.450
 4642POPC   PO4 6492  17.510   5.091   9.150
 4642POPC   GL1 6493  17.538   5.078   8.850
 4642POPC   GL2 6494  17.388   5.202   8.850
 4642POPC   C1A 6495  17.493   5.064   8.550
 4642POPC   D2A 6496  17.533   5.084   8.250
 4642POPC   C3A 6497  17.476   5.094   7.950
 4642POPC   C4A 6498  17.470   5.082   7.650
 4642POPC   C1B 6499  17.356   5.243   8.550
 4642POPC   C2B 6500  17.341   5.313   8.250
 4642POPC   C3B 6501  17.365   5.303   7.950
 4642POPC   C4B 6502  17.358   5.315   7.650
 4643POPC   NC3 6503  25.224  22.966   9.450
 4643POPC   PO4 6504  25.237  22.965   9.150
 4643POPC   GL1 6505  25.250  22.905   8.850
 4643POPC   GL2 6506  25.114  22.951   8.850
 4643POPC   C1A 6507  25.258  22.903   8.550
 4643POPC   D2A 6508  25.302  22.975   8.250
 4643POPC   C3A 6509  25.236  22.922   7.950
 4643POPC   C4A 6510  25.310  22.895   7.650
 4643POPC   C1B 6511  25.056  22.851   8.550
 4643POPC   C2B 6512  24.997  22.927   8.250
 4643POPC   C3B 6513  24.994  22.903   7.950
 4643POPC   C4B 6514  25.039  22.875   7.650
 4644POPC   NC3 6515  17.473  39.249   9.450
 4644POPC   PO4 6516  17.546  39.223   9.150
 4644POPC   GL1 6517  17.475  39.244   8.850
 4644POPC   GL2 6518  17.504  39.148   8.850
 4644POPC   C1A 6519  17.531  39.184   8.550
 4644POPC   D2A 6520  17.476  39.245   8.250
 4644POPC   C3A 6521  17.481  39.232   7.950
 4644POPC   C4A 6522  17.522  39.218   7.650
 4644POPC   C1B 6523  17.573  38.943   8.550
 4644POPC   C2B 6524  17.509  38.987   8.250
 4644POPC   C3B 6525  17.512  38.975   7.950
 4644POPC   C4B 6526  17.546  39.008   7.650
 4645POPC   NC3 6527  20.589  21.436   9.450
 4645POPC   PO4 6528  20.625  21.347   9.150
 4645POPC   GL1 6529  20.630  21.353   8.850
 4645POPC   GL2 6530  20.601  21.258   8.850
 4645POPC   C1A 6531  20.586  21.411   8.550
 4645POPC   D2A 6532  20.574  21.425   8.250
 4645POPC   C3A 6533  20.637  21.352   7.950
 4645POPC   C4A 6534  20.646  21.412   7.650
 4645POPC   C1B 6535  20.577  21.108   8.550
 4645POPC   C2B 6536  20.623  21.174   8.250
 4645POPC   C3B 6537  20.630  21.106   7.950
 4645POPC   C4B 6538  20.666  21.116   7.650
 4646POPC   NC3 6539  19.804  35.328   9.450
 4646POPC   PO4 6540  19.819  35.318   9.150
 4646POPC   GL1 6541  19.871  35.381   8.850
 4646POPC   GL2 6542  19.884  35.182   8.850
 4646POPC   C1A 6543  19.867  35.341   8.550
 4646POPC   D2A 6544  19.849  35.385   8.250
 4646POPC   C3A 6545  19.792  35.379   7.950
 4646POPC   C4A 6546  19.851  35.322   7.650
 4646POPC   C1B 6547  19.931  35.105   8.550
 4646POPC   C2B 6548  19.895  35.160   8.250
 4646POPC   C3B 6549  19.885  35.117   7.950
 4646POPC   C4B 6550  19.914  35.150   7.650
 4647POPC   NC3 6551   3.523  25.311   9.450
 4647POPC   PO4 6552   3.525  25.289   9.150
 4647POPC   GL1 6553   3.541  25.287   8.850
 4647POPC   GL2 6554   3.475  25.146   8.850
 4647POPC   C1A 6555   3.583  25.277   8.550
 4647POPC   D2A 6556   3.506  25.278   8.250
 4647POPC   C3A 6557   3.555  25.265   7.950
 4647POPC   C4A 6558   3.503  25.295   7.650
 4647POPC   C1B 6559   3.344  25.074   8.550
 4647POPC   C2B 6560   3.352  25.086   8.250
 4647POPC   C3B 6561   3.340  25.073   7.950
 4647POPC   C4B 6562   3.372  25.020   7.650
 4648POPC   NC3 6563  15.916  18.323   9.450
 4648POPC   PO4 6564  15.951  18.283   9.150
 4648POPC   GL1 6565  15.941  18.304   8.850
 4648POPC   GL2 6566  16.056  18.316   8.850
 4648POPC   C1A 6567  15.955  18.314   8.550
 4648POPC   D2A 6568  15.980  18.303   8.250
 4648POPC   C3A 6569  15.969  18.258   7.950
 4648POPC   C4A 6570  15.934  18.309   7.650
 4648POPC   C1B 6571  16.192  18.364   8.550
 4648POPC   C2B 6572  16.187  18.281   8.250
 4648POPC   C3B 6573  16.232  18.286   7.950
 4648POPC   C4B 6574  16.160  18.350   7.650
 4649POPC   NC3 6575  36.089  19.809   9.450
 4649POPC   PO4 6576  36.171  19.820   9.150
 4649POPC   GL1 6577  36.134  19.793   8.850
 4649POPC   GL2 6578  36.237  19.856   8.850
 4649POPC   C1A 6579  36.103  19.843   8.550
 4649POPC   D2A 6580  36.112  19.823   8.250
 4649POPC   C3A 6581  36.095  19.831   7.950
 4649POPC   C4A 6582  36.081  19.849   7.650
 4649POPC   C1B 6583  36.382  19.799   8.550
 4649POPC   C2B 6584  36.326  19.814   8.250
 4649POPC   C3B 6585  36.374  19.806   7.950
 4649POPC   C4B 6586  36.410  19.772   7.650
 4650POPC   NC3 6587  24.503  44.635   9.450
 4650POPC   PO4 6588  24.479  44.704   9.150
 4650POPC   GL1 6589  24.458  44.631   8.850
 4650POPC   GL2 6590  24.568  44.536   8.850
 4650POPC   C1A 6591  24.452  44.668   8.550
 4650POPC   D2A 6592  24.498  44.636   8.250
 4650POPC   C3A 6593  24.455  44.648   7.950
 4650POPC   C4A 6594  24.484  44.708   7.650
 4650POPC   C1B 6595  24.621  44.436   8.550
 4650POPC   C2B 6596  24.579  44.428   8.250
 4650POPC   C3B 6597  24.580  44.422   7.950
 4650POPC   C4B 6598  24.595  44.482   7.650
 4651POPC   NC3 6599  16.745  22.137   9.450
 4651POPC   PO4 6600  16.688  22.176   9.150
 4651POPC   GL1 6601  16.774  22.159   8.850
 4651POPC   GL2 6602  16.810  22.310   8.850
 4651POPC   C1A 6603  16.752  22.140   8.550
 4651POPC   D2A 6604  16.756  22.140   8.250
 4651POPC   C3A 6605  16.769  22.169   7.950
 4651POPC   C4A 6606  16.692  22.183   7.650
 4651POPC   C1B 6607  16.833  22.378   8.550
 4651POPC   C2B 6608  16.804  22.423   8.250
 4651POPC   C3B 6609  16.827  22.384   7.950
 4651POPC   C4B 6610  16.845  22.420   7.650
 4652POPC   NC3 6611  30.734  14.380   9.450
 4652POPC   PO4 6612  30.743  14.366   9.150
 4652POPC   GL1 6613  30.727  14.369   8.850
 4652POPC   GL2 6614  30.607  14.474   8.850
 4652POPC   C1A 6615  30.718  14.422   8.550
 4652POPC   D2A 6616  30.683  14.382   8.250
 4652POPC   C3A 6617  30.724  14.425   7.950
 4652POPC   C4A 6618  30.689  14.443   7.650
 4652POPC   C1B 6619  30.556  14.618   8.550
 4652POPC   C2B 6620  30.546  14.625   8.250
 4652POPC   C3B 6621  30.550  14.636   7.950
 4652POPC   C4B 6622  30.556  14.608   7.650
 4653POPC   NC3 6623  24.479  18.239   9.450
 4653POPC   PO4 6624  24.450  18.317   9.150
 4653POPC   GL1 6625  24.492  18.238   8.850
 4653POPC   GL2 6626  24.556  18.247   8.850
 4653POPC   C1A 6627  24.538  18.255   8.550
 4653POPC   D2A 6628  24.501  18.236   8.250
 4653POPC   C3A 6629  24.474  18.253   7.950
 4653POPC   C4A 6630  24.530  18.248   7.650
 4653POPC   C1B 6631  24.659  18.174   8.550
 4653POPC   C2B 6632  24.732  18.098   8.250
 4653POPC   C3B 6633  24.678  18.181   7.950
 4653POPC   C4B 6634  24.739  18.120   7.650
 4654POPC   NC3 6635  32.238  25.292   9.450
 4654POPC   PO4 6636  32.232  25.248   9.150
 4654POPC   GL1 6637  32.251  25.264   8.850
 4654POPC   GL2 6638  32.316  25.357   8.850
 4654POPC   C1A 6639  32.282  25.310   8.550
 4654POPC   D2A 6640  32.221  25.228   8.250
 4654POPC   C3A 6641  32.288  25.236   7.950
 4654POPC   C4A 6642  32.219  25.251   7.650
 4654POPC   C1B 6643  32.315  25.475   8.550
 4654POPC   C2B 6644  32.309  25.507   8.250
 4654POPC   C3B 6645  32.299  25.529   7.950
 4654POPC   C4B 6646  32.339  25.501   7.650
 4655POPC   NC3 6647   5.061   7.391   9.450
 4655POPC   PO4 6648   5.122   7.376   9.150
 4655POPC   GL1 6649   5.045   7.462   8.850
 4655POPC   GL2 6650   5.224   7.361   8.850
 4655POPC   C1A 6651   5.104   7.446   8.550
 4655POPC   D2A 6652   5.060   7.456   8.250
 4655POPC   C3A 6653   5.071   7.443   7.950
 4655POPC   C4A 6654   5.086   7.425   7.650
 4655POPC   C1B 6655   5.287   7.319   8.550
 4655POPC   C2B 6656   5.357   7.349   8.250
 4655POPC   C3B 6657   5.326   7.363   7.950
 4655POPC   C4B 6658   5.326   7.324   7.650
 4656POPC   NC3 6659   7.459  31.469   9.450
 4656POPC   PO4 6660   7.446  31.439   9.150
 4656POPC   GL1 6661   7.416  31.488   8.850
 4656POPC   GL2 6662   7.344  31.543   8.850
 4656POPC   C1A 6663   7.456  31.501   8.550
 4656POPC   D2A 6664   7.462  31.506   8.250
 4656POPC   C3A 6665   7.450  31.466   7.950
 4656POPC   C4A 6666   7.400  31.469   7.650
 4656POPC   C1B 6667   7.181  31.568   8.550
 4656POPC   C2B 6668   7.234  31.614   8.250
 4656POPC   C3B 6669   7.218  31.592   7.950
 4656POPC   C4B 6670   7.233  31.578   7.650
 4657POPC   NC3 6671   8.157  26.805   9.450
 4657POPC   PO4 6672   8.203  26.864   9.150
 4657POPC   GL1 6673   8.206  26.790   8.850
 4657POPC   GL2 6674   8.295  26.890   8.850
 4657POPC   C1A 6675   8.173  26.814   8.550
 4657POPC   D2A 6676   8.210  26.779   8.250
 4657POPC   C3A 6677   8.215  26.802   7.950
 4657POPC   C4A 6678   8.204  26.833   7.650
 4657POPC   C1B 6679   8.344  26.965   8.550
 4657POPC   C2B 6680   8.358  26.978   8.250
 4657POPC   C3B 6681   8.344  26.999   7.950
 4657POPC   C4B 6682   8.341  26.948   7.650
 4658POPC   NC3 6683   5.061   8.230   9.450
 4658POPC   PO4 6684   5.112   8.156   9.150
 4658POPC   GL1 6685   5.139   8.192   8.850
 4658POPC   GL2 6686   5.011   8.173   8.850
 4658POPC   C1A 6687   5.069   8.205   8.550
 4658POPC   D2A 6688   5.104   8.212   8.250
 4658POPC   C3A 6689   5.064   8.232   7.950
 4658POPC   C4A 6690   5.073   8.175   7.650
 4658POPC   C1B 6691   4.881   8.094   8.550
 4658POPC   C2B 6692   4.918   8.057   8.250
 4658POPC   C3B 6693   4.839   8.086   7.950
 4658POPC   C4B 6694   4.832   8.075   7.650
 4659POPC   NC3 6695  17.549  26.024   9.450
 4659POPC   PO4 6696  17.458  26.033   9.150
 4659POPC   GL1 6697  17.472  26.063   8.850
 4659POPC   GL2 6698  17.489  26.191   8.850
 4659POPC   C1A 6699  17.484  26.041   8.550
 4659POPC   D2A 6700  17.504  26.007   8.250
 4659POPC   C3A 6701  17.479  26.031   7.950
 4659POPC   C4A 6702  17.547  26.084   7.650
 4659POPC   C1B 6703  17.381  26.232   8.550
 4659POPC   C2B 6704  17.378  26.209   8.250
 4659POPC   C3B 6705  17.383  26.281   7.950
 4659POPC   C4B 6706  17.399  26.225   7.650
 4660POPC   NC3 6707  10.524  20.632   9.450
 4660POPC   PO4 6708  10.557  20.643   9.150
 4660POPC   GL1 6709  10.526  20.635   8.850
 4660POPC   GL2 6710  10.547  20.449   8.850
 4660POPC   C1A 6711  10.517  20.619   8.550
 4660POPC   D2A 6712  10.531  20.608   8.250
 4660POPC   C3A 6713  10.490  20.580   7.950
 4660POPC   C4A 6714  10.542  20.659   7.650
 4660POPC   C1B 6715  10.476  20.404   8.550
 4660POPC   C2B 6716  10.430  20.373   8.250
 4660POPC   C3B 6717  10.461  20.380   7.950
 4660POPC   C4B 6718  10.477  20.396   7.650
 4661POPC   NC3 6719   9.744  29.103   9.450
 4661POPC   PO4 6720   9.767  29.154   9.150
 4661POPC   GL1 6721   9.783  29.177   8.850
 4661POPC   GL2 6722   9.663  29.148   8.850
 4661POPC   C1A 6723   9.734  29.138   8.550
 4661POPC   D2A 6724   9.714  29.145   8.250
 4661POPC   C3A 6725   9.767  29.163   7.950
 4661POPC   C4A 6726   9.783  29.161   7.650
 4661POPC   C1B 6727   9.522  29.138   8.550
 4661POPC   C2B 6728   9.542  29.187   8.250
 4661POPC   C3B 6729   9.471  29.178   7.950
 4661POPC   C4B 6730   9.472  29.127   7.650
 4662POPC   NC3 6731  43.112  32.273   9.450
 4662POPC   PO4 6732  43.137  32.208   9.150
 4662POPC   GL1 6733  43.140  32.288   8.850
 4662POPC   GL2 6734  43.186  32.180   8.850
 4662POPC   C1A 6735  43.158  32.280   8.550
 4662POPC   D2A 6736  43.069  32.279   8.250
 4662POPC   C3A 6737  43.105  32.208   7.950
 4662POPC   C4A 6738  43.063  32.238   7.650
 4662POPC   C1B 6739  43.320  32.136   8.550
 4662POPC   C2B 6740  43.350  32.217   8.250
 4662POPC   C3B 6741  43.347  32.146   7.950
 4662POPC   C4B 6742  43.319  32.181   7.650
 4663POPC   NC3 6743  34.537  33.058   9.450
 4663POPC   PO4 6744  34.624  33.031   9.150
 4663POPC   GL1 6745  34.594  33.014   8.850
 4663POPC   GL2 6746  34.622  32.916   8.850
 4663POPC   C1A 6747  34.539  33.010   8.550
 4663POPC   D2A 6748  34.553  33.043   8.250
 4663POPC   C3A 6749  34.570  32.974   7.950
 4663POPC   C4A 6750  34.528  33.072   7.650
 4663POPC   C1B 6751  34.740  32.839   8.550
 4663POPC   C2B 6752  34.740  32.838   8.250
 4663POPC   C3B 6753  34.670  32.832   7.950
 4663POPC   C4B 6754  34.691  32.833   7.650
 4664POPC   NC3 6755   3.496   6.597   9.450
 4664POPC   PO4 6756   3.549   6.682   9.150
 4664POPC   GL1 6757   3.516   6.628   8.850
 4664POPC   GL2 6758   3.503   6.722   8.850
 4664POPC   C1A 6759   3.524   6.628   8.550
 4664POPC   D2A 6760   3.550   6.647   8.250
 4664POPC   C3A 6761   3.514   6.617   7.950
 4664POPC   C4A 6762   3.517   6.677   7.650
 4664POPC   C1B 6763   3.515   6.845   8.550
 4664POPC   C2B 6764   3.533   6.878   8.250
 4664POPC   C3B 6765   3.519   6.884   7.950
 4664POPC   C4B 6766   3.506   6.900   7.650
 4665POPC   NC3 6767  28.406  12.048   9.450
 4665POPC   PO4 6768  28.329  12.046   9.150
 4665POPC   GL1 6769  28.342  12.077   8.850
 4665POPC   GL2 6770  28.380  11.912   8.850
 4665POPC   C1A 6771  28.394  12.047   8.550
 4665POPC   D2A 6772  28.405  12.088   8.250
 4665POPC   C3A 6773  28.332  12.041   7.950
 4665POPC   C4A 6774  28.345  12.048   7.650
 4665POPC   C1B 6775  28.440  11.818   8.550
 4665POPC   C2B 6776  28.396  11.800   8.250
 4665POPC   C3B 6777  28.425  11.824   7.950
 4665POPC   C4B 6778  28.393  11.872   7.650
 4666POPC   NC3 6779  11.273   0.469   9.450
 4666POPC   PO4 6780  11.283   0.416   9.150
 4666POPC   GL1 6781  11.296   0.417   8.850
 4666POPC   GL2 6782  11.324   0.316   8.850
 4666POPC   C1A 6783  11.313   0.481   8.550
 4666POPC   D2A 6784  11.256   0.390   8.250
 4666POPC   C3A 6785  11.322   0.487   7.950
 4666POPC   C4A 6786  11.327   0.421   7.650
 4666POPC   C1B 6787  11.255   0.174   8.550
 4666POPC   C2B 6788  11.243   0.225   8.250
 4666POPC   C3B 6789  11.262   0.170   7.950
 4666POPC   C4B 6790  11.269   0.139   7.650
 4667POPC   NC3 6791  20.602  33.038   9.450
 4667POPC   PO4 6792  20.585  32.982   9.150
 4667POPC   GL1 6793  20.660  33.051   8.850
 4667POPC   GL2 6794  20.675  33.084   8.850
 4667POPC   C1A 6795  20.654  33.015   8.550
 4667POPC   D2A 6796  20.654  33.019   8.250
 4667POPC   C3A 6797  20.581  33.045   7.950
 4667POPC   C4A 6798  20.614  32.989   7.650
 4667POPC   C1B 6799  20.762  33.225   8.550
 4667POPC   C2B 6800  20.764  33.199   8.250
 4667POPC   C3B 6801  20.738  33.259   7.950
 4667POPC   C4B 6802  20.706  33.229   7.650
 4668POPC   NC3 6803  39.230   5.062   9.450
 4668POPC   PO4 6804  39.209   5.114   9.150
 4668POPC   GL1 6805  39.242   5.055   8.850
 4668POPC   GL2 6806  39.116   5.024   8.850
 4668POPC   C1A 6807  39.226   5.090   8.550
 4668POPC   D2A 6808  39.225   5.074   8.250
 4668POPC   C3A 6809  39.186   5.138   7.950
 4668POPC   C4A 6810  39.264   5.067   7.650
 4668POPC   C1B 6811  39.048   4.977   8.550
 4668POPC   C2B 6812  38.999   4.926   8.250
 4668POPC   C3B 6813  39.050   4.926   7.950
 4668POPC   C4B 6814  39.057   4.964   7.650
 4669POPC   NC3 6815  42.336   8.202   9.450
 4669POPC   PO4 6816  42.361   8.170   9.150
 4669POPC   GL1 6817  42.309   8.152   8.850
 4669POPC   GL2 6818  42.449   8.088   8.850
 4669POPC   C1A 6819  42.337   8.192   8.550
 4669POPC   D2A 6820  42.311   8.158   8.250
 4669POPC   C3A 6821  42.319   8.159   7.950
 4669POPC   C4A 6822  42.353   8.234   7.650
 4669POPC   C1B 6823  42.570   8.105   8.550
 4669POPC   C2B 6824  42.502   8.023   8.250
 4669POPC   C3B 6825  42.571   8.091   7.950
 4669POPC   C4B 6826  42.508   8.050   7.650
 4670POPC   NC3 6827  28.414  44.654   9.450
 4670POPC   PO4 6828  28.325  44.678   9.150
 4670POPC   GL1 6829  28.400  44.626   8.850
 4670POPC   GL2 6830  28.404  44.757   8.850
 4670POPC   C1A 6831  28.384  44.697   8.550
 4670POPC   D2A 6832  28.406  44.636   8.250
 4670POPC   C3A 6833  28.328  44.624   7.950
 4670POPC   C4A 6834  28.339  44.661   7.650
 4670POPC   C1B 6835  28.513  44.866   8.550
 4670POPC   C2B 6836  28.553  44.849   8.250
 4670POPC   C3B 6837  28.554  44.894   7.950
 4670POPC   C4B 6838  28.541  44.882   7.650
 4671POPC   NC3 6839  32.206   8.172   9.450
 4671POPC   PO4 6840  32.285   8.209   9.150
 4671POPC   GL1 6841  32.247   8.242   8.850
 4671POPC   GL2 6842  32.235   8.278   8.850
 4671POPC   C1A 6843  32.282   8.151   8.550
 4671POPC   D2A 6844  32.259   8.185   8.250
 4671POPC   C3A 6845  32.284   8.148   7.950
 4671POPC   C4A 6846  32.266   8.209   7.650
 4671POPC   C1B 6847  32.245   8.425   8.550
 4671POPC   C2B 6848  32.231   8.471   8.250
 4671POPC   C3B 6849  32.216   8.448   7.950
 4671POPC   C4B 6850  32.260   8.457   7.650
 4672POPC   NC3 6851  40.831   1.201   9.450
 4672POPC   PO4 6852  40.747   1.234   9.150
 4672POPC   GL1 6853  40.798   1.192   8.850
 4672POPC   GL2 6854  40.677   1.170   8.850
 4672POPC   C1A 6855  40.747   1.216   8.550
 4672POPC   D2A 6856  40.796   1.167   8.250
 4672POPC   C3A 6857  40.751   1.214   7.950
 4672POPC   C4A 6858  40.806   1.194   7.650
 4672POPC   C1B 6859  40.527   1.140   8.550
 4672POPC   C2B 6860  40.545   1.194   8.250
 4672POPC   C3B 6861  40.546   1.137   7.950
 4672POPC   C4B 6862  40.537   1.185   7.650
 4673POPC   NC3 6863   7.465  19.856   9.450
 4673POPC   PO4 6864   7.394  19.815   9.150
 4673POPC   GL1 6865   7.412  19.860   8.850
 4673POPC   GL2 6866   7.402  19.701   8.850
 4673POPC   C1A 6867   7.421  19.847   8.550
 4673POPC   D2A 6868   7.403  19.835   8.250
 4673POPC   C3A 6869   7.459  19.839   7.950
 4673POPC   C4A 6870   7.387  19.877   7.650
 4673POPC   C1B 6871   7.341  19.566   8.550
 4673POPC   C2B 6872   7.335  19.626   8.250
 4673POPC   C3B 6873   7.331  19.588   7.950
 4673POPC   C4B 6874   7.303  19.639   7.650
 4674POPC   NC3 6875  17.513  23.753   9.450
 4674POPC   PO4 6876  17.554  23.687   9.150
 4674POPC   GL1 6877  17.495  23.743   8.850
 4674POPC   GL2 6878  17.339  23.750   8.850
 4674POPC   C1A 6879  17.526  23.729   8.550
 4674POPC   D2A 6880  17.516  23.764   8.250
 4674POPC   C3A 6881  17.489  23.763   7.950
 4674POPC   C4A 6882  17.520  23.683   7.650
 4674POPC   C1B 6883  17.218  23.754   8.550
 4674POPC   C2B 6884  17.302  23.720   8.250
 4674POPC   C3B 6885  17.288  23.741   7.950
 4674POPC   C4B 6886  17.219  23.709   7.650
 4675POPC   NC3 6887   2.803  27.578   9.450
 4675POPC   PO4 6888   2.740  27.558   9.150
 4675POPC   GL1 6889   2.814  27.578   8.850
 4675POPC   GL2 6890   2.630  27.554   8.850
 4675POPC   C1A 6891   2.790  27.618   8.550
 4675POPC   D2A 6892   2.800  27.595   8.250
 4675POPC   C3A 6893   2.742  27.564   7.950
 4675POPC   C4A 6894   2.756  27.591   7.650
 4675POPC   C1B 6895   2.510  27.481   8.550
 4675POPC   C2B 6896   2.504  27.500   8.250
 4675POPC   C3B 6897   2.537  27.511   7.950
 4675POPC   C4B 6898   2.552  27.485   7.650
 4676POPC   NC3 6899  37.705  38.486   9.450
 4676POPC   PO4 6900  37.712  38.433   9.150
 4676POPC   GL1 6901  37.712  38.435   8.850
 4676POPC   GL2 6902  37.697  38.557   8.850
 4676POPC   C1A 6903  37.652  38.481   8.550
 4676POPC   D2A 6904  37.719  38.503   8.250
 4676POPC   C3A 6905  37.696  38.500   7.950
 4676POPC   C4A 6906  37.689  38.482   7.650
 4676POPC   C1B 6907  37.717  38.662   8.550
 4676POPC   C2B 6908  37.714  38.718   8.250
 4676POPC   C3B 6909  37.693  38.690   7.950
 4676POPC   C4B 6910  37.752  38.692   7.650
 4677POPC   NC3 6911  29.891  22.177   9.450
 4677POPC   PO4 6912  29.949  22.212   9.150
 4677POPC   GL1 6913  29.899  22.197   8.850
 4677POPC   GL2 6914  29.999  22.269   8.850
 4677POPC   C1A 6915  29.962  22.112   8.550
 4677POPC   D2A 6916  29.945  22.148   8.250
 4677POPC   C3A 6917  29.897  22.208   7.950
 4677POPC   C4A 6918  29.923  22.122   7.650
 4677POPC   C1B 6919  30.089  22.341   8.550
 4677POPC   C2B 6920  30.053  22.376   8.250
 4677POPC   C3B 6921  30.105  22.386   7.950
 4677POPC   C4B 6922  30.101  22.403   7.650
 4678POPC   NC3 6923   1.184  30.709   9.450
 4678POPC   PO4 6924   1.245  30.745   9.150
 4678POPC   GL1 6925   1.170  30.742   8.850
 4678POPC   GL2 6926   1.287  30.684   8.850
 4678POPC   C1A 6927   1.200  30.648   8.550
 4678POPC   D2A 6928   1.198  30.683   8.250
 4678POPC   C3A 6929   1.178  30.747   7.950
 4678POPC   C4A 6930   1.245  30.701   7.650
 4678POPC   C1B 6931   1.425  30.618   8.550
 4678POPC   C2B 6932   1.485  30.663   8.250
 4678POPC   C3B 6933   1.434  30.687   7.950
 4678POPC   C4B 6934   1.428  30.664   7.650
 4679POPC   NC3 6935   1.962  15.170   9.450
 4679POPC   PO4 6936   2.019  15.223   9.150
 4679POPC   GL1 6937   2.029  15.217   8.850
 4679POPC   GL2 6938   1.887  15.092   8.850
 4679POPC   C1A 6939   2.012  15.161   8.550
 4679POPC   D2A 6940   2.013  15.193   8.250
 4679POPC   C3A 6941   1.986  15.179   7.950
 4679POPC   C4A 6942   2.030  15.167   7.650
 4679POPC   C1B 6943   1.773  15.084   8.550
 4679POPC   C2B 6944   1.725  15.092   8.250
 4679POPC   C3B 6945   1.811  15.120   7.950
 4679POPC   C4B 6946   1.760  15.082   7.650
 4680POPC   NC3 6947  27.548  28.350   9.450
 4680POPC   PO4 6948  27.564  28.396   9.150
 4680POPC   GL1 6949  27.574  28.348   8.850
 4680POPC   GL2 6950  27.530  28.438   8.850
 4680POPC   C1A 6951  27.584  28.337   8.550
 4680POPC   D2A 6952  27.592  28.342   8.250
 4680POPC   C3A 6953  27.639  28.365   7.950
 4680POPC   C4A 6954  27.568  28.411   7.650
 4680POPC   C1B 6955  27.462  28.602   8.550
 4680POPC   C2B 6956  27.467  28.559   8.250
 4680POPC   C3B 6957  27.509  28.614   7.950
 4680POPC   C4B 6958  27.518  28.605   7.650
 4681POPC   NC3 6959  36.873  12.872   9.450
 4681POPC   PO4 6960  36.918  12.841   9.150
 4681POPC   GL1 6961  36.919  12.803   8.850
 4681POPC   GL2 6962  36.848  12.963   8.850
 4681POPC   C1A 6963  36.858  12.899   8.550
 4681POPC   D2A 6964  36.886  12.834   8.250
 4681POPC   C3A 6965  36.874  12.811   7.950
 4681POPC   C4A 6966  36.859  12.900   7.650
 4681POPC   C1B 6967  36.751  13.009   8.550
 4681POPC   C2B 6968  36.783  13.078   8.250
 4681POPC   C3B 6969  36.720  13.019   7.950
 4681POPC   C4B 6970  36.743  13.105   7.650
 4682POPC   NC3 6971  22.953  32.234   9.450
 4682POPC   PO4 6972  22.958  32.293   9.150
 4682POPC   GL1 6973  22.986  32.283   8.850
 4682POPC   GL2 6974  22.819  32.155   8.850
 4682POPC   C1A 6975  22.906  32.284   8.550
 4682POPC   D2A 6976  22.975  32.204   8.250
 4682POPC   C3A 6977  22.907  32.250   7.950
 4682POPC   C4A 6978  22.912  32.256   7.650
 4682POPC   C1B 6979  22.762  32.135   8.550
 4682POPC   C2B 6980  22.787  32.074   8.250
 4682POPC   C3B 6981  22.765  32.061   7.950
 4682POPC   C4B 6982  22.784  32.109   7.650
 4683POPC   NC3 6983  37.689  25.263   9.450
 4683POPC   PO4 6984  37.727  25.284   9.150
 4683POPC   GL1 6985  37.634  25.233   8.850
 4683POPC   GL2 6986  37.618  25.349   8.850
 4683POPC   C1A 6987  37.645  25.266   8.550
 4683POPC   D2A 6988  37.689  25.250   8.250
 4683POPC   C3A 6989  37.686  25.277   7.950
 4683POPC   C4A 6990  37.672  25.238   7.650
 4683POPC   C1B 6991  37.593  25.521   8.550
 4683POPC   C2B 6992  37.627  25.463   8.250
 4683POPC   C3B 6993  37.574  25.460   7.950
 4683POPC   C4B 6994  37.548  25.512   7.650
 4684POPC   NC3 6995  43.893  30.666   9.450
 4684POPC   PO4 6996  43.841  30.713   9.150
 4684POPC   GL1 6997  43.867  30.672   8.850
 4684POPC   GL2 6998  43.835  30.604   8.850
 4684POPC   C1A 6999  43.918  30.691   8.550
 4684POPC   D2A 7000  43.837  30.659   8.250
 4684POPC   C3A 7001  43.894  30.677   7.950
 4684POPC   C4A 7002  43.873  30.694   7.650
 4684POPC   C1B 7003  43.788  30.441   8.550
 4684POPC   C2B 7004  43.800  30.460   8.250
 4684POPC   C3B 7005  43.788  30.481   7.950
 4684POPC   C4B 7006  43.819  30.478   7.650
 4685POPC   NC3 7007   0.407  11.269   9.450
 4685POPC   PO4 7008   0.442  11.344   9.150
 4685POPC   GL1 7009   0.453  11.295   8.850
 4685POPC   GL2 7010   0.308  11.287   8.850
 4685POPC   C1A 7011   0.462  11.314   8.550
 4685POPC   D2A 7012   0.431  11.266   8.250
 4685POPC   C3A 7013   0.419  11.276   7.950
 4685POPC   C4A 7014   0.413  11.262   7.650
 4685POPC   C1B 7015   0.236  11.218   8.550
 4685POPC   C2B 7016   0.192  11.212   8.250
 4685POPC   C3B 7017   0.200  11.158   7.950
 4685POPC   C4B 7018   0.207  11.155   7.650
 4686POPC   NC3 7019  15.911  10.484   9.450
 4686POPC   PO4 7020  15.994  10.479   9.150
 4686POPC   GL1 7021  15.993  10.542   8.850
 4686POPC   GL2 7022  15.830  10.498   8.850
 4686POPC   C1A 7023  16.000  10.557   8.550
 4686POPC   D2A 7024  15.923  10.524   8.250
 4686POPC   C3A 7025  16.004  10.521   7.950
 4686POPC   C4A 7026  15.926  10.550   7.650
 4686POPC   C1B 7027  15.784  10.434   8.550
 4686POPC   C2B 7028  15.788  10.383   8.250
 4686POPC   C3B 7029  15.743  10.374   7.950
 4686POPC   C4B 7030  15.764  10.376   7.650
 4687POPC   NC3 7031  37.696   2.037   9.450
 4687POPC   PO4 7032  37.642   1.949   9.150
 4687POPC   GL1 7033  37.665   1.983   8.850
 4687POPC   GL2 7034  37.565   1.958   8.850
 4687POPC   C1A 7035  37.631   1.990   8.550
 4687POPC   D2A 7036  37.728   2.029   8.250
 4687POPC   C3A 7037  37.689   2.017   7.950
 4687POPC   C4A 7038  37.677   1.977   7.650
 4687POPC   C1B 7039  37.457   1.932   8.550
 4687POPC   C2B 7040  37.390   2.015   8.250
 4687POPC   C3B 7041  37.462   1.999   7.950
 4687POPC   C4B 7042  37.423   1.957   7.650
 4688POPC   NC3 7043  42.350  11.264   9.450
 4688POPC   PO4 7044  42.334  11.266   9.150
 4688POPC   GL1 7045  42.348  11.264   8.850
 4688POPC   GL2 7046  42.394  11.401   8.850
 4688POPC   C1A 7047  42.368  11.252   8.550
 4688POPC   D2A 7048  42.364  11.256   8.250
 4688POPC   C3A 7049  42.354  11.264   7.950
 4688POPC   C4A 7050  42.321  11.344   7.650
 4688POPC   C1B 7051  42.422  11.515   8.550
 4688POPC   C2B 7052  42.492  11.552   8.250
 4688POPC   C3B 7053  42.446  11.499   7.950
 4688POPC   C4B 7054  42.509  11.548   7.650
 4689POPC   NC3 7055  15.134  37.680   9.450
 4689POPC   PO4 7056  15.185  37.722   9.150
 4689POPC   GL1 7057  15.223  37.679   8.850
 4689POPC   GL2 7058  15.028  37.740   8.850
 4689POPC   C1A 7059  15.145  37.654   8.550
 4689POPC   D2A 7060  15.215  37.659   8.250
 4689POPC   C3A 7061  15.213  37.651   7.950
 4689POPC   C4A 7062  15.207  37.640   7.650
 4689POPC   C1B 7063  14.963  37.781   8.550
 4689POPC   C2B 7064  14.926  37.738   8.250
 4689POPC   C3B 7065  14.956  37.691   7.950
 4689POPC   C4B 7066  14.892  37.714   7.650
 4690POPC   NC3 7067   0.408  28.398   9.450
 4690POPC   PO4 7068   0.465  28.362   9.150
 4690POPC   GL1 7069   0.468  28.353   8.850
 4690POPC   GL2 7070   0.585  28.280   8.850
 4690POPC   C1A 7071   0.406  28.403   8.550
 4690POPC   D2A 7072   0.426  28.346   8.250
 4690POPC   C3A 7073   0.453  28.362   7.950
 4690POPC   C4A 7074   0.414  28.340   7.650
 4690POPC   C1B 7075   0.711  28.238   8.550
 4690POPC   C2B 7076   0.668  28.268   8.250
 4690POPC   C3B 7077   0.701  28.239   7.950
 4690POPC   C4B 7078   0.642  28.245   7.650
 4691POPC   NC3 7079  23.708  44.631   9.450
 4691POPC   PO4 7080  23.714  44.685   9.150
 4691POPC   GL1 7081  23.680  44.689   8.850
 4691POPC   GL2 7082  23.635  44.612   8.850
 4691POPC   C1A 7083  23.696  44.672   8.550
 4691POPC   D2A 7084  23.724  44.658   8.250
 4691POPC   C3A 7085  23.718  44.687   7.950
 4691POPC   C4A 7086  23.738  44.623   7.650
 4691POPC   C1B 7087  23.502  44.567   8.550
 4691POPC   C2B 7088  23.468  44.476   8.250
 4691POPC   C3B 7089  23.505  44.553   7.950
 4691POPC   C4B 7090  23.493  44.525   7.650
 4692POPC   NC3 7091   5.868  39.185   9.450
 4692POPC   PO4 7092   5.867  39.237   9.150
 4692POPC   GL1 7093   5.906  39.198   8.850
 4692POPC   GL2 7094   6.008  39.181   8.850
 4692POPC   C1A 7095   5.848  39.239   8.550
 4692POPC   D2A 7096   5.841  39.211   8.250
 4692POPC   C3A 7097   5.889  39.241   7.950
 4692POPC   C4A 7098   5.835  39.248   7.650
 4692POPC   C1B 7099   6.086  39.220   8.550
 4692POPC   C2B 7100   6.150  39.198   8.250
 4692POPC   C3B 7101   6.067  39.230   7.950
 4692POPC   C4B 7102   6.109  39.149   7.650
 4693POPC   NC3 7103  29.914  44.650   9.450
 4693POPC   PO4 7104  29.909  44.639   9.150
 4693POPC   GL1 7105  29.956  44.703   8.850
 4693POPC   GL2 7106  29.789  44.640   8.850
 4693POPC   C1A 7107  29.954  44.622   8.550
 4693POPC   D2A 7108  29.905  44.616   8.250
 4693POPC   C3A 7109  29.909  44.670   7.950
 4693POPC   C4A 7110  29.882  44.622   7.650
 4693POPC   C1B 7111  29.708  44.646   8.550
 4693POPC   C2B 7112  29.711  44.635   8.250
 4693POPC   C3B 7113  29.715  44.596   7.950
 4693POPC   C4B 7114  29.629  44.608   7.650
 4694POPC   NC3 7115  18.269   9.770   9.450
 4694POPC   PO4 7116  18.234   9.713   9.150
 4694POPC   GL1 7117  18.290   9.741   8.850
 4694POPC   GL2 7118  18.302   9.610   8.850
 4694POPC   C1A 7119  18.260   9.789   8.550
 4694POPC   D2A 7120  18.295   9.743   8.250
 4694POPC   C3A 7121  18.256   9.783   7.950
 4694POPC   C4A 7122  18.284   9.788   7.650
 4694POPC   C1B 7123  18.422   9.517   8.550
 4694POPC   C2B 7124  18.431   9.498   8.250
 4694POPC   C3B 7125  18.413   9.561   7.950
 4694POPC   C4B 7126  18.351   9.514   7.650
 4695POPC   NC3 7127   4.316  28.390   9.450
 4695POPC   PO4 7128   4.308  28.387   9.150
 4695POPC   GL1 7129   4.293  28.323   8.850
 4695POPC   GL2 7130   4.432  28.489   8.850
 4695POPC   C1A 7131   4.353  28.418   8.550
 4695POPC   D2A 7132   4.268  28.385   8.250
 4695POPC   C3A 7133   4.317  28.392   7.950
 4695POPC   C4A 7134   4.291  28.359   7.650
 4695POPC   C1B 7135   4.449  28.551   8.550
 4695POPC   C2B 7136   4.450  28.574   8.250
 4695POPC   C3B 7137   4.415  28.612   7.950
 4695POPC   C4B 7138   4.441  28.617   7.650
 4696POPC   NC3 7139  25.996  23.679   9.450
 4696POPC   PO4 7140  26.008  23.726   9.150
 4696POPC   GL1 7141  26.072  23.737   8.850
 4696POPC   GL2 7142  25.897  23.659   8.850
 4696POPC   C1A 7143  26.063  23.729   8.550
 4696POPC   D2A 7144  25.998  23.744   8.250
 4696POPC   C3A 7145  26.051  23.675   7.950
 4696POPC   C4A 7146  26.007  23.683   7.650
 4696POPC   C1B 7147  25.792  23.588   8.550
 4696POPC   C2B 7148  25.774  23.626   8.250
 4696POPC   C3B 7149  25.799  23.618   7.950
 4696POPC   C4B 7150  25.857  23.612   7.650
 4697POPC   NC3 7151  37.698  43.127   9.450
 4697POPC   PO4 7152  37.691  43.155   9.150
 4697POPC   GL1 7153  37.700  43.153   8.850
 4697POPC   GL2 7154  37.572  43.157   8.850
 4697POPC   C1A 7155  37.697  43.087   8.550
 4697POPC   D2A 7156  37.664  43.099   8.250
 4697POPC   C3A 7157  37.661  43.111   7.950
 4697POPC   C4A 7158  37.657  43.094   7.650
 4697POPC   C1B 7159  37.456  43.213   8.550
 4697POPC   C2B 7160  37.452  43.253   8.250
 4697POPC   C3B 7161  37.520  43.228   7.950
 4697POPC   C4B 7162  37.519  43.266   7.650
 4698POPC   NC3 7163  12.076  39.251   9.450
 4698POPC   PO4 7164  12.115  39.281   9.150
 4698POPC   GL1 7165  12.027  39.232   8.850
 4698POPC   GL2 7166  12.126  39.149   8.850
 4698POPC   C1A 7167  12.107  39.225   8.550
 4698POPC   D2A 7168  12.073  39.201   8.250
 4698POPC   C3A 7169  12.073  39.215   7.950
 4698POPC   C4A 7170  12.070  39.213   7.650
 4698POPC   C1B 7171  12.248  39.048   8.550
 4698POPC   C2B 7172  12.226  39.021   8.250
 4698POPC   C3B 7173  12.231  39.031   7.950
 4698POPC   C4B 7174  12.277  39.020   7.650
 4699POPC   NC3 7175  28.354   5.048   9.450
 4699POPC   PO4 7176  28.369   5.104   9.150
 4699POPC   GL1 7177  28.402   5.092   8.850
 4699POPC   GL2 7178  28.224   5.032   8.850
 4699POPC   C1A 7179  28.335   5.096   8.550
 4699POPC   D2A 7180  28.412   5.077   8.250
 4699POPC   C3A 7181  28.390   5.061   7.950
 4699POPC   C4A 7182  28.405   5.121   7.650
 4699POPC   C1B 7183  28.153   5.026   8.550
 4699POPC   C2B 7184  28.139   5.073   8.250
 4699POPC   C3B 7185  28.093   5.111   7.950
 4699POPC   C4B 7186  28.096   5.114   7.650
 4700POPC   NC3 7187  19.016  43.916   9.450
 4700POPC   PO4 7188  19.081  43.862   9.150
 4700POPC   GL1 7189  19.026  43.928   8.850
 4700POPC   GL2 7190  19.149  43.764   8.850
 4700POPC   C1A 7191  19.011  43.928   8.550
 4700POPC   D2A 7192  19.064  43.909   8.250
 4700POPC   C3A 7193  19.097  43.857   7.950
 4700POPC   C4A 7194  19.034  43.841   7.650
 4700POPC   C1B 7195  19.189  43.656   8.550
 4700POPC   C2B 7196  19.229  43.651   8.250
 4700POPC   C3B 7197  19.209  43.730   7.950
 4700POPC   C4B 7198  19.196  43.729   7.650
 4701POPC   NC3 7199   3.527  44.643   9.450
 4701POPC   PO4 7200   3.515  44.616   9.150
 4701POPC   GL1 7201   3.530  44.684   8.850
 4701POPC   GL2 7202   3.496  44.816   8.850
 4701POPC   C1A 7203   3.526  44.672   8.550
 4701POPC   D2A 7204   3.524  44.636   8.250
 4701POPC   C3A 7205   3.509  44.615   7.950
 4701POPC   C4A 7206   3.496  44.620   7.650
 4701POPC   C1B 7207   3.538  44.863   8.550
 4701POPC   C2B 7208   3.525  44.864   8.250
 4701POPC   C3B 7209   3.515  44.956   7.950
 4701POPC   C4B 7210   3.479  44.916   7.650
 4702POPC   NC3 7211  20.590  25.242   9.450
 4702POPC   PO4 7212  20.637  25.271   9.150
 4702POPC   GL1 7213  20.600  25.272   8.850
 4702POPC   GL2 7214  20.507  25.149   8.850
 4702POPC   C1A 7215  20.659  25.290   8.550
 4702POPC   D2A 7216  20.629  25.300   8.250
 4702POPC   C3A 7217  20.599  25.310   7.950
 4702POPC   C4A 7218  20.605  25.271   7.650
 4702POPC   C1B 7219  20.429  25.161   8.550
 4702POPC   C2B 7220  20.430  25.129   8.250
 4702POPC   C3B 7221  20.365  25.118   7.950
 4702POPC   C4B 7222  20.413  25.102   7.650
 4703POPC   NC3 7223  43.112  33.049   9.450
 4703POPC   PO4 7224  43.065  33.001   9.150
 4703POPC   GL1 7225  43.120  33.050   8.850
 4703POPC   GL2 7226  43.223  32.962   8.850
 4703POPC   C1A 7227  43.062  33.007   8.550
 4703POPC   D2A 7228  43.092  32.993   8.250
 4703POPC   C3A 7229  43.107  33.015   7.950
 4703POPC   C4A 7230  43.114  33.067   7.650
 4703POPC   C1B 7231  43.293  32.963   8.550
 4703POPC   C2B 7232  43.330  32.934   8.250
 4703POPC   C3B 7233  43.286  32.934   7.950
 4703POPC   C4B 7234  43.286  32.930   7.650
 4704POPC   NC3 7235  34.533   1.949   9.450
 4704POPC   PO4 7236  34.581   1.977   9.150
 4704POPC   GL1 7237  34.577   1.955   8.850
 4704POPC   GL2 7238  34.587   2.078   8.850
 4704POPC   C1A 7239  34.536   1.968   8.550
 4704POPC   D2A 7240  34.604   1.961   8.250
 4704POPC   C3A 7241  34.532   2.010   7.950
 4704POPC   C4A 7242  34.532   1.980   7.650
 4704POPC   C1B 7243  34.668   2.206   8.550
 4704POPC   C2B 7244  34.680   2.241   8.250
 4704POPC   C3B 7245  34.720   2.214   7.950
 4704POPC   C4B 7246  34.680   2.231   7.650
 4705POPC   NC3 7247  32.237  29.158   9.450
 4705POPC   PO4 7248  32.219  29.188   9.150
 4705POPC   GL1 7249  32.281  29.191   8.850
 4705POPC   GL2 7250  32.197  29.030   8.850
 4705POPC   C1A 7251  32.222  29.142   8.550
 4705POPC   D2A 7252  32.262  29.153   8.250
 4705POPC   C3A 7253  32.202  29.162   7.950
 4705POPC   C4A 7254  32.231  29.143   7.650
 4705POPC   C1B 7255  32.230  28.913   8.550
 4705POPC   C2B 7256  32.178  28.902   8.250
 4705POPC   C3B 7257  32.220  28.874   7.950
 4705POPC   C4B 7258  32.261  28.943   7.650
 4706POPC   NC3 7259   3.519  27.643   9.450
 4706POPC   PO4 7260   3.583  27.601   9.150
 4706POPC   GL1 7261   3.516  27.561   8.850
 4706POPC   GL2 7262   3.630  27.625   8.850
 4706POPC   C1A 7263   3.507  27.554   8.550
 4706POPC   D2A 7264   3.582  27.639   8.250
 4706POPC   C3A 7265   3.588  27.563   7.950
 4706POPC   C4A 7266   3.496  27.587   7.650
 4706POPC   C1B 7267   3.790  27.681   8.550
 4706POPC   C2B 7268   3.788  27.591   8.250
 4706POPC   C3B 7269   3.788  27.590   7.950
 4706POPC   C4B 7270   3.749  27.593   7.650
 4707POPC   NC3 7271  44.652  17.513   9.450
 4707POPC   PO4 7272  44.652  17.550   9.150
 4707POPC   GL1 7273  44.651  17.545   8.850
 4707POPC   GL2 7274  44.736  17.395   8.850
 4707POPC   C1A 7275  44.626  17.513   8.550
 4707POPC   D2A 7276  44.617  17.506   8.250
 4707POPC   C3A 7277  44.612  17.537   7.950
 4707POPC   C4A 7278  44.613  17.552   7.650
 4707POPC   C1B 7279  44.894  17.386   8.550
 4707POPC   C2B 7280  44.872  17.338   8.250
 4707POPC   C3B 7281  44.800  17.330   7.950
 4707POPC   C4B 7282  44.799  17.367   7.650
 4708POPC   NC3 7283   0.392  36.111   9.450
 4708POPC   PO4 7284   0.441  36.080   9.150
 4708POPC   GL1 7285   0.427  36.145   8.850
 4708POPC   GL2 7286   0.325  36.253   8.850
 4708POPC   C1A 7287   0.482  36.147   8.550
 4708POPC   D2A 7288   0.425  36.108   8.250
 4708POPC   C3A 7289   0.435  36.157   7.950
 4708POPC   C4A 7290   0.430  36.176   7.650
 4708POPC   C1B 7291   0.269  36.295   8.550
 4708POPC   C2B 7292   0.319  36.305   8.250
 4708POPC   C3B 7293   0.263  36.299   7.950
 4708POPC   C4B 7294   0.273  36.311   7.650
 4709POPC   NC3 7295  28.347   5.881   9.450
 4709POPC   PO4 7296  28.375   5.850   9.150
 4709POPC   GL1 7297  28.383   5.844   8.850
 4709POPC   GL2 7298  28.299   5.730   8.850
 4709POPC   C1A 7299  28.352   5.856   8.550
 4709POPC   D2A 7300  28.324   5.841   8.250
 4709POPC   C3A 7301  28.343   5.877   7.950
 4709POPC   C4A 7302  28.390   5.917   7.650
 4709POPC   C1B 7303  28.245   5.701   8.550
 4709POPC   C2B 7304  28.260   5.607   8.250
 4709POPC   C3B 7305  28.292   5.614   7.950
 4709POPC   C4B 7306  28.288   5.645   7.650
 4710POPC   NC3 7307   1.248  40.035   9.450
 4710POPC   PO4 7308   1.190  39.987   9.150
 4710POPC   GL1 7309   1.250  39.981   8.850
 4710POPC   GL2 7310   1.255  39.853   8.850
 4710POPC   C1A 7311   1.220  40.024   8.550
 4710POPC   D2A 7312   1.236  40.055   8.250
 4710POPC   C3A 7313   1.190  39.989   7.950
 4710POPC   C4A 7314   1.177  39.991   7.650
 4710POPC   C1B 7315   1.247  39.747   8.550
 4710POPC   C2B 7316   1.235  39.732   8.250
 4710POPC   C3B 7317   1.290  39.790   7.950
 4710POPC   C4B 7318   1.301  39.788   7.650
 4711POPC   NC3 7319  25.271  14.355   9.450
 4711POPC   PO4 7320  25.257  14.362   9.150
 4711POPC   GL1 7321  25.301  14.389   8.850
 4711POPC   GL2 7322  25.347  14.409   8.850
 4711POPC   C1A 7323  25.231  14.406   8.550
 4711POPC   D2A 7324  25.282  14.376   8.250
 4711POPC   C3A 7325  25.286  14.406   7.950
 4711POPC   C4A 7326  25.264  14.384   7.650
 4711POPC   C1B 7327  25.489  14.419   8.550
 4711POPC   C2B 7328  25.498  14.440   8.250
 4711POPC   C3B 7329  25.488  14.443   7.950
 4711POPC   C4B 7330  25.516  14.437   7.650
 4712POPC   NC3 7331  24.450  15.954   9.450
 4712POPC   PO4 7332  24.535  15.985   9.150
 4712POPC   GL1 7333  24.457  15.979   8.850
 4712POPC   GL2 7334  24.633  15.950   8.850
 4712POPC   C1A 7335  24.506  15.997   8.550
 4712POPC   D2A 7336  24.494  15.997   8.250
 4712POPC   C3A 7337  24.455  15.935   7.950
 4712POPC   C4A 7338  24.459  15.945   7.650
 4712POPC   C1B 7339  24.773  15.928   8.550
 4712POPC   C2B 7340  24.766  15.924   8.250
 4712POPC   C3B 7341  24.722  15.941   7.950
 4712POPC   C4B 7342  24.757  15.991   7.650
 4713POPC   NC3 7343  13.642  26.019   9.450
 4713POPC   PO4 7344  13.601  26.069   9.150
 4713POPC   GL1 7345  13.624  25.997   8.850
 4713POPC   GL2 7346  13.735  26.051   8.850
 4713POPC   C1A 7347  13.637  26.045   8.550
 4713POPC   D2A 7348  13.586  26.044   8.250
 4713POPC   C3A 7349  13.594  26.021   7.950
 4713POPC   C4A 7350  13.620  26.005   7.650
 4713POPC   C1B 7351  13.871  26.139   8.550
 4713POPC   C2B 7352  13.886  26.069   8.250
 4713POPC   C3B 7353  13.820  26.077   7.950
 4713POPC   C4B 7354  13.845  26.107   7.650
 4714POPC   NC3 7355   9.764  23.764   9.450
 4714POPC   PO4 7356   9.732  23.760   9.150
 4714POPC   GL1 7357   9.778  23.670   8.850
 4714POPC   GL2 7358   9.702  23.861   8.850
 4714POPC   C1A 7359   9.722  23.754   8.550
 4714POPC   D2A 7360   9.791  23.743   8.250
 4714POPC   C3A 7361   9.703  23.704   7.950
 4714POPC   C4A 7362   9.736  23.681   7.650
 4714POPC   C1B 7363   9.676  23.940   8.550
 4714POPC   C2B 7364   9.635  23.899   8.250
 4714POPC   C3B 7365   9.592  23.951   7.950
 4714POPC   C4B 7366   9.637  23.971   7.650
 4715POPC   NC3 7367   8.215  35.365   9.450
 4715POPC   PO4 7368   8.205  35.394   9.150
 4715POPC   GL1 7369   8.225  35.331   8.850
 4715POPC   GL2 7370   8.265  35.214   8.850
 4715POPC   C1A 7371   8.154  35.336   8.550
 4715POPC   D2A 7372   8.211  35.367   8.250
 4715POPC   C3A 7373   8.176  35.350   7.950
 4715POPC   C4A 7374   8.208  35.379   7.650
 4715POPC   C1B 7375   8.320  35.151   8.550
 4715POPC   C2B 7376   8.321  35.147   8.250
 4715POPC   C3B 7377   8.278  35.162   7.950
 4715POPC   C4B 7378   8.304  35.092   7.650
 4716POPC   NC3 7379  12.817   8.967   9.450
 4716POPC   PO4 7380  12.819   9.009   9.150
 4716POPC   GL1 7381  12.894   8.980   8.850
 4716POPC   GL2 7382  12.771   9.046   8.850
 4716POPC   C1A 7383  12.819   8.989   8.550
 4716POPC   D2A 7384  12.895   8.964   8.250
 4716POPC   C3A 7385  12.860   8.943   7.950
 4716POPC   C4A 7386  12.855   8.981   7.650
 4716POPC   C1B 7387  12.774   9.184   8.550
 4716POPC   C2B 7388  12.708   9.197   8.250
 4716POPC   C3B 7389  12.779   9.148   7.950
 4716POPC   C4B 7390  12.775   9.230   7.650
 4717POPC   NC3 7391  26.090  16.746   9.450
 4717POPC   PO4 7392  25.998  16.689   9.150
 4717POPC   GL1 7393  26.037  16.727   8.850
 4717POPC   GL2 7394  26.118  16.829   8.850
 4717POPC   C1A 7395  26.020  16.726   8.550
 4717POPC   D2A 7396  25.992  16.705   8.250
 4717POPC   C3A 7397  26.072  16.761   7.950
 4717POPC   C4A 7398  26.059  16.724   7.650
 4717POPC   C1B 7399  26.130  16.933   8.550
 4717POPC   C2B 7400  26.145  17.010   8.250
 4717POPC   C3B 7401  26.151  16.922   7.950
 4717POPC   C4B 7402  26.135  16.960   7.650
 4718POPC   NC3 7403   2.030  21.363   9.450
 4718POPC   PO4 7404   1.972  21.369   9.150
 4718POPC   GL1 7405   1.960  21.357   8.850
 4718POPC   GL2 7406   1.973  21.245   8.850
 4718POPC   C1A 7407   2.013  21.372   8.550
 4718POPC   D2A 7408   1.999  21.432   8.250
 4718POPC   C3A 7409   1.961  21.358   7.950
 4718POPC   C4A 7410   1.981  21.412   7.650
 4718POPC   C1B 7411   1.888  21.130   8.550
 4718POPC   C2B 7412   1.882  21.190   8.250
 4718POPC   C3B 7413   1.941  21.101   7.950
 4718POPC   C4B 7414   1.907  21.185   7.650
 4719POPC   NC3 7415   2.749  41.528   9.450
 4719POPC   PO4 7416   2.813  41.591   9.150
 4719POPC   GL1 7417   2.754  41.539   8.850
 4719POPC   GL2 7418   2.655  41.578   8.850
 4719POPC   C1A 7419   2.778  41.581   8.550
 4719POPC   D2A 7420   2.762  41.602   8.250
 4719POPC   C3A 7421   2.746  41.512   7.950
 4719POPC   C4A 7422   2.738  41.548   7.650
 4719POPC   C1B 7423   2.529  41.477   8.550
 4719POPC   C2B 7424   2.541  41.561   8.250
 4719POPC   C3B 7425   2.481  41.473   7.950
 4719POPC   C4B 7426   2.488  41.536   7.650
 4720POPC   NC3 7427  15.165  17.547   9.450
 4720POPC   PO4 7428  15.137  17.508   9.150
 4720POPC   GL1 7429  15.216  17.483   8.850
 4720POPC   GL2 7430  15.302  17.551   8.850
 4720POPC   C1A 7431  15.193  17.492   8.550
 4720POPC   D2A 7432  15.172  17.488   8.250
 4720POPC   C3A 7433  15.154  17.495   7.950
 4720POPC   C4A 7434  15.179  17.492   7.650
 4720POPC   C1B 7435  15.424  17.473   8.550
 4720POPC   C2B 7436  15.407  17.504   8.250
 4720POPC   C3B 7437  15.466  17.450   7.950
 4720POPC   C4B 7438  15.471  17.496   7.650
 4721POPC   NC3 7439  36.127  36.144   9.450
 4721POPC   PO4 7440  36.097  36.142   9.150
 4721POPC   GL1 7441  36.080  36.122   8.850
 4721POPC   GL2 7442  36.231  36.180   8.850
 4721POPC   C1A 7443  36.139  36.177   8.550
 4721POPC   D2A 7444  36.093  36.136   8.250
 4721POPC   C3A 7445  36.118  36.087   7.950
 4721POPC   C4A 7446  36.111  36.140   7.650
 4721POPC   C1B 7447  36.283  36.310   8.550
 4721POPC   C2B 7448  36.234  36.304   8.250
 4721POPC   C3B 7449  36.269  36.360   7.950
 4721POPC   C4B 7450  36.307  36.285   7.650
 4722POPC   NC3 7451  13.602  18.233   9.450
 4722POPC   PO4 7452  13.675  18.246   9.150
 4722POPC   GL1 7453  13.661  18.304   8.850
 4722POPC   GL2 7454  13.569  18.146   8.850
 4722POPC   C1A 7455  13.603  18.249   8.550
 4722POPC   D2A 7456  13.579  18.262   8.250
 4722POPC   C3A 7457  13.660  18.244   7.950
 4722POPC   C4A 7458  13.634  18.319   7.650
 4722POPC   C1B 7459  13.605  18.023   8.550
 4722POPC   C2B 7460  13.539  18.041   8.250
 4722POPC   C3B 7461  13.596  18.067   7.950
 4722POPC   C4B 7462  13.599  17.993   7.650
 4723POPC   NC3 7463   1.201  13.606   9.450
 4723POPC   PO4 7464   1.221  13.585   9.150
 4723POPC   GL1 7465   1.244  13.664   8.850
 4723POPC   GL2 7466   1.262  13.524   8.850
 4723POPC   C1A 7467   1.181  13.670   8.550
 4723POPC   D2A 7468   1.217  13.654   8.250
 4723POPC   C3A 7469   1.228  13.595   7.950
 4723POPC   C4A 7470   1.191  13.625   7.650
 4723POPC   C1B 7471   1.368  13.419   8.550
 4723POPC   C2B 7472   1.329  13.391   8.250
 4723POPC   C3B 7473   1.379  13.460   7.950
 4723POPC   C4B 7474   1.346  13.468   7.650
 4724POPC   NC3 7475   8.171  25.314   9.450
 4724POPC   PO4 7476   8.185  25.258   9.150
 4724POPC   GL1 7477   8.205  25.274   8.850
 4724POPC   GL2 7478   8.351  25.254   8.850
 4724POPC   C1A 7479   8.238  25.240   8.550
 4724POPC   D2A 7480   8.238  25.260   8.250
 4724POPC   C3A 7481   8.188  25.266   7.950
 4724POPC   C4A 7482   8.230  25.302   7.650
 4724POPC   C1B 7483   8.392  25.131   8.550
 4724POPC   C2B 7484   8.459  25.164   8.250
 4724POPC   C3B 7485   8.416  25.136   7.950
 4724POPC   C4B 7486   8.448  25.152   7.650
 4725POPC   NC3 7487  42.344  14.380   9.450
 4725POPC   PO4 7488  42.370  14.398   9.150
 4725POPC   GL1 7489  42.291  14.433   8.850
 4725POPC   GL2 7490  42.291  14.264   8.850
 4725POPC   C1A 7491  42.307  14.431   8.550
 4725POPC   D2A 7492  42.295  14.382   8.250
 4725POPC   C3A 7493  42.347  14.442   7.950
 4725POPC   C4A 7494  42.365  14.380   7.650
 4725POPC   C1B 7495  42.277  14.157   8.550
 4725POPC   C2B 7496  42.299  14.147   8.250
 4725POPC   C3B 7497  42.231  14.126   7.950
 4725POPC   C4B 7498  42.231  14.199   7.650
 4726POPC   NC3 7499   5.869  14.393   9.450
 4726POPC   PO4 7500   5.836  14.373   9.150
 4726POPC   GL1 7501   5.872  14.401   8.850
 4726POPC   GL2 7502   5.927  14.305   8.850
 4726POPC   C1A 7503   5.864  14.370   8.550
 4726POPC   D2A 7504   5.897  14.411   8.250
 4726POPC   C3A 7505   5.909  14.391   7.950
 4726POPC   C4A 7506   5.915  14.417   7.650
 4726POPC   C1B 7507   5.932  14.164   8.550
 4726POPC   C2B 7508   5.928  14.108   8.250
 4726POPC   C3B 7509   5.898  14.196   7.950
 4726POPC   C4B 7510   5.924  14.144   7.650
 4727POPC   NC3 7511  15.135  10.540   9.450
 4727POPC   PO4 7512  15.219  10.542   9.150
 4727POPC   GL1 7513  15.142  10.555   8.850
 4727POPC   GL2 7514  15.276  10.556   8.850
 4727POPC   C1A 7515  15.226  10.491   8.550
 4727POPC   D2A 7516  15.147  10.479   8.250
 4727POPC   C3A 7517  15.148  10.479   7.950
 4727POPC   C4A 7518  15.227  10.483   7.650
 4727POPC   C1B 7519  15.408  10.505   8.550
 4727POPC   C2B 7520  15.390  10.494   8.250
 4727POPC   C3B 7521  15.457  10.510   7.950
 4727POPC   C4B 7522  15.432  10.487   7.650
 4728POPC   NC3 7523   4.343  14.405   9.450
 4728POPC   PO4 7524   4.345  14.418   9.150
 4728POPC   GL1 7525   4.365  14.380   8.850
 4728POPC   GL2 7526   4.255  14.561   8.850
 4728POPC   C1A 7527   4.313  14.395   8.550
 4728POPC   D2A 7528   4.305  14.420   8.250
 4728POPC   C3A 7529   4.360  14.357   7.950
 4728POPC   C4A 7530   4.316  14.447   7.650
 4728POPC   C1B 7531   4.230  14.605   8.550
 4728POPC   C2B 7532   4.307  14.615   8.250
 4728POPC   C3B 7533   4.226  14.602   7.950
 4728POPC   C4B 7534   4.227  14.625   7.650
 4729POPC   NC3 7535   2.775  44.614   9.450
 4729POPC   PO4 7536   2.747  44.678   9.150
 4729POPC   GL1 7537   2.795  44.689   8.850
 4729POPC   GL2 7538   2.783  44.530   8.850
 4729POPC   C1A 7539   2.732  44.679   8.550
 4729POPC   D2A 7540   2.767  44.686   8.250
 4729POPC   C3A 7541   2.732  44.680   7.950
 4729POPC   C4A 7542   2.801  44.642   7.650
 4729POPC   C1B 7543   2.762  44.390   8.550
 4729POPC   C2B 7544   2.812  44.429   8.250
 4729POPC   C3B 7545   2.736  44.443   7.950
 4729POPC   C4B 7546   2.800  44.451   7.650
 4730POPC   NC3 7547  38.447   4.357   9.450
 4730POPC   PO4 7548  38.423   4.342   9.150
 4730POPC   GL1 7549  38.409   4.283   8.850
 4730POPC   GL2 7550  38.371   4.342   8.850
 4730POPC   C1A 7551  38.421   4.322   8.550
 4730POPC   D2A 7552  38.479   4.287   8.250
 4730POPC   C3A 7553  38.501   4.354   7.950
 4730POPC   C4A 7554  38.493   4.357   7.650
 4730POPC   C1B 7555  38.215   4.339   8.550
 4730POPC   C2B 7556  38.205   4.377   8.250
 4730POPC   C3B 7557  38.234   4.345   7.950
 4730POPC   C4B 7558  38.238   4.397   7.650
 4731POPC   NC3 7559  44.698  12.087   9.450
 4731POPC   PO4 7560  44.671  12.039   9.150
 4731POPC   GL1 7561  44.620  12.070   8.850
 4731POPC   GL2 7562  44.688  11.981   8.850
 4731POPC   C1A 7563  44.628  12.112   8.550
 4731POPC   D2A 7564  44.646  12.078   8.250
 4731POPC   C3A 7565  44.627  12.030   7.950
 4731POPC   C4A 7566  44.616  12.033   7.650
 4731POPC   C1B 7567  44.779  11.831   8.550
 4731POPC   C2B 7568  44.782  11.890   8.250
 4731POPC   C3B 7569  44.803  11.863   7.950
 4731POPC   C4B 7570  44.846  11.844   7.650
 4732POPC   NC3 7571  22.976   3.494   9.450
 4732POPC   PO4 7572  22.924   3.526   9.150
 4732POPC   GL1 7573  22.936   3.533   8.850
 4732POPC   GL2 7574  23.096   3.444   8.850
 4732POPC   C1A 7575  22.909   3.559   8.550
 4732POPC   D2A 7576  22.910   3.589   8.250
 4732POPC   C3A 7577  22.895   3.539   7.950
 4732POPC   C4A 7578  22.916   3.537   7.650
 4732POPC   C1B 7579  23.156   3.400   8.550
 4732POPC   C2B 7580  23.211   3.444   8.250
 4732POPC   C3B 7581  23.172   3.418   7.950
 4732POPC   C4B 7582  23.176   3.421   7.650
 4733POPC   NC3 7583  33.023  40.029   9.450
 4733POPC   PO4 7584  33.030  40.009   9.150
 4733POPC   GL1 7585  33.022  39.975   8.850
 4733POPC   GL2 7586  32.888  39.994   8.850
 4733POPC   C1A 7587  33.068  39.986   8.550
 4733POPC   D2A 7588  32.985  40.003   8.250
 4733POPC   C3A 7589  32.975  39.998   7.950
 4733POPC   C4A 7590  33.025  40.036   7.650
 4733POPC   C1B 7591  32.773  40.022   8.550
 4733POPC   C2B 7592  32.772  40.012   8.250
 4733POPC   C3B 7593  32.763  40.042   7.950
 4733POPC   C4B 7594  32.758  40.012   7.650
 4734POPC   NC3 7595  40.810  26.857   9.450
 4734POPC   PO4 7596  40.806  26.839   9.150
 4734POPC   GL1 7597  40.752  26.814   8.850
 4734POPC   GL2 7598  40.776  26.946   8.850
 4734POPC   C1A 7599  40.816  26.849   8.550
 4734POPC   D2A 7600  40.796  26.807   8.250
 4734POPC   C3A 7601  40.820  26.768   7.950
 4734POPC   C4A 7602  40.827  26.820   7.650
 4734POPC   C1B 7603  40.751  27.105   8.550
 4734POPC   C2B 7604  40.760  27.077   8.250
 4734POPC   C3B 7605  40.702  27.021   7.950
 4734POPC   C4B 7606  40.692  27.107   7.650
 4735POPC   NC3 7607  31.487   2.033   9.450
 4735POPC   PO4 7608  31.473   1.994   9.150
 4735POPC   GL1 7609  31.453   1.996   8.850
 4735POPC   GL2 7610  31.471   1.884   8.850
 4735POPC   C1A 7611  31.442   1.952   8.550
 4735POPC   D2A 7612  31.435   2.020   8.250
 4735POPC   C3A 7613  31.502   2.036   7.950
 4735POPC   C4A 7614  31.513   1.987   7.650
 4735POPC   C1B 7615  31.412   1.745   8.550
 4735POPC   C2B 7616  31.414   1.755   8.250
 4735POPC   C3B 7617  31.403   1.774   7.950
 4735POPC   C4B 7618  31.476   1.767   7.650
 4736POPC   NC3 7619  33.827  25.315   9.450
 4736POPC   PO4 7620  33.753  25.252   9.150
 4736POPC   GL1 7621  33.827  25.281   8.850
 4736POPC   GL2 7622  33.764  25.348   8.850
 4736POPC   C1A 7623  33.773  25.302   8.550
 4736POPC   D2A 7624  33.819  25.221   8.250
 4736POPC   C3A 7625  33.751  25.273   7.950
 4736POPC   C4A 7626  33.828  25.299   7.650
 4736POPC   C1B 7627  33.661  25.442   8.550
 4736POPC   C2B 7628  33.637  25.476   8.250
 4736POPC   C3B 7629  33.686  25.465   7.950
 4736POPC   C4B 7630  33.675  25.503   7.650
 4737POPC   NC3 7631  37.720  32.260   9.450
 4737POPC   PO4 7632  37.657  32.204   9.150
 4737POPC   GL1 7633  37.712  32.200   8.850
 4737POPC   GL2 7634  37.726  32.177   8.850
 4737POPC   C1A 7635  37.672  32.225   8.550
 4737POPC   D2A 7636  37.719  32.216   8.250
 4737POPC   C3A 7637  37.697  32.213   7.950
 4737POPC   C4A 7638  37.639  32.286   7.650
 4737POPC   C1B 7639  37.844  32.099   8.550
 4737POPC   C2B 7640  37.898  32.052   8.250
 4737POPC   C3B 7641  37.904  32.126   7.950
 4737POPC   C4B 7642  37.889  32.132   7.650
 4738POPC   NC3 7643   1.955  19.880   9.450
 4738POPC   PO4 7644   2.026  19.840   9.150
 4738POPC   GL1 7645   2.015  19.806   8.850
 4738POPC   GL2 7646   1.875  19.811   8.850
 4738POPC   C1A 7647   1.951  19.820   8.550
 4738POPC   D2A 7648   1.967  19.879   8.250
 4738POPC   C3A 7649   1.940  19.796   7.950
 4738POPC   C4A 7650   1.989  19.843   7.650
 4738POPC   C1B 7651   1.721  19.870   8.550
 4738POPC   C2B 7652   1.711  19.854   8.250
 4738POPC   C3B 7653   1.741  19.812   7.950
 4738POPC   C4B 7654   1.785  19.869   7.650
 4739POPC   NC3 7655  42.315  30.712   9.450
 4739POPC   PO4 7656  42.355  30.735   9.150
 4739POPC   GL1 7657  42.376  30.728   8.850
 4739POPC   GL2 7658  42.296  30.588   8.850
 4739POPC   C1A 7659  42.366  30.744   8.550
 4739POPC   D2A 7660  42.294  30.681   8.250
 4739POPC   C3A 7661  42.372  30.649   7.950
 4739POPC   C4A 7662  42.354  30.668   7.650
 4739POPC   C1B 7663  42.172  30.489   8.550
 4739POPC   C2B 7664  42.166  30.476   8.250
 4739POPC   C3B 7665  42.156  30.553   7.950
 4739POPC   C4B 7666  42.157  30.485   7.650
 4740POPC   NC3 7667  18.313  43.150   9.450
 4740POPC   PO4 7668  18.324  43.063   9.150
 4740POPC   GL1 7669  18.301  43.073   8.850
 4740POPC   GL2 7670  18.201  43.013   8.850
 4740POPC   C1A 7671  18.287  43.097   8.550
 4740POPC   D2A 7672  18.280  43.147   8.250
 4740POPC   C3A 7673  18.254  43.082   7.950
 4740POPC   C4A 7674  18.249  43.126   7.650
 4740POPC   C1B 7675  18.046  42.960   8.550
 4740POPC   C2B 7676  18.031  42.940   8.250
 4740POPC   C3B 7677  18.113  42.999   7.950
 4740POPC   C4B 7678  18.041  42.934   7.650
 4741POPC   NC3 7679  22.942  26.056   9.450
 4741POPC   PO4 7680  22.988  26.043   9.150
 4741POPC   GL1 7681  22.893  26.072   8.850
 4741POPC   GL2 7682  22.820  26.033   8.850
 4741POPC   C1A 7683  22.928  26.069   8.550
 4741POPC   D2A 7684  22.910  26.083   8.250
 4741POPC   C3A 7685  22.978  26.041   7.950
 4741POPC   C4A 7686  22.936  25.994   7.650
 4741POPC   C1B 7687  22.673  26.036   8.550
 4741POPC   C2B 7688  22.732  25.973   8.250
 4741POPC   C3B 7689  22.659  25.964   7.950
 4741POPC   C4B 7690  22.654  26.023   7.650
 4742POPC   NC3 7691  19.049  24.489   9.450
 4742POPC   PO4 7692  19.022  24.495   9.150
 4742POPC   GL1 7693  19.049  24.506   8.850
 4742POPC   GL2 7694  19.031  24.371   8.850
 4742POPC   C1A 7695  19.106  24.442   8.550
 4742POPC   D2A 7696  19.013  24.488   8.250
 4742POPC   C3A 7697  19.049  24.440   7.950
 4742POPC   C4A 7698  19.104  24.493   7.650
 4742POPC   C1B 7699  18.879  24.332   8.550
 4742POPC   C2B 7700  18.950  24.308   8.250
 4742POPC   C3B 7701  18.944  24.310   7.950
 4742POPC   C4B 7702  18.923  24.264   7.650
 4743POPC   NC3 7703  10.498  28.340   9.450
 4743POPC   PO4 7704  10.530  28.386   9.150
 4743POPC   GL1 7705  10.496  28.400   8.850
 4743POPC   GL2 7706  10.501  28.304   8.850
 4743POPC   C1A 7707  10.543  28.396   8.550
 4743POPC   D2A 7708  10.487  28.326   8.250
 4743POPC   C3A 7709  10.538  28.327   7.950
 4743POPC   C4A 7710  10.499  28.323   7.650
 4743POPC   C1B 7711  10.427  28.167   8.550
 4743POPC   C2B 7712  10.382  28.165   8.250
 4743POPC   C3B 7713  10.406  28.125   7.950
 4743POPC   C4B 7714  10.464  28.113   7.650
 4744POPC   NC3 7715   9.709  17.531   9.450
 4744POPC   PO4 7716   9.710  17.536   9.150
 4744POPC   GL1 7717   9.733  17.540   8.850
 4744POPC   GL2 7718   9.776  17.659   8.850
 4744POPC   C1A 7719   9.699  17.469   8.550
 4744POPC   D2A 7720   9.748  17.490   8.250
 4744POPC   C3A 7721   9.784  17.541   7.950
 4744POPC   C4A 7722   9.716  17.495   7.650
 4744POPC   C1B 7723   9.882  17.751   8.550
 4744POPC   C2B 7724   9.889  17.750   8.250
 4744POPC   C3B 7725   9.864  17.761   7.950
 4744POPC   C4B 7726   9.852  17.686   7.650
 4745POPC   NC3 7727  44.661   6.629   9.450
 4745POPC   PO4 7728  44.694   6.654   9.150
 4745POPC   GL1 7729  44.613   6.616   8.850
 4745POPC   GL2 7730  44.559   6.682   8.850
 4745POPC   C1A 7731  44.706   6.680   8.550
 4745POPC   D2A 7732  44.622   6.656   8.250
 4745POPC   C3A 7733  44.683   6.628   7.950
 4745POPC   C4A 7734  44.657   6.641   7.650
 4745POPC   C1B 7735  44.426   6.802   8.550
 4745POPC   C2B 7736  44.472   6.773   8.250
 4745POPC   C3B 7737  44.463   6.795   7.950
 4745POPC   C4B 7738  44.489   6.788   7.650
 4746POPC   NC3 7739   6.608  25.255   9.450
 4746POPC   PO4 7740   6.600  25.218   9.150
 4746POPC   GL1 7741   6.647  25.291   8.850
 4746POPC   GL2 7742   6.584  25.144   8.850
 4746POPC   C1A 7743   6.662  25.246   8.550
 4746POPC   D2A 7744   6.623  25.236   8.250
 4746POPC   C3A 7745   6.616  25.305   7.950
 4746POPC   C4A 7746   6.658  25.229   7.650
 4746POPC   C1B 7747   6.565  25.083   8.550
 4746POPC   C2B 7748   6.564  24.998   8.250
 4746POPC   C3B 7749   6.586  24.997   7.950
 4746POPC   C4B 7750   6.525  25.053   7.650
 4747POPC   NC3 7751  19.857  36.904   9.450
 4747POPC   PO4 7752  19.862  36.894   9.150
 4747POPC   GL1 7753  19.875  36.934   8.850
 4747POPC   GL2 7754  19.782  36.853   8.850
 4747POPC   C1A 7755  19.825  36.952   8.550
 4747POPC   D2A 7756  19.791  36.915   8.250
 4747POPC   C3A 7757  19.877  36.867   7.950
 4747POPC   C4A 7758  19.810  36.937   7.650
 4747POPC   C1B 7759  19.665  36.775   8.550
 4747POPC   C2B 7760  19.681  36.692   8.250
 4747POPC   C3B 7761  19.682  36.753   7.950
 4747POPC   C4B 7762  19.624  36.763   7.650
 4748POPC   NC3 7763   4.301  11.268   9.450
 4748POPC   PO4 7764   4.303  11.278   9.150
 4748POPC   GL1 7765   4.303  11.310   8.850
 4748POPC   GL2 7766   4.347  11.466   8.850
 4748POPC   C1A 7767   4.359  11.338   8.550
 4748POPC   D2A 7768   4.308  11.288   8.250
 4748POPC   C3A 7769   4.332  11.262   7.950
 4748POPC   C4A 7770   4.340  11.333   7.650
 4748POPC   C1B 7771   4.280  11.513   8.550
 4748POPC   C2B 7772   4.283  11.563   8.250
 4748POPC   C3B 7773   4.350  11.593   7.950
 4748POPC   C4B 7774   4.329  11.514   7.650
 4749POPC   NC3 7775  15.985  28.383   9.450
 4749POPC   PO4 7776  15.925  28.326   9.150
 4749POPC   GL1 7777  15.968  28.365   8.850
 4749POPC   GL2 7778  15.812  28.343   8.850
 4749POPC   C1A 7779  15.975  28.379   8.550
 4749POPC   D2A 7780  15.970  28.385   8.250
 4749POPC   C3A 7781  15.946  28.370   7.950
 4749POPC   C4A 7782  15.907  28.403   7.650
 4749POPC   C1B 7783  15.755  28.374   8.550
 4749POPC   C2B 7784  15.728  28.299   8.250
 4749POPC   C3B 7785  15.725  28.375   7.950
 4749POPC   C4B 7786  15.674  28.391   7.650
 4750POPC   NC3 7787  10.483  15.179   9.450
 4750POPC   PO4 7788  10.505  15.202   9.150
 4750POPC   GL1 7789  10.494  15.197   8.850
 4750POPC   GL2 7790  10.409  15.104   8.850
 4750POPC   C1A 7791  10.552  15.196   8.550
 4750POPC   D2A 7792  10.495  15.204   8.250
 4750POPC   C3A 7793  10.537  15.217   7.950
 4750POPC   C4A 7794  10.487  15.165   7.650
 4750POPC   C1B 7795  10.293  14.990   8.550
 4750POPC   C2B 7796  10.335  15.063   8.250
 4750POPC   C3B 7797  10.326  14.984   7.950
 4750POPC   C4B 7798  10.283  15.059   7.650
 4751POPC   NC3 7799   9.748   5.820   9.450
 4751POPC   PO4 7800   9.737   5.914   9.150
 4751POPC   GL1 7801   9.722   5.907   8.850
 4751POPC   GL2 7802   9.869   5.783   8.850
 4751POPC   C1A 7803   9.714   5.859   8.550
 4751POPC   D2A 7804   9.772   5.825   8.250
 4751POPC   C3A 7805   9.762   5.852   7.950
 4751POPC   C4A 7806   9.742   5.829   7.650
 4751POPC   C1B 7807   9.954   5.752   8.550
 4751POPC   C2B 7808   9.955   5.741   8.250
 4751POPC   C3B 7809   9.994   5.785   7.950
 4751POPC   C4B 7810   9.969   5.797   7.650
 4752POPC   NC3 7811  32.206  36.113   9.450
 4752POPC   PO4 7812  32.251  36.166   9.150
 4752POPC   GL1 7813  32.243  36.108   8.850
 4752POPC   GL2 7814  32.217  36.223   8.850
 4752POPC   C1A 7815  32.273  36.126   8.550
 4752POPC   D2A 7816  32.219  36.177   8.250
 4752POPC   C3A 7817  32.272  36.146   7.950
 4752POPC   C4A 7818  32.228  36.173   7.650
 4752POPC   C1B 7819  32.222  36.335   8.550
 4752POPC   C2B 7820  32.260  36.391   8.250
 4752POPC   C3B 7821  32.297  36.407   7.950
 4752POPC   C4B 7822  32.301  36.414   7.650
 4753POPC   NC3 7823   6.668  41.572   9.450
 4753POPC   PO4 7824   6.664  41.513   9.150
 4753POPC   GL1 7825   6.677  41.539   8.850
 4753POPC   GL2 7826   6.689  41.621   8.850
 4753POPC   C1A 7827   6.651  41.602   8.550
 4753POPC   D2A 7828   6.626  41.584   8.250
 4753POPC   C3A 7829   6.617  41.530   7.950
 4753POPC   C4A 7830   6.610  41.561   7.650
 4753POPC   C1B 7831   6.800  41.768   8.550
 4753POPC   C2B 7832   6.724  41.816   8.250
 4753POPC   C3B 7833   6.739  41.751   7.950
 4753POPC   C4B 7834   6.795  41.779   7.650
 4754POPC   NC3 7835  32.229  34.560   9.450
 4754POPC   PO4 7836  32.236  34.614   9.150
 4754POPC   GL1 7837  32.265  34.560   8.850
 4754POPC   GL2 7838  32.149  34.541   8.850
 4754POPC   C1A 7839  32.236  34.579   8.550
 4754POPC   D2A 7840  32.291  34.537   8.250
 4754POPC   C3A 7841  32.230  34.595   7.950
 4754POPC   C4A 7842  32.298  34.540   7.650
 4754POPC   C1B 7843  32.041  34.412   8.550
 4754POPC   C2B 7844  32.034  34.456   8.250
 4754POPC   C3B 7845  32.038  34.417   7.950
 4754POPC   C4B 7846  31.988  34.481   7.650
 4755POPC   NC3 7847  33.831  40.014   9.450
 4755POPC   PO4 7848  33.825  40.038   9.150
 4755POPC   GL1 7849  33.777  40.003   8.850
 4755POPC   GL2 7850  33.785  39.904   8.850
 4755POPC   C1A 7851  33.771  39.996   8.550
 4755POPC   D2A 7852  33.750  40.004   8.250
 4755POPC   C3A 7853  33.791  39.963   7.950
 4755POPC   C4A 7854  33.796  39.975   7.650
 4755POPC   C1B 7855  33.829  39.736   8.550
 4755POPC   C2B 7856  33.793  39.792   8.250
 4755POPC   C3B 7857  33.838  39.768   7.950
 4755POPC   C4B 7858  33.787  39.744   7.650
 4756POPC   NC3 7859   0.467  19.798   9.450
 4756POPC   PO4 7860   0.421  19.856   9.150
 4756POPC   GL1 7861   0.460  19.848   8.850
 4756POPC   GL2 7862   0.537  19.774   8.850
 4756POPC   C1A 7863   0.395  19.812   8.550
 4756POPC   D2A 7864   0.463  19.807   8.250
 4756POPC   C3A 7865   0.482  19.866   7.950
 4756POPC   C4A 7866   0.456  19.845   7.650
 4756POPC   C1B 7867   0.658  19.692   8.550
 4756POPC   C2B 7868   0.598  19.735   8.250
 4756POPC   C3B 7869   0.648  19.669   7.950
 4756POPC   C4B 7870   0.622  19.662   7.650
 4757POPC   NC3 7871  21.354  21.367   9.450
 4757POPC   PO4 7872  21.428  21.388   9.150
 4757POPC   GL1 7873  21.374  21.423   8.850
 4757POPC   GL2 7874  21.435  21.243   8.850
 4757POPC   C1A 7875  21.388  21.402   8.550
 4757POPC   D2A 7876  21.410  21.398   8.250
 4757POPC   C3A 7877  21.384  21.430   7.950
 4757POPC   C4A 7878  21.433  21.395   7.650
 4757POPC   C1B 7879  21.541  21.156   8.550
 4757POPC   C2B 7880  21.509  21.187   8.250
 4757POPC   C3B 7881  21.554  21.197   7.950
 4757POPC   C4B 7882  21.520  21.157   7.650
 4758POPC   NC3 7883  15.228  35.373   9.450
 4758POPC   PO4 7884  15.179  35.364   9.150
 4758POPC   GL1 7885  15.192  35.359   8.850
 4758POPC   GL2 7886  15.114  35.479   8.850
 4758POPC   C1A 7887  15.189  35.388   8.550
 4758POPC   D2A 7888  15.134  35.377   8.250
 4758POPC   C3A 7889  15.181  35.341   7.950
 4758POPC   C4A 7890  15.200  35.326   7.650
 4758POPC   C1B 7891  14.944  35.482   8.550
 4758POPC   C2B 7892  14.953  35.550   8.250
 4758POPC   C3B 7893  15.039  35.562   7.950
 4758POPC   C4B 7894  14.965  35.505   7.650
 4759POPC   NC3 7895  15.162  42.357   9.450
 4759POPC   PO4 7896  15.221  42.367   9.150
 4759POPC   GL1 7897  15.196  42.363   8.850
 4759POPC   GL2 7898  15.193  42.481   8.850
 4759POPC   C1A 7899  15.155  42.366   8.550
 4759POPC   D2A 7900  15.205  42.375   8.250
 4759POPC   C3A 7901  15.218  42.340   7.950
 4759POPC   C4A 7902  15.142  42.318   7.650
 4759POPC   C1B 7903  15.164  42.616   8.550
 4759POPC   C2B 7904  15.212  42.620   8.250
 4759POPC   C3B 7905  15.193  42.535   7.950
 4759POPC   C4B 7906  15.201  42.559   7.650
 4760POPC   NC3 7907  25.311  12.894   9.450
 4760POPC   PO4 7908  25.232  12.829   9.150
 4760POPC   GL1 7909  25.272  12.864   8.850
 4760POPC   GL2 7910  25.098  12.880   8.850
 4760POPC   C1A 7911  25.222  12.888   8.550
 4760POPC   D2A 7912  25.295  12.863   8.250
 4760POPC   C3A 7913  25.304  12.886   7.950
 4760POPC   C4A 7914  25.265  12.816   7.650
 4760POPC   C1B 7915  24.974  12.936   8.550
 4760POPC   C2B 7916  24.991  12.943   8.250
 4760POPC   C3B 7917  25.036  12.921   7.950
 4760POPC   C4B 7918  25.046  12.934   7.650
 4761POPC   NC3 7919   5.891   5.866   9.450
 4761POPC   PO4 7920   5.830   5.838   9.150
 4761POPC   GL1 7921   5.865   5.848   8.850
 4761POPC   GL2 7922   5.935   5.755   8.850
 4761POPC   C1A 7923   5.887   5.821   8.550
 4761POPC   D2A 7924   5.861   5.830   8.250
 4761POPC   C3A 7925   5.875   5.840   7.950
 4761POPC   C4A 7926   5.819   5.902   7.650
 4761POPC   C1B 7927   6.032   5.676   8.550
 4761POPC   C2B 7928   6.054   5.695   8.250
 4761POPC   C3B 7929   6.067   5.675   7.950
 4761POPC   C4B 7930   6.046   5.744   7.650
 4762POPC   NC3 7931   5.896  32.268   9.450
 4762POPC   PO4 7932   5.892  32.239   9.150
 4762POPC   GL1 7933   5.849  32.257   8.850
 4762POPC   GL2 7934   5.891  32.118   8.850
 4762POPC   C1A 7935   5.908  32.295   8.550
 4762POPC   D2A 7936   5.907  32.287   8.250
 4762POPC   C3A 7937   5.906  32.285   7.950
 4762POPC   C4A 7938   5.897  32.254   7.650
 4762POPC   C1B 7939   5.966  32.007   8.550
 4762POPC   C2B 7940   6.029  31.989   8.250
 4762POPC   C3B 7941   5.994  32.005   7.950
 4762POPC   C4B 7942   5.972  31.991   7.650
 4763POPC   NC3 7943  26.815  21.433   9.450
 4763POPC   PO4 7944  26.863  21.427   9.150
 4763POPC   GL1 7945  26.829  21.337   8.850
 4763POPC   GL2 7946  26.722  21.380   8.850
 4763POPC   C1A 7947  26.831  21.416   8.550
 4763POPC   D2A 7948  26.858  21.422   8.250
 4763POPC   C3A 7949  26.830  21.426   7.950
 4763POPC   C4A 7950  26.781  21.423   7.650
 4763POPC   C1B 7951  26.591  21.306   8.550
 4763POPC   C2B 7952  26.589  21.346   8.250
 4763POPC   C3B 7953  26.532  21.301   7.950
 4763POPC   C4B 7954  26.569  21.354   7.650
 4764POPC   NC3 7955   5.118  30.692   9.450
 4764POPC   PO4 7956   5.081  30.660   9.150
 4764POPC   GL1 7957   5.128  30.675   8.850
 4764POPC   GL2 7958   4.943  30.741   8.850
 4764POPC   C1A 7959   5.121  30.716   8.550
 4764POPC   D2A 7960   5.089  30.721   8.250
 4764POPC   C3A 7961   5.083  30.739   7.950
 4764POPC   C4A 7962   5.103  30.735   7.650
 4764POPC   C1B 7963   4.841  30.741   8.550
 4764POPC   C2B 7964   4.888  30.668   8.250
 4764POPC   C3B 7965   4.874  30.698   7.950
 4764POPC   C4B 7966   4.869  30.689   7.650
 4765POPC   NC3 7967  25.308  13.604   9.450
 4765POPC   PO4 7968  25.218  13.600   9.150
 4765POPC   GL1 7969  25.289  13.661   8.850
 4765POPC   GL2 7970  25.425  13.630   8.850
 4765POPC   C1A 7971  25.237  13.629   8.550
 4765POPC   D2A 7972  25.244  13.658   8.250
 4765POPC   C3A 7973  25.261  13.643   7.950
 4765POPC   C4A 7974  25.242  13.669   7.650
 4765POPC   C1B 7975  25.476  13.606   8.550
 4765POPC   C2B 7976  25.560  13.611   8.250
 4765POPC   C3B 7977  25.514  13.612   7.950
 4765POPC   C4B 7978  25.504  13.554   7.650
 4766POPC   NC3 7979  26.026  37.699   9.450
 4766POPC   PO4 7980  25.994  37.676   9.150
 4766POPC   GL1 7981  26.073  37.726   8.850
 4766POPC   GL2 7982  25.970  37.584   8.850
 4766POPC   C1A 7983  26.048  37.654   8.550
 4766POPC   D2A 7984  26.061  37.635   8.250
 4766POPC   C3A 7985  26.015  37.643   7.950
 4766POPC   C4A 7986  26.063  37.658   7.650
 4766POPC   C1B 7987  25.960  37.412   8.550
 4766POPC   C2B 7988  25.947  37.420   8.250
 4766POPC   C3B 7989  25.987  37.483   7.950
 4766POPC   C4B 7990  26.018  37.452   7.650
 4767POPC   NC3 7991  38.477  33.062   9.450
 4767POPC   PO4 7992  38.504  33.070   9.150
 4767POPC   GL1 7993  38.437  32.996   8.850
 4767POPC   GL2 7994  38.544  33.148   8.850
 4767POPC   C1A 7995  38.459  33.011   8.550
 4767POPC   D2A 7996  38.485  33.032   8.250
 4767POPC   C3A 7997  38.470  33.004   7.950
 4767POPC   C4A 7998  38.446  33.046   7.650
 4767POPC   C1B 7999  38.694  33.138   8.550
 4767POPC   C2B 8000  38.678  33.150   8.250
 4767POPC   C3B 8001  38.651  33.180   7.950
 4767POPC   C4B 8002  38.614  33.138   7.650
 4768POPC   NC3 8003   2.039   8.231   9.450
 4768POPC   PO4 8004   1.955   8.244   9.150
 4768POPC   GL1 8005   2.026   8.214   8.850
 4768POPC   GL2 8006   2.143   8.215   8.850
 4768POPC   C1A 8007   1.943   8.230   8.550
 4768POPC   D2A 8008   1.952   8.170   8.250
 4768POPC   C3A 8009   2.018   8.241   7.950
 4768POPC   C4A 8010   1.961   8.246   7.650
 4768POPC   C1B 8011   2.239   8.311   8.550
 4768POPC   C2B 8012   2.191   8.263   8.250
 4768POPC   C3B 8013   2.234   8.292   7.950
 4768POPC   C4B 8014   2.229   8.336   7.650
 4769POPC   NC3 8015  43.116   6.651   9.450
 4769POPC   PO4 8016  43.140   6.621   9.150
 4769POPC   GL1 8017  43.121   6.631   8.850
 4769POPC   GL2 8018  43.017   6.502   8.850
 4769POPC   C1A 8019  43.076   6.664   8.550
 4769POPC   D2A 8020  43.148   6.634   8.250
 4769POPC   C3A 8021  43.068   6.621   7.950
 4769POPC   C4A 8022  43.160   6.600   7.650
 4769POPC   C1B 8023  42.975   6.401   8.550
 4769POPC   C2B 8024  43.030   6.418   8.250
 4769POPC   C3B 8025  42.935   6.414   7.950
 4769POPC   C4B 8026  42.976   6.454   7.650
 4770POPC   NC3 8027  38.408  11.271   9.450
 4770POPC   PO4 8028  38.496  11.274   9.150
 4770POPC   GL1 8029  38.443  11.310   8.850
 4770POPC   GL2 8030  38.611  11.220   8.850
 4770POPC   C1A 8031  38.496  11.257   8.550
 4770POPC   D2A 8032  38.497  11.331   8.250
 4770POPC   C3A 8033  38.501  11.274   7.950
 4770POPC   C4A 8034  38.495  11.319   7.650
 4770POPC   C1B 8035  38.641  11.230   8.550
 4770POPC   C2B 8036  38.651  11.199   8.250
 4770POPC   C3B 8037  38.726  11.246   7.950
 4770POPC   C4B 8038  38.662  11.203   7.650
 4771POPC   NC3 8039  31.434  44.644   9.450
 4771POPC   PO4 8040  31.468  44.679   9.150
 4771POPC   GL1 8041  31.428  44.659   8.850
 4771POPC   GL2 8042  31.418  44.539   8.850
 4771POPC   C1A 8043  31.457  44.635   8.550
 4771POPC   D2A 8044  31.454  44.710   8.250
 4771POPC   C3A 8045  31.491  44.678   7.950
 4771POPC   C4A 8046  31.506  44.643   7.650
 4771POPC   C1B 8047  31.304  44.439   8.550
 4771POPC   C2B 8048  31.326  44.465   8.250
 4771POPC   C3B 8049  31.282  44.498   7.950
 4771POPC   C4B 8050  31.344  44.452   7.650
 4772POPC   NC3 8051   6.662  29.111   9.450
 4772POPC   PO4 8052   6.601  29.098   9.150
 4772POPC   GL1 8053   6.668  29.173   8.850
 4772POPC   GL2 8054   6.734  29.055   8.850
 4772POPC   C1A 8055   6.692  29.124   8.550
 4772POPC   D2A 8056   6.667  29.148   8.250
 4772POPC   C3A 8057   6.624  29.127   7.950
 4772POPC   C4A 8058   6.682  29.113   7.650
 4772POPC   C1B 8059   6.788  28.961   8.550
 4772POPC   C2B 8060   6.797  28.909   8.250
 4772POPC   C3B 8061   6.777  28.961   7.950
 4772POPC   C4B 8062   6.833  28.955   7.650
 4773POPC   NC3 8063   0.456  30.655   9.450
 4773POPC   PO4 8064   0.388  30.732   9.150
 4773POPC   GL1 8065   0.410  30.674   8.850
 4773POPC   GL2 8066   0.416  30.590   8.850
 4773POPC   C1A 8067   0.462  30.743   8.550
 4773POPC   D2A 8068   0.444  30.745   8.250
 4773POPC   C3A 8069   0.454  30.654   7.950
 4773POPC   C4A 8070   0.464  30.718   7.650
 4773POPC   C1B 8071   0.468  30.480   8.550
 4773POPC   C2B 8072   0.521  30.464   8.250
 4773POPC   C3B 8073   0.479  30.437   7.950
 4773POPC   C4B 8074   0.506  30.498   7.650
 4774POPC   NC3 8075  11.313  13.630   9.450
 4774POPC   PO4 8076  11.303  13.674   9.150
 4774POPC   GL1 8077  11.294  13.665   8.850
 4774POPC   GL2 8078  11.385  13.605   8.850
 4774POPC   C1A 8079  11.299  13.644   8.550
 4774POPC   D2A 8080  11.298  13.589   8.250
 4774POPC   C3A 8081  11.287  13.584   7.950
 4774POPC   C4A 8082  11.269  13.617   7.650
 4774POPC   C1B 8083  11.542  13.613   8.550
 4774POPC   C2B 8084  11.557  13.613   8.250
 4774POPC   C3B 8085  11.534  13.601   7.950
 4774POPC   C4B 8086  11.513  13.642   7.650
 4775POPC   NC3 8087  10.482  40.041   9.450
 4775POPC   PO4 8088  10.495  40.044   9.150
 4775POPC   GL1 8089  10.516  40.013   8.850
 4775POPC   GL2 8090  10.448  39.881   8.850
 4775POPC   C1A 8091  10.480  40.050   8.550
 4775POPC   D2A 8092  10.513  40.036   8.250
 4775POPC   C3A 8093  10.518  40.032   7.950
 4775POPC   C4A 8094  10.496  40.009   7.650
 4775POPC   C1B 8095  10.454  39.741   8.550
 4775POPC   C2B 8096  10.441  39.767   8.250
 4775POPC   C3B 8097  10.397  39.822   7.950
 4775POPC   C4B 8098  10.431  39.776   7.650
 4776POPC   NC3 8099   5.141   2.022   9.450
 4776POPC   PO4 8100   5.143   1.973   9.150
 4776POPC   GL1 8101   5.142   2.035   8.850
 4776POPC   GL2 8102   5.252   1.955   8.850
 4776POPC   C1A 8103   5.113   2.011   8.550
 4776POPC   D2A 8104   5.054   1.980   8.250
 4776POPC   C3A 8105   5.121   1.949   7.950
 4776POPC   C4A 8106   5.071   1.980   7.650
 4776POPC   C1B 8107   5.314   1.970   8.550
 4776POPC   C2B 8108   5.347   2.016   8.250
 4776POPC   C3B 8109   5.306   2.017   7.950
 4776POPC   C4B 8110   5.382   1.990   7.650
 4777POPC   NC3 8111  14.382  39.245   9.450
 4777POPC   PO4 8112  14.436  39.260   9.150
 4777POPC   GL1 8113  14.424  39.203   8.850
 4777POPC   GL2 8114  14.256  39.141   8.850
 4777POPC   C1A 8115  14.414  39.268   8.550
 4777POPC   D2A 8116  14.431  39.244   8.250
 4777POPC   C3A 8117  14.409  39.222   7.950
 4777POPC   C4A 8118  14.385  39.203   7.650
 4777POPC   C1B 8119  14.193  39.098   8.550
 4777POPC   C2B 8120  14.222  39.118   8.250
 4777POPC   C3B 8121  14.211  39.117   7.950
 4777POPC   C4B 8122  14.136  39.140   7.650
 4778POPC   NC3 8123   0.464  15.227   9.450
 4778POPC   PO4 8124   0.410  15.200   9.150
 4778POPC   GL1 8125   0.428  15.140   8.850
 4778POPC   GL2 8126   0.545  15.215   8.850
 4778POPC   C1A 8127   0.414  15.203   8.550
 4778POPC   D2A 8128   0.390  15.214   8.250
 4778POPC   C3A 8129   0.466  15.168   7.950
 4778POPC   C4A 8130   0.435  15.212   7.650
 4778POPC   C1B 8131   0.723  15.210   8.550
 4778POPC   C2B 8132   0.693  15.264   8.250
 4778POPC   C3B 8133   0.719  15.269   7.950
 4778POPC   C4B 8134   0.650  15.256   7.650
 4779POPC   NC3 8135   5.863  35.374   9.450
 4779POPC   PO4 8136   5.844  35.336   9.150
 4779POPC   GL1 8137   5.832  35.385   8.850
 4779POPC   GL2 8138   5.958  35.465   8.850
 4779POPC   C1A 8139   5.880  35.371   8.550
 4779POPC   D2A 8140   5.862  35.345   8.250
 4779POPC   C3A 8141   5.822  35.376   7.950
 4779POPC   C4A 8142   5.917  35.400   7.650
 4779POPC   C1B 8143   5.998  35.484   8.550
 4779POPC   C2B 8144   5.995  35.499   8.250
 4779POPC   C3B 8145   6.081  35.521   7.950
 4779POPC   C4B 8146   6.074  35.561   7.650
 4780POPC   NC3 8147  27.615  30.659   9.450
 4780POPC   PO4 8148  27.632  30.672   9.150
 4780POPC   GL1 8149  27.599  30.689   8.850
 4780POPC   GL2 8150  27.589  30.824   8.850
 4780POPC   C1A 8151  27.587  30.648   8.550
 4780POPC   D2A 8152  27.578  30.657   8.250
 4780POPC   C3A 8153  27.636  30.742   7.950
 4780POPC   C4A 8154  27.641  30.742   7.650
 4780POPC   C1B 8155  27.555  30.901   8.550
 4780POPC   C2B 8156  27.564  30.977   8.250
 4780POPC   C3B 8157  27.516  30.927   7.950
 4780POPC   C4B 8158  27.519  30.917   7.650
 4781POPC   NC3 8159   8.948   4.288   9.450
 4781POPC   PO4 8160   9.012   4.270   9.150
 4781POPC   GL1 8161   9.018   4.329   8.850
 4781POPC   GL2 8162   8.961   4.461   8.850
 4781POPC   C1A 8163   8.944   4.355   8.550
 4781POPC   D2A 8164   8.939   4.339   8.250
 4781POPC   C3A 8165   8.967   4.296   7.950
 4781POPC   C4A 8166   9.001   4.301   7.650
 4781POPC   C1B 8167   8.952   4.562   8.550
 4781POPC   C2B 8168   8.959   4.540   8.250
 4781POPC   C3B 8169   8.940   4.565   7.950
 4781POPC   C4B 8170   9.009   4.534   7.650
 4782POPC   NC3 8171  22.953   6.617   9.450
 4782POPC   PO4 8172  22.894   6.631   9.150
 4782POPC   GL1 8173  22.908   6.665   8.850
 4782POPC   GL2 8174  22.887   6.689   8.850
 4782POPC   C1A 8175  22.901   6.686   8.550
 4782POPC   D2A 8176  22.965   6.598   8.250
 4782POPC   C3A 8177  22.984   6.669   7.950
 4782POPC   C4A 8178  22.902   6.682   7.650
 4782POPC   C1B 8179  22.771   6.811   8.550
 4782POPC   C2B 8180  22.802   6.782   8.250
 4782POPC   C3B 8181  22.740   6.825   7.950
 4782POPC   C4B 8182  22.740   6.828   7.650
 4783POPC   NC3 8183  13.596  10.527   9.450
 4783POPC   PO4 8184  13.656  10.512   9.150
 4783POPC   GL1 8185  13.587  10.498   8.850
 4783POPC   GL2 8186  13.548  10.429   8.850
 4783POPC   C1A 8187  13.605  10.509   8.550
 4783POPC   D2A 8188  13.596  10.516   8.250
 4783POPC   C3A 8189  13.669  10.507   7.950
 4783POPC   C4A 8190  13.638  10.545   7.650
 4783POPC   C1B 8191  13.525  10.247   8.550
 4783POPC   C2B 8192  13.500  10.252   8.250
 4783POPC   C3B 8193  13.576  10.319   7.950
 4783POPC   C4B 8194  13.548  10.304   7.650
 4784POPC   NC3 8195   1.168  11.280   9.450
 4784POPC   PO4 8196   1.229  11.306   9.150
 4784POPC   GL1 8197   1.257  11.304   8.850
 4784POPC   GL2 8198   1.249  11.437   8.850
 4784POPC   C1A 8199   1.208  11.310   8.550
 4784POPC   D2A 8200   1.217  11.344   8.250
 4784POPC   C3A 8201   1.232  11.280   7.950
 4784POPC   C4A 8202   1.186  11.328   7.650
 4784POPC   C1B 8203   1.377  11.564   8.550
 4784POPC   C2B 8204   1.316  11.507   8.250
 4784POPC   C3B 8205   1.299  11.500   7.950
 4784POPC   C4B 8206   1.362  11.481   7.650
 4785POPC   NC3 8207  34.548   1.232   9.450
 4785POPC   PO4 8208  34.615   1.249   9.150
 4785POPC   GL1 8209  34.603   1.215   8.850
 4785POPC   GL2 8210  34.479   1.191   8.850
 4785POPC   C1A 8211  34.562   1.260   8.550
 4785POPC   D2A 8212  34.569   1.248   8.250
 4785POPC   C3A 8213  34.529   1.175   7.950
 4785POPC   C4A 8214  34.585   1.255   7.650
 4785POPC   C1B 8215  34.324   1.158   8.550
 4785POPC   C2B 8216  34.346   1.138   8.250
 4785POPC   C3B 8217  34.360   1.144   7.950
 4785POPC   C4B 8218  34.358   1.150   7.650
 4786POPC   NC3 8219  36.893   8.244   9.450
 4786POPC   PO4 8220  36.936   8.202   9.150
 4786POPC   GL1 8221  36.905   8.175   8.850
 4786POPC   GL2 8222  36.936   8.087   8.850
 4786POPC   C1A 8223  36.862   8.170   8.550
 4786POPC   D2A 8224  36.875   8.241   8.250
 4786POPC   C3A 8225  36.867   8.218   7.950
 4786POPC   C4A 8226  36.903   8.190   7.650
 4786POPC   C1B 8227  37.010   7.924   8.550
 4786POPC   C2B 8228  36.970   7.990   8.250
 4786POPC   C3B 8229  37.049   7.952   7.950
 4786POPC   C4B 8230  37.003   7.992   7.650
 4787POPC   NC3 8231  15.943  19.039   9.450
 4787POPC   PO4 8232  15.961  19.044   9.150
 4787POPC   GL1 8233  15.911  19.014   8.850
 4787POPC   GL2 8234  15.854  19.146   8.850
 4787POPC   C1A 8235  15.998  19.020   8.550
 4787POPC   D2A 8236  15.952  19.019   8.250
 4787POPC   C3A 8237  15.941  19.011   7.950
 4787POPC   C4A 8238  15.978  19.076   7.650
 4787POPC   C1B 8239  15.777  19.272   8.550
 4787POPC   C2B 8240  15.748  19.220   8.250
 4787POPC   C3B 8241  15.761  19.248   7.950
 4787POPC   C4B 8242  15.758  19.181   7.650
 4788POPC   NC3 8243  29.182  34.584   9.450
 4788POPC   PO4 8244  29.121  34.581   9.150
 4788POPC   GL1 8245  29.185  34.580   8.850
 4788POPC   GL2 8246  29.224  34.657   8.850
 4788POPC   C1A 8247  29.138  34.622   8.550
 4788POPC   D2A 8248  29.177  34.550   8.250
 4788POPC   C3A 8249  29.155  34.621   7.950
 4788POPC   C4A 8250  29.191  34.603   7.650
 4788POPC   C1B 8251  29.263  34.804   8.550
 4788POPC   C2B 8252  29.266  34.766   8.250
 4788POPC   C3B 8253  29.280  34.792   7.950
 4788POPC   C4B 8254  29.327  34.797   7.650
 4789POPC   NC3 8255   3.552  31.497   9.450
 4789POPC   PO4 8256   3.492  31.510   9.150
 4789POPC   GL1 8257   3.500  31.519   8.850
 4789POPC   GL2 8258   3.490  31.418   8.850
 4789POPC   C1A 8259   3.517  31.476   8.550
 4789POPC   D2A 8260   3.556  31.483   8.250
 4789POPC   C3A 8261   3.540  31.461   7.950
 4789POPC   C4A 8262   3.514  31.492   7.650
 4789POPC   C1B 8263   3.326  31.255   8.550
 4789POPC   C2B 8264   3.336  31.296   8.250
 4789POPC   C3B 8265   3.388  31.322   7.950
 4789POPC   C4B 8266   3.402  31.282   7.650
 4790POPC   NC3 8267   3.537   8.213   9.450
 4790POPC   PO4 8268   3.590   8.215   9.150
 4790POPC   GL1 8269   3.553   8.153   8.850
 4790POPC   GL2 8270   3.507   8.328   8.850
 4790POPC   C1A 8271   3.572   8.238   8.550
 4790POPC   D2A 8272   3.510   8.210   8.250
 4790POPC   C3A 8273   3.505   8.174   7.950
 4790POPC   C4A 8274   3.561   8.229   7.650
 4790POPC   C1B 8275   3.427   8.450   8.550
 4790POPC   C2B 8276   3.494   8.414   8.250
 4790POPC   C3B 8277   3.473   8.462   7.950
 4790POPC   C4B 8278   3.432   8.391   7.650
 4791POPC   NC3 8279   1.250   7.396   9.450
 4791POPC   PO4 8280   1.220   7.416   9.150
 4791POPC   GL1 8281   1.189   7.449   8.850
 4791POPC   GL2 8282   1.137   7.428   8.850
 4791POPC   C1A 8283   1.198   7.466   8.550
 4791POPC   D2A 8284   1.239   7.465   8.250
 4791POPC   C3A 8285   1.220   7.419   7.950
 4791POPC   C4A 8286   1.226   7.429   7.650
 4791POPC   C1B 8287   0.920   7.382   8.550
 4791POPC   C2B 8288   0.946   7.415   8.250
 4791POPC   C3B 8289   0.990   7.336   7.950
 4791POPC   C4B 8290   1.005   7.407   7.650
 4792POPC   NC3 8291  33.783  42.358   9.450
 4792POPC   PO4 8292  33.803  42.314   9.150
 4792POPC   GL1 8293  33.826  42.368   8.850
 4792POPC   GL2 8294  33.793  42.235   8.850
 4792POPC   C1A 8295  33.752  42.328   8.550
 4792POPC   D2A 8296  33.761  42.358   8.250
 4792POPC   C3A 8297  33.797  42.318   7.950
 4792POPC   C4A 8298  33.843  42.298   7.650
 4792POPC   C1B 8299  33.767  42.131   8.550
 4792POPC   C2B 8300  33.768  42.087   8.250
 4792POPC   C3B 8301  33.797  42.053   7.950
 4792POPC   C4B 8302  33.765  42.083   7.650
 4793POPC   NC3 8303  15.962  17.544   9.450
 4793POPC   PO4 8304  15.994  17.549   9.150
 4793POPC   GL1 8305  16.002  17.518   8.850
 4793POPC   GL2 8306  16.033  17.491   8.850
 4793POPC   C1A 8307  15.995  17.538   8.550
 4793POPC   D2A 8308  15.946  17.508   8.250
 4793POPC   C3A 8309  15.921  17.539   7.950
 4793POPC   C4A 8310  15.975  17.500   7.650
 4793POPC   C1B 8311  16.213  17.512   8.550
 4793POPC   C2B 8312  16.183  17.455   8.250
 4793POPC   C3B 8313  16.221  17.520   7.950
 4793POPC   C4B 8314  16.181  17.434   7.650
 4794POPC   NC3 8315  30.728  32.231   9.450
 4794POPC   PO4 8316  30.668  32.297   9.150
 4794POPC   GL1 8317  30.668  32.291   8.850
 4794POPC   GL2 8318  30.605  32.352   8.850
 4794POPC   C1A 8319  30.710  32.246   8.550
 4794POPC   D2A 8320  30.691  32.293   8.250
 4794POPC   C3A 8321  30.710  32.220   7.950
 4794POPC   C4A 8322  30.723  32.213   7.650
 4794POPC   C1B 8323  30.627  32.520   8.550
 4794POPC   C2B 8324  30.580  32.461   8.250
 4794POPC   C3B 8325  30.627  32.522   7.950
 4794POPC   C4B 8326  30.632  32.513   7.650
 4795POPC   NC3 8327   2.780  23.753   9.450
 4795POPC   PO4 8328   2.721  23.675   9.150
 4795POPC   GL1 8329   2.732  23.706   8.850
 4795POPC   GL2 8330   2.858  23.659   8.850
 4795POPC   C1A 8331   2.768  23.674   8.550
 4795POPC   D2A 8332   2.765  23.703   8.250
 4795POPC   C3A 8333   2.814  23.697   7.950
 4795POPC   C4A 8334   2.752  23.682   7.650
 4795POPC   C1B 8335   2.947  23.560   8.550
 4795POPC   C2B 8336   2.936  23.490   8.250
 4795POPC   C3B 8337   2.940  23.493   7.950
 4795POPC   C4B 8338   2.928  23.576   7.650
 4796POPC   NC3 8339   4.281  41.537   9.450
 4796POPC   PO4 8340   4.305  41.567   9.150
 4796POPC   GL1 8341   4.289  41.559   8.850
 4796POPC   GL2 8342   4.147  41.602   8.850
 4796POPC   C1A 8343   4.299  41.575   8.550
 4796POPC   D2A 8344   4.314  41.509   8.250
 4796POPC   C3A 8345   4.315  41.521   7.950
 4796POPC   C4A 8346   4.340  41.584   7.650
 4796POPC   C1B 8347   4.028  41.614   8.550
 4796POPC   C2B 8348   4.091  41.612   8.250
 4796POPC   C3B 8349   4.049  41.624   7.950
 4796POPC   C4B 8350   4.024  41.640   7.650
 4797POPC   NC3 8351  30.714  21.389   9.450
 4797POPC   PO4 8352  30.702  21.386   9.150
 4797POPC   GL1 8353  30.720  21.426   8.850
 4797POPC   GL2 8354  30.796  21.409   8.850
 4797POPC   C1A 8355  30.669  21.406   8.550
 4797POPC   D2A 8356  30.721  21.368   8.250
 4797POPC   C3A 8357  30.696  21.341   7.950
 4797POPC   C4A 8358  30.699  21.357   7.650
 4797POPC   C1B 8359  30.972  21.460   8.550
 4797POPC   C2B 8360  30.914  21.468   8.250
 4797POPC   C3B 8361  30.929  21.448   7.950
 4797POPC   C4B 8362  30.965  21.497   7.650
 4798POPC   NC3 8363  20.625   8.975   9.450
 4798POPC   PO4 8364  20.655   9.020   9.150
 4798POPC   GL1 8365  20.574   8.956   8.850
 4798POPC   GL2 8366  20.612   8.828   8.850
 4798POPC   C1A 8367  20.646   8.994   8.550
 4798POPC   D2A 8368  20.588   9.007   8.250
 4798POPC   C3A 8369  20.561   8.970   7.950
 4798POPC   C4A 8370  20.634   9.019   7.650
 4798POPC   C1B 8371  20.563   8.736   8.550
 4798POPC   C2B 8372  20.488   8.725   8.250
 4798POPC   C3B 8373  20.541   8.759   7.950
 4798POPC   C4B 8374  20.503   8.744   7.650
 4799POPC   NC3 8375  19.017  22.923   9.450
 4799POPC   PO4 8376  19.084  22.957   9.150
 4799POPC   GL1 8377  19.054  22.971   8.850
 4799POPC   GL2 8378  19.225  22.921   8.850
 4799POPC   C1A 8379  19.027  22.892   8.550
 4799POPC   D2A 8380  19.061  22.898   8.250
 4799POPC   C3A 8381  19.013  22.920   7.950
 4799POPC   C4A 8382  19.058  22.898   7.650
 4799POPC   C1B 8383  19.310  22.941   8.550
 4799POPC   C2B 8384  19.275  22.934   8.250
 4799POPC   C3B 8385  19.274  22.922   7.950
 4799POPC   C4B 8386  19.329  22.927   7.650
 4800POPC   NC3 8387  18.255   4.278   9.450
 4800POPC   PO4 8388  18.265   4.283   9.150
 4800POPC   GL1 8389  18.293   4.315   8.850
 4800POPC   GL2 8390  18.377   4.400   8.850
 4800POPC   C1A 8391  18.303   4.330   8.550
 4800POPC   D2A 8392  18.279   4.295   8.250
 4800POPC   C3A 8393  18.311   4.282   7.950
 4800POPC   C4A 8394  18.259   4.345   7.650
 4800POPC   C1B 8395  18.490   4.504   8.550
 4800POPC   C2B 8396  18.484   4.480   8.250
 4800POPC   C3B 8397  18.496   4.479   7.950
 4800POPC   C4B 8398  18.499   4.549   7.650
 4801POPC   NC3 8399   5.115  42.357   9.450
 4801POPC   PO4 8400   5.132  42.336   9.150
 4801POPC   GL1 8401   5.110  42.339   8.850
 4801POPC   GL2 8402   5.098  42.209   8.850
 4801POPC   C1A 8403   5.113  42.373   8.550
 4801POPC   D2A 8404   5.106  42.291   8.250
 4801POPC   C3A 8405   5.071  42.359   7.950
 4801POPC   C4A 8406   5.106  42.299   7.650
 4801POPC   C1B 8407   5.133  42.053   8.550
 4801POPC   C2B 8408   5.161  42.057   8.250
 4801POPC   C3B 8409   5.131  42.056   7.950
 4801POPC   C4B 8410   5.225  42.147   7.650
 4802POPC   NC3 8411  36.921  33.030   9.450
 4802POPC   PO4 8412  36.869  33.038   9.150
 4802POPC   GL1 8413  36.875  32.980   8.850
 4802POPC   GL2 8414  37.015  33.063   8.850
 4802POPC   C1A 8415  36.907  33.066   8.550
 4802POPC   D2A 8416  36.873  32.998   8.250
 4802POPC   C3A 8417  36.890  33.017   7.950
 4802POPC   C4A 8418  36.947  33.052   7.650
 4802POPC   C1B 8419  37.186  33.100   8.550
 4802POPC   C2B 8420  37.184  33.062   8.250
 4802POPC   C3B 8421  37.098  33.078   7.950
 4802POPC   C4B 8422  37.105  33.116   7.650
 4803POPC   NC3 8423  14.413  43.915   9.450
 4803POPC   PO4 8424  14.421  43.912   9.150
 4803POPC   GL1 8425  14.448  43.853   8.850
 4803POPC   GL2 8426  14.255  43.884   8.850
 4803POPC   C1A 8427  14.359  43.864   8.550
 4803POPC   D2A 8428  14.387  43.898   8.250
 4803POPC   C3A 8429  14.385  43.909   7.950
 4803POPC   C4A 8430  14.382  43.916   7.650
 4803POPC   C1B 8431  14.133  43.966   8.550
 4803POPC   C2B 8432  14.146  43.940   8.250
 4803POPC   C3B 8433  14.160  43.939   7.950
 4803POPC   C4B 8434  14.154  44.022   7.650
 4804POPC   NC3 8435   1.972  23.683   9.450
 4804POPC   PO4 8436   1.999  23.744   9.150
 4804POPC   GL1 8437   1.961  23.746   8.850
 4804POPC   GL2 8438   1.932  23.875   8.850
 4804POPC   C1A 8439   1.946  23.673   8.550
 4804POPC   D2A 8440   1.965  23.755   8.250
 4804POPC   C3A 8441   2.008  23.712   7.950
 4804POPC   C4A 8442   1.963  23.705   7.650
 4804POPC   C1B 8443   1.940  23.969   8.550
 4804POPC   C2B 8444   1.964  23.946   8.250
 4804POPC   C3B 8445   1.993  23.989   7.950
 4804POPC   C4B 8446   1.944  23.950   7.650
 4805POPC   NC3 8447   8.925  26.074   9.450
 4805POPC   PO4 8448   8.941  26.009   9.150
 4805POPC   GL1 8449   8.927  26.033   8.850
 4805POPC   GL2 8450   9.000  25.950   8.850
 4805POPC   C1A 8451   8.927  25.995   8.550
 4805POPC   D2A 8452   8.956  26.069   8.250
 4805POPC   C3A 8453   8.938  26.038   7.950
 4805POPC   C4A 8454   8.933  26.073   7.650
 4805POPC   C1B 8455   8.970  25.820   8.550
 4805POPC   C2B 8456   8.969  25.828   8.250
 4805POPC   C3B 8457   8.951  25.781   7.950
 4805POPC   C4B 8458   8.943  25.816   7.650
 4806POPC   NC3 8459  19.855  42.366   9.450
 4806POPC   PO4 8460  19.813  42.288   9.150
 4806POPC   GL1 8461  19.789  42.340   8.850
 4806POPC   GL2 8462  19.807  42.227   8.850
 4806POPC   C1A 8463  19.855  42.313   8.550
 4806POPC   D2A 8464  19.807  42.337   8.250
 4806POPC   C3A 8465  19.806  42.338   7.950
 4806POPC   C4A 8466  19.851  42.357   7.650
 4806POPC   C1B 8467  19.737  42.081   8.550
 4806POPC   C2B 8468  19.725  42.115   8.250
 4806POPC   C3B 8469  19.702  42.106   7.950
 4806POPC   C4B 8470  19.740  42.111   7.650
 4807POPC   NC3 8471   4.315  18.256   9.450
 4807POPC   PO4 8472   4.319  18.283   9.150
 4807POPC   GL1 8473   4.359  18.268   8.850
 4807POPC   GL2 8474   4.293  18.186   8.850
 4807POPC   C1A 8475   4.270  18.237   8.550
 4807POPC   D2A 8476   4.332  18.316   8.250
 4807POPC   C3A 8477   4.345  18.236   7.950
 4807POPC   C4A 8478   4.313  18.325   7.650
 4807POPC   C1B 8479   4.327  18.034   8.550
 4807POPC   C2B 8480   4.343  18.040   8.250
 4807POPC   C3B 8481   4.321  18.032   7.950
 4807POPC   C4B 8482   4.360  18.020   7.650
 4808POPC   NC3 8483  43.879  28.366   9.450
 4808POPC   PO4 8484  43.920  28.325   9.150
 4808POPC   GL1 8485  43.841  28.355   8.850
 4808POPC   GL2 8486  43.771  28.409   8.850
 4808POPC   C1A 8487  43.858  28.351   8.550
 4808POPC   D2A 8488  43.919  28.378   8.250
 4808POPC   C3A 8489  43.933  28.381   7.950
 4808POPC   C4A 8490  43.916  28.376   7.650
 4808POPC   C1B 8491  43.639  28.486   8.550
 4808POPC   C2B 8492  43.628  28.445   8.250
 4808POPC   C3B 8493  43.668  28.453   7.950
 4808POPC   C4B 8494  43.614  28.478   7.650
 4809POPC   NC3 8495  16.733  24.476   9.450
 4809POPC   PO4 8496  16.713  24.502   9.150
 4809POPC   GL1 8497  16.764  24.452   8.850
 4809POPC   GL2 8498  16.670  24.391   8.850
 4809POPC   C1A 8499  16.768  24.483   8.550
 4809POPC   D2A 8500  16.718  24.499   8.250
 4809POPC   C3A 8501  16.693  24.474   7.950
 4809POPC   C4A 8502  16.708  24.488   7.650
 4809POPC   C1B 8503  16.624  24.280   8.550
 4809POPC   C2B 8504  16.594  24.249   8.250
 4809POPC   C3B 8505  16.637  24.275   7.950
 4809POPC   C4B 8506  16.640  24.226   7.650
 4810POPC   NC3 8507  26.071   5.900   9.450
 4810POPC   PO4 8508  26.053   5.897   9.150
 4810POPC   GL1 8509  26.074   5.877   8.850
 4810POPC   GL2 8510  26.065   5.704   8.850
 4810POPC   C1A 8511  26.060   5.824   8.550
 4810POPC   D2A 8512  26.082   5.837   8.250
 4810POPC   C3A 8513  26.012   5.887   7.950
 4810POPC   C4A 8514  26.011   5.891   7.650
 4810POPC   C1B 8515  26.116   5.597   8.550
 4810POPC   C2B 8516  26.109   5.605   8.250
 4810POPC   C3B 8517  26.082   5.580   7.950
 4810POPC   C4B 8518  26.078   5.586   7.650
 4811POPC   NC3 8519  35.379  42.384   9.450
 4811POPC   PO4 8520  35.340  42.369   9.150
 4811POPC   GL1 8521  35.304  42.350   8.850
 4811POPC   GL2 8522  35.314  42.472   8.850
 4811POPC   C1A 8523  35.348  42.312   8.550
 4811POPC   D2A 8524  35.313  42.368   8.250
 4811POPC   C3A 8525  35.399  42.310   7.950
 4811POPC   C4A 8526  35.354  42.380   7.650
 4811POPC   C1B 8527  35.322  42.617   8.550
 4811POPC   C2B 8528  35.290  42.620   8.250
 4811POPC   C3B 8529  35.339  42.544   7.950
 4811POPC   C4B 8530  35.300  42.609   7.650
 4812POPC   NC3 8531  12.076  10.509   9.450
 4812POPC   PO4 8532  12.032  10.549   9.150
 4812POPC   GL1 8533  12.122  10.477   8.850
 4812POPC   GL2 8534  12.002  10.630   8.850
 4812POPC   C1A 8535  12.075  10.566   8.550
 4812POPC   D2A 8536  12.057  10.509   8.250
 4812POPC   C3A 8537  12.054  10.551   7.950
 4812POPC   C4A 8538  12.061  10.481   7.650
 4812POPC   C1B 8539  11.996  10.753   8.550
 4812POPC   C2B 8540  11.940  10.768   8.250
 4812POPC   C3B 8541  11.969  10.731   7.950
 4812POPC   C4B 8542  11.981  10.781   7.650
 4813POPC   NC3 8543  41.517  19.024   9.450
 4813POPC   PO4 8544  41.592  19.022   9.150
 4813POPC   GL1 8545  41.571  19.015   8.850
 4813POPC   GL2 8546  41.634  18.972   8.850
 4813POPC   C1A 8547  41.528  19.086   8.550
 4813POPC   D2A 8548  41.584  19.062   8.250
 4813POPC   C3A 8549  41.600  19.018   7.950
 4813POPC   C4A 8550  41.546  19.034   7.650
 4813POPC   C1B 8551  41.808  18.995   8.550
 4813POPC   C2B 8552  41.820  19.001   8.250
 4813POPC   C3B 8553  41.827  18.930   7.950
 4813POPC   C4B 8554  41.753  18.969   7.650
 4814POPC   NC3 8555  35.386  29.182   9.450
 4814POPC   PO4 8556  35.376  29.152   9.150
 4814POPC   GL1 8557  35.340  29.096   8.850
 4814POPC   GL2 8558  35.352  29.265   8.850
 4814POPC   C1A 8559  35.400  29.160   8.550
 4814POPC   D2A 8560  35.396  29.146   8.250
 4814POPC   C3A 8561  35.320  29.189   7.950
 4814POPC   C4A 8562  35.367  29.146   7.650
 4814POPC   C1B 8563  35.285  29.363   8.550
 4814POPC   C2B 8564  35.266  29.387   8.250
 4814POPC   C3B 8565  35.316  29.425   7.950
 4814POPC   C4B 8566  35.300  29.344   7.650
 4815POPC   NC3 8567  15.941  36.944   9.450
 4815POPC   PO4 8568  15.915  36.921   9.150
 4815POPC   GL1 8569  15.963  36.925   8.850
 4815POPC   GL2 8570  15.928  37.008   8.850
 4815POPC   C1A 8571  15.988  36.927   8.550
 4815POPC   D2A 8572  15.984  36.910   8.250
 4815POPC   C3A 8573  15.953  36.872   7.950
 4815POPC   C4A 8574  15.910  36.924   7.650
 4815POPC   C1B 8575  15.876  37.168   8.550
 4815POPC   C2B 8576  15.908  37.108   8.250
 4815POPC   C3B 8577  15.923  37.134   7.950
 4815POPC   C4B 8578  15.919  37.190   7.650
 4816POPC   NC3 8579  36.172   8.213   9.450
 4816POPC   PO4 8580  36.165   8.191   9.150
 4816POPC   GL1 8581  36.098   8.220   8.850
 4816POPC   GL2 8582  36.233   8.085   8.850
 4816POPC   C1A 8583  36.125   8.212   8.550
 4816POPC   D2A 8584  36.122   8.179   8.250
 4816POPC   C3A 8585  36.133   8.181   7.950
 4816POPC   C4A 8586  36.131   8.228   7.650
 4816POPC   C1B 8587  36.330   7.985   8.550
 4816POPC   C2B 8588  36.338   8.013   8.250
 4816POPC   C3B 8589  36.341   8.008   7.950
 4816POPC   C4B 8590  36.331   8.008   7.650
 4817POPC   NC3 8591  22.949  43.084   9.450
 4817POPC   PO4 8592  22.966  43.158   9.150
 4817POPC   GL1 8593  22.940  43.159   8.850
 4817POPC   GL2 8594  22.917  42.990   8.850
 4817POPC   C1A 8595  22.985  43.126   8.550
 4817POPC   D2A 8596  22.923  43.119   8.250
 4817POPC   C3A 8597  22.930  43.064   7.950
 4817POPC   C4A 8598  22.943  43.117   7.650
 4817POPC   C1B 8599  22.858  42.914   8.550
 4817POPC   C2B 8600  22.842  42.839   8.250
 4817POPC   C3B 8601  22.843  42.836   7.950
 4817POPC   C4B 8602  22.882  42.871   7.650
 4818POPC   NC3 8603  14.355   8.960   9.450
 4818POPC   PO4 8604  14.453   9.007   9.150
 4818POPC   GL1 8605  14.356   8.997   8.850
 4818POPC   GL2 8606  14.554   8.963   8.850
 4818POPC   C1A 8607  14.376   8.980   8.550
 4818POPC   D2A 8608  14.406   8.932   8.250
 4818POPC   C3A 8609  14.442   8.939   7.950
 4818POPC   C4A 8610  14.400   9.015   7.650
 4818POPC   C1B 8611  14.661   8.854   8.550
 4818POPC   C2B 8612  14.671   8.825   8.250
 4818POPC   C3B 8613  14.607   8.855   7.950
 4818POPC   C4B 8614  14.672   8.909   7.650
 4819POPC   NC3 8615   9.765  20.577   9.450
 4819POPC   PO4 8616   9.752  20.582   9.150
 4819POPC   GL1 8617   9.797  20.648   8.850
 4819POPC   GL2 8618   9.805  20.517   8.850
 4819POPC   C1A 8619   9.791  20.654   8.550
 4819POPC   D2A 8620   9.733  20.654   8.250
 4819POPC   C3A 8621   9.709  20.580   7.950
 4819POPC   C4A 8622   9.779  20.607   7.650
 4819POPC   C1B 8623   9.814  20.360   8.550
 4819POPC   C2B 8624   9.829  20.395   8.250
 4819POPC   C3B 8625   9.860  20.391   7.950
 4819POPC   C4B 8626   9.766  20.376   7.650
 4820POPC   NC3 8627   1.946  37.636   9.450
 4820POPC   PO4 8628   1.969  37.661   9.150
 4820POPC   GL1 8629   2.008  37.724   8.850
 4820POPC   GL2 8630   2.023  37.767   8.850
 4820POPC   C1A 8631   2.040  37.677   8.550
 4820POPC   D2A 8632   2.006  37.633   8.250
 4820POPC   C3A 8633   1.987  37.708   7.950
 4820POPC   C4A 8634   1.995  37.668   7.650
 4820POPC   C1B 8635   2.146  37.870   8.550
 4820POPC   C2B 8636   2.161  37.910   8.250
 4820POPC   C3B 8637   2.200  37.833   7.950
 4820POPC   C4B 8638   2.162  37.828   7.650
 4821POPC   NC3 8639  26.784   2.724   9.450
 4821POPC   PO4 8640  26.856   2.768   9.150
 4821POPC   GL1 8641  26.862   2.720   8.850
 4821POPC   GL2 8642  26.785   2.870   8.850
 4821POPC   C1A 8643  26.785   2.755   8.550
 4821POPC   D2A 8644  26.824   2.739   8.250
 4821POPC   C3A 8645  26.820   2.730   7.950
 4821POPC   C4A 8646  26.812   2.787   7.650
 4821POPC   C1B 8647  26.718   2.951   8.550
 4821POPC   C2B 8648  26.691   3.003   8.250
 4821POPC   C3B 8649  26.687   2.973   7.950
 4821POPC   C4B 8650  26.693   2.958   7.650
 4822POPC   NC3 8651  39.274  28.366   9.450
 4822POPC   PO4 8652  39.216  28.402   9.150
 4822POPC   GL1 8653  39.241  28.395   8.850
 4822POPC   GL2 8654  39.161  28.459   8.850
 4822POPC   C1A 8655  39.251  28.405   8.550
 4822POPC   D2A 8656  39.210  28.344   8.250
 4822POPC   C3A 8657  39.247  28.408   7.950
 4822POPC   C4A 8658  39.259  28.387   7.650
 4822POPC   C1B 8659  39.124  28.628   8.550
 4822POPC   C2B 8660  39.112  28.567   8.250
 4822POPC   C3B 8661  39.159  28.615   7.950
 4822POPC   C4B 8662  39.154  28.545   7.650
 4823POPC   NC3 8663  13.619  27.593   9.450
 4823POPC   PO4 8664  13.632  27.610   9.150
 4823POPC   GL1 8665  13.668  27.548   8.850
 4823POPC   GL2 8666  13.766  27.555   8.850
 4823POPC   C1A 8667  13.645  27.593   8.550
 4823POPC   D2A 8668  13.595  27.639   8.250
 4823POPC   C3A 8669  13.668  27.553   7.950
 4823POPC   C4A 8670  13.658  27.572   7.650
 4823POPC   C1B 8671  13.837  27.494   8.550
 4823POPC   C2B 8672  13.798  27.484   8.250
 4823POPC   C3B 8673  13.794  27.426   7.950
 4823POPC   C4B 8674  13.864  27.422   7.650
 4824POPC   NC3 8675  25.218  19.818   9.450
 4824POPC   PO4 8676  25.299  19.854   9.150
 4824POPC   GL1 8677  25.239  19.809   8.850
 4824POPC   GL2 8678  25.152  19.874   8.850
 4824POPC   C1A 8679  25.247  19.820   8.550
 4824POPC   D2A 8680  25.304  19.830   8.250
 4824POPC   C3A 8681  25.223  19.851   7.950
 4824POPC   C4A 8682  25.249  19.836   7.650
 4824POPC   C1B 8683  25.046  19.957   8.550
 4824POPC   C2B 8684  25.109  20.016   8.250
 4824POPC   C3B 8685  25.061  20.048   7.950
 4824POPC   C4B 8686  25.036  20.047   7.650
 4825POPC   NC3 8687  20.600  11.323   9.450
 4825POPC   PO4 8688  20.624  11.287   9.150
 4825POPC   GL1 8689  20.605  11.327   8.850
 4825POPC   GL2 8690  20.743  11.418   8.850
 4825POPC   C1A 8691  20.589  11.321   8.550
 4825POPC   D2A 8692  20.612  11.291   8.250
 4825POPC   C3A 8693  20.615  11.302   7.950
 4825POPC   C4A 8694  20.642  11.277   7.650
 4825POPC   C1B 8695  20.738  11.460   8.550
 4825POPC   C2B 8696  20.739  11.490   8.250
 4825POPC   C3B 8697  20.816  11.436   7.950
 4825POPC   C4B 8698  20.765  11.490   7.650
 4826POPC   NC3 8699  22.941  32.991   9.450
 4826POPC   PO4 8700  22.930  33.042   9.150
 4826POPC   GL1 8701  22.907  32.990   8.850
 4826POPC   GL2 8702  22.881  32.960   8.850
 4826POPC   C1A 8703  22.926  33.055   8.550
 4826POPC   D2A 8704  22.927  33.018   8.250
 4826POPC   C3A 8705  22.960  33.055   7.950
 4826POPC   C4A 8706  22.937  33.035   7.650
 4826POPC   C1B 8707  22.859  32.784   8.550
 4826POPC   C2B 8708  22.784  32.773   8.250
 4826POPC   C3B 8709  22.859  32.779   7.950
 4826POPC   C4B 8710  22.803  32.797   7.650
 4827POPC   NC3 8711   2.742  13.619   9.450
 4827POPC   PO4 8712   2.790  13.614   9.150
 4827POPC   GL1 8713   2.785  13.649   8.850
 4827POPC   GL2 8714   2.811  13.509   8.850
 4827POPC   C1A 8715   2.729  13.676   8.550
 4827POPC   D2A 8716   2.776  13.603   8.250
 4827POPC   C3A 8717   2.741  13.658   7.950
 4827POPC   C4A 8718   2.795  13.616   7.650
 4827POPC   C1B 8719   2.832  13.417   8.550
 4827POPC   C2B 8720   2.866  13.344   8.250
 4827POPC   C3B 8721   2.838  13.342   7.950
 4827POPC   C4B 8722   2.817  13.359   7.650
 4828POPC   NC3 8723  42.298   6.643   9.450
 4828POPC   PO4 8724  42.369   6.645   9.150
 4828POPC   GL1 8725  42.348   6.644   8.850
 4828POPC   GL2 8726  42.236   6.721   8.850
 4828POPC   C1A 8727  42.314   6.659   8.550
 4828POPC   D2A 8728  42.353   6.605   8.250
 4828POPC   C3A 8729  42.365   6.611   7.950
 4828POPC   C4A 8730  42.332   6.665   7.650
 4828POPC   C1B 8731  42.088   6.755   8.550
 4828POPC   C2B 8732  42.088   6.746   8.250
 4828POPC   C3B 8733  42.160   6.822   7.950
 4828POPC   C4B 8734  42.101   6.821   7.650
 4829POPC   NC3 8735  22.135  34.541   9.450
 4829POPC   PO4 8736  22.117  34.594   9.150
 4829POPC   GL1 8737  22.182  34.534   8.850
 4829POPC   GL2 8738  22.264  34.687   8.850
 4829POPC   C1A 8739  22.207  34.582   8.550
 4829POPC   D2A 8740  22.149  34.560   8.250
 4829POPC   C3A 8741  22.168  34.574   7.950
 4829POPC   C4A 8742  22.170  34.619   7.650
 4829POPC   C1B 8743  22.323  34.703   8.550
 4829POPC   C2B 8744  22.375  34.774   8.250
 4829POPC   C3B 8745  22.356  34.761   7.950
 4829POPC   C4B 8746  22.304  34.719   7.650
 4830POPC   NC3 8747  32.999  42.351   9.450
 4830POPC   PO4 8748  33.025  42.325   9.150
 4830POPC   GL1 8749  32.989  42.378   8.850
 4830POPC   GL2 8750  33.116  42.475   8.850
 4830POPC   C1A 8751  33.066  42.360   8.550
 4830POPC   D2A 8752  33.061  42.371   8.250
 4830POPC   C3A 8753  33.070  42.335   7.950
 4830POPC   C4A 8754  32.978  42.360   7.650
 4830POPC   C1B 8755  33.190  42.493   8.550
 4830POPC   C2B 8756  33.148  42.556   8.250
 4830POPC   C3B 8757  33.156  42.553   7.950
 4830POPC   C4B 8758  33.195  42.500   7.650
 4831POPC   NC3 8759   5.851  21.399   9.450
 4831POPC   PO4 8760   5.894  21.347   9.150
 4831POPC   GL1 8761   5.867  21.373   8.850
 4831POPC   GL2 8762   5.964  21.486   8.850
 4831POPC   C1A 8763   5.859  21.354   8.550
 4831POPC   D2A 8764   5.875  21.409   8.250
 4831POPC   C3A 8765   5.838  21.368   7.950
 4831POPC   C4A 8766   5.891  21.430   7.650
 4831POPC   C1B 8767   5.936  21.563   8.550
 4831POPC   C2B 8768   6.027  21.567   8.250
 4831POPC   C3B 8769   5.953  21.583   7.950
 4831POPC   C4B 8770   5.954  21.575   7.650
 4832POPC   NC3 8771  38.446   9.710   9.450
 4832POPC   PO4 8772  38.469   9.765   9.150
 4832POPC   GL1 8773  38.415   9.745   8.850
 4832POPC   GL2 8774  38.560   9.761   8.850
 4832POPC   C1A 8775  38.414   9.732   8.550
 4832POPC   D2A 8776  38.416   9.754   8.250
 4832POPC   C3A 8777  38.474   9.765   7.950
 4832POPC   C4A 8778  38.470   9.785   7.650
 4832POPC   C1B 8779  38.714   9.741   8.550
 4832POPC   C2B 8780  38.707   9.744   8.250
 4832POPC   C3B 8781  38.720   9.753   7.950
 4832POPC   C4B 8782  38.687   9.782   7.650
 4833POPC   NC3 8783  19.815  36.137   9.450
 4833POPC   PO4 8784  19.846  36.129   9.150
 4833POPC   GL1 8785  19.861  36.126   8.850
 4833POPC   GL2 8786  19.927  36.123   8.850
 4833POPC   C1A 8787  19.788  36.095   8.550
 4833POPC   D2A 8788  19.825  36.094   8.250
 4833POPC   C3A 8789  19.805  36.165   7.950
 4833POPC   C4A 8790  19.856  36.078   7.650
 4833POPC   C1B 8791  20.072  36.070   8.550
 4833POPC   C2B 8792  20.033  36.054   8.250
 4833POPC   C3B 8793  20.101  36.030   7.950
 4833POPC   C4B 8794  20.031  36.051   7.650
 4834POPC   NC3 8795  38.497  31.443   9.450
 4834POPC   PO4 8796  38.454  31.476   9.150
 4834POPC   GL1 8797  38.483  31.480   8.850
 4834POPC   GL2 8798  38.510  31.600   8.850
 4834POPC   C1A 8799  38.471  31.424   8.550
 4834POPC   D2A 8800  38.424  31.431   8.250
 4834POPC   C3A 8801  38.492  31.442   7.950
 4834POPC   C4A 8802  38.444  31.509   7.650
 4834POPC   C1B 8803  38.591  31.638   8.550
 4834POPC   C2B 8804  38.600  31.660   8.250
 4834POPC   C3B 8805  38.620  31.679   7.950
 4834POPC   C4B 8806  38.563  31.642   7.650
 4835POPC   NC3 8807  23.745  21.390   9.450
 4835POPC   PO4 8808  23.740  21.419   9.150
 4835POPC   GL1 8809  23.711  21.402   8.850
 4835POPC   GL2 8810  23.821  21.310   8.850
 4835POPC   C1A 8811  23.728  21.339   8.550
 4835POPC   D2A 8812  23.687  21.394   8.250
 4835POPC   C3A 8813  23.710  21.343   7.950
 4835POPC   C4A 8814  23.747  21.391   7.650
 4835POPC   C1B 8815  23.960  21.245   8.550
 4835POPC   C2B 8816  23.882  21.249   8.250
 4835POPC   C3B 8817  23.953  21.243   7.950
 4835POPC   C4B 8818  23.888  21.295   7.650
 4836POPC   NC3 8819  28.361  41.529   9.450
 4836POPC   PO4 8820  28.354  41.586   9.150
 4836POPC   GL1 8821  28.333  41.511   8.850
 4836POPC   GL2 8822  28.310  41.686   8.850
 4836POPC   C1A 8823  28.337  41.547   8.550
 4836POPC   D2A 8824  28.378  41.558   8.250
 4836POPC   C3A 8825  28.418  41.571   7.950
 4836POPC   C4A 8826  28.399  41.581   7.650
 4836POPC   C1B 8827  28.374  41.786   8.550
 4836POPC   C2B 8828  28.394  41.835   8.250
 4836POPC   C3B 8829  28.326  41.803   7.950
 4836POPC   C4B 8830  28.306  41.802   7.650
 4837POPC   NC3 8831  26.833  22.134   9.450
 4837POPC   PO4 8832  26.837  22.203   9.150
 4837POPC   GL1 8833  26.778  22.168   8.850
 4837POPC   GL2 8834  26.719  22.068   8.850
 4837POPC   C1A 8835  26.788  22.149   8.550
 4837POPC   D2A 8836  26.779  22.119   8.250
 4837POPC   C3A 8837  26.785  22.149   7.950
 4837POPC   C4A 8838  26.792  22.205   7.650
 4837POPC   C1B 8839  26.596  22.057   8.550
 4837POPC   C2B 8840  26.554  22.047   8.250
 4837POPC   C3B 8841  26.619  22.025   7.950
 4837POPC   C4B 8842  26.567  22.040   7.650
 4838POPC   NC3 8843  36.141  32.268   9.450
 4838POPC   PO4 8844  36.138  32.233   9.150
 4838POPC   GL1 8845  36.161  32.277   8.850
 4838POPC   GL2 8846  36.032  32.162   8.850
 4838POPC   C1A 8847  36.118  32.236   8.550
 4838POPC   D2A 8848  36.132  32.211   8.250
 4838POPC   C3A 8849  36.090  32.267   7.950
 4838POPC   C4A 8850  36.174  32.262   7.650
 4838POPC   C1B 8851  35.967  32.084   8.550
 4838POPC   C2B 8852  35.985  32.025   8.250
 4838POPC   C3B 8853  35.995  32.092   7.950
 4838POPC   C4B 8854  35.953  32.045   7.650
 4839POPC   NC3 8855  30.720  25.274   9.450
 4839POPC   PO4 8856  30.647  25.241   9.150
 4839POPC   GL1 8857  30.734  25.242   8.850
 4839POPC   GL2 8858  30.822  25.237   8.850
 4839POPC   C1A 8859  30.687  25.300   8.550
 4839POPC   D2A 8860  30.659  25.286   8.250
 4839POPC   C3A 8861  30.703  25.287   7.950
 4839POPC   C4A 8862  30.729  25.248   7.650
 4839POPC   C1B 8863  30.944  25.209   8.550
 4839POPC   C2B 8864  30.931  25.226   8.250
 4839POPC   C3B 8865  30.961  25.214   7.950
 4839POPC   C4B 8866  30.947  25.180   7.650
 4840POPC   NC3 8867  10.512  24.469   9.450
 4840POPC   PO4 8868  10.522  24.453   9.150
 4840POPC   GL1 8869  10.493  24.536   8.850
 4840POPC   GL2 8870  10.614  24.404   8.850
 4840POPC   C1A 8871  10.544  24.488   8.550
 4840POPC   D2A 8872  10.498  24.531   8.250
 4840POPC   C3A 8873  10.547  24.495   7.950
 4840POPC   C4A 8874  10.502  24.530   7.650
 4840POPC   C1B 8875  10.678  24.250   8.550
 4840POPC   C2B 8876  10.604  24.251   8.250
 4840POPC   C3B 8877  10.682  24.263   7.950
 4840POPC   C4B 8878  10.602  24.289   7.650
 4841POPC   NC3 8879  29.926  43.152   9.450
 4841POPC   PO4 8880  29.901  43.140   9.150
 4841POPC   GL1 8881  29.874  43.103   8.850
 4841POPC   GL2 8882  29.823  43.089   8.850
 4841POPC   C1A 8883  29.877  43.144   8.550
 4841POPC   D2A 8884  29.927  43.077   8.250
 4841POPC   C3A 8885  29.968  43.068   7.950
 4841POPC   C4A 8886  29.888  43.142   7.650
 4841POPC   C1B 8887  29.679  43.123   8.550
 4841POPC   C2B 8888  29.638  43.106   8.250
 4841POPC   C3B 8889  29.625  43.146   7.950
 4841POPC   C4B 8890  29.670  43.180   7.650
 4842POPC   NC3 8891  41.607   9.780   9.450
 4842POPC   PO4 8892  41.599   9.722   9.150
 4842POPC   GL1 8893  41.572   9.745   8.850
 4842POPC   GL2 8894  41.455   9.699   8.850
 4842POPC   C1A 8895  41.520   9.708   8.550
 4842POPC   D2A 8896  41.517   9.798   8.250
 4842POPC   C3A 8897  41.579   9.791   7.950
 4842POPC   C4A 8898  41.568   9.764   7.650
 4842POPC   C1B 8899  41.379   9.581   8.550
 4842POPC   C2B 8900  41.380   9.554   8.250
 4842POPC   C3B 8901  41.375   9.516   7.950
 4842POPC   C4B 8902  41.368   9.553   7.650
 4843POPC   NC3 8903  31.470  25.999   9.450
 4843POPC   PO4 8904  31.510  26.024   9.150
 4843POPC   GL1 8905  31.424  26.069   8.850
 4843POPC   GL2 8906  31.529  26.161   8.850
 4843POPC   C1A 8907  31.491  26.089   8.550
 4843POPC   D2A 8908  31.480  26.063   8.250
 4843POPC   C3A 8909  31.432  25.997   7.950
 4843POPC   C4A 8910  31.470  26.014   7.650
 4843POPC   C1B 8911  31.517  26.287   8.550
 4843POPC   C2B 8912  31.534  26.323   8.250
 4843POPC   C3B 8913  31.480  26.293   7.950
 4843POPC   C4B 8914  31.540  26.274   7.650
 4844POPC   NC3 8915   2.018  39.218   9.450
 4844POPC   PO4 8916   1.958  39.271   9.150
 4844POPC   GL1 8917   1.972  39.258   8.850
 4844POPC   GL2 8918   1.994  39.388   8.850
 4844POPC   C1A 8919   2.039  39.264   8.550
 4844POPC   D2A 8920   2.018  39.200   8.250
 4844POPC   C3A 8921   2.006  39.183   7.950
 4844POPC   C4A 8922   2.008  39.207   7.650
 4844POPC   C1B 8923   1.918  39.428   8.550
 4844POPC   C2B 8924   1.901  39.464   8.250
 4844POPC   C3B 8925   1.991  39.485   7.950
 4844POPC   C4B 8926   1.899  39.467   7.650
 4845POPC   NC3 8927  15.202  13.601   9.450
 4845POPC   PO4 8928  15.144  13.632   9.150
 4845POPC   GL1 8929  15.168  13.609   8.850
 4845POPC   GL2 8930  15.265  13.747   8.850
 4845POPC   C1A 8931  15.205  13.635   8.550
 4845POPC   D2A 8932  15.180  13.612   8.250
 4845POPC   C3A 8933  15.148  13.634   7.950
 4845POPC   C4A 8934  15.145  13.600   7.650
 4845POPC   C1B 8935  15.271  13.880   8.550
 4845POPC   C2B 8936  15.296  13.893   8.250
 4845POPC   C3B 8937  15.214  13.879   7.950
 4845POPC   C4B 8938  15.216  13.818   7.650
 4846POPC   NC3 8939  43.071  19.884   9.450
 4846POPC   PO4 8940  43.155  19.814   9.150
 4846POPC   GL1 8941  43.139  19.820   8.850
 4846POPC   GL2 8942  43.095  19.680   8.850
 4846POPC   C1A 8943  43.088  19.879   8.550
 4846POPC   D2A 8944  43.104  19.873   8.250
 4846POPC   C3A 8945  43.128  19.825   7.950
 4846POPC   C4A 8946  43.079  19.866   7.650
 4846POPC   C1B 8947  42.935  19.666   8.550
 4846POPC   C2B 8948  43.032  19.628   8.250
 4846POPC   C3B 8949  42.956  19.593   7.950
 4846POPC   C4B 8950  42.942  19.587   7.650
 4847POPC   NC3 8951  17.468  18.287   9.450
 4847POPC   PO4 8952  17.487  18.271   9.150
 4847POPC   GL1 8953  17.472  18.312   8.850
 4847POPC   GL2 8954  17.396  18.212   8.850
 4847POPC   C1A 8955  17.485  18.292   8.550
 4847POPC   D2A 8956  17.504  18.331   8.250
 4847POPC   C3A 8957  17.462  18.310   7.950
 4847POPC   C4A 8958  17.461  18.325   7.650
 4847POPC   C1B 8959  17.265  18.201   8.550
 4847POPC   C2B 8960  17.293  18.153   8.250
 4847POPC   C3B 8961  17.311  18.103   7.950
 4847POPC   C4B 8962  17.302  18.120   7.650
 4848POPC   NC3 8963  26.770  36.098   9.450
 4848POPC   PO4 8964  26.794  36.082   9.150
 4848POPC   GL1 8965  26.821  36.127   8.850
 4848POPC   GL2 8966  26.867  36.017   8.850
 4848POPC   C1A 8967  26.814  36.157   8.550
 4848POPC   D2A 8968  26.811  36.087   8.250
 4848POPC   C3A 8969  26.777  36.176   7.950
 4848POPC   C4A 8970  26.797  36.083   7.650
 4848POPC   C1B 8971  26.970  35.958   8.550
 4848POPC   C2B 8972  26.994  35.960   8.250
 4848POPC   C3B 8973  26.937  35.881   7.950
 4848POPC   C4B 8974  26.985  35.930   7.650
 4849POPC   NC3 8975  21.401  24.498   9.450
 4849POPC   PO4 8976  21.392  24.517   9.150
 4849POPC   GL1 8977  21.430  24.472   8.850
 4849POPC   GL2 8978  21.545  24.477   8.850
 4849POPC   C1A 8979  21.432  24.496   8.550
 4849POPC   D2A 8980  21.342  24.461   8.250
 4849POPC   C3A 8981  21.389  24.511   7.950
 4849POPC   C4A 8982  21.351  24.443   7.650
 4849POPC   C1B 8983  21.660  24.494   8.550
 4849POPC   C2B 8984  21.593  24.463   8.250
 4849POPC   C3B 8985  21.598  24.464   7.950
 4849POPC   C4B 8986  21.634  24.426   7.650
 4850POPC   NC3 8987  29.887   6.606   9.450
 4850POPC   PO4 8988  29.894   6.669   9.150
 4850POPC   GL1 8989  29.958   6.605   8.850
 4850POPC   GL2 8990  29.831   6.666   8.850
 4850POPC   C1A 8991  29.933   6.601   8.550
 4850POPC   D2A 8992  29.884   6.682   8.250
 4850POPC   C3A 8993  29.874   6.601   7.950
 4850POPC   C4A 8994  29.902   6.602   7.650
 4850POPC   C1B 8995  29.629   6.620   8.550
 4850POPC   C2B 8996  29.631   6.681   8.250
 4850POPC   C3B 8997  29.677   6.674   7.950
 4850POPC   C4B 8998  29.687   6.607   7.650
 4851POPC   NC3 8999   1.200  33.787   9.450
 4851POPC   PO4 9000   1.168  33.779   9.150
 4851POPC   GL1 9001   1.200  33.807   8.850
 4851POPC   GL2 9002   1.207  33.955   8.850
 4851POPC   C1A 9003   1.250  33.848   8.550
 4851POPC   D2A 9004   1.235  33.774   8.250
 4851POPC   C3A 9005   1.244  33.784   7.950
 4851POPC   C4A 9006   1.226  33.794   7.650
 4851POPC   C1B 9007   1.260  34.097   8.550
 4851POPC   C2B 9008   1.242  34.051   8.250
 4851POPC   C3B 9009   1.263  34.001   7.950
 4851POPC   C4B 9010   1.202  34.071   7.650
 4852POPC   NC3 9011   9.001  44.661   9.450
 4852POPC   PO4 9012   8.954  44.686   9.150
 4852POPC   GL1 9013   8.961  44.636   8.850
 4852POPC   GL2 9014   9.082  44.601   8.850
 4852POPC   C1A 9015   8.954  44.654   8.550
 4852POPC   D2A 9016   8.923  44.649   8.250
 4852POPC   C3A 9017   8.952  44.640   7.950
 4852POPC   C4A 9018   8.955  44.621   7.650
 4852POPC   C1B 9019   9.210  44.526   8.550
 4852POPC   C2B 9020   9.153  44.564   8.250
 4852POPC   C3B 9021   9.170  44.541   7.950
 4852POPC   C4B 9022   9.166  44.477   7.650
 4853POPC   NC3 9023  29.149  37.640   9.450
 4853POPC   PO4 9024  29.119  37.652   9.150
 4853POPC   GL1 9025  29.135  37.713   8.850
 4853POPC   GL2 9026  29.032  37.690   8.850
 4853POPC   C1A 9027  29.121  37.725   8.550
 4853POPC   D2A 9028  29.179  37.682   8.250
 4853POPC   C3A 9029  29.151  37.719   7.950
 4853POPC   C4A 9030  29.103  37.720   7.650
 4853POPC   C1B 9031  28.856  37.757   8.550
 4853POPC   C2B 9032  28.942  37.731   8.250
 4853POPC   C3B 9033  28.921  37.710   7.950
 4853POPC   C4B 9034  28.923  37.716   7.650
 4854POPC   NC3 9035  20.637   1.221   9.450
 4854POPC   PO4 9036  20.619   1.199   9.150
 4854POPC   GL1 9037  20.633   1.169   8.850
 4854POPC   GL2 9038  20.480   1.230   8.850
 4854POPC   C1A 9039  20.649   1.225   8.550
 4854POPC   D2A 9040  20.639   1.170   8.250
 4854POPC   C3A 9041  20.649   1.242   7.950
 4854POPC   C4A 9042  20.652   1.216   7.650
 4854POPC   C1B 9043  20.319   1.237   8.550
 4854POPC   C2B 9044  20.382   1.159   8.250
 4854POPC   C3B 9045  20.390   1.206   7.950
 4854POPC   C4B 9046  20.410   1.188   7.650
 4855POPC   NC3 9047  44.667   9.016   9.450
 4855POPC   PO4 9048  44.645   8.954   9.150
 4855POPC   GL1 9049  44.673   8.963   8.850
 4855POPC   GL2 9050  44.823   9.071   8.850
 4855POPC   C1A 9051  44.710   8.934   8.550
 4855POPC   D2A 9052  44.655   8.997   8.250
 4855POPC   C3A 9053  44.711   8.995   7.950
 4855POPC   C4A 9054  44.678   8.941   7.650
 4855POPC   C1B 9055  44.916   9.121   8.550
 4855POPC   C2B 9056  44.909   9.060   8.250
 4855POPC   C3B 9057  44.841   9.077   7.950
 4855POPC   C4B 9058  44.912   9.068   7.650
 4856POPC   NC3 9059  19.106  39.220   9.450
 4856POPC   PO4 9060  19.025  39.202   9.150
 4856POPC   GL1 9061  19.019  39.196   8.850
 4856POPC   GL2 9062  19.161  39.183   8.850
 4856POPC   C1A 9063  19.028  39.256   8.550
 4856POPC   D2A 9064  19.044  39.182   8.250
 4856POPC   C3A 9065  19.047  39.183   7.950
 4856POPC   C4A 9066  19.058  39.279   7.650
 4856POPC   C1B 9067  19.264  39.185   8.550
 4856POPC   C2B 9068  19.252  39.125   8.250
 4856POPC   C3B 9069  19.259  39.124   7.950
 4856POPC   C4B 9070  19.314  39.163   7.650
 4857POPC   NC3 9071  31.450  11.350   9.450
 4857POPC   PO4 9072  31.512  11.325   9.150
 4857POPC   GL1 9073  31.440  11.257   8.850
 4857POPC   GL2 9074  31.467  11.391   8.850
 4857POPC   C1A 9075  31.467  11.316   8.550
 4857POPC   D2A 9076  31.434  11.339   8.250
 4857POPC   C3A 9077  31.518  11.284   7.950
 4857POPC   C4A 9078  31.440  11.350   7.650
 4857POPC   C1B 9079  31.412  11.571   8.550
 4857POPC   C2B 9080  31.368  11.512   8.250
 4857POPC   C3B 9081  31.362  11.516   7.950
 4857POPC   C4B 9082  31.378  11.494   7.650
 4858POPC   NC3 9083   0.484  17.533   9.450
 4858POPC   PO4 9084   0.466  17.487   9.150
 4858POPC   GL1 9085   0.459  17.511   8.850
 4858POPC   GL2 9086   0.367  17.352   8.850
 4858POPC   C1A 9087   0.436  17.511   8.550
 4858POPC   D2A 9088   0.456  17.542   8.250
 4858POPC   C3A 9089   0.413  17.502   7.950
 4858POPC   C4A 9090   0.448  17.480   7.650
 4858POPC   C1B 9091   0.345  17.273   8.550
 4858POPC   C2B 9092   0.333  17.279   8.250
 4858POPC   C3B 9093   0.341  17.262   7.950
 4858POPC   C4B 9094   0.274  17.326   7.650
 4859POPC   NC3 9095   2.732   4.366   9.450
 4859POPC   PO4 9096   2.733   4.320   9.150
 4859POPC   GL1 9097   2.760   4.362   8.850
 4859POPC   GL2 9098   2.628   4.318   8.850
 4859POPC   C1A 9099   2.805   4.358   8.550
 4859POPC   D2A 9100   2.811   4.299   8.250
 4859POPC   C3A 9101   2.778   4.293   7.950
 4859POPC   C4A 9102   2.777   4.340   7.650
 4859POPC   C1B 9103   2.526   4.312   8.550
 4859POPC   C2B 9104   2.544   4.305   8.250
 4859POPC   C3B 9105   2.474   4.246   7.950
 4859POPC   C4B 9106   2.517   4.262   7.650
 4860POPC   NC3 9107  44.679  43.113   9.450
 4860POPC   PO4 9108  44.703  43.152   9.150
 4860POPC   GL1 9109  44.662  43.155   8.850
 4860POPC   GL2 9110  44.796  43.048   8.850
 4860POPC   C1A 9111  44.653  43.061   8.550
 4860POPC   D2A 9112  44.669  43.109   8.250
 4860POPC   C3A 9113  44.707  43.134   7.950
 4860POPC   C4A 9114  44.613  43.080   7.650
 4860POPC   C1B 9115  44.876  43.035   8.550
 4860POPC   C2B 9116  44.883  42.968   8.250
 4860POPC   C3B 9117  44.900  43.035   7.950
 4860POPC   C4B 9118  44.875  42.994   7.650
 4861POPC   NC3 9119  11.251   5.123   9.450
 4861POPC   PO4 9120  11.308   5.090   9.150
 4861POPC   GL1 9121  11.341   5.125   8.850
 4861POPC   GL2 9122  11.350   4.980   8.850
 4861POPC   C1A 9123  11.252   5.110   8.550
 4861POPC   D2A 9124  11.259   5.071   8.250
 4861POPC   C3A 9125  11.258   5.136   7.950
 4861POPC   C4A 9126  11.346   5.053   7.650
 4861POPC   C1B 9127  11.401   4.929   8.550
 4861POPC   C2B 9128  11.450   4.847   8.250
 4861POPC   C3B 9129  11.430   4.903   7.950
 4861POPC   C4B 9130  11.397   4.883   7.650
 4862POPC   NC3 9131   5.878   3.587   9.450
 4862POPC   PO4 9132   5.823   3.535   9.150
 4862POPC   GL1 9133   5.840   3.529   8.850
 4862POPC   GL2 9134   5.953   3.540   8.850
 4862POPC   C1A 9135   5.861   3.567   8.550
 4862POPC   D2A 9136   5.862   3.554   8.250
 4862POPC   C3A 9137   5.858   3.526   7.950
 4862POPC   C4A 9138   5.856   3.495   7.650
 4862POPC   C1B 9139   6.063   3.654   8.550
 4862POPC   C2B 9140   6.133   3.578   8.250
 4862POPC   C3B 9141   6.159   3.586   7.950
 4862POPC   C4B 9142   6.120   3.564   7.650
 4863POPC   NC3 9143  43.088  29.915   9.450
 4863POPC   PO4 9144  43.112  29.900   9.150
 4863POPC   GL1 9145  43.086  29.901   8.850
 4863POPC   GL2 9146  42.966  29.955   8.850
 4863POPC   C1A 9147  43.092  29.957   8.550
 4863POPC   D2A 9148  43.083  29.962   8.250
 4863POPC   C3A 9149  43.077  29.904   7.950
 4863POPC   C4A 9150  43.142  29.950   7.650
 4863POPC   C1B 9151  42.847  29.915   8.550
 4863POPC   C2B 9152  42.904  29.951   8.250
 4863POPC   C3B 9153  42.858  29.938   7.950
 4863POPC   C4B 9154  42.889  29.874   7.650
 4864POPC   NC3 9155  41.531  27.572   9.450
 4864POPC   PO4 9156  41.571  27.630   9.150
 4864POPC   GL1 9157  41.597  27.553   8.850
 4864POPC   GL2 9158  41.572  27.500   8.850
 4864POPC   C1A 9159  41.568  27.588   8.550
 4864POPC   D2A 9160  41.606  27.617   8.250
 4864POPC   C3A 9161  41.525  27.634   7.950
 4864POPC   C4A 9162  41.530  27.591   7.650
 4864POPC   C1B 9163  41.663  27.383   8.550
 4864POPC   C2B 9164  41.658  27.374   8.250
 4864POPC   C3B 9165  41.596  27.324   7.950
 4864POPC   C4B 9166  41.618  27.320   7.650
 4865POPC   NC3 9167   8.947  28.373   9.450
 4865POPC   PO4 9168   8.985  28.370   9.150
 4865POPC   GL1 9169   8.971  28.346   8.850
 4865POPC   GL2 9170   9.101  28.384   8.850
 4865POPC   C1A 9171   8.938  28.324   8.550
 4865POPC   D2A 9172   8.931  28.395   8.250
 4865POPC   C3A 9173   8.978  28.409   7.950
 4865POPC   C4A 9174   8.927  28.400   7.650
 4865POPC   C1B 9175   9.171  28.403   8.550
 4865POPC   C2B 9176   9.234  28.412   8.250
 4865POPC   C3B 9177   9.252  28.418   7.950
 4865POPC   C4B 9178   9.220  28.376   7.650
 4866POPC   NC3 9179   9.010  20.644   9.450
 4866POPC   PO4 9180   8.937  20.639   9.150
 4866POPC   GL1 9181   8.925  20.577   8.850
 4866POPC   GL2 9182   9.004  20.515   8.850
 4866POPC   C1A 9183   8.946  20.605   8.550
 4866POPC   D2A 9184   9.013  20.562   8.250
 4866POPC   C3A 9185   8.973  20.621   7.950
 4866POPC   C4A 9186   8.968  20.648   7.650
 4866POPC   C1B 9187   9.029  20.402   8.550
 4866POPC   C2B 9188   9.042  20.384   8.250
 4866POPC   C3B 9189   9.062  20.404   7.950
 4866POPC   C4B 9190   9.061  20.353   7.650
 4867POPC   NC3 9191  35.349  20.636   9.450
 4867POPC   PO4 9192  35.390  20.619   9.150
 4867POPC   GL1 9193  35.353  20.598   8.850
 4867POPC   GL2 9194  35.478  20.735   8.850
 4867POPC   C1A 9195  35.316  20.581   8.550
 4867POPC   D2A 9196  35.362  20.639   8.250
 4867POPC   C3A 9197  35.308  20.587   7.950
 4867POPC   C4A 9198  35.373  20.592   7.650
 4867POPC   C1B 9199  35.500  20.804   8.550
 4867POPC   C2B 9200  35.538  20.786   8.250
 4867POPC   C3B 9201  35.533  20.791   7.950
 4867POPC   C4B 9202  35.527  20.780   7.650
 4868POPC   NC3 9203  14.403  18.278   9.450
 4868POPC   PO4 9204  14.407  18.304   9.150
 4868POPC   GL1 9205  14.424  18.236   8.850
 4868POPC   GL2 9206  14.550  18.260   8.850
 4868POPC   C1A 9207  14.392  18.320   8.550
 4868POPC   D2A 9208  14.411  18.289   8.250
 4868POPC   C3A 9209  14.384  18.321   7.950
 4868POPC   C4A 9210  14.448  18.239   7.650
 4868POPC   C1B 9211  14.664  18.219   8.550
 4868POPC   C2B 9212  14.629  18.155   8.250
 4868POPC   C3B 9213  14.616  18.157   7.950
 4868POPC   C4B 9214  14.605  18.185   7.650
 4869POPC   NC3 9215  44.667  22.927   9.450
 4869POPC   PO4 9216  44.655  22.976   9.150
 4869POPC   GL1 9217  44.640  22.914   8.850
 4869POPC   GL2 9218  44.562  22.963   8.850
 4869POPC   C1A 9219  44.635  22.904   8.550
 4869POPC   D2A 9220  44.625  22.987   8.250
 4869POPC   C3A 9221  44.642  22.943   7.950
 4869POPC   C4A 9222  44.706  22.963   7.650
 4869POPC   C1B 9223  44.467  22.944   8.550
 4869POPC   C2B 9224  44.411  23.039   8.250
 4869POPC   C3B 9225  44.408  22.974   7.950
 4869POPC   C4B 9226  44.467  22.989   7.650
 4870POPC   NC3 9227  20.634  20.602   9.450
 4870POPC   PO4 9228  20.658  20.618   9.150
 4870POPC   GL1 9229  20.623  20.629   8.850
 4870POPC   GL2 9230  20.561  20.453   8.850
 4870POPC   C1A 9231  20.624  20.564   8.550
 4870POPC   D2A 9232  20.659  20.599   8.250
 4870POPC   C3A 9233  20.643  20.565   7.950
 4870POPC   C4A 9234  20.658  20.586   7.650
 4870POPC   C1B 9235  20.544  20.326   8.550
 4870POPC   C2B 9236  20.567  20.354   8.250
 4870POPC   C3B 9237  20.551  20.378   7.950
 4870POPC   C4B 9238  20.590  20.365   7.650
 4871POPC   NC3 9239  23.712  33.801   9.450
 4871POPC   PO4 9240  23.694  33.778   9.150
 4871POPC   GL1 9241  23.709  33.780   8.850
 4871POPC   GL2 9242  23.562  33.732   8.850
 4871POPC   C1A 9243  23.676  33.847   8.550
 4871POPC   D2A 9244  23.714  33.771   8.250
 4871POPC   C3A 9245  23.752  33.772   7.950
 4871POPC   C4A 9246  23.686  33.815   7.650
 4871POPC   C1B 9247  23.435  33.691   8.550
 4871POPC   C2B 9248  23.500  33.687   8.250
 4871POPC   C3B 9249  23.445  33.726   7.950
 4871POPC   C4B 9250  23.452  33.724   7.650
 4872POPC   NC3 9251   0.408  16.761   9.450
 4872POPC   PO4 9252   0.472  16.752   9.150
 4872POPC   GL1 9253   0.472  16.711   8.850
 4872POPC   GL2 9254   0.317  16.831   8.850
 4872POPC   C1A 9255   0.442  16.779   8.550
 4872POPC   D2A 9256   0.388  16.688   8.250
 4872POPC   C3A 9257   0.481  16.720   7.950
 4872POPC   C4A 9258   0.472  16.684   7.650
 4872POPC   C1B 9259   0.289  16.961   8.550
 4872POPC   C2B 9260   0.234  16.884   8.250
 4872POPC   C3B 9261   0.228  16.931   7.950
 4872POPC   C4B 9262   0.217  16.926   7.650
 4873POPC   NC3 9263   1.200  22.913   9.450
 4873POPC   PO4 9264   1.177  22.945   9.150
 4873POPC   GL1 9265   1.176  22.974   8.850
 4873POPC   GL2 9266   1.147  22.896   8.850
 4873POPC   C1A 9267   1.241  22.964   8.550
 4873POPC   D2A 9268   1.253  22.952   8.250
 4873POPC   C3A 9269   1.209  22.946   7.950
 4873POPC   C4A 9270   1.252  22.891   7.650
 4873POPC   C1B 9271   1.036  22.790   8.550
 4873POPC   C2B 9272   0.982  22.728   8.250
 4873POPC   C3B 9273   1.063  22.820   7.950
 4873POPC   C4B 9274   1.042  22.773   7.650
 4874POPC   NC3 9275  42.317  29.184   9.450
 4874POPC   PO4 9276  42.323  29.131   9.150
 4874POPC   GL1 9277  42.295  29.150   8.850
 4874POPC   GL2 9278  42.476  29.222   8.850
 4874POPC   C1A 9279  42.296  29.148   8.550
 4874POPC   D2A 9280  42.347  29.112   8.250
 4874POPC   C3A 9281  42.307  29.101   7.950
 4874POPC   C4A 9282  42.320  29.124   7.650
 4874POPC   C1B 9283  42.534  29.282   8.550
 4874POPC   C2B 9284  42.544  29.290   8.250
 4874POPC   C3B 9285  42.564  29.242   7.950
 4874POPC   C4B 9286  42.563  29.255   7.650
 4875POPC   NC3 9287  27.605  36.871   9.450
 4875POPC   PO4 9288  27.566  36.887   9.150
 4875POPC   GL1 9289  27.628  36.949   8.850
 4875POPC   GL2 9290  27.672  36.826   8.850
 4875POPC   C1A 9291  27.635  36.900   8.550
 4875POPC   D2A 9292  27.567  36.930   8.250
 4875POPC   C3A 9293  27.627  36.857   7.950
 4875POPC   C4A 9294  27.610  36.871   7.650
 4875POPC   C1B 9295  27.775  36.755   8.550
 4875POPC   C2B 9296  27.767  36.763   8.250
 4875POPC   C3B 9297  27.760  36.738   7.950
 4875POPC   C4B 9298  27.813  36.763   7.650
 4876POPC   NC3 9299  12.894  34.545   9.450
 4876POPC   PO4 9300  12.820  34.587   9.150
 4876POPC   GL1 9301  12.880  34.543   8.850
 4876POPC   GL2 9302  12.775  34.481   8.850
 4876POPC   C1A 9303  12.883  34.595   8.550
 4876POPC   D2A 9304  12.838  34.610   8.250
 4876POPC   C3A 9305  12.864  34.597   7.950
 4876POPC   C4A 9306  12.830  34.586   7.650
 4876POPC   C1B 9307  12.831  34.343   8.550
 4876POPC   C2B 9308  12.833  34.312   8.250
 4876POPC   C3B 9309  12.829  34.298   7.950
 4876POPC   C4B 9310  12.791  34.326   7.650
 4877POPC   NC3 9311  10.538  12.836   9.450
 4877POPC   PO4 9312  10.502  12.816   9.150
 4877POPC   GL1 9313  10.525  12.863   8.850
 4877POPC   GL2 9314  10.581  12.765   8.850
 4877POPC   C1A 9315  10.497  12.858   8.550
 4877POPC   D2A 9316  10.486  12.858   8.250
 4877POPC   C3A 9317  10.485  12.881   7.950
 4877POPC   C4A 9318  10.536  12.823   7.650
 4877POPC   C1B 9319  10.750  12.690   8.550
 4877POPC   C2B 9320  10.741  12.706   8.250
 4877POPC   C3B 9321  10.687  12.723   7.950
 4877POPC   C4B 9322  10.676  12.683   7.650
 4878POPC   NC3 9323  33.785  28.415   9.450
 4878POPC   PO4 9324  33.849  28.372   9.150
 4878POPC   GL1 9325  33.792  28.344   8.850
 4878POPC   GL2 9326  33.632  28.379   8.850
 4878POPC   C1A 9327  33.787  28.419   8.550
 4878POPC   D2A 9328  33.752  28.362   8.250
 4878POPC   C3A 9329  33.817  28.371   7.950
 4878POPC   C4A 9330  33.813  28.354   7.650
 4878POPC   C1B 9331  33.553  28.317   8.550
 4878POPC   C2B 9332  33.566  28.293   8.250
 4878POPC   C3B 9333  33.554  28.310   7.950
 4878POPC   C4B 9334  33.585  28.329   7.650
 4879POPC   NC3 9335  12.891  32.977   9.450
 4879POPC   PO4 9336  12.898  33.057   9.150
 4879POPC   GL1 9337  12.883  33.038   8.850
 4879POPC   GL2 9338  12.891  32.921   8.850
 4879POPC   C1A 9339  12.864  33.009   8.550
 4879POPC   D2A 9340  12.866  33.069   8.250
 4879POPC   C3A 9341  12.873  33.043   7.950
 4879POPC   C4A 9342  12.811  32.999   7.650
 4879POPC   C1B 9343  12.806  32.813   8.550
 4879POPC   C2B 9344  12.802  32.791   8.250
 4879POPC   C3B 9345  12.791  32.822   7.950
 4879POPC   C4B 9346  12.827  32.799   7.650
 4880POPC   NC3 9347   8.220  15.192   9.450
 4880POPC   PO4 9348   8.199  15.166   9.150
 4880POPC   GL1 9349   8.242  15.132   8.850
 4880POPC   GL2 9350   8.263  15.066   8.850
 4880POPC   C1A 9351   8.201  15.161   8.550
 4880POPC   D2A 9352   8.147  15.212   8.250
 4880POPC   C3A 9353   8.227  15.141   7.950
 4880POPC   C4A 9354   8.161  15.154   7.650
 4880POPC   C1B 9355   8.257  14.919   8.550
 4880POPC   C2B 9356   8.243  14.971   8.250
 4880POPC   C3B 9357   8.250  14.943   7.950
 4880POPC   C4B 9358   8.189  14.929   7.650
 4881POPC   NC3 9359  25.235  24.473   9.450
 4881POPC   PO4 9360  25.227  24.493   9.150
 4881POPC   GL1 9361  25.231  24.459   8.850
 4881POPC   GL2 9362  25.342  24.365   8.850
 4881POPC   C1A 9363  25.274  24.458   8.550
 4881POPC   D2A 9364  25.246  24.485   8.250
 4881POPC   C3A 9365  25.274  24.508   7.950
 4881POPC   C4A 9366  25.310  24.486   7.650
 4881POPC   C1B 9367  25.417  24.274   8.550
 4881POPC   C2B 9368  25.386  24.308   8.250
 4881POPC   C3B 9369  25.425  24.308   7.950
 4881POPC   C4B 9370  25.434  24.319   7.650
 4882POPC   NC3 9371  39.992   1.245   9.450
 4882POPC   PO4 9372  39.982   1.216   9.150
 4882POPC   GL1 9373  40.016   1.199   8.850
 4882POPC   GL2 9374  40.014   1.348   8.850
 4882POPC   C1A 9375  39.995   1.173   8.550
 4882POPC   D2A 9376  40.011   1.201   8.250
 4882POPC   C3A 9377  40.041   1.190   7.950
 4882POPC   C4A 9378  39.958   1.200   7.650
 4882POPC   C1B 9379  39.965   1.512   8.550
 4882POPC   C2B 9380  40.013   1.426   8.250
 4882POPC   C3B 9381  40.023   1.484   7.950
 4882POPC   C4B 9382  39.981   1.466   7.650
 4883POPC   NC3 9383  12.886   1.996   9.450
 4883POPC   PO4 9384  12.871   2.025   9.150
 4883POPC   GL1 9385  12.820   1.945   8.850
 4883POPC   GL2 9386  12.731   2.045   8.850
 4883POPC   C1A 9387  12.842   2.014   8.550
 4883POPC   D2A 9388  12.840   1.961   8.250
 4883POPC   C3A 9389  12.867   2.024   7.950
 4883POPC   C4A 9390  12.804   2.035   7.650
 4883POPC   C1B 9391  12.656   2.129   8.550
 4883POPC   C2B 9392  12.640   2.126   8.250
 4883POPC   C3B 9393  12.674   2.177   7.950
 4883POPC   C4B 9394  12.706   2.190   7.650
 4884POPC   NC3 9395  31.469  23.682   9.450
 4884POPC   PO4 9396  31.429  23.757   9.150
 4884POPC   GL1 9397  31.496  23.690   8.850
 4884POPC   GL2 9398  31.366  23.670   8.850
 4884POPC   C1A 9399  31.468  23.757   8.550
 4884POPC   D2A 9400  31.507  23.679   8.250
 4884POPC   C3A 9401  31.478  23.722   7.950
 4884POPC   C4A 9402  31.491  23.753   7.650
 4884POPC   C1B 9403  31.217  23.575   8.550
 4884POPC   C2B 9404  31.261  23.665   8.250
 4884POPC   C3B 9405  31.194  23.595   7.950
 4884POPC   C4B 9406  31.274  23.568   7.650
 4885POPC   NC3 9407   1.257   1.248   9.450
 4885POPC   PO4 9408   1.203   1.259   9.150
 4885POPC   GL1 9409   1.168   1.216   8.850
 4885POPC   GL2 9410   1.249   1.061   8.850
 4885POPC   C1A 9411   1.168   1.187   8.550
 4885POPC   D2A 9412   1.238   1.257   8.250
 4885POPC   C3A 9413   1.166   1.177   7.950
 4885POPC   C4A 9414   1.258   1.212   7.650
 4885POPC   C1B 9415   1.296   1.023   8.550
 4885POPC   C2B 9416   1.332   0.954   8.250
 4885POPC   C3B 9417   1.351   0.959   7.950
 4885POPC   C4B 9418   1.300   1.034   7.650
 4886POPC   NC3 9419  14.397  37.633   9.450
 4886POPC   PO4 9420  14.381  37.681   9.150
 4886POPC   GL1 9421  14.387  37.706   8.850
 4886POPC   GL2 9422  14.379  37.776   8.850
 4886POPC   C1A 9423  14.378  37.650   8.550
 4886POPC   D2A 9424  14.427  37.642   8.250
 4886POPC   C3A 9425  14.367  37.717   7.950
 4886POPC   C4A 9426  14.424  37.631   7.650
 4886POPC   C1B 9427  14.318  37.946   8.550
 4886POPC   C2B 9428  14.293  37.911   8.250
 4886POPC   C3B 9429  14.314  37.889   7.950
 4886POPC   C4B 9430  14.336  37.871   7.650
 4887POPC   NC3 9431   3.509   3.566   9.450
 4887POPC   PO4 9432   3.545   3.502   9.150
 4887POPC   GL1 9433   3.542   3.525   8.850
 4887POPC   GL2 9434   3.417   3.531   8.850
 4887POPC   C1A 9435   3.544   3.572   8.550
 4887POPC   D2A 9436   3.494   3.543   8.250
 4887POPC   C3A 9437   3.523   3.505   7.950
 4887POPC   C4A 9438   3.535   3.579   7.650
 4887POPC   C1B 9439   3.311   3.492   8.550
 4887POPC   C2B 9440   3.294   3.499   8.250
 4887POPC   C3B 9441   3.325   3.464   7.950
 4887POPC   C4B 9442   3.262   3.480   7.650
 4888POPC   NC3 9443   5.049  26.081   9.450
 4888POPC   PO4 9444   5.119  26.029   9.150
 4888POPC   GL1 9445   5.124  26.046   8.850
 4888POPC   GL2 9446   5.242  26.109   8.850
 4888POPC   C1A 9447   5.084  26.090   8.550
 4888POPC   D2A 9448   5.138  26.051   8.250
 4888POPC   C3A 9449   5.118  26.001   7.950
 4888POPC   C4A 9450   5.124  26.081   7.650
 4888POPC   C1B 9451   5.358  26.174   8.550
 4888POPC   C2B 9452   5.349  26.106   8.250
 4888POPC   C3B 9453   5.353  26.147   7.950
 4888POPC   C4B 9454   5.317  26.088   7.650
 4889POPC   NC3 9455   5.860  20.630   9.450
 4889POPC   PO4 9456   5.821  20.632   9.150
 4889POPC   GL1 9457   5.864  20.561   8.850
 4889POPC   GL2 9458   5.964  20.545   8.850
 4889POPC   C1A 9459   5.909  20.615   8.550
 4889POPC   D2A 9460   5.887  20.564   8.250
 4889POPC   C3A 9461   5.901  20.575   7.950
 4889POPC   C4A 9462   5.860  20.573   7.650
 4889POPC   C1B 9463   6.068  20.397   8.550
 4889POPC   C2B 9464   6.063  20.491   8.250
 4889POPC   C3B 9465   6.059  20.485   7.950
 4889POPC   C4B 9466   6.049  20.452   7.650
 4890POPC   NC3 9467   4.345  39.979   9.450
 4890POPC   PO4 9468   4.298  40.027   9.150
 4890POPC   GL1 9469   4.343  40.015   8.850
 4890POPC   GL2 9470   4.208  39.871   8.850
 4890POPC   C1A 9471   4.322  40.019   8.550
 4890POPC   D2A 9472   4.308  39.963   8.250
 4890POPC   C3A 9473   4.278  39.971   7.950
 4890POPC   C4A 9474   4.323  39.960   7.650
 4890POPC   C1B 9475   4.221  39.809   8.550
 4890POPC   C2B 9476   4.190  39.781   8.250
 4890POPC   C3B 9477   4.179  39.757   7.950
 4890POPC   C4B 9478   4.149  39.791   7.650
 4891POPC   NC3 9479  42.299  40.030   9.450
 4891POPC   PO4 9480  42.378  39.978   9.150
 4891POPC   GL1 9481  42.332  40.001   8.850
 4891POPC   GL2 9482  42.312  40.086   8.850
 4891POPC   C1A 9483  42.315  40.026   8.550
 4891POPC   D2A 9484  42.336  39.977   8.250
 4891POPC   C3A 9485  42.326  40.048   7.950
 4891POPC   C4A 9486  42.312  39.973   7.650
 4891POPC   C1B 9487  42.255  40.293   8.550
 4891POPC   C2B 9488  42.239  40.299   8.250
 4891POPC   C3B 9489  42.283  40.221   7.950
 4891POPC   C4B 9490  42.299  40.244   7.650
 4892POPC   NC3 9491  15.176  14.433   9.450
 4892POPC   PO4 9492  15.194  14.446   9.150
 4892POPC   GL1 9493  15.165  14.392   8.850
 4892POPC   GL2 9494  15.211  14.498   8.850
 4892POPC   C1A 9495  15.178  14.416   8.550
 4892POPC   D2A 9496  15.218  14.436   8.250
 4892POPC   C3A 9497  15.158  14.402   7.950
 4892POPC   C4A 9498  15.176  14.445   7.650
 4892POPC   C1B 9499  15.324  14.655   8.550
 4892POPC   C2B 9500  15.323  14.670   8.250
 4892POPC   C3B 9501  15.312  14.601   7.950
 4892POPC   C4B 9502  15.339  14.671   7.650
 4893POPC   NC3 9503  18.245  40.787   9.450
 4893POPC   PO4 9504  18.262  40.766   9.150
 4893POPC   GL1 9505  18.325  40.746   8.850
 4893POPC   GL2 9506  18.246  40.888   8.850
 4893POPC   C1A 9507  18.304  40.822   8.550
 4893POPC   D2A 9508  18.298  40.798   8.250
 4893POPC   C3A 9509  18.246  40.775   7.950
 4893POPC   C4A 9510  18.291  40.781   7.650
 4893POPC   C1B 9511  18.216  41.016   8.550
 4893POPC   C2B 9512  18.167  40.967   8.250
 4893POPC   C3B 9513  18.183  41.063   7.950
 4893POPC   C4B 9514  18.192  41.008   7.650
 4894POPC   NC3 9515  37.669  19.064   9.450
 4894POPC   PO4 9516  37.651  19.014   9.150
 4894POPC   GL1 9517  37.714  19.076   8.850
 4894POPC   GL2 9518  37.682  19.173   8.850
 4894POPC   C1A 9519  37.649  19.095   8.550
 4894POPC   D2A 9520  37.638  19.041   8.250
 4894POPC   C3A 9521  37.638  19.104   7.950
 4894POPC   C4A 9522  37.644  19.064   7.650
 4894POPC   C1B 9523  37.677  19.296   8.550
 4894POPC   C2B 9524  37.687  19.351   8.250
 4894POPC   C3B 9525  37.649  19.310   7.950
 4894POPC   C4B 9526  37.720  19.337   7.650
 4895POPC   NC3 9527  21.431  26.060   9.450
 4895POPC   PO4 9528  21.395  25.993   9.150
 4895POPC   GL1 9529  21.418  26.066   8.850
 4895POPC   GL2 9530  21.399  25.899   8.850
 4895POPC   C1A 9531  21.433  26.060   8.550
 4895POPC   D2A 9532  21.347  26.035   8.250
 4895POPC   C3A 9533  21.418  26.015   7.950
 4895POPC   C4A 9534  21.415  26.053   7.650
 4895POPC   C1B 9535  21.352  25.797   8.550
 4895POPC   C2B 9536  21.360  25.795   8.250
 4895POPC   C3B 9537  21.288  25.755   7.950
 4895POPC   C4B 9538  21.308  25.769   7.650
 4896POPC   NC3 9539   5.914  15.966   9.450
 4896POPC   PO4 9540   5.820  15.942   9.150
 4896POPC   GL1 9541   5.820  15.934   8.850
 4896POPC   GL2 9542   6.003  16.027   8.850
 4896POPC   C1A 9543   5.901  15.956   8.550
 4896POPC   D2A 9544   5.891  15.964   8.250
 4896POPC   C3A 9545   5.848  15.988   7.950
 4896POPC   C4A 9546   5.903  15.993   7.650
 4896POPC   C1B 9547   6.060  16.044   8.550
 4896POPC   C2B 9548   6.042  16.066   8.250
 4896POPC   C3B 9549   6.124  16.098   7.950
 4896POPC   C4B 9550   6.095  16.126   7.650
 4897POPC   NC3 9551  26.842  26.771   9.450
 4897POPC   PO4 9552  26.818  26.776   9.150
 4897POPC   GL1 9553  26.789  26.811   8.850
 4897POPC   GL2 9554  26.913  26.869   8.850
 4897POPC   C1A 9555  26.798  26.817   8.550
 4897POPC   D2A 9556  26.817  26.769   8.250
 4897POPC   C3A 9557  26.823  26.787   7.950
 4897POPC   C4A 9558  26.856  26.783   7.650
 4897POPC   C1B 9559  27.105  26.903   8.550
 4897POPC   C2B 9560  27.080  26.876   8.250
 4897POPC   C3B 9561  27.045  26.836   7.950
 4897POPC   C4B 9562  27.040  26.845   7.650
 4898POPC   NC3 9563  15.207  40.831   9.450
 4898POPC   PO4 9564  15.160  40.741   9.150
 4898POPC   GL1 9565  15.156  40.811   8.850
 4898POPC   GL2 9566  15.115  40.802   8.850
 4898POPC   C1A 9567  15.188  40.766   8.550
 4898POPC   D2A 9568  15.195  40.827   8.250
 4898POPC   C3A 9569  15.131  40.796   7.950
 4898POPC   C4A 9570  15.188  40.743   7.650
 4898POPC   C1B 9571  14.977  40.946   8.550
 4898POPC   C2B 9572  14.974  40.886   8.250
 4898POPC   C3B 9573  14.917  40.932   7.950
 4898POPC   C4B 9574  14.915  40.913   7.650
 4899POPC   NC3 9575   5.128  40.040   9.450
 4899POPC   PO4 9576   5.078  40.037   9.150
 4899POPC   GL1 9577   5.060  39.965   8.850
 4899POPC   GL2 9578   5.188  39.879   8.850
 4899POPC   C1A 9579   5.084  39.987   8.550
 4899POPC   D2A 9580   5.077  40.046   8.250
 4899POPC   C3A 9581   5.120  39.998   7.950
 4899POPC   C4A 9582   5.057  39.993   7.650
 4899POPC   C1B 9583   5.243  39.834   8.550
 4899POPC   C2B 9584   5.212  39.786   8.250
 4899POPC   C3B 9585   5.236  39.820   7.950
 4899POPC   C4B 9586   5.247  39.798   7.650
 4900POPC   NC3 9587  37.677  17.469   9.450
 4900POPC   PO4 9588  37.705  17.475   9.150
 4900POPC   GL1 9589  37.632  17.476   8.850
 4900POPC   GL2 9590  37.764  17.488   8.850
 4900POPC   C1A 9591  37.710  17.551   8.550
 4900POPC   D2A 9592  37.650  17.481   8.250
 4900POPC   C3A 9593  37.685  17.498   7.950
 4900POPC   C4A 9594  37.719  17.539   7.650
 4900POPC   C1B 9595  37.928  17.515   8.550
 4900POPC   C2B 9596  37.885  17.455   8.250
 4900POPC   C3B 9597  37.920  17.479   7.950
 4900POPC   C4B 9598  37.900  17.536   7.650
 4901POPC   NC3 9599  43.158  13.621   9.450
 4901POPC   PO4 9600  43.159  13.626   9.150
 4901POPC   GL1 9601  43.103  13.578   8.850
 4901POPC   GL2 9602  43.221  13.703   8.850
 4901POPC   C1A 9603  43.127  13.598   8.550
 4901POPC   D2A 9604  43.129  13.582   8.250
 4901POPC   C3A 9605  43.129  13.627   7.950
 4901POPC   C4A 9606  43.071  13.619   7.650
 4901POPC   C1B 9607  43.236  13.834   8.550
 4901POPC   C2B 9608  43.239  13.856   8.250
 4901POPC   C3B 9609  43.252  13.874   7.950
 4901POPC   C4B 9610  43.227  13.834   7.650
 4902POPC   NC3 9611  22.118   4.333   9.450
 4902POPC   PO4 9612  22.196   4.306   9.150
 4902POPC   GL1 9613  22.128   4.311   8.850
 4902POPC   GL2 9614  22.190   4.242   8.850
 4902POPC   C1A 9615  22.172   4.295   8.550
 4902POPC   D2A 9616  22.151   4.277   8.250
 4902POPC   C3A 9617  22.189   4.284   7.950
 4902POPC   C4A 9618  22.124   4.302   7.650
 4902POPC   C1B 9619  22.224   4.087   8.550
 4902POPC   C2B 9620  22.220   4.073   8.250
 4902POPC   C3B 9621  22.210   4.073   7.950
 4902POPC   C4B 9622  22.170   4.080   7.650
 4903POPC   NC3 9623  15.163  12.105   9.450
 4903POPC   PO4 9624  15.196  12.049   9.150
 4903POPC   GL1 9625  15.212  12.091   8.850
 4903POPC   GL2 9626  15.136  11.947   8.850
 4903POPC   C1A 9627  15.141  12.103   8.550
 4903POPC   D2A 9628  15.180  12.048   8.250
 4903POPC   C3A 9629  15.219  12.126   7.950
 4903POPC   C4A 9630  15.162  12.119   7.650
 4903POPC   C1B 9631  15.181  11.861   8.550
 4903POPC   C2B 9632  15.186  11.847   8.250
 4903POPC   C3B 9633  15.198  11.796   7.950
 4903POPC   C4B 9634  15.138  11.798   7.650
 4904POPC   NC3 9635  22.945  35.329   9.450
 4904POPC   PO4 9636  22.899  35.353   9.150
 4904POPC   GL1 9637  22.922  35.360   8.850
 4904POPC   GL2 9638  22.847  35.357   8.850
 4904POPC   C1A 9639  22.915  35.350   8.550
 4904POPC   D2A 9640  22.954  35.346   8.250
 4904POPC   C3A 9641  22.898  35.398   7.950
 4904POPC   C4A 9642  22.908  35.365   7.650
 4904POPC   C1B 9643  22.675  35.296   8.550
 4904POPC   C2B 9644  22.693  35.294   8.250
 4904POPC   C3B 9645  22.654  35.306   7.950
 4904POPC   C4B 9646  22.739  35.269   7.650
 4905POPC   NC3 9647  29.899   1.963   9.450
 4905POPC   PO4 9648  29.894   1.943   9.150
 4905POPC   GL1 9649  29.959   2.034   8.850
 4905POPC   GL2 9650  29.884   2.134   8.850
 4905POPC   C1A 9651  29.924   1.949   8.550
 4905POPC   D2A 9652  29.877   2.021   8.250
 4905POPC   C3A 9653  29.946   1.982   7.950
 4905POPC   C4A 9654  29.905   1.966   7.650
 4905POPC   C1B 9655  29.753   2.202   8.550
 4905POPC   C2B 9656  29.789   2.193   8.250
 4905POPC   C3B 9657  29.740   2.221   7.950
 4905POPC   C4B 9658  29.771   2.206   7.650
 4906POPC   NC3 9659  24.479  42.353   9.450
 4906POPC   PO4 9660  24.493  42.343   9.150
 4906POPC   GL1 9661  24.519  42.363   8.850
 4906POPC   GL2 9662  24.405  42.466   8.850
 4906POPC   C1A 9663  24.527  42.365   8.550
 4906POPC   D2A 9664  24.537  42.326   8.250
 4906POPC   C3A 9665  24.471  42.336   7.950
 4906POPC   C4A 9666  24.516  42.367   7.650
 4906POPC   C1B 9667  24.354  42.520   8.550
 4906POPC   C2B 9668  24.393  42.516   8.250
 4906POPC   C3B 9669  24.357  42.523   7.950
 4906POPC   C4B 9670  24.342  42.584   7.650
 4907POPC   NC3 9671  40.000  12.100   9.450
 4907POPC   PO4 9672  39.971  12.057   9.150
 4907POPC   GL1 9673  39.984  12.053   8.850
 4907POPC   GL2 9674  39.940  11.994   8.850
 4907POPC   C1A 9675  40.020  12.088   8.550
 4907POPC   D2A 9676  40.032  12.059   8.250
 4907POPC   C3A 9677  40.045  12.097   7.950
 4907POPC   C4A 9678  40.044  12.105   7.650
 4907POPC   C1B 9679  39.929  11.812   8.550
 4907POPC   C2B 9680  39.952  11.852   8.250
 4907POPC   C3B 9681  39.956  11.856   7.950
 4907POPC   C4B 9682  39.923  11.821   7.650
 4908POPC   NC3 9683  16.756  34.605   9.450
 4908POPC   PO4 9684  16.770  34.578   9.150
 4908POPC   GL1 9685  16.704  34.555   8.850
 4908POPC   GL2 9686  16.871  34.633   8.850
 4908POPC   C1A 9687  16.717  34.581   8.550
 4908POPC   D2A 9688  16.735  34.580   8.250
 4908POPC   C3A 9689  16.769  34.624   7.950
 4908POPC   C4A 9690  16.701  34.585   7.650
 4908POPC   C1B 9691  16.974  34.704   8.550
 4908POPC   C2B 9692  16.886  34.764   8.250
 4908POPC   C3B 9693  16.897  34.696   7.950
 4908POPC   C4B 9694  16.930  34.684   7.650
 4909POPC   NC3 9695   9.762  27.546   9.450
 4909POPC   PO4 9696   9.789  27.604   9.150
 4909POPC   GL1 9697   9.749  27.568   8.850
 4909POPC   GL2 9698   9.623  27.510   8.850
 4909POPC   C1A 9699   9.796  27.633   8.550
 4909POPC   D2A 9700   9.745  27.633   8.250
 4909POPC   C3A 9701   9.706  27.585   7.950
 4909POPC   C4A 9702   9.776  27.630   7.650
 4909POPC   C1B 9703   9.518  27.420   8.550
 4909POPC   C2B 9704   9.492  27.494   8.250
 4909POPC   C3B 9705   9.491  27.477   7.950
 4909POPC   C4B 9706   9.545  27.454   7.650
 4910POPC   NC3 9707  39.978   9.776   9.450
 4910POPC   PO4 9708  40.050   9.756   9.150
 4910POPC   GL1 9709  40.028   9.712   8.850
 4910POPC   GL2 9710  40.153   9.649   8.850
 4910POPC   C1A 9711  40.006   9.769   8.550
 4910POPC   D2A 9712  39.974   9.755   8.250
 4910POPC   C3A 9713  40.001   9.740   7.950
 4910POPC   C4A 9714  39.968   9.757   7.650
 4910POPC   C1B 9715  40.209   9.593   8.550
 4910POPC   C2B 9716  40.249   9.602   8.250
 4910POPC   C3B 9717  40.166   9.587   7.950
 4910POPC   C4B 9718  40.166   9.647   7.650
 4911POPC   NC3 9719  31.458  20.652   9.450
 4911POPC   PO4 9720  31.431  20.632   9.150
 4911POPC   GL1 9721  31.495  20.641   8.850
 4911POPC   GL2 9722  31.565  20.534   8.850
 4911POPC   C1A 9723  31.487  20.573   8.550
 4911POPC   D2A 9724  31.450  20.594   8.250
 4911POPC   C3A 9725  31.492  20.576   7.950
 4911POPC   C4A 9726  31.505  20.658   7.650
 4911POPC   C1B 9727  31.682  20.430   8.550
 4911POPC   C2B 9728  31.671  20.492   8.250
 4911POPC   C3B 9729  31.693  20.447   7.950
 4911POPC   C4B 9730  31.672  20.450   7.650
 4912POPC   NC3 9731   2.764  11.260   9.450
 4912POPC   PO4 9732   2.739  11.339   9.150
 4912POPC   GL1 9733   2.782  11.346   8.850
 4912POPC   GL2 9734   2.781  11.429   8.850
 4912POPC   C1A 9735   2.745  11.296   8.550
 4912POPC   D2A 9736   2.758  11.298   8.250
 4912POPC   C3A 9737   2.768  11.346   7.950
 4912POPC   C4A 9738   2.751  11.259   7.650
 4912POPC   C1B 9739   2.873  11.544   8.550
 4912POPC   C2B 9740   2.844  11.523   8.250
 4912POPC   C3B 9741   2.915  11.566   7.950
 4912POPC   C4B 9742   2.836  11.514   7.650
 4913POPC   NC3 9743   8.186  36.865   9.450
 4913POPC   PO4 9744   8.159  36.874   9.150
 4913POPC   GL1 9745   8.215  36.953   8.850
 4913POPC   GL2 9746   8.125  37.065   8.850
 4913POPC   C1A 9747   8.203  36.893   8.550
 4913POPC   D2A 9748   8.233  36.884   8.250
 4913POPC   C3A 9749   8.195  36.875   7.950
 4913POPC   C4A 9750   8.198  36.912   7.650
 4913POPC   C1B 9751   8.078  37.103   8.550
 4913POPC   C2B 9752   8.053  37.163   8.250
 4913POPC   C3B 9753   8.098  37.128   7.950
 4913POPC   C4B 9754   8.059  37.153   7.650
 4914POPC   NC3 9755   0.409  43.889   9.450
 4914POPC   PO4 9756   0.485  43.850   9.150
 4914POPC   GL1 9757   0.433  43.896   8.850
 4914POPC   GL2 9758   0.388  43.764   8.850
 4914POPC   C1A 9759   0.409  43.859   8.550
 4914POPC   D2A 9760   0.437  43.870   8.250
 4914POPC   C3A 9761   0.462  43.875   7.950
 4914POPC   C4A 9762   0.435  43.856   7.650
 4914POPC   C1B 9763   0.226  43.653   8.550
 4914POPC   C2B 9764   0.260  43.722   8.250
 4914POPC   C3B 9765   0.305  43.719   7.950
 4914POPC   C4B 9766   0.297  43.669   7.650
 4915POPC   NC3 9767   3.507  39.199   9.450
 4915POPC   PO4 9768   3.499  39.201   9.150
 4915POPC   GL1 9769   3.501  39.242   8.850
 4915POPC   GL2 9770   3.453  39.142   8.850
 4915POPC   C1A 9771   3.575  39.274   8.550
 4915POPC   D2A 9772   3.537  39.275   8.250
 4915POPC   C3A 9773   3.529  39.241   7.950
 4915POPC   C4A 9774   3.544  39.213   7.650
 4915POPC   C1B 9775   3.401  39.007   8.550
 4915POPC   C2B 9776   3.443  38.996   8.250
 4915POPC   C3B 9777   3.453  38.977   7.950
 4915POPC   C4B 9778   3.457  38.951   7.650
 4916POPC   NC3 9779  36.130  26.069   9.450
 4916POPC   PO4 9780  36.159  26.015   9.150
 4916POPC   GL1 9781  36.158  26.084   8.850
 4916POPC   GL2 9782  36.192  25.897   8.850
 4916POPC   C1A 9783  36.081  25.994   8.550
 4916POPC   D2A 9784  36.138  26.043   8.250
 4916POPC   C3A 9785  36.087  26.021   7.950
 4916POPC   C4A 9786  36.121  26.088   7.650
 4916POPC   C1B 9787  36.236  25.834   8.550
 4916POPC   C2B 9788  36.284  25.809   8.250
 4916POPC   C3B 9789  36.306  25.877   7.950
 4916POPC   C4B 9790  36.247  25.799   7.650
 4917POPC   NC3 9791  41.524  18.292   9.450
 4917POPC   PO4 9792  41.529  18.250   9.150
 4917POPC   GL1 9793  41.574  18.254   8.850
 4917POPC   GL2 9794  41.665  18.338   8.850
 4917POPC   C1A 9795  41.598  18.256   8.550
 4917POPC   D2A 9796  41.589  18.256   8.250
 4917POPC   C3A 9797  41.512  18.247   7.950
 4917POPC   C4A 9798  41.546  18.301   7.650
 4917POPC   C1B 9799  41.733  18.459   8.550
 4917POPC   C2B 9800  41.713  18.541   8.250
 4917POPC   C3B 9801  41.659  18.490   7.950
 4917POPC   C4B 9802  41.656  18.518   7.650
 4918POPC   NC3 9803  33.059  27.587   9.450
 4918POPC   PO4 9804  33.042  27.614   9.150
 4918POPC   GL1 9805  32.978  27.565   8.850
 4918POPC   GL2 9806  33.084  27.700   8.850
 4918POPC   C1A 9807  33.048  27.557   8.550
 4918POPC   D2A 9808  33.059  27.577   8.250
 4918POPC   C3A 9809  33.006  27.604   7.950
 4918POPC   C4A 9810  32.989  27.623   7.650
 4918POPC   C1B 9811  33.104  27.857   8.550
 4918POPC   C2B 9812  33.130  27.848   8.250
 4918POPC   C3B 9813  33.111  27.778   7.950
 4918POPC   C4B 9814  33.099  27.771   7.650
 4919POPC   NC3 9815  25.297  15.201   9.450
 4919POPC   PO4 9816  25.267  15.216   9.150
 4919POPC   GL1 9817  25.245  15.227   8.850
 4919POPC   GL2 9818  25.106  15.224   8.850
 4919POPC   C1A 9819  25.249  15.228   8.550
 4919POPC   D2A 9820  25.244  15.161   8.250
 4919POPC   C3A 9821  25.261  15.157   7.950
 4919POPC   C4A 9822  25.272  15.140   7.650
 4919POPC   C1B 9823  25.005  15.174   8.550
 4919POPC   C2B 9824  25.040  15.253   8.250
 4919POPC   C3B 9825  25.061  15.201   7.950
 4919POPC   C4B 9826  25.048  15.244   7.650
 4920POPC   NC3 9827  36.118  25.226   9.450
 4920POPC   PO4 9828  36.157  25.307   9.150
 4920POPC   GL1 9829  36.163  25.291   8.850
 4920POPC   GL2 9830  36.015  25.316   8.850
 4920POPC   C1A 9831  36.139  25.281   8.550
 4920POPC   D2A 9832  36.089  25.251   8.250
 4920POPC   C3A 9833  36.124  25.267   7.950
 4920POPC   C4A 9834  36.104  25.296   7.650
 4920POPC   C1B 9835  35.938  25.480   8.550
 4920POPC   C2B 9836  35.928  25.450   8.250
 4920POPC   C3B 9837  35.952  25.399   7.950
 4920POPC   C4B 9838  35.940  25.387   7.650
 4921POPC   NC3 9839   8.980   1.982   9.450
 4921POPC   PO4 9840   9.002   1.989   9.150
 4921POPC   GL1 9841   8.991   1.958   8.850
 4921POPC   GL2 9842   8.927   1.870   8.850
 4921POPC   C1A 9843   8.976   2.029   8.550
 4921POPC   D2A 9844   8.934   1.970   8.250
 4921POPC   C3A 9845   8.980   1.983   7.950
 4921POPC   C4A 9846   8.954   1.944   7.650
 4921POPC   C1B 9847   8.935   1.707   8.550
 4921POPC   C2B 9848   8.968   1.693   8.250
 4921POPC   C3B 9849   8.987   1.724   7.950
 4921POPC   C4B 9850   8.911   1.698   7.650
 4922POPC   NC3 9851  27.638  43.083   9.450
 4922POPC   PO4 9852  27.630  43.083   9.150
 4922POPC   GL1 9853  27.591  43.099   8.850
 4922POPC   GL2 9854  27.555  43.173   8.850
 4922POPC   C1A 9855  27.559  43.122   8.550
 4922POPC   D2A 9856  27.612  43.146   8.250
 4922POPC   C3A 9857  27.640  43.139   7.950
 4922POPC   C4A 9858  27.638  43.113   7.650
 4922POPC   C1B 9859  27.417  43.292   8.550
 4922POPC   C2B 9860  27.469  43.307   8.250
 4922POPC   C3B 9861  27.438  43.328   7.950
 4922POPC   C4B 9862  27.409  43.296   7.650
 4923POPC   NC3 9863  33.824   6.604   9.450
 4923POPC   PO4 9864  33.768   6.651   9.150
 4923POPC   GL1 9865  33.775   6.673   8.850
 4923POPC   GL2 9866  33.776   6.489   8.850
 4923POPC   C1A 9867  33.814   6.686   8.550
 4923POPC   D2A 9868  33.846   6.624   8.250
 4923POPC   C3A 9869  33.767   6.658   7.950
 4923POPC   C4A 9870  33.789   6.665   7.650
 4923POPC   C1B 9871  33.797   6.442   8.550
 4923POPC   C2B 9872  33.816   6.447   8.250
 4923POPC   C3B 9873  33.808   6.363   7.950
 4923POPC   C4B 9874  33.891   6.358   7.650
 4924POPC   NC3 9875  26.805  13.666   9.450
 4924POPC   PO4 9876  26.793  13.646   9.150
 4924POPC   GL1 9877  26.857  13.625   8.850
 4924POPC   GL2 9878  26.668  13.648   8.850
 4924POPC   C1A 9879  26.812  13.645   8.550
 4924POPC   D2A 9880  26.810  13.607   8.250
 4924POPC   C3A 9881  26.835  13.596   7.950
 4924POPC   C4A 9882  26.847  13.664   7.650
 4924POPC   C1B 9883  26.548  13.628   8.550
 4924POPC   C2B 9884  26.547  13.614   8.250
 4924POPC   C3B 9885  26.571  13.608   7.950
 4924POPC   C4B 9886  26.613  13.562   7.650
 4925POPC   NC3 9887   3.520  35.401   9.450
 4925POPC   PO4 9888   3.507  35.401   9.150
 4925POPC   GL1 9889   3.568  35.343   8.850
 4925POPC   GL2 9890   3.668  35.411   8.850
 4925POPC   C1A 9891   3.501  35.400   8.550
 4925POPC   D2A 9892   3.584  35.375   8.250
 4925POPC   C3A 9893   3.581  35.304   7.950
 4925POPC   C4A 9894   3.558  35.365   7.650
 4925POPC   C1B 9895   3.744  35.398   8.550
 4925POPC   C2B 9896   3.787  35.365   8.250
 4925POPC   C3B 9897   3.748  35.358   7.950
 4925POPC   C4B 9898   3.800  35.405   7.650
 4926POPC   NC3 9899  12.119  25.310   9.450
 4926POPC   PO4 9900  12.111  25.220   9.150
 4926POPC   GL1 9901  12.044  25.254   8.850
 4926POPC   GL2 9902  12.105  25.439   8.850
 4926POPC   C1A 9903  12.034  25.276   8.550
 4926POPC   D2A 9904  12.060  25.245   8.250
 4926POPC   C3A 9905  12.081  25.266   7.950
 4926POPC   C4A 9906  12.099  25.246   7.650
 4926POPC   C1B 9907  12.094  25.561   8.550
 4926POPC   C2B 9908  12.086  25.509   8.250
 4926POPC   C3B 9909  12.076  25.539   7.950
 4926POPC   C4B 9910  12.017  25.549   7.650
 4927POPC   NC3 9911  38.470  13.617   9.450
 4927POPC   PO4 9912  38.406  13.653   9.150
 4927POPC   GL1 9913  38.495  13.633   8.850
 4927POPC   GL2 9914  38.559  13.710   8.850
 4927POPC   C1A 9915  38.421  13.674   8.550
 4927POPC   D2A 9916  38.494  13.665   8.250
 4927POPC   C3A 9917  38.451  13.626   7.950
 4927POPC   C4A 9918  38.419  13.591   7.650
 4927POPC   C1B 9919  38.646  13.765   8.550
 4927POPC   C2B 9920  38.714  13.793   8.250
 4927POPC   C3B 9921  38.680  13.747   7.950
 4927POPC   C4B 9922  38.651  13.714   7.650
 4928POPC   NC3 9923  33.025  25.290   9.450
 4928POPC   PO4 9924  33.062  25.268   9.150
 4928POPC   GL1 9925  33.007  25.301   8.850
 4928POPC   GL2 9926  33.155  25.188   8.850
 4928POPC   C1A 9927  33.007  25.298   8.550
 4928POPC   D2A 9928  32.997  25.232   8.250
 4928POPC   C3A 9929  32.991  25.263   7.950
 4928POPC   C4A 9930  32.983  25.314   7.650
 4928POPC   C1B 9931  33.220  25.111   8.550
 4928POPC   C2B 9932  33.234  25.094   8.250
 4928POPC   C3B 9933  33.239  25.075   7.950
 4928POPC   C4B 9934  33.248  25.144   7.650
 4929POPC   NC3 9935  40.018  18.233   9.450
 4929POPC   PO4 9936  40.013  18.332   9.150
 4929POPC   GL1 9937  40.021  18.330   8.850
 4929POPC   GL2 9938  40.021  18.443   8.850
 4929POPC   C1A 9939  39.977  18.286   8.550
 4929POPC   D2A 9940  40.022  18.301   8.250
 4929POPC   C3A 9941  39.984  18.308   7.950
 4929POPC   C4A 9942  40.028  18.280   7.650
 4929POPC   C1B 9943  40.119  18.529   8.550
 4929POPC   C2B 9944  40.116  18.507   8.250
 4929POPC   C3B 9945  40.055  18.478   7.950
 4929POPC   C4B 9946  40.065  18.562   7.650
 4930POPC   NC3 9947  42.345   5.898   9.450
 4930POPC   PO4 9948  42.384   5.822   9.150
 4930POPC   GL1 9949  42.293   5.911   8.850
 4930POPC   GL2 9950  42.303   5.788   8.850
 4930POPC   C1A 9951  42.321   5.851   8.550
 4930POPC   D2A 9952  42.307   5.874   8.250
 4930POPC   C3A 9953  42.371   5.838   7.950
 4930POPC   C4A 9954  42.330   5.831   7.650
 4930POPC   C1B 9955  42.231   5.697   8.550
 4930POPC   C2B 9956  42.198   5.625   8.250
 4930POPC   C3B 9957  42.218   5.657   7.950
 4930POPC   C4B 9958  42.181   5.621   7.650
 4931POPC   NC3 9959  22.180   5.073   9.450
 4931POPC   PO4 9960  22.174   5.096   9.150
 4931POPC   GL1 9961  22.166   5.082   8.850
 4931POPC   GL2 9962  22.111   5.220   8.850
 4931POPC   C1A 9963  22.187   5.104   8.550
 4931POPC   D2A 9964  22.145   5.062   8.250
 4931POPC   C3A 9965  22.136   5.119   7.950
 4931POPC   C4A 9966  22.202   5.079   7.650
 4931POPC   C1B 9967  21.952   5.272   8.550
 4931POPC   C2B 9968  21.983   5.267   8.250
 4931POPC   C3B 9969  22.040   5.261   7.950
 4931POPC   C4B 9970  22.021   5.240   7.650
 4932POPC   NC3 9971   9.792  36.144   9.450
 4932POPC   PO4 9972   9.720  36.080   9.150
 4932POPC   GL1 9973   9.789  36.078   8.850
 4932POPC   GL2 9974   9.694  36.057   8.850
 4932POPC   C1A 9975   9.731  36.136   8.550
 4932POPC   D2A 9976   9.710  36.088   8.250
 4932POPC   C3A 9977   9.714  36.093   7.950
 4932POPC   C4A 9978   9.779  36.153   7.650
 4932POPC   C1B 9979   9.594  35.890   8.550
 4932POPC   C2B 9980   9.601  35.919   8.250
 4932POPC   C3B 9981   9.653  35.932   7.950
 4932POPC   C4B 9982   9.680  35.953   7.650
 4933POPC   NC3 9983  30.740   3.584   9.450
 4933POPC   PO4 9984  30.703   3.543   9.150
 4933POPC   GL1 9985  30.690   3.500   8.850
 4933POPC   GL2 9986  30.852   3.512   8.850
 4933POPC   C1A 9987  30.730   3.553   8.550
 4933POPC   D2A 9988  30.685   3.518   8.250
 4933POPC   C3A 9989  30.678   3.581   7.950
 4933POPC   C4A 9990  30.716   3.507   7.650
 4933POPC   C1B 9991  30.957   3.602   8.550
 4933POPC   C2B 9992  30.985   3.573   8.250
 4933POPC   C3B 9993  30.910   3.540   7.950
 4933POPC   C4B 9994  30.945   3.556   7.650
 4934POPC   NC3 9995  30.659  40.768   9.450
 4934POPC   PO4 9996  30.715  40.786   9.150
 4934POPC   GL1 9997  30.715  40.810   8.850
 4934POPC   GL2 9998  30.598  40.845   8.850
 4934POPC   C1A 9999  30.698  40.824   8.550
 4934POPC   D2A10000  30.734  40.816   8.250
 4934POPC   C3A10001  30.681  40.776   7.950
 4934POPC   C4A10002  30.709  40.760   7.650
 4934POPC   C1B10003  30.459  40.871   8.550
 4934POPC   C2B10004  30.445  40.800   8.250
 4934POPC   C3B10005  30.454  40.811   7.950
 4934POPC   C4B10006  30.489  40.871   7.650
 4935POPC   NC310007  43.866  23.762   9.450
 4935POPC   PO410008  43.905  23.697   9.150
 4935POPC   GL110009  43.914  23.722   8.850
 4935POPC   GL210010  43.958  23.875   8.850
 4935POPC   C1A10011  43.882  23.714   8.550
 4935POPC   D2A10012  43.909  23.691   8.250
 4935POPC   C3A10013  43.892  23.672   7.950
 4935POPC   C4A10014  43.904  23.704   7.650
 4935POPC   C1B10015  43.955  23.988   8.550
 4935POPC   C2B10016  44.018  23.898   8.250
 4935POPC   C3B10017  44.021  23.991   7.950
 4935POPC   C4B10018  43.954  23.907   7.650
 4936POPC   NC310019   2.740  19.817   9.450
 4936POPC   PO410020   2.740  19.827   9.150
 4936POPC   GL110021   2.784  19.859   8.850
 4936POPC   GL210022   2.882  19.696   8.850
 4936POPC   C1A10023   2.782  19.818   8.550
 4936POPC   D2A10024   2.730  19.809   8.250
 4936POPC   C3A10025   2.814  19.824   7.950
 4936POPC   C4A10026   2.751  19.817   7.650
 4936POPC   C1B10027   2.901  19.610   8.550
 4936POPC   C2B10028   2.910  19.666   8.250
 4936POPC   C3B10029   2.933  19.629   7.950
 4936POPC   C4B10030   2.870  19.651   7.650
 4937POPC   NC310031  18.314  26.863   9.450
 4937POPC   PO410032  18.315  26.797   9.150
 4937POPC   GL110033  18.331  26.815   8.850
 4937POPC   GL210034  18.157  26.846   8.850
 4937POPC   C1A10035  18.305  26.796   8.550
 4937POPC   D2A10036  18.250  26.787   8.250
 4937POPC   C3A10037  18.273  26.859   7.950
 4937POPC   C4A10038  18.319  26.804   7.650
 4937POPC   C1B10039  18.040  26.827   8.550
 4937POPC   C2B10040  17.998  26.875   8.250
 4937POPC   C3B10041  18.037  26.851   7.950
 4937POPC   C4B10042  18.018  26.855   7.650
 4938POPC   NC310043  10.475   9.777   9.450
 4938POPC   PO410044  10.509   9.778   9.150
 4938POPC   GL110045  10.502   9.773   8.850
 4938POPC   GL210046  10.568   9.644   8.850
 4938POPC   C1A10047  10.505   9.702   8.550
 4938POPC   D2A10048  10.503   9.756   8.250
 4938POPC   C3A10049  10.540   9.795   7.950
 4938POPC   C4A10050  10.562   9.787   7.650
 4938POPC   C1B10051  10.470   9.479   8.550
 4938POPC   C2B10052  10.560   9.478   8.250
 4938POPC   C3B10053  10.513   9.481   7.950
 4938POPC   C4B10054  10.532   9.529   7.650
 4939POPC   NC310055  26.811  25.231   9.450
 4939POPC   PO410056  26.811  25.315   9.150
 4939POPC   GL110057  26.860  25.315   8.850
 4939POPC   GL210058  26.916  25.157   8.850
 4939POPC   C1A10059  26.824  25.244   8.550
 4939POPC   D2A10060  26.780  25.256   8.250
 4939POPC   C3A10061  26.817  25.301   7.950
 4939POPC   C4A10062  26.786  25.281   7.650
 4939POPC   C1B10063  26.936  25.048   8.550
 4939POPC   C2B10064  26.941  25.054   8.250
 4939POPC   C3B10065  26.924  25.059   7.950
 4939POPC   C4B10066  26.995  25.058   7.650
 4940POPC   NC310067   0.459  38.434   9.450
 4940POPC   PO410068   0.412  38.472   9.150
 4940POPC   GL110069   0.426  38.416   8.850
 4940POPC   GL210070   0.442  38.309   8.850
 4940POPC   C1A10071   0.477  38.482   8.550
 4940POPC   D2A10072   0.452  38.423   8.250
 4940POPC   C3A10073   0.481  38.466   7.950
 4940POPC   C4A10074   0.445  38.445   7.650
 4940POPC   C1B10075   0.369  38.204   8.550
 4940POPC   C2B10076   0.429  38.247   8.250
 4940POPC   C3B10077   0.429  38.178   7.950
 4940POPC   C4B10078   0.377  38.199   7.650
 4941POPC   NC310079  16.695  15.219   9.450
 4941POPC   PO410080  16.696  15.131   9.150
 4941POPC   GL110081  16.727  15.186   8.850
 4941POPC   GL210082  16.761  15.033   8.850
 4941POPC   C1A10083  16.687  15.225   8.550
 4941POPC   D2A10084  16.749  15.145   8.250
 4941POPC   C3A10085  16.690  15.176   7.950
 4941POPC   C4A10086  16.706  15.158   7.650
 4941POPC   C1B10087  16.841  14.963   8.550
 4941POPC   C2B10088  16.839  14.976   8.250
 4941POPC   C3B10089  16.833  14.933   7.950
 4941POPC   C4B10090  16.805  14.978   7.650
 4942POPC   NC310091  12.113  36.919   9.450
 4942POPC   PO410092  12.072  36.893   9.150
 4942POPC   GL110093  12.113  36.878   8.850
 4942POPC   GL210094  12.060  36.825   8.850
 4942POPC   C1A10095  12.043  36.943   8.550
 4942POPC   D2A10096  12.113  36.949   8.250
 4942POPC   C3A10097  12.041  36.945   7.950
 4942POPC   C4A10098  12.033  36.898   7.650
 4942POPC   C1B10099  11.951  36.626   8.550
 4942POPC   C2B10100  11.974  36.653   8.250
 4942POPC   C3B10101  11.992  36.646   7.950
 4942POPC   C4B10102  12.036  36.662   7.650
 4943POPC   NC310103  28.341  39.971   9.450
 4943POPC   PO410104  28.387  39.993   9.150
 4943POPC   GL110105  28.347  40.006   8.850
 4943POPC   GL210106  28.461  39.928   8.850
 4943POPC   C1A10107  28.327  40.031   8.550
 4943POPC   D2A10108  28.325  39.980   8.250
 4943POPC   C3A10109  28.369  40.028   7.950
 4943POPC   C4A10110  28.370  39.967   7.650
 4943POPC   C1B10111  28.493  39.819   8.550
 4943POPC   C2B10112  28.492  39.806   8.250
 4943POPC   C3B10113  28.496  39.808   7.950
 4943POPC   C4B10114  28.454  39.790   7.650
 4944POPC   NC310115  34.611  19.097   9.450
 4944POPC   PO410116  34.602  19.042   9.150
 4944POPC   GL110117  34.533  19.078   8.850
 4944POPC   GL210118  34.652  19.086   8.850
 4944POPC   C1A10119  34.560  19.081   8.550
 4944POPC   D2A10120  34.580  19.016   8.250
 4944POPC   C3A10121  34.584  19.096   7.950
 4944POPC   C4A10122  34.623  19.044   7.650
 4944POPC   C1B10123  34.830  19.051   8.550
 4944POPC   C2B10124  34.794  19.091   8.250
 4944POPC   C3B10125  34.774  19.136   7.950
 4944POPC   C4B10126  34.859  19.138   7.650
 4945POPC   NC310127  44.668   7.461   9.450
 4945POPC   PO410128  44.638   7.383   9.150
 4945POPC   GL110129  44.623   7.459   8.850
 4945POPC   GL210130  44.773   7.519   8.850
 4945POPC   C1A10131  44.710   7.449   8.550
 4945POPC   D2A10132  44.640   7.442   8.250
 4945POPC   C3A10133  44.703   7.371   7.950
 4945POPC   C4A10134  44.691   7.442   7.650
 4945POPC   C1B10135  44.774   7.619   8.550
 4945POPC   C2B10136  44.784   7.654   8.250
 4945POPC   C3B10137  44.855   7.649   7.950
 4945POPC   C4B10138  44.855   7.629   7.650
 4946POPC   NC310139  14.367   0.415   9.450
 4946POPC   PO410140  14.373   0.474   9.150
 4946POPC   GL110141  14.385   0.453   8.850
 4946POPC   GL210142  14.329   0.514   8.850
 4946POPC   C1A10143  14.420   0.407   8.550
 4946POPC   D2A10144  14.381   0.429   8.250
 4946POPC   C3A10145  14.410   0.450   7.950
 4946POPC   C4A10146  14.378   0.406   7.650
 4946POPC   C1B10147  14.148   0.456   8.550
 4946POPC   C2B10148  14.209   0.460   8.250
 4946POPC   C3B10149  14.166   0.498   7.950
 4946POPC   C4B10150  14.133   0.499   7.650
 4947POPC   NC310151  35.345  39.985   9.450
 4947POPC   PO410152  35.307  39.988   9.150
 4947POPC   GL110153  35.363  39.981   8.850
 4947POPC   GL210154  35.425  40.055   8.850
 4947POPC   C1A10155  35.368  40.021   8.550
 4947POPC   D2A10156  35.398  39.980   8.250
 4947POPC   C3A10157  35.362  39.976   7.950
 4947POPC   C4A10158  35.319  39.994   7.650
 4947POPC   C1B10159  35.572  40.212   8.550
 4947POPC   C2B10160  35.537  40.214   8.250
 4947POPC   C3B10161  35.585  40.184   7.950
 4947POPC   C4B10162  35.512  40.171   7.650
 4948POPC   NC310163  43.912  12.053   9.450
 4948POPC   PO410164  43.883  12.096   9.150
 4948POPC   GL110165  43.851  12.043   8.850
 4948POPC   GL210166  43.735  12.176   8.850
 4948POPC   C1A10167  43.880  12.088   8.550
 4948POPC   D2A10168  43.934  12.071   8.250
 4948POPC   C3A10169  43.886  12.099   7.950
 4948POPC   C4A10170  43.838  12.046   7.650
 4948POPC   C1B10171  43.711  12.179   8.550
 4948POPC   C2B10172  43.665  12.176   8.250
 4948POPC   C3B10173  43.679  12.249   7.950
 4948POPC   C4B10174  43.688  12.186   7.650
 4949POPC   NC310175  33.794  40.753   9.450
 4949POPC   PO410176  33.826  40.777   9.150
 4949POPC   GL110177  33.813  40.741   8.850
 4949POPC   GL210178  33.746  40.721   8.850
 4949POPC   C1A10179  33.830  40.792   8.550
 4949POPC   D2A10180  33.760  40.780   8.250
 4949POPC   C3A10181  33.827  40.803   7.950
 4949POPC   C4A10182  33.789  40.747   7.650
 4949POPC   C1B10183  33.681  40.573   8.550
 4949POPC   C2B10184  33.642  40.604   8.250
 4949POPC   C3B10185  33.615  40.585   7.950
 4949POPC   C4B10186  33.625  40.627   7.650
 4950POPC   NC310187   2.036  13.661   9.450
 4950POPC   PO410188   1.950  13.601   9.150
 4950POPC   GL110189   2.016  13.589   8.850
 4950POPC   GL210190   1.933  13.760   8.850
 4950POPC   C1A10191   2.027  13.663   8.550
 4950POPC   D2A10192   1.982  13.640   8.250
 4950POPC   C3A10193   1.984  13.673   7.950
 4950POPC   C4A10194   2.000  13.580   7.650
 4950POPC   C1B10195   1.937  13.885   8.550
 4950POPC   C2B10196   1.917  13.865   8.250
 4950POPC   C3B10197   1.941  13.830   7.950
 4950POPC   C4B10198   1.953  13.828   7.650
 4951POPC   NC310199  32.229   2.020   9.450
 4951POPC   PO410200  32.273   1.945   9.150
 4951POPC   GL110201  32.262   2.030   8.850
 4951POPC   GL210202  32.316   2.078   8.850
 4951POPC   C1A10203  32.246   2.033   8.550
 4951POPC   D2A10204  32.225   1.991   8.250
 4951POPC   C3A10205  32.208   1.974   7.950
 4951POPC   C4A10206  32.276   2.019   7.650
 4951POPC   C1B10207  32.418   2.214   8.550
 4951POPC   C2B10208  32.372   2.219   8.250
 4951POPC   C3B10209  32.394   2.206   7.950
 4951POPC   C4B10210  32.438   2.168   7.650
 4952POPC   NC310211  33.765  35.333   9.450
 4952POPC   PO410212  33.793  35.325   9.150
 4952POPC   GL110213  33.844  35.376   8.850
 4952POPC   GL210214  33.697  35.389   8.850
 4952POPC   C1A10215  33.834  35.360   8.550
 4952POPC   D2A10216  33.827  35.354   8.250
 4952POPC   C3A10217  33.796  35.326   7.950
 4952POPC   C4A10218  33.800  35.400   7.650
 4952POPC   C1B10219  33.592  35.367   8.550
 4952POPC   C2B10220  33.587  35.341   8.250
 4952POPC   C3B10221  33.574  35.362   7.950
 4952POPC   C4B10222  33.514  35.389   7.650
 4953POPC   NC310223   5.061   5.828   9.450
 4953POPC   PO410224   5.083   5.915   9.150
 4953POPC   GL110225   5.045   5.863   8.850
 4953POPC   GL210226   5.232   5.996   8.850
 4953POPC   C1A10227   5.066   5.873   8.550
 4953POPC   D2A10228   5.094   5.870   8.250
 4953POPC   C3A10229   5.143   5.825   7.950
 4953POPC   C4A10230   5.055   5.821   7.650
 4953POPC   C1B10231   5.247   6.011   8.550
 4953POPC   C2B10232   5.260   6.016   8.250
 4953POPC   C3B10233   5.240   6.054   7.950
 4953POPC   C4B10234   5.310   6.068   7.650
 4954POPC   NC310235  22.177   7.450   9.450
 4954POPC   PO410236  22.212   7.384   9.150
 4954POPC   GL110237  22.113   7.411   8.850
 4954POPC   GL210238  22.075   7.357   8.850
 4954POPC   C1A10239  22.165   7.447   8.550
 4954POPC   D2A10240  22.192   7.397   8.250
 4954POPC   C3A10241  22.113   7.409   7.950
 4954POPC   C4A10242  22.146   7.409   7.650
 4954POPC   C1B10243  22.004   7.218   8.550
 4954POPC   C2B10244  21.993   7.256   8.250
 4954POPC   C3B10245  21.951   7.255   7.950
 4954POPC   C4B10246  21.965   7.274   7.650
 4955POPC   NC310247  29.899  33.805   9.450
 4955POPC   PO410248  29.955  33.783   9.150
 4955POPC   GL110249  29.929  33.791   8.850
 4955POPC   GL210250  29.799  33.804   8.850
 4955POPC   C1A10251  29.963  33.820   8.550
 4955POPC   D2A10252  29.874  33.830   8.250
 4955POPC   C3A10253  29.953  33.780   7.950
 4955POPC   C4A10254  29.909  33.814   7.650
 4955POPC   C1B10255  29.692  33.741   8.550
 4955POPC   C2B10256  29.640  33.825   8.250
 4955POPC   C3B10257  29.672  33.784   7.950
 4955POPC   C4B10258  29.661  33.819   7.650
 4956POPC   NC310259   2.760   5.050   9.450
 4956POPC   PO410260   2.789   5.098   9.150
 4956POPC   GL110261   2.745   5.124   8.850
 4956POPC   GL210262   2.804   4.940   8.850
 4956POPC   C1A10263   2.786   5.088   8.550
 4956POPC   D2A10264   2.756   5.124   8.250
 4956POPC   C3A10265   2.771   5.101   7.950
 4956POPC   C4A10266   2.798   5.109   7.650
 4956POPC   C1B10267   2.741   4.867   8.550
 4956POPC   C2B10268   2.737   4.873   8.250
 4956POPC   C3B10269   2.725   4.887   7.950
 4956POPC   C4B10270   2.750   4.881   7.650
 4957POPC   NC310271  25.315  12.086   9.450
 4957POPC   PO410272  25.307  12.096   9.150
 4957POPC   GL110273  25.254  12.090   8.850
 4957POPC   GL210274  25.349  12.102   8.850
 4957POPC   C1A10275  25.288  12.043   8.550
 4957POPC   D2A10276  25.274  12.043   8.250
 4957POPC   C3A10277  25.275  12.073   7.950
 4957POPC   C4A10278  25.287  12.106   7.650
 4957POPC   C1B10279  25.486  12.230   8.550
 4957POPC   C2B10280  25.445  12.184   8.250
 4957POPC   C3B10281  25.499  12.212   7.950
 4957POPC   C4B10282  25.457  12.199   7.650
 4958POPC   NC310283   1.199  37.675   9.450
 4958POPC   PO410284   1.228  37.653   9.150
 4958POPC   GL110285   1.230  37.685   8.850
 4958POPC   GL210286   1.351  37.655   8.850
 4958POPC   C1A10287   1.220  37.678   8.550
 4958POPC   D2A10288   1.235  37.669   8.250
 4958POPC   C3A10289   1.256  37.712   7.950
 4958POPC   C4A10290   1.248  37.670   7.650
 4958POPC   C1B10291   1.434  37.576   8.550
 4958POPC   C2B10292   1.400  37.551   8.250
 4958POPC   C3B10293   1.423  37.614   7.950
 4958POPC   C4B10294   1.425  37.614   7.650
 4959POPC   NC310295  39.248  10.490   9.450
 4959POPC   PO410296  39.201  10.476   9.150
 4959POPC   GL110297  39.182  10.514   8.850
 4959POPC   GL210298  39.260  10.585   8.850
 4959POPC   C1A10299  39.253  10.571   8.550
 4959POPC   D2A10300  39.263  10.494   8.250
 4959POPC   C3A10301  39.243  10.480   7.950
 4959POPC   C4A10302  39.276  10.572   7.650
 4959POPC   C1B10303  39.360  10.700   8.550
 4959POPC   C2B10304  39.379  10.712   8.250
 4959POPC   C3B10305  39.366  10.751   7.950
 4959POPC   C4B10306  39.405  10.740   7.650
 4960POPC   NC310307  38.457  10.482   9.450
 4960POPC   PO410308  38.501  10.524   9.150
 4960POPC   GL110309  38.454  10.505   8.850
 4960POPC   GL210310  38.397  10.357   8.850
 4960POPC   C1A10311  38.436  10.524   8.550
 4960POPC   D2A10312  38.505  10.555   8.250
 4960POPC   C3A10313  38.487  10.512   7.950
 4960POPC   C4A10314  38.470  10.565   7.650
 4960POPC   C1B10315  38.421  10.298   8.550
 4960POPC   C2B10316  38.347  10.239   8.250
 4960POPC   C3B10317  38.374  10.254   7.950
 4960POPC   C4B10318  38.415  10.239   7.650
 4961POPC   NC310319   0.484  15.920   9.450
 4961POPC   PO410320   0.474  15.927   9.150
 4961POPC   GL110321   0.473  15.991   8.850
 4961POPC   GL210322   0.364  15.919   8.850
 4961POPC   C1A10323   0.412  15.909   8.550
 4961POPC   D2A10324   0.467  16.002   8.250
 4961POPC   C3A10325   0.446  15.998   7.950
 4961POPC   C4A10326   0.483  15.991   7.650
 4961POPC   C1B10327   0.171  15.796   8.550
 4961POPC   C2B10328   0.220  15.836   8.250
 4961POPC   C3B10329   0.266  15.868   7.950
 4961POPC   C4B10330   0.240  15.823   7.650
 4962POPC   NC310331  36.884  43.144   9.450
 4962POPC   PO410332  36.862  43.087   9.150
 4962POPC   GL110333  36.922  43.138   8.850
 4962POPC   GL210334  36.788  43.077   8.850
 4962POPC   C1A10335  36.948  43.087   8.550
 4962POPC   D2A10336  36.913  43.107   8.250
 4962POPC   C3A10337  36.903  43.150   7.950
 4962POPC   C4A10338  36.877  43.127   7.650
 4962POPC   C1B10339  36.628  42.989   8.550
 4962POPC   C2B10340  36.630  43.020   8.250
 4962POPC   C3B10341  36.669  42.995   7.950
 4962POPC   C4B10342  36.666  43.007   7.650
 4963POPC   NC310343  33.816  29.159   9.450
 4963POPC   PO410344  33.756  29.119   9.150
 4963POPC   GL110345  33.844  29.106   8.850
 4963POPC   GL210346  33.709  29.169   8.850
 4963POPC   C1A10347  33.777  29.126   8.550
 4963POPC   D2A10348  33.797  29.177   8.250
 4963POPC   C3A10349  33.808  29.124   7.950
 4963POPC   C4A10350  33.796  29.181   7.650
 4963POPC   C1B10351  33.587  29.265   8.550
 4963POPC   C2B10352  33.544  29.306   8.250
 4963POPC   C3B10353  33.610  29.262   7.950
 4963POPC   C4B10354  33.619  29.330   7.650
 4964POPC   NC310355  44.644   4.290   9.450
 4964POPC   PO410356  44.663   4.288   9.150
 4964POPC   GL110357  44.665   4.312   8.850
 4964POPC   GL210358  44.681   4.453   8.850
 4964POPC   C1A10359  44.646   4.308   8.550
 4964POPC   D2A10360  44.691   4.364   8.250
 4964POPC   C3A10361  44.656   4.323   7.950
 4964POPC   C4A10362  44.623   4.352   7.650
 4964POPC   C1B10363  44.767   4.482   8.550
 4964POPC   C2B10364  44.794   4.493   8.250
 4964POPC   C3B10365  44.822   4.577   7.950
 4964POPC   C4B10366  44.789   4.571   7.650
 4965POPC   NC310367   8.155  38.499   9.450
 4965POPC   PO410368   8.234  38.479   9.150
 4965POPC   GL110369   8.232  38.458   8.850
 4965POPC   GL210370   8.089  38.508   8.850
 4965POPC   C1A10371   8.201  38.464   8.550
 4965POPC   D2A10372   8.147  38.491   8.250
 4965POPC   C3A10373   8.170  38.462   7.950
 4965POPC   C4A10374   8.185  38.464   7.650
 4965POPC   C1B10375   8.013  38.581   8.550
 4965POPC   C2B10376   7.981  38.564   8.250
 4965POPC   C3B10377   8.033  38.610   7.950
 4965POPC   C4B10378   8.015  38.591   7.650
 4966POPC   NC310379  36.857   5.897   9.450
 4966POPC   PO410380  36.932   5.841   9.150
 4966POPC   GL110381  36.902   5.842   8.850
 4966POPC   GL210382  36.964   5.768   8.850
 4966POPC   C1A10383  36.905   5.889   8.550
 4966POPC   D2A10384  36.860   5.826   8.250
 4966POPC   C3A10385  36.886   5.850   7.950
 4966POPC   C4A10386  36.910   5.918   7.650
 4966POPC   C1B10387  37.172   5.778   8.550
 4966POPC   C2B10388  37.162   5.750   8.250
 4966POPC   C3B10389  37.151   5.732   7.950
 4966POPC   C4B10390  37.137   5.800   7.650
 4967POPC   NC310391  15.169  31.473   9.450
 4967POPC   PO410392  15.204  31.461   9.150
 4967POPC   GL110393  15.152  31.459   8.850
 4967POPC   GL210394  15.224  31.370   8.850
 4967POPC   C1A10395  15.143  31.438   8.550
 4967POPC   D2A10396  15.163  31.478   8.250
 4967POPC   C3A10397  15.132  31.459   7.950
 4967POPC   C4A10398  15.217  31.475   7.650
 4967POPC   C1B10399  15.346  31.310   8.550
 4967POPC   C2B10400  15.320  31.308   8.250
 4967POPC   C3B10401  15.352  31.260   7.950
 4967POPC   C4B10402  15.398  31.269   7.650
 4968POPC   NC310403  12.859  25.220   9.450
 4968POPC   PO410404  12.840  25.252   9.150
 4968POPC   GL110405  12.837  25.254   8.850
 4968POPC   GL210406  12.770  25.324   8.850
 4968POPC   C1A10407  12.802  25.267   8.550
 4968POPC   D2A10408  12.806  25.234   8.250
 4968POPC   C3A10409  12.856  25.245   7.950
 4968POPC   C4A10410  12.830  25.293   7.650
 4968POPC   C1B10411  12.709  25.401   8.550
 4968POPC   C2B10412  12.640  25.394   8.250
 4968POPC   C3B10413  12.691  25.468   7.950
 4968POPC   C4B10414  12.673  25.478   7.650
 4969POPC   NC310415   5.887  24.489   9.450
 4969POPC   PO410416   5.853  24.463   9.150
 4969POPC   GL110417   5.893  24.499   8.850
 4969POPC   GL210418   5.952  24.503   8.850
 4969POPC   C1A10419   5.900  24.521   8.550
 4969POPC   D2A10420   5.889  24.510   8.250
 4969POPC   C3A10421   5.894  24.510   7.950
 4969POPC   C4A10422   5.870  24.476   7.650
 4969POPC   C1B10423   6.061  24.588   8.550
 4969POPC   C2B10424   6.078  24.588   8.250
 4969POPC   C3B10425   6.058  24.598   7.950
 4969POPC   C4B10426   6.128  24.603   7.650
 4970POPC   NC310427  17.490  21.401   9.450
 4970POPC   PO410428  17.533  21.349   9.150
 4970POPC   GL110429  17.533  21.405   8.850
 4970POPC   GL210430  17.391  21.251   8.850
 4970POPC   C1A10431  17.497  21.376   8.550
 4970POPC   D2A10432  17.464  21.354   8.250
 4970POPC   C3A10433  17.515  21.380   7.950
 4970POPC   C4A10434  17.548  21.418   7.650
 4970POPC   C1B10435  17.294  21.229   8.550
 4970POPC   C2B10436  17.286  21.249   8.250
 4970POPC   C3B10437  17.295  21.255   7.950
 4970POPC   C4B10438  17.361  21.229   7.650
 4971POPC   NC310439  15.157  34.577   9.450
 4971POPC   PO410440  15.213  34.580   9.150
 4971POPC   GL110441  15.169  34.553   8.850
 4971POPC   GL210442  15.202  34.475   8.850
 4971POPC   C1A10443  15.172  34.572   8.550
 4971POPC   D2A10444  15.169  34.541   8.250
 4971POPC   C3A10445  15.228  34.593   7.950
 4971POPC   C4A10446  15.192  34.558   7.650
 4971POPC   C1B10447  15.178  34.346   8.550
 4971POPC   C2B10448  15.206  34.363   8.250
 4971POPC   C3B10449  15.227  34.334   7.950
 4971POPC   C4B10450  15.177  34.307   7.650
 4972POPC   NC310451  25.278  42.350   9.450
 4972POPC   PO410452  25.301  42.370   9.150
 4972POPC   GL110453  25.286  42.304   8.850
 4972POPC   GL210454  25.278  42.493   8.850
 4972POPC   C1A10455  25.247  42.380   8.550
 4972POPC   D2A10456  25.290  42.361   8.250
 4972POPC   C3A10457  25.252  42.351   7.950
 4972POPC   C4A10458  25.267  42.285   7.650
 4972POPC   C1B10459  25.313  42.590   8.550
 4972POPC   C2B10460  25.373  42.547   8.250
 4972POPC   C3B10461  25.359  42.529   7.950
 4972POPC   C4B10462  25.379  42.556   7.650
 4973POPC   NC310463  25.236  43.859   9.450
 4973POPC   PO410464  25.230  43.856   9.150
 4973POPC   GL110465  25.259  43.845   8.850
 4973POPC   GL210466  25.138  43.789   8.850
 4973POPC   C1A10467  25.240  43.859   8.550
 4973POPC   D2A10468  25.314  43.846   8.250
 4973POPC   C3A10469  25.290  43.927   7.950
 4973POPC   C4A10470  25.270  43.920   7.650
 4973POPC   C1B10471  25.072  43.739   8.550
 4973POPC   C2B10472  25.019  43.765   8.250
 4973POPC   C3B10473  25.043  43.810   7.950
 4973POPC   C4B10474  25.019  43.735   7.650
 4974POPC   NC310475  19.095  29.127   9.450
 4974POPC   PO410476  19.091  29.128   9.150
 4974POPC   GL110477  19.106  29.155   8.850
 4974POPC   GL210478  19.104  29.251   8.850
 4974POPC   C1A10479  19.092  29.130   8.550
 4974POPC   D2A10480  19.048  29.185   8.250
 4974POPC   C3A10481  19.090  29.158   7.950
 4974POPC   C4A10482  19.016  29.184   7.650
 4974POPC   C1B10483  19.075  29.431   8.550
 4974POPC   C2B10484  19.117  29.358   8.250
 4974POPC   C3B10485  19.095  29.354   7.950
 4974POPC   C4B10486  19.114  29.400   7.650
 4975POPC   NC310487   9.707  19.881   9.450
 4975POPC   PO410488   9.770  19.879   9.150
 4975POPC   GL110489   9.749  19.863   8.850
 4975POPC   GL210490   9.642  19.919   8.850
 4975POPC   C1A10491   9.756  19.854   8.550
 4975POPC   D2A10492   9.704  19.856   8.250
 4975POPC   C3A10493   9.790  19.785   7.950
 4975POPC   C4A10494   9.743  19.840   7.650
 4975POPC   C1B10495   9.658  20.056   8.550
 4975POPC   C2B10496   9.633  20.085   8.250
 4975POPC   C3B10497   9.635  20.077   7.950
 4975POPC   C4B10498   9.606  20.083   7.650
 4976POPC   NC310499   1.962  19.042   9.450
 4976POPC   PO410500   1.948  19.100   9.150
 4976POPC   GL110501   1.993  19.026   8.850
 4976POPC   GL210502   1.915  19.054   8.850
 4976POPC   C1A10503   2.040  19.050   8.550
 4976POPC   D2A10504   1.946  19.104   8.250
 4976POPC   C3A10505   1.961  19.071   7.950
 4976POPC   C4A10506   1.955  19.052   7.650
 4976POPC   C1B10507   1.779  18.986   8.550
 4976POPC   C2B10508   1.742  18.961   8.250
 4976POPC   C3B10509   1.770  18.932   7.950
 4976POPC   C4B10510   1.763  19.006   7.650
 4977POPC   NC310511  22.123  15.181   9.450
 4977POPC   PO410512  22.197  15.153   9.150
 4977POPC   GL110513  22.172  15.137   8.850
 4977POPC   GL210514  22.318  15.175   8.850
 4977POPC   C1A10515  22.152  15.214   8.550
 4977POPC   D2A10516  22.211  15.184   8.250
 4977POPC   C3A10517  22.178  15.213   7.950
 4977POPC   C4A10518  22.197  15.211   7.650
 4977POPC   C1B10519  22.381  15.109   8.550
 4977POPC   C2B10520  22.359  15.132   8.250
 4977POPC   C3B10521  22.370  15.085   7.950
 4977POPC   C4B10522  22.417  15.100   7.650
 4978POPC   NC310523  26.823  23.738   9.450
 4978POPC   PO410524  26.769  23.719   9.150
 4978POPC   GL110525  26.798  23.699   8.850
 4978POPC   GL210526  26.736  23.568   8.850
 4978POPC   C1A10527  26.793  23.742   8.550
 4978POPC   D2A10528  26.850  23.763   8.250
 4978POPC   C3A10529  26.842  23.722   7.950
 4978POPC   C4A10530  26.807  23.698   7.650
 4978POPC   C1B10531  26.711  23.483   8.550
 4978POPC   C2B10532  26.654  23.529   8.250
 4978POPC   C3B10533  26.722  23.467   7.950
 4978POPC   C4B10534  26.689  23.539   7.650
 4979POPC   NC310535   6.621  40.777   9.450
 4979POPC   PO410536   6.673  40.755   9.150
 4979POPC   GL110537   6.629  40.829   8.850
 4979POPC   GL210538   6.611  40.622   8.850
 4979POPC   C1A10539   6.618  40.788   8.550
 4979POPC   D2A10540   6.601  40.738   8.250
 4979POPC   C3A10541   6.668  40.779   7.950
 4979POPC   C4A10542   6.666  40.800   7.650
 4979POPC   C1B10543   6.708  40.533   8.550
 4979POPC   C2B10544   6.622  40.483   8.250
 4979POPC   C3B10545   6.622  40.569   7.950
 4979POPC   C4B10546   6.696  40.560   7.650
 4980POPC   NC310547  18.331  33.044   9.450
 4980POPC   PO410548  18.254  33.049   9.150
 4980POPC   GL110549  18.332  33.039   8.850
 4980POPC   GL210550  18.266  32.939   8.850
 4980POPC   C1A10551  18.322  33.017   8.550
 4980POPC   D2A10552  18.332  33.000   8.250
 4980POPC   C3A10553  18.293  32.994   7.950
 4980POPC   C4A10554  18.320  33.057   7.650
 4980POPC   C1B10555  18.150  32.792   8.550
 4980POPC   C2B10556  18.151  32.821   8.250
 4980POPC   C3B10557  18.172  32.786   7.950
 4980POPC   C4B10558  18.158  32.840   7.650
 4981POPC   NC310559  13.661  16.753   9.450
 4981POPC   PO410560  13.638  16.768   9.150
 4981POPC   GL110561  13.649  16.707   8.850
 4981POPC   GL210562  13.675  16.848   8.850
 4981POPC   C1A10563  13.587  16.771   8.550
 4981POPC   D2A10564  13.596  16.715   8.250
 4981POPC   C3A10565  13.639  16.734   7.950
 4981POPC   C4A10566  13.672  16.777   7.650
 4981POPC   C1B10567  13.780  16.869   8.550
 4981POPC   C2B10568  13.803  16.905   8.250
 4981POPC   C3B10569  13.798  16.877   7.950
 4981POPC   C4B10570  13.766  16.879   7.650
 4982POPC   NC310571   5.069  40.746   9.450
 4982POPC   PO410572   5.064  40.763   9.150
 4982POPC   GL110573   5.081  40.817   8.850
 4982POPC   GL210574   5.168  40.817   8.850
 4982POPC   C1A10575   5.050  40.816   8.550
 4982POPC   D2A10576   5.073  40.761   8.250
 4982POPC   C3A10577   5.114  40.778   7.950
 4982POPC   C4A10578   5.076  40.769   7.650
 4982POPC   C1B10579   5.363  40.814   8.550
 4982POPC   C2B10580   5.342  40.825   8.250
 4982POPC   C3B10581   5.344  40.845   7.950
 4982POPC   C4B10582   5.363  40.852   7.650
 4983POPC   NC310583  35.398  26.040   9.450
 4983POPC   PO410584  35.381  26.003   9.150
 4983POPC   GL110585  35.386  26.055   8.850
 4983POPC   GL210586  35.436  25.975   8.850
 4983POPC   C1A10587  35.398  26.009   8.550
 4983POPC   D2A10588  35.353  26.054   8.250
 4983POPC   C3A10589  35.320  26.074   7.950
 4983POPC   C4A10590  35.315  26.029   7.650
 4983POPC   C1B10591  35.623  25.991   8.550
 4983POPC   C2B10592  35.599  26.010   8.250
 4983POPC   C3B10593  35.576  25.959   7.950
 4983POPC   C4B10594  35.612  25.993   7.650
 4984POPC   NC310595  22.980  34.604   9.450
 4984POPC   PO410596  22.970  34.544   9.150
 4984POPC   GL110597  22.968  34.564   8.850
 4984POPC   GL210598  22.902  34.419   8.850
 4984POPC   C1A10599  22.937  34.567   8.550
 4984POPC   D2A10600  22.922  34.529   8.250
 4984POPC   C3A10601  22.973  34.626   7.950
 4984POPC   C4A10602  22.892  34.615   7.650
 4984POPC   C1B10603  22.870  34.325   8.550
 4984POPC   C2B10604  22.911  34.341   8.250
 4984POPC   C3B10605  22.919  34.313   7.950
 4984POPC   C4B10606  22.872  34.372   7.650
 4985POPC   NC310607  34.604  18.251   9.450
 4985POPC   PO410608  34.585  18.285   9.150
 4985POPC   GL110609  34.575  18.240   8.850
 4985POPC   GL210610  34.487  18.396   8.850
 4985POPC   C1A10611  34.596  18.273   8.550
 4985POPC   D2A10612  34.557  18.291   8.250
 4985POPC   C3A10613  34.526  18.329   7.950
 4985POPC   C4A10614  34.541  18.310   7.650
 4985POPC   C1B10615  34.444  18.540   8.550
 4985POPC   C2B10616  34.433  18.514   8.250
 4985POPC   C3B10617  34.420  18.532   7.950
 4985POPC   C4B10618  34.491  18.458   7.650
 4986POPC   NC310619   6.616  43.124   9.450
 4986POPC   PO410620   6.609  43.127   9.150
 4986POPC   GL110621   6.674  43.071   8.850
 4986POPC   GL210622   6.549  43.059   8.850
 4986POPC   C1A10623   6.653  43.125   8.550
 4986POPC   D2A10624   6.689  43.154   8.250
 4986POPC   C3A10625   6.649  43.134   7.950
 4986POPC   C4A10626   6.603  43.136   7.650
 4986POPC   C1B10627   6.391  43.011   8.550
 4986POPC   C2B10628   6.367  43.065   8.250
 4986POPC   C3B10629   6.414  43.082   7.950
 4986POPC   C4B10630   6.382  43.037   7.650
 4987POPC   NC310631  12.094  41.536   9.450
 4987POPC   PO410632  12.082  41.516   9.150
 4987POPC   GL110633  12.078  41.531   8.850
 4987POPC   GL210634  12.235  41.582   8.850
 4987POPC   C1A10635  12.034  41.540   8.550
 4987POPC   D2A10636  12.059  41.514   8.250
 4987POPC   C3A10637  12.120  41.549   7.950
 4987POPC   C4A10638  12.089  41.578   7.650
 4987POPC   C1B10639  12.352  41.581   8.550
 4987POPC   C2B10640  12.312  41.525   8.250
 4987POPC   C3B10641  12.341  41.572   7.950
 4987POPC   C4B10642  12.334  41.544   7.650
 4988POPC   NC310643   2.722  42.311   9.450
 4988POPC   PO410644   2.813  42.288   9.150
 4988POPC   GL110645   2.815  42.376   8.850
 4988POPC   GL210646   2.698  42.445   8.850
 4988POPC   C1A10647   2.767  42.353   8.550
 4988POPC   D2A10648   2.799  42.320   8.250
 4988POPC   C3A10649   2.762  42.330   7.950
 4988POPC   C4A10650   2.802  42.333   7.650
 4988POPC   C1B10651   2.604  42.560   8.550
 4988POPC   C2B10652   2.622  42.569   8.250
 4988POPC   C3B10653   2.656  42.578   7.950
 4988POPC   C4B10654   2.648  42.586   7.650
 4989POPC   NC310655  33.780  18.282   9.450
 4989POPC   PO410656  33.825  18.241   9.150
 4989POPC   GL110657  33.800  18.262   8.850
 4989POPC   GL210658  33.752  18.335   8.850
 4989POPC   C1A10659  33.830  18.280   8.550
 4989POPC   D2A10660  33.764  18.327   8.250
 4989POPC   C3A10661  33.785  18.248   7.950
 4989POPC   C4A10662  33.774  18.261   7.650
 4989POPC   C1B10663  33.615  18.470   8.550
 4989POPC   C2B10664  33.640  18.407   8.250
 4989POPC   C3B10665  33.655  18.408   7.950
 4989POPC   C4B10666  33.640  18.465   7.650
 4990POPC   NC310667   5.885  36.883   9.450
 4990POPC   PO410668   5.865  36.943   9.150
 4990POPC   GL110669   5.912  36.926   8.850
 4990POPC   GL210670   5.916  37.022   8.850
 4990POPC   C1A10671   5.895  36.873   8.550
 4990POPC   D2A10672   5.913  36.941   8.250
 4990POPC   C3A10673   5.830  36.924   7.950
 4990POPC   C4A10674   5.880  36.871   7.650
 4990POPC   C1B10675   5.947  37.187   8.550
 4990POPC   C2B10676   5.969  37.128   8.250
 4990POPC   C3B10677   5.895  37.192   7.950
 4990POPC   C4B10678   5.899  37.197   7.650
 4991POPC   NC310679  44.659  24.462   9.450
 4991POPC   PO410680  44.673  24.493   9.150
 4991POPC   GL110681  44.638  24.507   8.850
 4991POPC   GL210682  44.648  24.654   8.850
 4991POPC   C1A10683  44.669  24.510   8.550
 4991POPC   D2A10684  44.634  24.450   8.250
 4991POPC   C3A10685  44.634  24.459   7.950
 4991POPC   C4A10686  44.631  24.484   7.650
 4991POPC   C1B10687  44.754  24.699   8.550
 4991POPC   C2B10688  44.682  24.754   8.250
 4991POPC   C3B10689  44.757  24.727   7.950
 4991POPC   C4B10690  44.663  24.751   7.650
 4992POPC   NC310691  12.809  31.447   9.450
 4992POPC   PO410692  12.875  31.451   9.150
 4992POPC   GL110693  12.868  31.423   8.850
 4992POPC   GL210694  12.922  31.634   8.850
 4992POPC   C1A10695  12.888  31.457   8.550
 4992POPC   D2A10696  12.901  31.480   8.250
 4992POPC   C3A10697  12.817  31.504   7.950
 4992POPC   C4A10698  12.821  31.520   7.650
 4992POPC   C1B10699  12.989  31.670   8.550
 4992POPC   C2B10700  12.960  31.677   8.250
 4992POPC   C3B10701  12.918  31.751   7.950
 4992POPC   C4B10702  12.930  31.730   7.650
 4993POPC   NC310703  36.131  12.097   9.450
 4993POPC   PO410704  36.097  12.027   9.150
 4993POPC   GL110705  36.084  12.103   8.850
 4993POPC   GL210706  36.252  12.164   8.850
 4993POPC   C1A10707  36.107  12.118   8.550
 4993POPC   D2A10708  36.155  12.048   8.250
 4993POPC   C3A10709  36.093  12.095   7.950
 4993POPC   C4A10710  36.111  12.090   7.650
 4993POPC   C1B10711  36.359  12.150   8.550
 4993POPC   C2B10712  36.366  12.207   8.250
 4993POPC   C3B10713  36.409  12.116   7.950
 4993POPC   C4B10714  36.371  12.140   7.650
 4994POPC   NC310715   8.952  36.900   9.450
 4994POPC   PO410716   8.943  36.878   9.150
 4994POPC   GL110717   8.926  36.908   8.850
 4994POPC   GL210718   8.935  36.989   8.850
 4994POPC   C1A10719   8.950  36.916   8.550
 4994POPC   D2A10720   8.982  36.935   8.250
 4994POPC   C3A10721   9.002  36.925   7.950
 4994POPC   C4A10722   9.017  36.918   7.650
 4994POPC   C1B10723   8.831  37.084   8.550
 4994POPC   C2B10724   8.825  37.089   8.250
 4994POPC   C3B10725   8.903  37.157   7.950
 4994POPC   C4B10726   8.825  37.141   7.650
 4995POPC   NC310727  19.013  19.812   9.450
 4995POPC   PO410728  19.061  19.868   9.150
 4995POPC   GL110729  19.060  19.872   8.850
 4995POPC   GL210730  19.034  19.758   8.850
 4995POPC   C1A10731  19.094  19.836   8.550
 4995POPC   D2A10732  19.061  19.812   8.250
 4995POPC   C3A10733  19.053  19.808   7.950
 4995POPC   C4A10734  19.103  19.834   7.650
 4995POPC   C1B10735  18.935  19.591   8.550
 4995POPC   C2B10736  18.987  19.621   8.250
 4995POPC   C3B10737  18.977  19.653   7.950
 4995POPC   C4B10738  18.978  19.638   7.650
 4996POPC   NC310739  43.933  26.800   9.450
 4996POPC   PO410740  43.844  26.783   9.150
 4996POPC   GL110741  43.914  26.840   8.850
 4996POPC   GL210742  43.814  26.890   8.850
 4996POPC   C1A10743  43.873  26.817   8.550
 4996POPC   D2A10744  43.853  26.805   8.250
 4996POPC   C3A10745  43.916  26.806   7.950
 4996POPC   C4A10746  43.902  26.862   7.650
 4996POPC   C1B10747  43.672  27.011   8.550
 4996POPC   C2B10748  43.744  26.991   8.250
 4996POPC   C3B10749  43.744  27.020   7.950
 4996POPC   C4B10750  43.742  26.981   7.650
 4997POPC   NC310751  11.301  30.682   9.450
 4997POPC   PO410752  11.310  30.724   9.150
 4997POPC   GL110753  11.320  30.705   8.850
 4997POPC   GL210754  11.192  30.672   8.850
 4997POPC   C1A10755  11.348  30.709   8.550
 4997POPC   D2A10756  11.330  30.740   8.250
 4997POPC   C3A10757  11.342  30.722   7.950
 4997POPC   C4A10758  11.262  30.651   7.650
 4997POPC   C1B10759  11.069  30.705   8.550
 4997POPC   C2B10760  11.101  30.664   8.250
 4997POPC   C3B10761  11.005  30.639   7.950
 4997POPC   C4B10762  11.064  30.676   7.650
 4998POPC   NC310763   0.431  10.564   9.450
 4998POPC   PO410764   0.409  10.501   9.150
 4998POPC   GL110765   0.451  10.548   8.850
 4998POPC   GL210766   0.554  10.556   8.850
 4998POPC   C1A10767   0.419  10.515   8.550
 4998POPC   D2A10768   0.465  10.523   8.250
 4998POPC   C3A10769   0.391  10.555   7.950
 4998POPC   C4A10770   0.468  10.496   7.650
 4998POPC   C1B10771   0.670  10.657   8.550
 4998POPC   C2B10772   0.630  10.634   8.250
 4998POPC   C3B10773   0.676  10.651   7.950
 4998POPC   C4B10774   0.662  10.643   7.650
 4999POPC   NC310775  12.046   2.038   9.450
 4999POPC   PO410776  12.042   1.981   9.150
 4999POPC   GL110777  12.038   2.035   8.850
 4999POPC   GL210778  12.057   2.126   8.850
 4999POPC   C1A10779  12.111   1.989   8.550
 4999POPC   D2A10780  12.070   1.968   8.250
 4999POPC   C3A10781  12.113   1.943   7.950
 4999POPC   C4A10782  12.033   2.015   7.650
 4999POPC   C1B10783  12.091   2.279   8.550
 4999POPC   C2B10784  12.105   2.219   8.250
 4999POPC   C3B10785  12.133   2.234   7.950
 4999POPC   C4B10786  12.055   2.210   7.650
 5000POPC   NC310787  38.473  26.038   9.450
 5000POPC   PO410788  38.478  25.995   9.150
 5000POPC   GL110789  38.437  26.047   8.850
 5000POPC   GL210790  38.379  25.951   8.850
 5000POPC   C1A10791  38.460  26.045   8.550
 5000POPC   D2A10792  38.426  26.061   8.250
 5000POPC   C3A10793  38.487  26.003   7.950
 5000POPC   C4A10794  38.421  26.062   7.650
 5000POPC   C1B10795  38.217  25.945   8.550
 5000POPC   C2B10796  38.221  25.953   8.250
 5000POPC   C3B10797  38.241  25.948   7.950
 5000POPC   C4B10798  38.235  25.966   7.650
 5001POPC   NC310799  12.068  18.318   9.450
 5001POPC   PO410800  12.088  18.270   9.150
 5001POPC   GL110801  12.082  18.330   8.850
 5001POPC   GL210802  12.227  18.209   8.850
 5001POPC   C1A10803  12.123  18.280   8.550
 5001POPC   D2A10804  12.094  18.239   8.250
 5001POPC   C3A10805  12.097  18.244   7.950
 5001POPC   C4A10806  12.037  18.307   7.650
 5001POPC   C1B10807  12.239  18.145   8.550
 5001POPC   C2B10808  12.235  18.122   8.250
 5001POPC   C3B10809  12.284  18.171   7.950
 5001POPC   C4B10810  12.307  18.123   7.650
 5002POPC   NC310811  28.351  39.231   9.450
 5002POPC   PO410812  28.324  39.259   9.150
 5002POPC   GL110813  28.391  39.190   8.850
 5002POPC   GL210814  28.487  39.120   8.850
 5002POPC   C1A10815  28.402  39.278   8.550
 5002POPC   D2A10816  28.364  39.205   8.250
 5002POPC   C3A10817  28.399  39.212   7.950
 5002POPC   C4A10818  28.402  39.235   7.650
 5002POPC   C1B10819  28.555  39.064   8.550
 5002POPC   C2B10820  28.556  39.046   8.250
 5002POPC   C3B10821  28.470  39.032   7.950
 5002POPC   C4B10822  28.490  38.987   7.650
 5003POPC   NC310823  25.294  35.396   9.450
 5003POPC   PO410824  25.276  35.319   9.150
 5003POPC   GL110825  25.307  35.319   8.850
 5003POPC   GL210826  25.144  35.441   8.850
 5003POPC   C1A10827  25.231  35.319   8.550
 5003POPC   D2A10828  25.259  35.337   8.250
 5003POPC   C3A10829  25.311  35.359   7.950
 5003POPC   C4A10830  25.241  35.323   7.650
 5003POPC   C1B10831  25.054  35.488   8.550
 5003POPC   C2B10832  25.031  35.473   8.250
 5003POPC   C3B10833  25.016  35.477   7.950
 5003POPC   C4B10834  25.004  35.504   7.650
 5004POPC   NC310835  11.301   3.511   9.450
 5004POPC   PO410836  11.347   3.574   9.150
 5004POPC   GL110837  11.346   3.557   8.850
 5004POPC   GL210838  11.338   3.690   8.850
 5004POPC   C1A10839  11.300   3.580   8.550
 5004POPC   D2A10840  11.294   3.493   8.250
 5004POPC   C3A10841  11.258   3.569   7.950
 5004POPC   C4A10842  11.312   3.578   7.650
 5004POPC   C1B10843  11.354   3.737   8.550
 5004POPC   C2B10844  11.341   3.756   8.250
 5004POPC   C3B10845  11.400   3.811   7.950
 5004POPC   C4B10846  11.434   3.805   7.650
 5005POPC   NC310847  21.348   6.602   9.450
 5005POPC   PO410848  21.398   6.653   9.150
 5005POPC   GL110849  21.433   6.667   8.850
 5005POPC   GL210850  21.296   6.748   8.850
 5005POPC   C1A10851  21.387   6.608   8.550
 5005POPC   D2A10852  21.408   6.604   8.250
 5005POPC   C3A10853  21.352   6.620   7.950
 5005POPC   C4A10854  21.421   6.603   7.650
 5005POPC   C1B10855  21.223   6.813   8.550
 5005POPC   C2B10856  21.233   6.788   8.250
 5005POPC   C3B10857  21.209   6.837   7.950
 5005POPC   C4B10858  21.190   6.836   7.650
 5006POPC   NC310859  26.000  24.481   9.450
 5006POPC   PO410860  26.024  24.460   9.150
 5006POPC   GL110861  26.050  24.486   8.850
 5006POPC   GL210862  26.190  24.529   8.850
 5006POPC   C1A10863  26.011  24.491   8.550
 5006POPC   D2A10864  26.045  24.479   8.250
 5006POPC   C3A10865  26.026  24.521   7.950
 5006POPC   C4A10866  26.034  24.488   7.650
 5006POPC   C1B10867  26.305  24.513   8.550
 5006POPC   C2B10868  26.284  24.540   8.250
 5006POPC   C3B10869  26.333  24.485   7.950
 5006POPC   C4B10870  26.283  24.543   7.650
 5007POPC   NC310871   2.764  17.505   9.450
 5007POPC   PO410872   2.754  17.457   9.150
 5007POPC   GL110873   2.798  17.488   8.850
 5007POPC   GL210874   2.858  17.554   8.850
 5007POPC   C1A10875   2.805  17.525   8.550
 5007POPC   D2A10876   2.762  17.539   8.250
 5007POPC   C3A10877   2.757  17.520   7.950
 5007POPC   C4A10878   2.789  17.511   7.650
 5007POPC   C1B10879   3.056  17.574   8.550
 5007POPC   C2B10880   3.046  17.528   8.250
 5007POPC   C3B10881   3.023  17.617   7.950
 5007POPC   C4B10882   2.959  17.584   7.650
 5008POPC   NC310883  26.782  35.331   9.450
 5008POPC   PO410884  26.769  35.342   9.150
 5008POPC   GL110885  26.864  35.319   8.850
 5008POPC   GL210886  26.687  35.485   8.850
 5008POPC   C1A10887  26.812  35.315   8.550
 5008POPC   D2A10888  26.854  35.360   8.250
 5008POPC   C3A10889  26.778  35.353   7.950
 5008POPC   C4A10890  26.844  35.357   7.650
 5008POPC   C1B10891  26.630  35.562   8.550
 5008POPC   C2B10892  26.606  35.548   8.250
 5008POPC   C3B10893  26.636  35.564   7.950
 5008POPC   C4B10894  26.622  35.554   7.650
 5009POPC   NC310895  13.667  13.582   9.450
 5009POPC   PO410896  13.615  13.647   9.150
 5009POPC   GL110897  13.662  13.669   8.850
 5009POPC   GL210898  13.492  13.674   8.850
 5009POPC   C1A10899  13.655  13.611   8.550
 5009POPC   D2A10900  13.650  13.618   8.250
 5009POPC   C3A10901  13.627  13.596   7.950
 5009POPC   C4A10902  13.662  13.639   7.650
 5009POPC   C1B10903  13.446  13.735   8.550
 5009POPC   C2B10904  13.406  13.775   8.250
 5009POPC   C3B10905  13.436  13.768   7.950
 5009POPC   C4B10906  13.414  13.759   7.650
 5010POPC   NC310907   1.227  42.307   9.450
 5010POPC   PO410908   1.244  42.320   9.150
 5010POPC   GL110909   1.185  42.334   8.850
 5010POPC   GL210910   1.299  42.255   8.850
 5010POPC   C1A10911   1.248  42.291   8.550
 5010POPC   D2A10912   1.166  42.327   8.250
 5010POPC   C3A10913   1.239  42.292   7.950
 5010POPC   C4A10914   1.197  42.365   7.650
 5010POPC   C1B10915   1.380  42.181   8.550
 5010POPC   C2B10916   1.334  42.123   8.250
 5010POPC   C3B10917   1.384  42.150   7.950
 5010POPC   C4B10918   1.345  42.098   7.650
 5011POPC   NC310919  42.378  12.082   9.450
 5011POPC   PO410920  42.291  12.067   9.150
 5011POPC   GL110921  42.333  12.096   8.850
 5011POPC   GL210922  42.403  11.995   8.850
 5011POPC   C1A10923  42.312  12.067   8.550
 5011POPC   D2A10924  42.285  12.120   8.250
 5011POPC   C3A10925  42.292  12.034   7.950
 5011POPC   C4A10926  42.356  12.071   7.650
 5011POPC   C1B10927  42.552  11.944   8.550
 5011POPC   C2B10928  42.513  11.943   8.250
 5011POPC   C3B10929  42.520  11.963   7.950
 5011POPC   C4B10930  42.544  11.948   7.650
 5012POPC   NC310931   9.733  21.355   9.450
 5012POPC   PO410932   9.763  21.380   9.150
 5012POPC   GL110933   9.708  21.428   8.850
 5012POPC   GL210934   9.899  21.410   8.850
 5012POPC   C1A10935   9.756  21.359   8.550
 5012POPC   D2A10936   9.793  21.414   8.250
 5012POPC   C3A10937   9.715  21.342   7.950
 5012POPC   C4A10938   9.741  21.338   7.650
 5012POPC   C1B10939   9.966  21.480   8.550
 5012POPC   C2B10940   9.935  21.544   8.250
 5012POPC   C3B10941   9.986  21.534   7.950
 5012POPC   C4B10942   9.981  21.519   7.650
 5013POPC   NC310943  43.927  29.127   9.450
 5013POPC   PO410944  43.867  29.096   9.150
 5013POPC   GL110945  43.900  29.096   8.850
 5013POPC   GL210946  43.958  29.170   8.850
 5013POPC   C1A10947  43.894  29.116   8.550
 5013POPC   D2A10948  43.872  29.110   8.250
 5013POPC   C3A10949  43.855  29.133   7.950
 5013POPC   C4A10950  43.884  29.121   7.650
 5013POPC   C1B10951  44.116  29.179   8.550
 5013POPC   C2B10952  44.132  29.170   8.250
 5013POPC   C3B10953  44.091  29.204   7.950
 5013POPC   C4B10954  44.097  29.264   7.650
 5014POPC   NC310955   8.944   5.828   9.450
 5014POPC   PO410956   9.003   5.827   9.150
 5014POPC   GL110957   9.016   5.855   8.850
 5014POPC   GL210958   9.068   5.893   8.850
 5014POPC   C1A10959   8.972   5.866   8.550
 5014POPC   D2A10960   8.992   5.911   8.250
 5014POPC   C3A10961   8.958   5.893   7.950
 5014POPC   C4A10962   8.945   5.846   7.650
 5014POPC   C1B10963   9.162   6.056   8.550
 5014POPC   C2B10964   9.148   6.013   8.250
 5014POPC   C3B10965   9.199   6.050   7.950
 5014POPC   C4B10966   9.175   5.974   7.650
 5015POPC   NC310967  29.961  30.668   9.450
 5015POPC   PO410968  29.892  30.741   9.150
 5015POPC   GL110969  29.906  30.700   8.850
 5015POPC   GL210970  30.027  30.615   8.850
 5015POPC   C1A10971  29.876  30.733   8.550
 5015POPC   D2A10972  29.967  30.734   8.250
 5015POPC   C3A10973  29.912  30.669   7.950
 5015POPC   C4A10974  29.901  30.688   7.650
 5015POPC   C1B10975  30.074  30.464   8.550
 5015POPC   C2B10976  30.069  30.459   8.250
 5015POPC   C3B10977  30.041  30.489   7.950
 5015POPC   C4B10978  30.010  30.513   7.650
 5016POPC   NC310979  36.885  19.882   9.450
 5016POPC   PO410980  36.894  19.811   9.150
 5016POPC   GL110981  36.918  19.797   8.850
 5016POPC   GL210982  36.774  19.969   8.850
 5016POPC   C1A10983  36.950  19.841   8.550
 5016POPC   D2A10984  36.862  19.795   8.250
 5016POPC   C3A10985  36.907  19.806   7.950
 5016POPC   C4A10986  36.945  19.865   7.650
 5016POPC   C1B10987  36.727  20.018   8.550
 5016POPC   C2B10988  36.711  20.024   8.250
 5016POPC   C3B10989  36.706  20.065   7.950
 5016POPC   C4B10990  36.775  19.966   7.650
 5017POPC   NC310991  27.639  37.688   9.450
 5017POPC   PO410992  27.602  37.641   9.150
 5017POPC   GL110993  27.633  37.666   8.850
 5017POPC   GL210994  27.504  37.616   8.850
 5017POPC   C1A10995  27.557  37.712   8.550
 5017POPC   D2A10996  27.578  37.670   8.250
 5017POPC   C3A10997  27.558  37.684   7.950
 5017POPC   C4A10998  27.613  37.692   7.650
 5017POPC   C1B10999  27.404  37.460   8.550
 5017POPC   C2B11000  27.443  37.454   8.250
 5017POPC   C3B11001  27.442  37.430   7.950
 5017POPC   C4B11002  27.474  37.488   7.650
 5018POPC   NC311003  13.624  31.429   9.450
 5018POPC   PO411004  13.639  31.448   9.150
 5018POPC   GL111005  13.589  31.427   8.850
 5018POPC   GL211006  13.576  31.614   8.850
 5018POPC   C1A11007  13.678  31.450   8.550
 5018POPC   D2A11008  13.582  31.508   8.250
 5018POPC   C3A11009  13.637  31.456   7.950
 5018POPC   C4A11010  13.651  31.439   7.650
 5018POPC   C1B11011  13.603  31.771   8.550
 5018POPC   C2B11012  13.601  31.707   8.250
 5018POPC   C3B11013  13.626  31.750   7.950
 5018POPC   C4B11014  13.603  31.714   7.650
 5019POPC   NC311015  15.990  16.780   9.450
 5019POPC   PO411016  15.939  16.767   9.150
 5019POPC   GL111017  15.941  16.729   8.850
 5019POPC   GL211018  15.901  16.880   8.850
 5019POPC   C1A11019  15.935  16.753   8.550
 5019POPC   D2A11020  15.951  16.725   8.250
 5019POPC   C3A11021  15.987  16.713   7.950
 5019POPC   C4A11022  15.967  16.692   7.650
 5019POPC   C1B11023  15.868  16.918   8.550
 5019POPC   C2B11024  15.854  16.919   8.250
 5019POPC   C3B11025  15.807  16.947   7.950
 5019POPC   C4B11026  15.898  16.926   7.650
 5020POPC   NC311027  31.431   3.553   9.450
 5020POPC   PO411028  31.472   3.557   9.150
 5020POPC   GL111029  31.434   3.553   8.850
 5020POPC   GL211030  31.496   3.682   8.850
 5020POPC   C1A11031  31.474   3.535   8.550
 5020POPC   D2A11032  31.477   3.570   8.250
 5020POPC   C3A11033  31.467   3.583   7.950
 5020POPC   C4A11034  31.443   3.507   7.650
 5020POPC   C1B11035  31.607   3.739   8.550
 5020POPC   C2B11036  31.573   3.775   8.250
 5020POPC   C3B11037  31.585   3.792   7.950
 5020POPC   C4B11038  31.534   3.748   7.650
 5021POPC   NC311039  29.955  27.604   9.450
 5021POPC   PO411040  29.934  27.638   9.150
 5021POPC   GL111041  29.909  27.586   8.850
 5021POPC   GL211042  29.782  27.520   8.850
 5021POPC   C1A11043  29.919  27.637   8.550
 5021POPC   D2A11044  29.921  27.595   8.250
 5021POPC   C3A11045  29.881  27.638   7.950
 5021POPC   C4A11046  29.910  27.602   7.650
 5021POPC   C1B11047  29.687  27.536   8.550
 5021POPC   C2B11048  29.726  27.477   8.250
 5021POPC   C3B11049  29.680  27.564   7.950
 5021POPC   C4B11050  29.709  27.509   7.650
 5022POPC   NC311051   1.164  31.487   9.450
 5022POPC   PO411052   1.219  31.476   9.150
 5022POPC   GL111053   1.190  31.481   8.850
 5022POPC   GL211054   1.181  31.342   8.850
 5022POPC   C1A11055   1.174  31.496   8.550
 5022POPC   D2A11056   1.197  31.510   8.250
 5022POPC   C3A11057   1.182  31.456   7.950
 5022POPC   C4A11058   1.174  31.479   7.650
 5022POPC   C1B11059   1.124  31.182   8.550
 5022POPC   C2B11060   1.147  31.205   8.250
 5022POPC   C3B11061   1.203  31.179   7.950
 5022POPC   C4B11062   1.122  31.257   7.650
 5023POPC   NC311063  20.603  18.279   9.450
 5023POPC   PO411064  20.606  18.250   9.150
 5023POPC   GL111065  20.574  18.279   8.850
 5023POPC   GL211066  20.685  18.388   8.850
 5023POPC   C1A11067  20.593  18.275   8.550
 5023POPC   D2A11068  20.599  18.275   8.250
 5023POPC   C3A11069  20.580  18.255   7.950
 5023POPC   C4A11070  20.562  18.244   7.650
 5023POPC   C1B11071  20.755  18.514   8.550
 5023POPC   C2B11072  20.759  18.471   8.250
 5023POPC   C3B11073  20.731  18.420   7.950
 5023POPC   C4B11074  20.734  18.434   7.650
 5024POPC   NC311075   1.172  44.676   9.450
 5024POPC   PO411076   1.262  44.681   9.150
 5024POPC   GL111077   1.248  44.658   8.850
 5024POPC   GL211078   1.145  44.588   8.850
 5024POPC   C1A11079   1.181  44.646   8.550
 5024POPC   D2A11080   1.207  44.616   8.250
 5024POPC   C3A11081   1.224  44.672   7.950
 5024POPC   C4A11082   1.184  44.669   7.650
 5024POPC   C1B11083   1.076  44.501   8.550
 5024POPC   C2B11084   1.078  44.461   8.250
 5024POPC   C3B11085   1.033  44.511   7.950
 5024POPC   C4B11086   1.026  44.454   7.650
 5025POPC   NC311087  27.616   5.078   9.450
 5025POPC   PO411088  27.576   5.055   9.150
 5025POPC   GL111089  27.598   5.134   8.850
 5025POPC   GL211090  27.557   5.200   8.850
 5025POPC   C1A11091  27.554   5.133   8.550
 5025POPC   D2A11092  27.609   5.127   8.250
 5025POPC   C3A11093  27.559   5.049   7.950
 5025POPC   C4A11094  27.619   5.124   7.650
 5025POPC   C1B11095  27.577   5.313   8.550
 5025POPC   C2B11096  27.584   5.343   8.250
 5025POPC   C3B11097  27.537   5.388   7.950
 5025POPC   C4B11098  27.602   5.344   7.650
 5026POPC   NC311099  22.205  33.021   9.450
 5026POPC   PO411100  22.204  32.986   9.150
 5026POPC   GL111101  22.166  33.045   8.850
 5026POPC   GL211102  22.068  33.122   8.850
 5026POPC   C1A11103  22.122  33.056   8.550
 5026POPC   D2A11104  22.124  32.978   8.250
 5026POPC   C3A11105  22.206  33.043   7.950
 5026POPC   C4A11106  22.199  33.063   7.650
 5026POPC   C1B11107  22.004  33.221   8.550
 5026POPC   C2B11108  22.058  33.243   8.250
 5026POPC   C3B11109  21.992  33.250   7.950
 5026POPC   C4B11110  22.031  33.220   7.650
 5027POPC   NC311111  34.540  30.657   9.450
 5027POPC   PO411112  34.616  30.658   9.150
 5027POPC   GL111113  34.609  30.661   8.850
 5027POPC   GL211114  34.726  30.712   8.850
 5027POPC   C1A11115  34.596  30.698   8.550
 5027POPC   D2A11116  34.566  30.741   8.250
 5027POPC   C3A11117  34.532  30.696   7.950
 5027POPC   C4A11118  34.556  30.664   7.650
 5027POPC   C1B11119  34.849  30.747   8.550
 5027POPC   C2B11120  34.766  30.782   8.250
 5027POPC   C3B11121  34.758  30.767   7.950
 5027POPC   C4B11122  34.839  30.803   7.650
 5028POPC   NC311123  25.276   0.457   9.450
 5028POPC   PO411124  25.222   0.435   9.150
 5028POPC   GL111125  25.239   0.397   8.850
 5028POPC   GL211126  25.293   0.271   8.850
 5028POPC   C1A11127  25.313   0.394   8.550
 5028POPC   D2A11128  25.313   0.472   8.250
 5028POPC   C3A11129  25.299   0.469   7.950
 5028POPC   C4A11130  25.233   0.434   7.650
 5028POPC   C1B11131  25.216   0.201   8.550
 5028POPC   C2B11132  25.236   0.193   8.250
 5028POPC   C3B11133  25.201   0.229   7.950
 5028POPC   C4B11134  25.241   0.209   7.650
 5029POPC   NC311135   8.180  32.988   9.450
 5029POPC   PO411136   8.226  33.001   9.150
 5029POPC   GL111137   8.223  32.979   8.850
 5029POPC   GL211138   8.314  33.084   8.850
 5029POPC   C1A11139   8.184  32.978   8.550
 5029POPC   D2A11140   8.164  32.979   8.250
 5029POPC   C3A11141   8.167  32.989   7.950
 5029POPC   C4A11142   8.243  33.028   7.650
 5029POPC   C1B11143   8.430  33.235   8.550
 5029POPC   C2B11144   8.381  33.176   8.250
 5029POPC   C3B11145   8.360  33.183   7.950
 5029POPC   C4B11146   8.422  33.177   7.650
 5030POPC   NC311147  33.043   8.238   9.450
 5030POPC   PO411148  33.051   8.217   9.150
 5030POPC   GL111149  33.016   8.199   8.850
 5030POPC   GL211150  32.910   8.257   8.850
 5030POPC   C1A11151  33.064   8.158   8.550
 5030POPC   D2A11152  32.994   8.242   8.250
 5030POPC   C3A11153  33.033   8.238   7.950
 5030POPC   C4A11154  33.031   8.191   7.650
 5030POPC   C1B11155  32.823   8.292   8.550
 5030POPC   C2B11156  32.821   8.294   8.250
 5030POPC   C3B11157  32.794   8.323   7.950
 5030POPC   C4B11158  32.801   8.288   7.650
 5031POPC   NC311159  36.896  18.255   9.450
 5031POPC   PO411160  36.854  18.233   9.150
 5031POPC   GL111161  36.890  18.323   8.850
 5031POPC   GL211162  36.892  18.187   8.850
 5031POPC   C1A11163  36.866  18.263   8.550
 5031POPC   D2A11164  36.858  18.326   8.250
 5031POPC   C3A11165  36.897  18.233   7.950
 5031POPC   C4A11166  36.863  18.293   7.650
 5031POPC   C1B11167  36.898  18.013   8.550
 5031POPC   C2B11168  36.885  18.010   8.250
 5031POPC   C3B11169  36.856  18.043   7.950
 5031POPC   C4B11170  36.831  18.002   7.650
 5032POPC   NC311171  27.574   3.537   9.450
 5032POPC   PO411172  27.622   3.525   9.150
 5032POPC   GL111173  27.605   3.556   8.850
 5032POPC   GL211174  27.564   3.704   8.850
 5032POPC   C1A11175  27.618   3.520   8.550
 5032POPC   D2A11176  27.638   3.494   8.250
 5032POPC   C3A11177  27.579   3.555   7.950
 5032POPC   C4A11178  27.584   3.551   7.650
 5032POPC   C1B11179  27.530   3.783   8.550
 5032POPC   C2B11180  27.517   3.728   8.250
 5032POPC   C3B11181  27.463   3.753   7.950
 5032POPC   C4B11182  27.506   3.729   7.650
 5033POPC   NC311183   6.619  43.877   9.450
 5033POPC   PO411184   6.605  43.912   9.150
 5033POPC   GL111185   6.666  43.922   8.850
 5033POPC   GL211186   6.486  43.912   8.850
 5033POPC   C1A11187   6.646  43.887   8.550
 5033POPC   D2A11188   6.632  43.866   8.250
 5033POPC   C3A11189   6.659  43.887   7.950
 5033POPC   C4A11190   6.665  43.925   7.650
 5033POPC   C1B11191   6.434  43.920   8.550
 5033POPC   C2B11192   6.387  43.903   8.250
 5033POPC   C3B11193   6.403  43.897   7.950
 5033POPC   C4B11194   6.439  43.941   7.650
 5034POPC   NC311195  22.962  12.103   9.450
 5034POPC   PO411196  22.932  12.098   9.150
 5034POPC   GL111197  22.916  12.029   8.850
 5034POPC   GL211198  22.784  12.089   8.850
 5034POPC   C1A11199  22.895  12.037   8.550
 5034POPC   D2A11200  22.957  12.043   8.250
 5034POPC   C3A11201  22.897  12.076   7.950
 5034POPC   C4A11202  22.909  12.037   7.650
 5034POPC   C1B11203  22.707  12.044   8.550
 5034POPC   C2B11204  22.722  12.047   8.250
 5034POPC   C3B11205  22.679  12.000   7.950
 5034POPC   C4B11206  22.728  12.003   7.650
 5035POPC   NC311207  20.571   8.219   9.450
 5035POPC   PO411208  20.628   8.203   9.150
 5035POPC   GL111209  20.659   8.234   8.850
 5035POPC   GL211210  20.655   8.045   8.850
 5035POPC   C1A11211  20.604   8.171   8.550
 5035POPC   D2A11212  20.655   8.151   8.250
 5035POPC   C3A11213  20.638   8.170   7.950
 5035POPC   C4A11214  20.613   8.168   7.650
 5035POPC   C1B11215  20.657   7.911   8.550
 5035POPC   C2B11216  20.672   7.954   8.250
 5035POPC   C3B11217  20.682   7.975   7.950
 5035POPC   C4B11218  20.694   7.963   7.650
 5036POPC   NC311219   5.826  29.878   9.450
 5036POPC   PO411220   5.827  29.871   9.150
 5036POPC   GL111221   5.821  29.903   8.850
 5036POPC   GL211222   5.747  29.924   8.850
 5036POPC   C1A11223   5.916  29.872   8.550
 5036POPC   D2A11224   5.900  29.880   8.250
 5036POPC   C3A11225   5.895  29.934   7.950
 5036POPC   C4A11226   5.844  29.902   7.650
 5036POPC   C1B11227   5.659  29.910   8.550
 5036POPC   C2B11228   5.634  29.884   8.250
 5036POPC   C3B11229   5.610  29.898   7.950
 5036POPC   C4B11230   5.654  29.850   7.650
 5037POPC   NC311231   2.019  16.776   9.450
 5037POPC   PO411232   1.983  16.766   9.150
 5037POPC   GL111233   2.022  16.764   8.850
 5037POPC   GL211234   2.045  16.609   8.850
 5037POPC   C1A11235   1.954  16.688   8.550
 5037POPC   D2A11236   2.021  16.746   8.250
 5037POPC   C3A11237   2.007  16.761   7.950
 5037POPC   C4A11238   1.972  16.780   7.650
 5037POPC   C1B11239   2.138  16.587   8.550
 5037POPC   C2B11240   2.213  16.584   8.250
 5037POPC   C3B11241   2.177  16.544   7.950
 5037POPC   C4B11242   2.200  16.599   7.650
 5038POPC   NC311243  32.283  19.797   9.450
 5038POPC   PO411244  32.212  19.851   9.150
 5038POPC   GL111245  32.250  19.828   8.850
 5038POPC   GL211246  32.264  19.914   8.850
 5038POPC   C1A11247  32.240  19.795   8.550
 5038POPC   D2A11248  32.201  19.857   8.250
 5038POPC   C3A11249  32.232  19.802   7.950
 5038POPC   C4A11250  32.275  19.817   7.650
 5038POPC   C1B11251  32.300  20.087   8.550
 5038POPC   C2B11252  32.287  20.118   8.250
 5038POPC   C3B11253  32.349  20.062   7.950
 5038POPC   C4B11254  32.325  20.037   7.650
 5039POPC   NC311255  31.464   5.102   9.450
 5039POPC   PO411256  31.453   5.068   9.150
 5039POPC   GL111257  31.479   5.061   8.850
 5039POPC   GL211258  31.598   5.036   8.850
 5039POPC   C1A11259  31.460   5.094   8.550
 5039POPC   D2A11260  31.474   5.116   8.250
 5039POPC   C3A11261  31.427   5.061   7.950
 5039POPC   C4A11262  31.503   5.138   7.650
 5039POPC   C1B11263  31.610   4.916   8.550
 5039POPC   C2B11264  31.611   4.949   8.250
 5039POPC   C3B11265  31.626   4.920   7.950
 5039POPC   C4B11266  31.689   4.875   7.650
 5040POPC   NC311267  27.592  25.254   9.450
 5040POPC   PO411268  27.574  25.226   9.150
 5040POPC   GL111269  27.603  25.262   8.850
 5040POPC   GL211270  27.534  25.141   8.850
 5040POPC   C1A11271  27.637  25.297   8.550
 5040POPC   D2A11272  27.554  25.232   8.250
 5040POPC   C3A11273  27.575  25.311   7.950
 5040POPC   C4A11274  27.618  25.280   7.650
 5040POPC   C1B11275  27.553  25.069   8.550
 5040POPC   C2B11276  27.509  25.053   8.250
 5040POPC   C3B11277  27.531  24.995   7.950
 5040POPC   C4B11278  27.557  25.063   7.650
 5041POPC   NC311279  13.615  25.268   9.450
 5041POPC   PO411280  13.606  25.278   9.150
 5041POPC   GL111281  13.591  25.280   8.850
 5041POPC   GL211282  13.762  25.344   8.850
 5041POPC   C1A11283  13.672  25.293   8.550
 5041POPC   D2A11284  13.598  25.309   8.250
 5041POPC   C3A11285  13.653  25.291   7.950
 5041POPC   C4A11286  13.593  25.216   7.650
 5041POPC   C1B11287  13.842  25.470   8.550
 5041POPC   C2B11288  13.811  25.413   8.250
 5041POPC   C3B11289  13.772  25.456   7.950
 5041POPC   C4B11290  13.780  25.437   7.650
 5042POPC   NC311291  35.372   6.679   9.450
 5042POPC   PO411292  35.369   6.640   9.150
 5042POPC   GL111293  35.373   6.635   8.850
 5042POPC   GL211294  35.323   6.728   8.850
 5042POPC   C1A11295  35.317   6.692   8.550
 5042POPC   D2A11296  35.339   6.621   8.250
 5042POPC   C3A11297  35.325   6.662   7.950
 5042POPC   C4A11298  35.378   6.632   7.650
 5042POPC   C1B11299  35.246   6.929   8.550
 5042POPC   C2B11300  35.284   6.909   8.250
 5042POPC   C3B11301  35.327   6.933   7.950
 5042POPC   C4B11302  35.245   6.924   7.650
 5043POPC   NC311303  15.933  33.054   9.450
 5043POPC   PO411304  15.938  33.056   9.150
 5043POPC   GL111305  15.966  33.001   8.850
 5043POPC   GL211306  15.864  33.075   8.850
 5043POPC   C1A11307  15.981  33.051   8.550
 5043POPC   D2A11308  15.994  33.024   8.250
 5043POPC   C3A11309  16.002  33.020   7.950
 5043POPC   C4A11310  15.997  33.000   7.650
 5043POPC   C1B11311  15.767  33.198   8.550
 5043POPC   C2B11312  15.757  33.120   8.250
 5043POPC   C3B11313  15.699  33.133   7.950
 5043POPC   C4B11314  15.722  33.178   7.650
 5044POPC   NC311315  36.110   0.428   9.450
 5044POPC   PO411316  36.160   0.458   9.150
 5044POPC   GL111317  36.096   0.396   8.850
 5044POPC   GL211318  36.067   0.488   8.850
 5044POPC   C1A11319  36.088   0.395   8.550
 5044POPC   D2A11320  36.094   0.460   8.250
 5044POPC   C3A11321  36.176   0.447   7.950
 5044POPC   C4A11322  36.143   0.458   7.650
 5044POPC   C1B11323  35.891   0.563   8.550
 5044POPC   C2B11324  35.882   0.570   8.250
 5044POPC   C3B11325  35.910   0.614   7.950
 5044POPC   C4B11326  35.925   0.608   7.650
 5045POPC   NC311327  12.854  15.971   9.450
 5045POPC   PO411328  12.842  15.917   9.150
 5045POPC   GL111329  12.851  15.980   8.850
 5045POPC   GL211330  12.908  16.102   8.850
 5045POPC   C1A11331  12.852  15.911   8.550
 5045POPC   D2A11332  12.848  15.921   8.250
 5045POPC   C3A11333  12.877  15.934   7.950
 5045POPC   C4A11334  12.819  15.948   7.650
 5045POPC   C1B11335  12.949  16.189   8.550
 5045POPC   C2B11336  13.015  16.135   8.250
 5045POPC   C3B11337  12.992  16.197   7.950
 5045POPC   C4B11338  12.987  16.141   7.650
 5046POPC   NC311339   8.935  19.844   9.450
 5046POPC   PO411340   8.999  19.790   9.150
 5046POPC   GL111341   8.935  19.797   8.850
 5046POPC   GL211342   8.947  19.980   8.850
 5046POPC   C1A11343   8.935  19.844   8.550
 5046POPC   D2A11344   8.979  19.854   8.250
 5046POPC   C3A11345   8.946  19.828   7.950
 5046POPC   C4A11346   8.992  19.809   7.650
 5046POPC   C1B11347   9.028  20.095   8.550
 5046POPC   C2B11348   9.056  20.098   8.250
 5046POPC   C3B11349   8.997  20.080   7.950
 5046POPC   C4B11350   9.049  20.119   7.650
 5047POPC   NC311351  43.104  28.379   9.450
 5047POPC   PO411352  43.118  28.400   9.150
 5047POPC   GL111353  43.122  28.367   8.850
 5047POPC   GL211354  43.232  28.240   8.850
 5047POPC   C1A11355  43.128  28.336   8.550
 5047POPC   D2A11356  43.123  28.401   8.250
 5047POPC   C3A11357  43.102  28.396   7.950
 5047POPC   C4A11358  43.158  28.319   7.650
 5047POPC   C1B11359  43.255  28.221   8.550
 5047POPC   C2B11360  43.305  28.141   8.250
 5047POPC   C3B11361  43.257  28.141   7.950
 5047POPC   C4B11362  43.245  28.186   7.650
 5048POPC   NC311363   7.391  20.627   9.450
 5048POPC   PO411364   7.398  20.605   9.150
 5048POPC   GL111365   7.439  20.605   8.850
 5048POPC   GL211366   7.340  20.692   8.850
 5048POPC   C1A11367   7.455  20.653   8.550
 5048POPC   D2A11368   7.373  20.627   8.250
 5048POPC   C3A11369   7.427  20.601   7.950
 5048POPC   C4A11370   7.397  20.566   7.650
 5048POPC   C1B11371   7.329  20.857   8.550
 5048POPC   C2B11372   7.279  20.811   8.250
 5048POPC   C3B11373   7.289  20.886   7.950
 5048POPC   C4B11374   7.296  20.801   7.650
 5049POPC   NC311375   3.514  19.073   9.450
 5049POPC   PO411376   3.526  19.082   9.150
 5049POPC   GL111377   3.495  19.050   8.850
 5049POPC   GL211378   3.371  19.089   8.850
 5049POPC   C1A11379   3.519  19.065   8.550
 5049POPC   D2A11380   3.584  19.051   8.250
 5049POPC   C3A11381   3.537  19.042   7.950
 5049POPC   C4A11382   3.565  19.027   7.650
 5049POPC   C1B11383   3.314  19.072   8.550
 5049POPC   C2B11384   3.251  19.057   8.250
 5049POPC   C3B11385   3.338  19.073   7.950
 5049POPC   C4B11386   3.279  19.109   7.650
 5050POPC   NC311387  38.471  12.890   9.450
 5050POPC   PO411388  38.435  12.820   9.150
 5050POPC   GL111389  38.423  12.854   8.850
 5050POPC   GL211390  38.449  12.780   8.850
 5050POPC   C1A11391  38.505  12.891   8.550
 5050POPC   D2A11392  38.492  12.811   8.250
 5050POPC   C3A11393  38.414  12.888   7.950
 5050POPC   C4A11394  38.447  12.833   7.650
 5050POPC   C1B11395  38.568  12.568   8.550
 5050POPC   C2B11396  38.511  12.629   8.250
 5050POPC   C3B11397  38.563  12.652   7.950
 5050POPC   C4B11398  38.531  12.613   7.650
 5051POPC   NC311399  14.423  32.202   9.450
 5051POPC   PO411400  14.363  32.287   9.150
 5051POPC   GL111401  14.404  32.251   8.850
 5051POPC   GL211402  14.354  32.414   8.850
 5051POPC   C1A11403  14.361  32.274   8.550
 5051POPC   D2A11404  14.360  32.282   8.250
 5051POPC   C3A11405  14.357  32.200   7.950
 5051POPC   C4A11406  14.443  32.294   7.650
 5051POPC   C1B11407  14.352  32.502   8.550
 5051POPC   C2B11408  14.292  32.488   8.250
 5051POPC   C3B11409  14.262  32.516   7.950
 5051POPC   C4B11410  14.338  32.531   7.650
 5052POPC   NC311411  29.149  29.123   9.450
 5052POPC   PO411412  29.126  29.130   9.150
 5052POPC   GL111413  29.113  29.150   8.850
 5052POPC   GL211414  29.100  29.008   8.850
 5052POPC   C1A11415  29.104  29.149   8.550
 5052POPC   D2A11416  29.184  29.144   8.250
 5052POPC   C3A11417  29.161  29.186   7.950
 5052POPC   C4A11418  29.100  29.142   7.650
 5052POPC   C1B11419  29.060  28.938   8.550
 5052POPC   C2B11420  29.108  28.926   8.250
 5052POPC   C3B11421  29.058  28.877   7.950
 5052POPC   C4B11422  29.082  28.951   7.650
 5053POPC   NC311423  30.664  43.924   9.450
 5053POPC   PO411424  30.679  43.887   9.150
 5053POPC   GL111425  30.657  43.841   8.850
 5053POPC   GL211426  30.774  44.006   8.850
 5053POPC   C1A11427  30.663  43.889   8.550
 5053POPC   D2A11428  30.732  43.849   8.250
 5053POPC   C3A11429  30.723  43.879   7.950
 5053POPC   C4A11430  30.673  43.868   7.650
 5053POPC   C1B11431  30.805  44.127   8.550
 5053POPC   C2B11432  30.866  44.041   8.250
 5053POPC   C3B11433  30.818  44.133   7.950
 5053POPC   C4B11434  30.809  44.063   7.650
 5054POPC   NC311435  22.911  33.846   9.450
 5054POPC   PO411436  22.970  33.835   9.150
 5054POPC   GL111437  22.964  33.753   8.850
 5054POPC   GL211438  22.895  33.874   8.850
 5054POPC   C1A11439  22.984  33.761   8.550
 5054POPC   D2A11440  22.940  33.797   8.250
 5054POPC   C3A11441  22.952  33.802   7.950
 5054POPC   C4A11442  22.930  33.841   7.650
 5054POPC   C1B11443  22.834  33.985   8.550
 5054POPC   C2B11444  22.823  34.049   8.250
 5054POPC   C3B11445  22.820  33.997   7.950
 5054POPC   C4B11446  22.832  33.999   7.650
 5055POPC   NC311447  22.112  19.068   9.450
 5055POPC   PO411448  22.188  19.033   9.150
 5055POPC   GL111449  22.170  19.065   8.850
 5055POPC   GL211450  22.029  19.098   8.850
 5055POPC   C1A11451  22.146  19.065   8.550
 5055POPC   D2A11452  22.173  19.086   8.250
 5055POPC   C3A11453  22.172  19.035   7.950
 5055POPC   C4A11454  22.211  19.010   7.650
 5055POPC   C1B11455  21.952  19.098   8.550
 5055POPC   C2B11456  21.898  19.126   8.250
 5055POPC   C3B11457  21.905  19.131   7.950
 5055POPC   C4B11458  21.959  19.157   7.650
 5056POPC   NC311459  14.414  12.104   9.450
 5056POPC   PO411460  14.422  12.073   9.150
 5056POPC   GL111461  14.413  12.123   8.850
 5056POPC   GL211462  14.338  12.132   8.850
 5056POPC   C1A11463  14.358  12.032   8.550
 5056POPC   D2A11464  14.392  12.026   8.250
 5056POPC   C3A11465  14.373  12.030   7.950
 5056POPC   C4A11466  14.437  12.098   7.650
 5056POPC   C1B11467  14.215  12.224   8.550
 5056POPC   C2B11468  14.199  12.246   8.250
 5056POPC   C3B11469  14.211  12.233   7.950
 5056POPC   C4B11470  14.249  12.291   7.650
 5057POPC   NC311471  16.751  11.261   9.450
 5057POPC   PO411472  16.723  11.339   9.150
 5057POPC   GL111473  16.708  11.306   8.850
 5057POPC   GL211474  16.756  11.429   8.850
 5057POPC   C1A11475  16.702  11.331   8.550
 5057POPC   D2A11476  16.698  11.337   8.250
 5057POPC   C3A11477  16.744  11.276   7.950
 5057POPC   C4A11478  16.709  11.265   7.650
 5057POPC   C1B11479  16.831  11.544   8.550
 5057POPC   C2B11480  16.864  11.487   8.250
 5057POPC   C3B11481  16.873  11.502   7.950
 5057POPC   C4B11482  16.822  11.511   7.650
 5058POPC   NC311483   5.862  33.806   9.450
 5058POPC   PO411484   5.854  33.762   9.150
 5058POPC   GL111485   5.837  33.838   8.850
 5058POPC   GL211486   5.757  33.817   8.850
 5058POPC   C1A11487   5.875  33.780   8.550
 5058POPC   D2A11488   5.828  33.784   8.250
 5058POPC   C3A11489   5.860  33.819   7.950
 5058POPC   C4A11490   5.863  33.823   7.650
 5058POPC   C1B11491   5.637  33.957   8.550
 5058POPC   C2B11492   5.607  33.878   8.250
 5058POPC   C3B11493   5.695  33.913   7.950
 5058POPC   C4B11494   5.608  33.926   7.650
 5059POPC   NC311495  16.781  29.136   9.450
 5059POPC   PO411496  16.737  29.145   9.150
 5059POPC   GL111497  16.759  29.162   8.850
 5059POPC   GL211498  16.794  28.985   8.850
 5059POPC   C1A11499  16.687  29.122   8.550
 5059POPC   D2A11500  16.743  29.116   8.250
 5059POPC   C3A11501  16.703  29.117   7.950
 5059POPC   C4A11502  16.758  29.120   7.650
 5059POPC   C1B11503  16.832  28.912   8.550
 5059POPC   C2B11504  16.771  28.877   8.250
 5059POPC   C3B11505  16.812  28.887   7.950
 5059POPC   C4B11506  16.791  28.873   7.650
 5060POPC   NC311507  37.663   9.728   9.450
 5060POPC   PO411508  37.723   9.784   9.150
 5060POPC   GL111509  37.659   9.727   8.850
 5060POPC   GL211510  37.634   9.685   8.850
 5060POPC   C1A11511  37.654   9.704   8.550
 5060POPC   D2A11512  37.713   9.794   8.250
 5060POPC   C3A11513  37.686   9.732   7.950
 5060POPC   C4A11514  37.709   9.740   7.650
 5060POPC   C1B11515  37.555   9.604   8.550
 5060POPC   C2B11516  37.509   9.609   8.250
 5060POPC   C3B11517  37.541   9.595   7.950
 5060POPC   C4B11518  37.547   9.545   7.650
 5061POPC   NC311519   0.465  39.983   9.450
 5061POPC   PO411520   0.435  40.034   9.150
 5061POPC   GL111521   0.437  40.019   8.850
 5061POPC   GL211522   0.520  40.018   8.850
 5061POPC   C1A11523   0.475  40.040   8.550
 5061POPC   D2A11524   0.459  40.016   8.250
 5061POPC   C3A11525   0.397  39.984   7.950
 5061POPC   C4A11526   0.452  39.984   7.650
 5061POPC   C1B11527   0.652  40.120   8.550
 5061POPC   C2B11528   0.661  40.100   8.250
 5061POPC   C3B11529   0.699  40.075   7.950
 5061POPC   C4B11530   0.661  40.148   7.650
 5062POPC   NC311531  39.223  32.227   9.450
 5062POPC   PO411532  39.201  32.250   9.150
 5062POPC   GL111533  39.210  32.199   8.850
 5062POPC   GL211534  39.140  32.227   8.850
 5062POPC   C1A11535  39.224  32.232   8.550
 5062POPC   D2A11536  39.247  32.232   8.250
 5062POPC   C3A11537  39.280  32.216   7.950
 5062POPC   C4A11538  39.279  32.206   7.650
 5062POPC   C1B11539  38.995  32.114   8.550
 5062POPC   C2B11540  39.010  32.121   8.250
 5062POPC   C3B11541  38.964  32.114   7.950
 5062POPC   C4B11542  39.040  32.150   7.650
 5063POPC   NC311543  20.636  22.205   9.450
 5063POPC   PO411544  20.590  22.203   9.150
 5063POPC   GL111545  20.612  22.148   8.850
 5063POPC   GL211546  20.750  22.060   8.850
 5063POPC   C1A11547  20.567  22.159   8.550
 5063POPC   D2A11548  20.634  22.164   8.250
 5063POPC   C3A11549  20.654  22.117   7.950
 5063POPC   C4A11550  20.651  22.146   7.650
 5063POPC   C1B11551  20.799  21.962   8.550
 5063POPC   C2B11552  20.779  21.970   8.250
 5063POPC   C3B11553  20.837  22.021   7.950
 5063POPC   C4B11554  20.844  22.039   7.650
 5064POPC   NC311555  25.297  39.245   9.450
 5064POPC   PO411556  25.225  39.193   9.150
 5064POPC   GL111557  25.256  39.205   8.850
 5064POPC   GL211558  25.213  39.372   8.850
 5064POPC   C1A11559  25.299  39.186   8.550
 5064POPC   D2A11560  25.229  39.188   8.250
 5064POPC   C3A11561  25.288  39.201   7.950
 5064POPC   C4A11562  25.304  39.219   7.650
 5064POPC   C1B11563  25.185  39.503   8.550
 5064POPC   C2B11564  25.157  39.507   8.250
 5064POPC   C3B11565  25.159  39.507   7.950
 5064POPC   C4B11566  25.200  39.461   7.650
 5065POPC   NC311567  37.708   4.365   9.450
 5065POPC   PO411568  37.675   4.354   9.150
 5065POPC   GL111569  37.702   4.320   8.850
 5065POPC   GL211570  37.554   4.315   8.850
 5065POPC   C1A11571  37.708   4.354   8.550
 5065POPC   D2A11572  37.655   4.329   8.250
 5065POPC   C3A11573  37.653   4.357   7.950
 5065POPC   C4A11574  37.701   4.292   7.650
 5065POPC   C1B11575  37.466   4.258   8.550
 5065POPC   C2B11576  37.473   4.254   8.250
 5065POPC   C3B11577  37.437   4.254   7.950
 5065POPC   C4B11578  37.435   4.175   7.650
 5066POPC   NC311579   5.116  38.407   9.450
 5066POPC   PO411580   5.133  38.453   9.150
 5066POPC   GL111581   5.132  38.433   8.850
 5066POPC   GL211582   5.183  38.601   8.850
 5066POPC   C1A11583   5.075  38.483   8.550
 5066POPC   D2A11584   5.051  38.454   8.250
 5066POPC   C3A11585   5.055  38.504   7.950
 5066POPC   C4A11586   5.113  38.422   7.650
 5066POPC   C1B11587   5.271  38.680   8.550
 5066POPC   C2B11588   5.225  38.710   8.250
 5066POPC   C3B11589   5.178  38.658   7.950
 5066POPC   C4B11590   5.237  38.706   7.650
 5067POPC   NC311591   5.056  15.961   9.450
 5067POPC   PO411592   5.116  15.931   9.150
 5067POPC   GL111593   5.064  15.916   8.850
 5067POPC   GL211594   5.223  16.092   8.850
 5067POPC   C1A11595   5.103  16.004   8.550
 5067POPC   D2A11596   5.133  15.953   8.250
 5067POPC   C3A11597   5.142  15.919   7.950
 5067POPC   C4A11598   5.121  15.982   7.650
 5067POPC   C1B11599   5.260  16.153   8.550
 5067POPC   C2B11600   5.222  16.148   8.250
 5067POPC   C3B11601   5.218  16.110   7.950
 5067POPC   C4B11602   5.228  16.156   7.650
 5068POPC   NC311603   9.796  32.242   9.450
 5068POPC   PO411604   9.782  32.254   9.150
 5068POPC   GL111605   9.737  32.213   8.850
 5068POPC   GL211606   9.609  32.217   8.850
 5068POPC   C1A11607   9.706  32.265   8.550
 5068POPC   D2A11608   9.775  32.273   8.250
 5068POPC   C3A11609   9.728  32.227   7.950
 5068POPC   C4A11610   9.728  32.228   7.650
 5068POPC   C1B11611   9.514  32.115   8.550
 5068POPC   C2B11612   9.537  32.110   8.250
 5068POPC   C3B11613   9.555  32.110   7.950
 5068POPC   C4B11614   9.550  32.081   7.650
 5069POPC   NC311615  21.359  17.494   9.450
 5069POPC   PO411616  21.361  17.462   9.150
 5069POPC   GL111617  21.418  17.515   8.850
 5069POPC   GL211618  21.257  17.479   8.850
 5069POPC   C1A11619  21.407  17.492   8.550
 5069POPC   D2A11620  21.415  17.464   8.250
 5069POPC   C3A11621  21.354  17.543   7.950
 5069POPC   C4A11622  21.360  17.509   7.650
 5069POPC   C1B11623  21.133  17.546   8.550
 5069POPC   C2B11624  21.101  17.520   8.250
 5069POPC   C3B11625  21.146  17.492   7.950
 5069POPC   C4B11626  21.154  17.531   7.650
 5070POPC   NC311627  15.210  12.852   9.450
 5070POPC   PO411628  15.161  12.869   9.150
 5070POPC   GL111629  15.200  12.804   8.850
 5070POPC   GL211630  15.185  12.999   8.850
 5070POPC   C1A11631  15.189  12.811   8.550
 5070POPC   D2A11632  15.185  12.896   8.250
 5070POPC   C3A11633  15.200  12.805   7.950
 5070POPC   C4A11634  15.134  12.882   7.650
 5070POPC   C1B11635  15.098  13.049   8.550
 5070POPC   C2B11636  15.150  13.109   8.250
 5070POPC   C3B11637  15.082  13.067   7.950
 5070POPC   C4B11638  15.105  13.100   7.650
 5071POPC   NC311639   0.443   5.837   9.450
 5071POPC   PO411640   0.431   5.830   9.150
 5071POPC   GL111641   0.459   5.843   8.850
 5071POPC   GL211642   0.309   5.873   8.850
 5071POPC   C1A11643   0.471   5.820   8.550
 5071POPC   D2A11644   0.393   5.825   8.250
 5071POPC   C3A11645   0.399   5.915   7.950
 5071POPC   C4A11646   0.449   5.839   7.650
 5071POPC   C1B11647   0.199   5.936   8.550
 5071POPC   C2B11648   0.144   5.922   8.250
 5071POPC   C3B11649   0.164   5.891   7.950
 5071POPC   C4B11650   0.225   5.935   7.650
 5072POPC   NC311651  25.301  21.394   9.450
 5072POPC   PO411652  25.243  21.387   9.150
 5072POPC   GL111653  25.218  21.370   8.850
 5072POPC   GL211654  25.314  21.481   8.850
 5072POPC   C1A11655  25.285  21.422   8.550
 5072POPC   D2A11656  25.309  21.397   8.250
 5072POPC   C3A11657  25.243  21.410   7.950
 5072POPC   C4A11658  25.305  21.411   7.650
 5072POPC   C1B11659  25.400  21.607   8.550
 5072POPC   C2B11660  25.380  21.593   8.250
 5072POPC   C3B11661  25.433  21.632   7.950
 5072POPC   C4B11662  25.437  21.602   7.650
 5073POPC   NC311663  37.668  33.013   9.450
 5073POPC   PO411664  37.696  33.009   9.150
 5073POPC   GL111665  37.720  32.990   8.850
 5073POPC   GL211666  37.629  32.923   8.850
 5073POPC   C1A11667  37.708  32.998   8.550
 5073POPC   D2A11668  37.647  32.982   8.250
 5073POPC   C3A11669  37.672  33.039   7.950
 5073POPC   C4A11670  37.651  32.975   7.650
 5073POPC   C1B11671  37.467  32.821   8.550
 5073POPC   C2B11672  37.519  32.828   8.250
 5073POPC   C3B11673  37.505  32.854   7.950
 5073POPC   C4B11674  37.481  32.866   7.650
 5074POPC   NC311675  23.736  13.583   9.450
 5074POPC   PO411676  23.754  13.657   9.150
 5074POPC   GL111677  23.696  13.592   8.850
 5074POPC   GL211678  23.636  13.658   8.850
 5074POPC   C1A11679  23.672  13.613   8.550
 5074POPC   D2A11680  23.721  13.617   8.250
 5074POPC   C3A11681  23.738  13.673   7.950
 5074POPC   C4A11682  23.718  13.650   7.650
 5074POPC   C1B11683  23.473  13.624   8.550
 5074POPC   C2B11684  23.424  13.635   8.250
 5074POPC   C3B11685  23.434  13.600   7.950
 5074POPC   C4B11686  23.504  13.607   7.650
 5075POPC   NC311687  18.264   2.032   9.450
 5075POPC   PO411688  18.292   1.975   9.150
 5075POPC   GL111689  18.309   1.968   8.850
 5075POPC   GL211690  18.356   1.869   8.850
 5075POPC   C1A11691  18.261   2.012   8.550
 5075POPC   D2A11692  18.251   1.954   8.250
 5075POPC   C3A11693  18.291   1.968   7.950
 5075POPC   C4A11694  18.272   1.942   7.650
 5075POPC   C1B11695  18.469   1.822   8.550
 5075POPC   C2B11696  18.376   1.738   8.250
 5075POPC   C3B11697  18.461   1.824   7.950
 5075POPC   C4B11698  18.460   1.744   7.650
 5076POPC   NC311699  10.555  22.182   9.450
 5076POPC   PO411700  10.568  22.143   9.150
 5076POPC   GL111701  10.526  22.187   8.850
 5076POPC   GL211702  10.587  22.219   8.850
 5076POPC   C1A11703  10.530  22.135   8.550
 5076POPC   D2A11704  10.561  22.172   8.250
 5076POPC   C3A11705  10.514  22.127   7.950
 5076POPC   C4A11706  10.531  22.144   7.650
 5076POPC   C1B11707  10.746  22.290   8.550
 5076POPC   C2B11708  10.718  22.323   8.250
 5076POPC   C3B11709  10.731  22.343   7.950
 5076POPC   C4B11710  10.764  22.312   7.650
 5077POPC   NC311711  36.879  37.637   9.450
 5077POPC   PO411712  36.865  37.691   9.150
 5077POPC   GL111713  36.889  37.724   8.850
 5077POPC   GL211714  36.902  37.844   8.850
 5077POPC   C1A11715  36.881  37.636   8.550
 5077POPC   D2A11716  36.897  37.667   8.250
 5077POPC   C3A11717  36.910  37.639   7.950
 5077POPC   C4A11718  36.940  37.661   7.650
 5077POPC   C1B11719  36.939  37.930   8.550
 5077POPC   C2B11720  36.961  37.905   8.250
 5077POPC   C3B11721  36.897  37.956   7.950
 5077POPC   C4B11722  36.892  37.976   7.650
 5078POPC   NC311723   4.362  19.081   9.450
 5078POPC   PO411724   4.302  19.100   9.150
 5078POPC   GL111725   4.355  19.011   8.850
 5078POPC   GL211726   4.449  19.004   8.850
 5078POPC   C1A11727   4.324  19.042   8.550
 5078POPC   D2A11728   4.282  19.082   8.250
 5078POPC   C3A11729   4.345  19.053   7.950
 5078POPC   C4A11730   4.300  19.066   7.650
 5078POPC   C1B11731   4.554  19.020   8.550
 5078POPC   C2B11732   4.584  18.967   8.250
 5078POPC   C3B11733   4.552  19.001   7.950
 5078POPC   C4B11734   4.596  19.026   7.650
 5079POPC   NC311735  18.289  41.517   9.450
 5079POPC   PO411736  18.249  41.556   9.150
 5079POPC   GL111737  18.324  41.600   8.850
 5079POPC   GL211738  18.212  41.665   8.850
 5079POPC   C1A11739  18.310  41.520   8.550
 5079POPC   D2A11740  18.329  41.589   8.250
 5079POPC   C3A11741  18.297  41.524   7.950
 5079POPC   C4A11742  18.269  41.594   7.650
 5079POPC   C1B11743  18.239  41.838   8.550
 5079POPC   C2B11744  18.283  41.824   8.250
 5079POPC   C3B11745  18.266  41.821   7.950
 5079POPC   C4B11746  18.204  41.768   7.650
 5080POPC   NC311747  12.870  15.168   9.450
 5080POPC   PO411748  12.876  15.147   9.150
 5080POPC   GL111749  12.818  15.195   8.850
 5080POPC   GL211750  12.818  15.266   8.850
 5080POPC   C1A11751  12.898  15.194   8.550
 5080POPC   D2A11752  12.883  15.143   8.250
 5080POPC   C3A11753  12.812  15.131   7.950
 5080POPC   C4A11754  12.849  15.136   7.650
 5080POPC   C1B11755  12.709  15.370   8.550
 5080POPC   C2B11756  12.668  15.420   8.250
 5080POPC   C3B11757  12.678  15.405   7.950
 5080POPC   C4B11758  12.679  15.333   7.650
 5081POPC   NC311759  13.669  15.195   9.450
 5081POPC   PO411760  13.654  15.175   9.150
 5081POPC   GL111761  13.646  15.216   8.850
 5081POPC   GL211762  13.482  15.139   8.850
 5081POPC   C1A11763  13.642  15.222   8.550
 5081POPC   D2A11764  13.585  15.228   8.250
 5081POPC   C3A11765  13.657  15.145   7.950
 5081POPC   C4A11766  13.581  15.181   7.650
 5081POPC   C1B11767  13.338  15.095   8.550
 5081POPC   C2B11768  13.342  15.093   8.250
 5081POPC   C3B11769  13.376  15.079   7.950
 5081POPC   C4B11770  13.381  15.089   7.650
 5082POPC   NC311771  27.563  32.981   9.450
 5082POPC   PO411772  27.567  33.024   9.150
 5082POPC   GL111773  27.610  32.999   8.850
 5082POPC   GL211774  27.665  33.165   8.850
 5082POPC   C1A11775  27.578  33.032   8.550
 5082POPC   D2A11776  27.617  32.990   8.250
 5082POPC   C3A11777  27.571  33.034   7.950
 5082POPC   C4A11778  27.616  33.070   7.650
 5082POPC   C1B11779  27.702  33.250   8.550
 5082POPC   C2B11780  27.776  33.180   8.250
 5082POPC   C3B11781  27.775  33.252   7.950
 5082POPC   C4B11782  27.695  33.216   7.650
 5083POPC   NC311783  43.910   5.829   9.450
 5083POPC   PO411784  43.848   5.878   9.150
 5083POPC   GL111785  43.878   5.891   8.850
 5083POPC   GL211786  43.743   5.860   8.850
 5083POPC   C1A11787  43.844   5.849   8.550
 5083POPC   D2A11788  43.872   5.828   8.250
 5083POPC   C3A11789  43.877   5.864   7.950
 5083POPC   C4A11790  43.839   5.904   7.650
 5083POPC   C1B11791  43.674   5.850   8.550
 5083POPC   C2B11792  43.666   5.804   8.250
 5083POPC   C3B11793  43.681   5.862   7.950
 5083POPC   C4B11794  43.673   5.812   7.650
 5084POPC   NC311795  32.260   9.765   9.450
 5084POPC   PO411796  32.284   9.746   9.150
 5084POPC   GL111797  32.284   9.784   8.850
 5084POPC   GL211798  32.390   9.851   8.850
 5084POPC   C1A11799  32.210   9.780   8.550
 5084POPC   D2A11800  32.259   9.716   8.250
 5084POPC   C3A11801  32.278   9.713   7.950
 5084POPC   C4A11802  32.241   9.711   7.650
 5084POPC   C1B11803  32.410   9.911   8.550
 5084POPC   C2B11804  32.452   9.869   8.250
 5084POPC   C3B11805  32.472   9.940   7.950
 5084POPC   C4B11806  32.438   9.928   7.650
 5085POPC   NC311807  15.211   9.722   9.450
 5085POPC   PO411808  15.155   9.787   9.150
 5085POPC   GL111809  15.162   9.790   8.850
 5085POPC   GL211810  15.229   9.824   8.850
 5085POPC   C1A11811  15.157   9.783   8.550
 5085POPC   D2A11812  15.145   9.775   8.250
 5085POPC   C3A11813  15.153   9.749   7.950
 5085POPC   C4A11814  15.203   9.760   7.650
 5085POPC   C1B11815  15.223  10.020   8.550
 5085POPC   C2B11816  15.236   9.959   8.250
 5085POPC   C3B11817  15.216   9.987   7.950
 5085POPC   C4B11818  15.222  10.019   7.650
 5086POPC   NC311819  22.180   2.803   9.450
 5086POPC   PO411820  22.130   2.764   9.150
 5086POPC   GL111821  22.210   2.789   8.850
 5086POPC   GL211822  22.263   2.831   8.850
 5086POPC   C1A11823  22.174   2.719   8.550
 5086POPC   D2A11824  22.202   2.718   8.250
 5086POPC   C3A11825  22.208   2.786   7.950
 5086POPC   C4A11826  22.190   2.804   7.650
 5086POPC   C1B11827  22.300   2.977   8.550
 5086POPC   C2B11828  22.368   2.966   8.250
 5086POPC   C3B11829  22.355   2.949   7.950
 5086POPC   C4B11830  22.365   2.960   7.650
 5087POPC   NC311831  20.612  17.520   9.450
 5087POPC   PO411832  20.621  17.457   9.150
 5087POPC   GL111833  20.590  17.472   8.850
 5087POPC   GL211834  20.529  17.521   8.850
 5087POPC   C1A11835  20.635  17.489   8.550
 5087POPC   D2A11836  20.616  17.477   8.250
 5087POPC   C3A11837  20.586  17.460   7.950
 5087POPC   C4A11838  20.644  17.541   7.650
 5087POPC   C1B11839  20.333  17.437   8.550
 5087POPC   C2B11840  20.381  17.417   8.250
 5087POPC   C3B11841  20.383  17.479   7.950
 5087POPC   C4B11842  20.384  17.448   7.650
 5088POPC   NC311843  38.419  37.722   9.450
 5088POPC   PO411844  38.482  37.634   9.150
 5088POPC   GL111845  38.451  37.669   8.850
 5088POPC   GL211846  38.445  37.825   8.850
 5088POPC   C1A11847  38.422  37.692   8.550
 5088POPC   D2A11848  38.440  37.694   8.250
 5088POPC   C3A11849  38.505  37.681   7.950
 5088POPC   C4A11850  38.495  37.716   7.650
 5088POPC   C1B11851  38.410  37.969   8.550
 5088POPC   C2B11852  38.442  37.895   8.250
 5088POPC   C3B11853  38.473  37.924   7.950
 5088POPC   C4B11854  38.439  37.919   7.650
 5089POPC   NC311855  28.354  42.327   9.450
 5089POPC   PO411856  28.408  42.330   9.150
 5089POPC   GL111857  28.395  42.372   8.850
 5089POPC   GL211858  28.462  42.365   8.850
 5089POPC   C1A11859  28.359  42.371   8.550
 5089POPC   D2A11860  28.395  42.307   8.250
 5089POPC   C3A11861  28.328  42.311   7.950
 5089POPC   C4A11862  28.321  42.348   7.650
 5089POPC   C1B11863  28.640  42.329   8.550
 5089POPC   C2B11864  28.649  42.326   8.250
 5089POPC   C3B11865  28.598  42.361   7.950
 5089POPC   C4B11866  28.614  42.303   7.650
 5090POPC   NC311867  16.693   8.962   9.450
 5090POPC   PO411868  16.755   8.950   9.150
 5090POPC   GL111869  16.752   8.994   8.850
 5090POPC   GL211870  16.771   8.895   8.850
 5090POPC   C1A11871  16.737   8.996   8.550
 5090POPC   D2A11872  16.757   8.963   8.250
 5090POPC   C3A11873  16.731   8.996   7.950
 5090POPC   C4A11874  16.739   8.947   7.650
 5090POPC   C1B11875  16.745   8.684   8.550
 5090POPC   C2B11876  16.822   8.727   8.250
 5090POPC   C3B11877  16.843   8.720   7.950
 5090POPC   C4B11878  16.775   8.751   7.650
 5091POPC   NC311879   6.691  18.270   9.450
 5091POPC   PO411880   6.630  18.313   9.150
 5091POPC   GL111881   6.655  18.237   8.850
 5091POPC   GL211882   6.731  18.138   8.850
 5091POPC   C1A11883   6.606  18.297   8.550
 5091POPC   D2A11884   6.642  18.302   8.250
 5091POPC   C3A11885   6.658  18.306   7.950
 5091POPC   C4A11886   6.634  18.236   7.650
 5091POPC   C1B11887   6.795  18.116   8.550
 5091POPC   C2B11888   6.775  18.018   8.250
 5091POPC   C3B11889   6.759  18.102   7.950
 5091POPC   C4B11890   6.814  18.071   7.650
 5092POPC   NC311891   0.419  33.816   9.450
 5092POPC   PO411892   0.412  33.845   9.150
 5092POPC   GL111893   0.430  33.833   8.850
 5092POPC   GL211894   0.491  33.889   8.850
 5092POPC   C1A11895   0.409  33.777   8.550
 5092POPC   D2A11896   0.467  33.829   8.250
 5092POPC   C3A11897   0.461  33.789   7.950
 5092POPC   C4A11898   0.407  33.775   7.650
 5092POPC   C1B11899   0.421  34.010   8.550
 5092POPC   C2B11900   0.474  34.052   8.250
 5092POPC   C3B11901   0.462  34.074   7.950
 5092POPC   C4B11902   0.453  34.034   7.650
 5093POPC   NC311903   0.436  20.612   9.450
 5093POPC   PO411904   0.406  20.585   9.150
 5093POPC   GL111905   0.479  20.654   8.850
 5093POPC   GL211906   0.564  20.650   8.850
 5093POPC   C1A11907   0.441  20.653   8.550
 5093POPC   D2A11908   0.479  20.627   8.250
 5093POPC   C3A11909   0.464  20.588   7.950
 5093POPC   C4A11910   0.410  20.658   7.650
 5093POPC   C1B11911   0.677  20.742   8.550
 5093POPC   C2B11912   0.677  20.783   8.250
 5093POPC   C3B11913   0.627  20.766   7.950
 5093POPC   C4B11914   0.637  20.735   7.650
 5094POPC   NC311915  34.596   2.813   9.450
 5094POPC   PO411916  34.541   2.752   9.150
 5094POPC   GL111917  34.552   2.735   8.850
 5094POPC   GL211918  34.496   2.868   8.850
 5094POPC   C1A11919  34.575   2.794   8.550
 5094POPC   D2A11920  34.579   2.752   8.250
 5094POPC   C3A11921  34.570   2.769   7.950
 5094POPC   C4A11922  34.599   2.785   7.650
 5094POPC   C1B11923  34.390   2.954   8.550
 5094POPC   C2B11924  34.463   2.945   8.250
 5094POPC   C3B11925  34.473   2.969   7.950
 5094POPC   C4B11926  34.470   2.928   7.650
 5095POPC   NC311927  12.852  32.281   9.450
 5095POPC   PO411928  12.809  32.224   9.150
 5095POPC   GL111929  12.861  32.263   8.850
 5095POPC   GL211930  12.831  32.175   8.850
 5095POPC   C1A11931  12.813  32.262   8.550
 5095POPC   D2A11932  12.847  32.199   8.250
 5095POPC   C3A11933  12.899  32.263   7.950
 5095POPC   C4A11934  12.886  32.289   7.650
 5095POPC   C1B11935  12.852  32.036   8.550
 5095POPC   C2B11936  12.822  32.040   8.250
 5095POPC   C3B11937  12.837  32.015   7.950
 5095POPC   C4B11938  12.820  31.995   7.650
 5096POPC   NC311939  43.085  42.323   9.450
 5096POPC   PO411940  43.160  42.373   9.150
 5096POPC   GL111941  43.148  42.325   8.850
 5096POPC   GL211942  43.049  42.440   8.850
 5096POPC   C1A11943  43.110  42.368   8.550
 5096POPC   D2A11944  43.099  42.355   8.250
 5096POPC   C3A11945  43.160  42.349   7.950
 5096POPC   C4A11946  43.143  42.292   7.650
 5096POPC   C1B11947  43.016  42.549   8.550
 5096POPC   C2B11948  43.035  42.612   8.250
 5096POPC   C3B11949  43.058  42.610   7.950
 5096POPC   C4B11950  43.042  42.621   7.650
 5097POPC   NC311951   4.285  43.076   9.450
 5097POPC   PO411952   4.291  43.138   9.150
 5097POPC   GL111953   4.291  43.070   8.850
 5097POPC   GL211954   4.341  43.217   8.850
 5097POPC   C1A11955   4.275  43.112   8.550
 5097POPC   D2A11956   4.312  43.067   8.250
 5097POPC   C3A11957   4.312  43.121   7.950
 5097POPC   C4A11958   4.322  43.154   7.650
 5097POPC   C1B11959   4.431  43.294   8.550
 5097POPC   C2B11960   4.375  43.394   8.250
 5097POPC   C3B11961   4.453  43.389   7.950
 5097POPC   C4B11962   4.427  43.372   7.650
 5098POPC   NC311963  22.948   5.914   9.450
 5098POPC   PO411964  22.935   5.820   9.150
 5098POPC   GL111965  22.957   5.831   8.850
 5098POPC   GL211966  22.881   5.768   8.850
 5098POPC   C1A11967  22.901   5.847   8.550
 5098POPC   D2A11968  22.902   5.834   8.250
 5098POPC   C3A11969  22.914   5.876   7.950
 5098POPC   C4A11970  22.968   5.828   7.650
 5098POPC   C1B11971  22.740   5.755   8.550
 5098POPC   C2B11972  22.770   5.735   8.250
 5098POPC   C3B11973  22.733   5.781   7.950
 5098POPC   C4B11974  22.678   5.727   7.650
 5099POPC   NC311975  27.574  26.823   9.450
 5099POPC   PO411976  27.616  26.808   9.150
 5099POPC   GL111977  27.618  26.796   8.850
 5099POPC   GL211978  27.529  26.708   8.850
 5099POPC   C1A11979  27.613  26.847   8.550
 5099POPC   D2A11980  27.562  26.838   8.250
 5099POPC   C3A11981  27.551  26.778   7.950
 5099POPC   C4A11982  27.642  26.844   7.650
 5099POPC   C1B11983  27.494  26.564   8.550
 5099POPC   C2B11984  27.590  26.560   8.250
 5099POPC   C3B11985  27.534  26.546   7.950
 5099POPC   C4B11986  27.563  26.611   7.650
 5100POPC   NC311987  12.840  14.423   9.450
 5100POPC   PO411988  12.832  14.429   9.150
 5100POPC   GL111989  12.814  14.413   8.850
 5100POPC   GL211990  12.826  14.343   8.850
 5100POPC   C1A11991  12.848  14.415   8.550
 5100POPC   D2A11992  12.843  14.440   8.250
 5100POPC   C3A11993  12.808  14.425   7.950
 5100POPC   C4A11994  12.806  14.436   7.650
 5100POPC   C1B11995  12.690  14.144   8.550
 5100POPC   C2B11996  12.719  14.225   8.250
 5100POPC   C3B11997  12.687  14.199   7.950
 5100POPC   C4B11998  12.772  14.192   7.650
 5101POPC   NC311999  44.662  44.691   9.450
 5101POPC   PO412000  44.687  44.693   9.150
 5101POPC   GL112001  44.665  44.627   8.850
 5101POPC   GL212002  44.704  44.496   8.850
 5101POPC   C1A12003  44.646  44.649   8.550
 5101POPC   D2A12004  44.620  44.681   8.250
 5101POPC   C3A12005  44.652  44.651   7.950
 5101POPC   C4A12006  44.671  44.663   7.650
 5101POPC   C1B12007  44.679  44.370   8.550
 5101POPC   C2B12008  44.686  44.415   8.250
 5101POPC   C3B12009  44.751  44.387   7.950
 5101POPC   C4B12010  44.752  44.407   7.650
 5102POPC   NC312011  20.610  26.783   9.450
 5102POPC   PO412012  20.619  26.864   9.150
 5102POPC   GL112013  20.581  26.772   8.850
 5102POPC   GL212014  20.451  26.859   8.850
 5102POPC   C1A12015  20.650  26.813   8.550
 5102POPC   D2A12016  20.566  26.802   8.250
 5102POPC   C3A12017  20.630  26.850   7.950
 5102POPC   C4A12018  20.580  26.816   7.650
 5102POPC   C1B12019  20.311  26.846   8.550
 5102POPC   C2B12020  20.367  26.771   8.250
 5102POPC   C3B12021  20.376  26.790   7.950
 5102POPC   C4B12022  20.358  26.800   7.650
 5103POPC   NC312023  41.544  32.217   9.450
 5103POPC   PO412024  41.530  32.234   9.150
 5103POPC   GL112025  41.600  32.274   8.850
 5103POPC   GL212026  41.501  32.114   8.850
 5103POPC   C1A12027  41.568  32.240   8.550
 5103POPC   D2A12028  41.584  32.294   8.250
 5103POPC   C3A12029  41.564  32.216   7.950
 5103POPC   C4A12030  41.549  32.275   7.650
 5103POPC   C1B12031  41.438  31.987   8.550
 5103POPC   C2B12032  41.481  32.030   8.250
 5103POPC   C3B12033  41.412  32.068   7.950
 5103POPC   C4B12034  41.444  32.026   7.650
 5104POPC   NC312035  25.301  34.608   9.450
 5104POPC   PO412036  25.228  34.532   9.150
 5104POPC   GL112037  25.299  34.601   8.850
 5104POPC   GL212038  25.349  34.559   8.850
 5104POPC   C1A12039  25.315  34.530   8.550
 5104POPC   D2A12040  25.279  34.591   8.250
 5104POPC   C3A12041  25.284  34.579   7.950
 5104POPC   C4A12042  25.292  34.557   7.650
 5104POPC   C1B12043  25.481  34.638   8.550
 5104POPC   C2B12044  25.476  34.565   8.250
 5104POPC   C3B12045  25.556  34.576   7.950
 5104POPC   C4B12046  25.490  34.626   7.650
 5105POPC   NC312047   2.732  43.889   9.450
 5105POPC   PO412048   2.748  43.897   9.150
 5105POPC   GL112049   2.720  43.838   8.850
 5105POPC   GL212050   2.686  43.963   8.850
 5105POPC   C1A12051   2.766  43.921   8.550
 5105POPC   D2A12052   2.758  43.852   8.250
 5105POPC   C3A12053   2.730  43.839   7.950
 5105POPC   C4A12054   2.776  43.839   7.650
 5105POPC   C1B12055   2.549  44.069   8.550
 5105POPC   C2B12056   2.556  44.079   8.250
 5105POPC   C3B12057   2.524  44.063   7.950
 5105POPC   C4B12058   2.554  44.051   7.650
 5106POPC   NC312059  27.613  35.400   9.450
 5106POPC   PO412060  27.613  35.390   9.150
 5106POPC   GL112061  27.634  35.399   8.850
 5106POPC   GL212062  27.577  35.252   8.850
 5106POPC   C1A12063  27.609  35.355   8.550
 5106POPC   D2A12064  27.563  35.384   8.250
 5106POPC   C3A12065  27.564  35.326   7.950
 5106POPC   C4A12066  27.576  35.382   7.650
 5106POPC   C1B12067  27.518  35.158   8.550
 5106POPC   C2B12068  27.564  35.094   8.250
 5106POPC   C3B12069  27.472  35.130   7.950
 5106POPC   C4B12070  27.480  35.119   7.650
 5107POPC   NC312071  29.900  16.685   9.450
 5107POPC   PO412072  29.921  16.747   9.150
 5107POPC   GL112073  29.938  16.779   8.850
 5107POPC   GL212074  30.012  16.765   8.850
 5107POPC   C1A12075  29.873  16.681   8.550
 5107POPC   D2A12076  29.955  16.779   8.250
 5107POPC   C3A12077  29.954  16.731   7.950
 5107POPC   C4A12078  29.912  16.725   7.650
 5107POPC   C1B12079  30.182  16.735   8.550
 5107POPC   C2B12080  30.148  16.747   8.250
 5107POPC   C3B12081  30.206  16.712   7.950
 5107POPC   C4B12082  30.219  16.751   7.650
 5108POPC   NC312083  43.088   1.223   9.450
 5108POPC   PO412084  43.138   1.239   9.150
 5108POPC   GL112085  43.084   1.251   8.850
 5108POPC   GL212086  43.207   1.201   8.850
 5108POPC   C1A12087  43.137   1.238   8.550
 5108POPC   D2A12088  43.139   1.236   8.250
 5108POPC   C3A12089  43.157   1.237   7.950
 5108POPC   C4A12090  43.159   1.196   7.650
 5108POPC   C1B12091  43.362   1.312   8.550
 5108POPC   C2B12092  43.308   1.283   8.250
 5108POPC   C3B12093  43.318   1.280   7.950
 5108POPC   C4B12094  43.343   1.289   7.650
 5109POPC   NC312095  11.333  36.113   9.450
 5109POPC   PO412096  11.287  36.131   9.150
 5109POPC   GL112097  11.343  36.132   8.850
 5109POPC   GL212098  11.231  36.077   8.850
 5109POPC   C1A12099  11.315  36.136   8.550
 5109POPC   D2A12100  11.322  36.100   8.250
 5109POPC   C3A12101  11.327  36.152   7.950
 5109POPC   C4A12102  11.272  36.137   7.650
 5109POPC   C1B12103  11.046  35.968   8.550
 5109POPC   C2B12104  11.086  36.006   8.250
 5109POPC   C3B12105  11.073  35.951   7.950
 5109POPC   C4B12106  11.117  36.030   7.650
 5110POPC   NC312107  42.315   9.773   9.450
 5110POPC   PO412108  42.329   9.763   9.150
 5110POPC   GL112109  42.363   9.793   8.850
 5110POPC   GL212110  42.183   9.705   8.850
 5110POPC   C1A12111  42.304   9.794   8.550
 5110POPC   D2A12112  42.384   9.760   8.250
 5110POPC   C3A12113  42.383   9.785   7.950
 5110POPC   C4A12114  42.355   9.736   7.650
 5110POPC   C1B12115  42.119   9.625   8.550
 5110POPC   C2B12116  42.063   9.625   8.250
 5110POPC   C3B12117  42.115   9.644   7.950
 5110POPC   C4B12118  42.101   9.704   7.650
 5111POPC   NC312119  27.628  27.621   9.450
 5111POPC   PO412120  27.558  27.585   9.150
 5111POPC   GL112121  27.597  27.614   8.850
 5111POPC   GL212122  27.571  27.486   8.850
 5111POPC   C1A12123  27.589  27.559   8.550
 5111POPC   D2A12124  27.617  27.572   8.250
 5111POPC   C3A12125  27.548  27.634   7.950
 5111POPC   C4A12126  27.551  27.604   7.650
 5111POPC   C1B12127  27.600  27.393   8.550
 5111POPC   C2B12128  27.557  27.296   8.250
 5111POPC   C3B12129  27.620  27.319   7.950
 5111POPC   C4B12130  27.567  27.362   7.650
 5112POPC   NC312131  36.125   2.797   9.450
 5112POPC   PO412132  36.133   2.780   9.150
 5112POPC   GL112133  36.108   2.770   8.850
 5112POPC   GL212134  36.187   2.646   8.850
 5112POPC   C1A12135  36.126   2.738   8.550
 5112POPC   D2A12136  36.129   2.746   8.250
 5112POPC   C3A12137  36.089   2.775   7.950
 5112POPC   C4A12138  36.105   2.815   7.650
 5112POPC   C1B12139  36.220   2.519   8.550
 5112POPC   C2B12140  36.164   2.534   8.250
 5112POPC   C3B12141  36.148   2.491   7.950
 5112POPC   C4B12142  36.186   2.499   7.650
 5113POPC   NC312143   9.722  33.838   9.450
 5113POPC   PO412144   9.725  33.780   9.150
 5113POPC   GL112145   9.728  33.822   8.850
 5113POPC   GL212146   9.757  33.926   8.850
 5113POPC   C1A12147   9.786  33.822   8.550
 5113POPC   D2A12148   9.737  33.814   8.250
 5113POPC   C3A12149   9.769  33.778   7.950
 5113POPC   C4A12150   9.750  33.830   7.650
 5113POPC   C1B12151   9.761  34.083   8.550
 5113POPC   C2B12152   9.805  34.068   8.250
 5113POPC   C3B12153   9.833  34.054   7.950
 5113POPC   C4B12154   9.822  34.088   7.650
 5114POPC   NC312155  16.781   8.207   9.450
 5114POPC   PO412156  16.759   8.235   9.150
 5114POPC   GL112157  16.690   8.229   8.850
 5114POPC   GL212158  16.572   8.182   8.850
 5114POPC   C1A12159  16.704   8.213   8.550
 5114POPC   D2A12160  16.749   8.163   8.250
 5114POPC   C3A12161  16.692   8.232   7.950
 5114POPC   C4A12162  16.694   8.154   7.650
 5114POPC   C1B12163  16.515   8.267   8.550
 5114POPC   C2B12164  16.466   8.235   8.250
 5114POPC   C3B12165  16.519   8.270   7.950
 5114POPC   C4B12166  16.446   8.277   7.650
 5115POPC   NC312167   9.700  40.017   9.450
 5115POPC   PO412168   9.772  40.007   9.150
 5115POPC   GL112169   9.703  39.988   8.850
 5115POPC   GL212170   9.639  40.078   8.850
 5115POPC   C1A12171   9.703  39.989   8.550
 5115POPC   D2A12172   9.793  40.044   8.250
 5115POPC   C3A12173   9.773  39.985   7.950
 5115POPC   C4A12174   9.785  40.023   7.650
 5115POPC   C1B12175   9.497  40.051   8.550
 5115POPC   C2B12176   9.492  40.038   8.250
 5115POPC   C3B12177   9.498  40.050   7.950
 5115POPC   C4B12178   9.546  40.013   7.650
 5116POPC   NC312179  18.274  10.565   9.450
 5116POPC   PO412180  18.238  10.488   9.150
 5116POPC   GL112181  18.262  10.570   8.850
 5116POPC   GL212182  18.342  10.597   8.850
 5116POPC   C1A12183  18.248  10.478   8.550
 5116POPC   D2A12184  18.296  10.514   8.250
 5116POPC   C3A12185  18.261  10.493   7.950
 5116POPC   C4A12186  18.300  10.490   7.650
 5116POPC   C1B12187  18.480  10.641   8.550
 5116POPC   C2B12188  18.458  10.644   8.250
 5116POPC   C3B12189  18.529  10.684   7.950
 5116POPC   C4B12190  18.521  10.622   7.650
 5117POPC   NC312191   4.321  40.826   9.450
 5117POPC   PO412192   4.286  40.750   9.150
 5117POPC   GL112193   4.329  40.787   8.850
 5117POPC   GL212194   4.413  40.684   8.850
 5117POPC   C1A12195   4.308  40.735   8.550
 5117POPC   D2A12196   4.357  40.761   8.250
 5117POPC   C3A12197   4.284  40.763   7.950
 5117POPC   C4A12198   4.343  40.736   7.650
 5117POPC   C1B12199   4.567  40.667   8.550
 5117POPC   C2B12200   4.543  40.606   8.250
 5117POPC   C3B12201   4.568  40.657   7.950
 5117POPC   C4B12202   4.499  40.662   7.650
 5118POPC   NC312203   5.110   9.010   9.450
 5118POPC   PO412204   5.128   8.995   9.150
 5118POPC   GL112205   5.115   8.975   8.850
 5118POPC   GL212206   5.211   8.919   8.850
 5118POPC   C1A12207   5.090   8.952   8.550
 5118POPC   D2A12208   5.095   8.979   8.250
 5118POPC   C3A12209   5.080   8.933   7.950
 5118POPC   C4A12210   5.048   8.930   7.650
 5118POPC   C1B12211   5.271   8.873   8.550
 5118POPC   C2B12212   5.341   8.876   8.250
 5118POPC   C3B12213   5.301   8.811   7.950
 5118POPC   C4B12214   5.356   8.858   7.650
 5119POPC   NC312215  27.612  42.329   9.450
 5119POPC   PO412216  27.579  42.295   9.150
 5119POPC   GL112217  27.638  42.366   8.850
 5119POPC   GL212218  27.703  42.335   8.850
 5119POPC   C1A12219  27.577  42.296   8.550
 5119POPC   D2A12220  27.593  42.342   8.250
 5119POPC   C3A12221  27.603  42.297   7.950
 5119POPC   C4A12222  27.597  42.294   7.650
 5119POPC   C1B12223  27.835  42.421   8.550
 5119POPC   C2B12224  27.823  42.389   8.250
 5119POPC   C3B12225  27.852  42.396   7.950
 5119POPC   C4B12226  27.834  42.421   7.650
 5120POPC   NC312227   1.180  19.084   9.450
 5120POPC   PO412228   1.236  19.069   9.150
 5120POPC   GL112229   1.258  19.068   8.850
 5120POPC   GL212230   1.360  19.035   8.850
 5120POPC   C1A12231   1.243  19.068   8.550
 5120POPC   D2A12232   1.222  19.011   8.250
 5120POPC   C3A12233   1.254  19.022   7.950
 5120POPC   C4A12234   1.213  19.077   7.650
 5120POPC   C1B12235   1.482  18.964   8.550
 5120POPC   C2B12236   1.472  19.000   8.250
 5120POPC   C3B12237   1.458  19.023   7.950
 5120POPC   C4B12238   1.430  18.982   7.650
 5121POPC   NC312239   3.591  19.878   9.450
 5121POPC   PO412240   3.586  19.786   9.150
 5121POPC   GL112241   3.586  19.786   8.850
 5121POPC   GL212242   3.522  19.728   8.850
 5121POPC   C1A12243   3.556  19.795   8.550
 5121POPC   D2A12244   3.519  19.871   8.250
 5121POPC   C3A12245   3.499  19.816   7.950
 5121POPC   C4A12246   3.558  19.832   7.650
 5121POPC   C1B12247   3.493  19.597   8.550
 5121POPC   C2B12248   3.480  19.631   8.250
 5121POPC   C3B12249   3.537  19.557   7.950
 5121POPC   C4B12250   3.516  19.540   7.650
 5122POPC   NC312251  12.087  19.822   9.450
 5122POPC   PO412252  12.061  19.881   9.150
 5122POPC   GL112253  12.075  19.835   8.850
 5122POPC   GL212254  12.152  19.870   8.850
 5122POPC   C1A12255  12.110  19.817   8.550
 5122POPC   D2A12256  12.121  19.802   8.250
 5122POPC   C3A12257  12.049  19.840   7.950
 5122POPC   C4A12258  12.060  19.809   7.650
 5122POPC   C1B12259  12.360  19.873   8.550
 5122POPC   C2B12260  12.327  19.908   8.250
 5122POPC   C3B12261  12.276  19.918   7.950
 5122POPC   C4B12262  12.332  19.914   7.650
 5123POPC   NC312263   5.075  35.379   9.450
 5123POPC   PO412264   5.061  35.332   9.150
 5123POPC   GL112265   5.109  35.363   8.850
 5123POPC   GL212266   5.105  35.242   8.850
 5123POPC   C1A12267   5.136  35.339   8.550
 5123POPC   D2A12268   5.123  35.358   8.250
 5123POPC   C3A12269   5.130  35.366   7.950
 5123POPC   C4A12270   5.049  35.348   7.650
 5123POPC   C1B12271   5.067  35.094   8.550
 5123POPC   C2B12272   4.995  35.147   8.250
 5123POPC   C3B12273   4.984  35.109   7.950
 5123POPC   C4B12274   4.977  35.148   7.650
 5124POPC   NC312275  36.130  33.787   9.450
 5124POPC   PO412276  36.131  33.835   9.150
 5124POPC   GL112277  36.115  33.788   8.850
 5124POPC   GL212278  36.220  33.861   8.850
 5124POPC   C1A12279  36.113  33.803   8.550
 5124POPC   D2A12280  36.097  33.820   8.250
 5124POPC   C3A12281  36.082  33.758   7.950
 5124POPC   C4A12282  36.103  33.787   7.650
 5124POPC   C1B12283  36.269  33.987   8.550
 5124POPC   C2B12284  36.307  33.935   8.250
 5124POPC   C3B12285  36.316  33.952   7.950
 5124POPC   C4B12286  36.322  33.931   7.650
 5125POPC   NC312287   8.175  18.254   9.450
 5125POPC   PO412288   8.184  18.254   9.150
 5125POPC   GL112289   8.204  18.298   8.850
 5125POPC   GL212290   8.304  18.165   8.850
 5125POPC   C1A12291   8.240  18.298   8.550
 5125POPC   D2A12292   8.182  18.295   8.250
 5125POPC   C3A12293   8.152  18.234   7.950
 5125POPC   C4A12294   8.228  18.252   7.650
 5125POPC   C1B12295   8.340  18.086   8.550
 5125POPC   C2B12296   8.392  18.142   8.250
 5125POPC   C3B12297   8.409  18.058   7.950
 5125POPC   C4B12298   8.361  18.052   7.650
 5126POPC   NC312299  44.707  18.292   9.450
 5126POPC   PO412300  44.648  18.235   9.150
 5126POPC   GL112301  44.712  18.301   8.850
 5126POPC   GL212302  44.521  18.296   8.850
 5126POPC   C1A12303  44.668  18.328   8.550
 5126POPC   D2A12304  44.637  18.299   8.250
 5126POPC   C3A12305  44.672  18.242   7.950
 5126POPC   C4A12306  44.696  18.274   7.650
 5126POPC   C1B12307  44.409  18.356   8.550
 5126POPC   C2B12308  44.390  18.315   8.250
 5126POPC   C3B12309  44.390  18.360   7.950
 5126POPC   C4B12310  44.463  18.387   7.650
 5127POPC   NC312311  18.245   5.901   9.450
 5127POPC   PO412312  18.290   5.869   9.150
 5127POPC   GL112313  18.289   5.819   8.850
 5127POPC   GL212314  18.377   5.855   8.850
 5127POPC   C1A12315  18.307   5.869   8.550
 5127POPC   D2A12316  18.270   5.891   8.250
 5127POPC   C3A12317  18.234   5.840   7.950
 5127POPC   C4A12318  18.299   5.860   7.650
 5127POPC   C1B12319  18.535   5.933   8.550
 5127POPC   C2B12320  18.529   5.968   8.250
 5127POPC   C3B12321  18.535   5.901   7.950
 5127POPC   C4B12322  18.502   5.969   7.650
 5128POPC   NC312323  34.547  36.153   9.450
 5128POPC   PO412324  34.537  36.174   9.150
 5128POPC   GL112325  34.602  36.121   8.850
 5128POPC   GL212326  34.690  36.148   8.850
 5128POPC   C1A12327  34.533  36.110   8.550
 5128POPC   D2A12328  34.609  36.107   8.250
 5128POPC   C3A12329  34.567  36.082   7.950
 5128POPC   C4A12330  34.615  36.151   7.650
 5128POPC   C1B12331  34.758  36.275   8.550
 5128POPC   C2B12332  34.799  36.288   8.250
 5128POPC   C3B12333  34.786  36.277   7.950
 5128POPC   C4B12334  34.835  36.281   7.650
 5129POPC   NC312335  33.063  33.073   9.450
 5129POPC   PO412336  32.982  32.983   9.150
 5129POPC   GL112337  32.985  32.974   8.850
 5129POPC   GL212338  32.880  33.053   8.850
 5129POPC   C1A12339  32.993  33.044   8.550
 5129POPC   D2A12340  33.010  33.055   8.250
 5129POPC   C3A12341  33.030  33.014   7.950
 5129POPC   C4A12342  32.977  33.011   7.650
 5129POPC   C1B12343  32.801  33.091   8.550
 5129POPC   C2B12344  32.808  33.066   8.250
 5129POPC   C3B12345  32.752  33.083   7.950
 5129POPC   C4B12346  32.749  33.102   7.650
 5130POPC   NC312347  23.692  30.666   9.450
 5130POPC   PO412348  23.678  30.703   9.150
 5130POPC   GL112349  23.705  30.742   8.850
 5130POPC   GL212350  23.574  30.734   8.850
 5130POPC   C1A12351  23.748  30.705   8.550
 5130POPC   D2A12352  23.670  30.705   8.250
 5130POPC   C3A12353  23.685  30.680   7.950
 5130POPC   C4A12354  23.723  30.674   7.650
 5130POPC   C1B12355  23.512  30.827   8.550
 5130POPC   C2B12356  23.468  30.848   8.250
 5130POPC   C3B12357  23.532  30.777   7.950
 5130POPC   C4B12358  23.515  30.770   7.650
 5131POPC   NC312359  39.999  28.403   9.450
 5131POPC   PO412360  39.989  28.361   9.150
 5131POPC   GL112361  40.038  28.402   8.850
 5131POPC   GL212362  39.888  28.284   8.850
 5131POPC   C1A12363  39.976  28.378   8.550
 5131POPC   D2A12364  39.965  28.401   8.250
 5131POPC   C3A12365  40.035  28.416   7.950
 5131POPC   C4A12366  40.009  28.320   7.650
 5131POPC   C1B12367  39.756  28.261   8.550
 5131POPC   C2B12368  39.831  28.274   8.250
 5131POPC   C3B12369  39.770  28.182   7.950
 5131POPC   C4B12370  39.805  28.249   7.650
 5132POPC   NC312371   9.778  15.922   9.450
 5132POPC   PO412372   9.722  15.957   9.150
 5132POPC   GL112373   9.714  15.982   8.850
 5132POPC   GL212374   9.740  16.031   8.850
 5132POPC   C1A12375   9.700  15.978   8.550
 5132POPC   D2A12376   9.788  15.985   8.250
 5132POPC   C3A12377   9.720  15.914   7.950
 5132POPC   C4A12378   9.742  15.912   7.650
 5132POPC   C1B12379   9.678  16.215   8.550
 5132POPC   C2B12380   9.642  16.146   8.250
 5132POPC   C3B12381   9.604  16.167   7.950
 5132POPC   C4B12382   9.670  16.193   7.650
 5133POPC   NC312383  32.261  33.029   9.450
 5133POPC   PO412384  32.223  33.028   9.150
 5133POPC   GL112385  32.200  33.018   8.850
 5133POPC   GL212386  32.183  32.897   8.850
 5133POPC   C1A12387  32.237  33.036   8.550
 5133POPC   D2A12388  32.247  33.013   8.250
 5133POPC   C3A12389  32.288  33.044   7.950
 5133POPC   C4A12390  32.278  33.010   7.650
 5133POPC   C1B12391  32.176  32.815   8.550
 5133POPC   C2B12392  32.149  32.760   8.250
 5133POPC   C3B12393  32.108  32.774   7.950
 5133POPC   C4B12394  32.104  32.776   7.650
 5134POPC   NC312395   3.520   9.765   9.450
 5134POPC   PO412396   3.560   9.703   9.150
 5134POPC   GL112397   3.501   9.790   8.850
 5134POPC   GL212398   3.423   9.679   8.850
 5134POPC   C1A12399   3.577   9.735   8.550
 5134POPC   D2A12400   3.498   9.730   8.250
 5134POPC   C3A12401   3.563   9.745   7.950
 5134POPC   C4A12402   3.573   9.758   7.650
 5134POPC   C1B12403   3.348   9.593   8.550
 5134POPC   C2B12404   3.323   9.668   8.250
 5134POPC   C3B12405   3.308   9.602   7.950
 5134POPC   C4B12406   3.338   9.636   7.650
 5135POPC   NC312407   8.940  25.308   9.450
 5135POPC   PO412408   8.981  25.260   9.150
 5135POPC   GL112409   8.999  25.256   8.850
 5135POPC   GL212410   8.828  25.283   8.850
 5135POPC   C1A12411   8.953  25.283   8.550
 5135POPC   D2A12412   8.999  25.275   8.250
 5135POPC   C3A12413   8.926  25.218   7.950
 5135POPC   C4A12414   8.981  25.225   7.650
 5135POPC   C1B12415   8.770  25.372   8.550
 5135POPC   C2B12416   8.754  25.363   8.250
 5135POPC   C3B12417   8.767  25.325   7.950
 5135POPC   C4B12418   8.741  25.344   7.650
 5136POPC   NC312419   5.142   0.449   9.450
 5136POPC   PO412420   5.115   0.468   9.150
 5136POPC   GL112421   5.118   0.451   8.850
 5136POPC   GL212422   5.165   0.584   8.850
 5136POPC   C1A12423   5.143   0.457   8.550
 5136POPC   D2A12424   5.095   0.449   8.250
 5136POPC   C3A12425   5.084   0.410   7.950
 5136POPC   C4A12426   5.070   0.437   7.650
 5136POPC   C1B12427   5.189   0.732   8.550
 5136POPC   C2B12428   5.112   0.656   8.250
 5136POPC   C3B12429   5.146   0.698   7.950
 5136POPC   C4B12430   5.142   0.726   7.650
 5137POPC   NC312431  29.949  35.322   9.450
 5137POPC   PO412432  29.887  35.397   9.150
 5137POPC   GL112433  29.944  35.394   8.850
 5137POPC   GL212434  30.012  35.215   8.850
 5137POPC   C1A12435  29.940  35.317   8.550
 5137POPC   D2A12436  29.929  35.364   8.250
 5137POPC   C3A12437  29.886  35.313   7.950
 5137POPC   C4A12438  29.956  35.325   7.650
 5137POPC   C1B12439  30.060  35.119   8.550
 5137POPC   C2B12440  30.062  35.115   8.250
 5137POPC   C3B12441  30.070  35.113   7.950
 5137POPC   C4B12442  30.073  35.126   7.650
 5138POPC   NC312443  26.003   5.116   9.450
 5138POPC   PO412444  26.077   5.111   9.150
 5138POPC   GL112445  26.074   5.080   8.850
 5138POPC   GL212446  26.188   5.150   8.850
 5138POPC   C1A12447  26.082   5.097   8.550
 5138POPC   D2A12448  26.006   5.096   8.250
 5138POPC   C3A12449  26.042   5.108   7.950
 5138POPC   C4A12450  26.015   5.130   7.650
 5138POPC   C1B12451  26.304   5.180   8.550
 5138POPC   C2B12452  26.280   5.139   8.250
 5138POPC   C3B12453  26.270   5.123   7.950
 5138POPC   C4B12454  26.301   5.124   7.650
 5139POPC   NC312455  38.472  29.898   9.450
 5139POPC   PO412456  38.477  29.963   9.150
 5139POPC   GL112457  38.458  29.926   8.850
 5139POPC   GL212458  38.312  29.839   8.850
 5139POPC   C1A12459  38.436  29.887   8.550
 5139POPC   D2A12460  38.476  29.896   8.250
 5139POPC   C3A12461  38.482  29.875   7.950
 5139POPC   C4A12462  38.446  29.951   7.650
 5139POPC   C1B12463  38.290  29.787   8.550
 5139POPC   C2B12464  38.277  29.755   8.250
 5139POPC   C3B12465  38.201  29.785   7.950
 5139POPC   C4B12466  38.227  29.765   7.650
 5140POPC   NC312467  33.067  19.092   9.450
 5140POPC   PO412468  32.977  19.043   9.150
 5140POPC   GL112469  33.035  19.068   8.850
 5140POPC   GL212470  32.947  18.942   8.850
 5140POPC   C1A12471  33.054  19.097   8.550
 5140POPC   D2A12472  33.057  19.018   8.250
 5140POPC   C3A12473  33.030  19.068   7.950
 5140POPC   C4A12474  33.004  19.091   7.650
 5140POPC   C1B12475  32.854  18.846   8.550
 5140POPC   C2B12476  32.850  18.896   8.250
 5140POPC   C3B12477  32.835  18.924   7.950
 5140POPC   C4B12478  32.883  18.874   7.650
 5141POPC   NC312479  26.048  36.880   9.450
 5141POPC   PO412480  26.031  36.858   9.150
 5141POPC   GL112481  26.068  36.894   8.850
 5141POPC   GL212482  25.940  36.831   8.850
 5141POPC   C1A12483  26.058  36.916   8.550
 5141POPC   D2A12484  26.059  36.902   8.250
 5141POPC   C3A12485  26.012  36.882   7.950
 5141POPC   C4A12486  26.010  36.952   7.650
 5141POPC   C1B12487  25.898  36.726   8.550
 5141POPC   C2B12488  25.908  36.700   8.250
 5141POPC   C3B12489  25.883  36.716   7.950
 5141POPC   C4B12490  25.865  36.671   7.650
 5142POPC   NC312491  44.623  33.048   9.450
 5142POPC   PO412492  44.628  32.993   9.150
 5142POPC   GL112493  44.705  33.063   8.850
 5142POPC   GL212494  44.687  33.116   8.850
 5142POPC   C1A12495  44.622  32.975   8.550
 5142POPC   D2A12496  44.656  33.067   8.250
 5142POPC   C3A12497  44.706  33.007   7.950
 5142POPC   C4A12498  44.631  33.041   7.650
 5142POPC   C1B12499  44.734  33.215   8.550
 5142POPC   C2B12500  44.812  33.263   8.250
 5142POPC   C3B12501  44.746  33.300   7.950
 5142POPC   C4B12502  44.779  33.270   7.650
 5143POPC   NC312503   0.472  36.907   9.450
 5143POPC   PO412504   0.413  36.861   9.150
 5143POPC   GL112505   0.426  36.892   8.850
 5143POPC   GL212506   0.367  36.850   8.850
 5143POPC   C1A12507   0.439  36.904   8.550
 5143POPC   D2A12508   0.409  36.941   8.250
 5143POPC   C3A12509   0.475  36.895   7.950
 5143POPC   C4A12510   0.450  36.920   7.650
 5143POPC   C1B12511   0.200  36.804   8.550
 5143POPC   C2B12512   0.234  36.796   8.250
 5143POPC   C3B12513   0.213  36.785   7.950
 5143POPC   C4B12514   0.271  36.719   7.650
 5144POPC   NC312515  29.162  30.684   9.450
 5144POPC   PO412516  29.163  30.685   9.150
 5144POPC   GL112517  29.158  30.739   8.850
 5144POPC   GL212518  29.286  30.719   8.850
 5144POPC   C1A12519  29.140  30.655   8.550
 5144POPC   D2A12520  29.168  30.660   8.250
 5144POPC   C3A12521  29.121  30.706   7.950
 5144POPC   C4A12522  29.176  30.705   7.650
 5144POPC   C1B12523  29.409  30.766   8.550
 5144POPC   C2B12524  29.411  30.839   8.250
 5144POPC   C3B12525  29.414  30.764   7.950
 5144POPC   C4B12526  29.343  30.812   7.650
 5145POPC   NC312527  32.247  19.052   9.450
 5145POPC   PO412528  32.213  19.092   9.150
 5145POPC   GL112529  32.293  19.074   8.850
 5145POPC   GL212530  32.268  19.132   8.850
 5145POPC   C1A12531  32.267  19.083   8.550
 5145POPC   D2A12532  32.221  19.013   8.250
 5145POPC   C3A12533  32.289  19.081   7.950
 5145POPC   C4A12534  32.234  19.057   7.650
 5145POPC   C1B12535  32.400  19.313   8.550
 5145POPC   C2B12536  32.315  19.304   8.250
 5145POPC   C3B12537  32.393  19.312   7.950
 5145POPC   C4B12538  32.344  19.324   7.650
 5146POPC   NC312539  30.676  22.940   9.450
 5146POPC   PO412540  30.695  22.899   9.150
 5146POPC   GL112541  30.682  22.962   8.850
 5146POPC   GL212542  30.591  22.938   8.850
 5146POPC   C1A12543  30.702  22.926   8.550
 5146POPC   D2A12544  30.739  22.907   8.250
 5146POPC   C3A12545  30.741  22.945   7.950
 5146POPC   C4A12546  30.695  22.890   7.650
 5146POPC   C1B12547  30.413  23.034   8.550
 5146POPC   C2B12548  30.482  23.073   8.250
 5146POPC   C3B12549  30.488  23.060   7.950
 5146POPC   C4B12550  30.436  23.054   7.650
 5147POPC   NC312551  17.471   1.948   9.450
 5147POPC   PO412552  17.546   2.015   9.150
 5147POPC   GL112553  17.543   2.034   8.850
 5147POPC   GL212554  17.416   2.027   8.850
 5147POPC   C1A12555  17.540   1.948   8.550
 5147POPC   D2A12556  17.499   2.021   8.250
 5147POPC   C3A12557  17.495   1.943   7.950
 5147POPC   C4A12558  17.458   1.940   7.650
 5147POPC   C1B12559  17.278   1.946   8.550
 5147POPC   C2B12560  17.304   1.978   8.250
 5147POPC   C3B12561  17.219   1.996   7.950
 5147POPC   C4B12562  17.224   1.974   7.650
 5148POPC   NC312563  25.314  17.545   9.450
 5148POPC   PO412564  25.268  17.554   9.150
 5148POPC   GL112565  25.307  17.475   8.850
 5148POPC   GL212566  25.154  17.511   8.850
 5148POPC   C1A12567  25.281  17.463   8.550
 5148POPC   D2A12568  25.242  17.494   8.250
 5148POPC   C3A12569  25.262  17.554   7.950
 5148POPC   C4A12570  25.271  17.469   7.650
 5148POPC   C1B12571  25.058  17.570   8.550
 5148POPC   C2B12572  24.997  17.522   8.250
 5148POPC   C3B12573  24.978  17.527   7.950
 5148POPC   C4B12574  25.004  17.555   7.650
 5149POPC   NC312575   7.385   2.728   9.450
 5149POPC   PO412576   7.391   2.748   9.150
 5149POPC   GL112577   7.431   2.765   8.850
 5149POPC   GL212578   7.356   2.634   8.850
 5149POPC   C1A12579   7.381   2.725   8.550
 5149POPC   D2A12580   7.416   2.757   8.250
 5149POPC   C3A12581   7.447   2.783   7.950
 5149POPC   C4A12582   7.430   2.808   7.650
 5149POPC   C1B12583   7.322   2.545   8.550
 5149POPC   C2B12584   7.298   2.551   8.250
 5149POPC   C3B12585   7.324   2.486   7.950
 5149POPC   C4B12586   7.330   2.563   7.650
 5150POPC   NC312587  38.486   6.598   9.450
 5150POPC   PO412588  38.454   6.665   9.150
 5150POPC   GL112589  38.499   6.662   8.850
 5150POPC   GL212590  38.333   6.694   8.850
 5150POPC   C1A12591  38.439   6.617   8.550
 5150POPC   D2A12592  38.445   6.640   8.250
 5150POPC   C3A12593  38.425   6.629   7.950
 5150POPC   C4A12594  38.478   6.613   7.650
 5150POPC   C1B12595  38.235   6.704   8.550
 5150POPC   C2B12596  38.228   6.709   8.250
 5150POPC   C3B12597  38.254   6.698   7.950
 5150POPC   C4B12598  38.239   6.760   7.650
 5151POPC   NC312599  13.663  38.415   9.450
 5151POPC   PO412600  13.613  38.497   9.150
 5151POPC   GL112601  13.594  38.502   8.850
 5151POPC   GL212602  13.563  38.579   8.850
 5151POPC   C1A12603  13.621  38.424   8.550
 5151POPC   D2A12604  13.666  38.442   8.250
 5151POPC   C3A12605  13.588  38.412   7.950
 5151POPC   C4A12606  13.612  38.484   7.650
 5151POPC   C1B12607  13.493  38.679   8.550
 5151POPC   C2B12608  13.474  38.635   8.250
 5151POPC   C3B12609  13.503  38.635   7.950
 5151POPC   C4B12610  13.505  38.648   7.650
 5152POPC   NC312611   0.410   7.378   9.450
 5152POPC   PO412612   0.437   7.405   9.150
 5152POPC   GL112613   0.393   7.458   8.850
 5152POPC   GL212614   0.436   7.593   8.850
 5152POPC   C1A12615   0.415   7.447   8.550
 5152POPC   D2A12616   0.420   7.410   8.250
 5152POPC   C3A12617   0.421   7.376   7.950
 5152POPC   C4A12618   0.426   7.454   7.650
 5152POPC   C1B12619   0.493   7.707   8.550
 5152POPC   C2B12620   0.480   7.671   8.250
 5152POPC   C3B12621   0.471   7.618   7.950
 5152POPC   C4B12622   0.474   7.683   7.650
 5153POPC   NC312623  38.473  39.973   9.450
 5153POPC   PO412624  38.479  40.026   9.150
 5153POPC   GL112625  38.449  39.965   8.850
 5153POPC   GL212626  38.330  39.998   8.850
 5153POPC   C1A12627  38.410  39.984   8.550
 5153POPC   D2A12628  38.442  40.050   8.250
 5153POPC   C3A12629  38.479  40.027   7.950
 5153POPC   C4A12630  38.482  40.024   7.650
 5153POPC   C1B12631  38.200  39.935   8.550
 5153POPC   C2B12632  38.180  39.938   8.250
 5153POPC   C3B12633  38.184  39.892   7.950
 5153POPC   C4B12634  38.239  39.929   7.650
 5154POPC   NC312635  26.086   1.232   9.450
 5154POPC   PO412636  26.030   1.170   9.150
 5154POPC   GL112637  26.068   1.223   8.850
 5154POPC   GL212638  26.031   1.288   8.850
 5154POPC   C1A12639  26.032   1.211   8.550
 5154POPC   D2A12640  26.076   1.183   8.250
 5154POPC   C3A12641  26.061   1.182   7.950
 5154POPC   C4A12642  26.078   1.170   7.650
 5154POPC   C1B12643  25.939   1.464   8.550
 5154POPC   C2B12644  26.001   1.462   8.250
 5154POPC   C3B12645  25.920   1.458   7.950
 5154POPC   C4B12646  26.016   1.479   7.650
 5155POPC   NC312647   7.440  30.718   9.450
 5155POPC   PO412648   7.422  30.696   9.150
 5155POPC   GL112649   7.406  30.734   8.850
 5155POPC   GL212650   7.588  30.645   8.850
 5155POPC   C1A12651   7.444  30.669   8.550
 5155POPC   D2A12652   7.458  30.709   8.250
 5155POPC   C3A12653   7.430  30.714   7.950
 5155POPC   C4A12654   7.374  30.695   7.650
 5155POPC   C1B12655   7.632  30.680   8.550
 5155POPC   C2B12656   7.670  30.616   8.250
 5155POPC   C3B12657   7.620  30.606   7.950
 5155POPC   C4B12658   7.626  30.639   7.650
 5156POPC   NC312659  41.532  14.430   9.450
 5156POPC   PO412660  41.536  14.438   9.150
 5156POPC   GL112661  41.601  14.439   8.850
 5156POPC   GL212662  41.597  14.541   8.850
 5156POPC   C1A12663  41.540  14.376   8.550
 5156POPC   D2A12664  41.512  14.436   8.250
 5156POPC   C3A12665  41.575  14.425   7.950
 5156POPC   C4A12666  41.591  14.396   7.650
 5156POPC   C1B12667  41.699  14.625   8.550
 5156POPC   C2B12668  41.617  14.651   8.250
 5156POPC   C3B12669  41.617  14.596   7.950
 5156POPC   C4B12670  41.640  14.641   7.650
 5157POPC   NC312671  43.063  14.360   9.450
 5157POPC   PO412672  43.077  14.427   9.150
 5157POPC   GL112673  43.104  14.445   8.850
 5157POPC   GL212674  43.024  14.447   8.850
 5157POPC   C1A12675  43.112  14.355   8.550
 5157POPC   D2A12676  43.110  14.355   8.250
 5157POPC   C3A12677  43.132  14.430   7.950
 5157POPC   C4A12678  43.143  14.399   7.650
 5157POPC   C1B12679  42.882  14.499   8.550
 5157POPC   C2B12680  42.896  14.439   8.250
 5157POPC   C3B12681  42.852  14.406   7.950
 5157POPC   C4B12682  42.912  14.500   7.650
 5158POPC   NC312683  32.290   3.515   9.450
 5158POPC   PO412684  32.203   3.497   9.150
 5158POPC   GL112685  32.202   3.552   8.850
 5158POPC   GL212686  32.151   3.577   8.850
 5158POPC   C1A12687  32.210   3.580   8.550
 5158POPC   D2A12688  32.276   3.503   8.250
 5158POPC   C3A12689  32.287   3.577   7.950
 5158POPC   C4A12690  32.270   3.572   7.650
 5158POPC   C1B12691  32.008   3.598   8.550
 5158POPC   C2B12692  31.997   3.658   8.250
 5158POPC   C3B12693  31.974   3.617   7.950
 5158POPC   C4B12694  31.976   3.656   7.650
 5159POPC   NC312695  43.144   9.720   9.450
 5159POPC   PO412696  43.088   9.755   9.150
 5159POPC   GL112697  43.100   9.771   8.850
 5159POPC   GL212698  42.961   9.713   8.850
 5159POPC   C1A12699  43.109   9.774   8.550
 5159POPC   D2A12700  43.156   9.709   8.250
 5159POPC   C3A12701  43.073   9.709   7.950
 5159POPC   C4A12702  43.069   9.743   7.650
 5159POPC   C1B12703  42.873   9.686   8.550
 5159POPC   C2B12704  42.833   9.702   8.250
 5159POPC   C3B12705  42.906   9.671   7.950
 5159POPC   C4B12706  42.899   9.713   7.650
 5160POPC   NC312707  14.423  22.151   9.450
 5160POPC   PO412708  14.439  22.188   9.150
 5160POPC   GL112709  14.380  22.120   8.850
 5160POPC   GL212710  14.330  22.210   8.850
 5160POPC   C1A12711  14.381  22.140   8.550
 5160POPC   D2A12712  14.424  22.184   8.250
 5160POPC   C3A12713  14.411  22.185   7.950
 5160POPC   C4A12714  14.393  22.117   7.650
 5160POPC   C1B12715  14.183  22.285   8.550
 5160POPC   C2B12716  14.211  22.301   8.250
 5160POPC   C3B12717  14.157  22.305   7.950
 5160POPC   C4B12718  14.165  22.304   7.650
 5161POPC   NC312719  13.592   9.747   9.450
 5161POPC   PO412720  13.674   9.742   9.150
 5161POPC   GL112721  13.612   9.762   8.850
 5161POPC   GL212722  13.464   9.740   8.850
 5161POPC   C1A12723  13.620   9.786   8.550
 5161POPC   D2A12724  13.625   9.748   8.250
 5161POPC   C3A12725  13.674   9.756   7.950
 5161POPC   C4A12726  13.646   9.739   7.650
 5161POPC   C1B12727  13.400   9.735   8.550
 5161POPC   C2B12728  13.352   9.764   8.250
 5161POPC   C3B12729  13.421   9.738   7.950
 5161POPC   C4B12730  13.397   9.801   7.650
 5162POPC   NC312731   7.409  23.713   9.450
 5162POPC   PO412732   7.394  23.668   9.150
 5162POPC   GL112733   7.405  23.712   8.850
 5162POPC   GL212734   7.497  23.644   8.850
 5162POPC   C1A12735   7.461  23.672   8.550
 5162POPC   D2A12736   7.389  23.681   8.250
 5162POPC   C3A12737   7.379  23.714   7.950
 5162POPC   C4A12738   7.429  23.690   7.650
 5162POPC   C1B12739   7.688  23.676   8.550
 5162POPC   C2B12740   7.658  23.615   8.250
 5162POPC   C3B12741   7.708  23.615   7.950
 5162POPC   C4B12742   7.666  23.588   7.650
 5163POPC   NC312743  40.738  17.516   9.450
 5163POPC   PO412744  40.753  17.535   9.150
 5163POPC   GL112745  40.782  17.482   8.850
 5163POPC   GL212746  40.701  17.633   8.850
 5163POPC   C1A12747  40.804  17.461   8.550
 5163POPC   D2A12748  40.802  17.459   8.250
 5163POPC   C3A12749  40.787  17.469   7.950
 5163POPC   C4A12750  40.809  17.496   7.650
 5163POPC   C1B12751  40.591  17.698   8.550
 5163POPC   C2B12752  40.580  17.704   8.250
 5163POPC   C3B12753  40.585  17.670   7.950
 5163POPC   C4B12754  40.576  17.642   7.650
 5164POPC   NC312755  32.274  10.555   9.450
 5164POPC   PO412756  32.240  10.497   9.150
 5164POPC   GL112757  32.294  10.516   8.850
 5164POPC   GL212758  32.336  10.628   8.850
 5164POPC   C1A12759  32.212  10.511   8.550
 5164POPC   D2A12760  32.233  10.560   8.250
 5164POPC   C3A12761  32.214  10.475   7.950
 5164POPC   C4A12762  32.241  10.489   7.650
 5164POPC   C1B12763  32.380  10.763   8.550
 5164POPC   C2B12764  32.307  10.795   8.250
 5164POPC   C3B12765  32.298  10.741   7.950
 5164POPC   C4B12766  32.353  10.710   7.650
 5165POPC   NC312767   0.459  37.690   9.450
 5165POPC   PO412768   0.404  37.685   9.150
 5165POPC   GL112769   0.470  37.700   8.850
 5165POPC   GL212770   0.498  37.598   8.850
 5165POPC   C1A12771   0.467  37.642   8.550
 5165POPC   D2A12772   0.467  37.697   8.250
 5165POPC   C3A12773   0.479  37.727   7.950
 5165POPC   C4A12774   0.463  37.661   7.650
 5165POPC   C1B12775   0.490  37.483   8.550
 5165POPC   C2B12776   0.440  37.436   8.250
 5165POPC   C3B12777   0.453  37.456   7.950
 5165POPC   C4B12778   0.530  37.414   7.650
 5166POPC   NC312779   0.442  39.271   9.450
 5166POPC   PO412780   0.452  39.271   9.150
 5166POPC   GL112781   0.388  39.221   8.850
 5166POPC   GL212782   0.364  39.379   8.850
 5166POPC   C1A12783   0.434  39.207   8.550
 5166POPC   D2A12784   0.443  39.229   8.250
 5166POPC   C3A12785   0.401  39.212   7.950
 5166POPC   C4A12786   0.482  39.252   7.650
 5166POPC   C1B12787   0.325  39.460   8.550
 5166POPC   C2B12788   0.306  39.420   8.250
 5166POPC   C3B12789   0.322  39.498   7.950
 5166POPC   C4B12790   0.294  39.464   7.650
 5167POPC   NC312791  31.444  33.758   9.450
 5167POPC   PO412792  31.507  33.802   9.150
 5167POPC   GL112793  31.488  33.813   8.850
 5167POPC   GL212794  31.386  33.659   8.850
 5167POPC   C1A12795  31.437  33.754   8.550
 5167POPC   D2A12796  31.431  33.764   8.250
 5167POPC   C3A12797  31.476  33.790   7.950
 5167POPC   C4A12798  31.488  33.770   7.650
 5167POPC   C1B12799  31.321  33.583   8.550
 5167POPC   C2B12800  31.313  33.609   8.250
 5167POPC   C3B12801  31.358  33.629   7.950
 5167POPC   C4B12802  31.281  33.584   7.650
 5168POPC   NC312803  21.391   3.573   9.450
 5168POPC   PO412804  21.382   3.529   9.150
 5168POPC   GL112805  21.387   3.549   8.850
 5168POPC   GL212806  21.408   3.458   8.850
 5168POPC   C1A12807  21.392   3.545   8.550
 5168POPC   D2A12808  21.413   3.523   8.250
 5168POPC   C3A12809  21.382   3.533   7.950
 5168POPC   C4A12810  21.422   3.495   7.650
 5168POPC   C1B12811  21.503   3.318   8.550
 5168POPC   C2B12812  21.470   3.286   8.250
 5168POPC   C3B12813  21.505   3.300   7.950
 5168POPC   C4B12814  21.438   3.267   7.650
 5169POPC   NC312815   7.394   1.943   9.450
 5169POPC   PO412816   7.404   2.015   9.150
 5169POPC   GL112817   7.381   1.965   8.850
 5169POPC   GL212818   7.494   2.029   8.850
 5169POPC   C1A12819   7.465   2.022   8.550
 5169POPC   D2A12820   7.460   1.960   8.250
 5169POPC   C3A12821   7.451   1.952   7.950
 5169POPC   C4A12822   7.457   1.961   7.650
 5169POPC   C1B12823   7.693   2.038   8.550
 5169POPC   C2B12824   7.675   2.055   8.250
 5169POPC   C3B12825   7.603   2.113   7.950
 5169POPC   C4B12826   7.647   2.055   7.650
 5170POPC   NC312827  38.451  29.160   9.450
 5170POPC   PO412828  38.443  29.187   9.150
 5170POPC   GL112829  38.427  29.131   8.850
 5170POPC   GL212830  38.519  29.294   8.850
 5170POPC   C1A12831  38.425  29.136   8.550
 5170POPC   D2A12832  38.498  29.118   8.250
 5170POPC   C3A12833  38.474  29.104   7.950
 5170POPC   C4A12834  38.475  29.160   7.650
 5170POPC   C1B12835  38.485  29.401   8.550
 5170POPC   C2B12836  38.487  29.429   8.250
 5170POPC   C3B12837  38.519  29.442   7.950
 5170POPC   C4B12838  38.450  29.400   7.650
 5171POPC   NC312839  16.773  19.820   9.450
 5171POPC   PO412840  16.779  19.857   9.150
 5171POPC   GL112841  16.705  19.824   8.850
 5171POPC   GL212842  16.657  19.679   8.850
 5171POPC   C1A12843  16.682  19.820   8.550
 5171POPC   D2A12844  16.771  19.845   8.250
 5171POPC   C3A12845  16.699  19.856   7.950
 5171POPC   C4A12846  16.698  19.805   7.650
 5171POPC   C1B12847  16.623  19.651   8.550
 5171POPC   C2B12848  16.622  19.614   8.250
 5171POPC   C3B12849  16.668  19.613   7.950
 5171POPC   C4B12850  16.640  19.649   7.650
 5172POPC   NC312851  22.121   3.510   9.450
 5172POPC   PO412852  22.170   3.560   9.150
 5172POPC   GL112853  22.142   3.518   8.850
 5172POPC   GL212854  22.066   3.462   8.850
 5172POPC   C1A12855  22.150   3.584   8.550
 5172POPC   D2A12856  22.146   3.558   8.250
 5172POPC   C3A12857  22.211   3.556   7.950
 5172POPC   C4A12858  22.144   3.582   7.650
 5172POPC   C1B12859  22.107   3.333   8.550
 5172POPC   C2B12860  22.053   3.277   8.250
 5172POPC   C3B12861  22.054   3.322   7.950
 5172POPC   C4B12862  22.103   3.361   7.650
 5173POPC   NC312863  28.342  16.768   9.450
 5173POPC   PO412864  28.337  16.703   9.150
 5173POPC   GL112865  28.358  16.704   8.850
 5173POPC   GL212866  28.432  16.644   8.850
 5173POPC   C1A12867  28.351  16.766   8.550
 5173POPC   D2A12868  28.412  16.712   8.250
 5173POPC   C3A12869  28.406  16.742   7.950
 5173POPC   C4A12870  28.387  16.685   7.650
 5173POPC   C1B12871  28.459  16.510   8.550
 5173POPC   C2B12872  28.481  16.516   8.250
 5173POPC   C3B12873  28.537  16.467   7.950
 5173POPC   C4B12874  28.489  16.517   7.650
 5174POPC   NC312875  29.925  17.474   9.450
 5174POPC   PO412876  29.885  17.540   9.150
 5174POPC   GL112877  29.951  17.526   8.850
 5174POPC   GL212878  29.788  17.622   8.850
 5174POPC   C1A12879  29.960  17.540   8.550
 5174POPC   D2A12880  29.922  17.466   8.250
 5174POPC   C3A12881  29.881  17.525   7.950
 5174POPC   C4A12882  29.954  17.543   7.650
 5174POPC   C1B12883  29.728  17.694   8.550
 5174POPC   C2B12884  29.732  17.676   8.250
 5174POPC   C3B12885  29.727  17.623   7.950
 5174POPC   C4B12886  29.690  17.604   7.650
 5175POPC   NC312887   2.716  40.001   9.450
 5175POPC   PO412888   2.764  40.008   9.150
 5175POPC   GL112889   2.762  40.051   8.850
 5175POPC   GL212890   2.863  40.147   8.850
 5175POPC   C1A12891   2.755  40.023   8.550
 5175POPC   D2A12892   2.800  39.991   8.250
 5175POPC   C3A12893   2.763  40.035   7.950
 5175POPC   C4A12894   2.780  39.969   7.650
 5175POPC   C1B12895   2.921  40.236   8.550
 5175POPC   C2B12896   2.945  40.177   8.250
 5175POPC   C3B12897   2.897  40.226   7.950
 5175POPC   C4B12898   2.886  40.194   7.650
 5176POPC   NC312899  43.138   4.276   9.450
 5176POPC   PO412900  43.136   4.283   9.150
 5176POPC   GL112901  43.152   4.311   8.850
 5176POPC   GL212902  43.213   4.360   8.850
 5176POPC   C1A12903  43.102   4.300   8.550
 5176POPC   D2A12904  43.140   4.294   8.250
 5176POPC   C3A12905  43.100   4.306   7.950
 5176POPC   C4A12906  43.095   4.350   7.650
 5176POPC   C1B12907  43.401   4.303   8.550
 5176POPC   C2B12908  43.343   4.358   8.250
 5176POPC   C3B12909  43.390   4.339   7.950
 5176POPC   C4B12910  43.359   4.366   7.650
 5177POPC   NC312911   1.167   0.467   9.450
 5177POPC   PO412912   1.165   0.393   9.150
 5177POPC   GL112913   1.182   0.404   8.850
 5177POPC   GL212914   1.340   0.411   8.850
 5177POPC   C1A12915   1.206   0.421   8.550
 5177POPC   D2A12916   1.251   0.397   8.250
 5177POPC   C3A12917   1.212   0.450   7.950
 5177POPC   C4A12918   1.235   0.389   7.650
 5177POPC   C1B12919   1.481   0.337   8.550
 5177POPC   C2B12920   1.435   0.306   8.250
 5177POPC   C3B12921   1.435   0.311   7.950
 5177POPC   C4B12922   1.428   0.360   7.650
 5178POPC   NC312923   0.474  29.143   9.450
 5178POPC   PO412924   0.397  29.190   9.150
 5178POPC   GL112925   0.453  29.179   8.850
 5178POPC   GL212926   0.435  29.279   8.850
 5178POPC   C1A12927   0.394  29.134   8.550
 5178POPC   D2A12928   0.428  29.104   8.250
 5178POPC   C3A12929   0.403  29.178   7.950
 5178POPC   C4A12930   0.390  29.141   7.650
 5178POPC   C1B12931   0.572  29.341   8.550
 5178POPC   C2B12932   0.525  29.376   8.250
 5178POPC   C3B12933   0.565  29.385   7.950
 5178POPC   C4B12934   0.491  29.408   7.650
 5179POPC   NC312935   8.960   3.537   9.450
 5179POPC   PO412936   9.005   3.572   9.150
 5179POPC   GL112937   8.923   3.567   8.850
 5179POPC   GL212938   9.024   3.453   8.850
 5179POPC   C1A12939   8.979   3.500   8.550
 5179POPC   D2A12940   8.930   3.582   8.250
 5179POPC   C3A12941   8.988   3.560   7.950
 5179POPC   C4A12942   8.983   3.509   7.650
 5179POPC   C1B12943   9.109   3.340   8.550
 5179POPC   C2B12944   9.163   3.339   8.250
 5179POPC   C3B12945   9.193   3.357   7.950
 5179POPC   C4B12946   9.158   3.384   7.650
 5180POPC   NC312947  23.730  15.932   9.450
 5180POPC   PO412948  23.731  15.927   9.150
 5180POPC   GL112949  23.741  15.993   8.850
 5180POPC   GL212950  23.792  15.998   8.850
 5180POPC   C1A12951  23.726  15.964   8.550
 5180POPC   D2A12952  23.701  16.003   8.250
 5180POPC   C3A12953  23.708  15.944   7.950
 5180POPC   C4A12954  23.690  15.932   7.650
 5180POPC   C1B12955  23.992  16.008   8.550
 5180POPC   C2B12956  23.992  16.026   8.250
 5180POPC   C3B12957  23.962  15.994   7.950
 5180POPC   C4B12958  24.004  15.997   7.650
 5181POPC   NC312959  44.615  19.085   9.450
 5181POPC   PO412960  44.698  19.079   9.150
 5181POPC   GL112961  44.701  19.061   8.850
 5181POPC   GL212962  44.649  18.923   8.850
 5181POPC   C1A12963  44.705  19.069   8.550
 5181POPC   D2A12964  44.708  19.088   8.250
 5181POPC   C3A12965  44.630  19.076   7.950
 5181POPC   C4A12966  44.640  19.077   7.650
 5181POPC   C1B12967  44.491  18.814   8.550
 5181POPC   C2B12968  44.524  18.888   8.250
 5181POPC   C3B12969  44.572  18.795   7.950
 5181POPC   C4B12970  44.541  18.859   7.650
 5182POPC   NC312971  24.447  39.200   9.450
 5182POPC   PO412972  24.458  39.204   9.150
 5182POPC   GL112973  24.474  39.225   8.850
 5182POPC   GL212974  24.611  39.121   8.850
 5182POPC   C1A12975  24.476  39.250   8.550
 5182POPC   D2A12976  24.503  39.231   8.250
 5182POPC   C3A12977  24.450  39.247   7.950
 5182POPC   C4A12978  24.507  39.198   7.650
 5182POPC   C1B12979  24.602  38.998   8.550
 5182POPC   C2B12980  24.603  38.994   8.250
 5182POPC   C3B12981  24.671  39.068   7.950
 5182POPC   C4B12982  24.611  39.052   7.650
 5183POPC   NC312983  41.537  17.531   9.450
 5183POPC   PO412984  41.573  17.520   9.150
 5183POPC   GL112985  41.537  17.531   8.850
 5183POPC   GL212986  41.665  17.479   8.850
 5183POPC   C1A12987  41.555  17.525   8.550
 5183POPC   D2A12988  41.534  17.556   8.250
 5183POPC   C3A12989  41.546  17.469   7.950
 5183POPC   C4A12990  41.541  17.493   7.650
 5183POPC   C1B12991  41.803  17.378   8.550
 5183POPC   C2B12992  41.765  17.456   8.250
 5183POPC   C3B12993  41.780  17.387   7.950
 5183POPC   C4B12994  41.839  17.405   7.650
 5184POPC   NC312995  30.649  26.013   9.450
 5184POPC   PO412996  30.704  25.998   9.150
 5184POPC   GL112997  30.684  26.062   8.850
 5184POPC   GL212998  30.633  25.922   8.850
 5184POPC   C1A12999  30.661  26.035   8.550
 5184POPC   D2A13000  30.701  26.024   8.250
 5184POPC   C3A13001  30.700  26.061   7.950
 5184POPC   C4A13002  30.739  25.998   7.650
 5184POPC   C1B13003  30.635  25.795   8.550
 5184POPC   C2B13004  30.670  25.759   8.250
 5184POPC   C3B13005  30.666  25.838   7.950
 5184POPC   C4B13006  30.628  25.776   7.650
 5185POPC   NC313007  10.475  26.016   9.450
 5185POPC   PO413008  10.507  26.035   9.150
 5185POPC   GL113009  10.527  26.055   8.850
 5185POPC   GL213010  10.445  26.106   8.850
 5185POPC   C1A13011  10.516  26.035   8.550
 5185POPC   D2A13012  10.507  26.043   8.250
 5185POPC   C3A13013  10.562  26.056   7.950
 5185POPC   C4A13014  10.544  26.080   7.650
 5185POPC   C1B13015  10.423  26.271   8.550
 5185POPC   C2B13016  10.439  26.246   8.250
 5185POPC   C3B13017  10.397  26.240   7.950
 5185POPC   C4B13018  10.383  26.305   7.650
 5186POPC   NC313019  43.062   2.021   9.450
 5186POPC   PO413020  43.151   2.024   9.150
 5186POPC   GL113021  43.125   2.029   8.850
 5186POPC   GL213022  43.110   1.840   8.850
 5186POPC   C1A13023  43.132   2.019   8.550
 5186POPC   D2A13024  43.137   2.033   8.250
 5186POPC   C3A13025  43.113   2.008   7.950
 5186POPC   C4A13026  43.106   2.024   7.650
 5186POPC   C1B13027  43.099   1.776   8.550
 5186POPC   C2B13028  43.148   1.724   8.250
 5186POPC   C3B13029  43.084   1.696   7.950
 5186POPC   C4B13030  43.065   1.720   7.650
 5187POPC   NC313031  12.818  29.102   9.450
 5187POPC   PO413032  12.901  29.132   9.150
 5187POPC   GL113033  12.838  29.112   8.850
 5187POPC   GL213034  12.917  28.998   8.850
 5187POPC   C1A13035  12.900  29.148   8.550
 5187POPC   D2A13036  12.822  29.171   8.250
 5187POPC   C3A13037  12.819  29.185   7.950
 5187POPC   C4A13038  12.843  29.121   7.650
 5187POPC   C1B13039  12.924  28.869   8.550
 5187POPC   C2B13040  12.988  28.956   8.250
 5187POPC   C3B13041  12.989  28.954   7.950
 5187POPC   C4B13042  12.905  28.951   7.650
 5188POPC   NC313043  15.156  43.117   9.450
 5188POPC   PO413044  15.130  43.156   9.150
 5188POPC   GL113045  15.136  43.108   8.850
 5188POPC   GL213046  15.107  43.223   8.850
 5188POPC   C1A13047  15.215  43.087   8.550
 5188POPC   D2A13048  15.226  43.129   8.250
 5188POPC   C3A13049  15.153  43.145   7.950
 5188POPC   C4A13050  15.164  43.145   7.650
 5188POPC   C1B13051  15.009  43.240   8.550
 5188POPC   C2B13052  14.958  43.293   8.250
 5188POPC   C3B13053  14.932  43.235   7.950
 5188POPC   C4B13054  15.021  43.288   7.650
 5189POPC   NC313055  35.389  34.563   9.450
 5189POPC   PO413056  35.400  34.601   9.150
 5189POPC   GL113057  35.385  34.590   8.850
 5189POPC   GL213058  35.287  34.488   8.850
 5189POPC   C1A13059  35.376  34.579   8.550
 5189POPC   D2A13060  35.361  34.597   8.250
 5189POPC   C3A13061  35.311  34.618   7.950
 5189POPC   C4A13062  35.399  34.539   7.650
 5189POPC   C1B13063  35.146  34.417   8.550
 5189POPC   C2B13064  35.188  34.364   8.250
 5189POPC   C3B13065  35.169  34.426   7.950
 5189POPC   C4B13066  35.208  34.386   7.650
 5190POPC   NC313067  17.536  34.537   9.450
 5190POPC   PO413068  17.533  34.539   9.150
 5190POPC   GL113069  17.505  34.587   8.850
 5190POPC   GL213070  17.580  34.472   8.850
 5190POPC   C1A13071  17.471  34.537   8.550
 5190POPC   D2A13072  17.481  34.616   8.250
 5190POPC   C3A13073  17.472  34.605   7.950
 5190POPC   C4A13074  17.549  34.618   7.650
 5190POPC   C1B13075  17.550  34.358   8.550
 5190POPC   C2B13076  17.566  34.292   8.250
 5190POPC   C3B13077  17.561  34.347   7.950
 5190POPC   C4B13078  17.547  34.328   7.650
 5191POPC   NC313079  33.803  25.997   9.450
 5191POPC   PO413080  33.849  26.052   9.150
 5191POPC   GL113081  33.806  26.078   8.850
 5191POPC   GL213082  33.690  25.983   8.850
 5191POPC   C1A13083  33.829  26.027   8.550
 5191POPC   D2A13084  33.794  25.996   8.250
 5191POPC   C3A13085  33.760  26.043   7.950
 5191POPC   C4A13086  33.763  26.059   7.650
 5191POPC   C1B13087  33.667  25.873   8.550
 5191POPC   C2B13088  33.677  25.812   8.250
 5191POPC   C3B13089  33.591  25.902   7.950
 5191POPC   C4B13090  33.638  25.875   7.650
 5192POPC   NC313091  41.593   8.175   9.450
 5192POPC   PO413092  41.541   8.167   9.150
 5192POPC   GL113093  41.545   8.188   8.850
 5192POPC   GL213094  41.505   8.121   8.850
 5192POPC   C1A13095  41.534   8.224   8.550
 5192POPC   D2A13096  41.518   8.189   8.250
 5192POPC   C3A13097  41.521   8.176   7.950
 5192POPC   C4A13098  41.607   8.218   7.650
 5192POPC   C1B13099  41.338   8.051   8.550
 5192POPC   C2B13100  41.351   8.023   8.250
 5192POPC   C3B13101  41.332   8.026   7.950
 5192POPC   C4B13102  41.397   8.007   7.650
 5193POPC   NC313103  17.543  37.672   9.450
 5193POPC   PO413104  17.545  37.644   9.150
 5193POPC   GL113105  17.472  37.650   8.850
 5193POPC   GL213106  17.548  37.553   8.850
 5193POPC   C1A13107  17.509  37.652   8.550
 5193POPC   D2A13108  17.475  37.695   8.250
 5193POPC   C3A13109  17.526  37.682   7.950
 5193POPC   C4A13110  17.474  37.725   7.650
 5193POPC   C1B13111  17.568  37.464   8.550
 5193POPC   C2B13112  17.500  37.466   8.250
 5193POPC   C3B13113  17.518  37.472   7.950
 5193POPC   C4B13114  17.575  37.395   7.650
 5194POPC   NC313115  43.119   2.791   9.450
 5194POPC   PO413116  43.074   2.799   9.150
 5194POPC   GL113117  43.129   2.765   8.850
 5194POPC   GL213118  43.092   2.894   8.850
 5194POPC   C1A13119  43.109   2.760   8.550
 5194POPC   D2A13120  43.086   2.757   8.250
 5194POPC   C3A13121  43.070   2.723   7.950
 5194POPC   C4A13122  43.119   2.723   7.650
 5194POPC   C1B13123  43.107   3.017   8.550
 5194POPC   C2B13124  43.130   2.988   8.250
 5194POPC   C3B13125  43.088   2.974   7.950
 5194POPC   C4B13126  43.179   2.993   7.650
 5195POPC   NC313127   2.005  14.423   9.450
 5195POPC   PO413128   1.964  14.439   9.150
 5195POPC   GL113129   1.966  14.430   8.850
 5195POPC   GL213130   1.999  14.242   8.850
 5195POPC   C1A13131   1.945  14.406   8.550
 5195POPC   D2A13132   1.989  14.432   8.250
 5195POPC   C3A13133   1.969  14.409   7.950
 5195POPC   C4A13134   2.014  14.443   7.650
 5195POPC   C1B13135   2.054  14.160   8.550
 5195POPC   C2B13136   2.100  14.196   8.250
 5195POPC   C3B13137   2.095  14.150   7.950
 5195POPC   C4B13138   2.058  14.125   7.650
 5196POPC   NC313139  33.786   2.782   9.450
 5196POPC   PO413140  33.842   2.783   9.150
 5196POPC   GL113141  33.764   2.780   8.850
 5196POPC   GL213142  33.739   2.809   8.850
 5196POPC   C1A13143  33.836   2.784   8.550
 5196POPC   D2A13144  33.765   2.785   8.250
 5196POPC   C3A13145  33.822   2.731   7.950
 5196POPC   C4A13146  33.805   2.782   7.650
 5196POPC   C1B13147  33.547   2.947   8.550
 5196POPC   C2B13148  33.544   2.850   8.250
 5196POPC   C3B13149  33.629   2.867   7.950
 5196POPC   C4B13150  33.555   2.855   7.650
 5197POPC   NC313151  36.148  42.293   9.450
 5197POPC   PO413152  36.141  42.287   9.150
 5197POPC   GL113153  36.169  42.315   8.850
 5197POPC   GL213154  36.277  42.315   8.850
 5197POPC   C1A13155  36.113  42.328   8.550
 5197POPC   D2A13156  36.112  42.328   8.250
 5197POPC   C3A13157  36.128  42.379   7.950
 5197POPC   C4A13158  36.143  42.329   7.650
 5197POPC   C1B13159  36.402  42.361   8.550
 5197POPC   C2B13160  36.373  42.389   8.250
 5197POPC   C3B13161  36.343  42.345   7.950
 5197POPC   C4B13162  36.354  42.345   7.650
 5198POPC   NC313163  11.272  12.057   9.450
 5198POPC   PO413164  11.295  12.035   9.150
 5198POPC   GL113165  11.255  12.107   8.850
 5198POPC   GL213166  11.307  12.174   8.850
 5198POPC   C1A13167  11.332  12.119   8.550
 5198POPC   D2A13168  11.291  12.039   8.250
 5198POPC   C3A13169  11.316  12.110   7.950
 5198POPC   C4A13170  11.288  12.119   7.650
 5198POPC   C1B13171  11.276  12.323   8.550
 5198POPC   C2B13172  11.310  12.365   8.250
 5198POPC   C3B13173  11.311  12.367   7.950
 5198POPC   C4B13174  11.285  12.277   7.650
 5199POPC   NC313175  28.410  18.246   9.450
 5199POPC   PO413176  28.328  18.238   9.150
 5199POPC   GL113177  28.416  18.292   8.850
 5199POPC   GL213178  28.373  18.124   8.850
 5199POPC   C1A13179  28.336  18.235   8.550
 5199POPC   D2A13180  28.375  18.238   8.250
 5199POPC   C3A13181  28.354  18.277   7.950
 5199POPC   C4A13182  28.365  18.257   7.650
 5199POPC   C1B13183  28.321  18.078   8.550
 5199POPC   C2B13184  28.311  18.025   8.250
 5199POPC   C3B13185  28.345  18.072   7.950
 5199POPC   C4B13186  28.320  17.988   7.650
 5200POPC   NC313187  41.577   3.544   9.450
 5200POPC   PO413188  41.533   3.548   9.150
 5200POPC   GL113189  41.608   3.497   8.850
 5200POPC   GL213190  41.487   3.490   8.850
 5200POPC   C1A13191  41.539   3.531   8.550
 5200POPC   D2A13192  41.586   3.498   8.250
 5200POPC   C3A13193  41.509   3.495   7.950
 5200POPC   C4A13194  41.547   3.557   7.650
 5200POPC   C1B13195  41.366   3.440   8.550
 5200POPC   C2B13196  41.310   3.465   8.250
 5200POPC   C3B13197  41.308   3.480   7.950
 5200POPC   C4B13198  41.358   3.434   7.650
 5201POPC   NC313199   9.701   3.550   9.450
 5201POPC   PO413200   9.705   3.534   9.150
 5201POPC   GL113201   9.735   3.585   8.850
 5201POPC   GL213202   9.809   3.613   8.850
 5201POPC   C1A13203   9.760   3.509   8.550
 5201POPC   D2A13204   9.791   3.527   8.250
 5201POPC   C3A13205   9.713   3.493   7.950
 5201POPC   C4A13206   9.717   3.549   7.650
 5201POPC   C1B13207   9.982   3.626   8.550
 5201POPC   C2B13208   9.984   3.616   8.250
 5201POPC   C3B13209   9.921   3.704   7.950
 5201POPC   C4B13210   9.931   3.690   7.650
 5202POPC   NC313211  39.974  27.565   9.450
 5202POPC   PO413212  40.024  27.642   9.150
 5202POPC   GL113213  40.007  27.587   8.850
 5202POPC   GL213214  39.976  27.432   8.850
 5202POPC   C1A13215  39.989  27.600   8.550
 5202POPC   D2A13216  40.031  27.630   8.250
 5202POPC   C3A13217  39.968  27.588   7.950
 5202POPC   C4A13218  39.962  27.558   7.650
 5202POPC   C1B13219  40.020  27.357   8.550
 5202POPC   C2B13220  40.036  27.301   8.250
 5202POPC   C3B13221  39.997  27.317   7.950
 5202POPC   C4B13222  40.006  27.369   7.650
 5203POPC   NC313223  32.223  42.376   9.450
 5203POPC   PO413224  32.245  42.339   9.150
 5203POPC   GL113225  32.267  42.319   8.850
 5203POPC   GL213226  32.335  42.306   8.850
 5203POPC   C1A13227  32.241  42.352   8.550
 5203POPC   D2A13228  32.240  42.306   8.250
 5203POPC   C3A13229  32.232  42.368   7.950
 5203POPC   C4A13230  32.199  42.302   7.650
 5203POPC   C1B13231  32.478  42.258   8.550
 5203POPC   C2B13232  32.504  42.318   8.250
 5203POPC   C3B13233  32.529  42.345   7.950
 5203POPC   C4B13234  32.501  42.257   7.650
 5204POPC   NC313235  26.783  16.713   9.450
 5204POPC   PO413236  26.776  16.694   9.150
 5204POPC   GL113237  26.852  16.724   8.850
 5204POPC   GL213238  26.701  16.693   8.850
 5204POPC   C1A13239  26.816  16.776   8.550
 5204POPC   D2A13240  26.791  16.717   8.250
 5204POPC   C3A13241  26.772  16.741   7.950
 5204POPC   C4A13242  26.840  16.687   7.650
 5204POPC   C1B13243  26.568  16.752   8.550
 5204POPC   C2B13244  26.568  16.693   8.250
 5204POPC   C3B13245  26.518  16.781   7.950
 5204POPC   C4B13246  26.605  16.766   7.650
 5205POPC   NC313247   8.968  27.573   9.450
 5205POPC   PO413248   8.939  27.544   9.150
 5205POPC   GL113249   8.934  27.570   8.850
 5205POPC   GL213250   9.083  27.516   8.850
 5205POPC   C1A13251   8.976  27.613   8.550
 5205POPC   D2A13252   8.987  27.558   8.250
 5205POPC   C3A13253   8.948  27.575   7.950
 5205POPC   C4A13254   8.975  27.622   7.650
 5205POPC   C1B13255   9.087  27.429   8.550
 5205POPC   C2B13256   9.158  27.342   8.250
 5205POPC   C3B13257   9.114  27.345   7.950
 5205POPC   C4B13258   9.156  27.350   7.650
 5206POPC   NC313259  33.028  10.482   9.450
 5206POPC   PO413260  32.980  10.497   9.150
 5206POPC   GL113261  33.012  10.475   8.850
 5206POPC   GL213262  32.949  10.464   8.850
 5206POPC   C1A13263  33.047  10.507   8.550
 5206POPC   D2A13264  32.983  10.497   8.250
 5206POPC   C3A13265  33.023  10.560   7.950
 5206POPC   C4A13266  32.999  10.481   7.650
 5206POPC   C1B13267  32.758  10.466   8.550
 5206POPC   C2B13268  32.763  10.479   8.250
 5206POPC   C3B13269  32.732  10.477   7.950
 5206POPC   C4B13270  32.787  10.485   7.650
 5207POPC   NC313271  43.067  11.325   9.450
 5207POPC   PO413272  43.087  11.335   9.150
 5207POPC   GL113273  43.127  11.275   8.850
 5207POPC   GL213274  43.067  11.249   8.850
 5207POPC   C1A13275  43.080  11.251   8.550
 5207POPC   D2A13276  43.137  11.256   8.250
 5207POPC   C3A13277  43.101  11.294   7.950
 5207POPC   C4A13278  43.114  11.336   7.650
 5207POPC   C1B13279  43.001  11.101   8.550
 5207POPC   C2B13280  42.943  11.091   8.250
 5207POPC   C3B13281  42.948  11.099   7.950
 5207POPC   C4B13282  42.960  11.093   7.650
 5208POPC   NC313283  28.326   4.337   9.450
 5208POPC   PO413284  28.378   4.277   9.150
 5208POPC   GL113285  28.335   4.319   8.850
 5208POPC   GL213286  28.452   4.275   8.850
 5208POPC   C1A13287  28.382   4.354   8.550
 5208POPC   D2A13288  28.379   4.312   8.250
 5208POPC   C3A13289  28.325   4.292   7.950
 5208POPC   C4A13290  28.376   4.345   7.650
 5208POPC   C1B13291  28.563   4.147   8.550
 5208POPC   C2B13292  28.564   4.153   8.250
 5208POPC   C3B13293  28.594   4.199   7.950
 5208POPC   C4B13294  28.604   4.223   7.650
 5209POPC   NC313295  26.805  12.860   9.450
 5209POPC   PO413296  26.812  12.809   9.150
 5209POPC   GL113297  26.837  12.896   8.850
 5209POPC   GL213298  26.739  12.763   8.850
 5209POPC   C1A13299  26.819  12.821   8.550
 5209POPC   D2A13300  26.783  12.813   8.250
 5209POPC   C3A13301  26.849  12.819   7.950
 5209POPC   C4A13302  26.784  12.862   7.650
 5209POPC   C1B13303  26.690  12.593   8.550
 5209POPC   C2B13304  26.675  12.632   8.250
 5209POPC   C3B13305  26.736  12.609   7.950
 5209POPC   C4B13306  26.722  12.654   7.650
 5210POPC   NC313307  28.343  20.640   9.450
 5210POPC   PO413308  28.391  20.600   9.150
 5210POPC   GL113309  28.415  20.616   8.850
 5210POPC   GL213310  28.216  20.535   8.850
 5210POPC   C1A13311  28.326  20.593   8.550
 5210POPC   D2A13312  28.392  20.607   8.250
 5210POPC   C3A13313  28.353  20.565   7.950
 5210POPC   C4A13314  28.340  20.578   7.650
 5210POPC   C1B13315  28.129  20.510   8.550
 5210POPC   C2B13316  28.145  20.479   8.250
 5210POPC   C3B13317  28.133  20.432   7.950
 5210POPC   C4B13318  28.165  20.422   7.650
 5211POPC   NC313319  15.208  27.568   9.450
 5211POPC   PO413320  15.152  27.569   9.150
 5211POPC   GL113321  15.227  27.629   8.850
 5211POPC   GL213322  15.271  27.593   8.850
 5211POPC   C1A13323  15.144  27.586   8.550
 5211POPC   D2A13324  15.219  27.641   8.250
 5211POPC   C3A13325  15.162  27.605   7.950
 5211POPC   C4A13326  15.180  27.563   7.650
 5211POPC   C1B13327  15.433  27.616   8.550
 5211POPC   C2B13328  15.466  27.653   8.250
 5211POPC   C3B13329  15.436  27.656   7.950
 5211POPC   C4B13330  15.423  27.644   7.650
 5212POPC   NC313331   3.514  12.040   9.450
 5212POPC   PO413332   3.577  12.101   9.150
 5212POPC   GL113333   3.495  12.049   8.850
 5212POPC   GL213334   3.537  11.977   8.850
 5212POPC   C1A13335   3.511  12.108   8.550
 5212POPC   D2A13336   3.546  12.047   8.250
 5212POPC   C3A13337   3.517  12.034   7.950
 5212POPC   C4A13338   3.570  12.038   7.650
 5212POPC   C1B13339   3.626  11.817   8.550
 5212POPC   C2B13340   3.679  11.829   8.250
 5212POPC   C3B13341   3.662  11.891   7.950
 5212POPC   C4B13342   3.663  11.858   7.650
 5213POPC   NC313343  17.527  38.505   9.450
 5213POPC   PO413344  17.522  38.444   9.150
 5213POPC   GL113345  17.548  38.457   8.850
 5213POPC   GL213346  17.363  38.546   8.850
 5213POPC   C1A13347  17.535  38.496   8.550
 5213POPC   D2A13348  17.494  38.496   8.250
 5213POPC   C3A13349  17.544  38.473   7.950
 5213POPC   C4A13350  17.537  38.439   7.650
 5213POPC   C1B13351  17.283  38.563   8.550
 5213POPC   C2B13352  17.264  38.561   8.250
 5213POPC   C3B13353  17.256  38.577   7.950
 5213POPC   C4B13354  17.256  38.595   7.650
 5214POPC   NC313355  42.302   7.455   9.450
 5214POPC   PO413356  42.305   7.452   9.150
 5214POPC   GL113357  42.331   7.427   8.850
 5214POPC   GL213358  42.432   7.394   8.850
 5214POPC   C1A13359  42.366   7.456   8.550
 5214POPC   D2A13360  42.328   7.432   8.250
 5214POPC   C3A13361  42.310   7.453   7.950
 5214POPC   C4A13362  42.370   7.384   7.650
 5214POPC   C1B13363  42.592   7.420   8.550
 5214POPC   C2B13364  42.613   7.484   8.250
 5214POPC   C3B13365  42.532   7.515   7.950
 5214POPC   C4B13366  42.619   7.459   7.650
 5215POPC   NC313367  43.909  11.335   9.450
 5215POPC   PO413368  43.903  11.282   9.150
 5215POPC   GL113369  43.850  11.277   8.850
 5215POPC   GL213370  43.961  11.240   8.850
 5215POPC   C1A13371  43.884  11.310   8.550
 5215POPC   D2A13372  43.844  11.272   8.250
 5215POPC   C3A13373  43.837  11.292   7.950
 5215POPC   C4A13374  43.933  11.259   7.650
 5215POPC   C1B13375  44.109  11.131   8.550
 5215POPC   C2B13376  44.089  11.198   8.250
 5215POPC   C3B13377  44.071  11.151   7.950
 5215POPC   C4B13378  44.089  11.175   7.650
 5216POPC   NC313379  11.346  35.374   9.450
 5216POPC   PO413380  11.282  35.318   9.150
 5216POPC   GL113381  11.325  35.393   8.850
 5216POPC   GL213382  11.290  35.514   8.850
 5216POPC   C1A13383  11.339  35.356   8.550
 5216POPC   D2A13384  11.287  35.368   8.250
 5216POPC   C3A13385  11.327  35.304   7.950
 5216POPC   C4A13386  11.330  35.306   7.650
 5216POPC   C1B13387  11.317  35.633   8.550
 5216POPC   C2B13388  11.337  35.624   8.250
 5216POPC   C3B13389  11.275  35.575   7.950
 5216POPC   C4B13390  11.307  35.624   7.650
 5217POPC   NC313391   8.977  39.995   9.450
 5217POPC   PO413392   8.941  40.056   9.150
 5217POPC   GL113393   9.017  39.979   8.850
 5217POPC   GL213394   8.879  40.035   8.850
 5217POPC   C1A13395   8.987  40.023   8.550
 5217POPC   D2A13396   8.942  39.974   8.250
 5217POPC   C3A13397   8.995  39.958   7.950
 5217POPC   C4A13398   8.944  40.003   7.650
 5217POPC   C1B13399   8.774  40.166   8.550
 5217POPC   C2B13400   8.760  40.129   8.250
 5217POPC   C3B13401   8.762  40.140   7.950
 5217POPC   C4B13402   8.767  40.128   7.650
 5218POPC   NC313403   4.361  26.867   9.450
 5218POPC   PO413404   4.307  26.795   9.150
 5218POPC   GL113405   4.350  26.806   8.850
 5218POPC   GL213406   4.235  26.885   8.850
 5218POPC   C1A13407   4.350  26.823   8.550
 5218POPC   D2A13408   4.308  26.815   8.250
 5218POPC   C3A13409   4.306  26.817   7.950
 5218POPC   C4A13410   4.320  26.829   7.650
 5218POPC   C1B13411   4.125  26.965   8.550
 5218POPC   C2B13412   4.047  26.892   8.250
 5218POPC   C3B13413   4.099  26.889   7.950
 5218POPC   C4B13414   4.143  26.893   7.650
 5219POPC   NC313415  30.708  10.563   9.450
 5219POPC   PO413416  30.655  10.564   9.150
 5219POPC   GL113417  30.709  10.476   8.850
 5219POPC   GL213418  30.774  10.524   8.850
 5219POPC   C1A13419  30.720  10.539   8.550
 5219POPC   D2A13420  30.691  10.564   8.250
 5219POPC   C3A13421  30.719  10.503   7.950
 5219POPC   C4A13422  30.724  10.562   7.650
 5219POPC   C1B13423  30.944  10.575   8.550
 5219POPC   C2B13424  30.947  10.544   8.250
 5219POPC   C3B13425  30.918  10.556   7.950
 5219POPC   C4B13426  30.926  10.608   7.650
 5220POPC   NC313427   6.662   1.214   9.450
 5220POPC   PO413428   6.637   1.259   9.150
 5220POPC   GL113429   6.649   1.193   8.850
 5220POPC   GL213430   6.627   1.310   8.850
 5220POPC   C1A13431   6.650   1.217   8.550
 5220POPC   D2A13432   6.663   1.226   8.250
 5220POPC   C3A13433   6.634   1.177   7.950
 5220POPC   C4A13434   6.694   1.249   7.650
 5220POPC   C1B13435   6.627   1.495   8.550
 5220POPC   C2B13436   6.610   1.463   8.250
 5220POPC   C3B13437   6.653   1.476   7.950
 5220POPC   C4B13438   6.636   1.431   7.650
 5221POPC   NC313439  39.252   3.560   9.450
 5221POPC   PO413440  39.196   3.494   9.150
 5221POPC   GL113441  39.233   3.583   8.850
 5221POPC   GL213442  39.319   3.586   8.850
 5221POPC   C1A13443  39.220   3.497   8.550
 5221POPC   D2A13444  39.213   3.513   8.250
 5221POPC   C3A13445  39.188   3.551   7.950
 5221POPC   C4A13446  39.258   3.531   7.650
 5221POPC   C1B13447  39.487   3.621   8.550
 5221POPC   C2B13448  39.403   3.652   8.250
 5221POPC   C3B13449  39.493   3.628   7.950
 5221POPC   C4B13450  39.491   3.637   7.650
 5222POPC   NC313451  15.153  18.238   9.450
 5222POPC   PO413452  15.165  18.295   9.150
 5222POPC   GL113453  15.183  18.234   8.850
 5222POPC   GL213454  15.166  18.455   8.850
 5222POPC   C1A13455  15.150  18.284   8.550
 5222POPC   D2A13456  15.164  18.252   8.250
 5222POPC   C3A13457  15.168  18.238   7.950
 5222POPC   C4A13458  15.195  18.233   7.650
 5222POPC   C1B13459  15.183  18.568   8.550
 5222POPC   C2B13460  15.247  18.548   8.250
 5222POPC   C3B13461  15.221  18.518   7.950
 5222POPC   C4B13462  15.199  18.549   7.650
 5223POPC   NC313463   5.123  36.889   9.450
 5223POPC   PO413464   5.105  36.951   9.150
 5223POPC   GL113465   5.099  36.935   8.850
 5223POPC   GL213466   5.207  36.990   8.850
 5223POPC   C1A13467   5.125  36.950   8.550
 5223POPC   D2A13468   5.139  36.893   8.250
 5223POPC   C3A13469   5.063  36.947   7.950
 5223POPC   C4A13470   5.122  36.865   7.650
 5223POPC   C1B13471   5.251  37.121   8.550
 5223POPC   C2B13472   5.213  37.070   8.250
 5223POPC   C3B13473   5.254  37.101   7.950
 5223POPC   C4B13474   5.293  37.119   7.650
 5224POPC   NC313475  29.936  28.349   9.450
 5224POPC   PO413476  29.896  28.354   9.150
 5224POPC   GL113477  29.941  28.406   8.850
 5224POPC   GL213478  29.865  28.248   8.850
 5224POPC   C1A13479  29.946  28.372   8.550
 5224POPC   D2A13480  29.895  28.389   8.250
 5224POPC   C3A13481  29.932  28.352   7.950
 5224POPC   C4A13482  29.958  28.414   7.650
 5224POPC   C1B13483  29.823  28.206   8.550
 5224POPC   C2B13484  29.784  28.117   8.250
 5224POPC   C3B13485  29.758  28.144   7.950
 5224POPC   C4B13486  29.798  28.117   7.650
 5225POPC   NC313487   8.201  44.624   9.450
 5225POPC   PO413488   8.150  44.686   9.150
 5225POPC   GL113489   8.162  44.677   8.850
 5225POPC   GL213490   8.060  44.589   8.850
 5225POPC   C1A13491   8.237  44.685   8.550
 5225POPC   D2A13492   8.226  44.612   8.250
 5225POPC   C3A13493   8.151  44.685   7.950
 5225POPC   C4A13494   8.188  44.665   7.650
 5225POPC   C1B13495   7.993  44.531   8.550
 5225POPC   C2B13496   8.032  44.485   8.250
 5225POPC   C3B13497   7.967  44.461   7.950
 5225POPC   C4B13498   8.034  44.453   7.650
 5226POPC   NC313499   0.394  13.597   9.450
 5226POPC   PO413500   0.428  13.647   9.150
 5226POPC   GL113501   0.460  13.591   8.850
 5226POPC   GL213502   0.470  13.765   8.850
 5226POPC   C1A13503   0.474  13.613   8.550
 5226POPC   D2A13504   0.393  13.621   8.250
 5226POPC   C3A13505   0.449  13.668   7.950
 5226POPC   C4A13506   0.429  13.630   7.650
 5226POPC   C1B13507   0.498  13.817   8.550
 5226POPC   C2B13508   0.518  13.909   8.250
 5226POPC   C3B13509   0.485  13.904   7.950
 5226POPC   C4B13510   0.522  13.817   7.650
 5227POPC   NC313511   8.195  40.820   9.450
 5227POPC   PO413512   8.213  40.736   9.150
 5227POPC   GL113513   8.234  40.775   8.850
 5227POPC   GL213514   8.317  40.771   8.850
 5227POPC   C1A13515   8.225  40.773   8.550
 5227POPC   D2A13516   8.228  40.768   8.250
 5227POPC   C3A13517   8.170  40.772   7.950
 5227POPC   C4A13518   8.175  40.804   7.650
 5227POPC   C1B13519   8.398  40.672   8.550
 5227POPC   C2B13520   8.474  40.715   8.250
 5227POPC   C3B13521   8.486  40.691   7.950
 5227POPC   C4B13522   8.437  40.708   7.650
 5228POPC   NC313523  11.309  11.325   9.450
 5228POPC   PO413524  11.298  11.252   9.150
 5228POPC   GL113525  11.253  11.343   8.850
 5228POPC   GL213526  11.382  11.161   8.850
 5228POPC   C1A13527  11.254  11.325   8.550
 5228POPC   D2A13528  11.335  11.275   8.250
 5228POPC   C3A13529  11.318  11.340   7.950
 5228POPC   C4A13530  11.280  11.294   7.650
 5228POPC   C1B13531  11.405  11.045   8.550
 5228POPC   C2B13532  11.473  11.109   8.250
 5228POPC   C3B13533  11.457  11.074   7.950
 5228POPC   C4B13534  11.428  11.087   7.650
 5229POPC   NC313535   5.855   2.798   9.450
 5229POPC   PO413536   5.872   2.760   9.150
 5229POPC   GL113537   5.907   2.783   8.850
 5229POPC   GL213538   6.025   2.747   8.850
 5229POPC   C1A13539   5.835   2.766   8.550
 5229POPC   D2A13540   5.905   2.789   8.250
 5229POPC   C3A13541   5.894   2.796   7.950
 5229POPC   C4A13542   5.832   2.798   7.650
 5229POPC   C1B13543   6.139   2.702   8.550
 5229POPC   C2B13544   6.162   2.695   8.250
 5229POPC   C3B13545   6.151   2.691   7.950
 5229POPC   C4B13546   6.086   2.669   7.650
 5230POPC   NC313547   8.942   1.204   9.450
 5230POPC   PO413548   8.945   1.209   9.150
 5230POPC   GL113549   8.943   1.221   8.850
 5230POPC   GL213550   9.018   1.084   8.850
 5230POPC   C1A13551   9.022   1.179   8.550
 5230POPC   D2A13552   9.000   1.166   8.250
 5230POPC   C3A13553   8.933   1.221   7.950
 5230POPC   C4A13554   8.945   1.226   7.650
 5230POPC   C1B13555   8.988   0.917   8.550
 5230POPC   C2B13556   9.007   1.002   8.250
 5230POPC   C3B13557   9.032   0.941   7.950
 5230POPC   C4B13558   9.028   0.926   7.650
 5231POPC   NC313559  35.339  16.753   9.450
 5231POPC   PO413560  35.317  16.697   9.150
 5231POPC   GL113561  35.351  16.722   8.850
 5231POPC   GL213562  35.197  16.712   8.850
 5231POPC   C1A13563  35.355  16.778   8.550
 5231POPC   D2A13564  35.367  16.708   8.250
 5231POPC   C3A13565  35.368  16.748   7.950
 5231POPC   C4A13566  35.309  16.690   7.650
 5231POPC   C1B13567  35.085  16.717   8.550
 5231POPC   C2B13568  35.128  16.733   8.250
 5231POPC   C3B13569  35.098  16.763   7.950
 5231POPC   C4B13570  35.116  16.779   7.650
 5232POPC   NC313571  28.416  26.077   9.450
 5232POPC   PO413572  28.393  26.074   9.150
 5232POPC   GL113573  28.320  26.083   8.850
 5232POPC   GL213574  28.483  26.105   8.850
 5232POPC   C1A13575  28.353  26.054   8.550
 5232POPC   D2A13576  28.416  26.024   8.250
 5232POPC   C3A13577  28.331  26.067   7.950
 5232POPC   C4A13578  28.338  26.069   7.650
 5232POPC   C1B13579  28.552  26.189   8.550
 5232POPC   C2B13580  28.621  26.202   8.250
 5232POPC   C3B13581  28.614  26.131   7.950
 5232POPC   C4B13582  28.625  26.125   7.650
 5233POPC   NC313583  22.192  16.764   9.450
 5233POPC   PO413584  22.177  16.688   9.150
 5233POPC   GL113585  22.115  16.772   8.850
 5233POPC   GL213586  22.298  16.639   8.850
 5233POPC   C1A13587  22.156  16.776   8.550
 5233POPC   D2A13588  22.164  16.685   8.250
 5233POPC   C3A13589  22.141  16.699   7.950
 5233POPC   C4A13590  22.143  16.741   7.650
 5233POPC   C1B13591  22.392  16.563   8.550
 5233POPC   C2B13592  22.350  16.651   8.250
 5233POPC   C3B13593  22.419  16.573   7.950
 5233POPC   C4B13594  22.406  16.602   7.650
 5234POPC   NC313595  12.833  17.478   9.450
 5234POPC   PO413596  12.829  17.469   9.150
 5234POPC   GL113597  12.837  17.482   8.850
 5234POPC   GL213598  12.742  17.596   8.850
 5234POPC   C1A13599  12.876  17.546   8.550
 5234POPC   D2A13600  12.855  17.519   8.250
 5234POPC   C3A13601  12.822  17.510   7.950
 5234POPC   C4A13602  12.824  17.474   7.650
 5234POPC   C1B13603  12.678  17.758   8.550
 5234POPC   C2B13604  12.705  17.753   8.250
 5234POPC   C3B13605  12.745  17.679   7.950
 5234POPC   C4B13606  12.742  17.663   7.650
 5235POPC   NC313607  28.376  29.191   9.450
 5235POPC   PO413608  28.394  29.098   9.150
 5235POPC   GL113609  28.320  29.101   8.850
 5235POPC   GL213610  28.474  29.254   8.850
 5235POPC   C1A13611  28.355  29.146   8.550
 5235POPC   D2A13612  28.414  29.123   8.250
 5235POPC   C3A13613  28.345  29.148   7.950
 5235POPC   C4A13614  28.324  29.136   7.650
 5235POPC   C1B13615  28.540  29.320   8.550
 5235POPC   C2B13616  28.527  29.348   8.250
 5235POPC   C3B13617  28.529  29.345   7.950
 5235POPC   C4B13618  28.525  29.370   7.650
 5236POPC   NC313619  34.526   0.411   9.450
 5236POPC   PO413620  34.582   0.485   9.150
 5236POPC   GL113621  34.569   0.453   8.850
 5236POPC   GL213622  34.479   0.452   8.850
 5236POPC   C1A13623  34.572   0.473   8.550
 5236POPC   D2A13624  34.620   0.460   8.250
 5236POPC   C3A13625  34.592   0.389   7.950
 5236POPC   C4A13626  34.587   0.480   7.650
 5236POPC   C1B13627  34.344   0.484   8.550
 5236POPC   C2B13628  34.325   0.510   8.250
 5236POPC   C3B13629  34.365   0.494   7.950
 5236POPC   C4B13630  34.319   0.555   7.650
 5237POPC   NC313631  19.810  31.476   9.450
 5237POPC   PO413632  19.826  31.490   9.150
 5237POPC   GL113633  19.840  31.522   8.850
 5237POPC   GL213634  19.816  31.310   8.850
 5237POPC   C1A13635  19.816  31.436   8.550
 5237POPC   D2A13636  19.864  31.481   8.250
 5237POPC   C3A13637  19.789  31.444   7.950
 5237POPC   C4A13638  19.793  31.439   7.650
 5237POPC   C1B13639  19.907  31.214   8.550
 5237POPC   C2B13640  19.849  31.268   8.250
 5237POPC   C3B13641  19.886  31.202   7.950
 5237POPC   C4B13642  19.877  31.273   7.650
 5238POPC   NC313643  37.684  12.828   9.450
 5238POPC   PO413644  37.645  12.826   9.150
 5238POPC   GL113645  37.688  12.866   8.850
 5238POPC   GL213646  37.594  12.844   8.850
 5238POPC   C1A13647  37.652  12.859   8.550
 5238POPC   D2A13648  37.631  12.818   8.250
 5238POPC   C3A13649  37.648  12.899   7.950
 5238POPC   C4A13650  37.657  12.886   7.650
 5238POPC   C1B13651  37.435  12.889   8.550
 5238POPC   C2B13652  37.435  12.883   8.250
 5238POPC   C3B13653  37.462  12.875   7.950
 5238POPC   C4B13654  37.404  12.880   7.650
 5239POPC   NC313655  15.181  21.426   9.450
 5239POPC   PO413656  15.209  21.430   9.150
 5239POPC   GL113657  15.210  21.425   8.850
 5239POPC   GL213658  15.091  21.493   8.850
 5239POPC   C1A13659  15.227  21.356   8.550
 5239POPC   D2A13660  15.147  21.381   8.250
 5239POPC   C3A13661  15.149  21.364   7.950
 5239POPC   C4A13662  15.136  21.393   7.650
 5239POPC   C1B13663  15.007  21.609   8.550
 5239POPC   C2B13664  14.991  21.570   8.250
 5239POPC   C3B13665  15.052  21.530   7.950
 5239POPC   C4B13666  15.044  21.525   7.650
 5240POPC   NC313667  37.705  22.931   9.450
 5240POPC   PO413668  37.691  22.980   9.150
 5240POPC   GL113669  37.637  22.963   8.850
 5240POPC   GL213670  37.685  23.110   8.850
 5240POPC   C1A13671  37.649  22.909   8.550
 5240POPC   D2A13672  37.721  22.900   8.250
 5240POPC   C3A13673  37.702  22.947   7.950
 5240POPC   C4A13674  37.714  22.977   7.650
 5240POPC   C1B13675  37.612  23.173   8.550
 5240POPC   C2B13676  37.656  23.235   8.250
 5240POPC   C3B13677  37.616  23.159   7.950
 5240POPC   C4B13678  37.612  23.141   7.650
 5241POPC   NC313679  29.115  13.579   9.450
 5241POPC   PO413680  29.106  13.663   9.150
 5241POPC   GL113681  29.173  13.668   8.850
 5241POPC   GL213682  29.061  13.762   8.850
 5241POPC   C1A13683  29.116  13.594   8.550
 5241POPC   D2A13684  29.177  13.618   8.250
 5241POPC   C3A13685  29.106  13.590   7.950
 5241POPC   C4A13686  29.158  13.667   7.650
 5241POPC   C1B13687  28.969  13.813   8.550
 5241POPC   C2B13688  28.980  13.771   8.250
 5241POPC   C3B13689  28.991  13.800   7.950
 5241POPC   C4B13690  28.990  13.828   7.650
 5242POPC   NC313691   8.959  31.499   9.450
 5242POPC   PO413692   8.932  31.456   9.150
 5242POPC   GL113693   8.944  31.515   8.850
 5242POPC   GL213694   8.874  31.530   8.850
 5242POPC   C1A13695   8.994  31.493   8.550
 5242POPC   D2A13696   8.995  31.457   8.250
 5242POPC   C3A13697   8.941  31.483   7.950
 5242POPC   C4A13698   8.923  31.486   7.650
 5242POPC   C1B13699   8.756  31.622   8.550
 5242POPC   C2B13700   8.785  31.691   8.250
 5242POPC   C3B13701   8.778  31.628   7.950
 5242POPC   C4B13702   8.771  31.685   7.650
 5243POPC   NC313703   9.700  43.122   9.450
 5243POPC   PO413704   9.718  43.089   9.150
 5243POPC   GL113705   9.727  43.157   8.850
 5243POPC   GL213706   9.643  43.241   8.850
 5243POPC   C1A13707   9.710  43.082   8.550
 5243POPC   D2A13708   9.789  43.160   8.250
 5243POPC   C3A13709   9.758  43.073   7.950
 5243POPC   C4A13710   9.756  43.063   7.650
 5243POPC   C1B13711   9.545  43.263   8.550
 5243POPC   C2B13712   9.558  43.328   8.250
 5243POPC   C3B13713   9.553  43.337   7.950
 5243POPC   C4B13714   9.591  43.274   7.650
 5244POPC   NC313715  19.819  43.107   9.450
 5244POPC   PO413716  19.790  43.080   9.150
 5244POPC   GL113717  19.804  43.106   8.850
 5244POPC   GL213718  19.873  43.236   8.850
 5244POPC   C1A13719  19.854  43.089   8.550
 5244POPC   D2A13720  19.800  43.130   8.250
 5244POPC   C3A13721  19.828  43.134   7.950
 5244POPC   C4A13722  19.864  43.092   7.650
 5244POPC   C1B13723  20.031  43.288   8.550
 5244POPC   C2B13724  20.020  43.300   8.250
 5244POPC   C3B13725  19.989  43.321   7.950
 5244POPC   C4B13726  20.023  43.252   7.650
 5245POPC   NC313727   8.165   6.675   9.450
 5245POPC   PO413728   8.205   6.614   9.150
 5245POPC   GL113729   8.238   6.683   8.850
 5245POPC   GL213730   8.236   6.727   8.850
 5245POPC   C1A13731   8.156   6.687   8.550
 5245POPC   D2A13732   8.208   6.606   8.250
 5245POPC   C3A13733   8.195   6.624   7.950
 5245POPC   C4A13734   8.197   6.600   7.650
 5245POPC   C1B13735   8.375   6.836   8.550
 5245POPC   C2B13736   8.325   6.807   8.250
 5245POPC   C3B13737   8.384   6.874   7.950
 5245POPC   C4B13738   8.305   6.819   7.650
 5246POPC   NC313739   5.056  19.063   9.450
 5246POPC   PO413740   5.062  19.011   9.150
 5246POPC   GL113741   5.136  19.014   8.850
 5246POPC   GL213742   5.194  19.084   8.850
 5246POPC   C1A13743   5.084  19.066   8.550
 5246POPC   D2A13744   5.084  19.017   8.250
 5246POPC   C3A13745   5.121  19.083   7.950
 5246POPC   C4A13746   5.113  19.009   7.650
 5246POPC   C1B13747   5.384  19.032   8.550
 5246POPC   C2B13748   5.357  19.092   8.250
 5246POPC   C3B13749   5.337  18.996   7.950
 5246POPC   C4B13750   5.361  19.034   7.650
 5247POPC   NC313751   5.912   5.072   9.450
 5247POPC   PO413752   5.888   5.065   9.150
 5247POPC   GL113753   5.914   5.122   8.850
 5247POPC   GL213754   5.803   4.979   8.850
 5247POPC   C1A13755   5.895   5.119   8.550
 5247POPC   D2A13756   5.829   5.058   8.250
 5247POPC   C3A13757   5.883   5.143   7.950
 5247POPC   C4A13758   5.837   5.084   7.650
 5247POPC   C1B13759   5.688   4.874   8.550
 5247POPC   C2B13760   5.739   4.871   8.250
 5247POPC   C3B13761   5.695   4.925   7.950
 5247POPC   C4B13762   5.671   4.939   7.650
 5248POPC   NC313763  24.472   0.400   9.450
 5248POPC   PO413764  24.519   0.432   9.150
 5248POPC   GL113765  24.533   0.472   8.850
 5248POPC   GL213766  24.369   0.359   8.850
 5248POPC   C1A13767  24.486   0.429   8.550
 5248POPC   D2A13768  24.448   0.454   8.250
 5248POPC   C3A13769  24.457   0.402   7.950
 5248POPC   C4A13770  24.498   0.433   7.650
 5248POPC   C1B13771  24.283   0.333   8.550
 5248POPC   C2B13772  24.264   0.325   8.250
 5248POPC   C3B13773  24.274   0.347   7.950
 5248POPC   C4B13774  24.260   0.320   7.650
 5249POPC   NC313775  20.566   5.843   9.450
 5249POPC   PO413776  20.638   5.860   9.150
 5249POPC   GL113777  20.605   5.870   8.850
 5249POPC   GL213778  20.532   5.729   8.850
 5249POPC   C1A13779  20.623   5.899   8.550
 5249POPC   D2A13780  20.595   5.846   8.250
 5249POPC   C3A13781  20.631   5.845   7.950
 5249POPC   C4A13782  20.621   5.846   7.650
 5249POPC   C1B13783  20.414   5.634   8.550
 5249POPC   C2B13784  20.454   5.678   8.250
 5249POPC   C3B13785  20.439   5.634   7.950
 5249POPC   C4B13786  20.449   5.698   7.650
 5250POPC   NC313787  19.022  11.339   9.450
 5250POPC   PO413788  19.018  11.268   9.150
 5250POPC   GL113789  19.037  11.344   8.850
 5250POPC   GL213790  19.073  11.148   8.850
 5250POPC   C1A13791  19.056  11.292   8.550
 5250POPC   D2A13792  19.063  11.295   8.250
 5250POPC   C3A13793  19.070  11.330   7.950
 5250POPC   C4A13794  19.108  11.261   7.650
 5250POPC   C1B13795  19.016  11.065   8.550
 5250POPC   C2B13796  18.998  11.083   8.250
 5250POPC   C3B13797  19.038  11.073   7.950
 5250POPC   C4B13798  19.073  11.084   7.650
 5251POPC   NC313799  15.965  32.260   9.450
 5251POPC   PO413800  15.946  32.259   9.150
 5251POPC   GL113801  15.983  32.225   8.850
 5251POPC   GL213802  16.078  32.317   8.850
 5251POPC   C1A13803  15.981  32.266   8.550
 5251POPC   D2A13804  15.918  32.218   8.250
 5251POPC   C3A13805  16.003  32.229   7.950
 5251POPC   C4A13806  16.001  32.272   7.650
 5251POPC   C1B13807  16.168  32.404   8.550
 5251POPC   C2B13808  16.194  32.363   8.250
 5251POPC   C3B13809  16.137  32.442   7.950
 5251POPC   C4B13810  16.176  32.429   7.650
 5252POPC   NC313811  43.916  38.419   9.450
 5252POPC   PO413812  43.902  38.455   9.150
 5252POPC   GL113813  43.859  38.414   8.850
 5252POPC   GL213814  43.894  38.584   8.850
 5252POPC   C1A13815  43.856  38.492   8.550
 5252POPC   D2A13816  43.851  38.451   8.250
 5252POPC   C3A13817  43.853  38.426   7.950
 5252POPC   C4A13818  43.916  38.464   7.650
 5252POPC   C1B13819  43.917  38.730   8.550
 5252POPC   C2B13820  43.908  38.741   8.250
 5252POPC   C3B13821  43.959  38.667   7.950
 5252POPC   C4B13822  43.934  38.686   7.650
 5253POPC   NC313823   0.466   9.718   9.450
 5253POPC   PO413824   0.419   9.750   9.150
 5253POPC   GL113825   0.390   9.747   8.850
 5253POPC   GL213826   0.426   9.593   8.850
 5253POPC   C1A13827   0.426   9.780   8.550
 5253POPC   D2A13828   0.390   9.781   8.250
 5253POPC   C3A13829   0.423   9.772   7.950
 5253POPC   C4A13830   0.473   9.710   7.650
 5253POPC   C1B13831   0.357   9.470   8.550
 5253POPC   C2B13832   0.378   9.526   8.250
 5253POPC   C3B13833   0.371   9.553   7.950
 5253POPC   C4B13834   0.371   9.497   7.650
 5254POPC   NC313835   7.444  36.153   9.450
 5254POPC   PO413836   7.395  36.114   9.150
 5254POPC   GL113837   7.396  36.155   8.850
 5254POPC   GL213838   7.519  36.188   8.850
 5254POPC   C1A13839   7.456  36.165   8.550
 5254POPC   D2A13840   7.419  36.138   8.250
 5254POPC   C3A13841   7.438  36.161   7.950
 5254POPC   C4A13842   7.468  36.177   7.650
 5254POPC   C1B13843   7.596  36.326   8.550
 5254POPC   C2B13844   7.650  36.272   8.250
 5254POPC   C3B13845   7.622  36.314   7.950
 5254POPC   C4B13846   7.586  36.318   7.650
 5255POPC   NC313847   9.774  43.902   9.450
 5255POPC   PO413848   9.796  43.907   9.150
 5255POPC   GL113849   9.774  43.931   8.850
 5255POPC   GL213850   9.638  43.936   8.850
 5255POPC   C1A13851   9.750  43.841   8.550
 5255POPC   D2A13852   9.784  43.913   8.250
 5255POPC   C3A13853   9.729  43.891   7.950
 5255POPC   C4A13854   9.705  43.894   7.650
 5255POPC   C1B13855   9.558  44.042   8.550
 5255POPC   C2B13856   9.530  44.007   8.250
 5255POPC   C3B13857   9.498  44.030   7.950
 5255POPC   C4B13858   9.590  44.070   7.650
 5256POPC   NC313859  31.512  19.065   9.450
 5256POPC   PO413860  31.454  19.031   9.150
 5256POPC   GL113861  31.502  19.052   8.850
 5256POPC   GL213862  31.387  19.048   8.850
 5256POPC   C1A13863  31.475  19.087   8.550
 5256POPC   D2A13864  31.435  19.060   8.250
 5256POPC   C3A13865  31.429  19.101   7.950
 5256POPC   C4A13866  31.520  19.019   7.650
 5256POPC   C1B13867  31.179  19.059   8.550
 5256POPC   C2B13868  31.253  19.045   8.250
 5256POPC   C3B13869  31.210  19.075   7.950
 5256POPC   C4B13870  31.181  19.107   7.650
 5257POPC   NC313871  18.295  39.252   9.450
 5257POPC   PO413872  18.260  39.192   9.150
 5257POPC   GL113873  18.278  39.199   8.850
 5257POPC   GL213874  18.190  39.130   8.850
 5257POPC   C1A13875  18.245  39.271   8.550
 5257POPC   D2A13876  18.306  39.258   8.250
 5257POPC   C3A13877  18.246  39.189   7.950
 5257POPC   C4A13878  18.249  39.267   7.650
 5257POPC   C1B13879  18.082  39.021   8.550
 5257POPC   C2B13880  18.110  39.049   8.250
 5257POPC   C3B13881  18.139  39.053   7.950
 5257POPC   C4B13882  18.108  39.049   7.650
 5258POPC   NC313883  10.526  25.224   9.450
 5258POPC   PO413884  10.571  25.302   9.150
 5258POPC   GL113885  10.552  25.311   8.850
 5258POPC   GL213886  10.557  25.332   8.850
 5258POPC   C1A13887  10.504  25.305   8.550
 5258POPC   D2A13888  10.530  25.275   8.250
 5258POPC   C3A13889  10.506  25.274   7.950
 5258POPC   C4A13890  10.485  25.236   7.650
 5258POPC   C1B13891  10.685  25.531   8.550
 5258POPC   C2B13892  10.661  25.524   8.250
 5258POPC   C3B13893  10.679  25.516   7.950
 5258POPC   C4B13894  10.677  25.519   7.650
 5259POPC   NC313895   1.248  32.272   9.450
 5259POPC   PO413896   1.176  32.272   9.150
 5259POPC   GL113897   1.213  32.271   8.850
 5259POPC   GL213898   1.293  32.215   8.850
 5259POPC   C1A13899   1.197  32.228   8.550
 5259POPC   D2A13900   1.197  32.207   8.250
 5259POPC   C3A13901   1.185  32.290   7.950
 5259POPC   C4A13902   1.221  32.292   7.650
 5259POPC   C1B13903   1.470  32.189   8.550
 5259POPC   C2B13904   1.500  32.189   8.250
 5259POPC   C3B13905   1.461  32.195   7.950
 5259POPC   C4B13906   1.478  32.147   7.650
 5260POPC   NC313907  28.343  12.824   9.450
 5260POPC   PO413908  28.347  12.802   9.150
 5260POPC   GL113909  28.392  12.873   8.850
 5260POPC   GL213910  28.473  13.003   8.850
 5260POPC   C1A13911  28.392  12.861   8.550
 5260POPC   D2A13912  28.381  12.845   8.250
 5260POPC   C3A13913  28.391  12.855   7.950
 5260POPC   C4A13914  28.362  12.831   7.650
 5260POPC   C1B13915  28.461  13.108   8.550
 5260POPC   C2B13916  28.479  13.076   8.250
 5260POPC   C3B13917  28.553  13.057   7.950
 5260POPC   C4B13918  28.493  13.020   7.650
 5261POPC   NC313919   6.647  15.993   9.450
 5261POPC   PO413920   6.634  15.933   9.150
 5261POPC   GL113921   6.640  15.936   8.850
 5261POPC   GL213922   6.571  16.019   8.850
 5261POPC   C1A13923   6.636  15.992   8.550
 5261POPC   D2A13924   6.633  15.916   8.250
 5261POPC   C3A13925   6.620  15.930   7.950
 5261POPC   C4A13926   6.600  15.980   7.650
 5261POPC   C1B13927   6.450  16.118   8.550
 5261POPC   C2B13928   6.499  16.104   8.250
 5261POPC   C3B13929   6.464  16.169   7.950
 5261POPC   C4B13930   6.510  16.109   7.650
 5262POPC   NC313931   7.445  29.940   9.450
 5262POPC   PO413932   7.462  29.906   9.150
 5262POPC   GL113933   7.387  29.883   8.850
 5262POPC   GL213934   7.343  30.012   8.850
 5262POPC   C1A13935   7.460  29.880   8.550
 5262POPC   D2A13936   7.457  29.907   8.250
 5262POPC   C3A13937   7.467  29.940   7.950
 5262POPC   C4A13938   7.434  29.928   7.650
 5262POPC   C1B13939   7.322  30.173   8.550
 5262POPC   C2B13940   7.275  30.138   8.250
 5262POPC   C3B13941   7.337  30.111   7.950
 5262POPC   C4B13942   7.311  30.178   7.650
 5263POPC   NC313943  38.432   0.402   9.450
 5263POPC   PO413944  38.498   0.462   9.150
 5263POPC   GL113945  38.448   0.390   8.850
 5263POPC   GL213946  38.310   0.385   8.850
 5263POPC   C1A13947  38.475   0.415   8.550
 5263POPC   D2A13948  38.452   0.451   8.250
 5263POPC   C3A13949  38.491   0.473   7.950
 5263POPC   C4A13950  38.430   0.402   7.650
 5263POPC   C1B13951  38.251   0.255   8.550
 5263POPC   C2B13952  38.297   0.333   8.250
 5263POPC   C3B13953  38.236   0.264   7.950
 5263POPC   C4B13954  38.276   0.290   7.650
 5264POPC   NC313955  29.954   3.539   9.450
 5264POPC   PO413956  29.938   3.544   9.150
 5264POPC   GL113957  29.874   3.589   8.850
 5264POPC   GL213958  29.840   3.678   8.850
 5264POPC   C1A13959  29.967   3.532   8.550
 5264POPC   D2A13960  29.909   3.556   8.250
 5264POPC   C3A13961  29.895   3.538   7.950
 5264POPC   C4A13962  29.957   3.556   7.650
 5264POPC   C1B13963  29.822   3.775   8.550
 5264POPC   C2B13964  29.811   3.735   8.250
 5264POPC   C3B13965  29.850   3.779   7.950
 5264POPC   C4B13966  29.790   3.734   7.650
 5265POPC   NC313967  16.738   9.787   9.450
 5265POPC   PO413968  16.721   9.744   9.150
 5265POPC   GL113969  16.731   9.725   8.850
 5265POPC   GL213970  16.753   9.868   8.850
 5265POPC   C1A13971  16.762   9.733   8.550
 5265POPC   D2A13972  16.763   9.764   8.250
 5265POPC   C3A13973  16.746   9.705   7.950
 5265POPC   C4A13974  16.760   9.730   7.650
 5265POPC   C1B13975  16.907   9.962   8.550
 5265POPC   C2B13976  16.884   9.989   8.250
 5265POPC   C3B13977  16.812  10.010   7.950
 5265POPC   C4B13978  16.844  10.010   7.650
 5266POPC   NC313979   2.779  10.532   9.450
 5266POPC   PO413980   2.782  10.561   9.150
 5266POPC   GL113981   2.746  10.532   8.850
 5266POPC   GL213982   2.786  10.420   8.850
 5266POPC   C1A13983   2.771  10.555   8.550
 5266POPC   D2A13984   2.745  10.528   8.250
 5266POPC   C3A13985   2.774  10.565   7.950
 5266POPC   C4A13986   2.765  10.479   7.650
 5266POPC   C1B13987   2.772  10.320   8.550
 5266POPC   C2B13988   2.780  10.324   8.250
 5266POPC   C3B13989   2.753  10.274   7.950
 5266POPC   C4B13990   2.813  10.296   7.650
 5267POPC   NC313991  19.804   2.759   9.450
 5267POPC   PO413992  19.823   2.753   9.150
 5267POPC   GL113993  19.816   2.813   8.850
 5267POPC   GL213994  19.981   2.684   8.850
 5267POPC   C1A13995  19.827   2.767   8.550
 5267POPC   D2A13996  19.828   2.742   8.250
 5267POPC   C3A13997  19.864   2.808   7.950
 5267POPC   C4A13998  19.876   2.735   7.650
 5267POPC   C1B13999  20.054   2.625   8.550
 5267POPC   C2B14000  20.040   2.709   8.250
 5267POPC   C3B14001  20.106   2.711   7.950
 5267POPC   C4B14002  20.056   2.658   7.650
 5268POPC   NC314003  18.286  29.109   9.450
 5268POPC   PO414004  18.238  29.143   9.150
 5268POPC   GL114005  18.285  29.175   8.850
 5268POPC   GL214006  18.206  29.116   8.850
 5268POPC   C1A14007  18.317  29.160   8.550
 5268POPC   D2A14008  18.320  29.180   8.250
 5268POPC   C3A14009  18.258  29.149   7.950
 5268POPC   C4A14010  18.280  29.166   7.650
 5268POPC   C1B14011  18.099  29.073   8.550
 5268POPC   C2B14012  18.044  29.031   8.250
 5268POPC   C3B14013  18.106  29.052   7.950
 5268POPC   C4B14014  18.025  29.060   7.650
 5269POPC   NC314015  33.767  22.924   9.450
 5269POPC   PO414016  33.762  22.978   9.150
 5269POPC   GL114017  33.846  22.960   8.850
 5269POPC   GL214018  33.823  22.849   8.850
 5269POPC   C1A14019  33.823  22.921   8.550
 5269POPC   D2A14020  33.843  22.987   8.250
 5269POPC   C3A14021  33.791  22.962   7.950
 5269POPC   C4A14022  33.846  22.972   7.650
 5269POPC   C1B14023  33.863  22.710   8.550
 5269POPC   C2B14024  33.883  22.685   8.250
 5269POPC   C3B14025  33.868  22.681   7.950
 5269POPC   C4B14026  33.855  22.644   7.650
 5270POPC   NC314027  26.800  44.629   9.450
 5270POPC   PO414028  26.777  44.650   9.150
 5270POPC   GL114029  26.865  44.665   8.850
 5270POPC   GL214030  26.718  44.645   8.850
 5270POPC   C1A14031  26.784  44.626   8.550
 5270POPC   D2A14032  26.849  44.636   8.250
 5270POPC   C3A14033  26.848  44.616   7.950
 5270POPC   C4A14034  26.820  44.647   7.650
 5270POPC   C1B14035  26.559  44.696   8.550
 5270POPC   C2B14036  26.551  44.643   8.250
 5270POPC   C3B14037  26.524  44.660   7.950
 5270POPC   C4B14038  26.570  44.635   7.650
 5271POPC   NC314039  14.382  42.358   9.450
 5271POPC   PO414040  14.407  42.381   9.150
 5271POPC   GL114041  14.373  42.365   8.850
 5271POPC   GL214042  14.508  42.256   8.850
 5271POPC   C1A14043  14.440  42.346   8.550
 5271POPC   D2A14044  14.417  42.308   8.250
 5271POPC   C3A14045  14.354  42.324   7.950
 5271POPC   C4A14046  14.359  42.296   7.650
 5271POPC   C1B14047  14.594  42.285   8.550
 5271POPC   C2B14048  14.667  42.266   8.250
 5271POPC   C3B14049  14.652  42.214   7.950
 5271POPC   C4B14050  14.631  42.218   7.650
 5272POPC   NC314051  22.182  22.127   9.450
 5272POPC   PO414052  22.145  22.198   9.150
 5272POPC   GL114053  22.200  22.204   8.850
 5272POPC   GL214054  22.137  22.233   8.850
 5272POPC   C1A14055  22.186  22.171   8.550
 5272POPC   D2A14056  22.167  22.202   8.250
 5272POPC   C3A14057  22.209  22.135   7.950
 5272POPC   C4A14058  22.150  22.192   7.650
 5272POPC   C1B14059  22.032  22.419   8.550
 5272POPC   C2B14060  22.081  22.434   8.250
 5272POPC   C3B14061  22.048  22.437   7.950
 5272POPC   C4B14062  22.030  22.418   7.650
 5273POPC   NC314063  21.427  31.486   9.450
 5273POPC   PO414064  21.424  31.494   9.150
 5273POPC   GL114065  21.394  31.437   8.850
 5273POPC   GL214066  21.361  31.565   8.850
 5273POPC   C1A14067  21.381  31.484   8.550
 5273POPC   D2A14068  21.383  31.423   8.250
 5273POPC   C3A14069  21.367  31.450   7.950
 5273POPC   C4A14070  21.372  31.473   7.650
 5273POPC   C1B14071  21.305  31.689   8.550
 5273POPC   C2B14072  21.304  31.751   8.250
 5273POPC   C3B14073  21.333  31.673   7.950
 5273POPC   C4B14074  21.370  31.750   7.650
 5274POPC   NC314075  14.407  26.832   9.450
 5274POPC   PO414076  14.404  26.800   9.150
 5274POPC   GL114077  14.412  26.790   8.850
 5274POPC   GL214078  14.467  26.750   8.850
 5274POPC   C1A14079  14.421  26.807   8.550
 5274POPC   D2A14080  14.395  26.805   8.250
 5274POPC   C3A14081  14.369  26.825   7.950
 5274POPC   C4A14082  14.394  26.849   7.650
 5274POPC   C1B14083  14.549  26.607   8.550
 5274POPC   C2B14084  14.504  26.569   8.250
 5274POPC   C3B14085  14.474  26.597   7.950
 5274POPC   C4B14086  14.493  26.575   7.650
 5275POPC   NC314087  23.746   4.326   9.450
 5275POPC   PO414088  23.743   4.330   9.150
 5275POPC   GL114089  23.763   4.350   8.850
 5275POPC   GL214090  23.754   4.490   8.850
 5275POPC   C1A14091  23.705   4.290   8.550
 5275POPC   D2A14092  23.711   4.310   8.250
 5275POPC   C3A14093  23.740   4.304   7.950
 5275POPC   C4A14094  23.670   4.273   7.650
 5275POPC   C1B14095  23.661   4.608   8.550
 5275POPC   C2B14096  23.704   4.612   8.250
 5275POPC   C3B14097  23.669   4.585   7.950
 5275POPC   C4B14098  23.726   4.595   7.650
 5276POPC   NC314099   0.431  18.277   9.450
 5276POPC   PO414100   0.451  18.245   9.150
 5276POPC   GL114101   0.440  18.295   8.850
 5276POPC   GL214102   0.517  18.179   8.850
 5276POPC   C1A14103   0.467  18.268   8.550
 5276POPC   D2A14104   0.485  18.295   8.250
 5276POPC   C3A14105   0.395  18.252   7.950
 5276POPC   C4A14106   0.455  18.323   7.650
 5276POPC   C1B14107   0.612  18.185   8.550
 5276POPC   C2B14108   0.666  18.138   8.250
 5276POPC   C3B14109   0.693  18.178   7.950
 5276POPC   C4B14110   0.666  18.179   7.650
 5277POPC   NC314111  40.794  15.213   9.450
 5277POPC   PO414112  40.745  15.206   9.150
 5277POPC   GL114113  40.764  15.137   8.850
 5277POPC   GL214114  40.880  15.117   8.850
 5277POPC   C1A14115  40.776  15.226   8.550
 5277POPC   D2A14116  40.768  15.179   8.250
 5277POPC   C3A14117  40.799  15.148   7.950
 5277POPC   C4A14118  40.796  15.203   7.650
 5277POPC   C1B14119  41.019  15.091   8.550
 5277POPC   C2B14120  41.017  15.156   8.250
 5277POPC   C3B14121  41.054  15.128   7.950
 5277POPC   C4B14122  40.980  15.116   7.650
 5278POPC   NC314123  39.212  26.810   9.450
 5278POPC   PO414124  39.255  26.784   9.150
 5278POPC   GL114125  39.237  26.853   8.850
 5278POPC   GL214126  39.274  26.712   8.850
 5278POPC   C1A14127  39.213  26.790   8.550
 5278POPC   D2A14128  39.259  26.824   8.250
 5278POPC   C3A14129  39.215  26.769   7.950
 5278POPC   C4A14130  39.209  26.823   7.650
 5278POPC   C1B14131  39.365  26.589   8.550
 5278POPC   C2B14132  39.430  26.662   8.250
 5278POPC   C3B14133  39.435  26.615   7.950
 5278POPC   C4B14134  39.373  26.615   7.650
 5279POPC   NC314135  26.802  24.519   9.450
 5279POPC   PO414136  26.810  24.493   9.150
 5279POPC   GL114137  26.818  24.447   8.850
 5279POPC   GL214138  26.824  24.381   8.850
 5279POPC   C1A14139  26.804  24.511   8.550
 5279POPC   D2A14140  26.840  24.526   8.250
 5279POPC   C3A14141  26.853  24.476   7.950
 5279POPC   C4A14142  26.851  24.533   7.650
 5279POPC   C1B14143  26.786  24.213   8.550
 5279POPC   C2B14144  26.786  24.214   8.250
 5279POPC   C3B14145  26.768  24.275   7.950
 5279POPC   C4B14146  26.718  24.206   7.650
 5280POPC   NC314147  39.272  15.959   9.450
 5280POPC   PO414148  39.275  15.937   9.150
 5280POPC   GL114149  39.254  15.915   8.850
 5280POPC   GL214150  39.146  15.913   8.850
 5280POPC   C1A14151  39.220  15.915   8.550
 5280POPC   D2A14152  39.219  15.981   8.250
 5280POPC   C3A14153  39.269  15.947   7.950
 5280POPC   C4A14154  39.237  15.972   7.650
 5280POPC   C1B14155  39.015  15.921   8.550
 5280POPC   C2B14156  39.028  15.882   8.250
 5280POPC   C3B14157  39.037  15.898   7.950
 5280POPC   C4B14158  38.937  15.870   7.650
 5281POPC   NC314159  30.654  27.604   9.450
 5281POPC   PO414160  30.680  27.636   9.150
 5281POPC   GL114161  30.654  27.581   8.850
 5281POPC   GL214162  30.648  27.433   8.850
 5281POPC   C1A14163  30.657  27.555   8.550
 5281POPC   D2A14164  30.733  27.595   8.250
 5281POPC   C3A14165  30.688  27.561   7.950
 5281POPC   C4A14166  30.677  27.547   7.650
 5281POPC   C1B14167  30.598  27.335   8.550
 5281POPC   C2B14168  30.632  27.340   8.250
 5281POPC   C3B14169  30.650  27.322   7.950
 5281POPC   C4B14170  30.615  27.325   7.650
 5282POPC   NC314171  13.627  15.963   9.450
 5282POPC   PO414172  13.602  15.929   9.150
 5282POPC   GL114173  13.651  15.947   8.850
 5282POPC   GL214174  13.650  16.052   8.850
 5282POPC   C1A14175  13.644  15.977   8.550
 5282POPC   D2A14176  13.629  15.947   8.250
 5282POPC   C3A14177  13.613  15.943   7.950
 5282POPC   C4A14178  13.622  15.906   7.650
 5282POPC   C1B14179  13.567  16.169   8.550
 5282POPC   C2B14180  13.612  16.204   8.250
 5282POPC   C3B14181  13.566  16.193   7.950
 5282POPC   C4B14182  13.603  16.223   7.650
 5283POPC   NC314183  14.357  24.467   9.450
 5283POPC   PO414184  14.404  24.463   9.150
 5283POPC   GL114185  14.436  24.468   8.850
 5283POPC   GL214186  14.309  24.447   8.850
 5283POPC   C1A14187  14.450  24.508   8.550
 5283POPC   D2A14188  14.393  24.440   8.250
 5283POPC   C3A14189  14.439  24.531   7.950
 5283POPC   C4A14190  14.430  24.475   7.650
 5283POPC   C1B14191  14.129  24.492   8.550
 5283POPC   C2B14192  14.202  24.468   8.250
 5283POPC   C3B14193  14.127  24.480   7.950
 5283POPC   C4B14194  14.182  24.456   7.650
 5284POPC   NC314195  16.769  20.655   9.450
 5284POPC   PO414196  16.774  20.577   9.150
 5284POPC   GL114197  16.691  20.626   8.850
 5284POPC   GL214198  16.837  20.531   8.850
 5284POPC   C1A14199  16.700  20.653   8.550
 5284POPC   D2A14200  16.736  20.576   8.250
 5284POPC   C3A14201  16.739  20.605   7.950
 5284POPC   C4A14202  16.747  20.569   7.650
 5284POPC   C1B14203  16.995  20.540   8.550
 5284POPC   C2B14204  16.911  20.528   8.250
 5284POPC   C3B14205  16.954  20.531   7.950
 5284POPC   C4B14206  16.946  20.501   7.650
 5285POPC   NC314207  33.765  24.521   9.450
 5285POPC   PO414208  33.840  24.458   9.150
 5285POPC   GL114209  33.843  24.501   8.850
 5285POPC   GL214210  33.705  24.557   8.850
 5285POPC   C1A14211  33.824  24.464   8.550
 5285POPC   D2A14212  33.803  24.524   8.250
 5285POPC   C3A14213  33.765  24.461   7.950
 5285POPC   C4A14214  33.752  24.470   7.650
 5285POPC   C1B14215  33.561  24.640   8.550
 5285POPC   C2B14216  33.630  24.684   8.250
 5285POPC   C3B14217  33.591  24.609   7.950
 5285POPC   C4B14218  33.644  24.603   7.650
 5286POPC   NC314219  33.784  33.815   9.450
 5286POPC   PO414220  33.781  33.760   9.150
 5286POPC   GL114221  33.840  33.843   8.850
 5286POPC   GL214222  33.934  33.692   8.850
 5286POPC   C1A14223  33.825  33.846   8.550
 5286POPC   D2A14224  33.769  33.771   8.250
 5286POPC   C3A14225  33.820  33.826   7.950
 5286POPC   C4A14226  33.770  33.777   7.650
 5286POPC   C1B14227  33.971  33.703   8.550
 5286POPC   C2B14228  33.970  33.699   8.250
 5286POPC   C3B14229  33.981  33.634   7.950
 5286POPC   C4B14230  34.058  33.698   7.650
 5287POPC   NC314231   6.677  42.350   9.450
 5287POPC   PO414232   6.602  42.350   9.150
 5287POPC   GL114233   6.653  42.287   8.850
 5287POPC   GL214234   6.716  42.458   8.850
 5287POPC   C1A14235   6.615  42.314   8.550
 5287POPC   D2A14236   6.626  42.332   8.250
 5287POPC   C3A14237   6.609  42.357   7.950
 5287POPC   C4A14238   6.643  42.359   7.650
 5287POPC   C1B14239   6.832  42.491   8.550
 5287POPC   C2B14240   6.781  42.504   8.250
 5287POPC   C3B14241   6.806  42.555   7.950
 5287POPC   C4B14242   6.805  42.493   7.650
 5288POPC   NC314243  11.287  29.192   9.450
 5288POPC   PO414244  11.343  29.158   9.150
 5288POPC   GL114245  11.306  29.149   8.850
 5288POPC   GL214246  11.383  29.287   8.850
 5288POPC   C1A14247  11.295  29.166   8.550
 5288POPC   D2A14248  11.292  29.153   8.250
 5288POPC   C3A14249  11.304  29.192   7.950
 5288POPC   C4A14250  11.340  29.158   7.650
 5288POPC   C1B14251  11.327  29.397   8.550
 5288POPC   C2B14252  11.405  29.386   8.250
 5288POPC   C3B14253  11.341  29.393   7.950
 5288POPC   C4B14254  11.352  29.378   7.650
 5289POPC   NC314255  29.155  43.922   9.450
 5289POPC   PO414256  29.121  43.873   9.150
 5289POPC   GL114257  29.103  43.885   8.850
 5289POPC   GL214258  28.998  43.924   8.850
 5289POPC   C1A14259  29.126  43.840   8.550
 5289POPC   D2A14260  29.101  43.849   8.250
 5289POPC   C3A14261  29.186  43.919   7.950
 5289POPC   C4A14262  29.125  43.863   7.650
 5289POPC   C1B14263  28.922  44.031   8.550
 5289POPC   C2B14264  28.934  44.054   8.250
 5289POPC   C3B14265  28.896  44.020   7.950
 5289POPC   C4B14266  28.923  43.999   7.650
 5290POPC   NC314267  17.503  24.485   9.450
 5290POPC   PO414268  17.514  24.537   9.150
 5290POPC   GL114269  17.475  24.507   8.850
 5290POPC   GL214270  17.579  24.410   8.850
 5290POPC   C1A14271  17.534  24.522   8.550
 5290POPC   D2A14272  17.505  24.530   8.250
 5290POPC   C3A14273  17.505  24.451   7.950
 5290POPC   C4A14274  17.544  24.534   7.650
 5290POPC   C1B14275  17.702  24.364   8.550
 5290POPC   C2B14276  17.690  24.310   8.250
 5290POPC   C3B14277  17.696  24.296   7.950
 5290POPC   C4B14278  17.666  24.305   7.650
 5291POPC   NC314279   1.237  24.528   9.450
 5291POPC   PO414280   1.226  24.468   9.150
 5291POPC   GL114281   1.234  24.471   8.850
 5291POPC   GL214282   1.133  24.604   8.850
 5291POPC   C1A14283   1.261  24.536   8.550
 5291POPC   D2A14284   1.204  24.475   8.250
 5291POPC   C3A14285   1.227  24.506   7.950
 5291POPC   C4A14286   1.208  24.453   7.650
 5291POPC   C1B14287   0.998  24.624   8.550
 5291POPC   C2B14288   0.999  24.681   8.250
 5291POPC   C3B14289   1.049  24.611   7.950
 5291POPC   C4B14290   1.040  24.680   7.650
 5292POPC   NC314291  11.321   6.679   9.450
 5292POPC   PO414292  11.308   6.663   9.150
 5292POPC   GL114293  11.305   6.615   8.850
 5292POPC   GL214294  11.204   6.562   8.850
 5292POPC   C1A14295  11.295   6.691   8.550
 5292POPC   D2A14296  11.253   6.668   8.250
 5292POPC   C3A14297  11.339   6.630   7.950
 5292POPC   C4A14298  11.342   6.653   7.650
 5292POPC   C1B14299  11.058   6.542   8.550
 5292POPC   C2B14300  11.093   6.503   8.250
 5292POPC   C3B14301  11.116   6.502   7.950
 5292POPC   C4B14302  11.112   6.538   7.650
 5293POPC   NC314303  31.510  10.508   9.450
 5293POPC   PO414304  31.463  10.560   9.150
 5293POPC   GL114305  31.494  10.485   8.850
 5293POPC   GL214306  31.630  10.572   8.850
 5293POPC   C1A14307  31.479  10.490   8.550
 5293POPC   D2A14308  31.464  10.558   8.250
 5293POPC   C3A14309  31.509  10.560   7.950
 5293POPC   C4A14310  31.469  10.523   7.650
 5293POPC   C1B14311  31.712  10.546   8.550
 5293POPC   C2B14312  31.738  10.612   8.250
 5293POPC   C3B14313  31.754  10.591   7.950
 5293POPC   C4B14314  31.759  10.566   7.650
 5294POPC   NC314315  24.496  24.459   9.450
 5294POPC   PO414316  24.441  24.485   9.150
 5294POPC   GL114317  24.534  24.457   8.850
 5294POPC   GL214318  24.597  24.446   8.850
 5294POPC   C1A14319  24.442  24.507   8.550
 5294POPC   D2A14320  24.533  24.453   8.250
 5294POPC   C3A14321  24.506  24.525   7.950
 5294POPC   C4A14322  24.476  24.516   7.650
 5294POPC   C1B14323  24.650  24.352   8.550
 5294POPC   C2B14324  24.657  24.330   8.250
 5294POPC   C3B14325  24.644  24.298   7.950
 5294POPC   C4B14326  24.657  24.332   7.650
 5295POPC   NC314327  15.967  12.896   9.450
 5295POPC   PO414328  15.964  12.805   9.150
 5295POPC   GL114329  15.920  12.828   8.850
 5295POPC   GL214330  15.816  12.884   8.850
 5295POPC   C1A14331  15.982  12.815   8.550
 5295POPC   D2A14332  15.972  12.890   8.250
 5295POPC   C3A14333  15.929  12.836   7.950
 5295POPC   C4A14334  16.000  12.894   7.650
 5295POPC   C1B14335  15.719  12.910   8.550
 5295POPC   C2B14336  15.716  12.945   8.250
 5295POPC   C3B14337  15.680  12.928   7.950
 5295POPC   C4B14338  15.709  12.977   7.650
 5296POPC   NC314339   8.178  17.476   9.450
 5296POPC   PO414340   8.229  17.519   9.150
 5296POPC   GL114341   8.200  17.533   8.850
 5296POPC   GL214342   8.115  17.483   8.850
 5296POPC   C1A14343   8.205  17.509   8.550
 5296POPC   D2A14344   8.167  17.486   8.250
 5296POPC   C3A14345   8.155  17.541   7.950
 5296POPC   C4A14346   8.172  17.479   7.650
 5296POPC   C1B14347   7.977  17.472   8.550
 5296POPC   C2B14348   7.915  17.501   8.250
 5296POPC   C3B14349   7.926  17.495   7.950
 5296POPC   C4B14350   7.916  17.536   7.650
 5297POPC   NC314351  23.678   7.385   9.450
 5297POPC   PO414352  23.681   7.382   9.150
 5297POPC   GL114353  23.703   7.438   8.850
 5297POPC   GL214354  23.805   7.338   8.850
 5297POPC   C1A14355  23.755   7.454   8.550
 5297POPC   D2A14356  23.719   7.384   8.250
 5297POPC   C3A14357  23.740   7.395   7.950
 5297POPC   C4A14358  23.707   7.416   7.650
 5297POPC   C1B14359  23.835   7.173   8.550
 5297POPC   C2B14360  23.817   7.196   8.250
 5297POPC   C3B14361  23.890   7.177   7.950
 5297POPC   C4B14362  23.842   7.245   7.650
 5298POPC   NC314363  22.943  43.914   9.450
 5298POPC   PO414364  22.932  43.903   9.150
 5298POPC   GL114365  22.927  43.894   8.850
 5298POPC   GL214366  22.974  44.027   8.850
 5298POPC   C1A14367  22.936  43.934   8.550
 5298POPC   D2A14368  22.956  43.880   8.250
 5298POPC   C3A14369  22.901  43.851   7.950
 5298POPC   C4A14370  22.942  43.889   7.650
 5298POPC   C1B14371  23.036  44.079   8.550
 5298POPC   C2B14372  23.020  44.079   8.250
 5298POPC   C3B14373  23.049  44.128   7.950
 5298POPC   C4B14374  23.073  44.145   7.650
 5299POPC   NC314375  29.167   3.505   9.450
 5299POPC   PO414376  29.193   3.521   9.150
 5299POPC   GL114377  29.188   3.511   8.850
 5299POPC   GL214378  29.041   3.676   8.850
 5299POPC   C1A14379  29.126   3.521   8.550
 5299POPC   D2A14380  29.133   3.513   8.250
 5299POPC   C3A14381  29.126   3.586   7.950
 5299POPC   C4A14382  29.169   3.511   7.650
 5299POPC   C1B14383  28.974   3.790   8.550
 5299POPC   C2B14384  29.044   3.726   8.250
 5299POPC   C3B14385  29.027   3.759   7.950
 5299POPC   C4B14386  29.034   3.721   7.650
 5300POPC   NC314387  26.001  13.591   9.450
 5300POPC   PO414388  26.080  13.591   9.150
 5300POPC   GL114389  26.015  13.589   8.850
 5300POPC   GL214390  26.080  13.475   8.850
 5300POPC   C1A14391  26.055  13.600   8.550
 5300POPC   D2A14392  25.996  13.587   8.250
 5300POPC   C3A14393  26.014  13.676   7.950
 5300POPC   C4A14394  26.071  13.621   7.650
 5300POPC   C1B14395  26.194  13.357   8.550
 5300POPC   C2B14396  26.176  13.369   8.250
 5300POPC   C3B14397  26.189  13.427   7.950
 5300POPC   C4B14398  26.160  13.371   7.650
 5301POPC   NC314399   2.038   5.047   9.450
 5301POPC   PO414400   1.984   5.050   9.150
 5301POPC   GL114401   2.017   5.090   8.850
 5301POPC   GL214402   2.012   5.178   8.850
 5301POPC   C1A14403   1.957   5.121   8.550
 5301POPC   D2A14404   1.965   5.092   8.250
 5301POPC   C3A14405   2.022   5.047   7.950
 5301POPC   C4A14406   2.013   5.110   7.650
 5301POPC   C1B14407   2.083   5.355   8.550
 5301POPC   C2B14408   2.054   5.308   8.250
 5301POPC   C3B14409   2.086   5.302   7.950
 5301POPC   C4B14410   2.041   5.385   7.650
 5302POPC   NC314411  32.224  43.117   9.450
 5302POPC   PO414412  32.256  43.122   9.150
 5302POPC   GL114413  32.209  43.113   8.850
 5302POPC   GL214414  32.095  43.081   8.850
 5302POPC   C1A14415  32.201  43.131   8.550
 5302POPC   D2A14416  32.293  43.113   8.250
 5302POPC   C3A14417  32.254  43.136   7.950
 5302POPC   C4A14418  32.246  43.067   7.650
 5302POPC   C1B14419  31.994  43.092   8.550
 5302POPC   C2B14420  31.983  43.049   8.250
 5302POPC   C3B14421  31.979  43.101   7.950
 5302POPC   C4B14422  31.962  43.123   7.650
 5303POPC   NC314423   1.951  26.047   9.450
 5303POPC   PO414424   2.019  26.056   9.150
 5303POPC   GL114425   1.974  26.003   8.850
 5303POPC   GL214426   2.087  26.008   8.850
 5303POPC   C1A14427   2.038  26.043   8.550
 5303POPC   D2A14428   1.979  26.051   8.250
 5303POPC   C3A14429   1.941  26.084   7.950
 5303POPC   C4A14430   2.029  26.015   7.650
 5303POPC   C1B14431   2.198  26.040   8.550
 5303POPC   C2B14432   2.195  26.028   8.250
 5303POPC   C3B14433   2.265  25.994   7.950
 5303POPC   C4B14434   2.204  26.004   7.650
 5304POPC   NC314435  11.303  14.449   9.450
 5304POPC   PO414436  11.331  14.429   9.150
 5304POPC   GL114437  11.258  14.422   8.850
 5304POPC   GL214438  11.181  14.445   8.850
 5304POPC   C1A14439  11.308  14.367   8.550
 5304POPC   D2A14440  11.342  14.356   8.250
 5304POPC   C3A14441  11.287  14.414   7.950
 5304POPC   C4A14442  11.253  14.395   7.650
 5304POPC   C1B14443  11.092  14.554   8.550
 5304POPC   C2B14444  11.146  14.594   8.250
 5304POPC   C3B14445  11.125  14.550   7.950
 5304POPC   C4B14446  11.124  14.548   7.650
 5305POPC   NC314447  27.642  16.720   9.450
 5305POPC   PO414448  27.610  16.760   9.150
 5305POPC   GL114449  27.622  16.731   8.850
 5305POPC   GL214450  27.613  16.858   8.850
 5305POPC   C1A14451  27.563  16.684   8.550
 5305POPC   D2A14452  27.626  16.746   8.250
 5305POPC   C3A14453  27.550  16.690   7.950
 5305POPC   C4A14454  27.607  16.745   7.650
 5305POPC   C1B14455  27.619  17.004   8.550
 5305POPC   C2B14456  27.621  16.960   8.250
 5305POPC   C3B14457  27.580  16.998   7.950
 5305POPC   C4B14458  27.590  16.947   7.650
 5306POPC   NC314459  19.051  21.383   9.450
 5306POPC   PO414460  19.058  21.347   9.150
 5306POPC   GL114461  19.083  21.382   8.850
 5306POPC   GL214462  19.162  21.394   8.850
 5306POPC   C1A14463  19.099  21.409   8.550
 5306POPC   D2A14464  19.033  21.345   8.250
 5306POPC   C3A14465  19.082  21.435   7.950
 5306POPC   C4A14466  19.077  21.372   7.650
 5306POPC   C1B14467  19.343  21.415   8.550
 5306POPC   C2B14468  19.262  21.382   8.250
 5306POPC   C3B14469  19.269  21.380   7.950
 5306POPC   C4B14470  19.273  21.452   7.650
 5307POPC   NC314471  39.203  20.607   9.450
 5307POPC   PO414472  39.212  20.571   9.150
 5307POPC   GL114473  39.242  20.596   8.850
 5307POPC   GL214474  39.289  20.676   8.850
 5307POPC   C1A14475  39.235  20.603   8.550
 5307POPC   D2A14476  39.273  20.644   8.250
 5307POPC   C3A14477  39.255  20.570   7.950
 5307POPC   C4A14478  39.195  20.604   7.650
 5307POPC   C1B14479  39.376  20.839   8.550
 5307POPC   C2B14480  39.330  20.845   8.250
 5307POPC   C3B14481  39.365  20.860   7.950
 5307POPC   C4B14482  39.385  20.808   7.650
 5308POPC   NC314483  21.387  32.260   9.450
 5308POPC   PO414484  21.366  32.276   9.150
 5308POPC   GL114485  21.340  32.252   8.850
 5308POPC   GL214486  21.283  32.191   8.850
 5308POPC   C1A14487  21.413  32.298   8.550
 5308POPC   D2A14488  21.378  32.201   8.250
 5308POPC   C3A14489  21.342  32.281   7.950
 5308POPC   C4A14490  21.381  32.262   7.650
 5308POPC   C1B14491  21.192  32.127   8.550
 5308POPC   C2B14492  21.147  32.106   8.250
 5308POPC   C3B14493  21.157  32.160   7.950
 5308POPC   C4B14494  21.176  32.132   7.650
 5309POPC   NC314495  32.989   1.260   9.450
 5309POPC   PO414496  33.065   1.214   9.150
 5309POPC   GL114497  32.984   1.230   8.850
 5309POPC   GL214498  33.119   1.178   8.850
 5309POPC   C1A14499  33.018   1.212   8.550
 5309POPC   D2A14500  33.022   1.237   8.250
 5309POPC   C3A14501  33.009   1.192   7.950
 5309POPC   C4A14502  33.000   1.221   7.650
 5309POPC   C1B14503  33.216   1.136   8.550
 5309POPC   C2B14504  33.243   1.111   8.250
 5309POPC   C3B14505  33.214   1.065   7.950
 5309POPC   C4B14506  33.198   1.078   7.650
 5310POPC   NC314507   9.775  32.975   9.450
 5310POPC   PO414508   9.698  33.071   9.150
 5310POPC   GL114509   9.795  33.055   8.850
 5310POPC   GL214510   9.649  32.929   8.850
 5310POPC   C1A14511   9.755  33.031   8.550
 5310POPC   D2A14512   9.765  32.988   8.250
 5310POPC   C3A14513   9.784  33.051   7.950
 5310POPC   C4A14514   9.793  33.066   7.650
 5310POPC   C1B14515   9.565  32.931   8.550
 5310POPC   C2B14516   9.528  32.890   8.250
 5310POPC   C3B14517   9.518  32.955   7.950
 5310POPC   C4B14518   9.498  32.976   7.650
 5311POPC   NC314519  41.606  10.483   9.450
 5311POPC   PO414520  41.580  10.563   9.150
 5311POPC   GL114521  41.563  10.520   8.850
 5311POPC   GL214522  41.446  10.642   8.850
 5311POPC   C1A14523  41.603  10.508   8.550
 5311POPC   D2A14524  41.514  10.543   8.250
 5311POPC   C3A14525  41.588  10.485   7.950
 5311POPC   C4A14526  41.538  10.511   7.650
 5311POPC   C1B14527  41.348  10.700   8.550
 5311POPC   C2B14528  41.406  10.657   8.250
 5311POPC   C3B14529  41.351  10.696   7.950
 5311POPC   C4B14530  41.319  10.682   7.650
 5312POPC   NC314531  36.931  38.428   9.450
 5312POPC   PO414532  36.858  38.492   9.150
 5312POPC   GL114533  36.936  38.467   8.850
 5312POPC   GL214534  36.942  38.355   8.850
 5312POPC   C1A14535  36.886  38.435   8.550
 5312POPC   D2A14536  36.912  38.433   8.250
 5312POPC   C3A14537  36.920  38.412   7.950
 5312POPC   C4A14538  36.919  38.485   7.650
 5312POPC   C1B14539  37.033  38.261   8.550
 5312POPC   C2B14540  37.036  38.202   8.250
 5312POPC   C3B14541  37.038  38.197   7.950
 5312POPC   C4B14542  37.015  38.234   7.650
 5313POPC   NC314543  10.527  36.169   9.450
 5313POPC   PO414544  10.548  36.117   9.150
 5313POPC   GL114545  10.532  36.082   8.850
 5313POPC   GL214546  10.417  36.143   8.850
 5313POPC   C1A14547  10.512  36.134   8.550
 5313POPC   D2A14548  10.563  36.178   8.250
 5313POPC   C3A14549  10.503  36.126   7.950
 5313POPC   C4A14550  10.557  36.128   7.650
 5313POPC   C1B14551  10.336  36.203   8.550
 5313POPC   C2B14552  10.298  36.238   8.250
 5313POPC   C3B14553  10.265  36.228   7.950
 5313POPC   C4B14554  10.269  36.286   7.650
 5314POPC   NC314555   4.355  22.133   9.450
 5314POPC   PO414556   4.293  22.207   9.150
 5314POPC   GL114557   4.278  22.128   8.850
 5314POPC   GL214558   4.407  22.189   8.850
 5314POPC   C1A14559   4.281  22.148   8.550
 5314POPC   D2A14560   4.339  22.126   8.250
 5314POPC   C3A14561   4.310  22.172   7.950
 5314POPC   C4A14562   4.313  22.123   7.650
 5314POPC   C1B14563   4.469  22.353   8.550
 5314POPC   C2B14564   4.508  22.300   8.250
 5314POPC   C3B14565   4.538  22.312   7.950
 5314POPC   C4B14566   4.547  22.280   7.650
 5315POPC   NC314567  32.293  24.490   9.450
 5315POPC   PO414568  32.282  24.449   9.150
 5315POPC   GL114569  32.209  24.482   8.850
 5315POPC   GL214570  32.299  24.578   8.850
 5315POPC   C1A14571  32.279  24.522   8.550
 5315POPC   D2A14572  32.225  24.444   8.250
 5315POPC   C3A14573  32.233  24.443   7.950
 5315POPC   C4A14574  32.280  24.473   7.650
 5315POPC   C1B14575  32.361  24.685   8.550
 5315POPC   C2B14576  32.434  24.658   8.250
 5315POPC   C3B14577  32.452  24.712   7.950
 5315POPC   C4B14578  32.387  24.656   7.650
 5316POPC   NC314579   0.474  32.999   9.450
 5316POPC   PO414580   0.436  32.985   9.150
 5316POPC   GL114581   0.435  33.031   8.850
 5316POPC   GL214582   0.282  32.956   8.850
 5316POPC   C1A14583   0.430  32.981   8.550
 5316POPC   D2A14584   0.391  33.062   8.250
 5316POPC   C3A14585   0.391  32.987   7.950
 5316POPC   C4A14586   0.420  33.023   7.650
 5316POPC   C1B14587   0.159  32.968   8.550
 5316POPC   C2B14588   0.167  32.977   8.250
 5316POPC   C3B14589   0.205  32.893   7.950
 5316POPC   C4B14590   0.163  32.896   7.650
 5317POPC   NC314591  30.740  43.111   9.450
 5317POPC   PO414592  30.721  43.094   9.150
 5317POPC   GL114593  30.651  43.132   8.850
 5317POPC   GL214594  30.607  43.206   8.850
 5317POPC   C1A14595  30.734  43.153   8.550
 5317POPC   D2A14596  30.745  43.100   8.250
 5317POPC   C3A14597  30.693  43.069   7.950
 5317POPC   C4A14598  30.659  43.135   7.650
 5317POPC   C1B14599  30.509  43.361   8.550
 5317POPC   C2B14600  30.575  43.361   8.250
 5317POPC   C3B14601  30.589  43.282   7.950
 5317POPC   C4B14602  30.562  43.349   7.650
 5318POPC   NC314603  32.249  22.120   9.450
 5318POPC   PO414604  32.220  22.113   9.150
 5318POPC   GL114605  32.272  22.121   8.850
 5318POPC   GL214606  32.082  22.129   8.850
 5318POPC   C1A14607  32.260  22.172   8.550
 5318POPC   D2A14608  32.279  22.118   8.250
 5318POPC   C3A14609  32.209  22.184   7.950
 5318POPC   C4A14610  32.279  22.205   7.650
 5318POPC   C1B14611  31.994  22.208   8.550
 5318POPC   C2B14612  32.037  22.152   8.250
 5318POPC   C3B14613  32.032  22.161   7.950
 5318POPC   C4B14614  31.950  22.111   7.650
 5319POPC   NC314615  19.840   5.095   9.450
 5319POPC   PO414616  19.822   5.049   9.150
 5319POPC   GL114617  19.786   5.086   8.850
 5319POPC   GL214618  19.957   5.080   8.850
 5319POPC   C1A14619  19.859   5.071   8.550
 5319POPC   D2A14620  19.868   5.119   8.250
 5319POPC   C3A14621  19.794   5.051   7.950
 5319POPC   C4A14622  19.829   5.091   7.650
 5319POPC   C1B14623  20.128   5.082   8.550
 5319POPC   C2B14624  20.084   5.091   8.250
 5319POPC   C3B14625  20.113   5.041   7.950
 5319POPC   C4B14626  20.124   5.084   7.650
 5320POPC   NC314627  29.161   5.132   9.450
 5320POPC   PO414628  29.128   5.134   9.150
 5320POPC   GL114629  29.099   5.079   8.850
 5320POPC   GL214630  29.050   5.083   8.850
 5320POPC   C1A14631  29.097   5.100   8.550
 5320POPC   D2A14632  29.176   5.101   8.250
 5320POPC   C3A14633  29.163   5.067   7.950
 5320POPC   C4A14634  29.154   5.092   7.650
 5320POPC   C1B14635  28.910   5.078   8.550
 5320POPC   C2B14636  28.880   5.076   8.250
 5320POPC   C3B14637  28.870   5.100   7.950
 5320POPC   C4B14638  28.877   5.074   7.650
 5321POPC   NC314639   3.559  11.328   9.450
 5321POPC   PO414640   3.506  11.309   9.150
 5321POPC   GL114641   3.528  11.319   8.850
 5321POPC   GL214642   3.621  11.409   8.850
 5321POPC   C1A14643   3.582  11.295   8.550
 5321POPC   D2A14644   3.496  11.303   8.250
 5321POPC   C3A14645   3.507  11.334   7.950
 5321POPC   C4A14646   3.577  11.287   7.650
 5321POPC   C1B14647   3.712  11.485   8.550
 5321POPC   C2B14648   3.773  11.446   8.250
 5321POPC   C3B14649   3.741  11.454   7.950
 5321POPC   C4B14650   3.746  11.452   7.650
 5322POPC   NC314651  17.500  40.752   9.450
 5322POPC   PO414652  17.479  40.801   9.150
 5322POPC   GL114653  17.511  40.781   8.850
 5322POPC   GL214654  17.433  40.740   8.850
 5322POPC   C1A14655  17.525  40.823   8.550
 5322POPC   D2A14656  17.505  40.767   8.250
 5322POPC   C3A14657  17.555  40.805   7.950
 5322POPC   C4A14658  17.521  40.801   7.650
 5322POPC   C1B14659  17.272  40.729   8.550
 5322POPC   C2B14660  17.266  40.742   8.250
 5322POPC   C3B14661  17.248  40.711   7.950
 5322POPC   C4B14662  17.305  40.739   7.650
 5323POPC   NC314663  12.893  35.372   9.450
 5323POPC   PO414664  12.828  35.354   9.150
 5323POPC   GL114665  12.845  35.378   8.850
 5323POPC   GL214666  13.020  35.368   8.850
 5323POPC   C1A14667  12.831  35.377   8.550
 5323POPC   D2A14668  12.873  35.304   8.250
 5323POPC   C3A14669  12.875  35.310   7.950
 5323POPC   C4A14670  12.833  35.325   7.650
 5323POPC   C1B14671  13.067  35.401   8.550
 5323POPC   C2B14672  13.131  35.394   8.250
 5323POPC   C3B14673  13.148  35.329   7.950
 5323POPC   C4B14674  13.127  35.376   7.650
 5324POPC   NC314675  29.876  37.645   9.450
 5324POPC   PO414676  29.952  37.649   9.150
 5324POPC   GL114677  29.884  37.651   8.850
 5324POPC   GL214678  29.871  37.846   8.850
 5324POPC   C1A14679  29.956  37.670   8.550
 5324POPC   D2A14680  29.943  37.666   8.250
 5324POPC   C3A14681  29.967  37.661   7.950
 5324POPC   C4A14682  29.906  37.671   7.650
 5324POPC   C1B14683  29.836  37.926   8.550
 5324POPC   C2B14684  29.865  37.889   8.250
 5324POPC   C3B14685  29.895  37.882   7.950
 5324POPC   C4B14686  29.811  37.926   7.650
 5325POPC   NC314687   7.439   3.530   9.450
 5325POPC   PO414688   7.427   3.576   9.150
 5325POPC   GL114689   7.453   3.586   8.850
 5325POPC   GL214690   7.301   3.411   8.850
 5325POPC   C1A14691   7.460   3.527   8.550
 5325POPC   D2A14692   7.385   3.542   8.250
 5325POPC   C3A14693   7.436   3.530   7.950
 5325POPC   C4A14694   7.434   3.534   7.650
 5325POPC   C1B14695   7.218   3.358   8.550
 5325POPC   C2B14696   7.280   3.380   8.250
 5325POPC   C3B14697   7.290   3.335   7.950
 5325POPC   C4B14698   7.265   3.333   7.650
 5326POPC   NC314699  14.425  13.606   9.450
 5326POPC   PO414700  14.438  13.607   9.150
 5326POPC   GL114701  14.410  13.644   8.850
 5326POPC   GL214702  14.477  13.679   8.850
 5326POPC   C1A14703  14.432  13.608   8.550
 5326POPC   D2A14704  14.427  13.584   8.250
 5326POPC   C3A14705  14.378  13.665   7.950
 5326POPC   C4A14706  14.390  13.631   7.650
 5326POPC   C1B14707  14.602  13.644   8.550
 5326POPC   C2B14708  14.644  13.678   8.250
 5326POPC   C3B14709  14.605  13.710   7.950
 5326POPC   C4B14710  14.642  13.679   7.650
 5327POPC   NC314711  11.251  21.363   9.450
 5327POPC   PO414712  11.325  21.402   9.150
 5327POPC   GL114713  11.336  21.347   8.850
 5327POPC   GL214714  11.234  21.498   8.850
 5327POPC   C1A14715  11.274  21.378   8.550
 5327POPC   D2A14716  11.276  21.366   8.250
 5327POPC   C3A14717  11.324  21.413   7.950
 5327POPC   C4A14718  11.330  21.376   7.650
 5327POPC   C1B14719  11.169  21.567   8.550
 5327POPC   C2B14720  11.114  21.566   8.250
 5327POPC   C3B14721  11.115  21.565   7.950
 5327POPC   C4B14722  11.108  21.600   7.650
 5328POPC   NC314723  29.879  13.594   9.450
 5328POPC   PO414724  29.887  13.628   9.150
 5328POPC   GL114725  29.946  13.628   8.850
 5328POPC   GL214726  29.996  13.600   8.850
 5328POPC   C1A14727  29.899  13.622   8.550
 5328POPC   D2A14728  29.940  13.592   8.250
 5328POPC   C3A14729  29.926  13.590   7.950
 5328POPC   C4A14730  29.947  13.633   7.650
 5328POPC   C1B14731  30.105  13.529   8.550
 5328POPC   C2B14732  30.186  13.532   8.250
 5328POPC   C3B14733  30.119  13.504   7.950
 5328POPC   C4B14734  30.191  13.506   7.650
 5329POPC   NC314735  39.977   5.844   9.450
 5329POPC   PO414736  39.978   5.835   9.150
 5329POPC   GL114737  40.035   5.845   8.850
 5329POPC   GL214738  39.930   5.867   8.850
 5329POPC   C1A14739  40.052   5.876   8.550
 5329POPC   D2A14740  40.011   5.904   8.250
 5329POPC   C3A14741  40.013   5.897   7.950
 5329POPC   C4A14742  40.011   5.877   7.650
 5329POPC   C1B14743  39.809   5.822   8.550
 5329POPC   C2B14744  39.759   5.755   8.250
 5329POPC   C3B14745  39.791   5.813   7.950
 5329POPC   C4B14746  39.767   5.771   7.650
 5330POPC   NC314747  25.228   6.631   9.450
 5330POPC   PO414748  25.301   6.653   9.150
 5330POPC   GL114749  25.297   6.679   8.850
 5330POPC   GL214750  25.329   6.716   8.850
 5330POPC   C1A14751  25.264   6.650   8.550
 5330POPC   D2A14752  25.267   6.633   8.250
 5330POPC   C3A14753  25.230   6.650   7.950
 5330POPC   C4A14754  25.218   6.625   7.650
 5330POPC   C1B14755  25.471   6.803   8.550
 5330POPC   C2B14756  25.399   6.843   8.250
 5330POPC   C3B14757  25.402   6.887   7.950
 5330POPC   C4B14758  25.397   6.858   7.650
 5331POPC   NC314759   4.327  27.591   9.450
 5331POPC   PO414760   4.293  27.562   9.150
 5331POPC   GL114761   4.323  27.574   8.850
 5331POPC   GL214762   4.262  27.715   8.850
 5331POPC   C1A14763   4.315  27.626   8.550
 5331POPC   D2A14764   4.314  27.546   8.250
 5331POPC   C3A14765   4.338  27.595   7.950
 5331POPC   C4A14766   4.273  27.631   7.650
 5331POPC   C1B14767   4.109  27.796   8.550
 5331POPC   C2B14768   4.116  27.720   8.250
 5331POPC   C3B14769   4.143  27.754   7.950
 5331POPC   C4B14770   4.177  27.738   7.650
 5332POPC   NC314771   8.200  26.089   9.450
 5332POPC   PO414772   8.188  26.087   9.150
 5332POPC   GL114773   8.171  26.029   8.850
 5332POPC   GL214774   8.123  26.061   8.850
 5332POPC   C1A14775   8.189  26.000   8.550
 5332POPC   D2A14776   8.157  26.013   8.250
 5332POPC   C3A14777   8.191  26.048   7.950
 5332POPC   C4A14778   8.179  26.026   7.650
 5332POPC   C1B14779   8.019  26.134   8.550
 5332POPC   C2B14780   7.974  26.190   8.250
 5332POPC   C3B14781   8.004  26.122   7.950
 5332POPC   C4B14782   7.944  26.136   7.650
 5333POPC   NC314783   7.394  18.281   9.450
 5333POPC   PO414784   7.452  18.332   9.150
 5333POPC   GL114785   7.407  18.321   8.850
 5333POPC   GL214786   7.567  18.332   8.850
 5333POPC   C1A14787   7.380  18.296   8.550
 5333POPC   D2A14788   7.395  18.272   8.250
 5333POPC   C3A14789   7.382  18.329   7.950
 5333POPC   C4A14790   7.405  18.235   7.650
 5333POPC   C1B14791   7.604  18.460   8.550
 5333POPC   C2B14792   7.670  18.452   8.250
 5333POPC   C3B14793   7.621  18.412   7.950
 5333POPC   C4B14794   7.649  18.466   7.650
 5334POPC   NC314795  26.802  37.712   9.450
 5334POPC   PO414796  26.791  37.655   9.150
 5334POPC   GL114797  26.861  37.728   8.850
 5334POPC   GL214798  26.978  37.684   8.850
 5334POPC   C1A14799  26.831  37.661   8.550
 5334POPC   D2A14800  26.780  37.632   8.250
 5334POPC   C3A14801  26.821  37.677   7.950
 5334POPC   C4A14802  26.864  37.691   7.650
 5334POPC   C1B14803  27.074  37.705   8.550
 5334POPC   C2B14804  27.056  37.686   8.250
 5334POPC   C3B14805  27.025  37.738   7.950
 5334POPC   C4B14806  27.113  37.667   7.650
 5335POPC   NC314807  38.434  33.781   9.450
 5335POPC   PO414808  38.469  33.808   9.150
 5335POPC   GL114809  38.431  33.844   8.850
 5335POPC   GL214810  38.529  33.939   8.850
 5335POPC   C1A14811  38.458  33.781   8.550
 5335POPC   D2A14812  38.452  33.771   8.250
 5335POPC   C3A14813  38.455  33.824   7.950
 5335POPC   C4A14814  38.454  33.822   7.650
 5335POPC   C1B14815  38.555  34.026   8.550
 5335POPC   C2B14816  38.488  34.060   8.250
 5335POPC   C3B14817  38.563  34.059   7.950
 5335POPC   C4B14818  38.500  34.053   7.650
 5336POPC   NC314819   8.200   5.100   9.450
 5336POPC   PO414820   8.194   5.082   9.150
 5336POPC   GL114821   8.204   5.080   8.850
 5336POPC   GL214822   8.127   5.033   8.850
 5336POPC   C1A14823   8.162   5.123   8.550
 5336POPC   D2A14824   8.222   5.052   8.250
 5336POPC   C3A14825   8.158   5.130   7.950
 5336POPC   C4A14826   8.157   5.135   7.650
 5336POPC   C1B14827   8.086   4.922   8.550
 5336POPC   C2B14828   8.105   4.880   8.250
 5336POPC   C3B14829   8.046   4.839   7.950
 5336POPC   C4B14830   8.038   4.864   7.650
 5337POPC   NC314831  43.926  44.682   9.450
 5337POPC   PO414832  43.903  44.698   9.150
 5337POPC   GL114833  43.879  44.691   8.850
 5337POPC   GL214834  43.869  44.827   8.850
 5337POPC   C1A14835  43.883  44.641   8.550
 5337POPC   D2A14836  43.845  44.683   8.250
 5337POPC   C3A14837  43.855  44.710   7.950
 5337POPC   C4A14838  43.923  44.654   7.650
 5337POPC   C1B14839  43.879  44.918   8.550
 5337POPC   C2B14840  43.927  44.900   8.250
 5337POPC   C3B14841  43.867  44.885   7.950
 5337POPC   C4B14842  43.849  44.890   7.650
 5338POPC   NC314843  17.544  19.849   9.450
 5338POPC   PO414844  17.499  19.857   9.150
 5338POPC   GL114845  17.527  19.826   8.850
 5338POPC   GL214846  17.533  19.699   8.850
 5338POPC   C1A14847  17.545  19.864   8.550
 5338POPC   D2A14848  17.489  19.798   8.250
 5338POPC   C3A14849  17.463  19.860   7.950
 5338POPC   C4A14850  17.509  19.883   7.650
 5338POPC   C1B14851  17.648  19.639   8.550
 5338POPC   C2B14852  17.648  19.617   8.250
 5338POPC   C3B14853  17.660  19.660   7.950
 5338POPC   C4B14854  17.615  19.657   7.650
 5339POPC   NC314855  24.531  19.018   9.450
 5339POPC   PO414856  24.464  19.073   9.150
 5339POPC   GL114857  24.456  19.015   8.850
 5339POPC   GL214858  24.598  19.048   8.850
 5339POPC   C1A14859  24.477  19.083   8.550
 5339POPC   D2A14860  24.460  19.046   8.250
 5339POPC   C3A14861  24.509  19.072   7.950
 5339POPC   C4A14862  24.486  19.048   7.650
 5339POPC   C1B14863  24.784  19.021   8.550
 5339POPC   C2B14864  24.776  19.026   8.250
 5339POPC   C3B14865  24.729  18.988   7.950
 5339POPC   C4B14866  24.736  19.008   7.650
 5340POPC   NC314867   7.452  37.725   9.450
 5340POPC   PO414868   7.421  37.700   9.150
 5340POPC   GL114869   7.381  37.702   8.850
 5340POPC   GL214870   7.548  37.614   8.850
 5340POPC   C1A14871   7.379  37.637   8.550
 5340POPC   D2A14872   7.404  37.699   8.250
 5340POPC   C3A14873   7.438  37.682   7.950
 5340POPC   C4A14874   7.425  37.725   7.650
 5340POPC   C1B14875   7.652  37.551   8.550
 5340POPC   C2B14876   7.624  37.532   8.250
 5340POPC   C3B14877   7.593  37.475   7.950
 5340POPC   C4B14878   7.602  37.480   7.650
 5341POPC   NC314879  10.509  43.889   9.450
 5341POPC   PO414880  10.490  43.886   9.150
 5341POPC   GL114881  10.506  43.907   8.850
 5341POPC   GL214882  10.614  43.815   8.850
 5341POPC   C1A14883  10.567  43.851   8.550
 5341POPC   D2A14884  10.479  43.850   8.250
 5341POPC   C3A14885  10.530  43.849   7.950
 5341POPC   C4A14886  10.515  43.906   7.650
 5341POPC   C1B14887  10.803  43.788   8.550
 5341POPC   C2B14888  10.771  43.831   8.250
 5341POPC   C3B14889  10.731  43.807   7.950
 5341POPC   C4B14890  10.785  43.821   7.650
 5342POPC   NC314891  29.873  29.949   9.450
 5342POPC   PO414892  29.917  29.897   9.150
 5342POPC   GL114893  29.958  29.901   8.850
 5342POPC   GL214894  29.827  29.813   8.850
 5342POPC   C1A14895  29.967  29.893   8.550
 5342POPC   D2A14896  29.920  29.970   8.250
 5342POPC   C3A14897  29.871  29.951   7.950
 5342POPC   C4A14898  29.903  29.877   7.650
 5342POPC   C1B14899  29.738  29.792   8.550
 5342POPC   C2B14900  29.755  29.808   8.250
 5342POPC   C3B14901  29.736  29.728   7.950
 5342POPC   C4B14902  29.673  29.763   7.650
 5343POPC   NC314903   5.097   3.556   9.450
 5343POPC   PO414904   5.051   3.550   9.150
 5343POPC   GL114905   5.098   3.519   8.850
 5343POPC   GL214906   5.085   3.667   8.850
 5343POPC   C1A14907   5.065   3.557   8.550
 5343POPC   D2A14908   5.057   3.516   8.250
 5343POPC   C3A14909   5.075   3.567   7.950
 5343POPC   C4A14910   5.095   3.498   7.650
 5343POPC   C1B14911   5.082   3.828   8.550
 5343POPC   C2B14912   5.048   3.780   8.250
 5343POPC   C3B14913   5.058   3.833   7.950
 5343POPC   C4B14914   5.086   3.810   7.650
 5344POPC   NC314915  31.454  37.668   9.450
 5344POPC   PO414916  31.434  37.685   9.150
 5344POPC   GL114917  31.517  37.679   8.850
 5344POPC   GL214918  31.337  37.675   8.850
 5344POPC   C1A14919  31.481  37.706   8.550
 5344POPC   D2A14920  31.503  37.686   8.250
 5344POPC   C3A14921  31.482  37.692   7.950
 5344POPC   C4A14922  31.455  37.650   7.650
 5344POPC   C1B14923  31.205  37.602   8.550
 5344POPC   C2B14924  31.208  37.564   8.250
 5344POPC   C3B14925  31.255  37.651   7.950
 5344POPC   C4B14926  31.247  37.609   7.650
 5345POPC   NC314927  43.899   7.440   9.450
 5345POPC   PO414928  43.891   7.429   9.150
 5345POPC   GL114929  43.932   7.455   8.850
 5345POPC   GL214930  44.032   7.444   8.850
 5345POPC   C1A14931  43.915   7.446   8.550
 5345POPC   D2A14932  43.862   7.383   8.250
 5345POPC   C3A14933  43.839   7.407   7.950
 5345POPC   C4A14934  43.901   7.426   7.650
 5345POPC   C1B14935  44.153   7.490   8.550
 5345POPC   C2B14936  44.077   7.476   8.250
 5345POPC   C3B14937  44.078   7.543   7.950
 5345POPC   C4B14938  44.111   7.529   7.650
 5346POPC   NC314939  20.598  36.868   9.450
 5346POPC   PO414940  20.616  36.858   9.150
 5346POPC   GL114941  20.598  36.941   8.850
 5346POPC   GL214942  20.723  37.014   8.850
 5346POPC   C1A14943  20.634  36.856   8.550
 5346POPC   D2A14944  20.563  36.904   8.250
 5346POPC   C3A14945  20.597  36.866   7.950
 5346POPC   C4A14946  20.566  36.947   7.650
 5346POPC   C1B14947  20.804  37.074   8.550
 5346POPC   C2B14948  20.767  37.130   8.250
 5346POPC   C3B14949  20.732  37.150   7.950
 5346POPC   C4B14950  20.750  37.091   7.650
 5347POPC   NC314951  18.324  43.930   9.450
 5347POPC   PO414952  18.237  43.842   9.150
 5347POPC   GL114953  18.244  43.842   8.850
 5347POPC   GL214954  18.217  43.755   8.850
 5347POPC   C1A14955  18.280  43.850   8.550
 5347POPC   D2A14956  18.323  43.852   8.250
 5347POPC   C3A14957  18.281  43.898   7.950
 5347POPC   C4A14958  18.263  43.893   7.650
 5347POPC   C1B14959  18.145  43.670   8.550
 5347POPC   C2B14960  18.170  43.639   8.250
 5347POPC   C3B14961  18.122  43.633   7.950
 5347POPC   C4B14962  18.119  43.636   7.650
 5348POPC   NC314963  32.276   4.322   9.450
 5348POPC   PO414964  32.246   4.273   9.150
 5348POPC   GL114965  32.267   4.320   8.850
 5348POPC   GL214966  32.230   4.193   8.850
 5348POPC   C1A14967  32.266   4.339   8.550
 5348POPC   D2A14968  32.219   4.355   8.250
 5348POPC   C3A14969  32.216   4.294   7.950
 5348POPC   C4A14970  32.284   4.298   7.650
 5348POPC   C1B14971  32.147   4.051   8.550
 5348POPC   C2B14972  32.182   4.110   8.250
 5348POPC   C3B14973  32.188   4.116   7.950
 5348POPC   C4B14974  32.149   4.050   7.650
 5349POPC   NC314975  40.769   3.555   9.450
 5349POPC   PO414976  40.814   3.524   9.150
 5349POPC   GL114977  40.748   3.580   8.850
 5349POPC   GL214978  40.674   3.490   8.850
 5349POPC   C1A14979  40.758   3.591   8.550
 5349POPC   D2A14980  40.744   3.557   8.250
 5349POPC   C3A14981  40.833   3.494   7.950
 5349POPC   C4A14982  40.822   3.561   7.650
 5349POPC   C1B14983  40.612   3.376   8.550
 5349POPC   C2B14984  40.536   3.427   8.250
 5349POPC   C3B14985  40.609   3.350   7.950
 5349POPC   C4B14986  40.603   3.444   7.650
 5350POPC   NC314987  12.049  22.210   9.450
 5350POPC   PO414988  12.057  22.128   9.150
 5350POPC   GL114989  12.062  22.157   8.850
 5350POPC   GL214990  12.193  22.084   8.850
 5350POPC   C1A14991  12.118  22.203   8.550
 5350POPC   D2A14992  12.106  22.148   8.250
 5350POPC   C3A14993  12.071  22.134   7.950
 5350POPC   C4A14994  12.094  22.188   7.650
 5350POPC   C1B14995  12.286  22.088   8.550
 5350POPC   C2B14996  12.286  22.110   8.250
 5350POPC   C3B14997  12.299  22.033   7.950
 5350POPC   C4B14998  12.362  22.042   7.650
 5351POPC   NC314999  33.835   4.315   9.450
 5351POPC   PO415000  33.758   4.275   9.150
 5351POPC   GL115001  33.765   4.355   8.850
 5351POPC   GL215002  33.778   4.474   8.850
 5351POPC   C1A15003  33.766   4.327   8.550
 5351POPC   D2A15004  33.841   4.324   8.250
 5351POPC   C3A15005  33.841   4.346   7.950
 5351POPC   C4A15006  33.811   4.277   7.650
 5351POPC   C1B15007  33.684   4.524   8.550
 5351POPC   C2B15008  33.721   4.521   8.250
 5351POPC   C3B15009  33.683   4.541   7.950
 5351POPC   C4B15010  33.678   4.557   7.650
 5352POPC   NC315011  18.259   7.427   9.450
 5352POPC   PO415012  18.288   7.464   9.150
 5352POPC   GL115013  18.264   7.442   8.850
 5352POPC   GL215014  18.373   7.546   8.850
 5352POPC   C1A15015  18.292   7.432   8.550
 5352POPC   D2A15016  18.240   7.393   8.250
 5352POPC   C3A15017  18.290   7.373   7.950
 5352POPC   C4A15018  18.246   7.453   7.650
 5352POPC   C1B15019  18.350   7.660   8.550
 5352POPC   C2B15020  18.356   7.678   8.250
 5352POPC   C3B15021  18.399   7.611   7.950
 5352POPC   C4B15022  18.400   7.703   7.650
 5353POPC   NC315023  26.779  34.618   9.450
 5353POPC   PO415024  26.798  34.556   9.150
 5353POPC   GL115025  26.823  34.617   8.850
 5353POPC   GL215026  26.705  34.648   8.850
 5353POPC   C1A15027  26.838  34.565   8.550
 5353POPC   D2A15028  26.841  34.570   8.250
 5353POPC   C3A15029  26.772  34.573   7.950
 5353POPC   C4A15030  26.860  34.547   7.650
 5353POPC   C1B15031  26.647  34.745   8.550
 5353POPC   C2B15032  26.639  34.715   8.250
 5353POPC   C3B15033  26.625  34.732   7.950
 5353POPC   C4B15034  26.610  34.689   7.650
 5354POPC   NC315035   8.929  33.060   9.450
 5354POPC   PO415036   8.957  33.041   9.150
 5354POPC   GL115037   9.003  32.996   8.850
 5354POPC   GL215038   9.051  32.991   8.850
 5354POPC   C1A15039   8.975  33.006   8.550
 5354POPC   D2A15040   9.011  33.034   8.250
 5354POPC   C3A15041   8.973  33.006   7.950
 5354POPC   C4A15042   9.006  33.037   7.650
 5354POPC   C1B15043   9.159  32.854   8.550
 5354POPC   C2B15044   9.158  32.929   8.250
 5354POPC   C3B15045   9.205  32.881   7.950
 5354POPC   C4B15046   9.225  32.846   7.650
 5355POPC   NC315047   9.732  37.719   9.450
 5355POPC   PO415048   9.772  37.699   9.150
 5355POPC   GL115049   9.746  37.669   8.850
 5355POPC   GL215050   9.787  37.583   8.850
 5355POPC   C1A15051   9.761  37.633   8.550
 5355POPC   D2A15052   9.703  37.716   8.250
 5355POPC   C3A15053   9.775  37.666   7.950
 5355POPC   C4A15054   9.756  37.720   7.650
 5355POPC   C1B15055   9.767  37.395   8.550
 5355POPC   C2B15056   9.803  37.450   8.250
 5355POPC   C3B15057   9.802  37.478   7.950
 5355POPC   C4B15058   9.747  37.481   7.650
 5356POPC   NC315059  43.095  31.495   9.450
 5356POPC   PO415060  43.087  31.439   9.150
 5356POPC   GL115061  43.074  31.463   8.850
 5356POPC   GL215062  43.045  31.593   8.850
 5356POPC   C1A15063  43.133  31.492   8.550
 5356POPC   D2A15064  43.137  31.499   8.250
 5356POPC   C3A15065  43.148  31.500   7.950
 5356POPC   C4A15066  43.152  31.443   7.650
 5356POPC   C1B15067  42.946  31.706   8.550
 5356POPC   C2B15068  42.999  31.707   8.250
 5356POPC   C3B15069  42.989  31.672   7.950
 5356POPC   C4B15070  43.012  31.665   7.650
 5357POPC   NC315071  41.603  39.974   9.450
 5357POPC   PO415072  41.580  40.053   9.150
 5357POPC   GL115073  41.511  40.053   8.850
 5357POPC   GL215074  41.483  39.906   8.850
 5357POPC   C1A15075  41.603  39.986   8.550
 5357POPC   D2A15076  41.588  39.979   8.250
 5357POPC   C3A15077  41.541  39.968   7.950
 5357POPC   C4A15078  41.576  40.046   7.650
 5357POPC   C1B15079  41.513  39.750   8.550
 5357POPC   C2B15080  41.498  39.788   8.250
 5357POPC   C3B15081  41.452  39.788   7.950
 5357POPC   C4B15082  41.515  39.789   7.650
 5358POPC   NC315083  43.146   8.230   9.450
 5358POPC   PO415084  43.061   8.157   9.150
 5358POPC   GL115085  43.118   8.159   8.850
 5358POPC   GL215086  43.248   8.287   8.850
 5358POPC   C1A15087  43.153   8.195   8.550
 5358POPC   D2A15088  43.134   8.174   8.250
 5358POPC   C3A15089  43.153   8.157   7.950
 5358POPC   C4A15090  43.078   8.150   7.650
 5358POPC   C1B15091  43.337   8.334   8.550
 5358POPC   C2B15092  43.320   8.374   8.250
 5358POPC   C3B15093  43.339   8.309   7.950
 5358POPC   C4B15094  43.266   8.328   7.650
 5359POPC   NC315095  15.177  26.814   9.450
 5359POPC   PO415096  15.229  26.825   9.150
 5359POPC   GL115097  15.141  26.769   8.850
 5359POPC   GL215098  15.169  26.734   8.850
 5359POPC   C1A15099  15.214  26.854   8.550
 5359POPC   D2A15100  15.132  26.866   8.250
 5359POPC   C3A15101  15.137  26.831   7.950
 5359POPC   C4A15102  15.203  26.852   7.650
 5359POPC   C1B15103  15.033  26.609   8.550
 5359POPC   C2B15104  15.025  26.542   8.250
 5359POPC   C3B15105  15.046  26.629   7.950
 5359POPC   C4B15106  15.029  26.621   7.650
 5360POPC   NC315107  22.947  10.522   9.450
 5360POPC   PO415108  22.945  10.475   9.150
 5360POPC   GL115109  22.953  10.546   8.850
 5360POPC   GL215110  22.842  10.640   8.850
 5360POPC   C1A15111  22.918  10.511   8.550
 5360POPC   D2A15112  22.900  10.519   8.250
 5360POPC   C3A15113  22.895  10.487   7.950
 5360POPC   C4A15114  22.985  10.515   7.650
 5360POPC   C1B15115  22.781  10.770   8.550
 5360POPC   C2B15116  22.772  10.713   8.250
 5360POPC   C3B15117  22.818  10.779   7.950
 5360POPC   C4B15118  22.825  10.699   7.650
 5361POPC   NC315119  10.498  17.533   9.450
 5361POPC   PO415120  10.546  17.470   9.150
 5361POPC   GL115121  10.519  17.506   8.850
 5361POPC   GL215122  10.568  17.610   8.850
 5361POPC   C1A15123  10.549  17.508   8.550
 5361POPC   D2A15124  10.552  17.460   8.250
 5361POPC   C3A15125  10.505  17.473   7.950
 5361POPC   C4A15126  10.530  17.512   7.650
 5361POPC   C1B15127  10.661  17.772   8.550
 5361POPC   C2B15128  10.655  17.764   8.250
 5361POPC   C3B15129  10.669  17.697   7.950
 5361POPC   C4B15130  10.650  17.689   7.650
 5362POPC   NC315131  33.062   5.077   9.450
 5362POPC   PO415132  33.062   5.096   9.150
 5362POPC   GL115133  33.046   5.114   8.850
 5362POPC   GL215134  33.092   5.058   8.850
 5362POPC   C1A15135  33.004   5.067   8.550
 5362POPC   D2A15136  33.039   5.125   8.250
 5362POPC   C3A15137  32.991   5.078   7.950
 5362POPC   C4A15138  33.057   5.071   7.650
 5362POPC   C1B15139  33.250   4.995   8.550
 5362POPC   C2B15140  33.267   4.953   8.250
 5362POPC   C3B15141  33.239   4.953   7.950
 5362POPC   C4B15142  33.272   4.957   7.650
 5363POPC   NC315143  12.078  31.427   9.450
 5363POPC   PO415144  12.027  31.428   9.150
 5363POPC   GL115145  12.031  31.438   8.850
 5363POPC   GL215146  12.031  31.590   8.850
 5363POPC   C1A15147  12.118  31.485   8.550
 5363POPC   D2A15148  12.041  31.453   8.250
 5363POPC   C3A15149  12.084  31.474   7.950
 5363POPC   C4A15150  12.044  31.468   7.650
 5363POPC   C1B15151  11.958  31.691   8.550
 5363POPC   C2B15152  11.934  31.732   8.250
 5363POPC   C3B15153  11.984  31.713   7.950
 5363POPC   C4B15154  11.953  31.643   7.650
 5364POPC   NC315155  28.404   2.731   9.450
 5364POPC   PO415156  28.411   2.807   9.150
 5364POPC   GL115157  28.353   2.742   8.850
 5364POPC   GL215158  28.489   2.705   8.850
 5364POPC   C1A15159  28.414   2.757   8.550
 5364POPC   D2A15160  28.338   2.758   8.250
 5364POPC   C3A15161  28.328   2.808   7.950
 5364POPC   C4A15162  28.372   2.774   7.650
 5364POPC   C1B15163  28.582   2.716   8.550
 5364POPC   C2B15164  28.586   2.718   8.250
 5364POPC   C3B15165  28.607   2.759   7.950
 5364POPC   C4B15166  28.653   2.703   7.650
 5365POPC   NC315167   1.257  34.580   9.450
 5365POPC   PO415168   1.171  34.546   9.150
 5365POPC   GL115169   1.176  34.619   8.850
 5365POPC   GL215170   1.233  34.433   8.850
 5365POPC   C1A15171   1.230  34.531   8.550
 5365POPC   D2A15172   1.260  34.601   8.250
 5365POPC   C3A15173   1.197  34.528   7.950
 5365POPC   C4A15174   1.255  34.568   7.650
 5365POPC   C1B15175   1.240  34.344   8.550
 5365POPC   C2B15176   1.328  34.366   8.250
 5365POPC   C3B15177   1.314  34.316   7.950
 5365POPC   C4B15178   1.266  34.378   7.650
 5366POPC   NC315179   2.014  36.158   9.450
 5366POPC   PO415180   1.983  36.093   9.150
 5366POPC   GL115181   2.021  36.151   8.850
 5366POPC   GL215182   1.985  35.970   8.850
 5366POPC   C1A15183   1.964  36.170   8.550
 5366POPC   D2A15184   2.021  36.178   8.250
 5366POPC   C3A15185   1.942  36.170   7.950
 5366POPC   C4A15186   2.016  36.094   7.650
 5366POPC   C1B15187   2.071  35.878   8.550
 5366POPC   C2B15188   2.071  35.846   8.250
 5366POPC   C3B15189   2.045  35.844   7.950
 5366POPC   C4B15190   2.033  35.890   7.650
 5367POPC   NC315191  15.160  36.121   9.450
 5367POPC   PO415192  15.181  36.085   9.150
 5367POPC   GL115193  15.190  36.152   8.850
 5367POPC   GL215194  15.264  36.209   8.850
 5367POPC   C1A15195  15.172  36.086   8.550
 5367POPC   D2A15196  15.201  36.127   8.250
 5367POPC   C3A15197  15.164  36.091   7.950
 5367POPC   C4A15198  15.167  36.105   7.650
 5367POPC   C1B15199  15.293  36.350   8.550
 5367POPC   C2B15200  15.300  36.355   8.250
 5367POPC   C3B15201  15.357  36.318   7.950
 5367POPC   C4B15202  15.294  36.282   7.650
 5368POPC   NC315203  41.608  12.895   9.450
 5368POPC   PO415204  41.552  12.874   9.150
 5368POPC   GL115205  41.542  12.887   8.850
 5368POPC   GL215206  41.516  12.779   8.850
 5368POPC   C1A15207  41.516  12.889   8.550
 5368POPC   D2A15208  41.520  12.897   8.250
 5368POPC   C3A15209  41.606  12.839   7.950
 5368POPC   C4A15210  41.587  12.850   7.650
 5368POPC   C1B15211  41.457  12.649   8.550
 5368POPC   C2B15212  41.425  12.609   8.250
 5368POPC   C3B15213  41.405  12.608   7.950
 5368POPC   C4B15214  41.455  12.664   7.650
 5369POPC   NC315215  22.939   1.164   9.450
 5369POPC   PO415216  22.899   1.228   9.150
 5369POPC   GL115217  22.922   1.242   8.850
 5369POPC   GL215218  22.894   1.294   8.850
 5369POPC   C1A15219  22.929   1.165   8.550
 5369POPC   D2A15220  22.987   1.166   8.250
 5369POPC   C3A15221  22.988   1.188   7.950
 5369POPC   C4A15222  22.917   1.214   7.650
 5369POPC   C1B15223  22.832   1.419   8.550
 5369POPC   C2B15224  22.868   1.409   8.250
 5369POPC   C3B15225  22.831   1.403   7.950
 5369POPC   C4B15226  22.835   1.440   7.650
 5370POPC   NC315227  33.841  29.968   9.450
 5370POPC   PO415228  33.758  29.914   9.150
 5370POPC   GL115229  33.797  29.894   8.850
 5370POPC   GL215230  33.877  29.773   8.850
 5370POPC   C1A15231  33.754  29.894   8.550
 5370POPC   D2A15232  33.755  29.892   8.250
 5370POPC   C3A15233  33.834  29.878   7.950
 5370POPC   C4A15234  33.843  29.904   7.650
 5370POPC   C1B15235  33.910  29.643   8.550
 5370POPC   C2B15236  33.871  29.635   8.250
 5370POPC   C3B15237  33.858  29.672   7.950
 5370POPC   C4B15238  33.860  29.661   7.650
 5371POPC   NC315239  15.958  29.927   9.450
 5371POPC   PO415240  15.928  29.930   9.150
 5371POPC   GL115241  16.005  29.871   8.850
 5371POPC   GL215242  16.102  29.929   8.850
 5371POPC   C1A15243  15.959  29.902   8.550
 5371POPC   D2A15244  15.921  29.871   8.250
 5371POPC   C3A15245  15.921  29.926   7.950
 5371POPC   C4A15246  15.959  29.961   7.650
 5371POPC   C1B15247  16.141  29.861   8.550
 5371POPC   C2B15248  16.162  29.791   8.250
 5371POPC   C3B15249  16.150  29.871   7.950
 5371POPC   C4B15250  16.171  29.830   7.650
 5372POPC   NC315251   6.674   4.355   9.450
 5372POPC   PO415252   6.609   4.324   9.150
 5372POPC   GL115253   6.645   4.314   8.850
 5372POPC   GL215254   6.712   4.220   8.850
 5372POPC   C1A15255   6.610   4.331   8.550
 5372POPC   D2A15256   6.627   4.269   8.250
 5372POPC   C3A15257   6.632   4.335   7.950
 5372POPC   C4A15258   6.678   4.289   7.650
 5372POPC   C1B15259   6.889   4.194   8.550
 5372POPC   C2B15260   6.897   4.191   8.250
 5372POPC   C3B15261   6.885   4.248   7.950
 5372POPC   C4B15262   6.829   4.246   7.650
 5373POPC   NC315263  29.100  41.598   9.450
 5373POPC   PO415264  29.164  41.551   9.150
 5373POPC   GL115265  29.135  41.608   8.850
 5373POPC   GL215266  29.081  41.720   8.850
 5373POPC   C1A15267  29.102  41.534   8.550
 5373POPC   D2A15268  29.121  41.550   8.250
 5373POPC   C3A15269  29.176  41.558   7.950
 5373POPC   C4A15270  29.155  41.551   7.650
 5373POPC   C1B15271  28.988  41.743   8.550
 5373POPC   C2B15272  29.034  41.747   8.250
 5373POPC   C3B15273  29.043  41.768   7.950
 5373POPC   C4B15274  29.057  41.762   7.650
 5374POPC   NC315275  44.621  21.370   9.450
 5374POPC   PO415276  44.642  21.371   9.150
 5374POPC   GL115277  44.702  21.366   8.850
 5374POPC   GL215278  44.651  21.256   8.850
 5374POPC   C1A15279  44.660  21.414   8.550
 5374POPC   D2A15280  44.616  21.347   8.250
 5374POPC   C3A15281  44.648  21.417   7.950
 5374POPC   C4A15282  44.628  21.352   7.650
 5374POPC   C1B15283  44.753  21.110   8.550
 5374POPC   C2B15284  44.739  21.168   8.250
 5374POPC   C3B15285  44.679  21.101   7.950
 5374POPC   C4B15286  44.663  21.104   7.650
 5375POPC   NC315287  36.155   2.002   9.450
 5375POPC   PO415288  36.162   1.966   9.150
 5375POPC   GL115289  36.160   2.003   8.850
 5375POPC   GL215290  36.240   2.009   8.850
 5375POPC   C1A15291  36.128   1.988   8.550
 5375POPC   D2A15292  36.084   1.977   8.250
 5375POPC   C3A15293  36.121   1.972   7.950
 5375POPC   C4A15294  36.165   2.027   7.650
 5375POPC   C1B15295  36.318   2.030   8.550
 5375POPC   C2B15296  36.335   2.116   8.250
 5375POPC   C3B15297  36.389   2.077   7.950
 5375POPC   C4B15298  36.412   2.025   7.650
 5376POPC   NC315299   4.357   8.999   9.450
 5376POPC   PO415300   4.363   9.005   9.150
 5376POPC   GL115301   4.289   8.944   8.850
 5376POPC   GL215302   4.199   9.077   8.850
 5376POPC   C1A15303   4.325   9.013   8.550
 5376POPC   D2A15304   4.316   8.944   8.250
 5376POPC   C3A15305   4.321   8.931   7.950
 5376POPC   C4A15306   4.338   8.964   7.650
 5376POPC   C1B15307   4.068   9.073   8.550
 5376POPC   C2B15308   4.102   9.095   8.250
 5376POPC   C3B15309   4.144   9.092   7.950
 5376POPC   C4B15310   4.099   9.101   7.650
 5377POPC   NC315311  41.600  28.407   9.450
 5377POPC   PO415312  41.539  28.383   9.150
 5377POPC   GL115313  41.556  28.359   8.850
 5377POPC   GL215314  41.648  28.259   8.850
 5377POPC   C1A15315  41.590  28.406   8.550
 5377POPC   D2A15316  41.517  28.415   8.250
 5377POPC   C3A15317  41.566  28.416   7.950
 5377POPC   C4A15318  41.571  28.419   7.650
 5377POPC   C1B15319  41.705  28.132   8.550
 5377POPC   C2B15320  41.692  28.147   8.250
 5377POPC   C3B15321  41.715  28.131   7.950
 5377POPC   C4B15322  41.677  28.195   7.650
 5378POPC   NC315323  10.506  29.899   9.450
 5378POPC   PO415324  10.560  29.922   9.150
 5378POPC   GL115325  10.507  29.902   8.850
 5378POPC   GL215326  10.682  29.920   8.850
 5378POPC   C1A15327  10.479  29.956   8.550
 5378POPC   D2A15328  10.483  29.909   8.250
 5378POPC   C3A15329  10.537  29.906   7.950
 5378POPC   C4A15330  10.530  29.942   7.650
 5378POPC   C1B15331  10.739  29.986   8.550
 5378POPC   C2B15332  10.733  29.987   8.250
 5378POPC   C3B15333  10.731  30.006   7.950
 5378POPC   C4B15334  10.811  29.939   7.650
 5379POPC   NC315335   5.835   7.434   9.450
 5379POPC   PO415336   5.827   7.393   9.150
 5379POPC   GL115337   5.877   7.437   8.850
 5379POPC   GL215338   5.817   7.530   8.850
 5379POPC   C1A15339   5.858   7.401   8.550
 5379POPC   D2A15340   5.908   7.394   8.250
 5379POPC   C3A15341   5.859   7.385   7.950
 5379POPC   C4A15342   5.883   7.433   7.650
 5379POPC   C1B15343   5.799   7.692   8.550
 5379POPC   C2B15344   5.826   7.710   8.250
 5379POPC   C3B15345   5.794   7.643   7.950
 5379POPC   C4B15346   5.831   7.689   7.650
 5380POPC   NC315347  26.003  17.551   9.450
 5380POPC   PO415348  26.044  17.471   9.150
 5380POPC   GL115349  26.007  17.492   8.850
 5380POPC   GL215350  26.130  17.454   8.850
 5380POPC   C1A15351  26.084  17.481   8.550
 5380POPC   D2A15352  26.016  17.549   8.250
 5380POPC   C3A15353  25.999  17.536   7.950
 5380POPC   C4A15354  26.058  17.515   7.650
 5380POPC   C1B15355  26.298  17.496   8.550
 5380POPC   C2B15356  26.292  17.432   8.250
 5380POPC   C3B15357  26.252  17.466   7.950
 5380POPC   C4B15358  26.279  17.489   7.650
 5381POPC   NC315359  38.406  15.171   9.450
 5381POPC   PO415360  38.503  15.221   9.150
 5381POPC   GL115361  38.459  15.157   8.850
 5381POPC   GL215362  38.602  15.257   8.850
 5381POPC   C1A15363  38.482  15.153   8.550
 5381POPC   D2A15364  38.421  15.131   8.250
 5381POPC   C3A15365  38.434  15.132   7.950
 5381POPC   C4A15366  38.416  15.154   7.650
 5381POPC   C1B15367  38.718  15.224   8.550
 5381POPC   C2B15368  38.666  15.258   8.250
 5381POPC   C3B15369  38.741  15.284   7.950
 5381POPC   C4B15370  38.715  15.245   7.650
 5382POPC   NC315371  24.487  21.401   9.450
 5382POPC   PO415372  24.475  21.421   9.150
 5382POPC   GL115373  24.441  21.409   8.850
 5382POPC   GL215374  24.419  21.243   8.850
 5382POPC   C1A15375  24.520  21.348   8.550
 5382POPC   D2A15376  24.537  21.399   8.250
 5382POPC   C3A15377  24.489  21.379   7.950
 5382POPC   C4A15378  24.526  21.350   7.650
 5382POPC   C1B15379  24.339  21.198   8.550
 5382POPC   C2B15380  24.328  21.232   8.250
 5382POPC   C3B15381  24.386  21.168   7.950
 5382POPC   C4B15382  24.379  21.147   7.650
 5383POPC   NC315383  40.767  33.050   9.450
 5383POPC   PO415384  40.789  33.067   9.150
 5383POPC   GL115385  40.808  33.071   8.850
 5383POPC   GL215386  40.898  32.994   8.850
 5383POPC   C1A15387  40.809  33.059   8.550
 5383POPC   D2A15388  40.820  33.061   8.250
 5383POPC   C3A15389  40.782  33.044   7.950
 5383POPC   C4A15390  40.808  33.023   7.650
 5383POPC   C1B15391  41.041  32.987   8.550
 5383POPC   C2B15392  41.066  32.991   8.250
 5383POPC   C3B15393  41.024  33.050   7.950
 5383POPC   C4B15394  40.987  33.055   7.650
 5384POPC   NC315395  40.780  29.890   9.450
 5384POPC   PO415396  40.758  29.898   9.150
 5384POPC   GL115397  40.767  29.914   8.850
 5384POPC   GL215398  40.735  29.808   8.850
 5384POPC   C1A15399  40.752  29.889   8.550
 5384POPC   D2A15400  40.746  29.878   8.250
 5384POPC   C3A15401  40.824  29.913   7.950
 5384POPC   C4A15402  40.824  29.884   7.650
 5384POPC   C1B15403  40.741  29.684   8.550
 5384POPC   C2B15404  40.763  29.628   8.250
 5384POPC   C3B15405  40.799  29.657   7.950
 5384POPC   C4B15406  40.733  29.655   7.650
 5385POPC   NC315407  23.705   1.263   9.450
 5385POPC   PO415408  23.710   1.202   9.150
 5385POPC   GL115409  23.706   1.223   8.850
 5385POPC   GL215410  23.673   1.339   8.850
 5385POPC   C1A15411  23.691   1.189   8.550
 5385POPC   D2A15412  23.693   1.250   8.250
 5385POPC   C3A15413  23.670   1.236   7.950
 5385POPC   C4A15414  23.721   1.217   7.650
 5385POPC   C1B15415  23.627   1.383   8.550
 5385POPC   C2B15416  23.620   1.422   8.250
 5385POPC   C3B15417  23.537   1.417   7.950
 5385POPC   C4B15418  23.559   1.452   7.650
 5386POPC   NC315419   1.999   9.766   9.450
 5386POPC   PO415420   2.007   9.699   9.150
 5386POPC   GL115421   2.012   9.755   8.850
 5386POPC   GL215422   1.895   9.838   8.850
 5386POPC   C1A15423   1.963   9.777   8.550
 5386POPC   D2A15424   1.954   9.717   8.250
 5386POPC   C3A15425   1.948   9.745   7.950
 5386POPC   C4A15426   1.959   9.786   7.650
 5386POPC   C1B15427   1.886   9.945   8.550
 5386POPC   C2B15428   1.876   9.964   8.250
 5386POPC   C3B15429   1.847   9.979   7.950
 5386POPC   C4B15430   1.878   9.933   7.650
 5387POPC   NC315431  19.052  30.715   9.450
 5387POPC   PO415432  19.058  30.743   9.150
 5387POPC   GL115433  19.087  30.706   8.850
 5387POPC   GL215434  18.890  30.695   8.850
 5387POPC   C1A15435  19.050  30.739   8.550
 5387POPC   D2A15436  19.103  30.730   8.250
 5387POPC   C3A15437  19.015  30.716   7.950
 5387POPC   C4A15438  19.090  30.648   7.650
 5387POPC   C1B15439  18.776  30.619   8.550
 5387POPC   C2B15440  18.810  30.647   8.250
 5387POPC   C3B15441  18.790  30.632   7.950
 5387POPC   C4B15442  18.773  30.580   7.650
 5388POPC   NC315443  34.530  31.444   9.450
 5388POPC   PO415444  34.557  31.434   9.150
 5388POPC   GL115445  34.564  31.508   8.850
 5388POPC   GL215446  34.556  31.305   8.850
 5388POPC   C1A15447  34.619  31.498   8.550
 5388POPC   D2A15448  34.576  31.432   8.250
 5388POPC   C3A15449  34.537  31.505   7.950
 5388POPC   C4A15450  34.597  31.506   7.650
 5388POPC   C1B15451  34.561  31.208   8.550
 5388POPC   C2B15452  34.510  31.220   8.250
 5388POPC   C3B15453  34.564  31.204   7.950
 5388POPC   C4B15454  34.527  31.277   7.650
 5389POPC   NC315455  21.395  11.320   9.450
 5389POPC   PO415456  21.351  11.269   9.150
 5389POPC   GL115457  21.408  11.283   8.850
 5389POPC   GL215458  21.380  11.151   8.850
 5389POPC   C1A15459  21.402  11.315   8.550
 5389POPC   D2A15460  21.338  11.304   8.250
 5389POPC   C3A15461  21.403  11.301   7.950
 5389POPC   C4A15462  21.360  11.323   7.650
 5389POPC   C1B15463  21.477  11.091   8.550
 5389POPC   C2B15464  21.437  11.031   8.250
 5389POPC   C3B15465  21.465  11.023   7.950
 5389POPC   C4B15466  21.440  11.065   7.650
 5390POPC   NC315467  18.247   8.959   9.450
 5390POPC   PO415468  18.257   8.945   9.150
 5390POPC   GL115469  18.259   8.956   8.850
 5390POPC   GL215470  18.264   9.055   8.850
 5390POPC   C1A15471  18.258   8.979   8.550
 5390POPC   D2A15472  18.333   8.953   8.250
 5390POPC   C3A15473  18.283   9.018   7.950
 5390POPC   C4A15474  18.306   8.942   7.650
 5390POPC   C1B15475  18.344   9.237   8.550
 5390POPC   C2B15476  18.279   9.227   8.250
 5390POPC   C3B15477  18.321   9.255   7.950
 5390POPC   C4B15478  18.263   9.262   7.650
 5391POPC   NC315479  31.489   6.656   9.450
 5391POPC   PO415480  31.515   6.689   9.150
 5391POPC   GL115481  31.485   6.680   8.850
 5391POPC   GL215482  31.365   6.628   8.850
 5391POPC   C1A15483  31.462   6.634   8.550
 5391POPC   D2A15484  31.515   6.611   8.250
 5391POPC   C3A15485  31.489   6.617   7.950
 5391POPC   C4A15486  31.465   6.664   7.650
 5391POPC   C1B15487  31.193   6.587   8.550
 5391POPC   C2B15488  31.235   6.539   8.250
 5391POPC   C3B15489  31.283   6.518   7.950
 5391POPC   C4B15490  31.244   6.524   7.650
 5392POPC   NC315491  43.892   4.364   9.450
 5392POPC   PO415492  43.903   4.366   9.150
 5392POPC   GL115493  43.845   4.279   8.850
 5392POPC   GL215494  43.780   4.407   8.850
 5392POPC   C1A15495  43.858   4.364   8.550
 5392POPC   D2A15496  43.931   4.296   8.250
 5392POPC   C3A15497  43.893   4.275   7.950
 5392POPC   C4A15498  43.876   4.359   7.650
 5392POPC   C1B15499  43.688   4.402   8.550
 5392POPC   C2B15500  43.627   4.423   8.250
 5392POPC   C3B15501  43.692   4.434   7.950
 5392POPC   C4B15502  43.677   4.378   7.650
 5393POPC   NC315503   1.208  15.966   9.450
 5393POPC   PO415504   1.253  15.923   9.150
 5393POPC   GL115505   1.168  16.002   8.850
 5393POPC   GL215506   1.252  15.878   8.850
 5393POPC   C1A15507   1.210  15.936   8.550
 5393POPC   D2A15508   1.225  15.995   8.250
 5393POPC   C3A15509   1.230  15.960   7.950
 5393POPC   C4A15510   1.255  15.908   7.650
 5393POPC   C1B15511   1.236  15.749   8.550
 5393POPC   C2B15512   1.241  15.684   8.250
 5393POPC   C3B15513   1.261  15.687   7.950
 5393POPC   C4B15514   1.250  15.731   7.650
 5394POPC   NC315515  33.797  39.211   9.450
 5394POPC   PO415516  33.768  39.225   9.150
 5394POPC   GL115517  33.772  39.256   8.850
 5394POPC   GL215518  33.868  39.297   8.850
 5394POPC   C1A15519  33.789  39.254   8.550
 5394POPC   D2A15520  33.808  39.223   8.250
 5394POPC   C3A15521  33.757  39.271   7.950
 5394POPC   C4A15522  33.808  39.219   7.650
 5394POPC   C1B15523  33.982  39.378   8.550
 5394POPC   C2B15524  34.056  39.401   8.250
 5394POPC   C3B15525  33.961  39.367   7.950
 5394POPC   C4B15526  33.993  39.347   7.650
 5395POPC   NC315527  43.883  40.040   9.450
 5395POPC   PO415528  43.867  40.010   9.150
 5395POPC   GL115529  43.910  40.024   8.850
 5395POPC   GL215530  43.993  40.044   8.850
 5395POPC   C1A15531  43.910  39.971   8.550
 5395POPC   D2A15532  43.872  40.001   8.250
 5395POPC   C3A15533  43.935  39.983   7.950
 5395POPC   C4A15534  43.910  40.039   7.650
 5395POPC   C1B15535  44.101  40.060   8.550
 5395POPC   C2B15536  44.091  40.048   8.250
 5395POPC   C3B15537  44.111  40.081   7.950
 5395POPC   C4B15538  44.166  40.085   7.650
 5396POPC   NC315539  35.357  19.851   9.450
 5396POPC   PO415540  35.393  19.787   9.150
 5396POPC   GL115541  35.388  19.786   8.850
 5396POPC   GL215542  35.410  19.958   8.850
 5396POPC   C1A15543  35.357  19.787   8.550
 5396POPC   D2A15544  35.376  19.842   8.250
 5396POPC   C3A15545  35.313  19.862   7.950
 5396POPC   C4A15546  35.401  19.785   7.650
 5396POPC   C1B15547  35.428  20.111   8.550
 5396POPC   C2B15548  35.382  20.030   8.250
 5396POPC   C3B15549  35.399  20.124   7.950
 5396POPC   C4B15550  35.423  20.080   7.650
 5397POPC   NC315551  34.536  40.791   9.450
 5397POPC   PO415552  34.604  40.790   9.150
 5397POPC   GL115553  34.593  40.784   8.850
 5397POPC   GL215554  34.687  40.783   8.850
 5397POPC   C1A15555  34.530  40.783   8.550
 5397POPC   D2A15556  34.549  40.823   8.250
 5397POPC   C3A15557  34.626  40.759   7.950
 5397POPC   C4A15558  34.557  40.795   7.650
 5397POPC   C1B15559  34.802  40.789   8.550
 5397POPC   C2B15560  34.832  40.800   8.250
 5397POPC   C3B15561  34.873  40.740   7.950
 5397POPC   C4B15562  34.827  40.814   7.650
 5398POPC   NC315563  16.727  41.546   9.450
 5398POPC   PO415564  16.720  41.593   9.150
 5398POPC   GL115565  16.739  41.598   8.850
 5398POPC   GL215566  16.711  41.720   8.850
 5398POPC   C1A15567  16.726  41.520   8.550
 5398POPC   D2A15568  16.682  41.562   8.250
 5398POPC   C3A15569  16.780  41.534   7.950
 5398POPC   C4A15570  16.710  41.594   7.650
 5398POPC   C1B15571  16.625  41.831   8.550
 5398POPC   C2B15572  16.675  41.802   8.250
 5398POPC   C3B15573  16.644  41.769   7.950
 5398POPC   C4B15574  16.656  41.824   7.650
 5399POPC   NC315575   3.529   4.319   9.450
 5399POPC   PO415576   3.541   4.297   9.150
 5399POPC   GL115577   3.513   4.352   8.850
 5399POPC   GL215578   3.519   4.222   8.850
 5399POPC   C1A15579   3.551   4.315   8.550
 5399POPC   D2A15580   3.579   4.334   8.250
 5399POPC   C3A15581   3.505   4.334   7.950
 5399POPC   C4A15582   3.577   4.267   7.650
 5399POPC   C1B15583   3.483   4.070   8.550
 5399POPC   C2B15584   3.459   4.068   8.250
 5399POPC   C3B15585   3.432   4.089   7.950
 5399POPC   C4B15586   3.468   4.119   7.650
 5400POPC   NC315587  36.136  11.301   9.450
 5400POPC   PO415588  36.115  11.252   9.150
 5400POPC   GL115589  36.110  11.275   8.850
 5400POPC   GL215590  36.289  11.375   8.850
 5400POPC   C1A15591  36.084  11.267   8.550
 5400POPC   D2A15592  36.151  11.291   8.250
 5400POPC   C3A15593  36.156  11.297   7.950
 5400POPC   C4A15594  36.171  11.266   7.650
 5400POPC   C1B15595  36.349  11.416   8.550
 5400POPC   C2B15596  36.392  11.413   8.250
 5400POPC   C3B15597  36.321  11.377   7.950
 5400POPC   C4B15598  36.328  11.418   7.650
 5401POPC   NC315599  43.879  40.740   9.450
 5401POPC   PO415600  43.902  40.832   9.150
 5401POPC   GL115601  43.910  40.786   8.850
 5401POPC   GL215602  43.736  40.842   8.850
 5401POPC   C1A15603  43.928  40.799   8.550
 5401POPC   D2A15604  43.895  40.771   8.250
 5401POPC   C3A15605  43.870  40.777   7.950
 5401POPC   C4A15606  43.842  40.761   7.650
 5401POPC   C1B15607  43.632  40.943   8.550
 5401POPC   C2B15608  43.627  40.960   8.250
 5401POPC   C3B15609  43.664  40.894   7.950
 5401POPC   C4B15610  43.726  40.886   7.650
 5402POPC   NC315611  18.262   0.457   9.450
 5402POPC   PO415612  18.279   0.388   9.150
 5402POPC   GL115613  18.326   0.480   8.850
 5402POPC   GL215614  18.245   0.271   8.850
 5402POPC   C1A15615  18.266   0.462   8.550
 5402POPC   D2A15616  18.305   0.412   8.250
 5402POPC   C3A15617  18.328   0.444   7.950
 5402POPC   C4A15618  18.260   0.416   7.650
 5402POPC   C1B15619  18.269   0.168   8.550
 5402POPC   C2B15620  18.202   0.154   8.250
 5402POPC   C3B15621  18.248   0.224   7.950
 5402POPC   C4B15622  18.274   0.237   7.650
 5403POPC   NC315623   3.507  10.485   9.450
 5403POPC   PO415624   3.579  10.533   9.150
 5403POPC   GL115625   3.543  10.532   8.850
 5403POPC   GL215626   3.483  10.435   8.850
 5403POPC   C1A15627   3.525  10.479   8.550
 5403POPC   D2A15628   3.529  10.484   8.250
 5403POPC   C3A15629   3.586  10.531   7.950
 5403POPC   C4A15630   3.508  10.553   7.650
 5403POPC   C1B15631   3.316  10.405   8.550
 5403POPC   C2B15632   3.363  10.415   8.250
 5403POPC   C3B15633   3.357  10.343   7.950
 5403POPC   C4B15634   3.311  10.368   7.650
 5404POPC   NC315635  29.953  23.671   9.450
 5404POPC   PO415636  29.961  23.697   9.150
 5404POPC   GL115637  29.924  23.704   8.850
 5404POPC   GL215638  29.889  23.870   8.850
 5404POPC   C1A15639  29.881  23.690   8.550
 5404POPC   D2A15640  29.886  23.757   8.250
 5404POPC   C3A15641  29.932  23.684   7.950
 5404POPC   C4A15642  29.966  23.668   7.650
 5404POPC   C1B15643  29.824  23.963   8.550
 5404POPC   C2B15644  29.810  23.920   8.250
 5404POPC   C3B15645  29.788  23.894   7.950
 5404POPC   C4B15646  29.819  23.990   7.650
 5405POPC   NC315647  30.715  41.567   9.450
 5405POPC   PO415648  30.695  41.572   9.150
 5405POPC   GL115649  30.716  41.558   8.850
 5405POPC   GL215650  30.557  41.496   8.850
 5405POPC   C1A15651  30.667  41.564   8.550
 5405POPC   D2A15652  30.689  41.545   8.250
 5405POPC   C3A15653  30.667  41.553   7.950
 5405POPC   C4A15654  30.691  41.531   7.650
 5405POPC   C1B15655  30.520  41.385   8.550
 5405POPC   C2B15656  30.545  41.371   8.250
 5405POPC   C3B15657  30.503  41.353   7.950
 5405POPC   C4B15658  30.541  41.378   7.650
 5406POPC   NC315659  23.667  10.562   9.450
 5406POPC   PO415660  23.721  10.530   9.150
 5406POPC   GL115661  23.723  10.543   8.850
 5406POPC   GL215662  23.780  10.667   8.850
 5406POPC   C1A15663  23.757  10.557   8.550
 5406POPC   D2A15664  23.681  10.494   8.250
 5406POPC   C3A15665  23.701  10.519   7.950
 5406POPC   C4A15666  23.671  10.534   7.650
 5406POPC   C1B15667  23.851  10.799   8.550
 5406POPC   C2B15668  23.793  10.708   8.250
 5406POPC   C3B15669  23.787  10.729   7.950
 5406POPC   C4B15670  23.805  10.732   7.650
 5407POPC   NC315671  40.828  11.263   9.450
 5407POPC   PO415672  40.778  11.295   9.150
 5407POPC   GL115673  40.816  11.258   8.850
 5407POPC   GL215674  40.813  11.388   8.850
 5407POPC   C1A15675  40.799  11.309   8.550
 5407POPC   D2A15676  40.808  11.337   8.250
 5407POPC   C3A15677  40.826  11.350   7.950
 5407POPC   C4A15678  40.804  11.346   7.650
 5407POPC   C1B15679  40.865  11.562   8.550
 5407POPC   C2B15680  40.920  11.530   8.250
 5407POPC   C3B15681  40.907  11.534   7.950
 5407POPC   C4B15682  40.915  11.486   7.650
 5408POPC   NC315683  32.983  36.115   9.450
 5408POPC   PO415684  33.029  36.133   9.150
 5408POPC   GL115685  32.989  36.103   8.850
 5408POPC   GL215686  33.182  36.174   8.850
 5408POPC   C1A15687  33.028  36.158   8.550
 5408POPC   D2A15688  32.988  36.165   8.250
 5408POPC   C3A15689  33.072  36.085   7.950
 5408POPC   C4A15690  33.060  36.118   7.650
 5408POPC   C1B15691  33.259  36.182   8.550
 5408POPC   C2B15692  33.306  36.139   8.250
 5408POPC   C3B15693  33.276  36.129   7.950
 5408POPC   C4B15694  33.303  36.204   7.650
 5409POPC   NC315695  43.905  29.961   9.450
 5409POPC   PO415696  43.854  29.883   9.150
 5409POPC   GL115697  43.858  29.929   8.850
 5409POPC   GL215698  43.891  30.035   8.850
 5409POPC   C1A15699  43.908  29.928   8.550
 5409POPC   D2A15700  43.897  29.962   8.250
 5409POPC   C3A15701  43.871  29.955   7.950
 5409POPC   C4A15702  43.872  29.882   7.650
 5409POPC   C1B15703  43.918  30.189   8.550
 5409POPC   C2B15704  43.910  30.124   8.250
 5409POPC   C3B15705  43.860  30.184   7.950
 5409POPC   C4B15706  43.891  30.210   7.650
 5410POPC   NC315707  11.297  44.692   9.450
 5410POPC   PO415708  11.315  44.615   9.150
 5410POPC   GL115709  11.266  44.643   8.850
 5410POPC   GL215710  11.431  44.581   8.850
 5410POPC   C1A15711  11.349  44.703   8.550
 5410POPC   D2A15712  11.318  44.658   8.250
 5410POPC   C3A15713  11.320  44.673   7.950
 5410POPC   C4A15714  11.326  44.660   7.650
 5410POPC   C1B15715  11.465  44.508   8.550
 5410POPC   C2B15716  11.451  44.466   8.250
 5410POPC   C3B15717  11.456  44.451   7.950
 5410POPC   C4B15718  11.425  44.450   7.650
 5411POPC   NC315719  37.650  23.688   9.450
 5411POPC   PO415720  37.673  23.746   9.150
 5411POPC   GL115721  37.708  23.713   8.850
 5411POPC   GL215722  37.763  23.715   8.850
 5411POPC   C1A15723  37.671  23.756   8.550
 5411POPC   D2A15724  37.643  23.727   8.250
 5411POPC   C3A15725  37.723  23.745   7.950
 5411POPC   C4A15726  37.664  23.740   7.650
 5411POPC   C1B15727  37.906  23.694   8.550
 5411POPC   C2B15728  37.932  23.635   8.250
 5411POPC   C3B15729  37.943  23.626   7.950
 5411POPC   C4B15730  37.969  23.697   7.650
 5412POPC   NC315731  12.066   9.744   9.450
 5412POPC   PO415732  12.054   9.752   9.150
 5412POPC   GL115733  12.046   9.723   8.850
 5412POPC   GL215734  11.953   9.663   8.850
 5412POPC   C1A15735  12.049   9.784   8.550
 5412POPC   D2A15736  12.069   9.728   8.250
 5412POPC   C3A15737  12.103   9.778   7.950
 5412POPC   C4A15738  12.043   9.732   7.650
 5412POPC   C1B15739  11.957   9.532   8.550
 5412POPC   C2B15740  11.931   9.566   8.250
 5412POPC   C3B15741  11.905   9.502   7.950
 5412POPC   C4B15742  11.941   9.572   7.650
 5413POPC   NC315743   1.234   8.227   9.450
 5413POPC   PO415744   1.248   8.207   9.150
 5413POPC   GL115745   1.242   8.189   8.850
 5413POPC   GL215746   1.202   8.096   8.850
 5413POPC   C1A15747   1.241   8.176   8.550
 5413POPC   D2A15748   1.218   8.229   8.250
 5413POPC   C3A15749   1.249   8.162   7.950
 5413POPC   C4A15750   1.167   8.175   7.650
 5413POPC   C1B15751   1.113   7.956   8.550
 5413POPC   C2B15752   1.090   7.923   8.250
 5413POPC   C3B15753   1.090   7.958   7.950
 5413POPC   C4B15754   1.134   7.955   7.650
 5414POPC   NC315755  28.375  32.247   9.450
 5414POPC   PO415756  28.350  32.244   9.150
 5414POPC   GL115757  28.356  32.232   8.850
 5414POPC   GL215758  28.399  32.422   8.850
 5414POPC   C1A15759  28.364  32.223   8.550
 5414POPC   D2A15760  28.335  32.230   8.250
 5414POPC   C3A15761  28.413  32.207   7.950
 5414POPC   C4A15762  28.405  32.245   7.650
 5414POPC   C1B15763  28.365  32.530   8.550
 5414POPC   C2B15764  28.425  32.527   8.250
 5414POPC   C3B15765  28.429  32.453   7.950
 5414POPC   C4B15766  28.382  32.509   7.650
 5415POPC   NC315767  23.712  43.082   9.450
 5415POPC   PO415768  23.691  43.159   9.150
 5415POPC   GL115769  23.735  43.104   8.850
 5415POPC   GL215770  23.683  42.954   8.850
 5415POPC   C1A15771  23.699  43.089   8.550
 5415POPC   D2A15772  23.668  43.083   8.250
 5415POPC   C3A15773  23.741  43.122   7.950
 5415POPC   C4A15774  23.730  43.073   7.650
 5415POPC   C1B15775  23.576  42.852   8.550
 5415POPC   C2B15776  23.610  42.928   8.250
 5415POPC   C3B15777  23.562  42.933   7.950
 5415POPC   C4B15778  23.595  42.932   7.650
 5416POPC   NC315779  12.854  26.787   9.450
 5416POPC   PO415780  12.817  26.816   9.150
 5416POPC   GL115781  12.817  26.856   8.850
 5416POPC   GL215782  12.726  26.747   8.850
 5416POPC   C1A15783  12.835  26.861   8.550
 5416POPC   D2A15784  12.815  26.770   8.250
 5416POPC   C3A15785  12.846  26.808   7.950
 5416POPC   C4A15786  12.818  26.842   7.650
 5416POPC   C1B15787  12.696  26.648   8.550
 5416POPC   C2B15788  12.701  26.624   8.250
 5416POPC   C3B15789  12.653  26.643   7.950
 5416POPC   C4B15790  12.633  26.611   7.650
 5417POPC   NC315791  43.106  44.621   9.450
 5417POPC   PO415792  43.125  44.652   9.150
 5417POPC   GL115793  43.103  44.656   8.850
 5417POPC   GL215794  42.981  44.591   8.850
 5417POPC   C1A15795  43.100  44.680   8.550
 5417POPC   D2A15796  43.066  44.707   8.250
 5417POPC   C3A15797  43.135  44.629   7.950
 5417POPC   C4A15798  43.103  44.670   7.650
 5417POPC   C1B15799  42.823  44.649   8.550
 5417POPC   C2B15800  42.858  44.644   8.250
 5417POPC   C3B15801  42.878  44.588   7.950
 5417POPC   C4B15802  42.855  44.646   7.650
 5418POPC   NC315803  33.752  44.676   9.450
 5418POPC   PO415804  33.769  44.694   9.150
 5418POPC   GL115805  33.757  44.700   8.850
 5418POPC   GL215806  33.931  44.702   8.850
 5418POPC   C1A15807  33.761  44.687   8.550
 5418POPC   D2A15808  33.815  44.652   8.250
 5418POPC   C3A15809  33.784  44.627   7.950
 5418POPC   C4A15810  33.813  44.647   7.650
 5418POPC   C1B15811  34.080  44.686   8.550
 5418POPC   C2B15812  34.049  44.728   8.250
 5418POPC   C3B15813  34.003  44.694   7.950
 5418POPC   C4B15814  34.073  44.715   7.650
 5419POPC   NC315815  19.859  44.708   9.450
 5419POPC   PO415816  19.788  44.637   9.150
 5419POPC   GL115817  19.796  44.666   8.850
 5419POPC   GL215818  19.888  44.822   8.850
 5419POPC   C1A15819  19.830  44.639   8.550
 5419POPC   D2A15820  19.829  44.641   8.250
 5419POPC   C3A15821  19.847  44.709   7.950
 5419POPC   C4A15822  19.862  44.651   7.650
 5419POPC   C1B15823  19.886  44.915   8.550
 5419POPC   C2B15824  19.878  44.881   8.250
 5419POPC   C3B15825  19.890  44.926   7.950
 5419POPC   C4B15826  19.830  44.889   7.650
 5420POPC   NC315827  35.402  19.096   9.450
 5420POPC   PO415828  35.324  19.101   9.150
 5420POPC   GL115829  35.347  19.095   8.850
 5420POPC   GL215830  35.343  19.211   8.850
 5420POPC   C1A15831  35.360  19.077   8.550
 5420POPC   D2A15832  35.311  19.074   8.250
 5420POPC   C3A15833  35.331  19.068   7.950
 5420POPC   C4A15834  35.399  19.095   7.650
 5420POPC   C1B15835  35.326  19.321   8.550
 5420POPC   C2B15836  35.362  19.325   8.250
 5420POPC   C3B15837  35.410  19.306   7.950
 5420POPC   C4B15838  35.413  19.318   7.650
 5421POPC   NC315839  39.206   8.231   9.450
 5421POPC   PO415840  39.273   8.227   9.150
 5421POPC   GL115841  39.226   8.227   8.850
 5421POPC   GL215842  39.364   8.252   8.850
 5421POPC   C1A15843  39.219   8.217   8.550
 5421POPC   D2A15844  39.196   8.153   8.250
 5421POPC   C3A15845  39.186   8.160   7.950
 5421POPC   C4A15846  39.194   8.200   7.650
 5421POPC   C1B15847  39.459   8.206   8.550
 5421POPC   C2B15848  39.499   8.261   8.250
 5421POPC   C3B15849  39.477   8.249   7.950
 5421POPC   C4B15850  39.514   8.246   7.650
 5422POPC   NC315851  36.952   6.607   9.450
 5422POPC   PO415852  36.933   6.674   9.150
 5422POPC   GL115853  36.911   6.601   8.850
 5422POPC   GL215854  36.825   6.710   8.850
 5422POPC   C1A15855  36.927   6.613   8.550
 5422POPC   D2A15856  36.881   6.610   8.250
 5422POPC   C3A15857  36.863   6.622   7.950
 5422POPC   C4A15858  36.926   6.671   7.650
 5422POPC   C1B15859  36.747   6.818   8.550
 5422POPC   C2B15860  36.653   6.801   8.250
 5422POPC   C3B15861  36.727   6.742   7.950
 5422POPC   C4B15862  36.741   6.831   7.650
 5423POPC   NC315863  28.334   3.559   9.450
 5423POPC   PO415864  28.387   3.505   9.150
 5423POPC   GL115865  28.329   3.532   8.850
 5423POPC   GL215866  28.435   3.422   8.850
 5423POPC   C1A15867  28.359   3.492   8.550
 5423POPC   D2A15868  28.390   3.523   8.250
 5423POPC   C3A15869  28.373   3.498   7.950
 5423POPC   C4A15870  28.344   3.504   7.650
 5423POPC   C1B15871  28.551   3.319   8.550
 5423POPC   C2B15872  28.559   3.405   8.250
 5423POPC   C3B15873  28.589   3.345   7.950
 5423POPC   C4B15874  28.588   3.358   7.650
 5424POPC   NC315875  37.683  40.815   9.450
 5424POPC   PO415876  37.689  40.754   9.150
 5424POPC   GL115877  37.697  40.746   8.850
 5424POPC   GL215878  37.540  40.793   8.850
 5424POPC   C1A15879  37.671  40.757   8.550
 5424POPC   D2A15880  37.717  40.771   8.250
 5424POPC   C3A15881  37.638  40.789   7.950
 5424POPC   C4A15882  37.683  40.804   7.650
 5424POPC   C1B15883  37.409  40.849   8.550
 5424POPC   C2B15884  37.412  40.876   8.250
 5424POPC   C3B15885  37.422  40.821   7.950
 5424POPC   C4B15886  37.464  40.809   7.650
 5425POPC   NC315887  15.962  43.099   9.450
 5425POPC   PO415888  15.995  43.063   9.150
 5425POPC   GL115889  15.929  43.090   8.850
 5425POPC   GL215890  15.921  42.988   8.850
 5425POPC   C1A15891  15.976  43.126   8.550
 5425POPC   D2A15892  15.915  43.068   8.250
 5425POPC   C3A15893  15.958  43.099   7.950
 5425POPC   C4A15894  15.961  43.061   7.650
 5425POPC   C1B15895  15.907  42.866   8.550
 5425POPC   C2B15896  15.816  42.920   8.250
 5425POPC   C3B15897  15.906  42.874   7.950
 5425POPC   C4B15898  15.911  42.863   7.650
 5426POPC   NC315899   5.100  14.382   9.450
 5426POPC   PO415900   5.127  14.369   9.150
 5426POPC   GL115901   5.125  14.366   8.850
 5426POPC   GL215902   5.086  14.545   8.850
 5426POPC   C1A15903   5.109  14.409   8.550
 5426POPC   D2A15904   5.095  14.382   8.250
 5426POPC   C3A15905   5.082  14.431   7.950
 5426POPC   C4A15906   5.106  14.437   7.650
 5426POPC   C1B15907   5.146  14.676   8.550
 5426POPC   C2B15908   5.156  14.664   8.250
 5426POPC   C3B15909   5.131  14.664   7.950
 5426POPC   C4B15910   5.118  14.675   7.650
 5427POPC   NC315911   1.966  17.481   9.450
 5427POPC   PO415912   1.951  17.516   9.150
 5427POPC   GL115913   2.015  17.513   8.850
 5427POPC   GL215914   1.891  17.425   8.850
 5427POPC   C1A15915   1.994  17.552   8.550
 5427POPC   D2A15916   1.995  17.530   8.250
 5427POPC   C3A15917   1.942  17.504   7.950
 5427POPC   C4A15918   2.039  17.469   7.650
 5427POPC   C1B15919   1.858  17.328   8.550
 5427POPC   C2B15920   1.790  17.352   8.250
 5427POPC   C3B15921   1.830  17.275   7.950
 5427POPC   C4B15922   1.862  17.277   7.650
 5428POPC   NC315923  40.829  29.112   9.450
 5428POPC   PO415924  40.774  29.140   9.150
 5428POPC   GL115925  40.803  29.190   8.850
 5428POPC   GL215926  40.635  29.137   8.850
 5428POPC   C1A15927  40.824  29.123   8.550
 5428POPC   D2A15928  40.780  29.097   8.250
 5428POPC   C3A15929  40.777  29.177   7.950
 5428POPC   C4A15930  40.828  29.133   7.650
 5428POPC   C1B15931  40.536  29.258   8.550
 5428POPC   C2B15932  40.532  29.256   8.250
 5428POPC   C3B15933  40.525  29.259   7.950
 5428POPC   C4B15934  40.562  29.195   7.650
 5429POPC   NC315935   5.892  25.222   9.450
 5429POPC   PO415936   5.820  25.285   9.150
 5429POPC   GL115937   5.852  25.241   8.850
 5429POPC   GL215938   6.015  25.203   8.850
 5429POPC   C1A15939   5.892  25.300   8.550
 5429POPC   D2A15940   5.887  25.312   8.250
 5429POPC   C3A15941   5.868  25.291   7.950
 5429POPC   C4A15942   5.844  25.306   7.650
 5429POPC   C1B15943   6.151  25.196   8.550
 5429POPC   C2B15944   6.087  25.270   8.250
 5429POPC   C3B15945   6.104  25.201   7.950
 5429POPC   C4B15946   6.133  25.247   7.650
 5430POPC   NC315947  23.716  36.114   9.450
 5430POPC   PO415948  23.692  36.165   9.150
 5430POPC   GL115949  23.760  36.151   8.850
 5430POPC   GL215950  23.724  36.208   8.850
 5430POPC   C1A15951  23.758  36.163   8.550
 5430POPC   D2A15952  23.676  36.093   8.250
 5430POPC   C3A15953  23.683  36.119   7.950
 5430POPC   C4A15954  23.676  36.173   7.650
 5430POPC   C1B15955  23.678  36.354   8.550
 5430POPC   C2B15956  23.669  36.361   8.250
 5430POPC   C3B15957  23.628  36.357   7.950
 5430POPC   C4B15958  23.616  36.337   7.650
 5431POPC   NC315959  35.396  36.885   9.450
 5431POPC   PO415960  35.353  36.867   9.150
 5431POPC   GL115961  35.396  36.867   8.850
 5431POPC   GL215962  35.276  36.750   8.850
 5431POPC   C1A15963  35.332  36.869   8.550
 5431POPC   D2A15964  35.318  36.885   8.250
 5431POPC   C3A15965  35.338  36.941   7.950
 5431POPC   C4A15966  35.308  36.891   7.650
 5431POPC   C1B15967  35.227  36.684   8.550
 5431POPC   C2B15968  35.231  36.662   8.250
 5431POPC   C3B15969  35.189  36.709   7.950
 5431POPC   C4B15970  35.248  36.649   7.650
 5432POPC   NC315971  10.540  41.589   9.450
 5432POPC   PO415972  10.518  41.592   9.150
 5432POPC   GL115973  10.515  41.536   8.850
 5432POPC   GL215974  10.447  41.404   8.850
 5432POPC   C1A15975  10.541  41.546   8.550
 5432POPC   D2A15976  10.552  41.536   8.250
 5432POPC   C3A15977  10.503  41.523   7.950
 5432POPC   C4A15978  10.500  41.519   7.650
 5432POPC   C1B15979  10.368  41.331   8.550
 5432POPC   C2B15980  10.435  41.309   8.250
 5432POPC   C3B15981  10.386  41.319   7.950
 5432POPC   C4B15982  10.399  41.345   7.650
 5433POPC   NC315983  12.047  15.212   9.450
 5433POPC   PO415984  12.029  15.192   9.150
 5433POPC   GL115985  12.042  15.136   8.850
 5433POPC   GL215986  12.157  15.095   8.850
 5433POPC   C1A15987  12.119  15.149   8.550
 5433POPC   D2A15988  12.097  15.138   8.250
 5433POPC   C3A15989  12.108  15.133   7.950
 5433POPC   C4A15990  12.085  15.164   7.650
 5433POPC   C1B15991  12.253  14.988   8.550
 5433POPC   C2B15992  12.249  14.930   8.250
 5433POPC   C3B15993  12.190  15.011   7.950
 5433POPC   C4B15994  12.254  15.014   7.650
 5434POPC   NC315995   5.108   6.608   9.450
 5434POPC   PO415996   5.125   6.612   9.150
 5434POPC   GL115997   5.133   6.660   8.850
 5434POPC   GL215998   5.009   6.729   8.850
 5434POPC   C1A15999   5.060   6.640   8.550
 5434POPC   D2A16000   5.054   6.659   8.250
 5434POPC   C3A16001   5.115   6.691   7.950
 5434POPC   C4A16002   5.081   6.685   7.650
 5434POPC   C1B16003   4.844   6.791   8.550
 5434POPC   C2B16004   4.863   6.723   8.250
 5434POPC   C3B16005   4.861   6.755   7.950
 5434POPC   C4B16006   4.892   6.789   7.650
 5435POPC   NC316007  14.424   1.977   9.450
 5435POPC   PO416008  14.414   1.996   9.150
 5435POPC   GL116009  14.440   1.967   8.850
 5435POPC   GL216010  14.261   1.953   8.850
 5435POPC   C1A16011  14.357   1.944   8.550
 5435POPC   D2A16012  14.377   2.039   8.250
 5435POPC   C3A16013  14.364   2.039   7.950
 5435POPC   C4A16014  14.364   2.010   7.650
 5435POPC   C1B16015  14.186   1.958   8.550
 5435POPC   C2B16016  14.123   2.010   8.250
 5435POPC   C3B16017  14.119   2.030   7.950
 5435POPC   C4B16018  14.169   2.006   7.650
 5436POPC   NC316019  19.056  20.644   9.450
 5436POPC   PO416020  19.100  20.618   9.150
 5436POPC   GL116021  19.034  20.652   8.850
 5436POPC   GL216022  18.977  20.539   8.850
 5436POPC   C1A16023  19.087  20.578   8.550
 5436POPC   D2A16024  19.037  20.617   8.250
 5436POPC   C3A16025  19.037  20.643   7.950
 5436POPC   C4A16026  19.075  20.609   7.650
 5436POPC   C1B16027  18.876  20.511   8.550
 5436POPC   C2B16028  18.840  20.519   8.250
 5436POPC   C3B16029  18.871  20.510   7.950
 5436POPC   C4B16030  18.871  20.475   7.650
 5437POPC   NC316031  29.913   8.939   9.450
 5437POPC   PO416032  29.948   8.955   9.150
 5437POPC   GL116033  29.936   8.923   8.850
 5437POPC   GL216034  29.981   9.042   8.850
 5437POPC   C1A16035  29.871   8.978   8.550
 5437POPC   D2A16036  29.884   8.954   8.250
 5437POPC   C3A16037  29.963   8.973   7.950
 5437POPC   C4A16038  29.896   8.943   7.650
 5437POPC   C1B16039  30.023   9.258   8.550
 5437POPC   C2B16040  29.993   9.187   8.250
 5437POPC   C3B16041  29.973   9.184   7.950
 5437POPC   C4B16042  29.992   9.167   7.650
 5438POPC   NC316043  20.581  33.789   9.450
 5438POPC   PO416044  20.636  33.815   9.150
 5438POPC   GL116045  20.563  33.819   8.850
 5438POPC   GL216046  20.714  33.837   8.850
 5438POPC   C1A16047  20.593  33.833   8.550
 5438POPC   D2A16048  20.622  33.822   8.250
 5438POPC   C3A16049  20.612  33.819   7.950
 5438POPC   C4A16050  20.652  33.812   7.650
 5438POPC   C1B16051  20.753  33.965   8.550
 5438POPC   C2B16052  20.813  33.950   8.250
 5438POPC   C3B16053  20.770  34.002   7.950
 5438POPC   C4B16054  20.772  33.993   7.650
 5439POPC   NC316055   4.293   6.678   9.450
 5439POPC   PO416056   4.277   6.678   9.150
 5439POPC   GL116057   4.300   6.596   8.850
 5439POPC   GL216058   4.410   6.756   8.850
 5439POPC   C1A16059   4.296   6.681   8.550
 5439POPC   D2A16060   4.346   6.663   8.250
 5439POPC   C3A16061   4.292   6.625   7.950
 5439POPC   C4A16062   4.366   6.612   7.650
 5439POPC   C1B16063   4.454   6.886   8.550
 5439POPC   C2B16064   4.480   6.889   8.250
 5439POPC   C3B16065   4.445   6.895   7.950
 5439POPC   C4B16066   4.472   6.890   7.650
 5440POPC   NC316067  26.770  32.207   9.450
 5440POPC   PO416068  26.850  32.237   9.150
 5440POPC   GL116069  26.860  32.290   8.850
 5440POPC   GL216070  26.723  32.299   8.850
 5440POPC   C1A16071  26.831  32.230   8.550
 5440POPC   D2A16072  26.852  32.250   8.250
 5440POPC   C3A16073  26.840  32.249   7.950
 5440POPC   C4A16074  26.782  32.293   7.650
 5440POPC   C1B16075  26.533  32.254   8.550
 5440POPC   C2B16076  26.598  32.223   8.250
 5440POPC   C3B16077  26.529  32.294   7.950
 5440POPC   C4B16078  26.524  32.269   7.650
 5441POPC   NC316079   4.273  31.459   9.450
 5441POPC   PO416080   4.278  31.518   9.150
 5441POPC   GL116081   4.326  31.445   8.850
 5441POPC   GL216082   4.273  31.593   8.850
 5441POPC   C1A16083   4.363  31.515   8.550
 5441POPC   D2A16084   4.310  31.455   8.250
 5441POPC   C3A16085   4.354  31.501   7.950
 5441POPC   C4A16086   4.270  31.520   7.650
 5441POPC   C1B16087   4.150  31.650   8.550
 5441POPC   C2B16088   4.193  31.705   8.250
 5441POPC   C3B16089   4.153  31.656   7.950
 5441POPC   C4B16090   4.172  31.642   7.650
 5442POPC   NC316091  22.959  26.805   9.450
 5442POPC   PO416092  22.930  26.826   9.150
 5442POPC   GL116093  22.957  26.858   8.850
 5442POPC   GL216094  22.983  26.918   8.850
 5442POPC   C1A16095  22.965  26.772   8.550
 5442POPC   D2A16096  22.936  26.856   8.250
 5442POPC   C3A16097  22.923  26.797   7.950
 5442POPC   C4A16098  22.986  26.818   7.650
 5442POPC   C1B16099  22.990  27.041   8.550
 5442POPC   C2B16100  22.895  27.054   8.250
 5442POPC   C3B16101  22.911  27.033   7.950
 5442POPC   C4B16102  22.980  27.048   7.650
 5443POPC   NC316103  36.910  21.417   9.450
 5443POPC   PO416104  36.857  21.423   9.150
 5443POPC   GL116105  36.858  21.407   8.850
 5443POPC   GL216106  37.056  21.285   8.850
 5443POPC   C1A16107  36.891  21.387   8.550
 5443POPC   D2A16108  36.908  21.353   8.250
 5443POPC   C3A16109  36.917  21.350   7.950
 5443POPC   C4A16110  36.859  21.368   7.650
 5443POPC   C1B16111  37.137  21.221   8.550
 5443POPC   C2B16112  37.141  21.254   8.250
 5443POPC   C3B16113  37.142  21.304   7.950
 5443POPC   C4B16114  37.100  21.232   7.650
 5444POPC   NC316115  13.588  44.669   9.450
 5444POPC   PO416116  13.581  44.655   9.150
 5444POPC   GL116117  13.652  44.692   8.850
 5444POPC   GL216118  13.512  44.676   8.850
 5444POPC   C1A16119  13.597  44.677   8.550
 5444POPC   D2A16120  13.638  44.633   8.250
 5444POPC   C3A16121  13.600  44.668   7.950
 5444POPC   C4A16122  13.608  44.707   7.650
 5444POPC   C1B16123  13.407  44.657   8.550
 5444POPC   C2B16124  13.417  44.605   8.250
 5444POPC   C3B16125  13.385  44.626   7.950
 5444POPC   C4B16126  13.396  44.611   7.650
 5445POPC   NC316127   6.685  17.485   9.450
 5445POPC   PO416128   6.688  17.459   9.150
 5445POPC   GL116129   6.663  17.533   8.850
 5445POPC   GL216130   6.809  17.533   8.850
 5445POPC   C1A16131   6.671  17.487   8.550
 5445POPC   D2A16132   6.636  17.514   8.250
 5445POPC   C3A16133   6.655  17.488   7.950
 5445POPC   C4A16134   6.633  17.512   7.650
 5445POPC   C1B16135   6.911  17.505   8.550
 5445POPC   C2B16136   6.860  17.444   8.250
 5445POPC   C3B16137   6.909  17.525   7.950
 5445POPC   C4B16138   6.922  17.466   7.650
 5446POPC   NC316139  30.724  19.014   9.450
 5446POPC   PO416140  30.651  19.014   9.150
 5446POPC   GL116141  30.746  19.018   8.850
 5446POPC   GL216142  30.775  19.205   8.850
 5446POPC   C1A16143  30.730  19.048   8.550
 5446POPC   D2A16144  30.723  19.018   8.250
 5446POPC   C3A16145  30.678  19.086   7.950
 5446POPC   C4A16146  30.746  19.085   7.650
 5446POPC   C1B16147  30.763  19.344   8.550
 5446POPC   C2B16148  30.745  19.282   8.250
 5446POPC   C3B16149  30.747  19.272   7.950
 5446POPC   C4B16150  30.808  19.345   7.650
 5447POPC   NC316151  40.046   7.401   9.450
 5447POPC   PO416152  40.011   7.412   9.150
 5447POPC   GL116153  39.979   7.447   8.850
 5447POPC   GL216154  40.062   7.583   8.850
 5447POPC   C1A16155  40.012   7.438   8.550
 5447POPC   D2A16156  40.055   7.459   8.250
 5447POPC   C3A16157  40.044   7.426   7.950
 5447POPC   C4A16158  40.032   7.445   7.650
 5447POPC   C1B16159  40.065   7.644   8.550
 5447POPC   C2B16160  39.996   7.664   8.250
 5447POPC   C3B16161  40.001   7.668   7.950
 5447POPC   C4B16162  40.058   7.679   7.650
 5448POPC   NC316163  34.546  41.545   9.450
 5448POPC   PO416164  34.598  41.528   9.150
 5448POPC   GL116165  34.620  41.545   8.850
 5448POPC   GL216166  34.422  41.539   8.850
 5448POPC   C1A16167  34.576  41.528   8.550
 5448POPC   D2A16168  34.597  41.540   8.250
 5448POPC   C3A16169  34.571  41.530   7.950
 5448POPC   C4A16170  34.542  41.560   7.650
 5448POPC   C1B16171  34.342  41.560   8.550
 5448POPC   C2B16172  34.288  41.529   8.250
 5448POPC   C3B16173  34.336  41.477   7.950
 5448POPC   C4B16174  34.339  41.529   7.650
 5449POPC   NC316175   9.755  36.949   9.450
 5449POPC   PO416176   9.774  36.893   9.150
 5449POPC   GL116177   9.761  36.861   8.850
 5449POPC   GL216178   9.681  37.017   8.850
 5449POPC   C1A16179   9.721  36.872   8.550
 5449POPC   D2A16180   9.778  36.940   8.250
 5449POPC   C3A16181   9.709  36.937   7.950
 5449POPC   C4A16182   9.709  36.865   7.650
 5449POPC   C1B16183   9.705  37.120   8.550
 5449POPC   C2B16184   9.688  37.144   8.250
 5449POPC   C3B16185   9.719  37.105   7.950
 5449POPC   C4B16186   9.719  37.125   7.650
 5450POPC   NC316187  19.081  34.546   9.450
 5450POPC   PO416188  19.096  34.566   9.150
 5450POPC   GL116189  19.032  34.533   8.850
 5450POPC   GL216190  19.078  34.697   8.850
 5450POPC   C1A16191  19.019  34.581   8.550
 5450POPC   D2A16192  19.108  34.551   8.250
 5450POPC   C3A16193  19.035  34.606   7.950
 5450POPC   C4A16194  19.044  34.602   7.650
 5450POPC   C1B16195  19.056  34.787   8.550
 5450POPC   C2B16196  19.036  34.779   8.250
 5450POPC   C3B16197  19.006  34.858   7.950
 5450POPC   C4B16198  18.983  34.778   7.650
 5451POPC   NC316199  42.285  28.351   9.450
 5451POPC   PO416200  42.322  28.369   9.150
 5451POPC   GL116201  42.287  28.321   8.850
 5451POPC   GL216202  42.456  28.278   8.850
 5451POPC   C1A16203  42.288  28.373   8.550
 5451POPC   D2A16204  42.342  28.329   8.250
 5451POPC   C3A16205  42.285  28.390   7.950
 5451POPC   C4A16206  42.331  28.340   7.650
 5451POPC   C1B16207  42.521  28.195   8.550
 5451POPC   C2B16208  42.552  28.254   8.250
 5451POPC   C3B16209  42.528  28.185   7.950
 5451POPC   C4B16210  42.506  28.191   7.650
 5452POPC   NC316211  35.376  11.349   9.450
 5452POPC   PO416212  35.308  11.294   9.150
 5452POPC   GL116213  35.360  11.330   8.850
 5452POPC   GL216214  35.494  11.277   8.850
 5452POPC   C1A16215  35.306  11.310   8.550
 5452POPC   D2A16216  35.366  11.301   8.250
 5452POPC   C3A16217  35.382  11.348   7.950
 5452POPC   C4A16218  35.371  11.316   7.650
 5452POPC   C1B16219  35.586  11.167   8.550
 5452POPC   C2B16220  35.620  11.146   8.250
 5452POPC   C3B16221  35.578  11.160   7.950
 5452POPC   C4B16222  35.597  11.137   7.650
 5453POPC   NC316223  21.418  34.538   9.450
 5453POPC   PO416224  21.339  34.531   9.150
 5453POPC   GL116225  21.371  34.614   8.850
 5453POPC   GL216226  21.482  34.613   8.850
 5453POPC   C1A16227  21.400  34.556   8.550
 5453POPC   D2A16228  21.392  34.625   8.250
 5453POPC   C3A16229  21.393  34.601   7.950
 5453POPC   C4A16230  21.338  34.543   7.650
 5453POPC   C1B16231  21.623  34.585   8.550
 5453POPC   C2B16232  21.645  34.583   8.250
 5453POPC   C3B16233  21.605  34.566   7.950
 5453POPC   C4B16234  21.673  34.544   7.650
 5454POPC   NC316235  39.967  29.118   9.450
 5454POPC   PO416236  40.017  29.097   9.150
 5454POPC   GL116237  40.018  29.139   8.850
 5454POPC   GL216238  40.055  29.205   8.850
 5454POPC   C1A16239  39.972  29.152   8.550
 5454POPC   D2A16240  40.013  29.099   8.250
 5454POPC   C3A16241  39.960  29.179   7.950
 5454POPC   C4A16242  39.985  29.103   7.650
 5454POPC   C1B16243  40.212  29.378   8.550
 5454POPC   C2B16244  40.171  29.322   8.250
 5454POPC   C3B16245  40.182  29.356   7.950
 5454POPC   C4B16246  40.170  29.291   7.650
 5455POPC   NC316247  25.297  40.054   9.450
 5455POPC   PO416248  25.222  40.047   9.150
 5455POPC   GL116249  25.268  39.984   8.850
 5455POPC   GL216250  25.390  39.879   8.850
 5455POPC   C1A16251  25.290  39.999   8.550
 5455POPC   D2A16252  25.233  40.036   8.250
 5455POPC   C3A16253  25.289  39.981   7.950
 5455POPC   C4A16254  25.258  40.029   7.650
 5455POPC   C1B16255  25.436  39.838   8.550
 5455POPC   C2B16256  25.498  39.879   8.250
 5455POPC   C3B16257  25.412  39.800   7.950
 5455POPC   C4B16258  25.441  39.828   7.650
 5456POPC   NC316259  35.361  41.585   9.450
 5456POPC   PO416260  35.336  41.509   9.150
 5456POPC   GL116261  35.346  41.534   8.850
 5456POPC   GL216262  35.332  41.461   8.850
 5456POPC   C1A16263  35.373  41.564   8.550
 5456POPC   D2A16264  35.373  41.531   8.250
 5456POPC   C3A16265  35.333  41.606   7.950
 5456POPC   C4A16266  35.361  41.584   7.650
 5456POPC   C1B16267  35.244  41.326   8.550
 5456POPC   C2B16268  35.256  41.294   8.250
 5456POPC   C3B16269  35.220  41.359   7.950
 5456POPC   C4B16270  35.233  41.355   7.650
 5457POPC   NC316271  41.532   2.036   9.450
 5457POPC   PO416272  41.534   1.956   9.150
 5457POPC   GL116273  41.537   1.946   8.850
 5457POPC   GL216274  41.553   1.905   8.850
 5457POPC   C1A16275  41.520   2.034   8.550
 5457POPC   D2A16276  41.535   2.003   8.250
 5457POPC   C3A16277  41.597   1.982   7.950
 5457POPC   C4A16278  41.581   2.035   7.650
 5457POPC   C1B16279  41.558   1.774   8.550
 5457POPC   C2B16280  41.576   1.693   8.250
 5457POPC   C3B16281  41.529   1.747   7.950
 5457POPC   C4B16282  41.547   1.723   7.650
 5458POPC   NC316283  20.601  28.330   9.450
 5458POPC   PO416284  20.636  28.360   9.150
 5458POPC   GL116285  20.570  28.354   8.850
 5458POPC   GL216286  20.717  28.294   8.850
 5458POPC   C1A16287  20.637  28.357   8.550
 5458POPC   D2A16288  20.581  28.412   8.250
 5458POPC   C3A16289  20.607  28.396   7.950
 5458POPC   C4A16290  20.626  28.390   7.650
 5458POPC   C1B16291  20.796  28.213   8.550
 5458POPC   C2B16292  20.836  28.199   8.250
 5458POPC   C3B16293  20.851  28.228   7.950
 5458POPC   C4B16294  20.776  28.258   7.650
 5459POPC   NC316295  40.815   2.755   9.450
 5459POPC   PO416296  40.769   2.802   9.150
 5459POPC   GL116297  40.733   2.748   8.850
 5459POPC   GL216298  40.728   2.655   8.850
 5459POPC   C1A16299  40.760   2.745   8.550
 5459POPC   D2A16300  40.794   2.786   8.250
 5459POPC   C3A16301  40.734   2.788   7.950
 5459POPC   C4A16302  40.778   2.774   7.650
 5459POPC   C1B16303  40.701   2.487   8.550
 5459POPC   C2B16304  40.724   2.492   8.250
 5459POPC   C3B16305  40.686   2.549   7.950
 5459POPC   C4B16306  40.683   2.535   7.650
 5460POPC   NC316307  18.319  39.975   9.450
 5460POPC   PO416308  18.239  39.977   9.150
 5460POPC   GL116309  18.234  40.010   8.850
 5460POPC   GL216310  18.238  40.129   8.850
 5460POPC   C1A16311  18.280  40.038   8.550
 5460POPC   D2A16312  18.325  39.958   8.250
 5460POPC   C3A16313  18.324  40.034   7.950
 5460POPC   C4A16314  18.329  39.989   7.650
 5460POPC   C1B16315  18.211  40.233   8.550
 5460POPC   C2B16316  18.228  40.223   8.250
 5460POPC   C3B16317  18.179  40.256   7.950
 5460POPC   C4B16318  18.225  40.261   7.650
 5461POPC   NC316319  19.014   6.622   9.450
 5461POPC   PO416320  19.091   6.685   9.150
 5461POPC   GL116321  19.087   6.635   8.850
 5461POPC   GL216322  19.066   6.508   8.850
 5461POPC   C1A16323  19.108   6.639   8.550
 5461POPC   D2A16324  19.071   6.644   8.250
 5461POPC   C3A16325  19.054   6.629   7.950
 5461POPC   C4A16326  19.106   6.642   7.650
 5461POPC   C1B16327  19.118   6.450   8.550
 5461POPC   C2B16328  19.168   6.430   8.250
 5461POPC   C3B16329  19.119   6.360   7.950
 5461POPC   C4B16330  19.137   6.444   7.650
 5462POPC   NC316331  14.359  41.536   9.450
 5462POPC   PO416332  14.385  41.555   9.150
 5462POPC   GL116333  14.360  41.574   8.850
 5462POPC   GL216334  14.351  41.660   8.850
 5462POPC   C1A16335  14.409  41.581   8.550
 5462POPC   D2A16336  14.414  41.548   8.250
 5462POPC   C3A16337  14.409  41.599   7.950
 5462POPC   C4A16338  14.411  41.540   7.650
 5462POPC   C1B16339  14.195  41.711   8.550
 5462POPC   C2B16340  14.247  41.670   8.250
 5462POPC   C3B16341  14.231  41.754   7.950
 5462POPC   C4B16342  14.217  41.719   7.650
 5463POPC   NC316343  32.239   5.903   9.450
 5463POPC   PO416344  32.235   5.851   9.150
 5463POPC   GL116345  32.214   5.832   8.850
 5463POPC   GL216346  32.316   6.014   8.850
 5463POPC   C1A16347  32.297   5.889   8.550
 5463POPC   D2A16348  32.231   5.859   8.250
 5463POPC   C3A16349  32.266   5.896   7.950
 5463POPC   C4A16350  32.239   5.851   7.650
 5463POPC   C1B16351  32.416   6.109   8.550
 5463POPC   C2B16352  32.393   6.035   8.250
 5463POPC   C3B16353  32.422   6.061   7.950
 5463POPC   C4B16354  32.368   6.068   7.650
 5464POPC   NC316355   8.208  30.670   9.450
 5464POPC   PO416356   8.180  30.689   9.150
 5464POPC   GL116357   8.242  30.715   8.850
 5464POPC   GL216358   8.306  30.590   8.850
 5464POPC   C1A16359   8.182  30.650   8.550
 5464POPC   D2A16360   8.157  30.706   8.250
 5464POPC   C3A16361   8.228  30.652   7.950
 5464POPC   C4A16362   8.219  30.709   7.650
 5464POPC   C1B16363   8.395  30.497   8.550
 5464POPC   C2B16364   8.372  30.481   8.250
 5464POPC   C3B16365   8.392  30.481   7.950
 5464POPC   C4B16366   8.396  30.549   7.650
 5465POPC   NC316367   5.911  18.297   9.450
 5465POPC   PO416368   5.866  18.331   9.150
 5465POPC   GL116369   5.851  18.271   8.850
 5465POPC   GL216370   5.925  18.140   8.850
 5465POPC   C1A16371   5.821  18.330   8.550
 5465POPC   D2A16372   5.860  18.327   8.250
 5465POPC   C3A16373   5.857  18.295   7.950
 5465POPC   C4A16374   5.889  18.330   7.650
 5465POPC   C1B16375   5.944  18.061   8.550
 5465POPC   C2B16376   5.889  18.060   8.250
 5465POPC   C3B16377   5.922  18.004   7.950
 5465POPC   C4B16378   5.897  18.073   7.650
 5466POPC   NC316379   4.353  43.926   9.450
 5466POPC   PO416380   4.301  43.919   9.150
 5466POPC   GL116381   4.296  43.904   8.850
 5466POPC   GL216382   4.441  43.976   8.850
 5466POPC   C1A16383   4.325  43.893   8.550
 5466POPC   D2A16384   4.332  43.863   8.250
 5466POPC   C3A16385   4.304  43.922   7.950
 5466POPC   C4A16386   4.348  43.846   7.650
 5466POPC   C1B16387   4.515  44.096   8.550
 5466POPC   C2B16388   4.487  44.028   8.250
 5466POPC   C3B16389   4.464  44.018   7.950
 5466POPC   C4B16390   4.533  44.086   7.650
 5467POPC   NC316391  41.602  29.114   9.450
 5467POPC   PO416392  41.566  29.132   9.150
 5467POPC   GL116393  41.550  29.109   8.850
 5467POPC   GL216394  41.403  29.122   8.850
 5467POPC   C1A16395  41.608  29.112   8.550
 5467POPC   D2A16396  41.607  29.191   8.250
 5467POPC   C3A16397  41.520  29.128   7.950
 5467POPC   C4A16398  41.559  29.158   7.650
 5467POPC   C1B16399  41.320  29.020   8.550
 5467POPC   C2B16400  41.291  29.070   8.250
 5467POPC   C3B16401  41.304  29.013   7.950
 5467POPC   C4B16402  41.364  29.097   7.650
 5468POPC   NC316403  42.322   2.013   9.450
 5468POPC   PO416404  42.345   2.020   9.150
 5468POPC   GL116405  42.338   1.971   8.850
 5468POPC   GL216406  42.470   1.964   8.850
 5468POPC   C1A16407  42.374   1.964   8.550
 5468POPC   D2A16408  42.374   1.983   8.250
 5468POPC   C3A16409  42.323   1.946   7.950
 5468POPC   C4A16410  42.289   1.965   7.650
 5468POPC   C1B16411  42.619   2.028   8.550
 5468POPC   C2B16412  42.549   2.048   8.250
 5468POPC   C3B16413  42.557   2.003   7.950
 5468POPC   C4B16414  42.578   1.975   7.650
 5469POPC   NC316415  31.507  19.877   9.450
 5469POPC   PO416416  31.428  19.847   9.150
 5469POPC   GL116417  31.507  19.807   8.850
 5469POPC   GL216418  31.368  19.881   8.850
 5469POPC   C1A16419  31.490  19.848   8.550
 5469POPC   D2A16420  31.451  19.799   8.250
 5469POPC   C3A16421  31.509  19.797   7.950
 5469POPC   C4A16422  31.436  19.868   7.650
 5469POPC   C1B16423  31.189  19.852   8.550
 5469POPC   C2B16424  31.262  19.871   8.250
 5469POPC   C3B16425  31.187  19.834   7.950
 5469POPC   C4B16426  31.239  19.842   7.650
 5470POPC   NC316427  26.779   3.570   9.450
 5470POPC   PO416428  26.830   3.541   9.150
 5470POPC   GL116429  26.845   3.523   8.850
 5470POPC   GL216430  26.759   3.638   8.850
 5470POPC   C1A16431  26.798   3.571   8.550
 5470POPC   D2A16432  26.820   3.533   8.250
 5470POPC   C3A16433  26.861   3.517   7.950
 5470POPC   C4A16434  26.837   3.524   7.650
 5470POPC   C1B16435  26.660   3.777   8.550
 5470POPC   C2B16436  26.707   3.718   8.250
 5470POPC   C3B16437  26.678   3.733   7.950
 5470POPC   C4B16438  26.691   3.735   7.650
 5471POPC   NC316439  23.735   0.408   9.450
 5471POPC   PO416440  23.733   0.432   9.150
 5471POPC   GL116441  23.739   0.475   8.850
 5471POPC   GL216442  23.700   0.299   8.850
 5471POPC   C1A16443  23.711   0.397   8.550
 5471POPC   D2A16444  23.722   0.477   8.250
 5471POPC   C3A16445  23.756   0.449   7.950
 5471POPC   C4A16446  23.672   0.486   7.650
 5471POPC   C1B16447  23.761   0.158   8.550
 5471POPC   C2B16448  23.751   0.180   8.250
 5471POPC   C3B16449  23.782   0.146   7.950
 5471POPC   C4B16450  23.794   0.159   7.650
 5472POPC   NC316451  44.704   5.891   9.450
 5472POPC   PO416452  44.696   5.872   9.150
 5472POPC   GL116453  44.676   5.850   8.850
 5472POPC   GL216454  44.740   5.941   8.850
 5472POPC   C1A16455  44.658   5.905   8.550
 5472POPC   D2A16456  44.710   5.907   8.250
 5472POPC   C3A16457  44.621   5.850   7.950
 5472POPC   C4A16458  44.640   5.857   7.650
 5472POPC   C1B16459  44.871   6.017   8.550
 5472POPC   C2B16460  44.882   6.050   8.250
 5472POPC   C3B16461  44.826   6.088   7.950
 5472POPC   C4B16462  44.842   6.059   7.650
 5473POPC   NC316463  18.262  31.478   9.450
 5473POPC   PO416464  18.253  31.481   9.150
 5473POPC   GL116465  18.294  31.485   8.850
 5473POPC   GL216466  18.233  31.352   8.850
 5473POPC   C1A16467  18.291  31.507   8.550
 5473POPC   D2A16468  18.275  31.522   8.250
 5473POPC   C3A16469  18.249  31.444   7.950
 5473POPC   C4A16470  18.301  31.482   7.650
 5473POPC   C1B16471  18.280  31.273   8.550
 5473POPC   C2B16472  18.269  31.231   8.250
 5473POPC   C3B16473  18.235  31.260   7.950
 5473POPC   C4B16474  18.211  31.179   7.650
 5474POPC   NC316475  27.588  41.520   9.450
 5474POPC   PO416476  27.563  41.531   9.150
 5474POPC   GL116477  27.577  41.566   8.850
 5474POPC   GL216478  27.511  41.625   8.850
 5474POPC   C1A16479  27.547  41.597   8.550
 5474POPC   D2A16480  27.627  41.511   8.250
 5474POPC   C3A16481  27.560  41.540   7.950
 5474POPC   C4A16482  27.577  41.513   7.650
 5474POPC   C1B16483  27.407  41.761   8.550
 5474POPC   C2B16484  27.412  41.787   8.250
 5474POPC   C3B16485  27.438  41.736   7.950
 5474POPC   C4B16486  27.480  41.778   7.650
 5475POPC   NC316487  12.106  29.936   9.450
 5475POPC   PO416488  12.028  29.919   9.150
 5475POPC   GL116489  12.063  29.969   8.850
 5475POPC   GL216490  12.161  29.981   8.850
 5475POPC   C1A16491  12.030  29.965   8.550
 5475POPC   D2A16492  12.101  29.880   8.250
 5475POPC   C3A16493  12.058  29.901   7.950
 5475POPC   C4A16494  12.072  29.938   7.650
 5475POPC   C1B16495  12.245  30.066   8.550
 5475POPC   C2B16496  12.290  30.080   8.250
 5475POPC   C3B16497  12.273  30.050   7.950
 5475POPC   C4B16498  12.283  30.031   7.650
 5476POPC   NC316499  33.826  11.350   9.450
 5476POPC   PO416500  33.805  11.275   9.150
 5476POPC   GL116501  33.814  11.251   8.850
 5476POPC   GL216502  33.934  11.359   8.850
 5476POPC   C1A16503  33.840  11.278   8.550
 5476POPC   D2A16504  33.819  11.256   8.250
 5476POPC   C3A16505  33.781  11.305   7.950
 5476POPC   C4A16506  33.796  11.327   7.650
 5476POPC   C1B16507  34.014  11.366   8.550
 5476POPC   C2B16508  34.075  11.385   8.250
 5476POPC   C3B16509  34.013  11.352   7.950
 5476POPC   C4B16510  34.013  11.344   7.650
 5477POPC   NC316511  33.825  33.067   9.450
 5477POPC   PO416512  33.751  33.051   9.150
 5477POPC   GL116513  33.769  33.002   8.850
 5477POPC   GL216514  33.957  32.989   8.850
 5477POPC   C1A16515  33.781  33.065   8.550
 5477POPC   D2A16516  33.846  33.064   8.250
 5477POPC   C3A16517  33.798  33.001   7.950
 5477POPC   C4A16518  33.771  33.053   7.650
 5477POPC   C1B16519  34.061  32.985   8.550
 5477POPC   C2B16520  33.997  32.903   8.250
 5477POPC   C3B16521  34.067  32.920   7.950
 5477POPC   C4B16522  34.011  32.901   7.650
 5478POPC   NC316523  40.003  16.689   9.450
 5478POPC   PO416524  40.031  16.720   9.150
 5478POPC   GL116525  39.997  16.775   8.850
 5478POPC   GL216526  39.867  16.850   8.850
 5478POPC   C1A16527  40.015  16.757   8.550
 5478POPC   D2A16528  40.028  16.719   8.250
 5478POPC   C3A16529  39.991  16.706   7.950
 5478POPC   C4A16530  39.970  16.740   7.650
 5478POPC   C1B16531  39.824  16.877   8.550
 5478POPC   C2B16532  39.854  16.846   8.250
 5478POPC   C3B16533  39.784  16.881   7.950
 5478POPC   C4B16534  39.769  16.877   7.650
 5479POPC   NC316535  29.194  15.208   9.450
 5479POPC   PO416536  29.149  15.222   9.150
 5479POPC   GL116537  29.160  15.146   8.850
 5479POPC   GL216538  29.235  15.225   8.850
 5479POPC   C1A16539  29.096  15.157   8.550
 5479POPC   D2A16540  29.171  15.131   8.250
 5479POPC   C3A16541  29.171  15.229   7.950
 5479POPC   C4A16542  29.133  15.176   7.650
 5479POPC   C1B16543  29.432  15.240   8.550
 5479POPC   C2B16544  29.347  15.249   8.250
 5479POPC   C3B16545  29.416  15.219   7.950
 5479POPC   C4B16546  29.394  15.237   7.650
 5480POPC   NC316547  37.646  20.626   9.450
 5480POPC   PO416548  37.654  20.569   9.150
 5480POPC   GL116549  37.671  20.607   8.850
 5480POPC   GL216550  37.746  20.490   8.850
 5480POPC   C1A16551  37.709  20.654   8.550
 5480POPC   D2A16552  37.643  20.583   8.250
 5480POPC   C3A16553  37.725  20.576   7.950
 5480POPC   C4A16554  37.667  20.570   7.650
 5480POPC   C1B16555  37.777  20.395   8.550
 5480POPC   C2B16556  37.729  20.332   8.250
 5480POPC   C3B16557  37.777  20.372   7.950
 5480POPC   C4B16558  37.746  20.325   7.650
 5481POPC   NC316559  29.166   0.476   9.450
 5481POPC   PO416560  29.147   0.456   9.150
 5481POPC   GL116561  29.174   0.401   8.850
 5481POPC   GL216562  29.310   0.427   8.850
 5481POPC   C1A16563  29.183   0.391   8.550
 5481POPC   D2A16564  29.167   0.428   8.250
 5481POPC   C3A16565  29.136   0.431   7.950
 5481POPC   C4A16566  29.156   0.420   7.650
 5481POPC   C1B16567  29.376   0.502   8.550
 5481POPC   C2B16568  29.414   0.461   8.250
 5481POPC   C3B16569  29.413   0.526   7.950
 5481POPC   C4B16570  29.405   0.466   7.650
 5482POPC   NC316571  11.295  28.350   9.450
 5482POPC   PO416572  11.322  28.345   9.150
 5482POPC   GL116573  11.267  28.332   8.850
 5482POPC   GL216574  11.379  28.311   8.850
 5482POPC   C1A16575  11.292  28.375   8.550
 5482POPC   D2A16576  11.337  28.376   8.250
 5482POPC   C3A16577  11.310  28.367   7.950
 5482POPC   C4A16578  11.254  28.402   7.650
 5482POPC   C1B16579  11.493  28.205   8.550
 5482POPC   C2B16580  11.539  28.235   8.250
 5482POPC   C3B16581  11.516  28.208   7.950
 5482POPC   C4B16582  11.469  28.228   7.650
 5483POPC   NC316583  37.697  22.136   9.450
 5483POPC   PO416584  37.729  22.176   9.150
 5483POPC   GL116585  37.692  22.113   8.850
 5483POPC   GL216586  37.609  22.051   8.850
 5483POPC   C1A16587  37.656  22.127   8.550
 5483POPC   D2A16588  37.716  22.139   8.250
 5483POPC   C3A16589  37.674  22.200   7.950
 5483POPC   C4A16590  37.728  22.179   7.650
 5483POPC   C1B16591  37.598  21.894   8.550
 5483POPC   C2B16592  37.638  21.876   8.250
 5483POPC   C3B16593  37.581  21.965   7.950
 5483POPC   C4B16594  37.584  21.874   7.650
 5484POPC   NC316595   1.254  25.219   9.450
 5484POPC   PO416596   1.212  25.277   9.150
 5484POPC   GL116597   1.191  25.234   8.850
 5484POPC   GL216598   1.297  25.232   8.850
 5484POPC   C1A16599   1.246  25.292   8.550
 5484POPC   D2A16600   1.232  25.219   8.250
 5484POPC   C3A16601   1.232  25.302   7.950
 5484POPC   C4A16602   1.167  25.295   7.650
 5484POPC   C1B16603   1.506  25.205   8.550
 5484POPC   C2B16604   1.466  25.185   8.250
 5484POPC   C3B16605   1.418  25.169   7.950
 5484POPC   C4B16606   1.415  25.227   7.650
 5485POPC   NC316607   1.947  38.489   9.450
 5485POPC   PO416608   1.978  38.477   9.150
 5485POPC   GL116609   1.963  38.423   8.850
 5485POPC   GL216610   2.028  38.308   8.850
 5485POPC   C1A16611   1.984  38.494   8.550
 5485POPC   D2A16612   1.986  38.490   8.250
 5485POPC   C3A16613   1.960  38.452   7.950
 5485POPC   C4A16614   2.003  38.412   7.650
 5485POPC   C1B16615   1.973  38.181   8.550
 5485POPC   C2B16616   2.012  38.193   8.250
 5485POPC   C3B16617   2.031  38.221   7.950
 5485POPC   C4B16618   2.038  38.192   7.650
 5486POPC   NC316619  34.617  43.064   9.450
 5486POPC   PO416620  34.621  43.076   9.150
 5486POPC   GL116621  34.622  43.064   8.850
 5486POPC   GL216622  34.644  43.077   8.850
 5486POPC   C1A16623  34.622  43.153   8.550
 5486POPC   D2A16624  34.561  43.127   8.250
 5486POPC   C3A16625  34.586  43.085   7.950
 5486POPC   C4A16626  34.610  43.158   7.650
 5486POPC   C1B16627  34.816  43.023   8.550
 5486POPC   C2B16628  34.789  43.015   8.250
 5486POPC   C3B16629  34.750  42.974   7.950
 5486POPC   C4B16630  34.752  42.984   7.650
 5487POPC   NC316631  11.339  37.660   9.450
 5487POPC   PO416632  11.339  37.666   9.150
 5487POPC   GL116633  11.314  37.651   8.850
 5487POPC   GL216634  11.291  37.545   8.850
 5487POPC   C1A16635  11.273  37.642   8.550
 5487POPC   D2A16636  11.259  37.717   8.250
 5487POPC   C3A16637  11.294  37.657   7.950
 5487POPC   C4A16638  11.346  37.729   7.650
 5487POPC   C1B16639  11.339  37.453   8.550
 5487POPC   C2B16640  11.366  37.476   8.250
 5487POPC   C3B16641  11.316  37.435   7.950
 5487POPC   C4B16642  11.336  37.406   7.650
 5488POPC   NC316643   3.509  14.390   9.450
 5488POPC   PO416644   3.514  14.362   9.150
 5488POPC   GL116645   3.561  14.379   8.850
 5488POPC   GL216646   3.702  14.418   8.850
 5488POPC   C1A16647   3.533  14.378   8.550
 5488POPC   D2A16648   3.493  14.356   8.250
 5488POPC   C3A16649   3.566  14.416   7.950
 5488POPC   C4A16650   3.591  14.430   7.650
 5488POPC   C1B16651   3.743  14.428   8.550
 5488POPC   C2B16652   3.738  14.492   8.250
 5488POPC   C3B16653   3.801  14.466   7.950
 5488POPC   C4B16654   3.750  14.487   7.650
 5489POPC   NC316655   2.747  34.560   9.450
 5489POPC   PO416656   2.722  34.589   9.150
 5489POPC   GL116657   2.750  34.612   8.850
 5489POPC   GL216658   2.933  34.581   8.850
 5489POPC   C1A16659   2.737  34.608   8.550
 5489POPC   D2A16660   2.793  34.579   8.250
 5489POPC   C3A16661   2.769  34.591   7.950
 5489POPC   C4A16662   2.745  34.549   7.650
 5489POPC   C1B16663   3.035  34.530   8.550
 5489POPC   C2B16664   2.970  34.476   8.250
 5489POPC   C3B16665   3.033  34.455   7.950
 5489POPC   C4B16666   3.020  34.465   7.650
 5490POPC   NC316667  24.478   5.836   9.450
 5490POPC   PO416668  24.537   5.853   9.150
 5490POPC   GL116669  24.445   5.872   8.850
 5490POPC   GL216670  24.521   5.996   8.850
 5490POPC   C1A16671  24.444   5.836   8.550
 5490POPC   D2A16672  24.463   5.849   8.250
 5490POPC   C3A16673  24.523   5.872   7.950
 5490POPC   C4A16674  24.468   5.877   7.650
 5490POPC   C1B16675  24.612   6.098   8.550
 5490POPC   C2B16676  24.582   6.061   8.250
 5490POPC   C3B16677  24.653   6.040   7.950
 5490POPC   C4B16678  24.590   6.061   7.650
 5491POPC   NC316679  22.130   0.403   9.450
 5491POPC   PO416680  22.198   0.450   9.150
 5491POPC   GL116681  22.133   0.488   8.850
 5491POPC   GL216682  22.294   0.566   8.850
 5491POPC   C1A16683  22.141   0.394   8.550
 5491POPC   D2A16684  22.159   0.467   8.250
 5491POPC   C3A16685  22.186   0.409   7.950
 5491POPC   C4A16686  22.195   0.470   7.650
 5491POPC   C1B16687  22.330   0.619   8.550
 5491POPC   C2B16688  22.333   0.562   8.250
 5491POPC   C3B16689  22.323   0.603   7.950
 5491POPC   C4B16690  22.391   0.614   7.650
 5492POPC   NC316691  22.949   8.154   9.450
 5492POPC   PO416692  22.933   8.230   9.150
 5492POPC   GL116693  22.902   8.174   8.850
 5492POPC   GL216694  23.014   8.291   8.850
 5492POPC   C1A16695  22.910   8.182   8.550
 5492POPC   D2A16696  22.936   8.209   8.250
 5492POPC   C3A16697  22.888   8.211   7.950
 5492POPC   C4A16698  22.898   8.154   7.650
 5492POPC   C1B16699  23.082   8.368   8.550
 5492POPC   C2B16700  23.085   8.387   8.250
 5492POPC   C3B16701  23.098   8.331   7.950
 5492POPC   C4B16702  23.168   8.390   7.650
 5493POPC   NC316703   0.431  44.685   9.450
 5493POPC   PO416704   0.455  44.711   9.150
 5493POPC   GL116705   0.461  44.647   8.850
 5493POPC   GL216706   0.522  44.733   8.850
 5493POPC   C1A16707   0.419  44.653   8.550
 5493POPC   D2A16708   0.413  44.672   8.250
 5493POPC   C3A16709   0.421  44.628   7.950
 5493POPC   C4A16710   0.426  44.653   7.650
 5493POPC   C1B16711   0.625  44.869   8.550
 5493POPC   C2B16712   0.561  44.848   8.250
 5493POPC   C3B16713   0.644  44.804   7.950
 5493POPC   C4B16714   0.599  44.885   7.650
 5494POPC   NC316715  44.636  12.831   9.450
 5494POPC   PO416716  44.663  12.890   9.150
 5494POPC   GL116717  44.626  12.854   8.850
 5494POPC   GL216718  44.783  12.820   8.850
 5494POPC   C1A16719  44.711  12.855   8.550
 5494POPC   D2A16720  44.709  12.874   8.250
 5494POPC   C3A16721  44.673  12.834   7.950
 5494POPC   C4A16722  44.616  12.816   7.650
 5494POPC   C1B16723  44.883  12.771   8.550
 5494POPC   C2B16724  44.942  12.739   8.250
 5494POPC   C3B16725  44.933  12.772   7.950
 5494POPC   C4B16726  44.908  12.809   7.650
 5495POPC   NC316727   2.781  31.510   9.450
 5495POPC   PO416728   2.751  31.475   9.150
 5495POPC   GL116729   2.750  31.472   8.850
 5495POPC   GL216730   2.759  31.629   8.850
 5495POPC   C1A16731   2.744  31.493   8.550
 5495POPC   D2A16732   2.739  31.471   8.250
 5495POPC   C3A16733   2.785  31.485   7.950
 5495POPC   C4A16734   2.756  31.428   7.650
 5495POPC   C1B16735   2.840  31.742   8.550
 5495POPC   C2B16736   2.798  31.707   8.250
 5495POPC   C3B16737   2.838  31.757   7.950
 5495POPC   C4B16738   2.837  31.734   7.650
 5496POPC   NC316739  15.941  40.826   9.450
 5496POPC   PO416740  16.004  40.772   9.150
 5496POPC   GL116741  16.002  40.763   8.850
 5496POPC   GL216742  15.920  40.934   8.850
 5496POPC   C1A16743  15.936  40.813   8.550
 5496POPC   D2A16744  15.978  40.767   8.250
 5496POPC   C3A16745  15.937  40.774   7.950
 5496POPC   C4A16746  15.955  40.765   7.650
 5496POPC   C1B16747  15.921  41.024   8.550
 5496POPC   C2B16748  15.881  41.011   8.250
 5496POPC   C3B16749  15.880  41.039   7.950
 5496POPC   C4B16750  15.851  40.998   7.650
 5497POPC   NC316751  22.960  12.817   9.450
 5497POPC   PO416752  22.951  12.825   9.150
 5497POPC   GL116753  22.919  12.852   8.850
 5497POPC   GL216754  23.055  12.899   8.850
 5497POPC   C1A16755  22.929  12.882   8.550
 5497POPC   D2A16756  22.907  12.807   8.250
 5497POPC   C3A16757  22.902  12.853   7.950
 5497POPC   C4A16758  22.973  12.877   7.650
 5497POPC   C1B16759  23.134  13.006   8.550
 5497POPC   C2B16760  23.121  13.023   8.250
 5497POPC   C3B16761  23.080  13.058   7.950
 5497POPC   C4B16762  23.102  13.056   7.650
 5498POPC   NC316763  38.455  19.828   9.450
 5498POPC   PO416764  38.488  19.862   9.150
 5498POPC   GL116765  38.425  19.836   8.850
 5498POPC   GL216766  38.294  19.808   8.850
 5498POPC   C1A16767  38.447  19.817   8.550
 5498POPC   D2A16768  38.442  19.882   8.250
 5498POPC   C3A16769  38.458  19.849   7.950
 5498POPC   C4A16770  38.504  19.875   7.650
 5498POPC   C1B16771  38.169  19.878   8.550
 5498POPC   C2B16772  38.164  19.882   8.250
 5498POPC   C3B16773  38.234  19.897   7.950
 5498POPC   C4B16774  38.232  19.854   7.650
 5499POPC   NC316775  22.201  12.068   9.450
 5499POPC   PO416776  22.139  12.090   9.150
 5499POPC   GL116777  22.113  12.125   8.850
 5499POPC   GL216778  22.160  12.176   8.850
 5499POPC   C1A16779  22.163  12.104   8.550
 5499POPC   D2A16780  22.115  12.096   8.250
 5499POPC   C3A16781  22.185  12.039   7.950
 5499POPC   C4A16782  22.136  12.094   7.650
 5499POPC   C1B16783  22.246  12.348   8.550
 5499POPC   C2B16784  22.189  12.297   8.250
 5499POPC   C3B16785  22.262  12.266   7.950
 5499POPC   C4B16786  22.203  12.317   7.650
 5500POPC   NC316787  29.158  19.064   9.450
 5500POPC   PO416788  29.116  19.083   9.150
 5500POPC   GL116789  29.141  19.059   8.850
 5500POPC   GL216790  29.282  19.066   8.850
 5500POPC   C1A16791  29.170  19.057   8.550
 5500POPC   D2A16792  29.185  19.073   8.250
 5500POPC   C3A16793  29.127  19.063   7.950
 5500POPC   C4A16794  29.193  19.055   7.650
 5500POPC   C1B16795  29.342  19.211   8.550
 5500POPC   C2B16796  29.384  19.123   8.250
 5500POPC   C3B16797  29.406  19.189   7.950
 5500POPC   C4B16798  29.400  19.198   7.650
 5501POPC   NC316799  29.950   0.398   9.450
 5501POPC   PO416800  29.886   0.396   9.150
 5501POPC   GL116801  29.947   0.441   8.850
 5501POPC   GL216802  29.849   0.550   8.850
 5501POPC   C1A16803  29.969   0.407   8.550
 5501POPC   D2A16804  29.913   0.451   8.250
 5501POPC   C3A16805  29.901   0.388   7.950
 5501POPC   C4A16806  29.922   0.412   7.650
 5501POPC   C1B16807  29.815   0.675   8.550
 5501POPC   C2B16808  29.856   0.673   8.250
 5501POPC   C3B16809  29.851   0.685   7.950
 5501POPC   C4B16810  29.861   0.679   7.650
 5502POPC   NC316811  15.944  44.634   9.450
 5502POPC   PO416812  15.935  44.662   9.150
 5502POPC   GL116813  15.940  44.633   8.850
 5502POPC   GL216814  16.109  44.664   8.850
 5502POPC   C1A16815  15.924  44.657   8.550
 5502POPC   D2A16816  15.956  44.667   8.250
 5502POPC   C3A16817  15.981  44.681   7.950
 5502POPC   C4A16818  15.922  44.616   7.650
 5502POPC   C1B16819  16.160  44.573   8.550
 5502POPC   C2B16820  16.142  44.545   8.250
 5502POPC   C3B16821  16.199  44.570   7.950
 5502POPC   C4B16822  16.148  44.611   7.650
 5503POPC   NC316823  38.413  36.127   9.450
 5503POPC   PO416824  38.441  36.113   9.150
 5503POPC   GL116825  38.485  36.151   8.850
 5503POPC   GL216826  38.379  36.061   8.850
 5503POPC   C1A16827  38.448  36.158   8.550
 5503POPC   D2A16828  38.433  36.094   8.250
 5503POPC   C3A16829  38.459  36.125   7.950
 5503POPC   C4A16830  38.493  36.147   7.650
 5503POPC   C1B16831  38.319  35.983   8.550
 5503POPC   C2B16832  38.280  35.930   8.250
 5503POPC   C3B16833  38.299  35.936   7.950
 5503POPC   C4B16834  38.239  36.006   7.650
 5504POPC   NC316835  22.983  13.614   9.450
 5504POPC   PO416836  22.922  13.605   9.150
 5504POPC   GL116837  22.909  13.677   8.850
 5504POPC   GL216838  22.818  13.719   8.850
 5504POPC   C1A16839  22.900  13.625   8.550
 5504POPC   D2A16840  22.923  13.627   8.250
 5504POPC   C3A16841  22.895  13.664   7.950
 5504POPC   C4A16842  22.914  13.583   7.650
 5504POPC   C1B16843  22.763  13.849   8.550
 5504POPC   C2B16844  22.736  13.780   8.250
 5504POPC   C3B16845  22.738  13.810   7.950
 5504POPC   C4B16846  22.792  13.809   7.650
 5505POPC   NC316847  20.606  43.866   9.450
 5505POPC   PO416848  20.593  43.922   9.150
 5505POPC   GL116849  20.581  43.875   8.850
 5505POPC   GL216850  20.638  43.818   8.850
 5505POPC   C1A16851  20.570  43.881   8.550
 5505POPC   D2A16852  20.571  43.934   8.250
 5505POPC   C3A16853  20.620  43.856   7.950
 5505POPC   C4A16854  20.613  43.929   7.650
 5505POPC   C1B16855  20.703  43.678   8.550
 5505POPC   C2B16856  20.765  43.696   8.250
 5505POPC   C3B16857  20.718  43.702   7.950
 5505POPC   C4B16858  20.733  43.649   7.650
 5506POPC   NC316859  26.082   3.500   9.450
 5506POPC   PO416860  26.036   3.495   9.150
 5506POPC   GL116861  26.082   3.551   8.850
 5506POPC   GL216862  26.057   3.706   8.850
 5506POPC   C1A16863  26.044   3.534   8.550
 5506POPC   D2A16864  26.079   3.514   8.250
 5506POPC   C3A16865  26.048   3.501   7.950
 5506POPC   C4A16866  26.075   3.580   7.650
 5506POPC   C1B16867  26.130   3.762   8.550
 5506POPC   C2B16868  26.116   3.822   8.250
 5506POPC   C3B16869  26.064   3.738   7.950
 5506POPC   C4B16870  26.137   3.747   7.650
 5507POPC   NC316871  22.983  16.736   9.450
 5507POPC   PO416872  22.916  16.693   9.150
 5507POPC   GL116873  22.906  16.715   8.850
 5507POPC   GL216874  23.008  16.873   8.850
 5507POPC   C1A16875  22.904  16.758   8.550
 5507POPC   D2A16876  22.938  16.703   8.250
 5507POPC   C3A16877  22.967  16.702   7.950
 5507POPC   C4A16878  22.956  16.742   7.650
 5507POPC   C1B16879  23.037  16.933   8.550
 5507POPC   C2B16880  23.011  16.946   8.250
 5507POPC   C3B16881  23.058  17.006   7.950
 5507POPC   C4B16882  23.080  16.938   7.650
 5508POPC   NC316883  22.932  24.518   9.450
 5508POPC   PO416884  22.914  24.461   9.150
 5508POPC   GL116885  22.893  24.528   8.850
 5508POPC   GL216886  22.833  24.487   8.850
 5508POPC   C1A16887  22.888  24.500   8.550
 5508POPC   D2A16888  22.983  24.486   8.250
 5508POPC   C3A16889  22.906  24.492   7.950
 5508POPC   C4A16890  22.933  24.535   7.650
 5508POPC   C1B16891  22.736  24.523   8.550
 5508POPC   C2B16892  22.734  24.565   8.250
 5508POPC   C3B16893  22.666  24.577   7.950
 5508POPC   C4B16894  22.651  24.539   7.650
 5509POPC   NC316895  28.332  26.824   9.450
 5509POPC   PO416896  28.403  26.776   9.150
 5509POPC   GL116897  28.367  26.864   8.850
 5509POPC   GL216898  28.402  26.892   8.850
 5509POPC   C1A16899  28.381  26.842   8.550
 5509POPC   D2A16900  28.320  26.866   8.250
 5509POPC   C3A16901  28.376  26.820   7.950
 5509POPC   C4A16902  28.351  26.818   7.650
 5509POPC   C1B16903  28.421  27.084   8.550
 5509POPC   C2B16904  28.390  27.089   8.250
 5509POPC   C3B16905  28.394  27.016   7.950
 5509POPC   C4B16906  28.459  27.100   7.650
 5510POPC   NC316907   3.545  22.971   9.450
 5510POPC   PO416908   3.492  22.911   9.150
 5510POPC   GL116909   3.565  22.925   8.850
 5510POPC   GL216910   3.602  22.828   8.850
 5510POPC   C1A16911   3.556  22.912   8.550
 5510POPC   D2A16912   3.537  22.901   8.250
 5510POPC   C3A16913   3.513  22.956   7.950
 5510POPC   C4A16914   3.506  22.924   7.650
 5510POPC   C1B16915   3.735  22.738   8.550
 5510POPC   C2B16916   3.705  22.772   8.250
 5510POPC   C3B16917   3.774  22.783   7.950
 5510POPC   C4B16918   3.772  22.763   7.650
 5511POPC   NC316919  24.473  17.516   9.450
 5511POPC   PO416920  24.443  17.490   9.150
 5511POPC   GL116921  24.448  17.491   8.850
 5511POPC   GL216922  24.604  17.384   8.850
 5511POPC   C1A16923  24.458  17.518   8.550
 5511POPC   D2A16924  24.442  17.519   8.250
 5511POPC   C3A16925  24.534  17.539   7.950
 5511POPC   C4A16926  24.510  17.519   7.650
 5511POPC   C1B16927  24.677  17.315   8.550
 5511POPC   C2B16928  24.672  17.337   8.250
 5511POPC   C3B16929  24.661  17.296   7.950
 5511POPC   C4B16930  24.650  17.345   7.650
 5512POPC   NC316931   5.835  42.288   9.450
 5512POPC   PO416932   5.830  42.359   9.150
 5512POPC   GL116933   5.891  42.353   8.850
 5512POPC   GL216934   5.951  42.381   8.850
 5512POPC   C1A16935   5.915  42.368   8.550
 5512POPC   D2A16936   5.876  42.349   8.250
 5512POPC   C3A16937   5.830  42.383   7.950
 5512POPC   C4A16938   5.828  42.298   7.650
 5512POPC   C1B16939   6.055  42.552   8.550
 5512POPC   C2B16940   6.077  42.481   8.250
 5512POPC   C3B16941   6.021  42.543   7.950
 5512POPC   C4B16942   6.094  42.535   7.650
 5513POPC   NC316943  15.955  11.274   9.450
 5513POPC   PO416944  15.998  11.271   9.150
 5513POPC   GL116945  15.930  11.290   8.850
 5513POPC   GL216946  15.883  11.221   8.850
 5513POPC   C1A16947  15.955  11.305   8.550
 5513POPC   D2A16948  15.952  11.298   8.250
 5513POPC   C3A16949  15.999  11.304   7.950
 5513POPC   C4A16950  15.922  11.255   7.650
 5513POPC   C1B16951  15.737  11.161   8.550
 5513POPC   C2B16952  15.729  11.167   8.250
 5513POPC   C3B16953  15.721  11.160   7.950
 5513POPC   C4B16954  15.680  11.238   7.650
 5514POPC   NC316955  37.674   8.954   9.450
 5514POPC   PO416956  37.637   8.962   9.150
 5514POPC   GL116957  37.725   9.000   8.850
 5514POPC   GL216958  37.622   9.116   8.850
 5514POPC   C1A16959  37.685   9.022   8.550
 5514POPC   D2A16960  37.702   9.003   8.250
 5514POPC   C3A16961  37.703   8.942   7.950
 5514POPC   C4A16962  37.710   8.924   7.650
 5514POPC   C1B16963  37.486   9.151   8.550
 5514POPC   C2B16964  37.475   9.153   8.250
 5514POPC   C3B16965  37.489   9.128   7.950
 5514POPC   C4B16966  37.512   9.125   7.650
 5515POPC   NC316967   1.164  43.847   9.450
 5515POPC   PO416968   1.206  43.849   9.150
 5515POPC   GL116969   1.214  43.896   8.850
 5515POPC   GL216970   1.260  43.745   8.850
 5515POPC   C1A16971   1.241  43.928   8.550
 5515POPC   D2A16972   1.178  43.874   8.250
 5515POPC   C3A16973   1.245  43.840   7.950
 5515POPC   C4A16974   1.180  43.855   7.650
 5515POPC   C1B16975   1.243  43.593   8.550
 5515POPC   C2B16976   1.248  43.605   8.250
 5515POPC   C3B16977   1.276  43.659   7.950
 5515POPC   C4B16978   1.267  43.671   7.650
 5516POPC   NC316979  12.849  29.886   9.450
 5516POPC   PO416980  12.832  29.965   9.150
 5516POPC   GL116981  12.832  29.957   8.850
 5516POPC   GL216982  12.981  29.859   8.850
 5516POPC   C1A16983  12.868  29.875   8.550
 5516POPC   D2A16984  12.859  29.952   8.250
 5516POPC   C3A16985  12.826  29.896   7.950
 5516POPC   C4A16986  12.831  29.892   7.650
 5516POPC   C1B16987  13.065  29.877   8.550
 5516POPC   C2B16988  13.113  29.874   8.250
 5516POPC   C3B16989  13.058  29.837   7.950
 5516POPC   C4B16990  13.132  29.861   7.650
 5517POPC   NC316991  44.697   9.709   9.450
 5517POPC   PO416992  44.692   9.707   9.150
 5517POPC   GL116993  44.682   9.744   8.850
 5517POPC   GL216994  44.563   9.778   8.850
 5517POPC   C1A16995  44.705   9.726   8.550
 5517POPC   D2A16996  44.688   9.788   8.250
 5517POPC   C3A16997  44.645   9.709   7.950
 5517POPC   C4A16998  44.686   9.712   7.650
 5517POPC   C1B16999  44.409   9.857   8.550
 5517POPC   C2B17000  44.380   9.818   8.250
 5517POPC   C3B17001  44.444   9.824   7.950
 5517POPC   C4B17002  44.450   9.801   7.650
 5518POPC   NC317003   8.928  36.167   9.450
 5518POPC   PO417004   8.966  36.088   9.150
 5518POPC   GL117005   8.932  36.132   8.850
 5518POPC   GL217006   9.041  36.286   8.850
 5518POPC   C1A17007   8.923  36.131   8.550
 5518POPC   D2A17008   8.959  36.093   8.250
 5518POPC   C3A17009   8.956  36.104   7.950
 5518POPC   C4A17010   8.937  36.102   7.650
 5518POPC   C1B17011   9.092  36.375   8.550
 5518POPC   C2B17012   9.052  36.319   8.250
 5518POPC   C3B17013   9.060  36.381   7.950
 5518POPC   C4B17014   9.128  36.355   7.650
 5519POPC   NC317015  42.301   1.260   9.450
 5519POPC   PO417016  42.346   1.199   9.150
 5519POPC   GL117017  42.294   1.180   8.850
 5519POPC   GL217018  42.223   1.117   8.850
 5519POPC   C1A17019  42.318   1.176   8.550
 5519POPC   D2A17020  42.311   1.179   8.250
 5519POPC   C3A17021  42.352   1.174   7.950
 5519POPC   C4A17022  42.377   1.254   7.650
 5519POPC   C1B17023  42.142   1.090   8.550
 5519POPC   C2B17024  42.134   1.000   8.250
 5519POPC   C3B17025  42.140   1.068   7.950
 5519POPC   C4B17026  42.122   1.066   7.650
 5520POPC   NC317027  37.688  15.225   9.450
 5520POPC   PO417028  37.646  15.217   9.150
 5520POPC   GL117029  37.670  15.221   8.850
 5520POPC   GL217030  37.803  15.234   8.850
 5520POPC   C1A17031  37.661  15.179   8.550
 5520POPC   D2A17032  37.669  15.174   8.250
 5520POPC   C3A17033  37.639  15.163   7.950
 5520POPC   C4A17034  37.635  15.136   7.650
 5520POPC   C1B17035  37.927  15.360   8.550
 5520POPC   C2B17036  37.845  15.280   8.250
 5520POPC   C3B17037  37.910  15.283   7.950
 5520POPC   C4B17038  37.847  15.319   7.650
 5521POPC   NC317039  15.970  21.384   9.450
 5521POPC   PO417040  15.988  21.358   9.150
 5521POPC   GL117041  15.925  21.358   8.850
 5521POPC   GL217042  15.820  21.340   8.850
 5521POPC   C1A17043  15.956  21.375   8.550
 5521POPC   D2A17044  15.949  21.377   8.250
 5521POPC   C3A17045  15.981  21.341   7.950
 5521POPC   C4A17046  15.934  21.366   7.650
 5521POPC   C1B17047  15.690  21.278   8.550
 5521POPC   C2B17048  15.722  21.255   8.250
 5521POPC   C3B17049  15.750  21.315   7.950
 5521POPC   C4B17050  15.751  21.330   7.650
 5522POPC   NC317051   4.314   4.333   9.450
 5522POPC   PO417052   4.285   4.358   9.150
 5522POPC   GL117053   4.356   4.352   8.850
 5522POPC   GL217054   4.185   4.257   8.850
 5522POPC   C1A17055   4.358   4.306   8.550
 5522POPC   D2A17056   4.306   4.321   8.250
 5522POPC   C3A17057   4.280   4.337   7.950
 5522POPC   C4A17058   4.294   4.364   7.650
 5522POPC   C1B17059   4.094   4.204   8.550
 5522POPC   C2B17060   4.119   4.243   8.250
 5522POPC   C3B17061   4.076   4.241   7.950
 5522POPC   C4B17062   4.063   4.230   7.650
 5523POPC   NC317063  22.899   0.430   9.450
 5523POPC   PO417064  22.923   0.461   9.150
 5523POPC   GL117065  22.948   0.419   8.850
 5523POPC   GL217066  23.036   0.336   8.850
 5523POPC   C1A17067  22.961   0.456   8.550
 5523POPC   D2A17068  22.951   0.486   8.250
 5523POPC   C3A17069  22.908   0.468   7.950
 5523POPC   C4A17070  22.942   0.401   7.650
 5523POPC   C1B17071  23.070   0.276   8.550
 5523POPC   C2B17072  23.104   0.247   8.250
 5523POPC   C3B17073  23.140   0.250   7.950
 5523POPC   C4B17074  23.111   0.279   7.650
 5524POPC   NC317075   5.873  40.747   9.450
 5524POPC   PO417076   5.847  40.758   9.150
 5524POPC   GL117077   5.876  40.804   8.850
 5524POPC   GL217078   5.728  40.796   8.850
 5524POPC   C1A17079   5.842  40.746   8.550
 5524POPC   D2A17080   5.882  40.778   8.250
 5524POPC   C3A17081   5.849  40.781   7.950
 5524POPC   C4A17082   5.873  40.763   7.650
 5524POPC   C1B17083   5.642  40.810   8.550
 5524POPC   C2B17084   5.668  40.796   8.250
 5524POPC   C3B17085   5.628  40.779   7.950
 5524POPC   C4B17086   5.655  40.787   7.650
 5525POPC   NC317087  30.725  28.408   9.450
 5525POPC   PO417088  30.682  28.401   9.150
 5525POPC   GL117089  30.707  28.415   8.850
 5525POPC   GL217090  30.699  28.502   8.850
 5525POPC   C1A17091  30.707  28.340   8.550
 5525POPC   D2A17092  30.726  28.375   8.250
 5525POPC   C3A17093  30.679  28.352   7.950
 5525POPC   C4A17094  30.720  28.355   7.650
 5525POPC   C1B17095  30.823  28.580   8.550
 5525POPC   C2B17096  30.835  28.566   8.250
 5525POPC   C3B17097  30.769  28.624   7.950
 5525POPC   C4B17098  30.813  28.555   7.650
 5526POPC   NC317099  38.436   1.187   9.450
 5526POPC   PO417100  38.434   1.255   9.150
 5526POPC   GL117101  38.417   1.256   8.850
 5526POPC   GL217102  38.478   1.121   8.850
 5526POPC   C1A17103  38.407   1.181   8.550
 5526POPC   D2A17104  38.429   1.221   8.250
 5526POPC   C3A17105  38.411   1.245   7.950
 5526POPC   C4A17106  38.429   1.196   7.650
 5526POPC   C1B17107  38.406   0.917   8.550
 5526POPC   C2B17108  38.423   1.006   8.250
 5526POPC   C3B17109  38.378   0.925   7.950
 5526POPC   C4B17110  38.450   0.997   7.650
 5527POPC   NC317111  38.443   1.956   9.450
 5527POPC   PO417112  38.432   1.973   9.150
 5527POPC   GL117113  38.423   1.960   8.850
 5527POPC   GL217114  38.613   1.960   8.850
 5527POPC   C1A17115  38.478   2.012   8.550
 5527POPC   D2A17116  38.461   1.949   8.250
 5527POPC   C3A17117  38.407   2.033   7.950
 5527POPC   C4A17118  38.490   1.971   7.650
 5527POPC   C1B17119  38.729   1.881   8.550
 5527POPC   C2B17120  38.692   1.979   8.250
 5527POPC   C3B17121  38.664   1.968   7.950
 5527POPC   C4B17122  38.678   1.911   7.650
 5528POPC   NC317123  42.323  16.765   9.450
 5528POPC   PO417124  42.349  16.758   9.150
 5528POPC   GL117125  42.359  16.703   8.850
 5528POPC   GL217126  42.283  16.663   8.850
 5528POPC   C1A17127  42.357  16.717   8.550
 5528POPC   D2A17128  42.305  16.726   8.250
 5528POPC   C3A17129  42.350  16.735   7.950
 5528POPC   C4A17130  42.351  16.687   7.650
 5528POPC   C1B17131  42.263  16.493   8.550
 5528POPC   C2B17132  42.228  16.516   8.250
 5528POPC   C3B17133  42.213  16.530   7.950
 5528POPC   C4B17134  42.206  16.454   7.650
 5529POPC   NC317135  22.897  44.692   9.450
 5529POPC   PO417136  22.889  44.650   9.150
 5529POPC   GL117137  22.983  44.708   8.850
 5529POPC   GL217138  22.783  44.617   8.850
 5529POPC   C1A17139  22.941  44.638   8.550
 5529POPC   D2A17140  22.900  44.700   8.250
 5529POPC   C3A17141  22.949  44.619   7.950
 5529POPC   C4A17142  22.904  44.641   7.650
 5529POPC   C1B17143  22.722  44.577   8.550
 5529POPC   C2B17144  22.703  44.622   8.250
 5529POPC   C3B17145  22.709  44.571   7.950
 5529POPC   C4B17146  22.739  44.594   7.650
 5530POPC   NC317147  24.463   6.669   9.450
 5530POPC   PO417148  24.447   6.599   9.150
 5530POPC   GL117149  24.483   6.644   8.850
 5530POPC   GL217150  24.512   6.749   8.850
 5530POPC   C1A17151  24.522   6.680   8.550
 5530POPC   D2A17152  24.440   6.677   8.250
 5530POPC   C3A17153  24.462   6.643   7.950
 5530POPC   C4A17154  24.533   6.598   7.650
 5530POPC   C1B17155  24.660   6.838   8.550
 5530POPC   C2B17156  24.677   6.886   8.250
 5530POPC   C3B17157  24.595   6.889   7.950
 5530POPC   C4B17158  24.624   6.804   7.650
 5531POPC   NC317159  20.591  29.925   9.450
 5531POPC   PO417160  20.633  29.924   9.150
 5531POPC   GL117161  20.578  29.908   8.850
 5531POPC   GL217162  20.468  29.869   8.850
 5531POPC   C1A17163  20.631  29.919   8.550
 5531POPC   D2A17164  20.612  29.964   8.250
 5531POPC   C3A17165  20.656  29.937   7.950
 5531POPC   C4A17166  20.635  29.917   7.650
 5531POPC   C1B17167  20.407  29.860   8.550
 5531POPC   C2B17168  20.378  29.876   8.250
 5531POPC   C3B17169  20.395  29.825   7.950
 5531POPC   C4B17170  20.345  29.825   7.650
 5532POPC   NC317171  40.048   8.957   9.450
 5532POPC   PO417172  40.054   9.009   9.150
 5532POPC   GL117173  39.988   8.974   8.850
 5532POPC   GL217174  39.934   8.906   8.850
 5532POPC   C1A17175  39.990   9.008   8.550
 5532POPC   D2A17176  40.014   8.984   8.250
 5532POPC   C3A17177  39.964   8.962   7.950
 5532POPC   C4A17178  40.008   8.979   7.650
 5532POPC   C1B17179  39.887   8.757   8.550
 5532POPC   C2B17180  39.963   8.719   8.250
 5532POPC   C3B17181  39.909   8.740   7.950
 5532POPC   C4B17182  39.898   8.723   7.650
 5533POPC   NC317183  33.801  37.705   9.450
 5533POPC   PO417184  33.790  37.725   9.150
 5533POPC   GL117185  33.772  37.661   8.850
 5533POPC   GL217186  33.914  37.626   8.850
 5533POPC   C1A17187  33.849  37.687   8.550
 5533POPC   D2A17188  33.814  37.683   8.250
 5533POPC   C3A17189  33.761  37.696   7.950
 5533POPC   C4A17190  33.754  37.661   7.650
 5533POPC   C1B17191  34.004  37.609   8.550
 5533POPC   C2B17192  34.064  37.589   8.250
 5533POPC   C3B17193  34.037  37.645   7.950
 5533POPC   C4B17194  34.074  37.609   7.650
 5534POPC   NC317195  36.906   2.736   9.450
 5534POPC   PO417196  36.949   2.721   9.150
 5534POPC   GL117197  36.900   2.728   8.850
 5534POPC   GL217198  36.988   2.774   8.850
 5534POPC   C1A17199  36.939   2.735   8.550
 5534POPC   D2A17200  36.921   2.765   8.250
 5534POPC   C3A17201  36.914   2.791   7.950
 5534POPC   C4A17202  36.899   2.767   7.650
 5534POPC   C1B17203  37.127   2.733   8.550
 5534POPC   C2B17204  37.112   2.801   8.250
 5534POPC   C3B17205  37.108   2.794   7.950
 5534POPC   C4B17206  37.172   2.732   7.650
 5535POPC   NC317207  18.248   8.203   9.450
 5535POPC   PO417208  18.293   8.153   9.150
 5535POPC   GL117209  18.292   8.232   8.850
 5535POPC   GL217210  18.273   8.041   8.850
 5535POPC   C1A17211  18.301   8.180   8.550
 5535POPC   D2A17212  18.275   8.167   8.250
 5535POPC   C3A17213  18.255   8.228   7.950
 5535POPC   C4A17214  18.281   8.199   7.650
 5535POPC   C1B17215  18.245   7.954   8.550
 5535POPC   C2B17216  18.272   7.927   8.250
 5535POPC   C3B17217  18.266   7.927   7.950
 5535POPC   C4B17218  18.248   7.904   7.650
 5536POPC   NC317219  44.650  19.868   9.450
 5536POPC   PO417220  44.701  19.836   9.150
 5536POPC   GL117221  44.652  19.816   8.850
 5536POPC   GL217222  44.815  19.881   8.850
 5536POPC   C1A17223  44.698  19.787   8.550
 5536POPC   D2A17224  44.688  19.827   8.250
 5536POPC   C3A17225  44.647  19.881   7.950
 5536POPC   C4A17226  44.698  19.850   7.650
 5536POPC   C1B17227  44.872  19.916   8.550
 5536POPC   C2B17228  44.953  19.865   8.250
 5536POPC   C3B17229  44.938  19.850   7.950
 5536POPC   C4B17230  44.933  19.900   7.650
 5537POPC   NC317231  23.701  42.380   9.450
 5537POPC   PO417232  23.744  42.334   9.150
 5537POPC   GL117233  23.684  42.294   8.850
 5537POPC   GL217234  23.664  42.254   8.850
 5537POPC   C1A17235  23.691  42.361   8.550
 5537POPC   D2A17236  23.668  42.383   8.250
 5537POPC   C3A17237  23.733  42.364   7.950
 5537POPC   C4A17238  23.743  42.319   7.650
 5537POPC   C1B17239  23.610  42.105   8.550
 5537POPC   C2B17240  23.539  42.122   8.250
 5537POPC   C3B17241  23.552  42.166   7.950
 5537POPC   C4B17242  23.601  42.105   7.650
 5538POPC   NC317243  28.321  25.261   9.450
 5538POPC   PO417244  28.369  25.282   9.150
 5538POPC   GL117245  28.339  25.306   8.850
 5538POPC   GL217246  28.293  25.236   8.850
 5538POPC   C1A17247  28.390  25.296   8.550
 5538POPC   D2A17248  28.400  25.216   8.250
 5538POPC   C3A17249  28.328  25.265   7.950
 5538POPC   C4A17250  28.330  25.278   7.650
 5538POPC   C1B17251  28.135  25.144   8.550
 5538POPC   C2B17252  28.124  25.229   8.250
 5538POPC   C3B17253  28.174  25.194   7.950
 5538POPC   C4B17254  28.183  25.227   7.650
 5539POPC   NC317255   9.793  26.803   9.450
 5539POPC   PO417256   9.726  26.866   9.150
 5539POPC   GL117257   9.710  26.848   8.850
 5539POPC   GL217258   9.802  26.694   8.850
 5539POPC   C1A17259   9.796  26.827   8.550
 5539POPC   D2A17260   9.759  26.861   8.250
 5539POPC   C3A17261   9.700  26.850   7.950
 5539POPC   C4A17262   9.712  26.867   7.650
 5539POPC   C1B17263   9.843  26.614   8.550
 5539POPC   C2B17264   9.837  26.644   8.250
 5539POPC   C3B17265   9.868  26.646   7.950
 5539POPC   C4B17266   9.841  26.650   7.650
 5540POPC   NC317267  12.065  40.769   9.450
 5540POPC   PO417268  12.040  40.765   9.150
 5540POPC   GL117269  12.058  40.829   8.850
 5540POPC   GL217270  11.965  40.877   8.850
 5540POPC   C1A17271  12.099  40.812   8.550
 5540POPC   D2A17272  12.059  40.780   8.250
 5540POPC   C3A17273  12.103  40.763   7.950
 5540POPC   C4A17274  12.051  40.755   7.650
 5540POPC   C1B17275  11.878  40.966   8.550
 5540POPC   C2B17276  11.895  40.927   8.250
 5540POPC   C3B17277  11.875  41.005   7.950
 5540POPC   C4B17278  11.869  41.007   7.650
 5541POPC   NC317279   3.517  26.082   9.450
 5541POPC   PO417280   3.519  26.007   9.150
 5541POPC   GL117281   3.565  26.064   8.850
 5541POPC   GL217282   3.526  25.920   8.850
 5541POPC   C1A17283   3.496  26.032   8.550
 5541POPC   D2A17284   3.575  26.054   8.250
 5541POPC   C3A17285   3.525  26.024   7.950
 5541POPC   C4A17286   3.577  26.050   7.650
 5541POPC   C1B17287   3.461  25.774   8.550
 5541POPC   C2B17288   3.471  25.764   8.250
 5541POPC   C3B17289   3.458  25.776   7.950
 5541POPC   C4B17290   3.444  25.799   7.650
 5542POPC   NC317291  37.725  26.026   9.450
 5542POPC   PO417292  37.685  26.046   9.150
 5542POPC   GL117293  37.686  26.091   8.850
 5542POPC   GL217294  37.735  25.941   8.850
 5542POPC   C1A17295  37.680  26.069   8.550
 5542POPC   D2A17296  37.665  26.053   8.250
 5542POPC   C3A17297  37.720  26.078   7.950
 5542POPC   C4A17298  37.632  26.061   7.650
 5542POPC   C1B17299  37.685  25.747   8.550
 5542POPC   C2B17300  37.729  25.798   8.250
 5542POPC   C3B17301  37.706  25.780   7.950
 5542POPC   C4B17302  37.731  25.763   7.650
 5543POPC   NC317303  10.519  29.096   9.450
 5543POPC   PO417304  10.489  29.123   9.150
 5543POPC   GL117305  10.514  29.156   8.850
 5543POPC   GL217306  10.681  29.077   8.850
 5543POPC   C1A17307  10.570  29.139   8.550
 5543POPC   D2A17308  10.498  29.142   8.250
 5543POPC   C3A17309  10.569  29.151   7.950
 5543POPC   C4A17310  10.530  29.143   7.650
 5543POPC   C1B17311  10.779  29.007   8.550
 5543POPC   C2B17312  10.739  29.016   8.250
 5543POPC   C3B17313  10.715  29.013   7.950
 5543POPC   C4B17314  10.784  29.037   7.650
 5544POPC   NC317315  26.052  25.257   9.450
 5544POPC   PO417316  26.024  25.270   9.150
 5544POPC   GL117317  26.057  25.225   8.850
 5544POPC   GL217318  26.103  25.191   8.850
 5544POPC   C1A17319  26.045  25.278   8.550
 5544POPC   D2A17320  26.072  25.223   8.250
 5544POPC   C3A17321  26.014  25.246   7.950
 5544POPC   C4A17322  26.000  25.222   7.650
 5544POPC   C1B17323  26.193  25.064   8.550
 5544POPC   C2B17324  26.228  25.107   8.250
 5544POPC   C3B17325  26.210  25.069   7.950
 5544POPC   C4B17326  26.209  25.033   7.650
 5545POPC   NC317327  12.812  24.482   9.450
 5545POPC   PO417328  12.870  24.448   9.150
 5545POPC   GL117329  12.871  24.496   8.850
 5545POPC   GL217330  12.774  24.446   8.850
 5545POPC   C1A17331  12.839  24.467   8.550
 5545POPC   D2A17332  12.867  24.447   8.250
 5545POPC   C3A17333  12.895  24.443   7.950
 5545POPC   C4A17334  12.865  24.487   7.650
 5545POPC   C1B17335  12.670  24.302   8.550
 5545POPC   C2B17336  12.717  24.365   8.250
 5545POPC   C3B17337  12.685  24.303   7.950
 5545POPC   C4B17338  12.641  24.363   7.650
 5546POPC   NC317339  43.108  12.892   9.450
 5546POPC   PO417340  43.065  12.829   9.150
 5546POPC   GL117341  43.159  12.836   8.850
 5546POPC   GL217342  43.113  12.990   8.850
 5546POPC   C1A17343  43.126  12.858   8.550
 5546POPC   D2A17344  43.061  12.890   8.250
 5546POPC   C3A17345  43.155  12.895   7.950
 5546POPC   C4A17346  43.076  12.844   7.650
 5546POPC   C1B17347  43.176  13.097   8.550
 5546POPC   C2B17348  43.167  13.099   8.250
 5546POPC   C3B17349  43.137  13.060   7.950
 5546POPC   C4B17350  43.149  13.049   7.650
 5547POPC   NC317351   3.542  42.345   9.450
 5547POPC   PO417352   3.498  42.290   9.150
 5547POPC   GL117353   3.574  42.377   8.850
 5547POPC   GL217354   3.469  42.438   8.850
 5547POPC   C1A17355   3.527  42.372   8.550
 5547POPC   D2A17356   3.577  42.349   8.250
 5547POPC   C3A17357   3.576  42.302   7.950
 5547POPC   C4A17358   3.530  42.348   7.650
 5547POPC   C1B17359   3.516  42.531   8.550
 5547POPC   C2B17360   3.440  42.594   8.250
 5547POPC   C3B17361   3.489  42.603   7.950
 5547POPC   C4B17362   3.512  42.554   7.650
 5548POPC   NC317363  39.266  36.104   9.450
 5548POPC   PO417364  39.212  36.081   9.150
 5548POPC   GL117365  39.213  36.113   8.850
 5548POPC   GL217366  39.145  36.156   8.850
 5548POPC   C1A17367  39.247  36.116   8.550
 5548POPC   D2A17368  39.228  36.092   8.250
 5548POPC   C3A17369  39.262  36.155   7.950
 5548POPC   C4A17370  39.189  36.090   7.650
 5548POPC   C1B17371  38.951  36.216   8.550
 5548POPC   C2B17372  38.992  36.225   8.250
 5548POPC   C3B17373  38.968  36.223   7.950
 5548POPC   C4B17374  39.033  36.224   7.650
 5549POPC   NC317375  30.706   4.324   9.450
 5549POPC   PO417376  30.656   4.294   9.150
 5549POPC   GL117377  30.739   4.286   8.850
 5549POPC   GL217378  30.696   4.488   8.850
 5549POPC   C1A17379  30.681   4.319   8.550
 5549POPC   D2A17380  30.698   4.307   8.250
 5549POPC   C3A17381  30.698   4.335   7.950
 5549POPC   C4A17382  30.709   4.282   7.650
 5549POPC   C1B17383  30.643   4.542   8.550
 5549POPC   C2B17384  30.674   4.569   8.250
 5549POPC   C3B17385  30.633   4.515   7.950
 5549POPC   C4B17386  30.646   4.524   7.650
 5550POPC   NC317387  17.479  43.854   9.450
 5550POPC   PO417388  17.523  43.847   9.150
 5550POPC   GL117389  17.508  43.926   8.850
 5550POPC   GL217390  17.540  43.768   8.850
 5550POPC   C1A17391  17.458  43.863   8.550
 5550POPC   D2A17392  17.542  43.854   8.250
 5550POPC   C3A17393  17.553  43.877   7.950
 5550POPC   C4A17394  17.494  43.918   7.650
 5550POPC   C1B17395  17.596  43.666   8.550
 5550POPC   C2B17396  17.559  43.622   8.250
 5550POPC   C3B17397  17.544  43.635   7.950
 5550POPC   C4B17398  17.554  43.677   7.650
 5551POPC   NC317399  10.517  21.423   9.450
 5551POPC   PO417400  10.507  21.380   9.150
 5551POPC   GL117401  10.485  21.359   8.850
 5551POPC   GL217402  10.613  21.294   8.850
 5551POPC   C1A17403  10.494  21.404   8.550
 5551POPC   D2A17404  10.480  21.433   8.250
 5551POPC   C3A17405  10.570  21.433   7.950
 5551POPC   C4A17406  10.533  21.339   7.650
 5551POPC   C1B17407  10.727  21.295   8.550
 5551POPC   C2B17408  10.710  21.249   8.250
 5551POPC   C3B17409  10.755  21.313   7.950
 5551POPC   C4B17410  10.766  21.324   7.650
 5552POPC   NC317411  10.498  27.643   9.450
 5552POPC   PO417412  10.556  27.642   9.150
 5552POPC   GL117413  10.516  27.582   8.850
 5552POPC   GL217414  10.400  27.556   8.850
 5552POPC   C1A17415  10.554  27.584   8.550
 5552POPC   D2A17416  10.521  27.620   8.250
 5552POPC   C3A17417  10.562  27.583   7.950
 5552POPC   C4A17418  10.524  27.555   7.650
 5552POPC   C1B17419  10.322  27.464   8.550
 5552POPC   C2B17420  10.322  27.499   8.250
 5552POPC   C3B17421  10.300  27.466   7.950
 5552POPC   C4B17422  10.280  27.490   7.650
 5553POPC   NC317423  42.382  17.462   9.450
 5553POPC   PO417424  42.382  17.470   9.150
 5553POPC   GL117425  42.285  17.485   8.850
 5553POPC   GL217426  42.348  17.665   8.850
 5553POPC   C1A17427  42.353  17.556   8.550
 5553POPC   D2A17428  42.336  17.481   8.250
 5553POPC   C3A17429  42.339  17.481   7.950
 5553POPC   C4A17430  42.358  17.499   7.650
 5553POPC   C1B17431  42.361  17.746   8.550
 5553POPC   C2B17432  42.364  17.742   8.250
 5553POPC   C3B17433  42.424  17.791   7.950
 5553POPC   C4B17434  42.374  17.700   7.650
 5554POPC   NC317435  31.477   2.810   9.450
 5554POPC   PO417436  31.469   2.751   9.150
 5554POPC   GL117437  31.490   2.737   8.850
 5554POPC   GL217438  31.402   2.859   8.850
 5554POPC   C1A17439  31.495   2.716   8.550
 5554POPC   D2A17440  31.436   2.765   8.250
 5554POPC   C3A17441  31.469   2.769   7.950
 5554POPC   C4A17442  31.498   2.740   7.650
 5554POPC   C1B17443  31.344   2.963   8.550
 5554POPC   C2B17444  31.368   2.998   8.250
 5554POPC   C3B17445  31.338   2.977   7.950
 5554POPC   C4B17446  31.420   3.007   7.650
 5555POPC   NC317447  44.634  13.613   9.450
 5555POPC   PO417448  44.640  13.651   9.150
 5555POPC   GL117449  44.630  13.669   8.850
 5555POPC   GL217450  44.768  13.538   8.850
 5555POPC   C1A17451  44.654  13.640   8.550
 5555POPC   D2A17452  44.616  13.677   8.250
 5555POPC   C3A17453  44.624  13.587   7.950
 5555POPC   C4A17454  44.710  13.600   7.650
 5555POPC   C1B17455  44.906  13.473   8.550
 5555POPC   C2B17456  44.895  13.531   8.250
 5555POPC   C3B17457  44.885  13.466   7.950
 5555POPC   C4B17458  44.825  13.483   7.650
 5556POPC   NC317459  25.996  33.014   9.450
 5556POPC   PO417460  26.041  33.072   9.150
 5556POPC   GL117461  26.062  33.065   8.850
 5556POPC   GL217462  26.144  33.087   8.850
 5556POPC   C1A17463  26.060  33.052   8.550
 5556POPC   D2A17464  26.034  33.038   8.250
 5556POPC   C3A17465  26.090  33.048   7.950
 5556POPC   C4A17466  26.015  32.978   7.650
 5556POPC   C1B17467  26.229  33.204   8.550
 5556POPC   C2B17468  26.203  33.159   8.250
 5556POPC   C3B17469  26.247  33.218   7.950
 5556POPC   C4B17470  26.243  33.211   7.650
 5557POPC   NC317471   2.026   2.811   9.450
 5557POPC   PO417472   2.026   2.771   9.150
 5557POPC   GL117473   1.973   2.740   8.850
 5557POPC   GL217474   1.955   2.859   8.850
 5557POPC   C1A17475   1.972   2.758   8.550
 5557POPC   D2A17476   1.952   2.750   8.250
 5557POPC   C3A17477   2.010   2.776   7.950
 5557POPC   C4A17478   1.961   2.749   7.650
 5557POPC   C1B17479   1.871   3.015   8.550
 5557POPC   C2B17480   1.871   2.952   8.250
 5557POPC   C3B17481   1.879   2.943   7.950
 5557POPC   C4B17482   1.879   2.960   7.650
 5558POPC   NC317483  43.926  17.549   9.450
 5558POPC   PO417484  43.933  17.548   9.150
 5558POPC   GL117485  43.843  17.481   8.850
 5558POPC   GL217486  43.865  17.631   8.850
 5558POPC   C1A17487  43.859  17.494   8.550
 5558POPC   D2A17488  43.898  17.472   8.250
 5558POPC   C3A17489  43.919  17.526   7.950
 5558POPC   C4A17490  43.873  17.484   7.650
 5558POPC   C1B17491  43.898  17.734   8.550
 5558POPC   C2B17492  43.938  17.798   8.250
 5558POPC   C3B17493  43.984  17.755   7.950
 5558POPC   C4B17494  43.975  17.738   7.650
 5559POPC   NC317495  23.688  34.565   9.450
 5559POPC   PO417496  23.695  34.583   9.150
 5559POPC   GL117497  23.706  34.581   8.850
 5559POPC   GL217498  23.603  34.584   8.850
 5559POPC   C1A17499  23.740  34.606   8.550
 5559POPC   D2A17500  23.676  34.615   8.250
 5559POPC   C3A17501  23.707  34.621   7.950
 5559POPC   C4A17502  23.696  34.603   7.650
 5559POPC   C1B17503  23.471  34.594   8.550
 5559POPC   C2B17504  23.490  34.550   8.250
 5559POPC   C3B17505  23.459  34.584   7.950
 5559POPC   C4B17506  23.489  34.638   7.650
 5560POPC   NC317507   8.166   2.751   9.450
 5560POPC   PO417508   8.170   2.748   9.150
 5560POPC   GL117509   8.192   2.766   8.850
 5560POPC   GL217510   8.102   2.712   8.850
 5560POPC   C1A17511   8.200   2.760   8.550
 5560POPC   D2A17512   8.153   2.748   8.250
 5560POPC   C3A17513   8.162   2.797   7.950
 5560POPC   C4A17514   8.164   2.767   7.650
 5560POPC   C1B17515   7.948   2.678   8.550
 5560POPC   C2B17516   7.918   2.725   8.250
 5560POPC   C3B17517   7.912   2.721   7.950
 5560POPC   C4B17518   7.978   2.727   7.650
 5561POPC   NC317519  31.466  43.153   9.450
 5561POPC   PO417520  31.522  43.119   9.150
 5561POPC   GL117521  31.482  43.083   8.850
 5561POPC   GL217522  31.469  43.012   8.850
 5561POPC   C1A17523  31.477  43.073   8.550
 5561POPC   D2A17524  31.430  43.090   8.250
 5561POPC   C3A17525  31.487  43.083   7.950
 5561POPC   C4A17526  31.428  43.066   7.650
 5561POPC   C1B17527  31.476  42.888   8.550
 5561POPC   C2B17528  31.456  42.892   8.250
 5561POPC   C3B17529  31.470  42.844   7.950
 5561POPC   C4B17530  31.454  42.830   7.650
 5562POPC   NC317531  21.400  33.760   9.450
 5562POPC   PO417532  21.407  33.789   9.150
 5562POPC   GL117533  21.339  33.844   8.850
 5562POPC   GL217534  21.270  33.738   8.850
 5562POPC   C1A17535  21.410  33.800   8.550
 5562POPC   D2A17536  21.392  33.843   8.250
 5562POPC   C3A17537  21.386  33.799   7.950
 5562POPC   C4A17538  21.371  33.772   7.650
 5562POPC   C1B17539  21.173  33.661   8.550
 5562POPC   C2B17540  21.141  33.728   8.250
 5562POPC   C3B17541  21.166  33.703   7.950
 5562POPC   C4B17542  21.123  33.690   7.650
 5563POPC   NC317543   8.954   6.683   9.450
 5563POPC   PO417544   8.958   6.624   9.150
 5563POPC   GL117545   8.993   6.678   8.850
 5563POPC   GL217546   8.920   6.544   8.850
 5563POPC   C1A17547   8.958   6.631   8.550
 5563POPC   D2A17548   8.981   6.625   8.250
 5563POPC   C3A17549   8.964   6.643   7.950
 5563POPC   C4A17550   8.967   6.667   7.650
 5563POPC   C1B17551   8.758   6.516   8.550
 5563POPC   C2B17552   8.797   6.497   8.250
 5563POPC   C3B17553   8.767   6.466   7.950
 5563POPC   C4B17554   8.745   6.526   7.650
 5564POPC   NC317555   4.287  13.609   9.450
 5564POPC   PO417556   4.363  13.660   9.150
 5564POPC   GL117557   4.301  13.590   8.850
 5564POPC   GL217558   4.229  13.756   8.850
 5564POPC   C1A17559   4.299  13.602   8.550
 5564POPC   D2A17560   4.272  13.604   8.250
 5564POPC   C3A17561   4.313  13.625   7.950
 5564POPC   C4A17562   4.326  13.579   7.650
 5564POPC   C1B17563   4.206  13.869   8.550
 5564POPC   C2B17564   4.186  13.904   8.250
 5564POPC   C3B17565   4.194  13.904   7.950
 5564POPC   C4B17566   4.206  13.836   7.650
 5565POPC   NC317567   5.842  36.127   9.450
 5565POPC   PO417568   5.888  36.171   9.150
 5565POPC   GL117569   5.847  36.088   8.850
 5565POPC   GL217570   5.975  36.126   8.850
 5565POPC   C1A17571   5.903  36.083   8.550
 5565POPC   D2A17572   5.838  36.131   8.250
 5565POPC   C3A17573   5.866  36.146   7.950
 5565POPC   C4A17574   5.874  36.094   7.650
 5565POPC   C1B17575   6.107  36.090   8.550
 5565POPC   C2B17576   6.123  36.138   8.250
 5565POPC   C3B17577   6.107  36.122   7.950
 5565POPC   C4B17578   6.165  36.149   7.650
 5566POPC   NC317579  26.855  22.964   9.450
 5566POPC   PO417580  26.808  22.971   9.150
 5566POPC   GL117581  26.823  22.972   8.850
 5566POPC   GL217582  26.914  22.996   8.850
 5566POPC   C1A17583  26.782  22.979   8.550
 5566POPC   D2A17584  26.785  22.888   8.250
 5566POPC   C3A17585  26.850  22.921   7.950
 5566POPC   C4A17586  26.792  22.967   7.650
 5566POPC   C1B17587  27.020  23.020   8.550
 5566POPC   C2B17588  27.016  22.971   8.250
 5566POPC   C3B17589  27.109  22.942   7.950
 5566POPC   C4B17590  27.080  22.953   7.650
 5567POPC   NC317591   6.634  39.253   9.450
 5567POPC   PO417592   6.618  39.243   9.150
 5567POPC   GL117593   6.639  39.275   8.850
 5567POPC   GL217594   6.529  39.268   8.850
 5567POPC   C1A17595   6.613  39.253   8.550
 5567POPC   D2A17596   6.669  39.209   8.250
 5567POPC   C3A17597   6.596  39.226   7.950
 5567POPC   C4A17598   6.672  39.203   7.650
 5567POPC   C1B17599   6.375  39.206   8.550
 5567POPC   C2B17600   6.347  39.284   8.250
 5567POPC   C3B17601   6.427  39.202   7.950
 5567POPC   C4B17602   6.385  39.276   7.650
 5568POPC   NC317603  33.826  10.574   9.450
 5568POPC   PO417604  33.785  10.546   9.150
 5568POPC   GL117605  33.795  10.483   8.850
 5568POPC   GL217606  33.739  10.440   8.850
 5568POPC   C1A17607  33.798  10.514   8.550
 5568POPC   D2A17608  33.831  10.504   8.250
 5568POPC   C3A17609  33.774  10.500   7.950
 5568POPC   C4A17610  33.816  10.507   7.650
 5568POPC   C1B17611  33.684  10.257   8.550
 5568POPC   C2B17612  33.693  10.279   8.250
 5568POPC   C3B17613  33.668  10.242   7.950
 5568POPC   C4B17614  33.725  10.311   7.650
 5569POPC   NC317615   8.216  34.537   9.450
 5569POPC   PO417616   8.209  34.614   9.150
 5569POPC   GL117617   8.217  34.577   8.850
 5569POPC   GL217618   8.101  34.484   8.850
 5569POPC   C1A17619   8.185  34.545   8.550
 5569POPC   D2A17620   8.195  34.611   8.250
 5569POPC   C3A17621   8.225  34.585   7.950
 5569POPC   C4A17622   8.163  34.614   7.650
 5569POPC   C1B17623   8.023  34.388   8.550
 5569POPC   C2B17624   7.954  34.410   8.250
 5569POPC   C3B17625   7.941  34.411   7.950
 5569POPC   C4B17626   7.958  34.387   7.650
 5570POPC   NC317627  26.815  15.146   9.450
 5570POPC   PO417628  26.796  15.182   9.150
 5570POPC   GL117629  26.789  15.187   8.850
 5570POPC   GL217630  26.660  15.107   8.850
 5570POPC   C1A17631  26.784  15.141   8.550
 5570POPC   D2A17632  26.786  15.214   8.250
 5570POPC   C3A17633  26.772  15.186   7.950
 5570POPC   C4A17634  26.778  15.146   7.650
 5570POPC   C1B17635  26.604  15.094   8.550
 5570POPC   C2B17636  26.579  15.089   8.250
 5570POPC   C3B17637  26.542  15.093   7.950
 5570POPC   C4B17638  26.592  15.120   7.650
 5571POPC   NC317639  19.849  43.932   9.450
 5571POPC   PO417640  19.861  43.904   9.150
 5571POPC   GL117641  19.839  43.908   8.850
 5571POPC   GL217642  19.668  43.880   8.850
 5571POPC   C1A17643  19.845  43.902   8.550
 5571POPC   D2A17644  19.795  43.885   8.250
 5571POPC   C3A17645  19.855  43.848   7.950
 5571POPC   C4A17646  19.876  43.881   7.650
 5571POPC   C1B17647  19.540  43.863   8.550
 5571POPC   C2B17648  19.618  43.841   8.250
 5571POPC   C3B17649  19.570  43.887   7.950
 5571POPC   C4B17650  19.610  43.862   7.650
 5572POPC   NC317651  30.717  23.692   9.450
 5572POPC   PO417652  30.738  23.723   9.150
 5572POPC   GL117653  30.711  23.672   8.850
 5572POPC   GL217654  30.729  23.866   8.850
 5572POPC   C1A17655  30.671  23.744   8.550
 5572POPC   D2A17656  30.659  23.750   8.250
 5572POPC   C3A17657  30.699  23.729   7.950
 5572POPC   C4A17658  30.665  23.683   7.650
 5572POPC   C1B17659  30.749  23.931   8.550
 5572POPC   C2B17660  30.802  23.986   8.250
 5572POPC   C3B17661  30.798  23.951   7.950
 5572POPC   C4B17662  30.793  23.945   7.650
 5573POPC   NC317663  29.951  20.563   9.450
 5573POPC   PO417664  29.928  20.646   9.150
 5573POPC   GL117665  29.891  20.566   8.850
 5573POPC   GL217666  29.924  20.455   8.850
 5573POPC   C1A17667  29.962  20.604   8.550
 5573POPC   D2A17668  29.928  20.638   8.250
 5573POPC   C3A17669  29.939  20.655   7.950
 5573POPC   C4A17670  29.930  20.606   7.650
 5573POPC   C1B17671  29.972  20.394   8.550
 5573POPC   C2B17672  29.969  20.327   8.250
 5573POPC   C3B17673  30.002  20.403   7.950
 5573POPC   C4B17674  30.012  20.330   7.650
 5574POPC   NC317675   0.455  41.529   9.450
 5574POPC   PO417676   0.434  41.512   9.150
 5574POPC   GL117677   0.453  41.529   8.850
 5574POPC   GL217678   0.339  41.596   8.850
 5574POPC   C1A17679   0.389  41.543   8.550
 5574POPC   D2A17680   0.463  41.528   8.250
 5574POPC   C3A17681   0.457  41.532   7.950
 5574POPC   C4A17682   0.389  41.530   7.650
 5574POPC   C1B17683   0.255  41.681   8.550
 5574POPC   C2B17684   0.215  41.663   8.250
 5574POPC   C3B17685   0.254  41.693   7.950
 5574POPC   C4B17686   0.237  41.669   7.650
 5575POPC   NC317687  44.660   2.792   9.450
 5575POPC   PO417688  44.645   2.756   9.150
 5575POPC   GL117689  44.695   2.808   8.850
 5575POPC   GL217690  44.674   2.868   8.850
 5575POPC   C1A17691  44.634   2.800   8.550
 5575POPC   D2A17692  44.695   2.808   8.250
 5575POPC   C3A17693  44.623   2.764   7.950
 5575POPC   C4A17694  44.706   2.813   7.650
 5575POPC   C1B17695  44.734   2.989   8.550
 5575POPC   C2B17696  44.735   3.011   8.250
 5575POPC   C3B17697  44.700   2.956   7.950
 5575POPC   C4B17698  44.767   3.001   7.650
 5576POPC   NC317699  43.072  29.134   9.450
 5576POPC   PO417700  43.145  29.181   9.150
 5576POPC   GL117701  43.137  29.140   8.850
 5576POPC   GL217702  43.138  29.001   8.850
 5576POPC   C1A17703  43.154  29.130   8.550
 5576POPC   D2A17704  43.156  29.120   8.250
 5576POPC   C3A17705  43.100  29.106   7.950
 5576POPC   C4A17706  43.159  29.149   7.650
 5576POPC   C1B17707  43.231  28.972   8.550
 5576POPC   C2B17708  43.193  28.909   8.250
 5576POPC   C3B17709  43.260  28.977   7.950
 5576POPC   C4B17710  43.277  28.927   7.650
 5577POPC   NC317711   5.844  43.063   9.450
 5577POPC   PO417712   5.895  43.073   9.150
 5577POPC   GL117713   5.841  43.157   8.850
 5577POPC   GL217714   5.783  43.144   8.850
 5577POPC   C1A17715   5.838  43.147   8.550
 5577POPC   D2A17716   5.828  43.146   8.250
 5577POPC   C3A17717   5.881  43.092   7.950
 5577POPC   C4A17718   5.898  43.119   7.650
 5577POPC   C1B17719   5.690  43.283   8.550
 5577POPC   C2B17720   5.657  43.251   8.250
 5577POPC   C3B17721   5.677  43.294   7.950
 5577POPC   C4B17722   5.688  43.240   7.650
 5578POPC   NC317723  35.363  39.278   9.450
 5578POPC   PO417724  35.341  39.188   9.150
 5578POPC   GL117725  35.369  39.183   8.850
 5578POPC   GL217726  35.308  39.104   8.850
 5578POPC   C1A17727  35.369  39.217   8.550
 5578POPC   D2A17728  35.330  39.270   8.250
 5578POPC   C3A17729  35.341  39.270   7.950
 5578POPC   C4A17730  35.347  39.197   7.650
 5578POPC   C1B17731  35.268  38.959   8.550
 5578POPC   C2B17732  35.268  38.994   8.250
 5578POPC   C3B17733  35.268  38.985   7.950
 5578POPC   C4B17734  35.302  38.976   7.650
 5579POPC   NC317735  28.357  19.053   9.450
 5579POPC   PO417736  28.419  19.064   9.150
 5579POPC   GL117737  28.371  19.038   8.850
 5579POPC   GL217738  28.337  19.194   8.850
 5579POPC   C1A17739  28.386  19.052   8.550
 5579POPC   D2A17740  28.415  19.063   8.250
 5579POPC   C3A17741  28.351  19.020   7.950
 5579POPC   C4A17742  28.353  19.056   7.650
 5579POPC   C1B17743  28.370  19.271   8.550
 5579POPC   C2B17744  28.370  19.350   8.250
 5579POPC   C3B17745  28.357  19.269   7.950
 5579POPC   C4B17746  28.408  19.275   7.650
 5580POPC   NC317747  29.115  20.607   9.450
 5580POPC   PO417748  29.140  20.654   9.150
 5580POPC   GL117749  29.138  20.638   8.850
 5580POPC   GL217750  29.313  20.626   8.850
 5580POPC   C1A17751  29.120  20.584   8.550
 5580POPC   D2A17752  29.097  20.580   8.250
 5580POPC   C3A17753  29.146  20.603   7.950
 5580POPC   C4A17754  29.188  20.567   7.650
 5580POPC   C1B17755  29.368  20.610   8.550
 5580POPC   C2B17756  29.355  20.648   8.250
 5580POPC   C3B17757  29.411  20.594   7.950
 5580POPC   C4B17758  29.416  20.619   7.650
 5581POPC   NC317759  30.726  29.925   9.450
 5581POPC   PO417760  30.713  29.958   9.150
 5581POPC   GL117761  30.740  29.917   8.850
 5581POPC   GL217762  30.809  29.830   8.850
 5581POPC   C1A17763  30.678  29.879   8.550
 5581POPC   D2A17764  30.713  29.958   8.250
 5581POPC   C3A17765  30.725  29.961   7.950
 5581POPC   C4A17766  30.679  29.892   7.650
 5581POPC   C1B17767  30.859  29.720   8.550
 5581POPC   C2B17768  30.899  29.801   8.250
 5581POPC   C3B17769  30.853  29.756   7.950
 5581POPC   C4B17770  30.913  29.781   7.650
 5582POPC   NC317771  39.200  31.487   9.450
 5582POPC   PO417772  39.220  31.514   9.150
 5582POPC   GL117773  39.243  31.500   8.850
 5582POPC   GL217774  39.182  31.612   8.850
 5582POPC   C1A17775  39.274  31.488   8.550
 5582POPC   D2A17776  39.258  31.470   8.250
 5582POPC   C3A17777  39.196  31.429   7.950
 5582POPC   C4A17778  39.195  31.429   7.650
 5582POPC   C1B17779  39.039  31.666   8.550
 5582POPC   C2B17780  39.064  31.645   8.250
 5582POPC   C3B17781  39.081  31.665   7.950
 5582POPC   C4B17782  39.053  31.691   7.650
 5583POPC   NC317783  28.335  36.928   9.450
 5583POPC   PO417784  28.360  36.883   9.150
 5583POPC   GL117785  28.349  36.929   8.850
 5583POPC   GL217786  28.324  36.797   8.850
 5583POPC   C1A17787  28.343  36.886   8.550
 5583POPC   D2A17788  28.381  36.863   8.250
 5583POPC   C3A17789  28.404  36.868   7.950
 5583POPC   C4A17790  28.334  36.877   7.650
 5583POPC   C1B17791  28.240  36.716   8.550
 5583POPC   C2B17792  28.243  36.712   8.250
 5583POPC   C3B17793  28.222  36.755   7.950
 5583POPC   C4B17794  28.208  36.701   7.650
 5584POPC   NC317795  39.999  29.938   9.450
 5584POPC   PO417796  39.959  29.899   9.150
 5584POPC   GL117797  39.978  29.947   8.850
 5584POPC   GL217798  39.851  29.948   8.850
 5584POPC   C1A17799  39.965  29.950   8.550
 5584POPC   D2A17800  39.990  29.971   8.250
 5584POPC   C3A17801  40.023  29.968   7.950
 5584POPC   C4A17802  40.008  29.881   7.650
 5584POPC   C1B17803  39.808  30.033   8.550
 5584POPC   C2B17804  39.727  29.941   8.250
 5584POPC   C3B17805  39.719  29.979   7.950
 5584POPC   C4B17806  39.727  30.039   7.650
 5585POPC   NC317807  15.214  16.751   9.450
 5585POPC   PO417808  15.153  16.696   9.150
 5585POPC   GL117809  15.176  16.752   8.850
 5585POPC   GL217810  15.077  16.867   8.850
 5585POPC   C1A17811  15.147  16.720   8.550
 5585POPC   D2A17812  15.212  16.772   8.250
 5585POPC   C3A17813  15.160  16.716   7.950
 5585POPC   C4A17814  15.160  16.697   7.650
 5585POPC   C1B17815  15.010  16.876   8.550
 5585POPC   C2B17816  15.022  16.940   8.250
 5585POPC   C3B17817  15.044  16.926   7.950
 5585POPC   C4B17818  14.971  16.879   7.650
 5586POPC   NC317819  18.288  42.335   9.450
 5586POPC   PO417820  18.308  42.296   9.150
 5586POPC   GL117821  18.285  42.366   8.850
 5586POPC   GL217822  18.218  42.247   8.850
 5586POPC   C1A17823  18.253  42.350   8.550
 5586POPC   D2A17824  18.259  42.330   8.250
 5586POPC   C3A17825  18.273  42.346   7.950
 5586POPC   C4A17826  18.316  42.286   7.650
 5586POPC   C1B17827  18.087  42.156   8.550
 5586POPC   C2B17828  18.087  42.179   8.250
 5586POPC   C3B17829  18.139  42.133   7.950
 5586POPC   C4B17830  18.072  42.151   7.650
 5587POPC   NC317831  34.571  39.971   9.450
 5587POPC   PO417832  34.540  39.976   9.150
 5587POPC   GL117833  34.543  39.984   8.850
 5587POPC   GL217834  34.466  40.063   8.850
 5587POPC   C1A17835  34.573  40.027   8.550
 5587POPC   D2A17836  34.602  39.986   8.250
 5587POPC   C3A17837  34.588  40.021   7.950
 5587POPC   C4A17838  34.546  39.978   7.650
 5587POPC   C1B17839  34.337  40.075   8.550
 5587POPC   C2B17840  34.314  40.081   8.250
 5587POPC   C3B17841  34.391  40.125   7.950
 5587POPC   C4B17842  34.385  40.074   7.650
 5588POPC   NC317843  42.305   5.043   9.450
 5588POPC   PO417844  42.299   5.135   9.150
 5588POPC   GL117845  42.320   5.087   8.850
 5588POPC   GL217846  42.228   4.952   8.850
 5588POPC   C1A17847  42.371   5.137   8.550
 5588POPC   D2A17848  42.358   5.060   8.250
 5588POPC   C3A17849  42.289   5.116   7.950
 5588POPC   C4A17850  42.305   5.091   7.650
 5588POPC   C1B17851  42.176   4.852   8.550
 5588POPC   C2B17852  42.171   4.942   8.250
 5588POPC   C3B17853  42.177   4.940   7.950
 5588POPC   C4B17854  42.139   4.920   7.650
 5589POPC   NC317855  30.659  15.921   9.450
 5589POPC   PO417856  30.726  15.980   9.150
 5589POPC   GL117857  30.744  16.004   8.850
 5589POPC   GL217858  30.553  16.078   8.850
 5589POPC   C1A17859  30.721  15.955   8.550
 5589POPC   D2A17860  30.665  15.925   8.250
 5589POPC   C3A17861  30.700  15.939   7.950
 5589POPC   C4A17862  30.680  15.941   7.650
 5589POPC   C1B17863  30.459  16.092   8.550
 5589POPC   C2B17864  30.451  16.095   8.250
 5589POPC   C3B17865  30.489  16.097   7.950
 5589POPC   C4B17866  30.518  16.123   7.650
 5590POPC   NC317867  11.298  23.744   9.450
 5590POPC   PO417868  11.305  23.722   9.150
 5590POPC   GL117869  11.340  23.739   8.850
 5590POPC   GL217870  11.268  23.881   8.850
 5590POPC   C1A17871  11.305  23.731   8.550
 5590POPC   D2A17872  11.346  23.683   8.250
 5590POPC   C3A17873  11.292  23.747   7.950
 5590POPC   C4A17874  11.263  23.715   7.650
 5590POPC   C1B17875  11.285  23.996   8.550
 5590POPC   C2B17876  11.268  24.010   8.250
 5590POPC   C3B17877  11.260  23.963   7.950
 5590POPC   C4B17878  11.300  23.921   7.650
 5591POPC   NC317879  29.162  15.945   9.450
 5591POPC   PO417880  29.164  15.980   9.150
 5591POPC   GL117881  29.190  15.983   8.850
 5591POPC   GL217882  29.271  15.838   8.850
 5591POPC   C1A17883  29.134  15.993   8.550
 5591POPC   D2A17884  29.177  15.984   8.250
 5591POPC   C3A17885  29.099  15.965   7.950
 5591POPC   C4A17886  29.158  15.993   7.650
 5591POPC   C1B17887  29.338  15.767   8.550
 5591POPC   C2B17888  29.332  15.798   8.250
 5591POPC   C3B17889  29.343  15.800   7.950
 5591POPC   C4B17890  29.368  15.807   7.650
 5592POPC   NC317891   1.988   7.392   9.450
 5592POPC   PO417892   2.012   7.418   9.150
 5592POPC   GL117893   1.956   7.449   8.850
 5592POPC   GL217894   1.849   7.352   8.850
 5592POPC   C1A17895   2.008   7.413   8.550
 5592POPC   D2A17896   1.962   7.437   8.250
 5592POPC   C3A17897   1.976   7.420   7.950
 5592POPC   C4A17898   1.984   7.449   7.650
 5592POPC   C1B17899   1.765   7.264   8.550
 5592POPC   C2B17900   1.767   7.245   8.250
 5592POPC   C3B17901   1.818   7.283   7.950
 5592POPC   C4B17902   1.758   7.228   7.650
 5593POPC   NC317903   9.739   8.206   9.450
 5593POPC   PO417904   9.768   8.162   9.150
 5593POPC   GL117905   9.780   8.220   8.850
 5593POPC   GL217906   9.681   8.280   8.850
 5593POPC   C1A17907   9.791   8.229   8.550
 5593POPC   D2A17908   9.785   8.218   8.250
 5593POPC   C3A17909   9.738   8.159   7.950
 5593POPC   C4A17910   9.712   8.228   7.650
 5593POPC   C1B17911   9.616   8.367   8.550
 5593POPC   C2B17912   9.596   8.430   8.250
 5593POPC   C3B17913   9.639   8.375   7.950
 5593POPC   C4B17914   9.585   8.402   7.650
 5594POPC   NC317915  34.528   6.652   9.450
 5594POPC   PO417916  34.601   6.600   9.150
 5594POPC   GL117917  34.537   6.652   8.850
 5594POPC   GL217918  34.515   6.577   8.850
 5594POPC   C1A17919  34.528   6.655   8.550
 5594POPC   D2A17920  34.558   6.650   8.250
 5594POPC   C3A17921  34.614   6.665   7.950
 5594POPC   C4A17922  34.612   6.638   7.650
 5594POPC   C1B17923  34.375   6.465   8.550
 5594POPC   C2B17924  34.349   6.516   8.250
 5594POPC   C3B17925  34.367   6.443   7.950
 5594POPC   C4B17926  34.373   6.472   7.650
 5595POPC   NC317927  27.621  18.301   9.450
 5595POPC   PO417928  27.582  18.330   9.150
 5595POPC   GL117929  27.553  18.314   8.850
 5595POPC   GL217930  27.436  18.304   8.850
 5595POPC   C1A17931  27.546  18.300   8.550
 5595POPC   D2A17932  27.576  18.317   8.250
 5595POPC   C3A17933  27.616  18.312   7.950
 5595POPC   C4A17934  27.594  18.309   7.650
 5595POPC   C1B17935  27.348  18.298   8.550
 5595POPC   C2B17936  27.377  18.331   8.250
 5595POPC   C3B17937  27.313  18.303   7.950
 5595POPC   C4B17938  27.341  18.338   7.650
 5596POPC   NC317939   9.017  24.463   9.450
 5596POPC   PO417940   8.991  24.470   9.150
 5596POPC   GL117941   9.015  24.524   8.850
 5596POPC   GL217942   9.122  24.507   8.850
 5596POPC   C1A17943   8.959  24.498   8.550
 5596POPC   D2A17944   8.998  24.534   8.250
 5596POPC   C3A17945   8.978  24.520   7.950
 5596POPC   C4A17946   9.011  24.514   7.650
 5596POPC   C1B17947   9.239  24.439   8.550
 5596POPC   C2B17948   9.199  24.497   8.250
 5596POPC   C3B17949   9.183  24.454   7.950
 5596POPC   C4B17950   9.241  24.422   7.650
 5597POPC   NC317951  15.956  19.791   9.450
 5597POPC   PO417952  15.949  19.872   9.150
 5597POPC   GL117953  15.990  19.855   8.850
 5597POPC   GL217954  16.083  19.781   8.850
 5597POPC   C1A17955  15.975  19.851   8.550
 5597POPC   D2A17956  15.991  19.862   8.250
 5597POPC   C3A17957  15.954  19.872   7.950
 5597POPC   C4A17958  15.931  19.857   7.650
 5597POPC   C1B17959  16.192  19.686   8.550
 5597POPC   C2B17960  16.216  19.664   8.250
 5597POPC   C3B17961  16.122  19.689   7.950
 5597POPC   C4B17962  16.197  19.670   7.650
 5598POPC   NC317963  15.965  22.171   9.450
 5598POPC   PO417964  15.937  22.173   9.150
 5598POPC   GL117965  15.992  22.122   8.850
 5598POPC   GL217966  16.026  22.065   8.850
 5598POPC   C1A17967  15.907  22.118   8.550
 5598POPC   D2A17968  15.958  22.124   8.250
 5598POPC   C3A17969  15.944  22.134   7.950
 5598POPC   C4A17970  15.986  22.156   7.650
 5598POPC   C1B17971  16.036  21.892   8.550
 5598POPC   C2B17972  16.038  21.900   8.250
 5598POPC   C3B17973  16.028  21.901   7.950
 5598POPC   C4B17974  16.082  21.930   7.650
 5599POPC   NC317975   1.217  17.500   9.450
 5599POPC   PO417976   1.191  17.522   9.150
 5599POPC   GL117977   1.234  17.507   8.850
 5599POPC   GL217978   1.124  17.623   8.850
 5599POPC   C1A17979   1.209  17.503   8.550
 5599POPC   D2A17980   1.169  17.486   8.250
 5599POPC   C3A17981   1.248  17.490   7.950
 5599POPC   C4A17982   1.188  17.515   7.650
 5599POPC   C1B17983   1.074  17.703   8.550
 5599POPC   C2B17984   1.110  17.739   8.250
 5599POPC   C3B17985   1.072  17.733   7.950
 5599POPC   C4B17986   1.050  17.736   7.650
 5600POPC   NC317987  12.831  13.617   9.450
 5600POPC   PO417988  12.846  13.670   9.150
 5600POPC   GL117989  12.882  13.641   8.850
 5600POPC   GL217990  12.732  13.764   8.850
 5600POPC   C1A17991  12.876  13.665   8.550
 5600POPC   D2A17992  12.889  13.578   8.250
 5600POPC   C3A17993  12.857  13.626   7.950
 5600POPC   C4A17994  12.874  13.610   7.650
 5600POPC   C1B17995  12.695  13.823   8.550
 5600POPC   C2B17996  12.682  13.784   8.250
 5600POPC   C3B17997  12.662  13.817   7.950
 5600POPC   C4B17998  12.666  13.830   7.650
 5601POPC   NC317999  38.466   8.235   9.450
 5601POPC   PO418000  38.412   8.198   9.150
 5601POPC   GL118001  38.459   8.200   8.850
 5601POPC   GL218002  38.358   8.214   8.850
 5601POPC   C1A18003  38.481   8.222   8.550
 5601POPC   D2A18004  38.412   8.171   8.250
 5601POPC   C3A18005  38.410   8.241   7.950
 5601POPC   C4A18006  38.460   8.235   7.650
 5601POPC   C1B18007  38.234   8.226   8.550
 5601POPC   C2B18008  38.245   8.238   8.250
 5601POPC   C3B18009  38.252   8.286   7.950
 5601POPC   C4B18010  38.204   8.217   7.650
 5602POPC   NC318011  43.836  19.833   9.450
 5602POPC   PO418012  43.925  19.811   9.150
 5602POPC   GL118013  43.882  19.884   8.850
 5602POPC   GL218014  43.980  19.780   8.850
 5602POPC   C1A18015  43.889  19.824   8.550
 5602POPC   D2A18016  43.893  19.879   8.250
 5602POPC   C3A18017  43.868  19.844   7.950
 5602POPC   C4A18018  43.934  19.877   7.650
 5602POPC   C1B18019  44.084  19.604   8.550
 5602POPC   C2B18020  44.028  19.604   8.250
 5602POPC   C3B18021  44.012  19.693   7.950
 5602POPC   C4B18022  44.016  19.611   7.650
 5603POPC   NC318023  11.299  20.604   9.450
 5603POPC   PO418024  11.301  20.636   9.150
 5603POPC   GL118025  11.292  20.645   8.850
 5603POPC   GL218026  11.215  20.682   8.850
 5603POPC   C1A18027  11.321  20.568   8.550
 5603POPC   D2A18028  11.264  20.620   8.250
 5603POPC   C3A18029  11.281  20.578   7.950
 5603POPC   C4A18030  11.330  20.583   7.650
 5603POPC   C1B18031  11.066  20.685   8.550
 5603POPC   C2B18032  11.013  20.710   8.250
 5603POPC   C3B18033  11.079  20.685   7.950
 5603POPC   C4B18034  11.081  20.657   7.650
 5604POPC   NC318035  16.734  17.492   9.450
 5604POPC   PO418036  16.699  17.530   9.150
 5604POPC   GL118037  16.728  17.521   8.850
 5604POPC   GL218038  16.887  17.600   8.850
 5604POPC   C1A18039  16.731  17.554   8.550
 5604POPC   D2A18040  16.714  17.463   8.250
 5604POPC   C3A18041  16.728  17.513   7.950
 5604POPC   C4A18042  16.683  17.468   7.650
 5604POPC   C1B18043  16.989  17.648   8.550
 5604POPC   C2B18044  17.013  17.614   8.250
 5604POPC   C3B18045  17.000  17.605   7.950
 5604POPC   C4B18046  16.948  17.598   7.650
 5605POPC   NC318047  36.129  26.823   9.450
 5605POPC   PO418048  36.164  26.849   9.150
 5605POPC   GL118049  36.138  26.859   8.850
 5605POPC   GL218050  36.028  26.859   8.850
 5605POPC   C1A18051  36.125  26.854   8.550
 5605POPC   D2A18052  36.172  26.849   8.250
 5605POPC   C3A18053  36.162  26.803   7.950
 5605POPC   C4A18054  36.167  26.847   7.650
 5605POPC   C1B18055  35.924  26.869   8.550
 5605POPC   C2B18056  35.864  26.844   8.250
 5605POPC   C3B18057  35.905  26.863   7.950
 5605POPC   C4B18058  35.838  26.838   7.650
 5606POPC   NC318059  44.643  42.377   9.450
 5606POPC   PO418060  44.624  42.331   9.150
 5606POPC   GL118061  44.686  42.314   8.850
 5606POPC   GL218062  44.646  42.460   8.850
 5606POPC   C1A18063  44.700  42.333   8.550
 5606POPC   D2A18064  44.651  42.333   8.250
 5606POPC   C3A18065  44.675  42.291   7.950
 5606POPC   C4A18066  44.636  42.340   7.650
 5606POPC   C1B18067  44.618  42.593   8.550
 5606POPC   C2B18068  44.678  42.632   8.250
 5606POPC   C3B18069  44.646  42.605   7.950
 5606POPC   C4B18070  44.674  42.561   7.650
 5607POPC   NC318071  37.635  13.592   9.450
 5607POPC   PO418072  37.721  13.638   9.150
 5607POPC   GL118073  37.715  13.633   8.850
 5607POPC   GL218074  37.726  13.699   8.850
 5607POPC   C1A18075  37.644  13.655   8.550
 5607POPC   D2A18076  37.630  13.665   8.250
 5607POPC   C3A18077  37.638  13.609   7.950
 5607POPC   C4A18078  37.722  13.589   7.650
 5607POPC   C1B18079  37.721  13.856   8.550
 5607POPC   C2B18080  37.747  13.878   8.250
 5607POPC   C3B18081  37.756  13.894   7.950
 5607POPC   C4B18082  37.722  13.899   7.650
 5608POPC   NC318083  21.417   5.885   9.450
 5608POPC   PO418084  21.426   5.854   9.150
 5608POPC   GL118085  21.350   5.863   8.850
 5608POPC   GL218086  21.262   5.942   8.850
 5608POPC   C1A18087  21.383   5.890   8.550
 5608POPC   D2A18088  21.421   5.851   8.250
 5608POPC   C3A18089  21.368   5.915   7.950
 5608POPC   C4A18090  21.394   5.907   7.650
 5608POPC   C1B18091  21.146   6.022   8.550
 5608POPC   C2B18092  21.205   6.026   8.250
 5608POPC   C3B18093  21.144   5.935   7.950
 5608POPC   C4B18094  21.180   5.957   7.650
 5609POPC   NC318095   2.760   9.735   9.450
 5609POPC   PO418096   2.800   9.716   9.150
 5609POPC   GL118097   2.761   9.721   8.850
 5609POPC   GL218098   2.704   9.819   8.850
 5609POPC   C1A18099   2.784   9.737   8.550
 5609POPC   D2A18100   2.808   9.759   8.250
 5609POPC   C3A18101   2.769   9.746   7.950
 5609POPC   C4A18102   2.734   9.701   7.650
 5609POPC   C1B18103   2.682   9.980   8.550
 5609POPC   C2B18104   2.691  10.024   8.250
 5609POPC   C3B18105   2.633   9.940   7.950
 5609POPC   C4B18106   2.692   9.979   7.650
 5610POPC   NC318107  28.390   1.201   9.450
 5610POPC   PO418108  28.387   1.260   9.150
 5610POPC   GL118109  28.323   1.245   8.850
 5610POPC   GL218110  28.361   1.065   8.850
 5610POPC   C1A18111  28.326   1.202   8.550
 5610POPC   D2A18112  28.329   1.252   8.250
 5610POPC   C3A18113  28.383   1.217   7.950
 5610POPC   C4A18114  28.329   1.176   7.650
 5610POPC   C1B18115  28.309   1.012   8.550
 5610POPC   C2B18116  28.244   0.951   8.250
 5610POPC   C3B18117  28.320   0.987   7.950
 5610POPC   C4B18118  28.272   1.017   7.650
 5611POPC   NC318119   2.731  16.751   9.450
 5611POPC   PO418120   2.785  16.687   9.150
 5611POPC   GL118121   2.774  16.694   8.850
 5611POPC   GL218122   2.775  16.582   8.850
 5611POPC   C1A18123   2.767  16.743   8.550
 5611POPC   D2A18124   2.770  16.710   8.250
 5611POPC   C3A18125   2.755  16.737   7.950
 5611POPC   C4A18126   2.772  16.762   7.650
 5611POPC   C1B18127   2.871  16.483   8.550
 5611POPC   C2B18128   2.870  16.471   8.250
 5611POPC   C3B18129   2.873  16.500   7.950
 5611POPC   C4B18130   2.809  16.453   7.650
 5612POPC   NC318131  33.041   4.331   9.450
 5612POPC   PO418132  33.066   4.317   9.150
 5612POPC   GL118133  32.988   4.295   8.850
 5612POPC   GL218134  32.963   4.421   8.850
 5612POPC   C1A18135  32.991   4.279   8.550
 5612POPC   D2A18136  32.985   4.342   8.250
 5612POPC   C3A18137  33.048   4.300   7.950
 5612POPC   C4A18138  33.031   4.272   7.650
 5612POPC   C1B18139  32.908   4.508   8.550
 5612POPC   C2B18140  32.924   4.545   8.250
 5612POPC   C3B18141  32.975   4.518   7.950
 5612POPC   C4B18142  32.970   4.572   7.650
 5613POPC   NC318143  15.906  25.306   9.450
 5613POPC   PO418144  15.941  25.288   9.150
 5613POPC   GL118145  15.975  25.250   8.850
 5613POPC   GL218146  16.001  25.345   8.850
 5613POPC   C1A18147  15.922  25.307   8.550
 5613POPC   D2A18148  15.967  25.257   8.250
 5613POPC   C3A18149  15.924  25.288   7.950
 5613POPC   C4A18150  15.970  25.242   7.650
 5613POPC   C1B18151  16.070  25.416   8.550
 5613POPC   C2B18152  16.077  25.414   8.250
 5613POPC   C3B18153  16.079  25.483   7.950
 5613POPC   C4B18154  16.130  25.476   7.650
 5614POPC   NC318155  14.431  29.179   9.450
 5614POPC   PO418156  14.444  29.187   9.150
 5614POPC   GL118157  14.448  29.153   8.850
 5614POPC   GL218158  14.277  29.065   8.850
 5614POPC   C1A18159  14.378  29.128   8.550
 5614POPC   D2A18160  14.402  29.180   8.250
 5614POPC   C3A18161  14.425  29.111   7.950
 5614POPC   C4A18162  14.357  29.104   7.650
 5614POPC   C1B18163  14.180  28.930   8.550
 5614POPC   C2B18164  14.209  28.949   8.250
 5614POPC   C3B18165  14.253  28.945   7.950
 5614POPC   C4B18166  14.235  28.989   7.650
 5615POPC   NC318167  16.729  43.864   9.450
 5615POPC   PO418168  16.692  43.854   9.150
 5615POPC   GL118169  16.769  43.913   8.850
 5615POPC   GL218170  16.837  43.989   8.850
 5615POPC   C1A18171  16.750  43.870   8.550
 5615POPC   D2A18172  16.781  43.877   8.250
 5615POPC   C3A18173  16.775  43.881   7.950
 5615POPC   C4A18174  16.689  43.838   7.650
 5615POPC   C1B18175  16.911  44.028   8.550
 5615POPC   C2B18176  16.898  44.040   8.250
 5615POPC   C3B18177  16.846  44.090   7.950
 5615POPC   C4B18178  16.865  44.045   7.650
 5616POPC   NC318179  20.633  27.577   9.450
 5616POPC   PO418180  20.630  27.562   9.150
 5616POPC   GL118181  20.603  27.547   8.850
 5616POPC   GL218182  20.467  27.663   8.850
 5616POPC   C1A18183  20.619  27.626   8.550
 5616POPC   D2A18184  20.621  27.570   8.250
 5616POPC   C3A18185  20.624  27.595   7.950
 5616POPC   C4A18186  20.640  27.558   7.650
 5616POPC   C1B18187  20.384  27.610   8.550
 5616POPC   C2B18188  20.349  27.659   8.250
 5616POPC   C3B18189  20.348  27.631   7.950
 5616POPC   C4B18190  20.357  27.675   7.650
 5617POPC   NC318191   8.927  43.095   9.450
 5617POPC   PO418192   8.975  43.150   9.150
 5617POPC   GL118193   8.934  43.126   8.850
 5617POPC   GL218194   9.040  43.065   8.850
 5617POPC   C1A18195   8.970  43.069   8.550
 5617POPC   D2A18196   9.017  43.149   8.250
 5617POPC   C3A18197   8.988  43.097   7.950
 5617POPC   C4A18198   8.975  43.140   7.650
 5617POPC   C1B18199   9.214  43.023   8.550
 5617POPC   C2B18200   9.229  43.028   8.250
 5617POPC   C3B18201   9.239  43.031   7.950
 5617POPC   C4B18202   9.200  42.977   7.650
 5618POPC   NC318203  20.575  44.671   9.450
 5618POPC   PO418204  20.567  44.650   9.150
 5618POPC   GL118205  20.650  44.683   8.850
 5618POPC   GL218206  20.644  44.796   8.850
 5618POPC   C1A18207  20.658  44.663   8.550
 5618POPC   D2A18208  20.656  44.677   8.250
 5618POPC   C3A18209  20.655  44.646   7.950
 5618POPC   C4A18210  20.569  44.666   7.650
 5618POPC   C1B18211  20.795  44.904   8.550
 5618POPC   C2B18212  20.793  44.898   8.250
 5618POPC   C3B18213  20.724  44.852   7.950
 5618POPC   C4B18214  20.719  44.829   7.650
 5619POPC   NC318215   2.777  39.253   9.450
 5619POPC   PO418216   2.775  39.249   9.150
 5619POPC   GL118217   2.808  39.271   8.850
 5619POPC   GL218218   2.692  39.271   8.850
 5619POPC   C1A18219   2.766  39.205   8.550
 5619POPC   D2A18220   2.765  39.273   8.250
 5619POPC   C3A18221   2.805  39.247   7.950
 5619POPC   C4A18222   2.800  39.241   7.650
 5619POPC   C1B18223   2.603  39.365   8.550
 5619POPC   C2B18224   2.610  39.367   8.250
 5619POPC   C3B18225   2.535  39.353   7.950
 5619POPC   C4B18226   2.562  39.371   7.650
 5620POPC   NC318227   2.790  21.395   9.450
 5620POPC   PO418228   2.800  21.406   9.150
 5620POPC   GL118229   2.777  21.423   8.850
 5620POPC   GL218230   2.829  21.288   8.850
 5620POPC   C1A18231   2.807  21.357   8.550
 5620POPC   D2A18232   2.785  21.435   8.250
 5620POPC   C3A18233   2.804  21.349   7.950
 5620POPC   C4A18234   2.795  21.347   7.650
 5620POPC   C1B18235   3.040  21.235   8.550
 5620POPC   C2B18236   2.958  21.313   8.250
 5620POPC   C3B18237   2.971  21.238   7.950
 5620POPC   C4B18238   3.000  21.293   7.650
 5621POPC   NC318239  18.266  33.802   9.450
 5621POPC   PO418240  18.270  33.783   9.150
 5621POPC   GL118241  18.311  33.752   8.850
 5621POPC   GL218242  18.236  33.919   8.850
 5621POPC   C1A18243  18.251  33.785   8.550
 5621POPC   D2A18244  18.318  33.849   8.250
 5621POPC   C3A18245  18.250  33.763   7.950
 5621POPC   C4A18246  18.293  33.835   7.650
 5621POPC   C1B18247  18.161  34.012   8.550
 5621POPC   C2B18248  18.167  33.976   8.250
 5621POPC   C3B18249  18.163  34.043   7.950
 5621POPC   C4B18250  18.139  33.979   7.650
 5622POPC   NC318251  36.130  30.668   9.450
 5622POPC   PO418252  36.112  30.726   9.150
 5622POPC   GL118253  36.103  30.656   8.850
 5622POPC   GL218254  36.029  30.623   8.850
 5622POPC   C1A18255  36.114  30.683   8.550
 5622POPC   D2A18256  36.164  30.656   8.250
 5622POPC   C3A18257  36.109  30.696   7.950
 5622POPC   C4A18258  36.127  30.661   7.650
 5622POPC   C1B18259  35.926  30.501   8.550
 5622POPC   C2B18260  35.980  30.517   8.250
 5622POPC   C3B18261  36.009  30.479   7.950
 5622POPC   C4B18262  35.958  30.481   7.650
 5623POPC   NC318263   1.195  20.571   9.450
 5623POPC   PO418264   1.209  20.640   9.150
 5623POPC   GL118265   1.263  20.652   8.850
 5623POPC   GL218266   1.262  20.661   8.850
 5623POPC   C1A18267   1.254  20.575   8.550
 5623POPC   D2A18268   1.195  20.571   8.250
 5623POPC   C3A18269   1.202  20.580   7.950
 5623POPC   C4A18270   1.242  20.567   7.650
 5623POPC   C1B18271   1.385  20.833   8.550
 5623POPC   C2B18272   1.321  20.795   8.250
 5623POPC   C3B18273   1.416  20.772   7.950
 5623POPC   C4B18274   1.331  20.844   7.650
 5624POPC   NC318275  16.715   6.632   9.450
 5624POPC   PO418276  16.777   6.685   9.150
 5624POPC   GL118277  16.714   6.617   8.850
 5624POPC   GL218278  16.597   6.585   8.850
 5624POPC   C1A18279  16.774   6.606   8.550
 5624POPC   D2A18280  16.756   6.616   8.250
 5624POPC   C3A18281  16.692   6.618   7.950
 5624POPC   C4A18282  16.705   6.644   7.650
 5624POPC   C1B18283  16.536   6.497   8.550
 5624POPC   C2B18284  16.541   6.495   8.250
 5624POPC   C3B18285  16.536   6.500   7.950
 5624POPC   C4B18286  16.545   6.527   7.650
 5625POPC   NC318287   8.220   1.997   9.450
 5625POPC   PO418288   8.226   2.005   9.150
 5625POPC   GL118289   8.241   1.949   8.850
 5625POPC   GL218290   8.066   1.942   8.850
 5625POPC   C1A18291   8.151   1.958   8.550
 5625POPC   D2A18292   8.219   2.023   8.250
 5625POPC   C3A18293   8.202   2.001   7.950
 5625POPC   C4A18294   8.177   1.948   7.650
 5625POPC   C1B18295   7.962   1.838   8.550
 5625POPC   C2B18296   8.017   1.822   8.250
 5625POPC   C3B18297   8.011   1.785   7.950
 5625POPC   C4B18298   8.050   1.842   7.650
 5626POPC   NC318299  30.746  30.683   9.450
 5626POPC   PO418300  30.655  30.722   9.150
 5626POPC   GL118301  30.672  30.680   8.850
 5626POPC   GL218302  30.779  30.772   8.850
 5626POPC   C1A18303  30.687  30.653   8.550
 5626POPC   D2A18304  30.703  30.708   8.250
 5626POPC   C3A18305  30.683  30.672   7.950
 5626POPC   C4A18306  30.724  30.659   7.650
 5626POPC   C1B18307  30.854  30.910   8.550
 5626POPC   C2B18308  30.851  30.898   8.250
 5626POPC   C3B18309  30.872  30.884   7.950
 5626POPC   C4B18310  30.824  30.861   7.650
 5627POPC   NC318311  11.291  12.879   9.450
 5627POPC   PO418312  11.290  12.852   9.150
 5627POPC   GL118313  11.299  12.846   8.850
 5627POPC   GL218314  11.162  12.870   8.850
 5627POPC   C1A18315  11.309  12.888   8.550
 5627POPC   D2A18316  11.316  12.901   8.250
 5627POPC   C3A18317  11.271  12.860   7.950
 5627POPC   C4A18318  11.339  12.837   7.650
 5627POPC   C1B18319  11.062  12.812   8.550
 5627POPC   C2B18320  11.024  12.769   8.250
 5627POPC   C3B18321  11.068  12.804   7.950
 5627POPC   C4B18322  11.084  12.775   7.650
 5628POPC   NC318323   4.320  15.929   9.450
 5628POPC   PO418324   4.346  15.948   9.150
 5628POPC   GL118325   4.295  15.967   8.850
 5628POPC   GL218326   4.155  16.022   8.850
 5628POPC   C1A18327   4.284  15.963   8.550
 5628POPC   D2A18328   4.353  15.970   8.250
 5628POPC   C3A18329   4.322  15.965   7.950
 5628POPC   C4A18330   4.269  15.917   7.650
 5628POPC   C1B18331   4.066  15.996   8.550
 5628POPC   C2B18332   4.075  15.994   8.250
 5628POPC   C3B18333   4.104  16.019   7.950
 5628POPC   C4B18334   4.055  15.994   7.650
 5629POPC   NC318335  17.534  28.328   9.450
 5629POPC   PO418336  17.530  28.400   9.150
 5629POPC   GL118337  17.497  28.368   8.850
 5629POPC   GL218338  17.632  28.288   8.850
 5629POPC   C1A18339  17.541  28.383   8.550
 5629POPC   D2A18340  17.531  28.324   8.250
 5629POPC   C3A18341  17.472  28.409   7.950
 5629POPC   C4A18342  17.485  28.392   7.650
 5629POPC   C1B18343  17.732  28.288   8.550
 5629POPC   C2B18344  17.725  28.246   8.250
 5629POPC   C3B18345  17.696  28.230   7.950
 5629POPC   C4B18346  17.766  28.209   7.650
 5630POPC   NC318347  22.896   7.375   9.450
 5630POPC   PO418348  22.931   7.381   9.150
 5630POPC   GL118349  22.891   7.421   8.850
 5630POPC   GL218350  22.973   7.284   8.850
 5630POPC   C1A18351  22.890   7.470   8.550
 5630POPC   D2A18352  22.977   7.417   8.250
 5630POPC   C3A18353  22.889   7.377   7.950
 5630POPC   C4A18354  22.914   7.457   7.650
 5630POPC   C1B18355  22.903   7.151   8.550
 5630POPC   C2B18356  22.921   7.184   8.250
 5630POPC   C3B18357  22.908   7.203   7.950
 5630POPC   C4B18358  22.913   7.170   7.650
 5631POPC   NC318359  22.966  22.149   9.450
 5631POPC   PO418360  22.898  22.190   9.150
 5631POPC   GL118361  22.987  22.170   8.850
 5631POPC   GL218362  22.989  22.287   8.850
 5631POPC   C1A18363  22.929  22.154   8.550
 5631POPC   D2A18364  22.928  22.193   8.250
 5631POPC   C3A18365  22.969  22.121   7.950
 5631POPC   C4A18366  22.977  22.123   7.650
 5631POPC   C1B18367  23.162  22.314   8.550
 5631POPC   C2B18368  23.160  22.336   8.250
 5631POPC   C3B18369  23.141  22.320   7.950
 5631POPC   C4B18370  23.151  22.307   7.650
 5632POPC   NC318371  19.797   7.407   9.450
 5632POPC   PO418372  19.806   7.381   9.150
 5632POPC   GL118373  19.866   7.382   8.850
 5632POPC   GL218374  19.798   7.544   8.850
 5632POPC   C1A18375  19.859   7.384   8.550
 5632POPC   D2A18376  19.798   7.416   8.250
 5632POPC   C3A18377  19.825   7.460   7.950
 5632POPC   C4A18378  19.789   7.443   7.650
 5632POPC   C1B18379  19.744   7.638   8.550
 5632POPC   C2B18380  19.694   7.649   8.250
 5632POPC   C3B18381  19.742   7.661   7.950
 5632POPC   C4B18382  19.683   7.634   7.650
 5633POPC   NC318383  31.482  24.440   9.450
 5633POPC   PO418384  31.465  24.489   9.150
 5633POPC   GL118385  31.481  24.481   8.850
 5633POPC   GL218386  31.555  24.620   8.850
 5633POPC   C1A18387  31.435  24.452   8.550
 5633POPC   D2A18388  31.462  24.510   8.250
 5633POPC   C3A18389  31.520  24.496   7.950
 5633POPC   C4A18390  31.499  24.473   7.650
 5633POPC   C1B18391  31.646  24.691   8.550
 5633POPC   C2B18392  31.606  24.733   8.250
 5633POPC   C3B18393  31.612  24.700   7.950
 5633POPC   C4B18394  31.631  24.663   7.650
 5634POPC   NC318395  32.265  40.745   9.450
 5634POPC   PO418396  32.256  40.802   9.150
 5634POPC   GL118397  32.276  40.814   8.850
 5634POPC   GL218398  32.355  40.873   8.850
 5634POPC   C1A18399  32.219  40.765   8.550
 5634POPC   D2A18400  32.261  40.749   8.250
 5634POPC   C3A18401  32.252  40.792   7.950
 5634POPC   C4A18402  32.297  40.749   7.650
 5634POPC   C1B18403  32.324  40.964   8.550
 5634POPC   C2B18404  32.365  41.006   8.250
 5634POPC   C3B18405  32.403  40.977   7.950
 5634POPC   C4B18406  32.348  41.024   7.650
 5635POPC   NC318407  34.565  26.020   9.450
 5635POPC   PO418408  34.597  26.075   9.150
 5635POPC   GL118409  34.608  26.033   8.850
 5635POPC   GL218410  34.469  25.920   8.850
 5635POPC   C1A18411  34.538  26.072   8.550
 5635POPC   D2A18412  34.626  25.999   8.250
 5635POPC   C3A18413  34.530  26.057   7.950
 5635POPC   C4A18414  34.617  26.030   7.650
 5635POPC   C1B18415  34.357  25.840   8.550
 5635POPC   C2B18416  34.353  25.820   8.250
 5635POPC   C3B18417  34.412  25.899   7.950
 5635POPC   C4B18418  34.390  25.883   7.650
 5636POPC   NC318419  18.261  36.930   9.450
 5636POPC   PO418420  18.266  36.891   9.150
 5636POPC   GL118421  18.303  36.923   8.850
 5636POPC   GL218422  18.127  36.817   8.850
 5636POPC   C1A18423  18.247  36.909   8.550
 5636POPC   D2A18424  18.263  36.900   8.250
 5636POPC   C3A18425  18.299  36.891   7.950
 5636POPC   C4A18426  18.326  36.929   7.650
 5636POPC   C1B18427  18.079  36.802   8.550
 5636POPC   C2B18428  18.101  36.796   8.250
 5636POPC   C3B18429  18.022  36.775   7.950
 5636POPC   C4B18430  18.086  36.823   7.650
 5637POPC   NC318431  29.158   5.833   9.450
 5637POPC   PO418432  29.152   5.915   9.150
 5637POPC   GL118433  29.170   5.826   8.850
 5637POPC   GL218434  29.287   5.926   8.850
 5637POPC   C1A18435  29.137   5.910   8.550
 5637POPC   D2A18436  29.123   5.903   8.250
 5637POPC   C3A18437  29.120   5.865   7.950
 5637POPC   C4A18438  29.125   5.823   7.650
 5637POPC   C1B18439  29.348   6.080   8.550
 5637POPC   C2B18440  29.376   6.022   8.250
 5637POPC   C3B18441  29.341   6.051   7.950
 5637POPC   C4B18442  29.284   5.987   7.650
 5638POPC   NC318443   0.479   8.165   9.450
 5638POPC   PO418444   0.430   8.161   9.150
 5638POPC   GL118445   0.487   8.210   8.850
 5638POPC   GL218446   0.266   8.174   8.850
 5638POPC   C1A18447   0.486   8.223   8.550
 5638POPC   D2A18448   0.426   8.167   8.250
 5638POPC   C3A18449   0.437   8.239   7.950
 5638POPC   C4A18450   0.451   8.216   7.650
 5638POPC   C1B18451   0.219   8.118   8.550
 5638POPC   C2B18452   0.144   8.143   8.250
 5638POPC   C3B18453   0.215   8.118   7.950
 5638POPC   C4B18454   0.157   8.169   7.650
 5639POPC   NC318455  21.340   7.408   9.450
 5639POPC   PO418456  21.399   7.441   9.150
 5639POPC   GL118457  21.360   7.397   8.850
 5639POPC   GL218458  21.386   7.521   8.850
 5639POPC   C1A18459  21.390   7.427   8.550
 5639POPC   D2A18460  21.431   7.455   8.250
 5639POPC   C3A18461  21.368   7.374   7.950
 5639POPC   C4A18462  21.347   7.424   7.650
 5639POPC   C1B18463  21.283   7.655   8.550
 5639POPC   C2B18464  21.303   7.629   8.250
 5639POPC   C3B18465  21.278   7.643   7.950
 5639POPC   C4B18466  21.290   7.654   7.650
 5640POPC   NC318467  15.189  23.708   9.450
 5640POPC   PO418468  15.212  23.679   9.150
 5640POPC   GL118469  15.204  23.714   8.850
 5640POPC   GL218470  15.258  23.622   8.850
 5640POPC   C1A18471  15.221  23.738   8.550
 5640POPC   D2A18472  15.153  23.743   8.250
 5640POPC   C3A18473  15.229  23.689   7.950
 5640POPC   C4A18474  15.219  23.720   7.650
 5640POPC   C1B18475  15.400  23.587   8.550
 5640POPC   C2B18476  15.383  23.602   8.250
 5640POPC   C3B18477  15.331  23.529   7.950
 5640POPC   C4B18478  15.361  23.585   7.650
 5641POPC   NC318479  37.681  12.055   9.450
 5641POPC   PO418480  37.686  12.126   9.150
 5641POPC   GL118481  37.649  12.109   8.850
 5641POPC   GL218482  37.550  11.950   8.850
 5641POPC   C1A18483  37.690  12.030   8.550
 5641POPC   D2A18484  37.702  12.097   8.250
 5641POPC   C3A18485  37.643  12.100   7.950
 5641POPC   C4A18486  37.676  12.082   7.650
 5641POPC   C1B18487  37.438  11.878   8.550
 5641POPC   C2B18488  37.519  11.874   8.250
 5641POPC   C3B18489  37.484  11.928   7.950
 5641POPC   C4B18490  37.484  11.879   7.650
 5642POPC   NC318491  27.616  12.820   9.450
 5642POPC   PO418492  27.572  12.877   9.150
 5642POPC   GL118493  27.571  12.832   8.850
 5642POPC   GL218494  27.656  12.939   8.850
 5642POPC   C1A18495  27.571  12.806   8.550
 5642POPC   D2A18496  27.636  12.896   8.250
 5642POPC   C3A18497  27.601  12.894   7.950
 5642POPC   C4A18498  27.563  12.890   7.650
 5642POPC   C1B18499  27.682  13.103   8.550
 5642POPC   C2B18500  27.705  13.057   8.250
 5642POPC   C3B18501  27.698  13.064   7.950
 5642POPC   C4B18502  27.721  13.085   7.650
 5643POPC   NC318503  35.303  28.384   9.450
 5643POPC   PO418504  35.348  28.330   9.150
 5643POPC   GL118505  35.340  28.320   8.850
 5643POPC   GL218506  35.193  28.274   8.850
 5643POPC   C1A18507  35.315  28.373   8.550
 5643POPC   D2A18508  35.381  28.389   8.250
 5643POPC   C3A18509  35.310  28.395   7.950
 5643POPC   C4A18510  35.392  28.418   7.650
 5643POPC   C1B18511  35.102  28.297   8.550
 5643POPC   C2B18512  35.151  28.296   8.250
 5643POPC   C3B18513  35.169  28.222   7.950
 5643POPC   C4B18514  35.141  28.218   7.650
 5644POPC   NC318515  31.484  43.871   9.450
 5644POPC   PO418516  31.426  43.842   9.150
 5644POPC   GL118517  31.508  43.861   8.850
 5644POPC   GL218518  31.515  43.974   8.850
 5644POPC   C1A18519  31.522  43.918   8.550
 5644POPC   D2A18520  31.478  43.892   8.250
 5644POPC   C3A18521  31.486  43.869   7.950
 5644POPC   C4A18522  31.478  43.895   7.650
 5644POPC   C1B18523  31.617  44.157   8.550
 5644POPC   C2B18524  31.630  44.128   8.250
 5644POPC   C3B18525  31.560  44.072   7.950
 5644POPC   C4B18526  31.563  44.088   7.650
 5645POPC   NC318527  18.269   1.168   9.450
 5645POPC   PO418528  18.248   1.239   9.150
 5645POPC   GL118529  18.307   1.177   8.850
 5645POPC   GL218530  18.113   1.247   8.850
 5645POPC   C1A18531  18.254   1.234   8.550
 5645POPC   D2A18532  18.287   1.210   8.250
 5645POPC   C3A18533  18.301   1.191   7.950
 5645POPC   C4A18534  18.259   1.220   7.650
 5645POPC   C1B18535  18.003   1.290   8.550
 5645POPC   C2B18536  18.067   1.201   8.250
 5645POPC   C3B18537  17.998   1.203   7.950
 5645POPC   C4B18538  18.040   1.248   7.650
 5646POPC   NC318539  18.268  23.672   9.450
 5646POPC   PO418540  18.301  23.756   9.150
 5646POPC   GL118541  18.325  23.675   8.850
 5646POPC   GL218542  18.179  23.732   8.850
 5646POPC   C1A18543  18.238  23.752   8.550
 5646POPC   D2A18544  18.309  23.669   8.250
 5646POPC   C3A18545  18.307  23.677   7.950
 5646POPC   C4A18546  18.288  23.747   7.650
 5646POPC   C1B18547  18.044  23.648   8.550
 5646POPC   C2B18548  18.045  23.635   8.250
 5646POPC   C3B18549  18.008  23.626   7.950
 5646POPC   C4B18550  17.994  23.690   7.650
 5647POPC   NC318551   0.411   5.097   9.450
 5647POPC   PO418552   0.432   5.043   9.150
 5647POPC   GL118553   0.449   5.049   8.850
 5647POPC   GL218554   0.557   5.144   8.850
 5647POPC   C1A18555   0.436   5.124   8.550
 5647POPC   D2A18556   0.460   5.117   8.250
 5647POPC   C3A18557   0.425   5.107   7.950
 5647POPC   C4A18558   0.393   5.100   7.650
 5647POPC   C1B18559   0.725   5.180   8.550
 5647POPC   C2B18560   0.683   5.175   8.250
 5647POPC   C3B18561   0.638   5.128   7.950
 5647POPC   C4B18562   0.714   5.103   7.650
 5648POPC   NC318563  10.506  18.332   9.450
 5648POPC   PO418564  10.549  18.329   9.150
 5648POPC   GL118565  10.547  18.248   8.850
 5648POPC   GL218566  10.564  18.400   8.850
 5648POPC   C1A18567  10.500  18.306   8.550
 5648POPC   D2A18568  10.519  18.278   8.250
 5648POPC   C3A18569  10.542  18.279   7.950
 5648POPC   C4A18570  10.487  18.326   7.650
 5648POPC   C1B18571  10.689  18.459   8.550
 5648POPC   C2B18572  10.682  18.499   8.250
 5648POPC   C3B18573  10.634  18.535   7.950
 5648POPC   C4B18574  10.681  18.448   7.650
 5649POPC   NC318575  24.472  43.091   9.450
 5649POPC   PO418576  24.532  43.083   9.150
 5649POPC   GL118577  24.450  43.086   8.850
 5649POPC   GL218578  24.621  43.091   8.850
 5649POPC   C1A18579  24.535  43.154   8.550
 5649POPC   D2A18580  24.509  43.104   8.250
 5649POPC   C3A18581  24.482  43.112   7.950
 5649POPC   C4A18582  24.520  43.160   7.650
 5649POPC   C1B18583  24.725  43.109   8.550
 5649POPC   C2B18584  24.704  43.078   8.250
 5649POPC   C3B18585  24.717  43.062   7.950
 5649POPC   C4B18586  24.714  43.158   7.650
 5650POPC   NC318587   9.705  26.083   9.450
 5650POPC   PO418588   9.700  26.035   9.150
 5650POPC   GL118589   9.726  26.047   8.850
 5650POPC   GL218590   9.862  25.954   8.850
 5650POPC   C1A18591   9.794  26.038   8.550
 5650POPC   D2A18592   9.738  26.082   8.250
 5650POPC   C3A18593   9.718  26.082   7.950
 5650POPC   C4A18594   9.715  26.041   7.650
 5650POPC   C1B18595   9.885  25.807   8.550
 5650POPC   C2B18596   9.836  25.802   8.250
 5650POPC   C3B18597   9.864  25.829   7.950
 5650POPC   C4B18598   9.901  25.807   7.650
 5651POPC   NC318599   3.497  24.489   9.450
 5651POPC   PO418600   3.528  24.459   9.150
 5651POPC   GL118601   3.501  24.453   8.850
 5651POPC   GL218602   3.493  24.369   8.850
 5651POPC   C1A18603   3.578  24.521   8.550
 5651POPC   D2A18604   3.575  24.535   8.250
 5651POPC   C3A18605   3.526  24.513   7.950
 5651POPC   C4A18606   3.496  24.442   7.650
 5651POPC   C1B18607   3.413  24.234   8.550
 5651POPC   C2B18608   3.480  24.217   8.250
 5651POPC   C3B18609   3.442  24.214   7.950
 5651POPC   C4B18610   3.426  24.229   7.650
 5652POPC   NC318611   2.007  40.799   9.450
 5652POPC   PO418612   2.007  40.752   9.150
 5652POPC   GL118613   1.969  40.765   8.850
 5652POPC   GL218614   1.881  40.869   8.850
 5652POPC   C1A18615   1.999  40.831   8.550
 5652POPC   D2A18616   2.005  40.765   8.250
 5652POPC   C3A18617   1.952  40.758   7.950
 5652POPC   C4A18618   1.951  40.733   7.650
 5652POPC   C1B18619   1.876  40.967   8.550
 5652POPC   C2B18620   1.855  40.978   8.250
 5652POPC   C3B18621   1.816  40.951   7.950
 5652POPC   C4B18622   1.899  40.992   7.650
 5653POPC   NC318623  18.288  44.629   9.450
 5653POPC   PO418624  18.286  44.701   9.150
 5653POPC   GL118625  18.301  44.630   8.850
 5653POPC   GL218626  18.197  44.652   8.850
 5653POPC   C1A18627  18.327  44.669   8.550
 5653POPC   D2A18628  18.310  44.700   8.250
 5653POPC   C3A18629  18.242  44.638   7.950
 5653POPC   C4A18630  18.322  44.633   7.650
 5653POPC   C1B18631  18.058  44.583   8.550
 5653POPC   C2B18632  18.108  44.557   8.250
 5653POPC   C3B18633  18.038  44.560   7.950
 5653POPC   C4B18634  18.064  44.545   7.650
 5654POPC   NC318635  32.212  12.117   9.450
 5654POPC   PO418636  32.226  12.080   9.150
 5654POPC   GL118637  32.278  12.064   8.850
 5654POPC   GL218638  32.343  11.940   8.850
 5654POPC   C1A18639  32.218  12.091   8.550
 5654POPC   D2A18640  32.270  12.118   8.250
 5654POPC   C3A18641  32.256  12.112   7.950
 5654POPC   C4A18642  32.230  12.124   7.650
 5654POPC   C1B18643  32.349  11.858   8.550
 5654POPC   C2B18644  32.353  11.827   8.250
 5654POPC   C3B18645  32.397  11.881   7.950
 5654POPC   C4B18646  32.411  11.841   7.650
 5655POPC   NC318647  32.978  39.267   9.450
 5655POPC   PO418648  33.006  39.207   9.150
 5655POPC   GL118649  33.026  39.270   8.850
 5655POPC   GL218650  33.133  39.304   8.850
 5655POPC   C1A18651  33.027  39.265   8.550
 5655POPC   D2A18652  33.061  39.237   8.250
 5655POPC   C3A18653  33.069  39.233   7.950
 5655POPC   C4A18654  32.981  39.247   7.650
 5655POPC   C1B18655  33.224  39.371   8.550
 5655POPC   C2B18656  33.190  39.353   8.250
 5655POPC   C3B18657  33.215  39.431   7.950
 5655POPC   C4B18658  33.189  39.417   7.650
 5656POPC   NC318659   1.944  29.187   9.450
 5656POPC   PO418660   2.010  29.177   9.150
 5656POPC   GL118661   2.008  29.148   8.850
 5656POPC   GL218662   2.034  29.202   8.850
 5656POPC   C1A18663   1.940  29.155   8.550
 5656POPC   D2A18664   1.943  29.112   8.250
 5656POPC   C3A18665   1.948  29.150   7.950
 5656POPC   C4A18666   1.955  29.172   7.650
 5656POPC   C1B18667   2.170  29.384   8.550
 5656POPC   C2B18668   2.089  29.345   8.250
 5656POPC   C3B18669   2.184  29.314   7.950
 5656POPC   C4B18670   2.180  29.383   7.650
 5657POPC   NC318671  15.150  40.042   9.450
 5657POPC   PO418672  15.183  39.986   9.150
 5657POPC   GL118673  15.147  40.011   8.850
 5657POPC   GL218674  15.060  40.082   8.850
 5657POPC   C1A18675  15.220  39.985   8.550
 5657POPC   D2A18676  15.227  39.961   8.250
 5657POPC   C3A18677  15.132  39.973   7.950
 5657POPC   C4A18678  15.151  40.035   7.650
 5657POPC   C1B18679  14.974  40.163   8.550
 5657POPC   C2B18680  14.971  40.183   8.250
 5657POPC   C3B18681  14.938  40.132   7.950
 5657POPC   C4B18682  14.942  40.165   7.650
 5658POPC   NC318683  12.855  30.662   9.450
 5658POPC   PO418684  12.878  30.656   9.150
 5658POPC   GL118685  12.875  30.733   8.850
 5658POPC   GL218686  12.710  30.611   8.850
 5658POPC   C1A18687  12.855  30.726   8.550
 5658POPC   D2A18688  12.847  30.671   8.250
 5658POPC   C3A18689  12.865  30.734   7.950
 5658POPC   C4A18690  12.850  30.695   7.650
 5658POPC   C1B18691  12.632  30.566   8.550
 5658POPC   C2B18692  12.657  30.487   8.250
 5658POPC   C3B18693  12.685  30.573   7.950
 5658POPC   C4B18694  12.687  30.530   7.650
 5659POPC   NC318695  17.519   2.805   9.450
 5659POPC   PO418696  17.482   2.808   9.150
 5659POPC   GL118697  17.509   2.743   8.850
 5659POPC   GL218698  17.477   2.908   8.850
 5659POPC   C1A18699  17.507   2.812   8.550
 5659POPC   D2A18700  17.469   2.724   8.250
 5659POPC   C3A18701  17.480   2.747   7.950
 5659POPC   C4A18702  17.491   2.761   7.650
 5659POPC   C1B18703  17.387   3.022   8.550
 5659POPC   C2B18704  17.322   2.953   8.250
 5659POPC   C3B18705  17.357   2.981   7.950
 5659POPC   C4B18706  17.377   2.950   7.650
 5660POPC   NC318707  39.998  13.645   9.450
 5660POPC   PO418708  40.043  13.591   9.150
 5660POPC   GL118709  39.977  13.655   8.850
 5660POPC   GL218710  39.984  13.536   8.850
 5660POPC   C1A18711  39.959  13.642   8.550
 5660POPC   D2A18712  39.967  13.616   8.250
 5660POPC   C3A18713  40.034  13.661   7.950
 5660POPC   C4A18714  40.028  13.673   7.650
 5660POPC   C1B18715  40.055  13.377   8.550
 5660POPC   C2B18716  40.089  13.337   8.250
 5660POPC   C3B18717  40.012  13.344   7.950
 5660POPC   C4B18718  40.074  13.424   7.650
 5661POPC   NC318719  39.186   2.732   9.450
 5661POPC   PO418720  39.221   2.774   9.150
 5661POPC   GL118721  39.253   2.770   8.850
 5661POPC   GL218722  39.212   2.614   8.850
 5661POPC   C1A18723  39.263   2.719   8.550
 5661POPC   D2A18724  39.237   2.786   8.250
 5661POPC   C3A18725  39.220   2.788   7.950
 5661POPC   C4A18726  39.279   2.805   7.650
 5661POPC   C1B18727  39.160   2.560   8.550
 5661POPC   C2B18728  39.110   2.555   8.250
 5661POPC   C3B18729  39.118   2.482   7.950
 5661POPC   C4B18730  39.129   2.506   7.650
 5662POPC   NC318731  19.856  26.035   9.450
 5662POPC   PO418732  19.877  26.016   9.150
 5662POPC   GL118733  19.860  26.091   8.850
 5662POPC   GL218734  19.994  26.022   8.850
 5662POPC   C1A18735  19.842  26.007   8.550
 5662POPC   D2A18736  19.816  26.073   8.250
 5662POPC   C3A18737  19.852  26.076   7.950
 5662POPC   C4A18738  19.869  26.022   7.650
 5662POPC   C1B18739  20.011  25.966   8.550
 5662POPC   C2B18740  20.025  25.931   8.250
 5662POPC   C3B18741  20.054  25.905   7.950
 5662POPC   C4B18742  20.080  25.975   7.650
 5663POPC   NC318743  40.754   2.006   9.450
 5663POPC   PO418744  40.780   2.036   9.150
 5663POPC   GL118745  40.769   2.007   8.850
 5663POPC   GL218746  40.721   1.909   8.850
 5663POPC   C1A18747  40.819   1.996   8.550
 5663POPC   D2A18748  40.776   1.979   8.250
 5663POPC   C3A18749  40.747   2.006   7.950
 5663POPC   C4A18750  40.739   1.966   7.650
 5663POPC   C1B18751  40.670   1.756   8.550
 5663POPC   C2B18752  40.668   1.790   8.250
 5663POPC   C3B18753  40.689   1.775   7.950
 5663POPC   C4B18754  40.692   1.759   7.650
 5664POPC   NC318755   9.008  32.250   9.450
 5664POPC   PO418756   9.016  32.225   9.150
 5664POPC   GL118757   8.998  32.279   8.850
 5664POPC   GL218758   9.051  32.175   8.850
 5664POPC   C1A18759   9.010  32.211   8.550
 5664POPC   D2A18760   8.939  32.274   8.250
 5664POPC   C3A18761   8.966  32.207   7.950
 5664POPC   C4A18762   8.981  32.221   7.650
 5664POPC   C1B18763   9.228  32.122   8.550
 5664POPC   C2B18764   9.213  32.172   8.250
 5664POPC   C3B18765   9.189  32.148   7.950
 5664POPC   C4B18766   9.166  32.204   7.650
 5665POPC   NC318767  12.821  28.353   9.450
 5665POPC   PO418768  12.858  28.391   9.150
 5665POPC   GL118769  12.836  28.406   8.850
 5665POPC   GL218770  12.822  28.531   8.850
 5665POPC   C1A18771  12.886  28.360   8.550
 5665POPC   D2A18772  12.816  28.365   8.250
 5665POPC   C3A18773  12.883  28.347   7.950
 5665POPC   C4A18774  12.891  28.409   7.650
 5665POPC   C1B18775  12.787  28.600   8.550
 5665POPC   C2B18776  12.809  28.617   8.250
 5665POPC   C3B18777  12.713  28.563   7.950
 5665POPC   C4B18778  12.719  28.637   7.650
 5666POPC   NC318779  33.810   7.435   9.450
 5666POPC   PO418780  33.814   7.385   9.150
 5666POPC   GL118781  33.806   7.466   8.850
 5666POPC   GL218782  33.656   7.481   8.850
 5666POPC   C1A18783  33.843   7.427   8.550
 5666POPC   D2A18784  33.799   7.397   8.250
 5666POPC   C3A18785  33.828   7.465   7.950
 5666POPC   C4A18786  33.791   7.379   7.650
 5666POPC   C1B18787  33.529   7.523   8.550
 5666POPC   C2B18788  33.549   7.483   8.250
 5666POPC   C3B18789  33.513   7.470   7.950
 5666POPC   C4B18790  33.575   7.476   7.650
 5667POPC   NC318791  35.302  26.768   9.450
 5667POPC   PO418792  35.345  26.807   9.150
 5667POPC   GL118793  35.358  26.863   8.850
 5667POPC   GL218794  35.509  26.864   8.850
 5667POPC   C1A18795  35.396  26.785   8.550
 5667POPC   D2A18796  35.389  26.781   8.250
 5667POPC   C3A18797  35.327  26.795   7.950
 5667POPC   C4A18798  35.330  26.804   7.650
 5667POPC   C1B18799  35.564  26.882   8.550
 5667POPC   C2B18800  35.645  26.839   8.250
 5667POPC   C3B18801  35.577  26.876   7.950
 5667POPC   C4B18802  35.584  26.904   7.650
 5668POPC   NC318803  31.483  21.366   9.450
 5668POPC   PO418804  31.472  21.337   9.150
 5668POPC   GL118805  31.482  21.377   8.850
 5668POPC   GL218806  31.562  21.417   8.850
 5668POPC   C1A18807  31.473  21.417   8.550
 5668POPC   D2A18808  31.512  21.435   8.250
 5668POPC   C3A18809  31.513  21.410   7.950
 5668POPC   C4A18810  31.507  21.390   7.650
 5668POPC   C1B18811  31.747  21.362   8.550
 5668POPC   C2B18812  31.765  21.379   8.250
 5668POPC   C3B18813  31.707  21.412   7.950
 5668POPC   C4B18814  31.714  21.370   7.650
 5669POPC   NC318815  18.291  35.338   9.450
 5669POPC   PO418816  18.266  35.342   9.150
 5669POPC   GL118817  18.240  35.306   8.850
 5669POPC   GL218818  18.442  35.266   8.850
 5669POPC   C1A18819  18.304  35.330   8.550
 5669POPC   D2A18820  18.306  35.311   8.250
 5669POPC   C3A18821  18.277  35.389   7.950
 5669POPC   C4A18822  18.310  35.357   7.650
 5669POPC   C1B18823  18.493  35.258   8.550
 5669POPC   C2B18824  18.487  35.280   8.250
 5669POPC   C3B18825  18.470  35.224   7.950
 5669POPC   C4B18826  18.508  35.247   7.650
 5670POPC   NC318827  12.080  37.721   9.450
 5670POPC   PO418828  12.069  37.691   9.150
 5670POPC   GL118829  12.092  37.661   8.850
 5670POPC   GL218830  12.196  37.714   8.850
 5670POPC   C1A18831  12.061  37.654   8.550
 5670POPC   D2A18832  12.091  37.685   8.250
 5670POPC   C3A18833  12.034  37.636   7.950
 5670POPC   C4A18834  12.109  37.688   7.650
 5670POPC   C1B18835  12.320  37.835   8.550
 5670POPC   C2B18836  12.266  37.829   8.250
 5670POPC   C3B18837  12.268  37.828   7.950
 5670POPC   C4B18838  12.249  37.822   7.650
 5671POPC   NC318839  44.621  16.738   9.450
 5671POPC   PO418840  44.699  16.758   9.150
 5671POPC   GL118841  44.702  16.774   8.850
 5671POPC   GL218842  44.676  16.632   8.850
 5671POPC   C1A18843  44.688  16.706   8.550
 5671POPC   D2A18844  44.692  16.753   8.250
 5671POPC   C3A18845  44.648  16.681   7.950
 5671POPC   C4A18846  44.671  16.745   7.650
 5671POPC   C1B18847  44.681  16.444   8.550
 5671POPC   C2B18848  44.669  16.516   8.250
 5671POPC   C3B18849  44.714  16.527   7.950
 5671POPC   C4B18850  44.741  16.509   7.650
 5672POPC   NC318851   2.773   8.968   9.450
 5672POPC   PO418852   2.805   9.008   9.150
 5672POPC   GL118853   2.736   8.979   8.850
 5672POPC   GL218854   2.929   8.948   8.850
 5672POPC   C1A18855   2.803   8.996   8.550
 5672POPC   D2A18856   2.725   9.006   8.250
 5672POPC   C3A18857   2.718   8.933   7.950
 5672POPC   C4A18858   2.783   9.013   7.650
 5672POPC   C1B18859   3.060   9.021   8.550
 5672POPC   C2B18860   3.042   9.037   8.250
 5672POPC   C3B18861   2.978   9.050   7.950
 5672POPC   C4B18862   2.997   8.980   7.650
 5673POPC   NC318863  18.276  22.186   9.450
 5673POPC   PO418864  18.323  22.178   9.150
 5673POPC   GL118865  18.268  22.149   8.850
 5673POPC   GL218866  18.319  22.091   8.850
 5673POPC   C1A18867  18.271  22.129   8.550
 5673POPC   D2A18868  18.272  22.145   8.250
 5673POPC   C3A18869  18.273  22.186   7.950
 5673POPC   C4A18870  18.282  22.163   7.650
 5673POPC   C1B18871  18.497  21.939   8.550
 5673POPC   C2B18872  18.476  21.928   8.250
 5673POPC   C3B18873  18.416  21.936   7.950
 5673POPC   C4B18874  18.431  21.986   7.650
 5674POPC   NC318875  11.293   9.003   9.450
 5674POPC   PO418876  11.343   8.965   9.150
 5674POPC   GL118877  11.327   9.003   8.850
 5674POPC   GL218878  11.233   9.075   8.850
 5674POPC   C1A18879  11.349   8.929   8.550
 5674POPC   D2A18880  11.314   8.927   8.250
 5674POPC   C3A18881  11.296   8.936   7.950
 5674POPC   C4A18882  11.297   8.949   7.650
 5674POPC   C1B18883  11.197   9.186   8.550
 5674POPC   C2B18884  11.244   9.201   8.250
 5674POPC   C3B18885  11.171   9.159   7.950
 5674POPC   C4B18886  11.252   9.220   7.650
 5675POPC   NC318887  22.206  44.707   9.450
 5675POPC   PO418888  22.142  44.620   9.150
 5675POPC   GL118889  22.194  44.660   8.850
 5675POPC   GL218890  22.167  44.828   8.850
 5675POPC   C1A18891  22.118  44.619   8.550
 5675POPC   D2A18892  22.147  44.619   8.250
 5675POPC   C3A18893  22.132  44.681   7.950
 5675POPC   C4A18894  22.135  44.676   7.650
 5675POPC   C1B18895  22.140  44.929   8.550
 5675POPC   C2B18896  22.127  44.864   8.250
 5675POPC   C3B18897  22.132  44.933   7.950
 5675POPC   C4B18898  22.077  44.898   7.650
 5676POPC   NC318899  27.558   4.322   9.450
 5676POPC   PO418900  27.586   4.333   9.150
 5676POPC   GL118901  27.592   4.301   8.850
 5676POPC   GL218902  27.665   4.197   8.850
 5676POPC   C1A18903  27.611   4.299   8.550
 5676POPC   D2A18904  27.557   4.340   8.250
 5676POPC   C3A18905  27.556   4.321   7.950
 5676POPC   C4A18906  27.579   4.299   7.650
 5676POPC   C1B18907  27.789   4.114   8.550
 5676POPC   C2B18908  27.744   4.172   8.250
 5676POPC   C3B18909  27.751   4.170   7.950
 5676POPC   C4B18910  27.735   4.138   7.650
 5677POPC   NC318911  15.221  25.289   9.450
 5677POPC   PO418912  15.206  25.216   9.150
 5677POPC   GL118913  15.177  25.295   8.850
 5677POPC   GL218914  15.122  25.204   8.850
 5677POPC   C1A18915  15.166  25.221   8.550
 5677POPC   D2A18916  15.169  25.296   8.250
 5677POPC   C3A18917  15.179  25.302   7.950
 5677POPC   C4A18918  15.173  25.226   7.650
 5677POPC   C1B18919  14.985  25.081   8.550
 5677POPC   C2B18920  14.966  25.113   8.250
 5677POPC   C3B18921  14.976  25.082   7.950
 5677POPC   C4B18922  15.003  25.125   7.650
 5678POPC   NC318923  39.968  15.181   9.450
 5678POPC   PO418924  40.018  15.156   9.150
 5678POPC   GL118925  40.041  15.187   8.850
 5678POPC   GL218926  40.086  15.072   8.850
 5678POPC   C1A18927  39.960  15.223   8.550
 5678POPC   D2A18928  39.992  15.171   8.250
 5678POPC   C3A18929  40.040  15.193   7.950
 5678POPC   C4A18930  39.996  15.227   7.650
 5678POPC   C1B18931  40.186  15.092   8.550
 5678POPC   C2B18932  40.243  15.035   8.250
 5678POPC   C3B18933  40.255  15.059   7.950
 5678POPC   C4B18934  40.265  15.068   7.650
 5679POPC   NC318935  27.578  21.349   9.450
 5679POPC   PO418936  27.610  21.360   9.150
 5679POPC   GL118937  27.632  21.358   8.850
 5679POPC   GL218938  27.436  21.357   8.850
 5679POPC   C1A18939  27.619  21.375   8.550
 5679POPC   D2A18940  27.625  21.342   8.250
 5679POPC   C3A18941  27.552  21.369   7.950
 5679POPC   C4A18942  27.633  21.345   7.650
 5679POPC   C1B18943  27.356  21.413   8.550
 5679POPC   C2B18944  27.371  21.396   8.250
 5679POPC   C3B18945  27.327  21.333   7.950
 5679POPC   C4B18946  27.314  21.385   7.650
 5680POPC   NC318947  22.980  25.226   9.450
 5680POPC   PO418948  22.956  25.242   9.150
 5680POPC   GL118949  22.914  25.279   8.850
 5680POPC   GL218950  22.778  25.255   8.850
 5680POPC   C1A18951  22.944  25.224   8.550
 5680POPC   D2A18952  22.986  25.298   8.250
 5680POPC   C3A18953  22.898  25.237   7.950
 5680POPC   C4A18954  22.924  25.221   7.650
 5680POPC   C1B18955  22.728  25.290   8.550
 5680POPC   C2B18956  22.680  25.266   8.250
 5680POPC   C3B18957  22.735  25.250   7.950
 5680POPC   C4B18958  22.716  25.234   7.650
 5681POPC   NC318959  44.653  27.623   9.450
 5681POPC   PO418960  44.650  27.594   9.150
 5681POPC   GL118961  44.671  27.569   8.850
 5681POPC   GL218962  44.799  27.685   8.850
 5681POPC   C1A18963  44.621  27.563   8.550
 5681POPC   D2A18964  44.655  27.588   8.250
 5681POPC   C3A18965  44.626  27.623   7.950
 5681POPC   C4A18966  44.685  27.568   7.650
 5681POPC   C1B18967  44.850  27.770   8.550
 5681POPC   C2B18968  44.874  27.725   8.250
 5681POPC   C3B18969  44.821  27.758   7.950
 5681POPC   C4B18970  44.909  27.748   7.650
 5682POPC   NC318971  35.378  30.731   9.450
 5682POPC   PO418972  35.303  30.717   9.150
 5682POPC   GL118973  35.358  30.712   8.850
 5682POPC   GL218974  35.243  30.673   8.850
 5682POPC   C1A18975  35.315  30.695   8.550
 5682POPC   D2A18976  35.333  30.711   8.250
 5682POPC   C3A18977  35.302  30.663   7.950
 5682POPC   C4A18978  35.373  30.726   7.650
 5682POPC   C1B18979  35.123  30.696   8.550
 5682POPC   C2B18980  35.081  30.639   8.250
 5682POPC   C3B18981  35.074  30.672   7.950
 5682POPC   C4B18982  35.060  30.645   7.650
 5683POPC   NC318983  17.530  36.903   9.450
 5683POPC   PO418984  17.554  36.923   9.150
 5683POPC   GL118985  17.489  36.933   8.850
 5683POPC   GL218986  17.417  36.900   8.850
 5683POPC   C1A18987  17.539  36.897   8.550
 5683POPC   D2A18988  17.486  36.862   8.250
 5683POPC   C3A18989  17.526  36.947   7.950
 5683POPC   C4A18990  17.486  36.872   7.650
 5683POPC   C1B18991  17.289  36.822   8.550
 5683POPC   C2B18992  17.308  36.835   8.250
 5683POPC   C3B18993  17.220  36.892   7.950
 5683POPC   C4B18994  17.258  36.835   7.650
 5684POPC   NC318995  35.391  10.508   9.450
 5684POPC   PO418996  35.367  10.565   9.150
 5684POPC   GL118997  35.394  10.531   8.850
 5684POPC   GL218998  35.317  10.665   8.850
 5684POPC   C1A18999  35.391  10.520   8.550
 5684POPC   D2A19000  35.358  10.506   8.250
 5684POPC   C3A19001  35.368  10.562   7.950
 5684POPC   C4A19002  35.371  10.574   7.650
 5684POPC   C1B19003  35.219  10.771   8.550
 5684POPC   C2B19004  35.224  10.730   8.250
 5684POPC   C3B19005  35.195  10.751   7.950
 5684POPC   C4B19006  35.245  10.768   7.650
 5685POPC   NC319007  15.986   1.202   9.450
 5685POPC   PO419008  15.919   1.178   9.150
 5685POPC   GL119009  15.954   1.176   8.850
 5685POPC   GL219010  15.789   1.240   8.850
 5685POPC   C1A19011  16.001   1.226   8.550
 5685POPC   D2A19012  15.965   1.197   8.250
 5685POPC   C3A19013  15.936   1.176   7.950
 5685POPC   C4A19014  15.984   1.201   7.650
 5685POPC   C1B19015  15.719   1.194   8.550
 5685POPC   C2B19016  15.722   1.162   8.250
 5685POPC   C3B19017  15.682   1.142   7.950
 5685POPC   C4B19018  15.712   1.136   7.650
 5686POPC   NC319019  18.251  32.263   9.450
 5686POPC   PO419020  18.319  32.238   9.150
 5686POPC   GL119021  18.234  32.206   8.850
 5686POPC   GL219022  18.308  32.334   8.850
 5686POPC   C1A19023  18.247  32.282   8.550
 5686POPC   D2A19024  18.297  32.233   8.250
 5686POPC   C3A19025  18.237  32.272   7.950
 5686POPC   C4A19026  18.281  32.275   7.650
 5686POPC   C1B19027  18.362  32.508   8.550
 5686POPC   C2B19028  18.368  32.508   8.250
 5686POPC   C3B19029  18.408  32.499   7.950
 5686POPC   C4B19030  18.349  32.452   7.650
 5687POPC   NC319031   2.746   6.674   9.450
 5687POPC   PO419032   2.733   6.614   9.150
 5687POPC   GL119033   2.790   6.645   8.850
 5687POPC   GL219034   2.832   6.725   8.850
 5687POPC   C1A19035   2.779   6.640   8.550
 5687POPC   D2A19036   2.775   6.628   8.250
 5687POPC   C3A19037   2.728   6.673   7.950
 5687POPC   C4A19038   2.773   6.631   7.650
 5687POPC   C1B19039   2.910   6.809   8.550
 5687POPC   C2B19040   3.004   6.795   8.250
 5687POPC   C3B19041   2.944   6.848   7.950
 5687POPC   C4B19042   2.923   6.792   7.650
 5688POPC   NC319043  10.484   2.779   9.450
 5688POPC   PO419044  10.541   2.768   9.150
 5688POPC   GL119045  10.491   2.771   8.850
 5688POPC   GL219046  10.652   2.719   8.850
 5688POPC   C1A19047  10.560   2.747   8.550
 5688POPC   D2A19048  10.536   2.779   8.250
 5688POPC   C3A19049  10.563   2.812   7.950
 5688POPC   C4A19050  10.525   2.813   7.650
 5688POPC   C1B19051  10.728   2.669   8.550
 5688POPC   C2B19052  10.754   2.683   8.250
 5688POPC   C3B19053  10.718   2.722   7.950
 5688POPC   C4B19054  10.718   2.723   7.650
 5689POPC   NC319055  20.649  26.008   9.450
 5689POPC   PO419056  20.612  26.003   9.150
 5689POPC   GL119057  20.603  26.042   8.850
 5689POPC   GL219058  20.650  25.945   8.850
 5689POPC   C1A19059  20.617  26.041   8.550
 5689POPC   D2A19060  20.644  26.086   8.250
 5689POPC   C3A19061  20.582  26.071   7.950
 5689POPC   C4A19062  20.608  26.013   7.650
 5689POPC   C1B19063  20.580  25.808   8.550
 5689POPC   C2B19064  20.621  25.838   8.250
 5689POPC   C3B19065  20.580  25.836   7.950
 5689POPC   C4B19066  20.622  25.829   7.650
 5690POPC   NC319067  17.493   1.251   9.450
 5690POPC   PO419068  17.466   1.221   9.150
 5690POPC   GL119069  17.549   1.223   8.850
 5690POPC   GL219070  17.588   1.162   8.850
 5690POPC   C1A19071  17.511   1.214   8.550
 5690POPC   D2A19072  17.467   1.257   8.250
 5690POPC   C3A19073  17.520   1.211   7.950
 5690POPC   C4A19074  17.484   1.224   7.650
 5690POPC   C1B19075  17.723   1.073   8.550
 5690POPC   C2B19076  17.663   1.076   8.250
 5690POPC   C3B19077  17.746   1.088   7.950
 5690POPC   C4B19078  17.682   1.031   7.650
 5691POPC   NC319079  18.281  26.025   9.450
 5691POPC   PO419080  18.253  26.090   9.150
 5691POPC   GL119081  18.274  26.044   8.850
 5691POPC   GL219082  18.321  25.902   8.850
 5691POPC   C1A19083  18.257  26.022   8.550
 5691POPC   D2A19084  18.265  26.004   8.250
 5691POPC   C3A19085  18.250  26.059   7.950
 5691POPC   C4A19086  18.244  26.086   7.650
 5691POPC   C1B19087  18.329  25.793   8.550
 5691POPC   C2B19088  18.278  25.748   8.250
 5691POPC   C3B19089  18.316  25.767   7.950
 5691POPC   C4B19090  18.253  25.746   7.650
 5692POPC   NC319091   0.429  22.126   9.450
 5692POPC   PO419092   0.461  22.131   9.150
 5692POPC   GL119093   0.389  22.152   8.850
 5692POPC   GL219094   0.549  22.266   8.850
 5692POPC   C1A19095   0.471  22.164   8.550
 5692POPC   D2A19096   0.407  22.170   8.250
 5692POPC   C3A19097   0.474  22.152   7.950
 5692POPC   C4A19098   0.419  22.114   7.650
 5692POPC   C1B19099   0.611  22.385   8.550
 5692POPC   C2B19100   0.577  22.377   8.250
 5692POPC   C3B19101   0.532  22.409   7.950
 5692POPC   C4B19102   0.564  22.415   7.650
 5693POPC   NC319103   2.747  26.005   9.450
 5693POPC   PO419104   2.776  26.012   9.150
 5693POPC   GL119105   2.775  26.066   8.850
 5693POPC   GL219106   2.637  26.013   8.850
 5693POPC   C1A19107   2.739  26.035   8.550
 5693POPC   D2A19108   2.759  26.042   8.250
 5693POPC   C3A19109   2.796  26.056   7.950
 5693POPC   C4A19110   2.797  26.007   7.650
 5693POPC   C1B19111   2.545  26.034   8.550
 5693POPC   C2B19112   2.526  26.014   8.250
 5693POPC   C3B19113   2.499  25.993   7.950
 5693POPC   C4B19114   2.526  26.011   7.650
 5694POPC   NC319115   4.340  19.787   9.450
 5694POPC   PO419116   4.350  19.823   9.150
 5694POPC   GL119117   4.338  19.840   8.850
 5694POPC   GL219118   4.306  19.705   8.850
 5694POPC   C1A19119   4.347  19.878   8.550
 5694POPC   D2A19120   4.307  19.827   8.250
 5694POPC   C3A19121   4.294  19.875   7.950
 5694POPC   C4A19122   4.353  19.801   7.650
 5694POPC   C1B19123   4.263  19.550   8.550
 5694POPC   C2B19124   4.252  19.568   8.250
 5694POPC   C3B19125   4.290  19.609   7.950
 5694POPC   C4B19126   4.202  19.636   7.650
 5695POPC   NC319127  36.952  20.624   9.450
 5695POPC   PO419128  36.948  20.563   9.150
 5695POPC   GL119129  36.875  20.651   8.850
 5695POPC   GL219130  36.995  20.648   8.850
 5695POPC   C1A19131  36.859  20.612   8.550
 5695POPC   D2A19132  36.945  20.603   8.250
 5695POPC   C3A19133  36.856  20.574   7.950
 5695POPC   C4A19134  36.893  20.608   7.650
 5695POPC   C1B19135  37.179  20.639   8.550
 5695POPC   C2B19136  37.127  20.617   8.250
 5695POPC   C3B19137  37.167  20.686   7.950
 5695POPC   C4B19138  37.108  20.650   7.650
 5696POPC   NC319139  27.570  17.503   9.450
 5696POPC   PO419140  27.570  17.552   9.150
 5696POPC   GL119141  27.550  17.541   8.850
 5696POPC   GL219142  27.681  17.487   8.850
 5696POPC   C1A19143  27.581  17.524   8.550
 5696POPC   D2A19144  27.574  17.539   8.250
 5696POPC   C3A19145  27.588  17.525   7.950
 5696POPC   C4A19146  27.583  17.542   7.650
 5696POPC   C1B19147  27.852  17.407   8.550
 5696POPC   C2B19148  27.794  17.390   8.250
 5696POPC   C3B19149  27.816  17.412   7.950
 5696POPC   C4B19150  27.807  17.401   7.650
 5697POPC   NC319151   1.208  33.016   9.450
 5697POPC   PO419152   1.200  33.055   9.150
 5697POPC   GL119153   1.235  33.007   8.850
 5697POPC   GL219154   1.259  32.952   8.850
 5697POPC   C1A19155   1.238  33.050   8.550
 5697POPC   D2A19156   1.171  32.977   8.250
 5697POPC   C3A19157   1.251  33.074   7.950
 5697POPC   C4A19158   1.228  33.065   7.650
 5697POPC   C1B19159   1.286  32.821   8.550
 5697POPC   C2B19160   1.243  32.757   8.250
 5697POPC   C3B19161   1.310  32.771   7.950
 5697POPC   C4B19162   1.269  32.826   7.650
 5698POPC   NC319163  38.421   7.414   9.450
 5698POPC   PO419164  38.470   7.386   9.150
 5698POPC   GL119165  38.452   7.432   8.850
 5698POPC   GL219166  38.378   7.277   8.850
 5698POPC   C1A19167  38.451   7.468   8.550
 5698POPC   D2A19168  38.459   7.441   8.250
 5698POPC   C3A19169  38.488   7.419   7.950
 5698POPC   C4A19170  38.410   7.435   7.650
 5698POPC   C1B19171  38.331   7.213   8.550
 5698POPC   C2B19172  38.274   7.242   8.250
 5698POPC   C3B19173  38.296   7.209   7.950
 5698POPC   C4B19174  38.286   7.217   7.650
 5699POPC   NC319175  25.296  36.889   9.450
 5699POPC   PO419176  25.267  36.953   9.150
 5699POPC   GL119177  25.294  36.914   8.850
 5699POPC   GL219178  25.325  36.806   8.850
 5699POPC   C1A19179  25.313  36.875   8.550
 5699POPC   D2A19180  25.257  36.882   8.250
 5699POPC   C3A19181  25.280  36.908   7.950
 5699POPC   C4A19182  25.263  36.906   7.650
 5699POPC   C1B19183  25.429  36.720   8.550
 5699POPC   C2B19184  25.425  36.705   8.250
 5699POPC   C3B19185  25.461  36.709   7.950
 5699POPC   C4B19186  25.471  36.748   7.650
 5700POPC   NC319187  15.204  43.926   9.450
 5700POPC   PO419188  15.157  43.883   9.150
 5700POPC   GL119189  15.223  43.883   8.850
 5700POPC   GL219190  15.176  43.757   8.850
 5700POPC   C1A19191  15.198  43.918   8.550
 5700POPC   D2A19192  15.184  43.909   8.250
 5700POPC   C3A19193  15.202  43.886   7.950
 5700POPC   C4A19194  15.227  43.884   7.650
 5700POPC   C1B19195  15.124  43.596   8.550
 5700POPC   C2B19196  15.162  43.662   8.250
 5700POPC   C3B19197  15.157  43.656   7.950
 5700POPC   C4B19198  15.141  43.667   7.650
 5701POPC   NC319199  15.924  26.807   9.450
 5701POPC   PO419200  15.916  26.793   9.150
 5701POPC   GL119201  15.930  26.810   8.850
 5701POPC   GL219202  15.876  26.821   8.850
 5701POPC   C1A19203  15.982  26.807   8.550
 5701POPC   D2A19204  15.986  26.788   8.250
 5701POPC   C3A19205  15.930  26.845   7.950
 5701POPC   C4A19206  15.979  26.772   7.650
 5701POPC   C1B19207  15.692  26.717   8.550
 5701POPC   C2B19208  15.733  26.731   8.250
 5701POPC   C3B19209  15.680  26.803   7.950
 5701POPC   C4B19210  15.678  26.764   7.650
 5702POPC   NC319211   4.333   5.135   9.450
 5702POPC   PO419212   4.363   5.129   9.150
 5702POPC   GL119213   4.292   5.080   8.850
 5702POPC   GL219214   4.397   5.193   8.850
 5702POPC   C1A19215   4.273   5.050   8.550
 5702POPC   D2A19216   4.296   5.072   8.250
 5702POPC   C3A19217   4.365   5.055   7.950
 5702POPC   C4A19218   4.352   5.126   7.650
 5702POPC   C1B19219   4.386   5.361   8.550
 5702POPC   C2B19220   4.450   5.285   8.250
 5702POPC   C3B19221   4.370   5.286   7.950
 5702POPC   C4B19222   4.448   5.307   7.650
 5703POPC   NC319223  36.176  22.916   9.450
 5703POPC   PO419224  36.177  22.924   9.150
 5703POPC   GL119225  36.146  22.968   8.850
 5703POPC   GL219226  36.156  23.067   8.850
 5703POPC   C1A19227  36.160  22.917   8.550
 5703POPC   D2A19228  36.177  22.930   8.250
 5703POPC   C3A19229  36.155  22.922   7.950
 5703POPC   C4A19230  36.152  22.943   7.650
 5703POPC   C1B19231  36.200  23.147   8.550
 5703POPC   C2B19232  36.229  23.175   8.250
 5703POPC   C3B19233  36.247  23.127   7.950
 5703POPC   C4B19234  36.261  23.190   7.650
 5704POPC   NC319235  35.395   8.162   9.450
 5704POPC   PO419236  35.354   8.193   9.150
 5704POPC   GL119237  35.316   8.228   8.850
 5704POPC   GL219238  35.258   8.293   8.850
 5704POPC   C1A19239  35.389   8.216   8.550
 5704POPC   D2A19240  35.371   8.198   8.250
 5704POPC   C3A19241  35.326   8.177   7.950
 5704POPC   C4A19242  35.336   8.186   7.650
 5704POPC   C1B19243  35.227   8.442   8.550
 5704POPC   C2B19244  35.222   8.373   8.250
 5704POPC   C3B19245  35.272   8.460   7.950
 5704POPC   C4B19246  35.228   8.403   7.650
 5705POPC   NC319247   1.207  39.209   9.450
 5705POPC   PO419248   1.170  39.199   9.150
 5705POPC   GL119249   1.249  39.222   8.850
 5705POPC   GL219250   1.237  39.325   8.850
 5705POPC   C1A19251   1.262  39.271   8.550
 5705POPC   D2A19252   1.237  39.236   8.250
 5705POPC   C3A19253   1.190  39.276   7.950
 5705POPC   C4A19254   1.170  39.198   7.650
 5705POPC   C1B19255   1.137  39.481   8.550
 5705POPC   C2B19256   1.173  39.458   8.250
 5705POPC   C3B19257   1.133  39.490   7.950
 5705POPC   C4B19258   1.163  39.450   7.650
 5706POPC   NC319259  29.966  19.047   9.450
 5706POPC   PO419260  29.888  19.024   9.150
 5706POPC   GL119261  29.910  19.077   8.850
 5706POPC   GL219262  29.975  19.152   8.850
 5706POPC   C1A19263  29.959  19.106   8.550
 5706POPC   D2A19264  29.880  19.042   8.250
 5706POPC   C3A19265  29.940  19.030   7.950
 5706POPC   C4A19266  29.897  19.107   7.650
 5706POPC   C1B19267  30.104  19.201   8.550
 5706POPC   C2B19268  30.135  19.161   8.250
 5706POPC   C3B19269  30.140  19.190   7.950
 5706POPC   C4B19270  30.089  19.246   7.650
 5707POPC   NC319271  33.009  26.811   9.450
 5707POPC   PO419272  33.038  26.858   9.150
 5707POPC   GL119273  33.059  26.850   8.850
 5707POPC   GL219274  33.144  26.743   8.850
 5707POPC   C1A19275  33.068  26.812   8.550
 5707POPC   D2A19276  33.065  26.788   8.250
 5707POPC   C3A19277  33.034  26.826   7.950
 5707POPC   C4A19278  33.050  26.833   7.650
 5707POPC   C1B19279  33.252  26.743   8.550
 5707POPC   C2B19280  33.222  26.685   8.250
 5707POPC   C3B19281  33.268  26.721   7.950
 5707POPC   C4B19282  33.210  26.708   7.650
 5708POPC   NC319283  39.276   1.976   9.450
 5708POPC   PO419284  39.253   2.033   9.150
 5708POPC   GL119285  39.214   1.993   8.850
 5708POPC   GL219286  39.395   1.973   8.850
 5708POPC   C1A19287  39.181   1.972   8.550
 5708POPC   D2A19288  39.184   1.984   8.250
 5708POPC   C3A19289  39.249   1.952   7.950
 5708POPC   C4A19290  39.260   2.009   7.650
 5708POPC   C1B19291  39.445   2.046   8.550
 5708POPC   C2B19292  39.513   2.022   8.250
 5708POPC   C3B19293  39.467   2.011   7.950
 5708POPC   C4B19294  39.488   2.018   7.650
 5709POPC   NC319295  15.193  19.875   9.450
 5709POPC   PO419296  15.137  19.818   9.150
 5709POPC   GL119297  15.153  19.790   8.850
 5709POPC   GL219298  15.310  19.936   8.850
 5709POPC   C1A19299  15.146  19.877   8.550
 5709POPC   D2A19300  15.188  19.868   8.250
 5709POPC   C3A19301  15.205  19.868   7.950
 5709POPC   C4A19302  15.227  19.849   7.650
 5709POPC   C1B19303  15.419  19.958   8.550
 5709POPC   C2B19304  15.353  19.940   8.250
 5709POPC   C3B19305  15.391  19.966   7.950
 5709POPC   C4B19306  15.429  19.993   7.650
 5710POPC   NC319307  36.894  12.062   9.450
 5710POPC   PO419308  36.910  12.093   9.150
 5710POPC   GL119309  36.882  12.067   8.850
 5710POPC   GL219310  37.009  12.025   8.850
 5710POPC   C1A19311  36.941  12.093   8.550
 5710POPC   D2A19312  36.943  12.083   8.250
 5710POPC   C3A19313  36.902  12.111   7.950
 5710POPC   C4A19314  36.884  12.102   7.650
 5710POPC   C1B19315  37.157  11.917   8.550
 5710POPC   C2B19316  37.105  12.004   8.250
 5710POPC   C3B19317  37.131  11.995   7.950
 5710POPC   C4B19318  37.122  11.916   7.650
 5711POPC   NC319319  21.403  19.100   9.450
 5711POPC   PO419320  21.337  19.041   9.150
 5711POPC   GL119321  21.350  19.048   8.850
 5711POPC   GL219322  21.276  19.037   8.850
 5711POPC   C1A19323  21.360  19.099   8.550
 5711POPC   D2A19324  21.410  19.041   8.250
 5711POPC   C3A19325  21.419  19.059   7.950
 5711POPC   C4A19326  21.414  19.072   7.650
 5711POPC   C1B19327  21.182  18.894   8.550
 5711POPC   C2B19328  21.136  18.914   8.250
 5711POPC   C3B19329  21.141  18.962   7.950
 5711POPC   C4B19330  21.190  18.903   7.650
 5712POPC   NC319331   6.604   5.842   9.450
 5712POPC   PO419332   6.661   5.830   9.150
 5712POPC   GL119333   6.601   5.847   8.850
 5712POPC   GL219334   6.679   6.006   8.850
 5712POPC   C1A19335   6.693   5.899   8.550
 5712POPC   D2A19336   6.603   5.854   8.250
 5712POPC   C3A19337   6.695   5.882   7.950
 5712POPC   C4A19338   6.604   5.845   7.650
 5712POPC   C1B19339   6.646   6.103   8.550
 5712POPC   C2B19340   6.638   6.142   8.250
 5712POPC   C3B19341   6.616   6.136   7.950
 5712POPC   C4B19342   6.629   6.096   7.650
 5713POPC   NC319343  12.123  12.099   9.450
 5713POPC   PO419344  12.062  12.086   9.150
 5713POPC   GL119345  12.040  12.087   8.850
 5713POPC   GL219346  11.978  12.129   8.850
 5713POPC   C1A19347  12.107  12.087   8.550
 5713POPC   D2A19348  12.073  12.087   8.250
 5713POPC   C3A19349  12.054  12.074   7.950
 5713POPC   C4A19350  12.079  12.105   7.650
 5713POPC   C1B19351  11.898  12.209   8.550
 5713POPC   C2B19352  11.858  12.272   8.250
 5713POPC   C3B19353  11.897  12.289   7.950
 5713POPC   C4B19354  11.920  12.200   7.650
 5714POPC   NC319355   7.449   7.465   9.450
 5714POPC   PO419356   7.394   7.425   9.150
 5714POPC   GL119357   7.383   7.396   8.850
 5714POPC   GL219358   7.392   7.548   8.850
 5714POPC   C1A19359   7.427   7.444   8.550
 5714POPC   D2A19360   7.402   7.442   8.250
 5714POPC   C3A19361   7.430   7.454   7.950
 5714POPC   C4A19362   7.439   7.385   7.650
 5714POPC   C1B19363   7.233   7.580   8.550
 5714POPC   C2B19364   7.228   7.567   8.250
 5714POPC   C3B19365   7.263   7.642   7.950
 5714POPC   C4B19366   7.300   7.624   7.650
 5715POPC   NC319367  27.633  20.587   9.450
 5715POPC   PO419368  27.636  20.637   9.150
 5715POPC   GL119369  27.566  20.613   8.850
 5715POPC   GL219370  27.531  20.682   8.850
 5715POPC   C1A19371  27.559  20.629   8.550
 5715POPC   D2A19372  27.643  20.600   8.250
 5715POPC   C3A19373  27.630  20.646   7.950
 5715POPC   C4A19374  27.580  20.600   7.650
 5715POPC   C1B19375  27.555  20.872   8.550
 5715POPC   C2B19376  27.506  20.805   8.250
 5715POPC   C3B19377  27.484  20.815   7.950
 5715POPC   C4B19378  27.555  20.860   7.650
 5716POPC   NC319379  26.013   4.353   9.450
 5716POPC   PO419380  26.057   4.321   9.150
 5716POPC   GL119381  26.077   4.292   8.850
 5716POPC   GL219382  25.963   4.402   8.850
 5716POPC   C1A19383  26.081   4.284   8.550
 5716POPC   D2A19384  26.091   4.279   8.250
 5716POPC   C3A19385  26.076   4.292   7.950
 5716POPC   C4A19386  26.041   4.361   7.650
 5716POPC   C1B19387  25.791   4.427   8.550
 5716POPC   C2B19388  25.779   4.394   8.250
 5716POPC   C3B19389  25.761   4.415   7.950
 5716POPC   C4B19390  25.808   4.396   7.650
 5717POPC   NC319391   4.289  39.207   9.450
 5717POPC   PO419392   4.344  39.210   9.150
 5717POPC   GL119393   4.276  39.205   8.850
 5717POPC   GL219394   4.245  39.273   8.850
 5717POPC   C1A19395   4.277  39.223   8.550
 5717POPC   D2A19396   4.305  39.192   8.250
 5717POPC   C3A19397   4.269  39.258   7.950
 5717POPC   C4A19398   4.268  39.239   7.650
 5717POPC   C1B19399   4.103  39.347   8.550
 5717POPC   C2B19400   4.081  39.365   8.250
 5717POPC   C3B19401   4.101  39.423   7.950
 5717POPC   C4B19402   4.129  39.366   7.650
 5718POPC   NC319403  43.883   0.461   9.450
 5718POPC   PO419404  43.859   0.477   9.150
 5718POPC   GL119405  43.921   0.438   8.850
 5718POPC   GL219406  43.933   0.605   8.850
 5718POPC   C1A19407  43.885   0.398   8.550
 5718POPC   D2A19408  43.871   0.388   8.250
 5718POPC   C3A19409  43.912   0.397   7.950
 5718POPC   C4A19410  43.838   0.396   7.650
 5718POPC   C1B19411  43.870   0.703   8.550
 5718POPC   C2B19412  43.897   0.684   8.250
 5718POPC   C3B19413  43.897   0.723   7.950
 5718POPC   C4B19414  43.887   0.684   7.650
 5719POPC   NC319415  36.882  17.538   9.450
 5719POPC   PO419416  36.951  17.528   9.150
 5719POPC   GL119417  36.855  17.486   8.850
 5719POPC   GL219418  36.828  17.359   8.850
 5719POPC   C1A19419  36.949  17.474   8.550
 5719POPC   D2A19420  36.914  17.517   8.250
 5719POPC   C3A19421  36.939  17.471   7.950
 5719POPC   C4A19422  36.941  17.487   7.650
 5719POPC   C1B19423  36.771  17.279   8.550
 5719POPC   C2B19424  36.804  17.248   8.250
 5719POPC   C3B19425  36.796  17.300   7.950
 5719POPC   C4B19426  36.829  17.255   7.650
 5720POPC   NC319427  29.953  36.901   9.450
 5720POPC   PO419428  29.959  36.910   9.150
 5720POPC   GL119429  29.910  36.894   8.850
 5720POPC   GL219430  29.871  37.030   8.850
 5720POPC   C1A19431  29.934  36.884   8.550
 5720POPC   D2A19432  29.963  36.909   8.250
 5720POPC   C3A19433  29.963  36.916   7.950
 5720POPC   C4A19434  29.927  36.863   7.650
 5720POPC   C1B19435  29.781  37.157   8.550
 5720POPC   C2B19436  29.855  37.167   8.250
 5720POPC   C3B19437  29.787  37.168   7.950
 5720POPC   C4B19438  29.834  37.088   7.650
 5721POPC   NC319439  29.911  32.261   9.450
 5721POPC   PO419440  29.887  32.247   9.150
 5721POPC   GL119441  29.891  32.257   8.850
 5721POPC   GL219442  29.770  32.273   8.850
 5721POPC   C1A19443  29.906  32.247   8.550
 5721POPC   D2A19444  29.911  32.233   8.250
 5721POPC   C3A19445  29.886  32.245   7.950
 5721POPC   C4A19446  29.940  32.207   7.650
 5721POPC   C1B19447  29.748  32.420   8.550
 5721POPC   C2B19448  29.667  32.347   8.250
 5721POPC   C3B19449  29.679  32.355   7.950
 5721POPC   C4B19450  29.713  32.329   7.650
 5722POPC   NC319451  31.513  28.378   9.450
 5722POPC   PO419452  31.437  28.360   9.150
 5722POPC   GL119453  31.455  28.321   8.850
 5722POPC   GL219454  31.563  28.285   8.850
 5722POPC   C1A19455  31.505  28.413   8.550
 5722POPC   D2A19456  31.504  28.359   8.250
 5722POPC   C3A19457  31.426  28.344   7.950
 5722POPC   C4A19458  31.502  28.383   7.650
 5722POPC   C1B19459  31.550  28.176   8.550
 5722POPC   C2B19460  31.567  28.182   8.250
 5722POPC   C3B19461  31.615  28.110   7.950
 5722POPC   C4B19462  31.567  28.105   7.650
 5723POPC   NC319463   7.403  38.444   9.450
 5723POPC   PO419464   7.461  38.483   9.150
 5723POPC   GL119465   7.446  38.434   8.850
 5723POPC   GL219466   7.364  38.362   8.850
 5723POPC   C1A19467   7.414  38.497   8.550
 5723POPC   D2A19468   7.416  38.426   8.250
 5723POPC   C3A19469   7.396  38.434   7.950
 5723POPC   C4A19470   7.442  38.489   7.650
 5723POPC   C1B19471   7.283  38.268   8.550
 5723POPC   C2B19472   7.309  38.202   8.250
 5723POPC   C3B19473   7.263  38.200   7.950
 5723POPC   C4B19474   7.324  38.203   7.650
 5724POPC   NC319475  29.185  22.959   9.450
 5724POPC   PO419476  29.117  22.968   9.150
 5724POPC   GL119477  29.166  22.944   8.850
 5724POPC   GL219478  29.017  22.871   8.850
 5724POPC   C1A19479  29.175  22.895   8.550
 5724POPC   D2A19480  29.115  22.983   8.250
 5724POPC   C3A19481  29.161  22.964   7.950
 5724POPC   C4A19482  29.143  22.943   7.650
 5724POPC   C1B19483  28.932  22.890   8.550
 5724POPC   C2B19484  28.915  22.937   8.250
 5724POPC   C3B19485  28.919  22.905   7.950
 5724POPC   C4B19486  28.859  22.922   7.650
 5725POPC   NC319487  33.804   1.214   9.450
 5725POPC   PO419488  33.837   1.167   9.150
 5725POPC   GL119489  33.798   1.217   8.850
 5725POPC   GL219490  33.743   1.136   8.850
 5725POPC   C1A19491  33.777   1.218   8.550
 5725POPC   D2A19492  33.794   1.229   8.250
 5725POPC   C3A19493  33.842   1.260   7.950
 5725POPC   C4A19494  33.788   1.235   7.650
 5725POPC   C1B19495  33.705   0.990   8.550
 5725POPC   C2B19496  33.726   1.025   8.250
 5725POPC   C3B19497  33.738   0.999   7.950
 5725POPC   C4B19498  33.753   0.986   7.650
 5726POPC   NC319499  13.610  11.318   9.450
 5726POPC   PO419500  13.641  11.316   9.150
 5726POPC   GL119501  13.613  11.274   8.850
 5726POPC   GL219502  13.652  11.141   8.850
 5726POPC   C1A19503  13.643  11.271   8.550
 5726POPC   D2A19504  13.640  11.261   8.250
 5726POPC   C3A19505  13.620  11.336   7.950
 5726POPC   C4A19506  13.604  11.258   7.650
 5726POPC   C1B19507  13.716  11.059   8.550
 5726POPC   C2B19508  13.708  11.097   8.250
 5726POPC   C3B19509  13.674  11.064   7.950
 5726POPC   C4B19510  13.718  11.031   7.650
 5727POPC   NC319511  26.818   1.229   9.450
 5727POPC   PO419512  26.843   1.253   9.150
 5727POPC   GL119513  26.830   1.168   8.850
 5727POPC   GL219514  26.966   1.232   8.850
 5727POPC   C1A19515  26.843   1.178   8.550
 5727POPC   D2A19516  26.855   1.219   8.250
 5727POPC   C3A19517  26.838   1.239   7.950
 5727POPC   C4A19518  26.793   1.171   7.650
 5727POPC   C1B19519  27.012   1.298   8.550
 5727POPC   C2B19520  27.100   1.294   8.250
 5727POPC   C3B19521  27.014   1.315   7.950
 5727POPC   C4B19522  27.008   1.287   7.650
 5728POPC   NC319523  29.099  28.349   9.450
 5728POPC   PO419524  29.163  28.336   9.150
 5728POPC   GL119525  29.139  28.353   8.850
 5728POPC   GL219526  29.300  28.424   8.850
 5728POPC   C1A19527  29.098  28.384   8.550
 5728POPC   D2A19528  29.186  28.368   8.250
 5728POPC   C3A19529  29.191  28.356   7.950
 5728POPC   C4A19530  29.118  28.355   7.650
 5728POPC   C1B19531  29.405  28.454   8.550
 5728POPC   C2B19532  29.346  28.511   8.250
 5728POPC   C3B19533  29.318  28.501   7.950
 5728POPC   C4B19534  29.378  28.493   7.650
 5729POPC   NC319535  22.153  43.151   9.450
 5729POPC   PO419536  22.182  43.094   9.150
 5729POPC   GL119537  22.146  43.088   8.850
 5729POPC   GL219538  22.024  43.084   8.850
 5729POPC   C1A19539  22.158  43.122   8.550
 5729POPC   D2A19540  22.113  43.138   8.250
 5729POPC   C3A19541  22.121  43.144   7.950
 5729POPC   C4A19542  22.135  43.090   7.650
 5729POPC   C1B19543  21.967  42.995   8.550
 5729POPC   C2B19544  21.930  43.025   8.250
 5729POPC   C3B19545  21.888  42.997   7.950
 5729POPC   C4B19546  21.925  43.007   7.650
 5730POPC   NC319547  15.966  36.171   9.450
 5730POPC   PO419548  15.988  36.126   9.150
 5730POPC   GL119549  15.945  36.154   8.850
 5730POPC   GL219550  15.870  36.034   8.850
 5730POPC   C1A19551  16.001  36.080   8.550
 5730POPC   D2A19552  15.970  36.091   8.250
 5730POPC   C3A19553  15.906  36.164   7.950
 5730POPC   C4A19554  15.929  36.176   7.650
 5730POPC   C1B19555  15.784  35.953   8.550
 5730POPC   C2B19556  15.745  35.971   8.250
 5730POPC   C3B19557  15.722  35.992   7.950
 5730POPC   C4B19558  15.723  35.920   7.650
 5731POPC   NC319559  25.254  40.756   9.450
 5731POPC   PO419560  25.264  40.795   9.150
 5731POPC   GL119561  25.266  40.776   8.850
 5731POPC   GL219562  25.273  40.888   8.850
 5731POPC   C1A19563  25.290  40.828   8.550
 5731POPC   D2A19564  25.249  40.745   8.250
 5731POPC   C3A19565  25.273  40.735   7.950
 5731POPC   C4A19566  25.292  40.741   7.650
 5731POPC   C1B19567  25.364  40.991   8.550
 5731POPC   C2B19568  25.293  41.003   8.250
 5731POPC   C3B19569  25.295  41.053   7.950
 5731POPC   C4B19570  25.307  41.050   7.650
 5732POPC   NC319571  39.270   1.220   9.450
 5732POPC   PO419572  39.211   1.257   9.150
 5732POPC   GL119573  39.281   1.229   8.850
 5732POPC   GL219574  39.263   1.311   8.850
 5732POPC   C1A19575  39.202   1.253   8.550
 5732POPC   D2A19576  39.229   1.187   8.250
 5732POPC   C3A19577  39.232   1.226   7.950
 5732POPC   C4A19578  39.243   1.220   7.650
 5732POPC   C1B19579  39.337   1.463   8.550
 5732POPC   C2B19580  39.383   1.438   8.250
 5732POPC   C3B19581  39.362   1.426   7.950
 5732POPC   C4B19582  39.316   1.410   7.650
 5733POPC   NC319583  14.368  19.859   9.450
 5733POPC   PO419584  14.401  19.815   9.150
 5733POPC   GL119585  14.400  19.811   8.850
 5733POPC   GL219586  14.484  19.962   8.850
 5733POPC   C1A19587  14.418  19.817   8.550
 5733POPC   D2A19588  14.419  19.795   8.250
 5733POPC   C3A19589  14.428  19.804   7.950
 5733POPC   C4A19590  14.374  19.858   7.650
 5733POPC   C1B19591  14.549  20.053   8.550
 5733POPC   C2B19592  14.524  20.021   8.250
 5733POPC   C3B19593  14.590  19.991   7.950
 5733POPC   C4B19594  14.597  19.984   7.650
 5734POPC   NC319595  40.808   5.049   9.450
 5734POPC   PO419596  40.761   5.091   9.150
 5734POPC   GL119597  40.760   5.103   8.850
 5734POPC   GL219598  40.889   5.156   8.850
 5734POPC   C1A19599  40.740   5.065   8.550
 5734POPC   D2A19600  40.822   5.071   8.250
 5734POPC   C3A19601  40.825   5.082   7.950
 5734POPC   C4A19602  40.811   5.125   7.650
 5734POPC   C1B19603  40.915   5.277   8.550
 5734POPC   C2B19604  40.901   5.281   8.250
 5734POPC   C3B19605  40.882   5.352   7.950
 5734POPC   C4B19606  40.940   5.276   7.650
 5735POPC   NC319607  36.864  23.680   9.450
 5735POPC   PO419608  36.910  23.733   9.150
 5735POPC   GL119609  36.929  23.699   8.850
 5735POPC   GL219610  36.847  23.627   8.850
 5735POPC   C1A19611  36.894  23.725   8.550
 5735POPC   D2A19612  36.943  23.691   8.250
 5735POPC   C3A19613  36.861  23.664   7.950
 5735POPC   C4A19614  36.876  23.693   7.650
 5735POPC   C1B19615  36.818  23.516   8.550
 5735POPC   C2B19616  36.833  23.507   8.250
 5735POPC   C3B19617  36.810  23.469   7.950
 5735POPC   C4B19618  36.834  23.505   7.650
 5736POPC   NC319619  30.676   5.129   9.450
 5736POPC   PO419620  30.676   5.125   9.150
 5736POPC   GL119621  30.739   5.055   8.850
 5736POPC   GL219622  30.684   4.970   8.850
 5736POPC   C1A19623  30.699   5.109   8.550
 5736POPC   D2A19624  30.702   5.102   8.250
 5736POPC   C3A19625  30.694   5.128   7.950
 5736POPC   C4A19626  30.682   5.104   7.650
 5736POPC   C1B19627  30.663   4.875   8.550
 5736POPC   C2B19628  30.713   4.872   8.250
 5736POPC   C3B19629  30.737   4.806   7.950
 5736POPC   C4B19630  30.724   4.806   7.650
 5737POPC   NC319631  36.917  44.699   9.450
 5737POPC   PO419632  36.897  44.698   9.150
 5737POPC   GL119633  36.926  44.708   8.850
 5737POPC   GL219634  36.943  44.815   8.850
 5737POPC   C1A19635  36.886  44.666   8.550
 5737POPC   D2A19636  36.936  44.663   8.250
 5737POPC   C3A19637  36.952  44.663   7.950
 5737POPC   C4A19638  36.931  44.664   7.650
 5737POPC   C1B19639  36.986  44.869   8.550
 5737POPC   C2B19640  37.023  44.911   8.250
 5737POPC   C3B19641  36.972  44.839   7.950
 5737POPC   C4B19642  37.032  44.885   7.650
 5738POPC   NC319643   8.927  14.389   9.450
 5738POPC   PO419644   8.953  14.380   9.150
 5738POPC   GL119645   9.007  14.442   8.850
 5738POPC   GL219646   8.958  14.502   8.850
 5738POPC   C1A19647   8.980  14.355   8.550
 5738POPC   D2A19648   8.947  14.396   8.250
 5738POPC   C3A19649   8.996  14.378   7.950
 5738POPC   C4A19650   8.973  14.404   7.650
 5738POPC   C1B19651   8.978  14.614   8.550
 5738POPC   C2B19652   8.971  14.692   8.250
 5738POPC   C3B19653   8.911  14.636   7.950
 5738POPC   C4B19654   8.909  14.666   7.650
 5739POPC   NC319655  42.367  31.515   9.450
 5739POPC   PO419656  42.361  31.490   9.150
 5739POPC   GL119657  42.313  31.461   8.850
 5739POPC   GL219658  42.470  31.446   8.850
 5739POPC   C1A19659  42.315  31.461   8.550
 5739POPC   D2A19660  42.293  31.468   8.250
 5739POPC   C3A19661  42.288  31.491   7.950
 5739POPC   C4A19662  42.334  31.498   7.650
 5739POPC   C1B19663  42.533  31.417   8.550
 5739POPC   C2B19664  42.529  31.359   8.250
 5739POPC   C3B19665  42.591  31.384   7.950
 5739POPC   C4B19666  42.532  31.432   7.650
 5740POPC   NC319667  40.016  26.038   9.450
 5740POPC   PO419668  39.961  26.068   9.150
 5740POPC   GL119669  39.971  26.084   8.850
 5740POPC   GL219670  39.930  26.137   8.850
 5740POPC   C1A19671  40.002  26.038   8.550
 5740POPC   D2A19672  39.974  26.038   8.250
 5740POPC   C3A19673  40.037  26.086   7.950
 5740POPC   C4A19674  39.988  26.004   7.650
 5740POPC   C1B19675  39.881  26.295   8.550
 5740POPC   C2B19676  39.928  26.220   8.250
 5740POPC   C3B19677  39.877  26.304   7.950
 5740POPC   C4B19678  39.899  26.242   7.650
 5741POPC   NC319679  13.606  40.744   9.450
 5741POPC   PO419680  13.641  40.737   9.150
 5741POPC   GL119681  13.634  40.812   8.850
 5741POPC   GL219682  13.639  40.931   8.850
 5741POPC   C1A19683  13.654  40.828   8.550
 5741POPC   D2A19684  13.617  40.766   8.250
 5741POPC   C3A19685  13.624  40.793   7.950
 5741POPC   C4A19686  13.579  40.758   7.650
 5741POPC   C1B19687  13.597  41.054   8.550
 5741POPC   C2B19688  13.621  41.047   8.250
 5741POPC   C3B19689  13.674  41.013   7.950
 5741POPC   C4B19690  13.655  41.063   7.650
 5742POPC   NC319691  19.010  36.145   9.450
 5742POPC   PO419692  19.027  36.171   9.150
 5742POPC   GL119693  19.027  36.135   8.850
 5742POPC   GL219694  19.138  36.067   8.850
 5742POPC   C1A19695  19.084  36.087   8.550
 5742POPC   D2A19696  19.079  36.168   8.250
 5742POPC   C3A19697  19.057  36.135   7.950
 5742POPC   C4A19698  19.042  36.144   7.650
 5742POPC   C1B19699  19.229  35.917   8.550
 5742POPC   C2B19700  19.201  35.967   8.250
 5742POPC   C3B19701  19.258  35.953   7.950
 5742POPC   C4B19702  19.264  35.962   7.650
 5743POPC   NC319703  19.858   6.598   9.450
 5743POPC   PO419704  19.825   6.623   9.150
 5743POPC   GL119705  19.843   6.672   8.850
 5743POPC   GL219706  19.839   6.717   8.850
 5743POPC   C1A19707  19.811   6.650   8.550
 5743POPC   D2A19708  19.814   6.603   8.250
 5743POPC   C3A19709  19.817   6.604   7.950
 5743POPC   C4A19710  19.819   6.645   7.650
 5743POPC   C1B19711  19.772   6.920   8.550
 5743POPC   C2B19712  19.740   6.879   8.250
 5743POPC   C3B19713  19.811   6.869   7.950
 5743POPC   C4B19714  19.790   6.903   7.650
 5744POPC   NC319715  39.251  39.245   9.450
 5744POPC   PO419716  39.231  39.255   9.150
 5744POPC   GL119717  39.185  39.254   8.850
 5744POPC   GL219718  39.329  39.299   8.850
 5744POPC   C1A19719  39.237  39.192   8.550
 5744POPC   D2A19720  39.199  39.242   8.250
 5744POPC   C3A19721  39.230  39.205   7.950
 5744POPC   C4A19722  39.281  39.231   7.650
 5744POPC   C1B19723  39.372  39.473   8.550
 5744POPC   C2B19724  39.375  39.382   8.250
 5744POPC   C3B19725  39.429  39.411   7.950
 5744POPC   C4B19726  39.346  39.416   7.650
 5745POPC   NC319727  36.123   1.171   9.450
 5745POPC   PO419728  36.114   1.184   9.150
 5745POPC   GL119729  36.152   1.224   8.850
 5745POPC   GL219730  36.188   1.320   8.850
 5745POPC   C1A19731  36.171   1.193   8.550
 5745POPC   D2A19732  36.129   1.178   8.250
 5745POPC   C3A19733  36.113   1.255   7.950
 5745POPC   C4A19734  36.127   1.182   7.650
 5745POPC   C1B19735  36.304   1.389   8.550
 5745POPC   C2B19736  36.341   1.414   8.250
 5745POPC   C3B19737  36.285   1.382   7.950
 5745POPC   C4B19738  36.284   1.390   7.650
 5746POPC   NC319739   0.476  29.892   9.450
 5746POPC   PO419740   0.458  29.880   9.150
 5746POPC   GL119741   0.412  29.945   8.850
 5746POPC   GL219742   0.570  29.971   8.850
 5746POPC   C1A19743   0.453  29.951   8.550
 5746POPC   D2A19744   0.394  29.959   8.250
 5746POPC   C3A19745   0.465  29.889   7.950
 5746POPC   C4A19746   0.413  29.924   7.650
 5746POPC   C1B19747   0.691  30.043   8.550
 5746POPC   C2B19748   0.664  30.074   8.250
 5746POPC   C3B19749   0.636  30.049   7.950
 5746POPC   C4B19750   0.650  29.994   7.650
 5747POPC   NC319751  43.891   2.718   9.450
 5747POPC   PO419752  43.916   2.725   9.150
 5747POPC   GL119753  43.879   2.757   8.850
 5747POPC   GL219754  43.854   2.654   8.850
 5747POPC   C1A19755  43.880   2.782   8.550
 5747POPC   D2A19756  43.903   2.781   8.250
 5747POPC   C3A19757  43.894   2.719   7.950
 5747POPC   C4A19758  43.903   2.808   7.650
 5747POPC   C1B19759  43.870   2.518   8.550
 5747POPC   C2B19760  43.919   2.518   8.250
 5747POPC   C3B19761  43.900   2.553   7.950
 5747POPC   C4B19762  43.900   2.490   7.650
 5748POPC   NC319763   3.561  40.799   9.450
 5748POPC   PO419764   3.504  40.736   9.150
 5748POPC   GL119765   3.527  40.804   8.850
 5748POPC   GL219766   3.458  40.927   8.850
 5748POPC   C1A19767   3.525  40.814   8.550
 5748POPC   D2A19768   3.571  40.782   8.250
 5748POPC   C3A19769   3.515  40.743   7.950
 5748POPC   C4A19770   3.514  40.742   7.650
 5748POPC   C1B19771   3.415  40.971   8.550
 5748POPC   C2B19772   3.490  41.055   8.250
 5748POPC   C3B19773   3.494  41.034   7.950
 5748POPC   C4B19774   3.482  41.007   7.650
 5749POPC   NC319775  24.506  19.850   9.450
 5749POPC   PO419776  24.487  19.809   9.150
 5749POPC   GL119777  24.527  19.797   8.850
 5749POPC   GL219778  24.446  19.741   8.850
 5749POPC   C1A19779  24.458  19.864   8.550
 5749POPC   D2A19780  24.457  19.852   8.250
 5749POPC   C3A19781  24.523  19.821   7.950
 5749POPC   C4A19782  24.523  19.871   7.650
 5749POPC   C1B19783  24.322  19.701   8.550
 5749POPC   C2B19784  24.325  19.648   8.250
 5749POPC   C3B19785  24.276  19.667   7.950
 5749POPC   C4B19786  24.265  19.675   7.650
 5750POPC   NC319787  27.550  43.929   9.450
 5750POPC   PO419788  27.611  43.855   9.150
 5750POPC   GL119789  27.604  43.842   8.850
 5750POPC   GL219790  27.510  43.794   8.850
 5750POPC   C1A19791  27.607  43.876   8.550
 5750POPC   D2A19792  27.592  43.868   8.250
 5750POPC   C3A19793  27.545  43.853   7.950
 5750POPC   C4A19794  27.563  43.846   7.650
 5750POPC   C1B19795  27.490  43.714   8.550
 5750POPC   C2B19796  27.496  43.652   8.250
 5750POPC   C3B19797  27.490  43.678   7.950
 5750POPC   C4B19798  27.456  43.627   7.650
 5751POPC   NC319799  40.005   8.238   9.450
 5751POPC   PO419800  39.988   8.180   9.150
 5751POPC   GL119801  39.974   8.147   8.850
 5751POPC   GL219802  39.937   8.055   8.850
 5751POPC   C1A19803  39.961   8.233   8.550
 5751POPC   D2A19804  40.026   8.237   8.250
 5751POPC   C3A19805  39.993   8.156   7.950
 5751POPC   C4A19806  40.003   8.233   7.650
 5751POPC   C1B19807  39.925   8.017   8.550
 5751POPC   C2B19808  39.924   7.949   8.250
 5751POPC   C3B19809  39.879   8.017   7.950
 5751POPC   C4B19810  39.873   8.020   7.650
 5752POPC   NC319811  40.790  28.359   9.450
 5752POPC   PO419812  40.788  28.384   9.150
 5752POPC   GL119813  40.748  28.417   8.850
 5752POPC   GL219814  40.791  28.487   8.850
 5752POPC   C1A19815  40.735  28.395   8.550
 5752POPC   D2A19816  40.824  28.386   8.250
 5752POPC   C3A19817  40.815  28.359   7.950
 5752POPC   C4A19818  40.795  28.342   7.650
 5752POPC   C1B19819  40.678  28.626   8.550
 5752POPC   C2B19820  40.657  28.586   8.250
 5752POPC   C3B19821  40.707  28.598   7.950
 5752POPC   C4B19822  40.678  28.627   7.650
 5753POPC   NC319823   9.740  13.652   9.450
 5753POPC   PO419824   9.738  13.675   9.150
 5753POPC   GL119825   9.704  13.599   8.850
 5753POPC   GL219826   9.578  13.567   8.850
 5753POPC   C1A19827   9.745  13.602   8.550
 5753POPC   D2A19828   9.783  13.636   8.250
 5753POPC   C3A19829   9.797  13.653   7.950
 5753POPC   C4A19830   9.740  13.665   7.650
 5753POPC   C1B19831   9.472  13.560   8.550
 5753POPC   C2B19832   9.495  13.598   8.250
 5753POPC   C3B19833   9.466  13.569   7.950
 5753POPC   C4B19834   9.503  13.626   7.650
 5754POPC   NC319835  17.501  22.130   9.450
 5754POPC   PO419836  17.477  22.114   9.150
 5754POPC   GL119837  17.459  22.164   8.850
 5754POPC   GL219838  17.587  22.015   8.850
 5754POPC   C1A19839  17.488  22.154   8.550
 5754POPC   D2A19840  17.547  22.206   8.250
 5754POPC   C3A19841  17.536  22.186   7.950
 5754POPC   C4A19842  17.524  22.208   7.650
 5754POPC   C1B19843  17.663  21.905   8.550
 5754POPC   C2B19844  17.672  21.956   8.250
 5754POPC   C3B19845  17.606  21.967   7.950
 5754POPC   C4B19846  17.606  21.945   7.650
 5755POPC   NC319847   8.947  22.919   9.450
 5755POPC   PO419848   9.018  22.949   9.150
 5755POPC   GL119849   8.952  22.969   8.850
 5755POPC   GL219850   8.974  23.087   8.850
 5755POPC   C1A19851   8.927  22.974   8.550
 5755POPC   D2A19852   8.934  22.915   8.250
 5755POPC   C3A19853   8.924  22.903   7.950
 5755POPC   C4A19854   8.969  22.893   7.650
 5755POPC   C1B19855   9.037  23.220   8.550
 5755POPC   C2B19856   8.966  23.174   8.250
 5755POPC   C3B19857   8.977  23.161   7.950
 5755POPC   C4B19858   9.044  23.171   7.650
 5756POPC   NC319859  15.921  39.241   9.450
 5756POPC   PO419860  15.906  39.252   9.150
 5756POPC   GL119861  15.985  39.262   8.850
 5756POPC   GL219862  15.836  39.202   8.850
 5756POPC   C1A19863  15.993  39.238   8.550
 5756POPC   D2A19864  15.946  39.185   8.250
 5756POPC   C3A19865  15.986  39.228   7.950
 5756POPC   C4A19866  15.964  39.272   7.650
 5756POPC   C1B19867  15.757  39.097   8.550
 5756POPC   C2B19868  15.775  39.149   8.250
 5756POPC   C3B19869  15.690  39.086   7.950
 5756POPC   C4B19870  15.775  39.113   7.650
 5757POPC   NC319871  34.573  21.426   9.450
 5757POPC   PO419872  34.623  21.355   9.150
 5757POPC   GL119873  34.596  21.433   8.850
 5757POPC   GL219874  34.550  21.530   8.850
 5757POPC   C1A19875  34.568  21.400   8.550
 5757POPC   D2A19876  34.554  21.417   8.250
 5757POPC   C3A19877  34.555  21.370   7.950
 5757POPC   C4A19878  34.610  21.375   7.650
 5757POPC   C1B19879  34.455  21.572   8.550
 5757POPC   C2B19880  34.498  21.647   8.250
 5757POPC   C3B19881  34.490  21.650   7.950
 5757POPC   C4B19882  34.528  21.619   7.650
 5758POPC   NC319883  40.804  12.078   9.450
 5758POPC   PO419884  40.752  12.117   9.150
 5758POPC   GL119885  40.741  12.122   8.850
 5758POPC   GL219886  40.852  12.205   8.850
 5758POPC   C1A19887  40.739  12.100   8.550
 5758POPC   D2A19888  40.829  12.089   8.250
 5758POPC   C3A19889  40.738  12.081   7.950
 5758POPC   C4A19890  40.754  12.031   7.650
 5758POPC   C1B19891  40.943  12.191   8.550
 5758POPC   C2B19892  41.000  12.279   8.250
 5758POPC   C3B19893  40.958  12.202   7.950
 5758POPC   C4B19894  40.978  12.198   7.650
 5759POPC   NC319895   5.095  25.248   9.450
 5759POPC   PO419896   5.124  25.246   9.150
 5759POPC   GL119897   5.106  25.279   8.850
 5759POPC   GL219898   5.105  25.125   8.850
 5759POPC   C1A19899   5.110  25.234   8.550
 5759POPC   D2A19900   5.100  25.267   8.250
 5759POPC   C3A19901   5.096  25.234   7.950
 5759POPC   C4A19902   5.109  25.274   7.650
 5759POPC   C1B19903   5.021  25.019   8.550
 5759POPC   C2B19904   5.071  24.982   8.250
 5759POPC   C3B19905   5.062  25.062   7.950
 5759POPC   C4B19906   5.026  25.055   7.650
 5760POPC   NC319907   7.452  22.184   9.450
 5760POPC   PO419908   7.465  22.197   9.150
 5760POPC   GL119909   7.410  22.127   8.850
 5760POPC   GL219910   7.533  22.086   8.850
 5760POPC   C1A19911   7.451  22.167   8.550
 5760POPC   D2A19912   7.372  22.192   8.250
 5760POPC   C3A19913   7.424  22.210   7.950
 5760POPC   C4A19914   7.444  22.123   7.650
 5760POPC   C1B19915   7.551  21.946   8.550
 5760POPC   C2B19916   7.604  21.962   8.250
 5760POPC   C3B19917   7.599  21.934   7.950
 5760POPC   C4B19918   7.551  21.966   7.650
 5761POPC   NC319919  22.896  23.680   9.450
 5761POPC   PO419920  22.919  23.754   9.150
 5761POPC   GL119921  22.960  23.675   8.850
 5761POPC   GL219922  23.049  23.867   8.850
 5761POPC   C1A19923  22.906  23.697   8.550
 5761POPC   D2A19924  22.935  23.730   8.250
 5761POPC   C3A19925  22.972  23.754   7.950
 5761POPC   C4A19926  22.924  23.686   7.650
 5761POPC   C1B19927  23.077  23.908   8.550
 5761POPC   C2B19928  23.092  23.964   8.250
 5761POPC   C3B19929  23.084  23.923   7.950
 5761POPC   C4B19930  23.073  23.907   7.650
 5762POPC   NC319931  36.864  14.371   9.450
 5762POPC   PO419932  36.867  14.447   9.150
 5762POPC   GL119933  36.919  14.370   8.850
 5762POPC   GL219934  37.010  14.444   8.850
 5762POPC   C1A19935  36.942  14.427   8.550
 5762POPC   D2A19936  36.854  14.448   8.250
 5762POPC   C3A19937  36.866  14.422   7.950
 5762POPC   C4A19938  36.948  14.411   7.650
 5762POPC   C1B19939  37.100  14.420   8.550
 5762POPC   C2B19940  37.151  14.438   8.250
 5762POPC   C3B19941  37.102  14.463   7.950
 5762POPC   C4B19942  37.103  14.499   7.650
 5763POPC   NC319943  22.140  43.872   9.450
 5763POPC   PO419944  22.176  43.910   9.150
 5763POPC   GL119945  22.159  43.893   8.850
 5763POPC   GL219946  22.164  43.718   8.850
 5763POPC   C1A19947  22.178  43.858   8.550
 5763POPC   D2A19948  22.165  43.904   8.250
 5763POPC   C3A19949  22.129  43.866   7.950
 5763POPC   C4A19950  22.179  43.902   7.650
 5763POPC   C1B19951  22.271  43.693   8.550
 5763POPC   C2B19952  22.244  43.611   8.250
 5763POPC   C3B19953  22.192  43.693   7.950
 5763POPC   C4B19954  22.195  43.621   7.650
 5764POPC   NC319955  27.600  29.911   9.450
 5764POPC   PO419956  27.574  29.909   9.150
 5764POPC   GL119957  27.556  29.948   8.850
 5764POPC   GL219958  27.426  29.978   8.850
 5764POPC   C1A19959  27.614  29.897   8.550
 5764POPC   D2A19960  27.553  29.886   8.250
 5764POPC   C3A19961  27.593  29.961   7.950
 5764POPC   C4A19962  27.557  29.879   7.650
 5764POPC   C1B19963  27.325  30.019   8.550
 5764POPC   C2B19964  27.399  30.013   8.250
 5764POPC   C3B19965  27.327  30.019   7.950
 5764POPC   C4B19966  27.343  30.054   7.650
 5765POPC   NC319967  19.049  26.087   9.450
 5765POPC   PO419968  19.028  26.036   9.150
 5765POPC   GL119969  19.079  26.088   8.850
 5765POPC   GL219970  19.076  26.129   8.850
 5765POPC   C1A19971  19.086  26.075   8.550
 5765POPC   D2A19972  19.067  25.999   8.250
 5765POPC   C3A19973  19.034  26.032   7.950
 5765POPC   C4A19974  19.088  26.087   7.650
 5765POPC   C1B19975  19.010  26.281   8.550
 5765POPC   C2B19976  19.021  26.248   8.250
 5765POPC   C3B19977  19.007  26.265   7.950
 5765POPC   C4B19978  19.019  26.311   7.650
 5766POPC   NC319979  18.299  36.167   9.450
 5766POPC   PO419980  18.280  36.100   9.150
 5766POPC   GL119981  18.258  36.098   8.850
 5766POPC   GL219982  18.321  36.213   8.850
 5766POPC   C1A19983  18.270  36.169   8.550
 5766POPC   D2A19984  18.259  36.154   8.250
 5766POPC   C3A19985  18.268  36.146   7.950
 5766POPC   C4A19986  18.237  36.097   7.650
 5766POPC   C1B19987  18.449  36.379   8.550
 5766POPC   C2B19988  18.377  36.341   8.250
 5766POPC   C3B19989  18.393  36.349   7.950
 5766POPC   C4B19990  18.435  36.365   7.650
 5767POPC   NC319991  35.401   3.505   9.450
 5767POPC   PO419992  35.327   3.571   9.150
 5767POPC   GL119993  35.321   3.502   8.850
 5767POPC   GL219994  35.233   3.600   8.850
 5767POPC   C1A19995  35.306   3.498   8.550
 5767POPC   D2A19996  35.326   3.537   8.250
 5767POPC   C3A19997  35.401   3.546   7.950
 5767POPC   C4A19998  35.391   3.508   7.650
 5767POPC   C1B19999  35.095   3.637   8.550
 5767POPC   C2B20000  35.093   3.690   8.250
 5767POPC   C3B20001  35.112   3.636   7.950
 5767POPC   C4B20002  35.108   3.675   7.650
 5768POPC   NC320003  41.515   0.455   9.450
 5768POPC   PO420004  41.519   0.399   9.150
 5768POPC   GL120005  41.532   0.442   8.850
 5768POPC   GL220006  41.697   0.358   8.850
 5768POPC   C1A20007  41.528   0.417   8.550
 5768POPC   D2A20008  41.518   0.427   8.250
 5768POPC   C3A20009  41.526   0.464   7.950
 5768POPC   C4A20010  41.603   0.410   7.650
 5768POPC   C1B20011  41.703   0.227   8.550
 5768POPC   C2B20012  41.760   0.246   8.250
 5768POPC   C3B20013  41.755   0.297   7.950
 5768POPC   C4B20014  41.741   0.292   7.650
 5769POPC   NC320015  27.573  29.188   9.450
 5769POPC   PO420016  27.625  29.155   9.150
 5769POPC   GL120017  27.632  29.121   8.850
 5769POPC   GL220018  27.517  29.120   8.850
 5769POPC   C1A20019  27.605  29.177   8.550
 5769POPC   D2A20020  27.626  29.144   8.250
 5769POPC   C3A20021  27.588  29.184   7.950
 5769POPC   C4A20022  27.633  29.135   7.650
 5769POPC   C1B20023  27.318  29.191   8.550
 5769POPC   C2B20024  27.331  29.131   8.250
 5769POPC   C3B20025  27.310  29.119   7.950
 5769POPC   C4B20026  27.323  29.172   7.650
 5770POPC   NC320027  29.899  18.293   9.450
 5770POPC   PO420028  29.926  18.234   9.150
 5770POPC   GL120029  29.930  18.254   8.850
 5770POPC   GL220030  29.979  18.377   8.850
 5770POPC   C1A20031  29.936  18.316   8.550
 5770POPC   D2A20032  29.953  18.242   8.250
 5770POPC   C3A20033  29.900  18.322   7.950
 5770POPC   C4A20034  29.940  18.242   7.650
 5770POPC   C1B20035  30.131  18.431   8.550
 5770POPC   C2B20036  30.047  18.454   8.250
 5770POPC   C3B20037  30.137  18.491   7.950
 5770POPC   C4B20038  30.116  18.453   7.650
 5771POPC   NC320039   4.291   2.800   9.450
 5771POPC   PO420040   4.318   2.764   9.150
 5771POPC   GL120041   4.292   2.722   8.850
 5771POPC   GL220042   4.202   2.670   8.850
 5771POPC   C1A20043   4.306   2.747   8.550
 5771POPC   D2A20044   4.343   2.731   8.250
 5771POPC   C3A20045   4.269   2.808   7.950
 5771POPC   C4A20046   4.308   2.740   7.650
 5771POPC   C1B20047   4.157   2.628   8.550
 5771POPC   C2B20048   4.158   2.649   8.250
 5771POPC   C3B20049   4.174   2.574   7.950
 5771POPC   C4B20050   4.178   2.553   7.650
 5772POPC   NC320051  36.887  35.396   9.450
 5772POPC   PO420052  36.877  35.350   9.150
 5772POPC   GL120053  36.887  35.390   8.850
 5772POPC   GL220054  36.873  35.182   8.850
 5772POPC   C1A20055  36.919  35.366   8.550
 5772POPC   D2A20056  36.860  35.363   8.250
 5772POPC   C3A20057  36.866  35.343   7.950
 5772POPC   C4A20058  36.897  35.332   7.650
 5772POPC   C1B20059  36.895  35.124   8.550
 5772POPC   C2B20060  36.910  35.140   8.250
 5772POPC   C3B20061  36.872  35.116   7.950
 5772POPC   C4B20062  36.888  35.056   7.650
 5773POPC   NC320063  26.090  14.380   9.450
 5773POPC   PO420064  26.078  14.402   9.150
 5773POPC   GL120065  26.072  14.391   8.850
 5773POPC   GL220066  25.868  14.453   8.850
 5773POPC   C1A20067  26.043  14.418   8.550
 5773POPC   D2A20068  26.013  14.438   8.250
 5773POPC   C3A20069  26.026  14.396   7.950
 5773POPC   C4A20070  26.024  14.395   7.650
 5773POPC   C1B20071  25.767  14.393   8.550
 5773POPC   C2B20072  25.795  14.400   8.250
 5773POPC   C3B20073  25.785  14.393   7.950
 5773POPC   C4B20074  25.802  14.407   7.650
 5774POPC   NC320075  13.670  29.922   9.450
 5774POPC   PO420076  13.604  29.884   9.150
 5774POPC   GL120077  13.588  29.952   8.850
 5774POPC   GL220078  13.540  30.030   8.850
 5774POPC   C1A20079  13.608  29.898   8.550
 5774POPC   D2A20080  13.616  29.886   8.250
 5774POPC   C3A20081  13.651  29.904   7.950
 5774POPC   C4A20082  13.668  29.943   7.650
 5774POPC   C1B20083  13.579  30.186   8.550
 5774POPC   C2B20084  13.539  30.183   8.250
 5774POPC   C3B20085  13.566  30.164   7.950
 5774POPC   C4B20086  13.558  30.156   7.650
 5775POPC   NC320087   9.741  30.729   9.450
 5775POPC   PO420088   9.778  30.698   9.150
 5775POPC   GL120089   9.779  30.698   8.850
 5775POPC   GL220090   9.616  30.802   8.850
 5775POPC   C1A20091   9.745  30.681   8.550
 5775POPC   D2A20092   9.713  30.727   8.250
 5775POPC   C3A20093   9.710  30.735   7.950
 5775POPC   C4A20094   9.771  30.708   7.650
 5775POPC   C1B20095   9.509  30.765   8.550
 5775POPC   C2B20096   9.505  30.771   8.250
 5775POPC   C3B20097   9.525  30.837   7.950
 5775POPC   C4B20098   9.550  30.856   7.650
 5776POPC   NC320099   2.790  29.968   9.450
 5776POPC   PO420100   2.814  29.883   9.150
 5776POPC   GL120101   2.776  29.958   8.850
 5776POPC   GL220102   2.666  30.048   8.850
 5776POPC   C1A20103   2.745  29.967   8.550
 5776POPC   D2A20104   2.771  29.938   8.250
 5776POPC   C3A20105   2.748  29.955   7.950
 5776POPC   C4A20106   2.762  29.896   7.650
 5776POPC   C1B20107   2.610  30.137   8.550
 5776POPC   C2B20108   2.640  30.077   8.250
 5776POPC   C3B20109   2.571  30.148   7.950
 5776POPC   C4B20110   2.587  30.097   7.650
 5777POPC   NC320111  32.241  31.427   9.450
 5777POPC   PO420112  32.252  31.435   9.150
 5777POPC   GL120113  32.213  31.441   8.850
 5777POPC   GL220114  32.270  31.380   8.850
 5777POPC   C1A20115  32.233  31.435   8.550
 5777POPC   D2A20116  32.286  31.446   8.250
 5777POPC   C3A20117  32.230  31.491   7.950
 5777POPC   C4A20118  32.227  31.433   7.650
 5777POPC   C1B20119  32.352  31.257   8.550
 5777POPC   C2B20120  32.389  31.261   8.250
 5777POPC   C3B20121  32.355  31.265   7.950
 5777POPC   C4B20122  32.369  31.229   7.650
 5778POPC   NC320123  25.275  15.915   9.450
 5778POPC   PO420124  25.216  15.949   9.150
 5778POPC   GL120125  25.300  15.978   8.850
 5778POPC   GL220126  25.170  15.992   8.850
 5778POPC   C1A20127  25.293  15.983   8.550
 5778POPC   D2A20128  25.220  15.928   8.250
 5778POPC   C3A20129  25.308  15.987   7.950
 5778POPC   C4A20130  25.247  15.971   7.650
 5778POPC   C1B20131  25.054  16.126   8.550
 5778POPC   C2B20132  25.022  16.089   8.250
 5778POPC   C3B20133  25.045  16.091   7.950
 5778POPC   C4B20134  25.084  16.134   7.650
 5779POPC   NC320135  36.886   4.364   9.450
 5779POPC   PO420136  36.879   4.285   9.150
 5779POPC   GL120137  36.915   4.334   8.850
 5779POPC   GL220138  36.995   4.322   8.850
 5779POPC   C1A20139  36.896   4.327   8.550
 5779POPC   D2A20140  36.909   4.301   8.250
 5779POPC   C3A20141  36.915   4.312   7.950
 5779POPC   C4A20142  36.929   4.347   7.650
 5779POPC   C1B20143  37.134   4.373   8.550
 5779POPC   C2B20144  37.170   4.390   8.250
 5779POPC   C3B20145  37.157   4.404   7.950
 5779POPC   C4B20146  37.166   4.386   7.650
 5780POPC   NC320147   4.280   3.574   9.450
 5780POPC   PO420148   4.294   3.523   9.150
 5780POPC   GL120149   4.313   3.536   8.850
 5780POPC   GL220150   4.351   3.707   8.850
 5780POPC   C1A20151   4.270   3.551   8.550
 5780POPC   D2A20152   4.291   3.554   8.250
 5780POPC   C3A20153   4.340   3.495   7.950
 5780POPC   C4A20154   4.292   3.522   7.650
 5780POPC   C1B20155   4.390   3.768   8.550
 5780POPC   C2B20156   4.458   3.779   8.250
 5780POPC   C3B20157   4.413   3.760   7.950
 5780POPC   C4B20158   4.430   3.743   7.650
 5781POPC   NC320159  13.616   1.257   9.450
 5781POPC   PO420160  13.631   1.230   9.150
 5781POPC   GL120161  13.671   1.170   8.850
 5781POPC   GL220162  13.717   1.329   8.850
 5781POPC   C1A20163  13.607   1.196   8.550
 5781POPC   D2A20164  13.620   1.193   8.250
 5781POPC   C3A20165  13.598   1.226   7.950
 5781POPC   C4A20166  13.591   1.171   7.650
 5781POPC   C1B20167  13.724   1.380   8.550
 5781POPC   C2B20168  13.796   1.396   8.250
 5781POPC   C3B20169  13.755   1.426   7.950
 5781POPC   C4B20170  13.725   1.414   7.650
 5782POPC   NC320171   1.237  29.181   9.450
 5782POPC   PO420172   1.216  29.187   9.150
 5782POPC   GL120173   1.187  29.189   8.850
 5782POPC   GL220174   1.298  29.046   8.850
 5782POPC   C1A20175   1.263  29.149   8.550
 5782POPC   D2A20176   1.196  29.132   8.250
 5782POPC   C3A20177   1.210  29.106   7.950
 5782POPC   C4A20178   1.196  29.194   7.650
 5782POPC   C1B20179   1.286  28.927   8.550
 5782POPC   C2B20180   1.282  28.912   8.250
 5782POPC   C3B20181   1.289  28.877   7.950
 5782POPC   C4B20182   1.284  28.902   7.650
 5783POPC   NC320183   5.836  22.947   9.450
 5783POPC   PO420184   5.834  22.944   9.150
 5783POPC   GL120185   5.904  22.961   8.850
 5783POPC   GL220186   5.864  23.047   8.850
 5783POPC   C1A20187   5.826  22.938   8.550
 5783POPC   D2A20188   5.831  22.977   8.250
 5783POPC   C3A20189   5.859  22.974   7.950
 5783POPC   C4A20190   5.857  22.908   7.650
 5783POPC   C1B20191   5.814  23.166   8.550
 5783POPC   C2B20192   5.823  23.186   8.250
 5783POPC   C3B20193   5.790  23.138   7.950
 5783POPC   C4B20194   5.845  23.188   7.650
 5784POPC   NC320195  35.354  36.140   9.450
 5784POPC   PO420196  35.369  36.094   9.150
 5784POPC   GL120197  35.359  36.151   8.850
 5784POPC   GL220198  35.418  36.164   8.850
 5784POPC   C1A20199  35.387  36.112   8.550
 5784POPC   D2A20200  35.355  36.090   8.250
 5784POPC   C3A20201  35.382  36.158   7.950
 5784POPC   C4A20202  35.311  36.121   7.650
 5784POPC   C1B20203  35.585  36.294   8.550
 5784POPC   C2B20204  35.540  36.245   8.250
 5784POPC   C3B20205  35.556  36.272   7.950
 5784POPC   C4B20206  35.535  36.238   7.650
 5785POPC   NC320207  35.365   7.443   9.450
 5785POPC   PO420208  35.326   7.376   9.150
 5785POPC   GL120209  35.364   7.387   8.850
 5785POPC   GL220210  35.516   7.427   8.850
 5785POPC   C1A20211  35.386   7.371   8.550
 5785POPC   D2A20212  35.396   7.380   8.250
 5785POPC   C3A20213  35.342   7.401   7.950
 5785POPC   C4A20214  35.383   7.434   7.650
 5785POPC   C1B20215  35.585   7.506   8.550
 5785POPC   C2B20216  35.544   7.525   8.250
 5785POPC   C3B20217  35.620   7.535   7.950
 5785POPC   C4B20218  35.556   7.491   7.650
 5786POPC   NC320219  19.860  33.838   9.450
 5786POPC   PO420220  19.837  33.833   9.150
 5786POPC   GL120221  19.801  33.779   8.850
 5786POPC   GL220222  19.993  33.756   8.850
 5786POPC   C1A20223  19.788  33.835   8.550
 5786POPC   D2A20224  19.795  33.764   8.250
 5786POPC   C3A20225  19.842  33.830   7.950
 5786POPC   C4A20226  19.840  33.761   7.650
 5786POPC   C1B20227  20.100  33.820   8.550
 5786POPC   C2B20228  20.065  33.775   8.250
 5786POPC   C3B20229  20.060  33.737   7.950
 5786POPC   C4B20230  20.123  33.765   7.650
 5787POPC   NC320231  15.159   0.452   9.450
 5787POPC   PO420232  15.162   0.421   9.150
 5787POPC   GL120233  15.180   0.434   8.850
 5787POPC   GL220234  15.241   0.473   8.850
 5787POPC   C1A20235  15.167   0.457   8.550
 5787POPC   D2A20236  15.180   0.392   8.250
 5787POPC   C3A20237  15.195   0.468   7.950
 5787POPC   C4A20238  15.148   0.452   7.650
 5787POPC   C1B20239  15.439   0.542   8.550
 5787POPC   C2B20240  15.363   0.608   8.250
 5787POPC   C3B20241  15.448   0.540   7.950
 5787POPC   C4B20242  15.381   0.547   7.650
 5788POPC   NC320243   1.221  15.129   9.450
 5788POPC   PO420244   1.189  15.137   9.150
 5788POPC   GL120245   1.188  15.161   8.850
 5788POPC   GL220246   1.125  15.149   8.850
 5788POPC   C1A20247   1.258  15.160   8.550
 5788POPC   D2A20248   1.227  15.150   8.250
 5788POPC   C3A20249   1.214  15.201   7.950
 5788POPC   C4A20250   1.170  15.186   7.650
 5788POPC   C1B20251   1.034  15.080   8.550
 5788POPC   C2B20252   1.039  15.069   8.250
 5788POPC   C3B20253   0.971  15.044   7.950
 5788POPC   C4B20254   1.027  15.090   7.650
 5789POPC   NC320255  22.947   4.301   9.450
 5789POPC   PO420256  22.937   4.324   9.150
 5789POPC   GL120257  22.893   4.367   8.850
 5789POPC   GL220258  23.052   4.266   8.850
 5789POPC   C1A20259  22.979   4.274   8.550
 5789POPC   D2A20260  22.922   4.319   8.250
 5789POPC   C3A20261  22.951   4.361   7.950
 5789POPC   C4A20262  22.965   4.268   7.650
 5789POPC   C1B20263  23.201   4.212   8.550
 5789POPC   C2B20264  23.193   4.252   8.250
 5789POPC   C3B20265  23.156   4.224   7.950
 5789POPC   C4B20266  23.186   4.206   7.650
 5790POPC   NC320267  36.870  25.302   9.450
 5790POPC   PO420268  36.941  25.264   9.150
 5790POPC   GL120269  36.858  25.267   8.850
 5790POPC   GL220270  36.880  25.412   8.850
 5790POPC   C1A20271  36.855  25.308   8.550
 5790POPC   D2A20272  36.871  25.270   8.250
 5790POPC   C3A20273  36.864  25.219   7.950
 5790POPC   C4A20274  36.926  25.297   7.650
 5790POPC   C1B20275  36.813  25.521   8.550
 5790POPC   C2B20276  36.807  25.535   8.250
 5790POPC   C3B20277  36.827  25.457   7.950
 5790POPC   C4B20278  36.858  25.553   7.650
 5791POPC   NC320279  24.470  25.292   9.450
 5791POPC   PO420280  24.520  25.253   9.150
 5791POPC   GL120281  24.510  25.291   8.850
 5791POPC   GL220282  24.626  25.294   8.850
 5791POPC   C1A20283  24.441  25.243   8.550
 5791POPC   D2A20284  24.458  25.315   8.250
 5791POPC   C3A20285  24.451  25.282   7.950
 5791POPC   C4A20286  24.459  25.218   7.650
 5791POPC   C1B20287  24.708  25.431   8.550
 5791POPC   C2B20288  24.757  25.370   8.250
 5791POPC   C3B20289  24.719  25.393   7.950
 5791POPC   C4B20290  24.744  25.345   7.650
 5792POPC   NC320291  39.969  31.511   9.450
 5792POPC   PO420292  39.970  31.443   9.150
 5792POPC   GL120293  40.023  31.433   8.850
 5792POPC   GL220294  39.920  31.454   8.850
 5792POPC   C1A20295  40.021  31.435   8.550
 5792POPC   D2A20296  40.033  31.453   8.250
 5792POPC   C3A20297  40.052  31.468   7.950
 5792POPC   C4A20298  40.021  31.491   7.650
 5792POPC   C1B20299  39.797  31.356   8.550
 5792POPC   C2B20300  39.770  31.305   8.250
 5792POPC   C3B20301  39.776  31.358   7.950
 5792POPC   C4B20302  39.748  31.359   7.650
 5793POPC   NC320303  20.602  24.447   9.450
 5793POPC   PO420304  20.621  24.452   9.150
 5793POPC   GL120305  20.611  24.493   8.850
 5793POPC   GL220306  20.528  24.381   8.850
 5793POPC   C1A20307  20.568  24.477   8.550
 5793POPC   D2A20308  20.601  24.539   8.250
 5793POPC   C3A20309  20.608  24.467   7.950
 5793POPC   C4A20310  20.660  24.524   7.650
 5793POPC   C1B20311  20.417  24.325   8.550
 5793POPC   C2B20312  20.419  24.331   8.250
 5793POPC   C3B20313  20.475  24.344   7.950
 5793POPC   C4B20314  20.420  24.335   7.650
 5794POPC   NC320315  32.268  18.325   9.450
 5794POPC   PO420316  32.257  18.328   9.150
 5794POPC   GL120317  32.233  18.244   8.850
 5794POPC   GL220318  32.188  18.252   8.850
 5794POPC   C1A20319  32.262  18.299   8.550
 5794POPC   D2A20320  32.283  18.295   8.250
 5794POPC   C3A20321  32.283  18.322   7.950
 5794POPC   C4A20322  32.216  18.244   7.650
 5794POPC   C1B20323  32.070  18.187   8.550
 5794POPC   C2B20324  32.012  18.137   8.250
 5794POPC   C3B20325  32.051  18.143   7.950
 5794POPC   C4B20326  32.066  18.164   7.650
 5795POPC   NC320327  18.318  30.687   9.450
 5795POPC   PO420328  18.259  30.655   9.150
 5795POPC   GL120329  18.236  30.732   8.850
 5795POPC   GL220330  18.197  30.603   8.850
 5795POPC   C1A20331  18.309  30.729   8.550
 5795POPC   D2A20332  18.301  30.727   8.250
 5795POPC   C3A20333  18.244  30.658   7.950
 5795POPC   C4A20334  18.295  30.648   7.650
 5795POPC   C1B20335  18.050  30.511   8.550
 5795POPC   C2B20336  18.121  30.542   8.250
 5795POPC   C3B20337  18.135  30.529   7.950
 5795POPC   C4B20338  18.139  30.501   7.650
 5796POPC   NC320339  29.191  12.059   9.450
 5796POPC   PO420340  29.189  12.099   9.150
 5796POPC   GL120341  29.117  12.038   8.850
 5796POPC   GL220342  29.252  12.143   8.850
 5796POPC   C1A20343  29.113  12.083   8.550
 5796POPC   D2A20344  29.186  12.090   8.250
 5796POPC   C3A20345  29.170  12.028   7.950
 5796POPC   C4A20346  29.097  12.125   7.650
 5796POPC   C1B20347  29.271  12.222   8.550
 5796POPC   C2B20348  29.306  12.229   8.250
 5796POPC   C3B20349  29.300  12.247   7.950
 5796POPC   C4B20350  29.293  12.218   7.650
 5797POPC   NC320351   7.371  43.121   9.450
 5797POPC   PO420352   7.381  43.155   9.150
 5797POPC   GL120353   7.393  43.145   8.850
 5797POPC   GL220354   7.547  43.131   8.850
 5797POPC   C1A20355   7.463  43.063   8.550
 5797POPC   D2A20356   7.450  43.091   8.250
 5797POPC   C3A20357   7.426  43.154   7.950
 5797POPC   C4A20358   7.383  43.128   7.650
 5797POPC   C1B20359   7.658  43.091   8.550
 5797POPC   C2B20360   7.711  43.074   8.250
 5797POPC   C3B20361   7.673  43.054   7.950
 5797POPC   C4B20362   7.686  43.098   7.650
 5798POPC   NC320363  21.351   4.277   9.450
 5798POPC   PO420364  21.412   4.283   9.150
 5798POPC   GL120365  21.395   4.336   8.850
 5798POPC   GL220366  21.312   4.282   8.850
 5798POPC   C1A20367  21.402   4.357   8.550
 5798POPC   D2A20368  21.405   4.309   8.250
 5798POPC   C3A20369  21.374   4.292   7.950
 5798POPC   C4A20370  21.367   4.367   7.650
 5798POPC   C1B20371  21.102   4.272   8.550
 5798POPC   C2B20372  21.167   4.263   8.250
 5798POPC   C3B20373  21.164   4.270   7.950
 5798POPC   C4B20374  21.143   4.290   7.650
 5799POPC   NC320375  16.722  26.062   9.450
 5799POPC   PO420376  16.717  26.041   9.150
 5799POPC   GL120377  16.684  26.024   8.850
 5799POPC   GL220378  16.649  25.969   8.850
 5799POPC   C1A20379  16.781  26.065   8.550
 5799POPC   D2A20380  16.719  26.038   8.250
 5799POPC   C3A20381  16.760  25.992   7.950
 5799POPC   C4A20382  16.703  26.066   7.650
 5799POPC   C1B20383  16.621  25.804   8.550
 5799POPC   C2B20384  16.642  25.766   8.250
 5799POPC   C3B20385  16.638  25.809   7.950
 5799POPC   C4B20386  16.649  25.758   7.650
 5800POPC   NC320387  26.830  43.158   9.450
 5800POPC   PO420388  26.847  43.128   9.150
 5800POPC   GL120389  26.807  43.140   8.850
 5800POPC   GL220390  26.766  43.235   8.850
 5800POPC   C1A20391  26.834  43.093   8.550
 5800POPC   D2A20392  26.844  43.095   8.250
 5800POPC   C3A20393  26.808  43.098   7.950
 5800POPC   C4A20394  26.798  43.103   7.650
 5800POPC   C1B20395  26.700  43.332   8.550
 5800POPC   C2B20396  26.705  43.347   8.250
 5800POPC   C3B20397  26.699  43.389   7.950
 5800POPC   C4B20398  26.753  43.334   7.650
 5801POPC   NC320399  30.679  33.010   9.450
 5801POPC   PO420400  30.652  33.039   9.150
 5801POPC   GL120401  30.723  33.029   8.850
 5801POPC   GL220402  30.697  32.883   8.850
 5801POPC   C1A20403  30.738  33.005   8.550
 5801POPC   D2A20404  30.702  32.988   8.250
 5801POPC   C3A20405  30.722  32.979   7.950
 5801POPC   C4A20406  30.740  33.039   7.650
 5801POPC   C1B20407  30.673  32.754   8.550
 5801POPC   C2B20408  30.718  32.737   8.250
 5801POPC   C3B20409  30.626  32.746   7.950
 5801POPC   C4B20410  30.644  32.757   7.650
 5802POPC   NC320411  44.691  39.276   9.450
 5802POPC   PO420412  44.695  39.213   9.150
 5802POPC   GL120413  44.630  39.190   8.850
 5802POPC   GL220414  44.770  39.103   8.850
 5802POPC   C1A20415  44.686  39.222   8.550
 5802POPC   D2A20416  44.663  39.265   8.250
 5802POPC   C3A20417  44.670  39.237   7.950
 5802POPC   C4A20418  44.693  39.273   7.650
 5802POPC   C1B20419  44.856  39.021   8.550
 5802POPC   C2B20420  44.858  39.084   8.250
 5802POPC   C3B20421  44.794  38.995   7.950
 5802POPC   C4B20422  44.793  39.072   7.650
 5803POPC   NC320423   8.219  43.863   9.450
 5803POPC   PO420424   8.221  43.846   9.150
 5803POPC   GL120425   8.183  43.908   8.850
 5803POPC   GL220426   8.115  43.986   8.850
 5803POPC   C1A20427   8.184  43.881   8.550
 5803POPC   D2A20428   8.217  43.884   8.250
 5803POPC   C3A20429   8.172  43.918   7.950
 5803POPC   C4A20430   8.209  43.886   7.650
 5803POPC   C1B20431   8.015  43.998   8.550
 5803POPC   C2B20432   7.983  43.971   8.250
 5803POPC   C3B20433   7.998  43.967   7.950
 5803POPC   C4B20434   7.940  43.945   7.650
 5804POPC   NC320435  29.192  22.157   9.450
 5804POPC   PO420436  29.194  22.115   9.150
 5804POPC   GL120437  29.120  22.120   8.850
 5804POPC   GL220438  29.121  22.272   8.850
 5804POPC   C1A20439  29.136  22.187   8.550
 5804POPC   D2A20440  29.152  22.166   8.250
 5804POPC   C3A20441  29.126  22.143   7.950
 5804POPC   C4A20442  29.148  22.172   7.650
 5804POPC   C1B20443  29.159  22.396   8.550
 5804POPC   C2B20444  29.181  22.438   8.250
 5804POPC   C3B20445  29.175  22.458   7.950
 5804POPC   C4B20446  29.202  22.403   7.650
 5805POPC   NC320447  17.499  11.346   9.450
 5805POPC   PO420448  17.538  11.310   9.150
 5805POPC   GL120449  17.536  11.267   8.850
 5805POPC   GL220450  17.475  11.129   8.850
 5805POPC   C1A20451  17.458  11.283   8.550
 5805POPC   D2A20452  17.492  11.342   8.250
 5805POPC   C3A20453  17.526  11.313   7.950
 5805POPC   C4A20454  17.466  11.312   7.650
 5805POPC   C1B20455  17.495  11.069   8.550
 5805POPC   C2B20456  17.422  11.020   8.250
 5805POPC   C3B20457  17.424  11.009   7.950
 5805POPC   C4B20458  17.444  11.085   7.650
 5806POPC   NC320459   6.656  19.851   9.450
 5806POPC   PO420460   6.691  19.842   9.150
 5806POPC   GL120461   6.636  19.854   8.850
 5806POPC   GL220462   6.660  19.989   8.850
 5806POPC   C1A20463   6.598  19.862   8.550
 5806POPC   D2A20464   6.633  19.869   8.250
 5806POPC   C3A20465   6.638  19.805   7.950
 5806POPC   C4A20466   6.599  19.882   7.650
 5806POPC   C1B20467   6.619  20.109   8.550
 5806POPC   C2B20468   6.613  20.089   8.250
 5806POPC   C3B20469   6.565  20.099   7.950
 5806POPC   C4B20470   6.580  20.130   7.650
 5807POPC   NC320471  14.433  33.830   9.450
 5807POPC   PO420472  14.417  33.785   9.150
 5807POPC   GL120473  14.424  33.777   8.850
 5807POPC   GL220474  14.321  33.742   8.850
 5807POPC   C1A20475  14.378  33.757   8.550
 5807POPC   D2A20476  14.415  33.761   8.250
 5807POPC   C3A20477  14.369  33.771   7.950
 5807POPC   C4A20478  14.450  33.784   7.650
 5807POPC   C1B20479  14.296  33.548   8.550
 5807POPC   C2B20480  14.240  33.561   8.250
 5807POPC   C3B20481  14.244  33.629   7.950
 5807POPC   C4B20482  14.251  33.633   7.650
 5808POPC   NC320483  14.434  43.148   9.450
 5808POPC   PO420484  14.400  43.134   9.150
 5808POPC   GL120485  14.435  43.110   8.850
 5808POPC   GL220486  14.545  43.076   8.850
 5808POPC   C1A20487  14.376  43.126   8.550
 5808POPC   D2A20488  14.355  43.100   8.250
 5808POPC   C3A20489  14.392  43.107   7.950
 5808POPC   C4A20490  14.453  43.092   7.650
 5808POPC   C1B20491  14.588  42.984   8.550
 5808POPC   C2B20492  14.562  42.959   8.250
 5808POPC   C3B20493  14.572  42.940   7.950
 5808POPC   C4B20494  14.563  42.934   7.650
 5809POPC   NC320495  24.442   8.988   9.450
 5809POPC   PO420496  24.514   8.944   9.150
 5809POPC   GL120497  24.487   9.004   8.850
 5809POPC   GL220498  24.426   9.031   8.850
 5809POPC   C1A20499  24.500   9.005   8.550
 5809POPC   D2A20500  24.457   8.986   8.250
 5809POPC   C3A20501  24.509   8.965   7.950
 5809POPC   C4A20502  24.511   8.932   7.650
 5809POPC   C1B20503  24.386   9.212   8.550
 5809POPC   C2B20504  24.361   9.143   8.250
 5809POPC   C3B20505  24.314   9.186   7.950
 5809POPC   C4B20506  24.375   9.206   7.650
 5810POPC   NC320507  26.073  26.022   9.450
 5810POPC   PO420508  26.020  26.082   9.150
 5810POPC   GL120509  26.053  26.007   8.850
 5810POPC   GL220510  26.102  25.903   8.850
 5810POPC   C1A20511  26.020  26.041   8.550
 5810POPC   D2A20512  26.081  26.049   8.250
 5810POPC   C3A20513  26.072  26.018   7.950
 5810POPC   C4A20514  26.046  26.085   7.650
 5810POPC   C1B20515  26.101  25.787   8.550
 5810POPC   C2B20516  26.127  25.815   8.250
 5810POPC   C3B20517  26.122  25.789   7.950
 5810POPC   C4B20518  26.094  25.829   7.650
 5811POPC   NC320519  19.879  26.804   9.450
 5811POPC   PO420520  19.879  26.858   9.150
 5811POPC   GL120521  19.822  26.793   8.850
 5811POPC   GL220522  19.729  26.857   8.850
 5811POPC   C1A20523  19.820  26.779   8.550
 5811POPC   D2A20524  19.870  26.854   8.250
 5811POPC   C3A20525  19.861  26.817   7.950
 5811POPC   C4A20526  19.840  26.771   7.650
 5811POPC   C1B20527  19.596  26.812   8.550
 5811POPC   C2B20528  19.595  26.825   8.250
 5811POPC   C3B20529  19.561  26.841   7.950
 5811POPC   C4B20530  19.566  26.858   7.650
 5812POPC   NC320531   7.454  39.251   9.450
 5812POPC   PO420532   7.425  39.221   9.150
 5812POPC   GL120533   7.447  39.267   8.850
 5812POPC   GL220534   7.528  39.285   8.850
 5812POPC   C1A20535   7.470  39.241   8.550
 5812POPC   D2A20536   7.443  39.183   8.250
 5812POPC   C3A20537   7.434  39.234   7.950
 5812POPC   C4A20538   7.429  39.185   7.650
 5812POPC   C1B20539   7.667  39.407   8.550
 5812POPC   C2B20540   7.640  39.365   8.250
 5812POPC   C3B20541   7.590  39.367   7.950
 5812POPC   C4B20542   7.656  39.332   7.650
 5813POPC   NC320543   1.173  43.064   9.450
 5813POPC   PO420544   1.258  43.113   9.150
 5813POPC   GL120545   1.164  43.083   8.850
 5813POPC   GL220546   1.296  43.064   8.850
 5813POPC   C1A20547   1.174  43.152   8.550
 5813POPC   D2A20548   1.180  43.133   8.250
 5813POPC   C3A20549   1.214  43.063   7.950
 5813POPC   C4A20550   1.175  43.116   7.650
 5813POPC   C1B20551   1.425  43.068   8.550
 5813POPC   C2B20552   1.455  43.039   8.250
 5813POPC   C3B20553   1.407  43.047   7.950
 5813POPC   C4B20554   1.450  43.019   7.650
 5814POPC   NC320555  36.914  39.250   9.450
 5814POPC   PO420556  36.949  39.275   9.150
 5814POPC   GL120557  36.856  39.262   8.850
 5814POPC   GL220558  36.964  39.320   8.850
 5814POPC   C1A20559  36.899  39.214   8.550
 5814POPC   D2A20560  36.893  39.239   8.250
 5814POPC   C3A20561  36.905  39.241   7.950
 5814POPC   C4A20562  36.859  39.262   7.650
 5814POPC   C1B20563  36.993  39.415   8.550
 5814POPC   C2B20564  37.028  39.504   8.250
 5814POPC   C3B20565  36.999  39.409   7.950
 5814POPC   C4B20566  36.975  39.503   7.650
 5815POPC   NC320567  36.101  29.906   9.450
 5815POPC   PO420568  36.102  29.908   9.150
 5815POPC   GL120569  36.094  29.969   8.850
 5815POPC   GL220570  36.041  29.978   8.850
 5815POPC   C1A20571  36.140  29.954   8.550
 5815POPC   D2A20572  36.114  29.961   8.250
 5815POPC   C3A20573  36.149  29.884   7.950
 5815POPC   C4A20574  36.100  29.871   7.650
 5815POPC   C1B20575  35.876  30.073   8.550
 5815POPC   C2B20576  35.897  30.067   8.250
 5815POPC   C3B20577  35.944  30.096   7.950
 5815POPC   C4B20578  35.940  30.029   7.650
 5816POPC   NC320579  37.668   2.800   9.450
 5816POPC   PO420580  37.714   2.776   9.150
 5816POPC   GL120581  37.683   2.796   8.850
 5816POPC   GL220582  37.610   2.815   8.850
 5816POPC   C1A20583  37.647   2.761   8.550
 5816POPC   D2A20584  37.631   2.716   8.250
 5816POPC   C3A20585  37.647   2.726   7.950
 5816POPC   C4A20586  37.635   2.740   7.650
 5816POPC   C1B20587  37.445   2.939   8.550
 5816POPC   C2B20588  37.504   2.896   8.250
 5816POPC   C3B20589  37.506   2.928   7.950
 5816POPC   C4B20590  37.490   2.893   7.650
 5817POPC   NC320591  19.844  25.259   9.450
 5817POPC   PO420592  19.814  25.230   9.150
 5817POPC   GL120593  19.821  25.279   8.850
 5817POPC   GL220594  19.798  25.340   8.850
 5817POPC   C1A20595  19.871  25.226   8.550
 5817POPC   D2A20596  19.863  25.281   8.250
 5817POPC   C3A20597  19.852  25.230   7.950
 5817POPC   C4A20598  19.841  25.284   7.650
 5817POPC   C1B20599  19.729  25.464   8.550
 5817POPC   C2B20600  19.696  25.429   8.250
 5817POPC   C3B20601  19.678  25.517   7.950
 5817POPC   C4B20602  19.730  25.457   7.650
 5818POPC   NC320603  41.561  30.709   9.450
 5818POPC   PO420604  41.583  30.647   9.150
 5818POPC   GL120605  41.608  30.686   8.850
 5818POPC   GL220606  41.618  30.659   8.850
 5818POPC   C1A20607  41.511  30.651   8.550
 5818POPC   D2A20608  41.602  30.717   8.250
 5818POPC   C3A20609  41.535  30.664   7.950
 5818POPC   C4A20610  41.595  30.746   7.650
 5818POPC   C1B20611  41.809  30.587   8.550
 5818POPC   C2B20612  41.796  30.563   8.250
 5818POPC   C3B20613  41.788  30.557   7.950
 5818POPC   C4B20614  41.752  30.552   7.650
 5819POPC   NC320615  28.324  27.584   9.450
 5819POPC   PO420616  28.334  27.574   9.150
 5819POPC   GL120617  28.392  27.639   8.850
 5819POPC   GL220618  28.217  27.579   8.850
 5819POPC   C1A20619  28.399  27.625   8.550
 5819POPC   D2A20620  28.331  27.588   8.250
 5819POPC   C3A20621  28.392  27.549   7.950
 5819POPC   C4A20622  28.407  27.615   7.650
 5819POPC   C1B20623  28.143  27.518   8.550
 5819POPC   C2B20624  28.117  27.462   8.250
 5819POPC   C3B20625  28.159  27.524   7.950
 5819POPC   C4B20626  28.168  27.471   7.650
 5820POPC   NC320627  20.635  23.691   9.450
 5820POPC   PO420628  20.634  23.711   9.150
 5820POPC   GL120629  20.598  23.719   8.850
 5820POPC   GL220630  20.486  23.723   8.850
 5820POPC   C1A20631  20.604  23.703   8.550
 5820POPC   D2A20632  20.642  23.715   8.250
 5820POPC   C3A20633  20.569  23.701   7.950
 5820POPC   C4A20634  20.636  23.694   7.650
 5820POPC   C1B20635  20.354  23.765   8.550
 5820POPC   C2B20636  20.331  23.816   8.250
 5820POPC   C3B20637  20.321  23.732   7.950
 5820POPC   C4B20638  20.398  23.818   7.650
 5821POPC   NC320639  33.789  19.066   9.450
 5821POPC   PO420640  33.758  19.049   9.150
 5821POPC   GL120641  33.829  19.016   8.850
 5821POPC   GL220642  33.694  18.925   8.850
 5821POPC   C1A20643  33.813  19.029   8.550
 5821POPC   D2A20644  33.823  19.069   8.250
 5821POPC   C3A20645  33.812  19.036   7.950
 5821POPC   C4A20646  33.806  19.033   7.650
 5821POPC   C1B20647  33.657  18.847   8.550
 5821POPC   C2B20648  33.696  18.816   8.250
 5821POPC   C3B20649  33.646  18.838   7.950
 5821POPC   C4B20650  33.671  18.879   7.650
 5822POPC   NC320651  37.723  34.606   9.450
 5822POPC   PO420652  37.700  34.560   9.150
 5822POPC   GL120653  37.710  34.621   8.850
 5822POPC   GL220654  37.774  34.658   8.850
 5822POPC   C1A20655  37.633  34.619   8.550
 5822POPC   D2A20656  37.656  34.533   8.250
 5822POPC   C3A20657  37.678  34.538   7.950
 5822POPC   C4A20658  37.701  34.542   7.650
 5822POPC   C1B20659  37.861  34.731   8.550
 5822POPC   C2B20660  37.879  34.767   8.250
 5822POPC   C3B20661  37.895  34.771   7.950
 5822POPC   C4B20662  37.864  34.766   7.650
 5823POPC   NC320663   5.828  26.042   9.450
 5823POPC   PO420664   5.899  26.058   9.150
 5823POPC   GL120665   5.861  26.026   8.850
 5823POPC   GL220666   5.813  26.128   8.850
 5823POPC   C1A20667   5.909  26.006   8.550
 5823POPC   D2A20668   5.908  26.083   8.250
 5823POPC   C3A20669   5.900  26.056   7.950
 5823POPC   C4A20670   5.896  26.055   7.650
 5823POPC   C1B20671   5.799  26.312   8.550
 5823POPC   C2B20672   5.797  26.323   8.250
 5823POPC   C3B20673   5.823  26.276   7.950
 5823POPC   C4B20674   5.850  26.274   7.650
 5824POPC   NC320675  38.487   3.567   9.450
 5824POPC   PO420676  38.492   3.495   9.150
 5824POPC   GL120677  38.458   3.513   8.850
 5824POPC   GL220678  38.360   3.476   8.850
 5824POPC   C1A20679  38.501   3.505   8.550
 5824POPC   D2A20680  38.492   3.573   8.250
 5824POPC   C3A20681  38.471   3.520   7.950
 5824POPC   C4A20682  38.491   3.559   7.650
 5824POPC   C1B20683  38.234   3.473   8.550
 5824POPC   C2B20684  38.277   3.407   8.250
 5824POPC   C3B20685  38.223   3.385   7.950
 5824POPC   C4B20686  38.209   3.419   7.650
 5825POPC   NC320687  44.630  22.185   9.450
 5825POPC   PO420688  44.685  22.117   9.150
 5825POPC   GL120689  44.703  22.139   8.850
 5825POPC   GL220690  44.583  22.175   8.850
 5825POPC   C1A20691  44.679  22.195   8.550
 5825POPC   D2A20692  44.643  22.187   8.250
 5825POPC   C3A20693  44.671  22.170   7.950
 5825POPC   C4A20694  44.640  22.186   7.650
 5825POPC   C1B20695  44.394  22.187   8.550
 5825POPC   C2B20696  44.411  22.238   8.250
 5825POPC   C3B20697  44.376  22.175   7.950
 5825POPC   C4B20698  44.371  22.252   7.650
 5826POPC   NC320699  19.860  18.273   9.450
 5826POPC   PO420700  19.801  18.239   9.150
 5826POPC   GL120701  19.821  18.234   8.850
 5826POPC   GL220702  20.006  18.270   8.850
 5826POPC   C1A20703  19.814  18.326   8.550
 5826POPC   D2A20704  19.873  18.269   8.250
 5826POPC   C3A20705  19.823  18.310   7.950
 5826POPC   C4A20706  19.862  18.308   7.650
 5826POPC   C1B20707  20.117  18.273   8.550
 5826POPC   C2B20708  20.118  18.255   8.250
 5826POPC   C3B20709  20.063  18.308   7.950
 5826POPC   C4B20710  20.110  18.226   7.650
 5827POPC   NC320711  12.829   8.197   9.450
 5827POPC   PO420712  12.855   8.216   9.150
 5827POPC   GL120713  12.889   8.234   8.850
 5827POPC   GL220714  12.976   8.078   8.850
 5827POPC   C1A20715  12.838   8.186   8.550
 5827POPC   D2A20716  12.885   8.161   8.250
 5827POPC   C3A20717  12.824   8.161   7.950
 5827POPC   C4A20718  12.839   8.170   7.650
 5827POPC   C1B20719  13.038   8.047   8.550
 5827POPC   C2B20720  13.085   8.047   8.250
 5827POPC   C3B20721  13.053   8.056   7.950
 5827POPC   C4B20722  13.078   8.065   7.650
 5828POPC   NC320723  10.540   1.972   9.450
 5828POPC   PO420724  10.570   2.017   9.150
 5828POPC   GL120725  10.565   2.022   8.850
 5828POPC   GL220726  10.634   1.951   8.850
 5828POPC   C1A20727  10.560   2.028   8.550
 5828POPC   D2A20728  10.485   1.943   8.250
 5828POPC   C3A20729  10.506   1.971   7.950
 5828POPC   C4A20730  10.541   2.032   7.650
 5828POPC   C1B20731  10.735   1.837   8.550
 5828POPC   C2B20732  10.722   1.856   8.250
 5828POPC   C3B20733  10.707   1.905   7.950
 5828POPC   C4B20734  10.734   1.874   7.650
 5829POPC   NC320735  20.576   1.979   9.450
 5829POPC   PO420736  20.596   2.008   9.150
 5829POPC   GL120737  20.632   2.037   8.850
 5829POPC   GL220738  20.750   2.070   8.850
 5829POPC   C1A20739  20.600   1.954   8.550
 5829POPC   D2A20740  20.580   1.950   8.250
 5829POPC   C3A20741  20.565   2.022   7.950
 5829POPC   C4A20742  20.601   1.942   7.650
 5829POPC   C1B20743  20.842   2.173   8.550
 5829POPC   C2B20744  20.773   2.160   8.250
 5829POPC   C3B20745  20.765   2.181   7.950
 5829POPC   C4B20746  20.813   2.189   7.650
 5830POPC   NC320747  37.674   6.639   9.450
 5830POPC   PO420748  37.661   6.610   9.150
 5830POPC   GL120749  37.676   6.619   8.850
 5830POPC   GL220750  37.593   6.551   8.850
 5830POPC   C1A20751  37.718   6.631   8.550
 5830POPC   D2A20752  37.723   6.693   8.250
 5830POPC   C3A20753  37.649   6.631   7.950
 5830POPC   C4A20754  37.656   6.666   7.650
 5830POPC   C1B20755  37.482   6.535   8.550
 5830POPC   C2B20756  37.407   6.511   8.250
 5830POPC   C3B20757  37.405   6.566   7.950
 5830POPC   C4B20758  37.423   6.545   7.650
 5831POPC   NC320759  19.088  23.679   9.450
 5831POPC   PO420760  19.040  23.676   9.150
 5831POPC   GL120761  19.080  23.704   8.850
 5831POPC   GL220762  19.225  23.752   8.850
 5831POPC   C1A20763  19.070  23.737   8.550
 5831POPC   D2A20764  19.062  23.709   8.250
 5831POPC   C3A20765  19.078  23.711   7.950
 5831POPC   C4A20766  19.079  23.704   7.650
 5831POPC   C1B20767  19.267  23.771   8.550
 5831POPC   C2B20768  19.358  23.771   8.250
 5831POPC   C3B20769  19.297  23.687   7.950
 5831POPC   C4B20770  19.284  23.757   7.650
 5832POPC   NC320771  41.513   5.127   9.450
 5832POPC   PO420772  41.603   5.046   9.150
 5832POPC   GL120773  41.527   5.138   8.850
 5832POPC   GL220774  41.592   5.196   8.850
 5832POPC   C1A20775  41.531   5.055   8.550
 5832POPC   D2A20776  41.532   5.090   8.250
 5832POPC   C3A20777  41.514   5.124   7.950
 5832POPC   C4A20778  41.554   5.135   7.650
 5832POPC   C1B20779  41.696   5.281   8.550
 5832POPC   C2B20780  41.668   5.288   8.250
 5832POPC   C3B20781  41.683   5.333   7.950
 5832POPC   C4B20782  41.652   5.344   7.650
 5833POPC   NC320783  35.353  43.873   9.450
 5833POPC   PO420784  35.388  43.856   9.150
 5833POPC   GL120785  35.364  43.875   8.850
 5833POPC   GL220786  35.341  44.047   8.850
 5833POPC   C1A20787  35.358  43.879   8.550
 5833POPC   D2A20788  35.372  43.855   8.250
 5833POPC   C3A20789  35.328  43.846   7.950
 5833POPC   C4A20790  35.372  43.894   7.650
 5833POPC   C1B20791  35.374  44.166   8.550
 5833POPC   C2B20792  35.387  44.110   8.250
 5833POPC   C3B20793  35.343  44.128   7.950
 5833POPC   C4B20794  35.353  44.121   7.650
 5834POPC   NC320795  34.563  11.342   9.450
 5834POPC   PO420796  34.578  11.329   9.150
 5834POPC   GL120797  34.569  11.310   8.850
 5834POPC   GL220798  34.440  11.303   8.850
 5834POPC   C1A20799  34.577  11.257   8.550
 5834POPC   D2A20800  34.565  11.328   8.250
 5834POPC   C3A20801  34.548  11.252   7.950
 5834POPC   C4A20802  34.531  11.310   7.650
 5834POPC   C1B20803  34.338  11.297   8.550
 5834POPC   C2B20804  34.351  11.368   8.250
 5834POPC   C3B20805  34.349  11.375   7.950
 5834POPC   C4B20806  34.348  11.323   7.650
 5835POPC   NC320807  23.685  19.101   9.450
 5835POPC   PO420808  23.667  19.069   9.150
 5835POPC   GL120809  23.711  19.094   8.850
 5835POPC   GL220810  23.664  19.142   8.850
 5835POPC   C1A20811  23.703  19.085   8.550
 5835POPC   D2A20812  23.733  19.070   8.250
 5835POPC   C3A20813  23.718  19.024   7.950
 5835POPC   C4A20814  23.670  19.060   7.650
 5835POPC   C1B20815  23.483  19.183   8.550
 5835POPC   C2B20816  23.496  19.224   8.250
 5835POPC   C3B20817  23.517  19.199   7.950
 5835POPC   C4B20818  23.490  19.220   7.650
 5836POPC   NC320819  19.070  10.502   9.450
 5836POPC   PO420820  19.086  10.521   9.150
 5836POPC   GL120821  19.104  10.566   8.850
 5836POPC   GL220822  19.053  10.396   8.850
 5836POPC   C1A20823  19.102  10.550   8.550
 5836POPC   D2A20824  19.074  10.527   8.250
 5836POPC   C3A20825  19.095  10.548   7.950
 5836POPC   C4A20826  19.052  10.551   7.650
 5836POPC   C1B20827  19.020  10.250   8.550
 5836POPC   C2B20828  19.058  10.238   8.250
 5836POPC   C3B20829  19.003  10.226   7.950
 5836POPC   C4B20830  19.054  10.294   7.650
 5837POPC   NC320831  16.694  37.721   9.450
 5837POPC   PO420832  16.756  37.646   9.150
 5837POPC   GL120833  16.756  37.721   8.850
 5837POPC   GL220834  16.861  37.733   8.850
 5837POPC   C1A20835  16.757  37.674   8.550
 5837POPC   D2A20836  16.760  37.629   8.250
 5837POPC   C3A20837  16.780  37.643   7.950
 5837POPC   C4A20838  16.691  37.645   7.650
 5837POPC   C1B20839  16.963  37.867   8.550
 5837POPC   C2B20840  16.978  37.796   8.250
 5837POPC   C3B20841  16.959  37.785   7.950
 5837POPC   C4B20842  16.901  37.868   7.650
 5838POPC   NC320843   4.359  25.304   9.450
 5838POPC   PO420844   4.311  25.305   9.150
 5838POPC   GL120845   4.343  25.229   8.850
 5838POPC   GL220846   4.222  25.159   8.850
 5838POPC   C1A20847   4.367  25.243   8.550
 5838POPC   D2A20848   4.308  25.306   8.250
 5838POPC   C3A20849   4.322  25.226   7.950
 5838POPC   C4A20850   4.302  25.233   7.650
 5838POPC   C1B20851   4.213  25.007   8.550
 5838POPC   C2B20852   4.136  25.054   8.250
 5838POPC   C3B20853   4.203  25.042   7.950
 5838POPC   C4B20854   4.192  25.025   7.650
 5839POPC   NC320855   9.736  15.144   9.450
 5839POPC   PO420856   9.745  15.210   9.150
 5839POPC   GL120857   9.719  15.200   8.850
 5839POPC   GL220858   9.895  15.234   8.850
 5839POPC   C1A20859   9.727  15.196   8.550
 5839POPC   D2A20860   9.781  15.229   8.250
 5839POPC   C3A20861   9.761  15.213   7.950
 5839POPC   C4A20862   9.707  15.146   7.650
 5839POPC   C1B20863   9.950  15.289   8.550
 5839POPC   C2B20864  10.025  15.254   8.250
 5839POPC   C3B20865  10.003  15.280   7.950
 5839POPC   C4B20866  10.028  15.269   7.650
 5840POPC   NC320867   9.011  29.190   9.450
 5840POPC   PO420868   8.985  29.166   9.150
 5840POPC   GL120869   8.977  29.127   8.850
 5840POPC   GL220870   8.942  29.238   8.850
 5840POPC   C1A20871   8.974  29.146   8.550
 5840POPC   D2A20872   8.993  29.125   8.250
 5840POPC   C3A20873   8.953  29.107   7.950
 5840POPC   C4A20874   8.969  29.187   7.650
 5840POPC   C1B20875   9.044  29.437   8.550
 5840POPC   C2B20876   9.010  29.378   8.250
 5840POPC   C3B20877   8.958  29.439   7.950
 5840POPC   C4B20878   8.953  29.412   7.650
 5841POPC   NC320879  28.396  31.494   9.450
 5841POPC   PO420880  28.341  31.453   9.150
 5841POPC   GL120881  28.351  31.437   8.850
 5841POPC   GL220882  28.344  31.369   8.850
 5841POPC   C1A20883  28.366  31.462   8.550
 5841POPC   D2A20884  28.332  31.499   8.250
 5841POPC   C3A20885  28.412  31.512   7.950
 5841POPC   C4A20886  28.362  31.430   7.650
 5841POPC   C1B20887  28.319  31.230   8.550
 5841POPC   C2B20888  28.352  31.207   8.250
 5841POPC   C3B20889  28.347  31.225   7.950
 5841POPC   C4B20890  28.357  31.200   7.650
 5842POPC   NC320891  39.269  44.627   9.450
 5842POPC   PO420892  39.247  44.642   9.150
 5842POPC   GL120893  39.183  44.669   8.850
 5842POPC   GL220894  39.100  44.622   8.850
 5842POPC   C1A20895  39.268  44.638   8.550
 5842POPC   D2A20896  39.268  44.656   8.250
 5842POPC   C3A20897  39.274  44.710   7.950
 5842POPC   C4A20898  39.271  44.686   7.650
 5842POPC   C1B20899  38.982  44.569   8.550
 5842POPC   C2B20900  39.044  44.576   8.250
 5842POPC   C3B20901  39.028  44.543   7.950
 5842POPC   C4B20902  39.004  44.596   7.650
 5843POPC   NC320903  43.874   5.109   9.450
 5843POPC   PO420904  43.880   5.088   9.150
 5843POPC   GL120905  43.933   5.069   8.850
 5843POPC   GL220906  43.784   5.126   8.850
 5843POPC   C1A20907  43.878   5.045   8.550
 5843POPC   D2A20908  43.918   5.048   8.250
 5843POPC   C3A20909  43.910   5.086   7.950
 5843POPC   C4A20910  43.884   5.046   7.650
 5843POPC   C1B20911  43.653   5.233   8.550
 5843POPC   C2B20912  43.633   5.227   8.250
 5843POPC   C3B20913  43.635   5.206   7.950
 5843POPC   C4B20914  43.645   5.240   7.650
 5844POPC   NC320915  30.657  33.768   9.450
 5844POPC   PO420916  30.647  33.841   9.150
 5844POPC   GL120917  30.735  33.842   8.850
 5844POPC   GL220918  30.727  33.724   8.850
 5844POPC   C1A20919  30.705  33.824   8.550
 5844POPC   D2A20920  30.719  33.846   8.250
 5844POPC   C3A20921  30.661  33.838   7.950
 5844POPC   C4A20922  30.653  33.781   7.650
 5844POPC   C1B20923  30.758  33.534   8.550
 5844POPC   C2B20924  30.734  33.542   8.250
 5844POPC   C3B20925  30.727  33.510   7.950
 5844POPC   C4B20926  30.730  33.511   7.650
 5845POPC   NC320927  26.787  43.929   9.450
 5845POPC   PO420928  26.811  43.872   9.150
 5845POPC   GL120929  26.837  43.850   8.850
 5845POPC   GL220930  26.872  43.743   8.850
 5845POPC   C1A20931  26.769  43.906   8.550
 5845POPC   D2A20932  26.853  43.922   8.250
 5845POPC   C3A20933  26.819  43.837   7.950
 5845POPC   C4A20934  26.779  43.886   7.650
 5845POPC   C1B20935  26.975  43.642   8.550
 5845POPC   C2B20936  27.001  43.736   8.250
 5845POPC   C3B20937  26.997  43.731   7.950
 5845POPC   C4B20938  27.020  43.647   7.650
 5846POPC   NC320939  29.134  35.313   9.450
 5846POPC   PO420940  29.149  35.397   9.150
 5846POPC   GL120941  29.191  35.383   8.850
 5846POPC   GL220942  29.193  35.185   8.850
 5846POPC   C1A20943  29.145  35.370   8.550
 5846POPC   D2A20944  29.117  35.305   8.250
 5846POPC   C3A20945  29.180  35.372   7.950
 5846POPC   C4A20946  29.156  35.342   7.650
 5846POPC   C1B20947  29.143  35.054   8.550
 5846POPC   C2B20948  29.132  35.105   8.250
 5846POPC   C3B20949  29.160  35.062   7.950
 5846POPC   C4B20950  29.183  35.134   7.650
 5847POPC   NC320951   7.413  27.614   9.450
 5847POPC   PO420952   7.410  27.576   9.150
 5847POPC   GL120953   7.418  27.561   8.850
 5847POPC   GL220954   7.519  27.535   8.850
 5847POPC   C1A20955   7.420  27.620   8.550
 5847POPC   D2A20956   7.427  27.577   8.250
 5847POPC   C3A20957   7.460  27.635   7.950
 5847POPC   C4A20958   7.389  27.562   7.650
 5847POPC   C1B20959   7.685  27.530   8.550
 5847POPC   C2B20960   7.656  27.613   8.250
 5847POPC   C3B20961   7.646  27.567   7.950
 5847POPC   C4B20962   7.681  27.526   7.650
 5848POPC   NC320963  29.163  24.513   9.450
 5848POPC   PO420964  29.122  24.487   9.150
 5848POPC   GL120965  29.143  24.491   8.850
 5848POPC   GL220966  29.247  24.606   8.850
 5848POPC   C1A20967  29.161  24.452   8.550
 5848POPC   D2A20968  29.176  24.493   8.250
 5848POPC   C3A20969  29.106  24.504   7.950
 5848POPC   C4A20970  29.138  24.506   7.650
 5848POPC   C1B20971  29.315  24.693   8.550
 5848POPC   C2B20972  29.296  24.712   8.250
 5848POPC   C3B20973  29.361  24.633   7.950
 5848POPC   C4B20974  29.355  24.638   7.650
 5849POPC   NC320975   5.094  29.113   9.450
 5849POPC   PO420976   5.094  29.097   9.150
 5849POPC   GL120977   5.097  29.158   8.850
 5849POPC   GL220978   5.199  29.162   8.850
 5849POPC   C1A20979   5.079  29.099   8.550
 5849POPC   D2A20980   5.092  29.129   8.250
 5849POPC   C3A20981   5.136  29.107   7.950
 5849POPC   C4A20982   5.072  29.153   7.650
 5849POPC   C1B20983   5.318  29.251   8.550
 5849POPC   C2B20984   5.302  29.278   8.250
 5849POPC   C3B20985   5.312  29.227   7.950
 5849POPC   C4B20986   5.346  29.225   7.650
 5850POPC   NC320987  25.996  12.845   9.450
 5850POPC   PO420988  26.060  12.864   9.150
 5850POPC   GL120989  26.075  12.883   8.850
 5850POPC   GL220990  26.119  12.769   8.850
 5850POPC   C1A20991  26.037  12.861   8.550
 5850POPC   D2A20992  26.074  12.837   8.250
 5850POPC   C3A20993  26.013  12.889   7.950
 5850POPC   C4A20994  26.026  12.834   7.650
 5850POPC   C1B20995  26.258  12.651   8.550
 5850POPC   C2B20996  26.266  12.667   8.250
 5850POPC   C3B20997  26.231  12.650   7.950
 5850POPC   C4B20998  26.239  12.716   7.650
 5851POPC   NC320999   1.172   3.590   9.450
 5851POPC   PO421000   1.261   3.571   9.150
 5851POPC   GL121001   1.234   3.547   8.850
 5851POPC   GL221002   1.160   3.378   8.850
 5851POPC   C1A21003   1.260   3.541   8.550
 5851POPC   D2A21004   1.197   3.543   8.250
 5851POPC   C3A21005   1.178   3.564   7.950
 5851POPC   C4A21006   1.193   3.536   7.650
 5851POPC   C1B21007   1.245   3.269   8.550
 5851POPC   C2B21008   1.149   3.273   8.250
 5851POPC   C3B21009   1.230   3.292   7.950
 5851POPC   C4B21010   1.150   3.249   7.650
 5852POPC   NC321011  19.855   5.908   9.450
 5852POPC   PO421012  19.868   5.912   9.150
 5852POPC   GL121013  19.828   5.918   8.850
 5852POPC   GL221014  19.830   5.726   8.850
 5852POPC   C1A21015  19.805   5.870   8.550
 5852POPC   D2A21016  19.872   5.850   8.250
 5852POPC   C3A21017  19.813   5.894   7.950
 5852POPC   C4A21018  19.811   5.842   7.650
 5852POPC   C1B21019  19.835   5.617   8.550
 5852POPC   C2B21020  19.835   5.579   8.250
 5852POPC   C3B21021  19.847   5.593   7.950
 5852POPC   C4B21022  19.822   5.644   7.650
 5853POPC   NC321023  43.897  20.585   9.450
 5853POPC   PO421024  43.918  20.585   9.150
 5853POPC   GL121025  43.883  20.658   8.850
 5853POPC   GL221026  43.801  20.762   8.850
 5853POPC   C1A21027  43.844  20.599   8.550
 5853POPC   D2A21028  43.838  20.645   8.250
 5853POPC   C3A21029  43.923  20.577   7.950
 5853POPC   C4A21030  43.860  20.659   7.650
 5853POPC   C1B21031  43.754  20.833   8.550
 5853POPC   C2B21032  43.818  20.850   8.250
 5853POPC   C3B21033  43.825  20.811   7.950
 5853POPC   C4B21034  43.767  20.888   7.650
 5854POPC   NC321035  23.734  14.398   9.450
 5854POPC   PO421036  23.763  14.448   9.150
 5854POPC   GL121037  23.682  14.393   8.850
 5854POPC   GL221038  23.636  14.503   8.850
 5854POPC   C1A21039  23.719  14.392   8.550
 5854POPC   D2A21040  23.734  14.413   8.250
 5854POPC   C3A21041  23.757  14.413   7.950
 5854POPC   C4A21042  23.687  14.413   7.650
 5854POPC   C1B21043  23.563  14.611   8.550
 5854POPC   C2B21044  23.558  14.590   8.250
 5854POPC   C3B21045  23.589  14.607   7.950
 5854POPC   C4B21046  23.582  14.552   7.650
 5855POPC   NC321047  36.912  22.900   9.450
 5855POPC   PO421048  36.951  22.956   9.150
 5855POPC   GL121049  36.858  22.960   8.850
 5855POPC   GL221050  37.040  22.921   8.850
 5855POPC   C1A21051  36.925  22.961   8.550
 5855POPC   D2A21052  36.886  22.929   8.250
 5855POPC   C3A21053  36.867  22.952   7.950
 5855POPC   C4A21054  36.864  22.908   7.650
 5855POPC   C1B21055  37.091  22.836   8.550
 5855POPC   C2B21056  37.111  22.855   8.250
 5855POPC   C3B21057  37.090  22.848   7.950
 5855POPC   C4B21058  37.092  22.845   7.650
 5856POPC   NC321059  12.892  38.495   9.450
 5856POPC   PO421060  12.885  38.478   9.150
 5856POPC   GL121061  12.871  38.471   8.850
 5856POPC   GL221062  12.921  38.405   8.850
 5856POPC   C1A21063  12.855  38.432   8.550
 5856POPC   D2A21064  12.828  38.430   8.250
 5856POPC   C3A21065  12.881  38.441   7.950
 5856POPC   C4A21066  12.867  38.446   7.650
 5856POPC   C1B21067  12.993  38.265   8.550
 5856POPC   C2B21068  13.022  38.235   8.250
 5856POPC   C3B21069  13.015  38.269   7.950
 5856POPC   C4B21070  13.000  38.301   7.650
 5857POPC   NC321071  31.488  42.301   9.450
 5857POPC   PO421072  31.426  42.297   9.150
 5857POPC   GL121073  31.463  42.319   8.850
 5857POPC   GL221074  31.360  42.279   8.850
 5857POPC   C1A21075  31.496  42.285   8.550
 5857POPC   D2A21076  31.431  42.336   8.250
 5857POPC   C3A21077  31.483  42.335   7.950
 5857POPC   C4A21078  31.474  42.348   7.650
 5857POPC   C1B21079  31.244  42.298   8.550
 5857POPC   C2B21080  31.278  42.270   8.250
 5857POPC   C3B21081  31.190  42.292   7.950
 5857POPC   C4B21082  31.227  42.281   7.650
 5858POPC   NC321083  36.135   5.045   9.450
 5858POPC   PO421084  36.151   5.073   9.150
 5858POPC   GL121085  36.102   5.066   8.850
 5858POPC   GL221086  36.177   5.156   8.850
 5858POPC   C1A21087  36.138   5.046   8.550
 5858POPC   D2A21088  36.090   5.047   8.250
 5858POPC   C3A21089  36.145   5.050   7.950
 5858POPC   C4A21090  36.165   5.128   7.650
 5858POPC   C1B21091  36.303   5.305   8.550
 5858POPC   C2B21092  36.253   5.309   8.250
 5858POPC   C3B21093  36.287   5.337   7.950
 5858POPC   C4B21094  36.316   5.318   7.650
 5859POPC   NC321095  43.119  16.720   9.450
 5859POPC   PO421096  43.064  16.719   9.150
 5859POPC   GL121097  43.090  16.751   8.850
 5859POPC   GL221098  42.999  16.809   8.850
 5859POPC   C1A21099  43.122  16.710   8.550
 5859POPC   D2A21100  43.068  16.750   8.250
 5859POPC   C3A21101  43.092  16.763   7.950
 5859POPC   C4A21102  43.107  16.704   7.650
 5859POPC   C1B21103  42.912  16.811   8.550
 5859POPC   C2B21104  42.851  16.834   8.250
 5859POPC   C3B21105  42.839  16.763   7.950
 5859POPC   C4B21106  42.873  16.833   7.650
 5860POPC   NC321107  15.160  19.080   9.450
 5860POPC   PO421108  15.199  19.046   9.150
 5860POPC   GL121109  15.160  19.070   8.850
 5860POPC   GL221110  15.157  18.943   8.850
 5860POPC   C1A21111  15.225  19.039   8.550
 5860POPC   D2A21112  15.187  19.083   8.250
 5860POPC   C3A21113  15.222  19.049   7.950
 5860POPC   C4A21114  15.193  19.064   7.650
 5860POPC   C1B21115  15.024  18.861   8.550
 5860POPC   C2B21116  15.016  18.821   8.250
 5860POPC   C3B21117  15.055  18.892   7.950
 5860POPC   C4B21118  15.091  18.813   7.650
 5861POPC   NC321119  35.360  22.927   9.450
 5861POPC   PO421120  35.334  22.898   9.150
 5861POPC   GL121121  35.401  22.976   8.850
 5861POPC   GL221122  35.296  22.990   8.850
 5861POPC   C1A21123  35.374  22.928   8.550
 5861POPC   D2A21124  35.325  22.921   8.250
 5861POPC   C3A21125  35.340  22.914   7.950
 5861POPC   C4A21126  35.360  22.956   7.650
 5861POPC   C1B21127  35.168  23.115   8.550
 5861POPC   C2B21128  35.235  23.153   8.250
 5861POPC   C3B21129  35.174  23.122   7.950
 5861POPC   C4B21130  35.227  23.101   7.650
 5862POPC   NC321131  36.145  38.474   9.450
 5862POPC   PO421132  36.100  38.433   9.150
 5862POPC   GL121133  36.167  38.503   8.850
 5862POPC   GL221134  36.197  38.438   8.850
 5862POPC   C1A21135  36.151  38.413   8.550
 5862POPC   D2A21136  36.078  38.425   8.250
 5862POPC   C3A21137  36.148  38.423   7.950
 5862POPC   C4A21138  36.123  38.503   7.650
 5862POPC   C1B21139  36.391  38.342   8.550
 5862POPC   C2B21140  36.371  38.368   8.250
 5862POPC   C3B21141  36.310  38.381   7.950
 5862POPC   C4B21142  36.311  38.385   7.650
 5863POPC   NC321143  34.616  34.538   9.450
 5863POPC   PO421144  34.568  34.609   9.150
 5863POPC   GL121145  34.574  34.532   8.850
 5863POPC   GL221146  34.547  34.644   8.850
 5863POPC   C1A21147  34.579  34.581   8.550
 5863POPC   D2A21148  34.608  34.608   8.250
 5863POPC   C3A21149  34.574  34.553   7.950
 5863POPC   C4A21150  34.598  34.600   7.650
 5863POPC   C1B21151  34.445  34.790   8.550
 5863POPC   C2B21152  34.493  34.812   8.250
 5863POPC   C3B21153  34.453  34.786   7.950
 5863POPC   C4B21154  34.469  34.826   7.650
 5864POPC   NC321155  40.757  31.514   9.450
 5864POPC   PO421156  40.743  31.497   9.150
 5864POPC   GL121157  40.822  31.514   8.850
 5864POPC   GL221158  40.800  31.603   8.850
 5864POPC   C1A21159  40.818  31.432   8.550
 5864POPC   D2A21160  40.741  31.507   8.250
 5864POPC   C3A21161  40.821  31.493   7.950
 5864POPC   C4A21162  40.764  31.426   7.650
 5864POPC   C1B21163  40.887  31.651   8.550
 5864POPC   C2B21164  40.866  31.685   8.250
 5864POPC   C3B21165  40.934  31.700   7.950
 5864POPC   C4B21166  40.907  31.678   7.650
 5865POPC   NC321167  15.215  22.168   9.450
 5865POPC   PO421168  15.133  22.112   9.150
 5865POPC   GL121169  15.187  22.150   8.850
 5865POPC   GL221170  15.141  22.259   8.850
 5865POPC   C1A21171  15.187  22.129   8.550
 5865POPC   D2A21172  15.185  22.207   8.250
 5865POPC   C3A21173  15.188  22.210   7.950
 5865POPC   C4A21174  15.213  22.152   7.650
 5865POPC   C1B21175  15.044  22.360   8.550
 5865POPC   C2B21176  15.034  22.403   8.250
 5865POPC   C3B21177  15.006  22.339   7.950
 5865POPC   C4B21178  15.059  22.396   7.650
 5866POPC   NC321179  26.820  15.974   9.450
 5866POPC   PO421180  26.861  15.991   9.150
 5866POPC   GL121181  26.849  15.982   8.850
 5866POPC   GL221182  26.966  15.871   8.850
 5866POPC   C1A21183  26.845  15.962   8.550
 5866POPC   D2A21184  26.783  15.917   8.250
 5866POPC   C3A21185  26.787  15.913   7.950
 5866POPC   C4A21186  26.788  15.998   7.650
 5866POPC   C1B21187  27.008  15.844   8.550
 5866POPC   C2B21188  27.089  15.810   8.250
 5866POPC   C3B21189  27.019  15.881   7.950
 5866POPC   C4B21190  27.053  15.881   7.650
 5867POPC   NC321191   3.533  33.012   9.450
 5867POPC   PO421192   3.518  33.005   9.150
 5867POPC   GL121193   3.571  33.015   8.850
 5867POPC   GL221194   3.513  32.879   8.850
 5867POPC   C1A21195   3.532  33.037   8.550
 5867POPC   D2A21196   3.529  33.043   8.250
 5867POPC   C3A21197   3.516  32.982   7.950
 5867POPC   C4A21198   3.509  33.063   7.650
 5867POPC   C1B21199   3.564  32.770   8.550
 5867POPC   C2B21200   3.543  32.734   8.250
 5867POPC   C3B21201   3.572  32.812   7.950
 5867POPC   C4B21202   3.599  32.774   7.650
 5868POPC   NC321203  19.844  23.717   9.450
 5868POPC   PO421204  19.859  23.691   9.150
 5868POPC   GL121205  19.796  23.724   8.850
 5868POPC   GL221206  19.805  23.638   8.850
 5868POPC   C1A21207  19.830  23.737   8.550
 5868POPC   D2A21208  19.824  23.687   8.250
 5868POPC   C3A21209  19.838  23.697   7.950
 5868POPC   C4A21210  19.815  23.704   7.650
 5868POPC   C1B21211  19.714  23.498   8.550
 5868POPC   C2B21212  19.770  23.440   8.250
 5868POPC   C3B21213  19.764  23.454   7.950
 5868POPC   C4B21214  19.692  23.445   7.650
 5869POPC   NC321215   6.670   2.814   9.450
 5869POPC   PO421216   6.599   2.790   9.150
 5869POPC   GL121217   6.680   2.722   8.850
 5869POPC   GL221218   6.510   2.753   8.850
 5869POPC   C1A21219   6.629   2.723   8.550
 5869POPC   D2A21220   6.619   2.752   8.250
 5869POPC   C3A21221   6.598   2.737   7.950
 5869POPC   C4A21222   6.603   2.725   7.650
 5869POPC   C1B21223   6.393   2.756   8.550
 5869POPC   C2B21224   6.372   2.665   8.250
 5869POPC   C3B21225   6.425   2.691   7.950
 5869POPC   C4B21226   6.388   2.709   7.650
 5870POPC   NC321227  38.411  12.119   9.450
 5870POPC   PO421228  38.420  12.075   9.150
 5870POPC   GL121229  38.412  12.092   8.850
 5870POPC   GL221230  38.521  12.166   8.850
 5870POPC   C1A21231  38.493  12.047   8.550
 5870POPC   D2A21232  38.497  12.027   8.250
 5870POPC   C3A21233  38.407  12.094   7.950
 5870POPC   C4A21234  38.410  12.089   7.650
 5870POPC   C1B21235  38.675  12.231   8.550
 5870POPC   C2B21236  38.632  12.269   8.250
 5870POPC   C3B21237  38.688  12.221   7.950
 5870POPC   C4B21238  38.694  12.271   7.650
 5871POPC   NC321239  29.924  26.084   9.450
 5871POPC   PO421240  29.887  26.063   9.150
 5871POPC   GL121241  29.875  26.010   8.850
 5871POPC   GL221242  30.050  26.143   8.850
 5871POPC   C1A21243  29.937  26.013   8.550
 5871POPC   D2A21244  29.878  26.005   8.250
 5871POPC   C3A21245  29.877  26.003   7.950
 5871POPC   C4A21246  29.930  25.997   7.650
 5871POPC   C1B21247  30.078  26.157   8.550
 5871POPC   C2B21248  30.108  26.155   8.250
 5871POPC   C3B21249  30.139  26.162   7.950
 5871POPC   C4B21250  30.093  26.187   7.650
 5872POPC   NC321251  31.510  29.961   9.450
 5872POPC   PO421252  31.442  29.948   9.150
 5872POPC   GL121253  31.504  29.878   8.850
 5872POPC   GL221254  31.564  30.021   8.850
 5872POPC   C1A21255  31.491  29.946   8.550
 5872POPC   D2A21256  31.514  29.914   8.250
 5872POPC   C3A21257  31.497  29.918   7.950
 5872POPC   C4A21258  31.462  29.879   7.650
 5872POPC   C1B21259  31.657  30.022   8.550
 5872POPC   C2B21260  31.690  30.058   8.250
 5872POPC   C3B21261  31.676  30.035   7.950
 5872POPC   C4B21262  31.666  30.049   7.650
 5873POPC   NC321263  28.345  19.859   9.450
 5873POPC   PO421264  28.325  19.805   9.150
 5873POPC   GL121265  28.357  19.810   8.850
 5873POPC   GL221266  28.249  19.770   8.850
 5873POPC   C1A21267  28.402  19.793   8.550
 5873POPC   D2A21268  28.343  19.792   8.250
 5873POPC   C3A21269  28.332  19.800   7.950
 5873POPC   C4A21270  28.395  19.857   7.650
 5873POPC   C1B21271  28.199  19.659   8.550
 5873POPC   C2B21272  28.192  19.747   8.250
 5873POPC   C3B21273  28.189  19.662   7.950
 5873POPC   C4B21274  28.110  19.727   7.650
 5874POPC   NC321275  36.895  41.530   9.450
 5874POPC   PO421276  36.901  41.511   9.150
 5874POPC   GL121277  36.860  41.539   8.850
 5874POPC   GL221278  36.918  41.417   8.850
 5874POPC   C1A21279  36.949  41.513   8.550
 5874POPC   D2A21280  36.895  41.556   8.250
 5874POPC   C3A21281  36.895  41.581   7.950
 5874POPC   C4A21282  36.870  41.597   7.650
 5874POPC   C1B21283  36.843  41.310   8.550
 5874POPC   C2B21284  36.848  41.305   8.250
 5874POPC   C3B21285  36.891  41.328   7.950
 5874POPC   C4B21286  36.889  41.316   7.650
 5875POPC   NC321287  32.222  33.806   9.450
 5875POPC   PO421288  32.261  33.776   9.150
 5875POPC   GL121289  32.243  33.817   8.850
 5875POPC   GL221290  32.262  33.723   8.850
 5875POPC   C1A21291  32.235  33.797   8.550
 5875POPC   D2A21292  32.216  33.752   8.250
 5875POPC   C3A21293  32.278  33.796   7.950
 5875POPC   C4A21294  32.238  33.750   7.650
 5875POPC   C1B21295  32.209  33.538   8.550
 5875POPC   C2B21296  32.165  33.531   8.250
 5875POPC   C3B21297  32.172  33.522   7.950
 5875POPC   C4B21298  32.203  33.546   7.650
 5876POPC   NC321299  17.528   0.430   9.450
 5876POPC   PO421300  17.535   0.433   9.150
 5876POPC   GL121301  17.475   0.473   8.850
 5876POPC   GL221302  17.600   0.513   8.850
 5876POPC   C1A21303  17.472   0.394   8.550
 5876POPC   D2A21304  17.482   0.452   8.250
 5876POPC   C3A21305  17.499   0.442   7.950
 5876POPC   C4A21306  17.529   0.465   7.650
 5876POPC   C1B21307  17.711   0.552   8.550
 5876POPC   C2B21308  17.703   0.529   8.250
 5876POPC   C3B21309  17.722   0.536   7.950
 5876POPC   C4B21310  17.738   0.556   7.650
 5877POPC   NC321311  18.325   3.545   9.450
 5877POPC   PO421312  18.247   3.563   9.150
 5877POPC   GL121313  18.233   3.584   8.850
 5877POPC   GL221314  18.195   3.631   8.850
 5877POPC   C1A21315  18.267   3.552   8.550
 5877POPC   D2A21316  18.239   3.587   8.250
 5877POPC   C3A21317  18.287   3.584   7.950
 5877POPC   C4A21318  18.264   3.508   7.650
 5877POPC   C1B21319  18.192   3.808   8.550
 5877POPC   C2B21320  18.234   3.791   8.250
 5877POPC   C3B21321  18.210   3.722   7.950
 5877POPC   C4B21322  18.200   3.810   7.650
 5878POPC   NC321323  19.810  32.261   9.450
 5878POPC   PO421324  19.883  32.227   9.150
 5878POPC   GL121325  19.860  32.263   8.850
 5878POPC   GL221326  19.692  32.352   8.850
 5878POPC   C1A21327  19.866  32.288   8.550
 5878POPC   D2A21328  19.801  32.223   8.250
 5878POPC   C3A21329  19.871  32.204   7.950
 5878POPC   C4A21330  19.831  32.202   7.650
 5878POPC   C1B21331  19.644  32.417   8.550
 5878POPC   C2B21332  19.602  32.420   8.250
 5878POPC   C3B21333  19.665  32.383   7.950
 5878POPC   C4B21334  19.670  32.385   7.650
 5879POPC   NC321335  43.087  15.996   9.450
 5879POPC   PO421336  43.078  15.971   9.150
 5879POPC   GL121337  43.093  15.938   8.850
 5879POPC   GL221338  43.041  15.964   8.850
 5879POPC   C1A21339  43.065  15.977   8.550
 5879POPC   D2A21340  43.102  15.948   8.250
 5879POPC   C3A21341  43.143  15.987   7.950
 5879POPC   C4A21342  43.065  15.943   7.650
 5879POPC   C1B21343  42.862  16.040   8.550
 5879POPC   C2B21344  42.880  16.069   8.250
 5879POPC   C3B21345  42.911  16.005   7.950
 5879POPC   C4B21346  42.904  16.066   7.650
 5880POPC   NC321347  26.073  15.981   9.450
 5880POPC   PO421348  26.026  15.970   9.150
 5880POPC   GL121349  26.091  15.961   8.850
 5880POPC   GL221350  25.962  15.948   8.850
 5880POPC   C1A21351  26.020  15.983   8.550
 5880POPC   D2A21352  25.998  15.939   8.250
 5880POPC   C3A21353  26.001  15.960   7.950
 5880POPC   C4A21354  26.022  15.909   7.650
 5880POPC   C1B21355  25.843  15.871   8.550
 5880POPC   C2B21356  25.809  15.860   8.250
 5880POPC   C3B21357  25.818  15.928   7.950
 5880POPC   C4B21358  25.829  15.926   7.650
 5881POPC   NC321359  24.531  20.624   9.450
 5881POPC   PO421360  24.489  20.616   9.150
 5881POPC   GL121361  24.469  20.640   8.850
 5881POPC   GL221362  24.411  20.480   8.850
 5881POPC   C1A21363  24.461  20.575   8.550
 5881POPC   D2A21364  24.503  20.566   8.250
 5881POPC   C3A21365  24.454  20.639   7.950
 5881POPC   C4A21366  24.535  20.652   7.650
 5881POPC   C1B21367  24.416  20.373   8.550
 5881POPC   C2B21368  24.381  20.415   8.250
 5881POPC   C3B21369  24.376  20.410   7.950
 5881POPC   C4B21370  24.430  20.396   7.650
 5882POPC   NC321371   9.721  39.263   9.450
 5882POPC   PO421372   9.784  39.276   9.150
 5882POPC   GL121373   9.757  39.196   8.850
 5882POPC   GL221374   9.873  39.339   8.850
 5882POPC   C1A21375   9.766  39.218   8.550
 5882POPC   D2A21376   9.718  39.191   8.250
 5882POPC   C3A21377   9.740  39.280   7.950
 5882POPC   C4A21378   9.729  39.241   7.650
 5882POPC   C1B21379   9.964  39.333   8.550
 5882POPC   C2B21380  10.000  39.387   8.250
 5882POPC   C3B21381   9.979  39.398   7.950
 5882POPC   C4B21382  10.005  39.372   7.650
 5883POPC   NC321383  26.090  33.818   9.450
 5883POPC   PO421384  26.016  33.822   9.150
 5883POPC   GL121385  26.027  33.778   8.850
 5883POPC   GL221386  25.988  33.928   8.850
 5883POPC   C1A21387  26.005  33.846   8.550
 5883POPC   D2A21388  26.067  33.830   8.250
 5883POPC   C3A21389  25.994  33.763   7.950
 5883POPC   C4A21390  26.005  33.845   7.650
 5883POPC   C1B21391  25.885  33.980   8.550
 5883POPC   C2B21392  25.822  33.952   8.250
 5883POPC   C3B21393  25.865  33.941   7.950
 5883POPC   C4B21394  25.874  33.997   7.650
 5884POPC   NC321395  29.912  40.044   9.450
 5884POPC   PO421396  29.888  39.982   9.150
 5884POPC   GL121397  29.910  40.004   8.850
 5884POPC   GL221398  30.051  40.107   8.850
 5884POPC   C1A21399  29.938  40.039   8.550
 5884POPC   D2A21400  29.949  39.973   8.250
 5884POPC   C3A21401  29.958  40.013   7.950
 5884POPC   C4A21402  29.897  40.031   7.650
 5884POPC   C1B21403  30.125  40.197   8.550
 5884POPC   C2B21404  30.060  40.165   8.250
 5884POPC   C3B21405  30.138  40.209   7.950
 5884POPC   C4B21406  30.114  40.175   7.650
 5885POPC   NC321407  44.707   8.202   9.450
 5885POPC   PO421408  44.693   8.150   9.150
 5885POPC   GL121409  44.620   8.167   8.850
 5885POPC   GL221410  44.780   8.258   8.850
 5885POPC   C1A21411  44.694   8.187   8.550
 5885POPC   D2A21412  44.648   8.179   8.250
 5885POPC   C3A21413  44.685   8.176   7.950
 5885POPC   C4A21414  44.679   8.155   7.650
 5885POPC   C1B21415  44.884   8.261   8.550
 5885POPC   C2B21416  44.868   8.235   8.250
 5885POPC   C3B21417  44.862   8.252   7.950
 5885POPC   C4B21418  44.850   8.275   7.650
 5886POPC   NC321419  10.499  19.101   9.450
 5886POPC   PO421420  10.483  19.060   9.150
 5886POPC   GL121421  10.487  19.043   8.850
 5886POPC   GL221422  10.432  19.040   8.850
 5886POPC   C1A21423  10.543  19.009   8.550
 5886POPC   D2A21424  10.555  19.077   8.250
 5886POPC   C3A21425  10.474  19.054   7.950
 5886POPC   C4A21426  10.506  19.041   7.650
 5886POPC   C1B21427  10.273  18.992   8.550
 5886POPC   C2B21428  10.277  18.953   8.250
 5886POPC   C3B21429  10.242  18.980   7.950
 5886POPC   C4B21430  10.234  19.010   7.650
 5887POPC   NC321431  26.050  43.128   9.450
 5887POPC   PO421432  26.038  43.113   9.150
 5887POPC   GL121433  26.074  43.155   8.850
 5887POPC   GL221434  26.110  43.219   8.850
 5887POPC   C1A21435  26.014  43.079   8.550
 5887POPC   D2A21436  26.003  43.141   8.250
 5887POPC   C3A21437  25.999  43.136   7.950
 5887POPC   C4A21438  26.047  43.090   7.650
 5887POPC   C1B21439  26.176  43.316   8.550
 5887POPC   C2B21440  26.100  43.380   8.250
 5887POPC   C3B21441  26.147  43.388   7.950
 5887POPC   C4B21442  26.148  43.353   7.650
 5888POPC   NC321443  29.191  32.234   9.450
 5888POPC   PO421444  29.124  32.198   9.150
 5888POPC   GL121445  29.182  32.294   8.850
 5888POPC   GL221446  29.095  32.105   8.850
 5888POPC   C1A21447  29.115  32.221   8.550
 5888POPC   D2A21448  29.101  32.285   8.250
 5888POPC   C3A21449  29.107  32.284   7.950
 5888POPC   C4A21450  29.125  32.245   7.650
 5888POPC   C1B21451  29.149  31.996   8.550
 5888POPC   C2B21452  29.078  32.009   8.250
 5888POPC   C3B21453  29.135  32.041   7.950
 5888POPC   C4B21454  29.165  31.988   7.650
 5889POPC   NC321455  36.163   6.673   9.450
 5889POPC   PO421456  36.099   6.654   9.150
 5889POPC   GL121457  36.163   6.603   8.850
 5889POPC   GL221458  36.212   6.593   8.850
 5889POPC   C1A21459  36.087   6.608   8.550
 5889POPC   D2A21460  36.090   6.633   8.250
 5889POPC   C3A21461  36.160   6.673   7.950
 5889POPC   C4A21462  36.080   6.621   7.650
 5889POPC   C1B21463  36.355   6.603   8.550
 5889POPC   C2B21464  36.352   6.601   8.250
 5889POPC   C3B21465  36.373   6.558   7.950
 5889POPC   C4B21466  36.389   6.566   7.650
 5890POPC   NC321467  29.884  29.183   9.450
 5890POPC   PO421468  29.910  29.160   9.150
 5890POPC   GL121469  29.948  29.112   8.850
 5890POPC   GL221470  29.829  29.115   8.850
 5890POPC   C1A21471  29.927  29.173   8.550
 5890POPC   D2A21472  29.954  29.114   8.250
 5890POPC   C3A21473  29.935  29.164   7.950
 5890POPC   C4A21474  29.911  29.183   7.650
 5890POPC   C1B21475  29.660  29.156   8.550
 5890POPC   C2B21476  29.656  29.064   8.250
 5890POPC   C3B21477  29.676  29.090   7.950
 5890POPC   C4B21478  29.651  29.115   7.650
 5891POPC   NC321479  14.429  36.952   9.450
 5891POPC   PO421480  14.406  36.947   9.150
 5891POPC   GL121481  14.424  36.860   8.850
 5891POPC   GL221482  14.354  37.032   8.850
 5891POPC   C1A21483  14.426  36.866   8.550
 5891POPC   D2A21484  14.400  36.924   8.250
 5891POPC   C3A21485  14.381  36.923   7.950
 5891POPC   C4A21486  14.405  36.854   7.650
 5891POPC   C1B21487  14.237  37.110   8.550
 5891POPC   C2B21488  14.265  37.112   8.250
 5891POPC   C3B21489  14.287  37.074   7.950
 5891POPC   C4B21490  14.218  37.099   7.650
 5892POPC   NC321491  36.869  16.747   9.450
 5892POPC   PO421492  36.879  16.777   9.150
 5892POPC   GL121493  36.883  16.731   8.850
 5892POPC   GL221494  36.953  16.644   8.850
 5892POPC   C1A21495  36.905  16.746   8.550
 5892POPC   D2A21496  36.950  16.746   8.250
 5892POPC   C3A21497  36.920  16.742   7.950
 5892POPC   C4A21498  36.872  16.741   7.650
 5892POPC   C1B21499  36.948  16.498   8.550
 5892POPC   C2B21500  36.983  16.483   8.250
 5892POPC   C3B21501  36.973  16.495   7.950
 5892POPC   C4B21502  36.984  16.523   7.650
 5893POPC   NC321503  26.858  41.510   9.450
 5893POPC   PO421504  26.804  41.550   9.150
 5893POPC   GL121505  26.828  41.560   8.850
 5893POPC   GL221506  26.732  41.420   8.850
 5893POPC   C1A21507  26.808  41.598   8.550
 5893POPC   D2A21508  26.781  41.594   8.250
 5893POPC   C3A21509  26.801  41.569   7.950
 5893POPC   C4A21510  26.796  41.600   7.650
 5893POPC   C1B21511  26.785  41.302   8.550
 5893POPC   C2B21512  26.747  41.299   8.250
 5893POPC   C3B21513  26.697  41.318   7.950
 5893POPC   C4B21514  26.739  41.293   7.650
 5894POPC   NC321515  33.009  31.508   9.450
 5894POPC   PO421516  33.066  31.486   9.150
 5894POPC   GL121517  32.989  31.521   8.850
 5894POPC   GL221518  33.185  31.416   8.850
 5894POPC   C1A21519  33.065  31.442   8.550
 5894POPC   D2A21520  33.043  31.429   8.250
 5894POPC   C3A21521  32.983  31.443   7.950
 5894POPC   C4A21522  33.005  31.504   7.650
 5894POPC   C1B21523  33.244  31.338   8.550
 5894POPC   C2B21524  33.278  31.377   8.250
 5894POPC   C3B21525  33.267  31.328   7.950
 5894POPC   C4B21526  33.263  31.345   7.650
 5895POPC   NC321527   9.792  44.704   9.450
 5895POPC   PO421528   9.782  44.628   9.150
 5895POPC   GL121529   9.749  44.617   8.850
 5895POPC   GL221530   9.871  44.717   8.850
 5895POPC   C1A21531   9.706  44.669   8.550
 5895POPC   D2A21532   9.741  44.688   8.250
 5895POPC   C3A21533   9.776  44.669   7.950
 5895POPC   C4A21534   9.793  44.637   7.650
 5895POPC   C1B21535   9.905  44.888   8.550
 5895POPC   C2B21536   9.929  44.816   8.250
 5895POPC   C3B21537   9.886  44.869   7.950
 5895POPC   C4B21538   9.871  44.834   7.650
 5896POPC   NC321539  41.513  29.956   9.450
 5896POPC   PO421540  41.538  29.872   9.150
 5896POPC   GL121541  41.574  29.923   8.850
 5896POPC   GL221542  41.697  29.932   8.850
 5896POPC   C1A21543  41.558  29.954   8.550
 5896POPC   D2A21544  41.571  29.908   8.250
 5896POPC   C3A21545  41.578  29.907   7.950
 5896POPC   C4A21546  41.601  29.897   7.650
 5896POPC   C1B21547  41.817  29.967   8.550
 5896POPC   C2B21548  41.764  29.963   8.250
 5896POPC   C3B21549  41.821  29.963   7.950
 5896POPC   C4B21550  41.755  29.995   7.650
 5897POPC   NC321551   8.951  41.577   9.450
 5897POPC   PO421552   8.933  41.579   9.150
 5897POPC   GL121553   9.008  41.529   8.850
 5897POPC   GL221554   8.968  41.404   8.850
 5897POPC   C1A21555   8.970  41.603   8.550
 5897POPC   D2A21556   9.013  41.512   8.250
 5897POPC   C3A21557   8.995  41.604   7.950
 5897POPC   C4A21558   8.939  41.585   7.650
 5897POPC   C1B21559   9.030  41.298   8.550
 5897POPC   C2B21560   8.975  41.338   8.250
 5897POPC   C3B21561   9.001  41.339   7.950
 5897POPC   C4B21562   9.036  41.304   7.650
 5898POPC   NC321563   4.268  29.901   9.450
 5898POPC   PO421564   4.366  29.963   9.150
 5898POPC   GL121565   4.349  29.935   8.850
 5898POPC   GL221566   4.386  29.984   8.850
 5898POPC   C1A21567   4.282  29.950   8.550
 5898POPC   D2A21568   4.292  29.920   8.250
 5898POPC   C3A21569   4.302  29.905   7.950
 5898POPC   C4A21570   4.280  29.959   7.650
 5898POPC   C1B21571   4.486  30.104   8.550
 5898POPC   C2B21572   4.543  30.079   8.250
 5898POPC   C3B21573   4.543  30.044   7.950
 5898POPC   C4B21574   4.484  30.078   7.650
 5899POPC   NC321575  26.856  14.413   9.450
 5899POPC   PO421576  26.840  14.429   9.150
 5899POPC   GL121577  26.812  14.450   8.850
 5899POPC   GL221578  26.900  14.343   8.850
 5899POPC   C1A21579  26.857  14.444   8.550
 5899POPC   D2A21580  26.773  14.416   8.250
 5899POPC   C3A21581  26.813  14.358   7.950
 5899POPC   C4A21582  26.863  14.420   7.650
 5899POPC   C1B21583  27.000  14.229   8.550
 5899POPC   C2B21584  27.042  14.242   8.250
 5899POPC   C3B21585  27.030  14.252   7.950
 5899POPC   C4B21586  27.020  14.282   7.650
 5900POPC   NC321587  44.643  35.349   9.450
 5900POPC   PO421588  44.706  35.369   9.150
 5900POPC   GL121589  44.690  35.348   8.850
 5900POPC   GL221590  44.655  35.240   8.850
 5900POPC   C1A21591  44.665  35.338   8.550
 5900POPC   D2A21592  44.672  35.399   8.250
 5900POPC   C3A21593  44.617  35.358   7.950
 5900POPC   C4A21594  44.706  35.329   7.650
 5900POPC   C1B21595  44.602  35.075   8.550
 5900POPC   C2B21596  44.590  35.158   8.250
 5900POPC   C3B21597  44.547  35.092   7.950
 5900POPC   C4B21598  44.586  35.163   7.650
 5901POPC   NC321599   8.186  42.371   9.450
 5901POPC   PO421600   8.217  42.319   9.150
 5901POPC   GL121601   8.170  42.316   8.850
 5901POPC   GL221602   8.303  42.208   8.850
 5901POPC   C1A21603   8.236  42.369   8.550
 5901POPC   D2A21604   8.156  42.308   8.250
 5901POPC   C3A21605   8.217  42.307   7.950
 5901POPC   C4A21606   8.173  42.377   7.650
 5901POPC   C1B21607   8.343  42.208   8.550
 5901POPC   C2B21608   8.362  42.162   8.250
 5901POPC   C3B21609   8.374  42.157   7.950
 5901POPC   C4B21610   8.328  42.188   7.650
 5902POPC   NC321611  43.139   8.981   9.450
 5902POPC   PO421612  43.110   8.956   9.150
 5902POPC   GL121613  43.076   8.969   8.850
 5902POPC   GL221614  43.191   9.079   8.850
 5902POPC   C1A21615  43.140   8.932   8.550
 5902POPC   D2A21616  43.088   8.991   8.250
 5902POPC   C3A21617  43.110   9.017   7.950
 5902POPC   C4A21618  43.101   8.951   7.650
 5902POPC   C1B21619  43.220   9.216   8.550
 5902POPC   C2B21620  43.258   9.145   8.250
 5902POPC   C3B21621  43.294   9.165   7.950
 5902POPC   C4B21622  43.214   9.173   7.650
 5903POPC   NC321623  17.492  10.529   9.450
 5903POPC   PO421624  17.494  10.574   9.150
 5903POPC   GL121625  17.517  10.559   8.850
 5903POPC   GL221626  17.344  10.513   8.850
 5903POPC   C1A21627  17.475  10.569   8.550
 5903POPC   D2A21628  17.466  10.489   8.250
 5903POPC   C3A21629  17.461  10.515   7.950
 5903POPC   C4A21630  17.548  10.526   7.650
 5903POPC   C1B21631  17.283  10.574   8.550
 5903POPC   C2B21632  17.294  10.569   8.250
 5903POPC   C3B21633  17.213  10.506   7.950
 5903POPC   C4B21634  17.305  10.560   7.650
 5904POPC   NC321635  13.639  20.563   9.450
 5904POPC   PO421636  13.676  20.577   9.150
 5904POPC   GL121637  13.666  20.649   8.850
 5904POPC   GL221638  13.488  20.675   8.850
 5904POPC   C1A21639  13.640  20.570   8.550
 5904POPC   D2A21640  13.593  20.578   8.250
 5904POPC   C3A21641  13.582  20.605   7.950
 5904POPC   C4A21642  13.639  20.620   7.650
 5904POPC   C1B21643  13.419  20.685   8.550
 5904POPC   C2B21644  13.421  20.698   8.250
 5904POPC   C3B21645  13.428  20.716   7.950
 5904POPC   C4B21646  13.443  20.705   7.650
 5905POPC   NC321647  30.668  12.866   9.450
 5905POPC   PO421648  30.676  12.841   9.150
 5905POPC   GL121649  30.719  12.851   8.850
 5905POPC   GL221650  30.832  12.796   8.850
 5905POPC   C1A21651  30.737  12.873   8.550
 5905POPC   D2A21652  30.723  12.886   8.250
 5905POPC   C3A21653  30.694  12.856   7.950
 5905POPC   C4A21654  30.740  12.866   7.650
 5905POPC   C1B21655  30.903  12.776   8.550
 5905POPC   C2B21656  30.986  12.786   8.250
 5905POPC   C3B21657  30.944  12.795   7.950
 5905POPC   C4B21658  30.963  12.753   7.650
 5906POPC   NC321659  31.466  39.273   9.450
 5906POPC   PO421660  31.464  39.236   9.150
 5906POPC   GL121661  31.475  39.240   8.850
 5906POPC   GL221662  31.385  39.172   8.850
 5906POPC   C1A21663  31.448  39.250   8.550
 5906POPC   D2A21664  31.521  39.270   8.250
 5906POPC   C3A21665  31.443  39.194   7.950
 5906POPC   C4A21666  31.517  39.273   7.650
 5906POPC   C1B21667  31.275  39.058   8.550
 5906POPC   C2B21668  31.273  39.075   8.250
 5906POPC   C3B21669  31.280  39.117   7.950
 5906POPC   C4B21670  31.271  39.090   7.650
 5907POPC   NC321671  15.136  29.906   9.450
 5907POPC   PO421672  15.223  29.891   9.150
 5907POPC   GL121673  15.151  29.878   8.850
 5907POPC   GL221674  15.056  29.795   8.850
 5907POPC   C1A21675  15.163  29.946   8.550
 5907POPC   D2A21676  15.218  29.961   8.250
 5907POPC   C3A21677  15.188  29.916   7.950
 5907POPC   C4A21678  15.154  29.885   7.650
 5907POPC   C1B21679  15.019  29.702   8.550
 5907POPC   C2B21680  15.058  29.724   8.250
 5907POPC   C3B21681  15.011  29.700   7.950
 5907POPC   C4B21682  15.035  29.739   7.650
 5908POPC   NC321683  28.410  21.338   9.450
 5908POPC   PO421684  28.364  21.411   9.150
 5908POPC   GL121685  28.324  21.384   8.850
 5908POPC   GL221686  28.443  21.270   8.850
 5908POPC   C1A21687  28.333  21.419   8.550
 5908POPC   D2A21688  28.356  21.347   8.250
 5908POPC   C3A21689  28.397  21.419   7.950
 5908POPC   C4A21690  28.367  21.431   7.650
 5908POPC   C1B21691  28.405  21.165   8.550
 5908POPC   C2B21692  28.489  21.151   8.250
 5908POPC   C3B21693  28.423  21.183   7.950
 5908POPC   C4B21694  28.418  21.199   7.650
 5909POPC   NC321695  11.290  22.974   9.450
 5909POPC   PO421696  11.321  22.890   9.150
 5909POPC   GL121697  11.292  22.906   8.850
 5909POPC   GL221698  11.377  23.033   8.850
 5909POPC   C1A21699  11.275  22.968   8.550
 5909POPC   D2A21700  11.307  22.951   8.250
 5909POPC   C3A21701  11.325  22.902   7.950
 5909POPC   C4A21702  11.275  22.973   7.650
 5909POPC   C1B21703  11.514  23.061   8.550
 5909POPC   C2B21704  11.510  23.021   8.250
 5909POPC   C3B21705  11.560  23.058   7.950
 5909POPC   C4B21706  11.552  23.071   7.650
 5910POPC   NC321707  19.853  11.318   9.450
 5910POPC   PO421708  19.785  11.313   9.150
 5910POPC   GL121709  19.866  11.323   8.850
 5910POPC   GL221710  19.710  11.175   8.850
 5910POPC   C1A21711  19.811  11.345   8.550
 5910POPC   D2A21712  19.815  11.284   8.250
 5910POPC   C3A21713  19.816  11.267   7.950
 5910POPC   C4A21714  19.866  11.347   7.650
 5910POPC   C1B21715  19.684  11.075   8.550
 5910POPC   C2B21716  19.689  11.157   8.250
 5910POPC   C3B21717  19.689  11.086   7.950
 5910POPC   C4B21718  19.657  11.160   7.650
 5911POPC   NC321719  30.734   8.954   9.450
 5911POPC   PO421720  30.746   8.964   9.150
 5911POPC   GL121721  30.745   8.964   8.850
 5911POPC   GL221722  30.605   9.055   8.850
 5911POPC   C1A21723  30.699   8.936   8.550
 5911POPC   D2A21724  30.671   8.992   8.250
 5911POPC   C3A21725  30.719   8.929   7.950
 5911POPC   C4A21726  30.734   8.990   7.650
 5911POPC   C1B21727  30.561   9.161   8.550
 5911POPC   C2B21728  30.501   9.179   8.250
 5911POPC   C3B21729  30.536   9.122   7.950
 5911POPC   C4B21730  30.489   9.124   7.650
 5912POPC   NC321731  37.645  30.746   9.450
 5912POPC   PO421732  37.670  30.686   9.150
 5912POPC   GL121733  37.698  30.693   8.850
 5912POPC   GL221734  37.584  30.636   8.850
 5912POPC   C1A21735  37.689  30.690   8.550
 5912POPC   D2A21736  37.660  30.689   8.250
 5912POPC   C3A21737  37.706  30.682   7.950
 5912POPC   C4A21738  37.714  30.722   7.650
 5912POPC   C1B21739  37.463  30.567   8.550
 5912POPC   C2B21740  37.480  30.534   8.250
 5912POPC   C3B21741  37.520  30.564   7.950
 5912POPC   C4B21742  37.511  30.502   7.650
 5913POPC   NC321743   5.885  15.220   9.450
 5913POPC   PO421744   5.836  15.223   9.150
 5913POPC   GL121745   5.857  15.136   8.850
 5913POPC   GL221746   5.933  15.251   8.850
 5913POPC   C1A21747   5.909  15.196   8.550
 5913POPC   D2A21748   5.850  15.148   8.250
 5913POPC   C3A21749   5.832  15.139   7.950
 5913POPC   C4A21750   5.883  15.172   7.650
 5913POPC   C1B21751   6.086  15.363   8.550
 5913POPC   C2B21752   6.061  15.320   8.250
 5913POPC   C3B21753   6.077  15.384   7.950
 5913POPC   C4B21754   6.081  15.327   7.650
 5914POPC   NC321755  30.660  17.516   9.450
 5914POPC   PO421756  30.677  17.522   9.150
 5914POPC   GL121757  30.680  17.541   8.850
 5914POPC   GL221758  30.709  17.414   8.850
 5914POPC   C1A21759  30.739  17.493   8.550
 5914POPC   D2A21760  30.678  17.485   8.250
 5914POPC   C3A21761  30.697  17.483   7.950
 5914POPC   C4A21762  30.706  17.510   7.650
 5914POPC   C1B21763  30.861  17.263   8.550
 5914POPC   C2B21764  30.830  17.304   8.250
 5914POPC   C3B21765  30.780  17.307   7.950
 5914POPC   C4B21766  30.822  17.310   7.650
 5915POPC   NC321767   1.210   6.661   9.450
 5915POPC   PO421768   1.173   6.642   9.150
 5915POPC   GL121769   1.200   6.641   8.850
 5915POPC   GL221770   1.246   6.528   8.850
 5915POPC   C1A21771   1.200   6.597   8.550
 5915POPC   D2A21772   1.255   6.673   8.250
 5915POPC   C3A21773   1.165   6.685   7.950
 5915POPC   C4A21774   1.173   6.658   7.650
 5915POPC   C1B21775   1.167   6.402   8.550
 5915POPC   C2B21776   1.207   6.360   8.250
 5915POPC   C3B21777   1.159   6.386   7.950
 5915POPC   C4B21778   1.159   6.360   7.650
 5916POPC   NC321779  19.053   8.226   9.450
 5916POPC   PO421780  19.053   8.226   9.150
 5916POPC   GL121781  19.083   8.223   8.850
 5916POPC   GL221782  18.914   8.121   8.850
 5916POPC   C1A21783  19.013   8.166   8.550
 5916POPC   D2A21784  19.101   8.231   8.250
 5916POPC   C3A21785  19.035   8.218   7.950
 5916POPC   C4A21786  19.058   8.214   7.650
 5916POPC   C1B21787  18.798   8.099   8.550
 5916POPC   C2B21788  18.846   8.166   8.250
 5916POPC   C3B21789  18.817   8.088   7.950
 5916POPC   C4B21790  18.830   8.109   7.650
 5917POPC   NC321791  14.405  16.699   9.450
 5917POPC   PO421792  14.390  16.720   9.150
 5917POPC   GL121793  14.366  16.697   8.850
 5917POPC   GL221794  14.292  16.705   8.850
 5917POPC   C1A21795  14.422  16.731   8.550
 5917POPC   D2A21796  14.410  16.724   8.250
 5917POPC   C3A21797  14.379  16.756   7.950
 5917POPC   C4A21798  14.437  16.720   7.650
 5917POPC   C1B21799  14.177  16.714   8.550
 5917POPC   C2B21800  14.191  16.675   8.250
 5917POPC   C3B21801  14.174  16.683   7.950
 5917POPC   C4B21802  14.139  16.644   7.650
 5918POPC   NC321803  36.863  28.398   9.450
 5918POPC   PO421804  36.867  28.402   9.150
 5918POPC   GL121805  36.859  28.337   8.850
 5918POPC   GL221806  36.976  28.495   8.850
 5918POPC   C1A21807  36.863  28.321   8.550
 5918POPC   D2A21808  36.907  28.386   8.250
 5918POPC   C3A21809  36.915  28.348   7.950
 5918POPC   C4A21810  36.915  28.372   7.650
 5918POPC   C1B21811  37.059  28.594   8.550
 5918POPC   C2B21812  37.082  28.580   8.250
 5918POPC   C3B21813  37.110  28.529   7.950
 5918POPC   C4B21814  37.109  28.562   7.650
 5919POPC   NC321815  36.937   0.463   9.450
 5919POPC   PO421816  36.907   0.476   9.150
 5919POPC   GL121817  36.946   0.453   8.850
 5919POPC   GL221818  36.995   0.583   8.850
 5919POPC   C1A21819  36.887   0.443   8.550
 5919POPC   D2A21820  36.942   0.437   8.250
 5919POPC   C3A21821  36.929   0.399   7.950
 5919POPC   C4A21822  36.892   0.441   7.650
 5919POPC   C1B21823  37.049   0.705   8.550
 5919POPC   C2B21824  37.036   0.684   8.250
 5919POPC   C3B21825  37.052   0.706   7.950
 5919POPC   C4B21826  36.979   0.625   7.650
 5920POPC   NC321827  34.530   4.271   9.450
 5920POPC   PO421828  34.579   4.275   9.150
 5920POPC   GL121829  34.542   4.281   8.850
 5920POPC   GL221830  34.693   4.197   8.850
 5920POPC   C1A21831  34.565   4.303   8.550
 5920POPC   D2A21832  34.571   4.272   8.250
 5920POPC   C3A21833  34.598   4.281   7.950
 5920POPC   C4A21834  34.611   4.276   7.650
 5920POPC   C1B21835  34.767   4.157   8.550
 5920POPC   C2B21836  34.758   4.109   8.250
 5920POPC   C3B21837  34.723   4.128   7.950
 5920POPC   C4B21838  34.736   4.074   7.650
 5921POPC   NC321839   9.010  43.858   9.450
 5921POPC   PO421840   8.993  43.917   9.150
 5921POPC   GL121841   8.961  43.887   8.850
 5921POPC   GL221842   8.975  43.781   8.850
 5921POPC   C1A21843   8.969  43.871   8.550
 5921POPC   D2A21844   8.968  43.896   8.250
 5921POPC   C3A21845   8.944  43.915   7.950
 5921POPC   C4A21846   8.928  43.930   7.650
 5921POPC   C1B21847   8.907  43.613   8.550
 5921POPC   C2B21848   8.926  43.647   8.250
 5921POPC   C3B21849   8.933  43.607   7.950
 5921POPC   C4B21850   8.931  43.660   7.650
 5922POPC   NC321851   0.433   2.001   9.450
 5922POPC   PO421852   0.390   2.014   9.150
 5922POPC   GL121853   0.434   1.964   8.850
 5922POPC   GL221854   0.429   2.090   8.850
 5922POPC   C1A21855   0.432   1.980   8.550
 5922POPC   D2A21856   0.454   1.999   8.250
 5922POPC   C3A21857   0.484   1.995   7.950
 5922POPC   C4A21858   0.455   1.945   7.650
 5922POPC   C1B21859   0.323   2.217   8.550
 5922POPC   C2B21860   0.381   2.207   8.250
 5922POPC   C3B21861   0.406   2.221   7.950
 5922POPC   C4B21862   0.406   2.223   7.650
 5923POPC   NC321863  29.138  18.328   9.450
 5923POPC   PO421864  29.179  18.290   9.150
 5923POPC   GL121865  29.176  18.258   8.850
 5923POPC   GL221866  29.277  18.304   8.850
 5923POPC   C1A21867  29.183  18.300   8.550
 5923POPC   D2A21868  29.128  18.301   8.250
 5923POPC   C3A21869  29.136  18.245   7.950
 5923POPC   C4A21870  29.193  18.330   7.650
 5923POPC   C1B21871  29.437  18.333   8.550
 5923POPC   C2B21872  29.405  18.348   8.250
 5923POPC   C3B21873  29.399  18.287   7.950
 5923POPC   C4B21874  29.429  18.333   7.650
 5924POPC   NC321875  16.716  12.881   9.450
 5924POPC   PO421876  16.768  12.885   9.150
 5924POPC   GL121877  16.729  12.874   8.850
 5924POPC   GL221878  16.602  12.896   8.850
 5924POPC   C1A21879  16.779  12.863   8.550
 5924POPC   D2A21880  16.742  12.846   8.250
 5924POPC   C3A21881  16.698  12.859   7.950
 5924POPC   C4A21882  16.781  12.882   7.650
 5924POPC   C1B21883  16.553  13.074   8.550
 5924POPC   C2B21884  16.606  13.004   8.250
 5924POPC   C3B21885  16.606  13.062   7.950
 5924POPC   C4B21886  16.599  13.061   7.650
 5925POPC   NC321887  36.105  34.617   9.450
 5925POPC   PO421888  36.115  34.600   9.150
 5925POPC   GL121889  36.166  34.546   8.850
 5925POPC   GL221890  36.093  34.694   8.850
 5925POPC   C1A21891  36.139  34.616   8.550
 5925POPC   D2A21892  36.079  34.553   8.250
 5925POPC   C3A21893  36.120  34.591   7.950
 5925POPC   C4A21894  36.095  34.577   7.650
 5925POPC   C1B21895  36.101  34.831   8.550
 5925POPC   C2B21896  36.149  34.795   8.250
 5925POPC   C3B21897  36.143  34.860   7.950
 5925POPC   C4B21898  36.098  34.866   7.650
 5926POPC   NC321899  37.635  39.974   9.450
 5926POPC   PO421900  37.683  40.041   9.150
 5926POPC   GL121901  37.685  40.055   8.850
 5926POPC   GL221902  37.522  39.937   8.850
 5926POPC   C1A21903  37.631  40.030   8.550
 5926POPC   D2A21904  37.690  39.988   8.250
 5926POPC   C3A21905  37.654  40.019   7.950
 5926POPC   C4A21906  37.701  40.053   7.650
 5926POPC   C1B21907  37.488  39.890   8.550
 5926POPC   C2B21908  37.411  39.909   8.250
 5926POPC   C3B21909  37.425  39.898   7.950
 5926POPC   C4B21910  37.410  39.934   7.650
 5927POPC   NC321911  33.774  30.710   9.450
 5927POPC   PO421912  33.759  30.656   9.150
 5927POPC   GL121913  33.803  30.724   8.850
 5927POPC   GL221914  33.679  30.771   8.850
 5927POPC   C1A21915  33.846  30.666   8.550
 5927POPC   D2A21916  33.841  30.657   8.250
 5927POPC   C3A21917  33.787  30.730   7.950
 5927POPC   C4A21918  33.804  30.710   7.650
 5927POPC   C1B21919  33.529  30.799   8.550
 5927POPC   C2B21920  33.549  30.805   8.250
 5927POPC   C3B21921  33.553  30.747   7.950
 5927POPC   C4B21922  33.569  30.718   7.650
 5928POPC   NC321923  33.059   2.751   9.450
 5928POPC   PO421924  33.011   2.795   9.150
 5928POPC   GL121925  32.992   2.747   8.850
 5928POPC   GL221926  33.081   2.897   8.850
 5928POPC   C1A21927  33.011   2.718   8.550
 5928POPC   D2A21928  33.054   2.808   8.250
 5928POPC   C3A21929  33.042   2.780   7.950
 5928POPC   C4A21930  33.038   2.723   7.650
 5928POPC   C1B21931  33.170   2.951   8.550
 5928POPC   C2B21932  33.123   3.039   8.250
 5928POPC   C3B21933  33.089   3.009   7.950
 5928POPC   C4B21934  33.137   3.044   7.650
 5929POPC   NC321935   5.894  44.627   9.450
 5929POPC   PO421936   5.867  44.645   9.150
 5929POPC   GL121937   5.868  44.661   8.850
 5929POPC   GL221938   6.025  44.630   8.850
 5929POPC   C1A21939   5.861  44.649   8.550
 5929POPC   D2A21940   5.899  44.639   8.250
 5929POPC   C3A21941   5.900  44.632   7.950
 5929POPC   C4A21942   5.911  44.691   7.650
 5929POPC   C1B21943   6.076  44.570   8.550
 5929POPC   C2B21944   6.130  44.488   8.250
 5929POPC   C3B21945   6.108  44.561   7.950
 5929POPC   C4B21946   6.083  44.568   7.650
 5930POPC   NC321947   5.911   1.191   9.450
 5930POPC   PO421948   5.852   1.239   9.150
 5930POPC   GL121949   5.846   1.240   8.850
 5930POPC   GL221950   5.908   1.355   8.850
 5930POPC   C1A21951   5.843   1.255   8.550
 5930POPC   D2A21952   5.866   1.216   8.250
 5930POPC   C3A21953   5.838   1.197   7.950
 5930POPC   C4A21954   5.911   1.177   7.650
 5930POPC   C1B21955   5.959   1.456   8.550
 5930POPC   C2B21956   6.001   1.459   8.250
 5930POPC   C3B21957   6.004   1.488   7.950
 5930POPC   C4B21958   6.020   1.429   7.650
 5931POPC   NC321959  19.055  35.382   9.450
 5931POPC   PO421960  19.069  35.306   9.150
 5931POPC   GL121961  19.070  35.329   8.850
 5931POPC   GL221962  19.019  35.195   8.850
 5931POPC   C1A21963  19.108  35.307   8.550
 5931POPC   D2A21964  19.013  35.312   8.250
 5931POPC   C3A21965  19.058  35.366   7.950
 5931POPC   C4A21966  19.103  35.348   7.650
 5931POPC   C1B21967  18.975  35.152   8.550
 5931POPC   C2B21968  19.002  35.090   8.250
 5931POPC   C3B21969  18.961  35.141   7.950
 5931POPC   C4B21970  18.992  35.135   7.650
 5932POPC   NC321971  15.941   9.005   9.450
 5932POPC   PO421972  15.988   8.998   9.150
 5932POPC   GL121973  16.004   8.950   8.850
 5932POPC   GL221974  15.998   9.053   8.850
 5932POPC   C1A21975  16.002   9.010   8.550
 5932POPC   D2A21976  15.913   8.977   8.250
 5932POPC   C3A21977  15.951   8.953   7.950
 5932POPC   C4A21978  15.906   8.946   7.650
 5932POPC   C1B21979  16.075   9.174   8.550
 5932POPC   C2B21980  16.110   9.229   8.250
 5932POPC   C3B21981  16.097   9.183   7.950
 5932POPC   C4B21982  16.073   9.189   7.650
 5933POPC   NC321983  19.017  44.637   9.450
 5933POPC   PO421984  19.093  44.693   9.150
 5933POPC   GL121985  19.104  44.647   8.850
 5933POPC   GL221986  19.142  44.709   8.850
 5933POPC   C1A21987  19.046  44.632   8.550
 5933POPC   D2A21988  19.021  44.703   8.250
 5933POPC   C3A21989  19.082  44.644   7.950
 5933POPC   C4A21990  19.034  44.655   7.650
 5933POPC   C1B21991  19.313  44.645   8.550
 5933POPC   C2B21992  19.298  44.629   8.250
 5933POPC   C3B21993  19.266  44.657   7.950
 5933POPC   C4B21994  19.297  44.659   7.650
 5934POPC   NC321995  39.196   6.612   9.450
 5934POPC   PO421996  39.212   6.628   9.150
 5934POPC   GL121997  39.238   6.608   8.850
 5934POPC   GL221998  39.157   6.538   8.850
 5934POPC   C1A21999  39.250   6.612   8.550
 5934POPC   D2A22000  39.252   6.636   8.250
 5934POPC   C3A22001  39.253   6.626   7.950
 5934POPC   C4A22002  39.263   6.663   7.650
 5934POPC   C1B22003  38.999   6.516   8.550
 5934POPC   C2B22004  39.036   6.468   8.250
 5934POPC   C3B22005  38.993   6.433   7.950
 5934POPC   C4B22006  39.055   6.488   7.650
 5935POPC   NC322007   2.780  36.904   9.450
 5935POPC   PO422008   2.764  36.892   9.150
 5935POPC   GL122009   2.728  36.907   8.850
 5935POPC   GL222010   2.767  36.826   8.850
 5935POPC   C1A22011   2.742  36.865   8.550
 5935POPC   D2A22012   2.763  36.856   8.250
 5935POPC   C3A22013   2.722  36.864   7.950
 5935POPC   C4A22014   2.724  36.907   7.650
 5935POPC   C1B22015   2.741  36.659   8.550
 5935POPC   C2B22016   2.805  36.697   8.250
 5935POPC   C3B22017   2.731  36.668   7.950
 5935POPC   C4B22018   2.766  36.618   7.650
 5936POPC   NC322019   1.980  25.311   9.450
 5936POPC   PO422020   2.020  25.245   9.150
 5936POPC   GL122021   1.998  25.269   8.850
 5936POPC   GL222022   1.822  25.275   8.850
 5936POPC   C1A22023   2.019  25.261   8.550
 5936POPC   D2A22024   1.977  25.262   8.250
 5936POPC   C3A22025   2.018  25.312   7.950
 5936POPC   C4A22026   2.015  25.220   7.650
 5936POPC   C1B22027   1.725  25.224   8.550
 5936POPC   C2B22028   1.732  25.243   8.250
 5936POPC   C3B22029   1.717  25.266   7.950
 5936POPC   C4B22030   1.741  25.228   7.650
 5937POPC   NC322031   8.223  31.466   9.450
 5937POPC   PO422032   8.189  31.422   9.150
 5937POPC   GL122033   8.203  31.507   8.850
 5937POPC   GL222034   8.030  31.474   8.850
 5937POPC   C1A22035   8.241  31.491   8.550
 5937POPC   D2A22036   8.228  31.423   8.250
 5937POPC   C3A22037   8.196  31.452   7.950
 5937POPC   C4A22038   8.180  31.459   7.650
 5937POPC   C1B22039   7.961  31.561   8.550
 5937POPC   C2B22040   7.980  31.596   8.250
 5937POPC   C3B22041   7.933  31.578   7.950
 5937POPC   C4B22042   7.911  31.569   7.650
 5938POPC   NC322043  26.089  43.904   9.450
 5938POPC   PO422044  26.066  43.842   9.150
 5938POPC   GL122045  26.009  43.931   8.850
 5938POPC   GL222046  26.110  43.794   8.850
 5938POPC   C1A22047  26.053  43.876   8.550
 5938POPC   D2A22048  25.997  43.928   8.250
 5938POPC   C3A22049  26.080  43.903   7.950
 5938POPC   C4A22050  26.048  43.854   7.650
 5938POPC   C1B22051  26.190  43.686   8.550
 5938POPC   C2B22052  26.247  43.654   8.250
 5938POPC   C3B22053  26.196  43.716   7.950
 5938POPC   C4B22054  26.176  43.694   7.650
 5939POPC   NC322055  29.115  23.684   9.450
 5939POPC   PO422056  29.131  23.696   9.150
 5939POPC   GL122057  29.135  23.664   8.850
 5939POPC   GL222058  29.222  23.780   8.850
 5939POPC   C1A22059  29.108  23.740   8.550
 5939POPC   D2A22060  29.143  23.746   8.250
 5939POPC   C3A22061  29.170  23.720   7.950
 5939POPC   C4A22062  29.177  23.681   7.650
 5939POPC   C1B22063  29.323  23.830   8.550
 5939POPC   C2B22064  29.327  23.847   8.250
 5939POPC   C3B22065  29.298  23.905   7.950
 5939POPC   C4B22066  29.380  23.879   7.650
 5940POPC   NC322067  38.438  30.697   9.450
 5940POPC   PO422068  38.434  30.730   9.150
 5940POPC   GL122069  38.437  30.703   8.850
 5940POPC   GL222070  38.545  30.533   8.850
 5940POPC   C1A22071  38.500  30.733   8.550
 5940POPC   D2A22072  38.492  30.737   8.250
 5940POPC   C3A22073  38.447  30.673   7.950
 5940POPC   C4A22074  38.487  30.677   7.650
 5940POPC   C1B22075  38.502  30.470   8.550
 5940POPC   C2B22076  38.567  30.495   8.250
 5940POPC   C3B22077  38.600  30.463   7.950
 5940POPC   C4B22078  38.529  30.418   7.650
 5941POPC   NC322079  36.144  14.375   9.450
 5941POPC   PO422080  36.160  14.430   9.150
 5941POPC   GL122081  36.161  14.398   8.850
 5941POPC   GL222082  35.989  14.421   8.850
 5941POPC   C1A22083  36.169  14.416   8.550
 5941POPC   D2A22084  36.156  14.415   8.250
 5941POPC   C3A22085  36.084  14.375   7.950
 5941POPC   C4A22086  36.082  14.393   7.650
 5941POPC   C1B22087  35.868  14.362   8.550
 5941POPC   C2B22088  35.905  14.392   8.250
 5941POPC   C3B22089  35.841  14.438   7.950
 5941POPC   C4B22090  35.913  14.413   7.650
 5942POPC   NC322091  25.292   4.272   9.450
 5942POPC   PO422092  25.218   4.316   9.150
 5942POPC   GL122093  25.249   4.289   8.850
 5942POPC   GL222094  25.369   4.389   8.850
 5942POPC   C1A22095  25.293   4.363   8.550
 5942POPC   D2A22096  25.252   4.280   8.250
 5942POPC   C3A22097  25.292   4.299   7.950
 5942POPC   C4A22098  25.232   4.301   7.650
 5942POPC   C1B22099  25.381   4.503   8.550
 5942POPC   C2B22100  25.430   4.506   8.250
 5942POPC   C3B22101  25.434   4.480   7.950
 5942POPC   C4B22102  25.431   4.548   7.650
 5943POPC   NC322103  28.327  34.550   9.450
 5943POPC   PO422104  28.324  34.543   9.150
 5943POPC   GL122105  28.344  34.558   8.850
 5943POPC   GL222106  28.525  34.483   8.850
 5943POPC   C1A22107  28.394  34.579   8.550
 5943POPC   D2A22108  28.320  34.533   8.250
 5943POPC   C3A22109  28.354  34.547   7.950
 5943POPC   C4A22110  28.322  34.570   7.650
 5943POPC   C1B22111  28.558  34.506   8.550
 5943POPC   C2B22112  28.598  34.507   8.250
 5943POPC   C3B22113  28.577  34.443   7.950
 5943POPC   C4B22114  28.554  34.449   7.650
 5944POPC   NC322115  20.602  34.615   9.450
 5944POPC   PO422116  20.656  34.546   9.150
 5944POPC   GL122117  20.646  34.575   8.850
 5944POPC   GL222118  20.568  34.497   8.850
 5944POPC   C1A22119  20.629  34.587   8.550
 5944POPC   D2A22120  20.631  34.532   8.250
 5944POPC   C3A22121  20.604  34.623   7.950
 5944POPC   C4A22122  20.606  34.615   7.650
 5944POPC   C1B22123  20.562  34.322   8.550
 5944POPC   C2B22124  20.581  34.326   8.250
 5944POPC   C3B22125  20.595  34.366   7.950
 5944POPC   C4B22126  20.512  34.320   7.650
 5945POPC   NC322127   9.716  38.473   9.450
 5945POPC   PO422128   9.703  38.414   9.150
 5945POPC   GL122129   9.749  38.407   8.850
 5945POPC   GL222130   9.669  38.381   8.850
 5945POPC   C1A22131   9.760  38.498   8.550
 5945POPC   D2A22132   9.789  38.469   8.250
 5945POPC   C3A22133   9.762  38.433   7.950
 5945POPC   C4A22134   9.735  38.466   7.650
 5945POPC   C1B22135   9.510  38.402   8.550
 5945POPC   C2B22136   9.501  38.432   8.250
 5945POPC   C3B22137   9.481  38.398   7.950
 5945POPC   C4B22138   9.513  38.385   7.650
 5946POPC   NC322139  23.734   2.803   9.450
 5946POPC   PO422140  23.721   2.816   9.150
 5946POPC   GL122141  23.727   2.718   8.850
 5946POPC   GL222142  23.731   2.904   8.850
 5946POPC   C1A22143  23.715   2.758   8.550
 5946POPC   D2A22144  23.735   2.790   8.250
 5946POPC   C3A22145  23.729   2.778   7.950
 5946POPC   C4A22146  23.709   2.749   7.650
 5946POPC   C1B22147  23.707   3.024   8.550
 5946POPC   C2B22148  23.672   2.984   8.250
 5946POPC   C3B22149  23.732   3.009   7.950
 5946POPC   C4B22150  23.738   3.032   7.650
 5947POPC   NC322151  14.398  11.259   9.450
 5947POPC   PO422152  14.383  11.260   9.150
 5947POPC   GL122153  14.449  11.259   8.850
 5947POPC   GL222154  14.410  11.196   8.850
 5947POPC   C1A22155  14.440  11.339   8.550
 5947POPC   D2A22156  14.367  11.279   8.250
 5947POPC   C3A22157  14.385  11.310   7.950
 5947POPC   C4A22158  14.400  11.323   7.650
 5947POPC   C1B22159  14.469  11.088   8.550
 5947POPC   C2B22160  14.486  11.022   8.250
 5947POPC   C3B22161  14.477  11.023   7.950
 5947POPC   C4B22162  14.468  11.070   7.650
 5948POPC   NC322163  10.520   3.501   9.450
 5948POPC   PO422164  10.494   3.555   9.150
 5948POPC   GL122165  10.548   3.533   8.850
 5948POPC   GL222166  10.468   3.414   8.850
 5948POPC   C1A22167  10.502   3.520   8.550
 5948POPC   D2A22168  10.527   3.579   8.250
 5948POPC   C3A22169  10.548   3.518   7.950
 5948POPC   C4A22170  10.544   3.551   7.650
 5948POPC   C1B22171  10.349   3.367   8.550
 5948POPC   C2B22172  10.347   3.374   8.250
 5948POPC   C3B22173  10.345   3.346   7.950
 5948POPC   C4B22174  10.317   3.405   7.650
 5949POPC   NC322175   0.460  35.325   9.450
 5949POPC   PO422176   0.431  35.385   9.150
 5949POPC   GL122177   0.390  35.323   8.850
 5949POPC   GL222178   0.379  35.462   8.850
 5949POPC   C1A22179   0.433  35.343   8.550
 5949POPC   D2A22180   0.479  35.371   8.250
 5949POPC   C3A22181   0.416  35.335   7.950
 5949POPC   C4A22182   0.426  35.319   7.650
 5949POPC   C1B22183   0.269  35.518   8.550
 5949POPC   C2B22184   0.295  35.564   8.250
 5949POPC   C3B22185   0.262  35.506   7.950
 5949POPC   C4B22186   0.337  35.600   7.650
 5950POPC   NC322187  33.791  38.443   9.450
 5950POPC   PO422188  33.755  38.489   9.150
 5950POPC   GL122189  33.795  38.476   8.850
 5950POPC   GL222190  33.888  38.390   8.850
 5950POPC   C1A22191  33.784  38.471   8.550
 5950POPC   D2A22192  33.850  38.430   8.250
 5950POPC   C3A22193  33.832  38.407   7.950
 5950POPC   C4A22194  33.833  38.453   7.650
 5950POPC   C1B22195  33.950  38.296   8.550
 5950POPC   C2B22196  34.028  38.284   8.250
 5950POPC   C3B22197  33.970  38.347   7.950
 5950POPC   C4B22198  33.984  38.336   7.650
 5951POPC   NC322199  24.534  13.643   9.450
 5951POPC   PO422200  24.451  13.647   9.150
 5951POPC   GL122201  24.467  13.610   8.850
 5951POPC   GL222202  24.433  13.648   8.850
 5951POPC   C1A22203  24.531  13.607   8.550
 5951POPC   D2A22204  24.481  13.652   8.250
 5951POPC   C3A22205  24.461  13.664   7.950
 5951POPC   C4A22206  24.462  13.647   7.650
 5951POPC   C1B22207  24.262  13.789   8.550
 5951POPC   C2B22208  24.324  13.714   8.250
 5951POPC   C3B22209  24.322  13.729   7.950
 5951POPC   C4B22210  24.284  13.792   7.650
 5952POPC   NC322211   8.944  34.602   9.450
 5952POPC   PO422212   8.939  34.567   9.150
 5952POPC   GL122213   8.964  34.577   8.850
 5952POPC   GL222214   9.069  34.509   8.850
 5952POPC   C1A22215   8.929  34.615   8.550
 5952POPC   D2A22216   8.992  34.553   8.250
 5952POPC   C3A22217   8.970  34.586   7.950
 5952POPC   C4A22218   8.971  34.565   7.650
 5952POPC   C1B22219   9.169  34.386   8.550
 5952POPC   C2B22220   9.108  34.376   8.250
 5952POPC   C3B22221   9.112  34.361   7.950
 5952POPC   C4B22222   9.136  34.365   7.650
 5953POPC   NC322223  31.486  18.249   9.450
 5953POPC   PO422224  31.474  18.306   9.150
 5953POPC   GL122225  31.448  18.329   8.850
 5953POPC   GL222226  31.591  18.394   8.850
 5953POPC   C1A22227  31.520  18.327   8.550
 5953POPC   D2A22228  31.455  18.263   8.250
 5953POPC   C3A22229  31.450  18.281   7.950
 5953POPC   C4A22230  31.448  18.266   7.650
 5953POPC   C1B22231  31.728  18.376   8.550
 5953POPC   C2B22232  31.645  18.449   8.250
 5953POPC   C3B22233  31.656  18.459   7.950
 5953POPC   C4B22234  31.631  18.390   7.650
 5954POPC   NC322235  12.832  18.320   9.450
 5954POPC   PO422236  12.894  18.313   9.150
 5954POPC   GL122237  12.821  18.284   8.850
 5954POPC   GL222238  12.750  18.330   8.850
 5954POPC   C1A22239  12.862  18.260   8.550
 5954POPC   D2A22240  12.881  18.329   8.250
 5954POPC   C3A22241  12.881  18.323   7.950
 5954POPC   C4A22242  12.889  18.236   7.650
 5954POPC   C1B22243  12.625  18.298   8.550
 5954POPC   C2B22244  12.576  18.275   8.250
 5954POPC   C3B22245  12.631  18.289   7.950
 5954POPC   C4B22246  12.629  18.338   7.650
 5955POPC   NC322247  23.698  19.790   9.450
 5955POPC   PO422248  23.689  19.846   9.150
 5955POPC   GL122249  23.717  19.833   8.850
 5955POPC   GL222250  23.645  19.782   8.850
 5955POPC   C1A22251  23.671  19.798   8.550
 5955POPC   D2A22252  23.679  19.842   8.250
 5955POPC   C3A22253  23.684  19.872   7.950
 5955POPC   C4A22254  23.684  19.825   7.650
 5955POPC   C1B22255  23.549  19.690   8.550
 5955POPC   C2B22256  23.585  19.651   8.250
 5955POPC   C3B22257  23.534  19.693   7.950
 5955POPC   C4B22258  23.564  19.626   7.650
 5956POPC   NC322259  27.580  23.691   9.450
 5956POPC   PO422260  27.579  23.716   9.150
 5956POPC   GL122261  27.585  23.676   8.850
 5956POPC   GL222262  27.457  23.742   8.850
 5956POPC   C1A22263  27.591  23.681   8.550
 5956POPC   D2A22264  27.600  23.723   8.250
 5956POPC   C3A22265  27.643  23.717   7.950
 5956POPC   C4A22266  27.642  23.677   7.650
 5956POPC   C1B22267  27.381  23.807   8.550
 5956POPC   C2B22268  27.348  23.893   8.250
 5956POPC   C3B22269  27.348  23.844   7.950
 5956POPC   C4B22270  27.408  23.799   7.650
 5957POPC   NC322271  32.230  40.015   9.450
 5957POPC   PO422272  32.278  40.015   9.150
 5957POPC   GL122273  32.293  39.958   8.850
 5957POPC   GL222274  32.326  39.923   8.850
 5957POPC   C1A22275  32.243  39.958   8.550
 5957POPC   D2A22276  32.286  40.036   8.250
 5957POPC   C3A22277  32.259  40.035   7.950
 5957POPC   C4A22278  32.216  39.979   7.650
 5957POPC   C1B22279  32.393  39.821   8.550
 5957POPC   C2B22280  32.386  39.759   8.250
 5957POPC   C3B22281  32.446  39.851   7.950
 5957POPC   C4B22282  32.422  39.853   7.650
 5958POPC   NC322283   6.632   6.611   9.450
 5958POPC   PO422284   6.644   6.684   9.150
 5958POPC   GL122285   6.647   6.669   8.850
 5958POPC   GL222286   6.702   6.777   8.850
 5958POPC   C1A22287   6.650   6.651   8.550
 5958POPC   D2A22288   6.657   6.611   8.250
 5958POPC   C3A22289   6.687   6.694   7.950
 5958POPC   C4A22290   6.676   6.629   7.650
 5958POPC   C1B22291   6.726   6.914   8.550
 5958POPC   C2B22292   6.709   6.893   8.250
 5958POPC   C3B22293   6.716   6.871   7.950
 5958POPC   C4B22294   6.666   6.939   7.650
 5959POPC   NC322295   1.210  40.789   9.450
 5959POPC   PO422296   1.169  40.808   9.150
 5959POPC   GL122297   1.179  40.779   8.850
 5959POPC   GL222298   1.316  40.719   8.850
 5959POPC   C1A22299   1.208  40.777   8.550
 5959POPC   D2A22300   1.250  40.744   8.250
 5959POPC   C3A22301   1.170  40.760   7.950
 5959POPC   C4A22302   1.218  40.806   7.650
 5959POPC   C1B22303   1.379  40.604   8.550
 5959POPC   C2B22304   1.385  40.619   8.250
 5959POPC   C3B22305   1.377  40.644   7.950
 5959POPC   C4B22306   1.440  40.616   7.650
 5960POPC   NC322307  15.184  15.997   9.450
 5960POPC   PO422308  15.164  15.935   9.150
 5960POPC   GL122309  15.176  15.997   8.850
 5960POPC   GL222310  15.280  16.052   8.850
 5960POPC   C1A22311  15.183  15.962   8.550
 5960POPC   D2A22312  15.222  15.999   8.250
 5960POPC   C3A22313  15.192  15.925   7.950
 5960POPC   C4A22314  15.206  15.977   7.650
 5960POPC   C1B22315  15.353  16.126   8.550
 5960POPC   C2B22316  15.336  16.122   8.250
 5960POPC   C3B22317  15.339  16.123   7.950
 5960POPC   C4B22318  15.402  16.146   7.650
 5961POPC   NC322319  29.922   5.895   9.450
 5961POPC   PO422320  29.961   5.827   9.150
 5961POPC   GL122321  29.955   5.832   8.850
 5961POPC   GL222322  29.784   5.771   8.850
 5961POPC   C1A22323  29.887   5.907   8.550
 5961POPC   D2A22324  29.956   5.867   8.250
 5961POPC   C3A22325  29.911   5.903   7.950
 5961POPC   C4A22326  29.929   5.838   7.650
 5961POPC   C1B22327  29.702   5.691   8.550
 5961POPC   C2B22328  29.706   5.672   8.250
 5961POPC   C3B22329  29.784   5.740   7.950
 5961POPC   C4B22330  29.745   5.737   7.650
 5962POPC   NC322331  29.147  14.358   9.450
 5962POPC   PO422332  29.113  14.417   9.150
 5962POPC   GL122333  29.162  14.379   8.850
 5962POPC   GL222334  29.284  14.424   8.850
 5962POPC   C1A22335  29.121  14.400   8.550
 5962POPC   D2A22336  29.176  14.377   8.250
 5962POPC   C3A22337  29.168  14.404   7.950
 5962POPC   C4A22338  29.173  14.431   7.650
 5962POPC   C1B22339  29.354  14.490   8.550
 5962POPC   C2B22340  29.387  14.454   8.250
 5962POPC   C3B22341  29.402  14.445   7.950
 5962POPC   C4B22342  29.360  14.453   7.650
 5963POPC   NC322343   5.832  37.653   9.450
 5963POPC   PO422344   5.873  37.635   9.150
 5963POPC   GL122345   5.913  37.703   8.850
 5963POPC   GL222346   5.799  37.647   8.850
 5963POPC   C1A22347   5.847  37.699   8.550
 5963POPC   D2A22348   5.828  37.651   8.250
 5963POPC   C3A22349   5.831  37.690   7.950
 5963POPC   C4A22350   5.896  37.636   7.650
 5963POPC   C1B22351   5.651  37.576   8.550
 5963POPC   C2B22352   5.675  37.615   8.250
 5963POPC   C3B22353   5.668  37.565   7.950
 5963POPC   C4B22354   5.600  37.570   7.650
 5964POPC   NC322355  24.505  23.680   9.450
 5964POPC   PO422356  24.470  23.721   9.150
 5964POPC   GL122357  24.445  23.676   8.850
 5964POPC   GL222358  24.634  23.712   8.850
 5964POPC   C1A22359  24.502  23.712   8.550
 5964POPC   D2A22360  24.512  23.706   8.250
 5964POPC   C3A22361  24.505  23.716   7.950
 5964POPC   C4A22362  24.510  23.744   7.650
 5964POPC   C1B22363  24.712  23.567   8.550
 5964POPC   C2B22364  24.710  23.573   8.250
 5964POPC   C3B22365  24.683  23.626   7.950
 5964POPC   C4B22366  24.716  23.612   7.650
 5965POPC   NC322367  43.119  40.783   9.450
 5965POPC   PO422368  43.086  40.779   9.150
 5965POPC   GL122369  43.158  40.766   8.850
 5965POPC   GL222370  42.991  40.882   8.850
 5965POPC   C1A22371  43.076  40.792   8.550
 5965POPC   D2A22372  43.140  40.743   8.250
 5965POPC   C3A22373  43.145  40.794   7.950
 5965POPC   C4A22374  43.078  40.770   7.650
 5965POPC   C1B22375  42.882  40.903   8.550
 5965POPC   C2B22376  42.922  40.938   8.250
 5965POPC   C3B22377  42.930  40.885   7.950
 5965POPC   C4B22378  42.930  40.936   7.650
 5966POPC   NC322379  13.592  43.132   9.450
 5966POPC   PO422380  13.663  43.118   9.150
 5966POPC   GL122381  13.602  43.080   8.850
 5966POPC   GL222382  13.562  43.131   8.850
 5966POPC   C1A22383  13.622  43.136   8.550
 5966POPC   D2A22384  13.579  43.096   8.250
 5966POPC   C3A22385  13.605  43.067   7.950
 5966POPC   C4A22386  13.675  43.086   7.650
 5966POPC   C1B22387  13.407  43.250   8.550
 5966POPC   C2B22388  13.431  43.223   8.250
 5966POPC   C3B22389  13.398  43.183   7.950
 5966POPC   C4B22390  13.420  43.193   7.650
 5967POPC   NC322391  13.621  36.902   9.450
 5967POPC   PO422392  13.609  36.896   9.150
 5967POPC   GL122393  13.616  36.878   8.850
 5967POPC   GL222394  13.583  36.776   8.850
 5967POPC   C1A22395  13.673  36.912   8.550
 5967POPC   D2A22396  13.605  36.863   8.250
 5967POPC   C3A22397  13.596  36.879   7.950
 5967POPC   C4A22398  13.672  36.863   7.650
 5967POPC   C1B22399  13.431  36.747   8.550
 5967POPC   C2B22400  13.485  36.723   8.250
 5967POPC   C3B22401  13.444  36.680   7.950
 5967POPC   C4B22402  13.486  36.716   7.650
 5968POPC   NC322403  26.832   5.846   9.450
 5968POPC   PO422404  26.840   5.904   9.150
 5968POPC   GL122405  26.796   5.884   8.850
 5968POPC   GL222406  26.901   5.811   8.850
 5968POPC   C1A22407  26.777   5.908   8.550
 5968POPC   D2A22408  26.840   5.889   8.250
 5968POPC   C3A22409  26.865   5.866   7.950
 5968POPC   C4A22410  26.782   5.892   7.650
 5968POPC   C1B22411  26.984   5.627   8.550
 5968POPC   C2B22412  26.951   5.679   8.250
 5968POPC   C3B22413  26.905   5.693   7.950
 5968POPC   C4B22414  26.928   5.623   7.650
 5969POPC   NC322415  15.173  22.959   9.450
 5969POPC   PO422416  15.193  22.894   9.150
 5969POPC   GL122417  15.161  22.942   8.850
 5969POPC   GL222418  15.139  22.872   8.850
 5969POPC   C1A22419  15.151  22.930   8.550
 5969POPC   D2A22420  15.166  22.934   8.250
 5969POPC   C3A22421  15.134  22.984   7.950
 5969POPC   C4A22422  15.152  22.890   7.650
 5969POPC   C1B22423  15.004  22.750   8.550
 5969POPC   C2B22424  15.020  22.766   8.250
 5969POPC   C3B22425  15.040  22.728   7.950
 5969POPC   C4B22426  15.081  22.682   7.650
 5970POPC   NC322427  29.191  26.772   9.450
 5970POPC   PO422428  29.187  26.838   9.150
 5970POPC   GL122429  29.135  26.789   8.850
 5970POPC   GL222430  29.032  26.756   8.850
 5970POPC   C1A22431  29.169  26.806   8.550
 5970POPC   D2A22432  29.110  26.805   8.250
 5970POPC   C3A22433  29.137  26.789   7.950
 5970POPC   C4A22434  29.161  26.816   7.650
 5970POPC   C1B22435  28.901  26.771   8.550
 5970POPC   C2B22436  28.891  26.714   8.250
 5970POPC   C3B22437  28.935  26.694   7.950
 5970POPC   C4B22438  28.957  26.693   7.650
 5971POPC   NC322439   2.806  36.103   9.450
 5971POPC   PO422440   2.717  36.117   9.150
 5971POPC   GL122441   2.803  36.126   8.850
 5971POPC   GL222442   2.901  36.200   8.850
 5971POPC   C1A22443   2.801  36.100   8.550
 5971POPC   D2A22444   2.745  36.146   8.250
 5971POPC   C3A22445   2.815  36.156   7.950
 5971POPC   C4A22446   2.801  36.081   7.650
 5971POPC   C1B22447   3.010  36.229   8.550
 5971POPC   C2B22448   3.011  36.249   8.250
 5971POPC   C3B22449   2.978  36.262   7.950
 5971POPC   C4B22450   2.997  36.276   7.650
 5972POPC   NC322451  29.931  26.797   9.450
 5972POPC   PO422452  29.906  26.838   9.150
 5972POPC   GL122453  29.908  26.795   8.850
 5972POPC   GL222454  30.015  26.694   8.850
 5972POPC   C1A22455  29.969  26.809   8.550
 5972POPC   D2A22456  29.909  26.795   8.250
 5972POPC   C3A22457  29.959  26.768   7.950
 5972POPC   C4A22458  29.878  26.780   7.650
 5972POPC   C1B22459  30.125  26.600   8.550
 5972POPC   C2B22460  30.091  26.674   8.250
 5972POPC   C3B22461  30.095  26.620   7.950
 5972POPC   C4B22462  30.075  26.659   7.650
 5973POPC   NC322463   0.481  21.362   9.450
 5973POPC   PO422464   0.477  21.379   9.150
 5973POPC   GL122465   0.430  21.379   8.850
 5973POPC   GL222466   0.475  21.322   8.850
 5973POPC   C1A22467   0.393  21.372   8.550
 5973POPC   D2A22468   0.454  21.384   8.250
 5973POPC   C3A22469   0.414  21.411   7.950
 5973POPC   C4A22470   0.455  21.412   7.650
 5973POPC   C1B22471   0.570  21.194   8.550
 5973POPC   C2B22472   0.568  21.211   8.250
 5973POPC   C3B22473   0.573  21.144   7.950
 5973POPC   C4B22474   0.521  21.152   7.650
 5974POPC   NC322475  40.053  38.499   9.450
 5974POPC   PO422476  40.018  38.456   9.150
 5974POPC   GL122477  40.002  38.430   8.850
 5974POPC   GL222478  40.113  38.403   8.850
 5974POPC   C1A22479  40.028  38.452   8.550
 5974POPC   D2A22480  40.005  38.461   8.250
 5974POPC   C3A22481  40.029  38.406   7.950
 5974POPC   C4A22482  39.971  38.441   7.650
 5974POPC   C1B22483  40.246  38.286   8.550
 5974POPC   C2B22484  40.236  38.271   8.250
 5974POPC   C3B22485  40.226  38.256   7.950
 5974POPC   C4B22486  40.197  38.276   7.650
 5975POPC   NC322487  26.038  21.411   9.450
 5975POPC   PO422488  26.077  21.425   9.150
 5975POPC   GL122489  26.010  21.339   8.850
 5975POPC   GL222490  26.084  21.247   8.850
 5975POPC   C1A22491  26.040  21.340   8.550
 5975POPC   D2A22492  26.019  21.394   8.250
 5975POPC   C3A22493  26.057  21.389   7.950
 5975POPC   C4A22494  26.056  21.397   7.650
 5975POPC   C1B22495  26.102  21.160   8.550
 5975POPC   C2B22496  26.099  21.176   8.250
 5975POPC   C3B22497  26.131  21.160   7.950
 5975POPC   C4B22498  26.079  21.141   7.650
 5976POPC   NC322499  22.168  21.384   9.450
 5976POPC   PO422500  22.195  21.407   9.150
 5976POPC   GL122501  22.195  21.396   8.850
 5976POPC   GL222502  22.329  21.375   8.850
 5976POPC   C1A22503  22.134  21.400   8.550
 5976POPC   D2A22504  22.183  21.430   8.250
 5976POPC   C3A22505  22.196  21.352   7.950
 5976POPC   C4A22506  22.142  21.436   7.650
 5976POPC   C1B22507  22.359  21.292   8.550
 5976POPC   C2B22508  22.428  21.313   8.250
 5976POPC   C3B22509  22.441  21.267   7.950
 5976POPC   C4B22510  22.374  21.297   7.650
 5977POPC   NC322511  38.433  14.418   9.450
 5977POPC   PO422512  38.407  14.429   9.150
 5977POPC   GL122513  38.462  14.435   8.850
 5977POPC   GL222514  38.349  14.487   8.850
 5977POPC   C1A22515  38.431  14.363   8.550
 5977POPC   D2A22516  38.415  14.379   8.250
 5977POPC   C3A22517  38.417  14.432   7.950
 5977POPC   C4A22518  38.426  14.421   7.650
 5977POPC   C1B22519  38.248  14.543   8.550
 5977POPC   C2B22520  38.250  14.507   8.250
 5977POPC   C3B22521  38.270  14.526   7.950
 5977POPC   C4B22522  38.285  14.522   7.650
 5978POPC   NC322523  42.363  15.921   9.450
 5978POPC   PO422524  42.291  15.949   9.150
 5978POPC   GL122525  42.364  15.971   8.850
 5978POPC   GL222526  42.472  15.867   8.850
 5978POPC   C1A22527  42.359  15.945   8.550
 5978POPC   D2A22528  42.295  15.941   8.250
 5978POPC   C3A22529  42.317  15.985   7.950
 5978POPC   C4A22530  42.377  15.908   7.650
 5978POPC   C1B22531  42.582  15.850   8.550
 5978POPC   C2B22532  42.586  15.834   8.250
 5978POPC   C3B22533  42.523  15.857   7.950
 5978POPC   C4B22534  42.586  15.884   7.650
 5979POPC   NC322535  43.929   1.234   9.450
 5979POPC   PO422536  43.894   1.236   9.150
 5979POPC   GL122537  43.868   1.165   8.850
 5979POPC   GL222538  44.011   1.180   8.850
 5979POPC   C1A22539  43.915   1.218   8.550
 5979POPC   D2A22540  43.892   1.225   8.250
 5979POPC   C3A22541  43.931   1.246   7.950
 5979POPC   C4A22542  43.923   1.223   7.650
 5979POPC   C1B22543  44.091   1.054   8.550
 5979POPC   C2B22544  44.046   1.011   8.250
 5979POPC   C3B22545  44.121   1.085   7.950
 5979POPC   C4B22546  44.027   1.002   7.650
 5980POPC   NC322547   2.773  25.289   9.450
 5980POPC   PO422548   2.811  25.269   9.150
 5980POPC   GL122549   2.776  25.311   8.850
 5980POPC   GL222550   2.843  25.125   8.850
 5980POPC   C1A22551   2.798  25.308   8.550
 5980POPC   D2A22552   2.733  25.289   8.250
 5980POPC   C3A22553   2.746  25.265   7.950
 5980POPC   C4A22554   2.797  25.236   7.650
 5980POPC   C1B22555   2.864  25.010   8.550
 5980POPC   C2B22556   2.946  25.050   8.250
 5980POPC   C3B22557   2.922  25.102   7.950
 5980POPC   C4B22558   2.877  25.084   7.650
 5981POPC   NC322559   6.654   1.975   9.450
 5981POPC   PO422560   6.681   2.003   9.150
 5981POPC   GL122561   6.668   2.003   8.850
 5981POPC   GL222562   6.546   2.025   8.850
 5981POPC   C1A22563   6.690   2.037   8.550
 5981POPC   D2A22564   6.624   1.989   8.250
 5981POPC   C3A22565   6.672   2.036   7.950
 5981POPC   C4A22566   6.639   2.005   7.650
 5981POPC   C1B22567   6.389   2.131   8.550
 5981POPC   C2B22568   6.469   2.135   8.250
 5981POPC   C3B22569   6.426   2.148   7.950
 5981POPC   C4B22570   6.409   2.088   7.650
 5982POPC   NC322571   9.752  11.258   9.450
 5982POPC   PO422572   9.719  11.349   9.150
 5982POPC   GL122573   9.716  11.272   8.850
 5982POPC   GL222574   9.664  11.341   8.850
 5982POPC   C1A22575   9.767  11.287   8.550
 5982POPC   D2A22576   9.737  11.268   8.250
 5982POPC   C3A22577   9.796  11.276   7.950
 5982POPC   C4A22578   9.704  11.283   7.650
 5982POPC   C1B22579   9.573  11.471   8.550
 5982POPC   C2B22580   9.565  11.430   8.250
 5982POPC   C3B22581   9.561  11.446   7.950
 5982POPC   C4B22582   9.524  11.460   7.650
 5983POPC   NC322583  32.992   3.494   9.450
 5983POPC   PO422584  33.003   3.531   9.150
 5983POPC   GL122585  33.065   3.580   8.850
 5983POPC   GL222586  32.934   3.469   8.850
 5983POPC   C1A22587  33.031   3.500   8.550
 5983POPC   D2A22588  33.020   3.517   8.250
 5983POPC   C3A22589  33.074   3.552   7.950
 5983POPC   C4A22590  33.016   3.516   7.650
 5983POPC   C1B22591  32.883   3.356   8.550
 5983POPC   C2B22592  32.867   3.330   8.250
 5983POPC   C3B22593  32.906   3.328   7.950
 5983POPC   C4B22594  32.830   3.399   7.650
 5984POPC   NC322595  27.633  19.033   9.450
 5984POPC   PO422596  27.545  19.050   9.150
 5984POPC   GL122597  27.626  19.039   8.850
 5984POPC   GL222598  27.687  19.167   8.850
 5984POPC   C1A22599  27.553  19.076   8.550
 5984POPC   D2A22600  27.554  19.060   8.250
 5984POPC   C3A22601  27.549  19.051   7.950
 5984POPC   C4A22602  27.642  19.028   7.650
 5984POPC   C1B22603  27.761  19.177   8.550
 5984POPC   C2B22604  27.767  19.206   8.250
 5984POPC   C3B22605  27.757  19.223   7.950
 5984POPC   C4B22606  27.787  19.144   7.650
 5985POPC   NC322607   5.117  23.728   9.450
 5985POPC   PO422608   5.065  23.726   9.150
 5985POPC   GL122609   5.059  23.736   8.850
 5985POPC   GL222610   5.111  23.799   8.850
 5985POPC   C1A22611   5.078  23.692   8.550
 5985POPC   D2A22612   5.118  23.698   8.250
 5985POPC   C3A22613   5.106  23.698   7.950
 5985POPC   C4A22614   5.049  23.735   7.650
 5985POPC   C1B22615   5.214  23.954   8.550
 5985POPC   C2B22616   5.212  23.971   8.250
 5985POPC   C3B22617   5.251  23.969   7.950
 5985POPC   C4B22618   5.189  23.901   7.650
 5986POPC   NC322619   2.763  12.890   9.450
 5986POPC   PO422620   2.725  12.815   9.150
 5986POPC   GL122621   2.734  12.868   8.850
 5986POPC   GL222622   2.670  12.790   8.850
 5986POPC   C1A22623   2.790  12.858   8.550
 5986POPC   D2A22624   2.762  12.839   8.250
 5986POPC   C3A22625   2.789  12.842   7.950
 5986POPC   C4A22626   2.724  12.892   7.650
 5986POPC   C1B22627   2.491  12.785   8.550
 5986POPC   C2B22628   2.556  12.793   8.250
 5986POPC   C3B22629   2.502  12.730   7.950
 5986POPC   C4B22630   2.537  12.747   7.650
 5987POPC   NC322631   1.238  35.396   9.450
 5987POPC   PO422632   1.172  35.321   9.150
 5987POPC   GL122633   1.236  35.310   8.850
 5987POPC   GL222634   1.172  35.502   8.850
 5987POPC   C1A22635   1.170  35.354   8.550
 5987POPC   D2A22636   1.233  35.346   8.250
 5987POPC   C3A22637   1.207  35.308   7.950
 5987POPC   C4A22638   1.235  35.368   7.650
 5987POPC   C1B22639   1.086  35.612   8.550
 5987POPC   C2B22640   1.071  35.563   8.250
 5987POPC   C3B22641   1.102  35.552   7.950
 5987POPC   C4B22642   1.132  35.581   7.650
 5988POPC   NC322643  22.938   2.770   9.450
 5988POPC   PO422644  22.947   2.732   9.150
 5988POPC   GL122645  22.969   2.724   8.850
 5988POPC   GL222646  22.886   2.909   8.850
 5988POPC   C1A22647  22.916   2.758   8.550
 5988POPC   D2A22648  22.921   2.764   8.250
 5988POPC   C3A22649  22.891   2.753   7.950
 5988POPC   C4A22650  22.987   2.721   7.650
 5988POPC   C1B22651  22.954   2.968   8.550
 5988POPC   C2B22652  22.926   2.986   8.250
 5988POPC   C3B22653  22.868   3.022   7.950
 5988POPC   C4B22654  22.909   3.022   7.650
 5989POPC   NC322655  34.526  44.697   9.450
 5989POPC   PO422656  34.583  44.626   9.150
 5989POPC   GL122657  34.589  44.684   8.850
 5989POPC   GL222658  34.587  44.561   8.850
 5989POPC   C1A22659  34.605  44.646   8.550
 5989POPC   D2A22660  34.555  44.637   8.250
 5989POPC   C3A22661  34.574  44.687   7.950
 5989POPC   C4A22662  34.602  44.686   7.650
 5989POPC   C1B22663  34.574  44.436   8.550
 5989POPC   C2B22664  34.500  44.402   8.250
 5989POPC   C3B22665  34.504  44.442   7.950
 5989POPC   C4B22666  34.528  44.442   7.650
 5990POPC   NC322667  11.292  42.372   9.450
 5990POPC   PO422668  11.340  42.380   9.150
 5990POPC   GL122669  11.288  42.310   8.850
 5990POPC   GL222670  11.343  42.231   8.850
 5990POPC   C1A22671  11.291  42.335   8.550
 5990POPC   D2A22672  11.260  42.329   8.250
 5990POPC   C3A22673  11.284  42.333   7.950
 5990POPC   C4A22674  11.325  42.345   7.650
 5990POPC   C1B22675  11.342  42.114   8.550
 5990POPC   C2B22676  11.387  42.081   8.250
 5990POPC   C3B22677  11.392  42.050   7.950
 5990POPC   C4B22678  11.377  42.066   7.650
 5991POPC   NC322679  43.118  21.371   9.450
 5991POPC   PO422680  43.064  21.372   9.150
 5991POPC   GL122681  43.137  21.427   8.850
 5991POPC   GL222682  43.096  21.464   8.850
 5991POPC   C1A22683  43.143  21.413   8.550
 5991POPC   D2A22684  43.160  21.389   8.250
 5991POPC   C3A22685  43.123  21.382   7.950
 5991POPC   C4A22686  43.083  21.385   7.650
 5991POPC   C1B22687  43.017  21.626   8.550
 5991POPC   C2B22688  43.051  21.611   8.250
 5991POPC   C3B22689  43.067  21.678   7.950
 5991POPC   C4B22690  43.063  21.677   7.650
 5992POPC   NC322691   3.492   1.953   9.450
 5992POPC   PO422692   3.562   1.952   9.150
 5992POPC   GL122693   3.587   2.002   8.850
 5992POPC   GL222694   3.676   1.993   8.850
 5992POPC   C1A22695   3.578   2.003   8.550
 5992POPC   D2A22696   3.563   1.985   8.250
 5992POPC   C3A22697   3.516   1.975   7.950
 5992POPC   C4A22698   3.529   2.014   7.650
 5992POPC   C1B22699   3.773   1.916   8.550
 5992POPC   C2B22700   3.804   1.934   8.250
 5992POPC   C3B22701   3.733   1.905   7.950
 5992POPC   C4B22702   3.749   1.903   7.650
 5993POPC   NC322703   2.807  22.211   9.450
 5993POPC   PO422704   2.755  22.203   9.150
 5993POPC   GL122705   2.729  22.178   8.850
 5993POPC   GL222706   2.648  22.132   8.850
 5993POPC   C1A22707   2.792  22.183   8.550
 5993POPC   D2A22708   2.757  22.182   8.250
 5993POPC   C3A22709   2.752  22.165   7.950
 5993POPC   C4A22710   2.731  22.166   7.650
 5993POPC   C1B22711   2.560  22.047   8.550
 5993POPC   C2B22712   2.487  22.117   8.250
 5993POPC   C3B22713   2.573  22.140   7.950
 5993POPC   C4B22714   2.527  22.141   7.650
 5994POPC   NC322715  30.738   8.241   9.450
 5994POPC   PO422716  30.695   8.184   9.150
 5994POPC   GL122717  30.715   8.213   8.850
 5994POPC   GL222718  30.667   8.051   8.850
 5994POPC   C1A22719  30.743   8.173   8.550
 5994POPC   D2A22720  30.726   8.225   8.250
 5994POPC   C3A22721  30.698   8.165   7.950
 5994POPC   C4A22722  30.649   8.185   7.650
 5994POPC   C1B22723  30.568   7.986   8.550
 5994POPC   C2B22724  30.529   8.028   8.250
 5994POPC   C3B22725  30.512   7.955   7.950
 5994POPC   C4B22726  30.586   7.969   7.650
 5995POPC   NC322727  32.998   5.905   9.450
 5995POPC   PO422728  32.987   5.842   9.150
 5995POPC   GL122729  33.046   5.837   8.850
 5995POPC   GL222730  33.067   5.714   8.850
 5995POPC   C1A22731  32.987   5.905   8.550
 5995POPC   D2A22732  33.021   5.870   8.250
 5995POPC   C3A22733  32.994   5.877   7.950
 5995POPC   C4A22734  32.987   5.873   7.650
 5995POPC   C1B22735  33.126   5.580   8.550
 5995POPC   C2B22736  33.137   5.614   8.250
 5995POPC   C3B22737  33.106   5.594   7.950
 5995POPC   C4B22738  33.063   5.608   7.650
 5996POPC   NC322739  19.863  19.037   9.450
 5996POPC   PO422740  19.852  19.023   9.150
 5996POPC   GL122741  19.823  19.089   8.850
 5996POPC   GL222742  19.730  19.124   8.850
 5996POPC   C1A22743  19.797  19.063   8.550
 5996POPC   D2A22744  19.869  19.074   8.250
 5996POPC   C3A22745  19.812  19.014   7.950
 5996POPC   C4A22746  19.826  19.017   7.650
 5996POPC   C1B22747  19.671  19.274   8.550
 5996POPC   C2B22748  19.657  19.228   8.250
 5996POPC   C3B22749  19.704  19.219   7.950
 5996POPC   C4B22750  19.699  19.220   7.650
 5997POPC   NC322751   0.401  31.430   9.450
 5997POPC   PO422752   0.391  31.481   9.150
 5997POPC   GL122753   0.396  31.437   8.850
 5997POPC   GL222754   0.500  31.541   8.850
 5997POPC   C1A22755   0.422  31.505   8.550
 5997POPC   D2A22756   0.462  31.510   8.250
 5997POPC   C3A22757   0.446  31.516   7.950
 5997POPC   C4A22758   0.480  31.423   7.650
 5997POPC   C1B22759   0.512  31.687   8.550
 5997POPC   C2B22760   0.536  31.715   8.250
 5997POPC   C3B22761   0.565  31.684   7.950
 5997POPC   C4B22762   0.490  31.674   7.650
 5998POPC   NC322763  28.341  43.873   9.450
 5998POPC   PO422764  28.325  43.852   9.150
 5998POPC   GL122765  28.369  43.875   8.850
 5998POPC   GL222766  28.363  43.978   8.850
 5998POPC   C1A22767  28.402  43.892   8.550
 5998POPC   D2A22768  28.350  43.859   8.250
 5998POPC   C3A22769  28.363  43.879   7.950
 5998POPC   C4A22770  28.388  43.936   7.650
 5998POPC   C1B22771  28.318  44.133   8.550
 5998POPC   C2B22772  28.301  44.095   8.250
 5998POPC   C3B22773  28.325  44.151   7.950
 5998POPC   C4B22774  28.254  44.113   7.650
 5999POPC   NC322775  31.490  27.588   9.450
 5999POPC   PO422776  31.430  27.625   9.150
 5999POPC   GL122777  31.430  27.612   8.850
 5999POPC   GL222778  31.443  27.745   8.850
 5999POPC   C1A22779  31.450  27.628   8.550
 5999POPC   D2A22780  31.461  27.592   8.250
 5999POPC   C3A22781  31.441  27.582   7.950
 5999POPC   C4A22782  31.518  27.566   7.650
 5999POPC   C1B22783  31.471  27.842   8.550
 5999POPC   C2B22784  31.463  27.791   8.250
 5999POPC   C3B22785  31.442  27.813   7.950
 5999POPC   C4B22786  31.446  27.890   7.650
 6000POPC   NC322787   5.829  31.465   9.450
 6000POPC   PO422788   5.904  31.467   9.150
 6000POPC   GL122789   5.915  31.489   8.850
 6000POPC   GL222790   5.945  31.378   8.850
 6000POPC   C1A22791   5.823  31.489   8.550
 6000POPC   D2A22792   5.882  31.496   8.250
 6000POPC   C3A22793   5.846  31.446   7.950
 6000POPC   C4A22794   5.859  31.439   7.650
 6000POPC   C1B22795   6.095  31.324   8.550
 6000POPC   C2B22796   6.107  31.291   8.250
 6000POPC   C3B22797   6.112  31.359   7.950
 6000POPC   C4B22798   6.117  31.338   7.650
 6001POPC   NC322799   8.967  35.309   9.450
 6001POPC   PO422800   8.968  35.345   9.150
 6001POPC   GL122801   8.973  35.382   8.850
 6001POPC   GL222802   8.949  35.226   8.850
 6001POPC   C1A22803   8.999  35.350   8.550
 6001POPC   D2A22804   9.007  35.375   8.250
 6001POPC   C3A22805   8.956  35.363   7.950
 6001POPC   C4A22806   8.962  35.356   7.650
 6001POPC   C1B22807   8.906  35.125   8.550
 6001POPC   C2B22808   8.866  35.152   8.250
 6001POPC   C3B22809   8.887  35.119   7.950
 6001POPC   C4B22810   8.857  35.132   7.650
 6002POPC   NC322811   3.550  36.166   9.450
 6002POPC   PO422812   3.584  36.139   9.150
 6002POPC   GL122813   3.503  36.109   8.850
 6002POPC   GL222814   3.664  36.035   8.850
 6002POPC   C1A22815   3.529  36.136   8.550
 6002POPC   D2A22816   3.505  36.107   8.250
 6002POPC   C3A22817   3.576  36.173   7.950
 6002POPC   C4A22818   3.548  36.137   7.650
 6002POPC   C1B22819   3.760  35.917   8.550
 6002POPC   C2B22820   3.679  35.954   8.250
 6002POPC   C3B22821   3.682  35.969   7.950
 6002POPC   C4B22822   3.684  35.915   7.650
 6003POPC   NC322823  13.608  33.845   9.450
 6003POPC   PO422824  13.630  33.839   9.150
 6003POPC   GL122825  13.616  33.833   8.850
 6003POPC   GL222826  13.660  33.638   8.850
 6003POPC   C1A22827  13.659  33.755   8.550
 6003POPC   D2A22828  13.614  33.842   8.250
 6003POPC   C3A22829  13.613  33.774   7.950
 6003POPC   C4A22830  13.644  33.839   7.650
 6003POPC   C1B22831  13.657  33.593   8.550
 6003POPC   C2B22832  13.631  33.503   8.250
 6003POPC   C3B22833  13.629  33.543   7.950
 6003POPC   C4B22834  13.682  33.551   7.650
 6004POPC   NC322835  16.731  36.173   9.450
 6004POPC   PO422836  16.715  36.120   9.150
 6004POPC   GL122837  16.780  36.143   8.850
 6004POPC   GL222838  16.598  35.994   8.850
 6004POPC   C1A22839  16.780  36.089   8.550
 6004POPC   D2A22840  16.702  36.105   8.250
 6004POPC   C3A22841  16.724  36.172   7.950
 6004POPC   C4A22842  16.689  36.087   7.650
 6004POPC   C1B22843  16.521  35.912   8.550
 6004POPC   C2B22844  16.515  35.908   8.250
 6004POPC   C3B22845  16.556  35.918   7.950
 6004POPC   C4B22846  16.520  35.932   7.650
 6005POPC   NC322847   0.458  43.105   9.450
 6005POPC   PO422848   0.401  43.149   9.150
 6005POPC   GL122849   0.472  43.112   8.850
 6005POPC   GL222850   0.359  43.221   8.850
 6005POPC   C1A22851   0.484  43.147   8.550
 6005POPC   D2A22852   0.444  43.091   8.250
 6005POPC   C3A22853   0.405  43.109   7.950
 6005POPC   C4A22854   0.393  43.090   7.650
 6005POPC   C1B22855   0.302  43.380   8.550
 6005POPC   C2B22856   0.356  43.381   8.250
 6005POPC   C3B22857   0.374  43.359   7.950
 6005POPC   C4B22858   0.295  43.298   7.650
 6006POPC   NC322859  21.418  44.618   9.450
 6006POPC   PO422860  21.427  44.646   9.150
 6006POPC   GL122861  21.343  44.621   8.850
 6006POPC   GL222862  21.360  44.778   8.850
 6006POPC   C1A22863  21.418  44.638   8.550
 6006POPC   D2A22864  21.425  44.705   8.250
 6006POPC   C3A22865  21.378  44.644   7.950
 6006POPC   C4A22866  21.433  44.685   7.650
 6006POPC   C1B22867  21.375  44.911   8.550
 6006POPC   C2B22868  21.436  44.912   8.250
 6006POPC   C3B22869  21.379  44.945   7.950
 6006POPC   C4B22870  21.411  44.867   7.650
 6007POPC   NC322871  34.538  29.159   9.450
 6007POPC   PO422872  34.615  29.153   9.150
 6007POPC   GL122873  34.598  29.114   8.850
 6007POPC   GL222874  34.522  29.247   8.850
 6007POPC   C1A22875  34.600  29.111   8.550
 6007POPC   D2A22876  34.617  29.192   8.250
 6007POPC   C3A22877  34.624  29.106   7.950
 6007POPC   C4A22878  34.613  29.164   7.650
 6007POPC   C1B22879  34.403  29.376   8.550
 6007POPC   C2B22880  34.362  29.343   8.250
 6007POPC   C3B22881  34.445  29.314   7.950
 6007POPC   C4B22882  34.437  29.307   7.650
 6008POPC   NC322883  12.862  23.710   9.450
 6008POPC   PO422884  12.856  23.704   9.150
 6008POPC   GL122885  12.840  23.666   8.850
 6008POPC   GL222886  12.743  23.725   8.850
 6008POPC   C1A22887  12.889  23.676   8.550
 6008POPC   D2A22888  12.840  23.723   8.250
 6008POPC   C3A22889  12.818  23.749   7.950
 6008POPC   C4A22890  12.846  23.685   7.650
 6008POPC   C1B22891  12.573  23.716   8.550
 6008POPC   C2B22892  12.562  23.754   8.250
 6008POPC   C3B22893  12.609  23.750   7.950
 6008POPC   C4B22894  12.592  23.773   7.650
 6009POPC   NC322895  17.501  33.767   9.450
 6009POPC   PO422896  17.501  33.774   9.150
 6009POPC   GL122897  17.511  33.766   8.850
 6009POPC   GL222898  17.573  33.686   8.850
 6009POPC   C1A22899  17.503  33.831   8.550
 6009POPC   D2A22900  17.471  33.827   8.250
 6009POPC   C3A22901  17.481  33.754   7.950
 6009POPC   C4A22902  17.546  33.810   7.650
 6009POPC   C1B22903  17.618  33.510   8.550
 6009POPC   C2B22904  17.529  33.567   8.250
 6009POPC   C3B22905  17.523  33.523   7.950
 6009POPC   C4B22906  17.612  33.544   7.650
 6010POPC   NC322907  36.908  19.090   9.450
 6010POPC   PO422908  36.886  19.074   9.150
 6010POPC   GL122909  36.899  19.073   8.850
 6010POPC   GL222910  36.829  19.074   8.850
 6010POPC   C1A22911  36.858  19.018   8.550
 6010POPC   D2A22912  36.880  19.020   8.250
 6010POPC   C3A22913  36.925  19.031   7.950
 6010POPC   C4A22914  36.861  19.040   7.650
 6010POPC   C1B22915  36.610  19.029   8.550
 6010POPC   C2B22916  36.688  19.043   8.250
 6010POPC   C3B22917  36.698  19.022   7.950
 6010POPC   C4B22918  36.706  19.009   7.650
 6011POPC   NC322919  27.578  44.643   9.450
 6011POPC   PO422920  27.587  44.659   9.150
 6011POPC   GL122921  27.561  44.679   8.850
 6011POPC   GL222922  27.658  44.589   8.850
 6011POPC   C1A22923  27.613  44.686   8.550
 6011POPC   D2A22924  27.618  44.623   8.250
 6011POPC   C3A22925  27.588  44.616   7.950
 6011POPC   C4A22926  27.564  44.707   7.650
 6011POPC   C1B22927  27.840  44.514   8.550
 6011POPC   C2B22928  27.822  44.565   8.250
 6011POPC   C3B22929  27.799  44.528   7.950
 6011POPC   C4B22930  27.804  44.486   7.650
 6012POPC   NC322931   1.253  27.640   9.450
 6012POPC   PO422932   1.246  27.622   9.150
 6012POPC   GL122933   1.255  27.640   8.850
 6012POPC   GL222934   1.362  27.503   8.850
 6012POPC   C1A22935   1.172  27.639   8.550
 6012POPC   D2A22936   1.244  27.561   8.250
 6012POPC   C3A22937   1.262  27.556   7.950
 6012POPC   C4A22938   1.172  27.589   7.650
 6012POPC   C1B22939   1.363  27.399   8.550
 6012POPC   C2B22940   1.392  27.433   8.250
 6012POPC   C3B22941   1.439  27.435   7.950
 6012POPC   C4B22942   1.386  27.449   7.650
 6013POPC   NC322943  23.735   9.006   9.450
 6013POPC   PO422944  23.743   8.964   9.150
 6013POPC   GL122945  23.713   8.997   8.850
 6013POPC   GL222946  23.791   8.962   8.850
 6013POPC   C1A22947  23.667   9.003   8.550
 6013POPC   D2A22948  23.683   8.973   8.250
 6013POPC   C3A22949  23.721   8.972   7.950
 6013POPC   C4A22950  23.737   8.934   7.650
 6013POPC   C1B22951  23.992   8.863   8.550
 6013POPC   C2B22952  23.953   8.890   8.250
 6013POPC   C3B22953  23.909   8.903   7.950
 6013POPC   C4B22954  23.993   8.911   7.650
 6014POPC   NC322955  27.624  19.847   9.450
 6014POPC   PO422956  27.571  19.817   9.150
 6014POPC   GL122957  27.588  19.795   8.850
 6014POPC   GL222958  27.613  19.931   8.850
 6014POPC   C1A22959  27.613  19.836   8.550
 6014POPC   D2A22960  27.619  19.854   8.250
 6014POPC   C3A22961  27.614  19.843   7.950
 6014POPC   C4A22962  27.620  19.845   7.650
 6014POPC   C1B22963  27.680  20.087   8.550
 6014POPC   C2B22964  27.678  20.055   8.250
 6014POPC   C3B22965  27.666  20.033   7.950
 6014POPC   C4B22966  27.740  20.083   7.650
 6015POPC   NC322967  35.358   5.068   9.450
 6015POPC   PO422968  35.321   5.137   9.150
 6015POPC   GL122969  35.365   5.077   8.850
 6015POPC   GL222970  35.258   5.119   8.850
 6015POPC   C1A22971  35.386   5.061   8.550
 6015POPC   D2A22972  35.321   5.058   8.250
 6015POPC   C3A22973  35.310   5.075   7.950
 6015POPC   C4A22974  35.395   5.091   7.650
 6015POPC   C1B22975  35.078   5.156   8.550
 6015POPC   C2B22976  35.062   5.103   8.250
 6015POPC   C3B22977  35.108   5.078   7.950
 6015POPC   C4B22978  35.109   5.151   7.650
 6016POPC   NC322979   9.015  19.096   9.450
 6016POPC   PO422980   8.942  19.037   9.150
 6016POPC   GL122981   8.926  19.104   8.850
 6016POPC   GL222982   9.045  19.168   8.850
 6016POPC   C1A22983   8.938  19.043   8.550
 6016POPC   D2A22984   8.987  19.090   8.250
 6016POPC   C3A22985   9.017  19.084   7.950
 6016POPC   C4A22986   8.997  19.038   7.650
 6016POPC   C1B22987   9.123  19.231   8.550
 6016POPC   C2B22988   9.077  19.260   8.250
 6016POPC   C3B22989   9.051  19.244   7.950
 6016POPC   C4B22990   9.058  19.269   7.650
 6017POPC   NC322991  36.100  44.699   9.450
 6017POPC   PO422992  36.091  44.692   9.150
 6017POPC   GL122993  36.163  44.695   8.850
 6017POPC   GL222994  36.039  44.584   8.850
 6017POPC   C1A22995  36.085  44.699   8.550
 6017POPC   D2A22996  36.157  44.694   8.250
 6017POPC   C3A22997  36.103  44.618   7.950
 6017POPC   C4A22998  36.109  44.649   7.650
 6017POPC   C1B22999  36.048  44.383   8.550
 6017POPC   C2B23000  36.002  44.408   8.250
 6017POPC   C3B23001  36.053  44.440   7.950
 6017POPC   C4B23002  36.065  44.453   7.650
 6018POPC   NC323003  35.401  40.797   9.450
 6018POPC   PO423004  35.347  40.799   9.150
 6018POPC   GL123005  35.304  40.797   8.850
 6018POPC   GL223006  35.382  40.724   8.850
 6018POPC   C1A23007  35.320  40.830   8.550
 6018POPC   D2A23008  35.381  40.763   8.250
 6018POPC   C3A23009  35.357  40.742   7.950
 6018POPC   C4A23010  35.347  40.820   7.650
 6018POPC   C1B23011  35.508  40.609   8.550
 6018POPC   C2B23012  35.541  40.554   8.250
 6018POPC   C3B23013  35.491  40.612   7.950
 6018POPC   C4B23014  35.479  40.557   7.650
 6019POPC   NC323015  21.391   1.187   9.450
 6019POPC   PO423016  21.410   1.207   9.150
 6019POPC   GL123017  21.397   1.241   8.850
 6019POPC   GL223018  21.530   1.284   8.850
 6019POPC   C1A23019  21.373   1.234   8.550
 6019POPC   D2A23020  21.373   1.213   8.250
 6019POPC   C3A23021  21.350   1.208   7.950
 6019POPC   C4A23022  21.418   1.244   7.650
 6019POPC   C1B23023  21.658   1.285   8.550
 6019POPC   C2B23024  21.597   1.275   8.250
 6019POPC   C3B23025  21.640   1.284   7.950
 6019POPC   C4B23026  21.642   1.324   7.650
 6020POPC   NC323027  36.861  22.190   9.450
 6020POPC   PO423028  36.877  22.128   9.150
 6020POPC   GL123029  36.949  22.130   8.850
 6020POPC   GL223030  36.819  22.191   8.850
 6020POPC   C1A23031  36.872  22.142   8.550
 6020POPC   D2A23032  36.952  22.201   8.250
 6020POPC   C3A23033  36.862  22.141   7.950
 6020POPC   C4A23034  36.861  22.147   7.650
 6020POPC   C1B23035  36.682  22.231   8.550
 6020POPC   C2B23036  36.691  22.200   8.250
 6020POPC   C3B23037  36.705  22.213   7.950
 6020POPC   C4B23038  36.676  22.250   7.650
 6021POPC   NC323039  25.249  41.590   9.450
 6021POPC   PO423040  25.305  41.573   9.150
 6021POPC   GL123041  25.252  41.589   8.850
 6021POPC   GL223042  25.411  41.619   8.850
 6021POPC   C1A23043  25.252  41.573   8.550
 6021POPC   D2A23044  25.218  41.538   8.250
 6021POPC   C3A23045  25.315  41.589   7.950
 6021POPC   C4A23046  25.287  41.601   7.650
 6021POPC   C1B23047  25.443  41.633   8.550
 6021POPC   C2B23048  25.528  41.694   8.250
 6021POPC   C3B23049  25.440  41.702   7.950
 6021POPC   C4B23050  25.500  41.670   7.650
 6022POPC   NC323051   1.983  32.225   9.450
 6022POPC   PO423052   1.947  32.241   9.150
 6022POPC   GL123053   2.039  32.207   8.850
 6022POPC   GL223054   1.958  32.113   8.850
 6022POPC   C1A23055   1.965  32.296   8.550
 6022POPC   D2A23056   1.975  32.204   8.250
 6022POPC   C3A23057   1.946  32.229   7.950
 6022POPC   C4A23058   1.966  32.281   7.650
 6022POPC   C1B23059   1.928  32.019   8.550
 6022POPC   C2B23060   1.985  32.028   8.250
 6022POPC   C3B23061   1.971  32.003   7.950
 6022POPC   C4B23062   1.930  32.024   7.650
 6023POPC   NC323063  39.240   9.718   9.450
 6023POPC   PO423064  39.233   9.732   9.150
 6023POPC   GL123065  39.185   9.734   8.850
 6023POPC   GL223066  39.215   9.898   8.850
 6023POPC   C1A23067  39.278   9.792   8.550
 6023POPC   D2A23068  39.249   9.703   8.250
 6023POPC   C3A23069  39.246   9.761   7.950
 6023POPC   C4A23070  39.228   9.770   7.650
 6023POPC   C1B23071  39.225   9.961   8.550
 6023POPC   C2B23072  39.231   9.977   8.250
 6023POPC   C3B23073  39.213  10.016   7.950
 6023POPC   C4B23074  39.157  10.015   7.650
 6024POPC   NC323075  20.573  30.741   9.450
 6024POPC   PO423076  20.638  30.696   9.150
 6024POPC   GL123077  20.600  30.664   8.850
 6024POPC   GL223078  20.470  30.662   8.850
 6024POPC   C1A23079  20.650  30.743   8.550
 6024POPC   D2A23080  20.630  30.675   8.250
 6024POPC   C3A23081  20.619  30.653   7.950
 6024POPC   C4A23082  20.632  30.723   7.650
 6024POPC   C1B23083  20.375  30.560   8.550
 6024POPC   C2B23084  20.414  30.495   8.250
 6024POPC   C3B23085  20.421  30.487   7.950
 6024POPC   C4B23086  20.452  30.555   7.650
 6025POPC   NC323087  42.321   0.405   9.450
 6025POPC   PO423088  42.298   0.436   9.150
 6025POPC   GL123089  42.327   0.417   8.850
 6025POPC   GL223090  42.252   0.362   8.850
 6025POPC   C1A23091  42.343   0.469   8.550
 6025POPC   D2A23092  42.346   0.406   8.250
 6025POPC   C3A23093  42.373   0.396   7.950
 6025POPC   C4A23094  42.298   0.398   7.650
 6025POPC   C1B23095  42.132   0.392   8.550
 6025POPC   C2B23096  42.148   0.387   8.250
 6025POPC   C3B23097  42.134   0.368   7.950
 6025POPC   C4B23098  42.063   0.299   7.650
 6026POPC   NC323099  15.986  40.016   9.450
 6026POPC   PO423100  15.973  40.020   9.150
 6026POPC   GL123101  15.981  40.010   8.850
 6026POPC   GL223102  16.070  40.135   8.850
 6026POPC   C1A23103  15.938  40.021   8.550
 6026POPC   D2A23104  15.943  40.048   8.250
 6026POPC   C3A23105  15.906  39.993   7.950
 6026POPC   C4A23106  15.975  39.964   7.650
 6026POPC   C1B23107  16.133  40.180   8.550
 6026POPC   C2B23108  16.056  40.210   8.250
 6026POPC   C3B23109  16.108  40.217   7.950
 6026POPC   C4B23110  16.104  40.258   7.650
 6027POPC   NC323111  40.797   6.596   9.450
 6027POPC   PO423112  40.801   6.665   9.150
 6027POPC   GL123113  40.780   6.638   8.850
 6027POPC   GL223114  40.749   6.522   8.850
 6027POPC   C1A23115  40.743   6.622   8.550
 6027POPC   D2A23116  40.823   6.608   8.250
 6027POPC   C3A23117  40.818   6.617   7.950
 6027POPC   C4A23118  40.798   6.629   7.650
 6027POPC   C1B23119  40.823   6.388   8.550
 6027POPC   C2B23120  40.735   6.407   8.250
 6027POPC   C3B23121  40.833   6.422   7.950
 6027POPC   C4B23122  40.774   6.423   7.650
 6028POPC   NC323123  36.120  40.001   9.450
 6028POPC   PO423124  36.098  40.052   9.150
 6028POPC   GL123125  36.135  39.967   8.850
 6028POPC   GL223126  35.958  40.055   8.850
 6028POPC   C1A23127  36.125  40.053   8.550
 6028POPC   D2A23128  36.092  40.008   8.250
 6028POPC   C3A23129  36.170  40.011   7.950
 6028POPC   C4A23130  36.161  40.007   7.650
 6028POPC   C1B23131  35.908  40.033   8.550
 6028POPC   C2B23132  35.857  40.072   8.250
 6028POPC   C3B23133  35.910  40.028   7.950
 6028POPC   C4B23134  35.871  40.032   7.650
 6029POPC   NC323135  14.428  35.338   9.450
 6029POPC   PO423136  14.451  35.377   9.150
 6029POPC   GL123137  14.378  35.354   8.850
 6029POPC   GL223138  14.325  35.375   8.850
 6029POPC   C1A23139  14.353  35.346   8.550
 6029POPC   D2A23140  14.435  35.340   8.250
 6029POPC   C3A23141  14.419  35.346   7.950
 6029POPC   C4A23142  14.366  35.394   7.650
 6029POPC   C1B23143  14.189  35.408   8.550
 6029POPC   C2B23144  14.132  35.367   8.250
 6029POPC   C3B23145  14.157  35.378   7.950
 6029POPC   C4B23146  14.115  35.447   7.650
 6030POPC   NC323147  21.344   9.723   9.450
 6030POPC   PO423148  21.337   9.776   9.150
 6030POPC   GL123149  21.407   9.773   8.850
 6030POPC   GL223150  21.481   9.698   8.850
 6030POPC   C1A23151  21.379   9.743   8.550
 6030POPC   D2A23152  21.365   9.708   8.250
 6030POPC   C3A23153  21.430   9.756   7.950
 6030POPC   C4A23154  21.390   9.702   7.650
 6030POPC   C1B23155  21.641   9.652   8.550
 6030POPC   C2B23156  21.640   9.589   8.250
 6030POPC   C3B23157  21.616   9.579   7.950
 6030POPC   C4B23158  21.546   9.615   7.650
 6031POPC   NC323159   5.881   8.939   9.450
 6031POPC   PO423160   5.912   8.959   9.150
 6031POPC   GL123161   5.847   8.952   8.850
 6031POPC   GL223162   5.984   8.994   8.850
 6031POPC   C1A23163   5.868   8.950   8.550
 6031POPC   D2A23164   5.903   8.936   8.250
 6031POPC   C3A23165   5.819   8.934   7.950
 6031POPC   C4A23166   5.821   8.988   7.650
 6031POPC   C1B23167   6.164   8.967   8.550
 6031POPC   C2B23168   6.157   9.002   8.250
 6031POPC   C3B23169   6.106   9.025   7.950
 6031POPC   C4B23170   6.165   9.007   7.650
 6032POPC   NC323171   5.883  38.435   9.450
 6032POPC   PO423172   5.831  38.495   9.150
 6032POPC   GL123173   5.914  38.501   8.850
 6032POPC   GL223174   5.908  38.540   8.850
 6032POPC   C1A23175   5.913  38.484   8.550
 6032POPC   D2A23176   5.891  38.406   8.250
 6032POPC   C3A23177   5.910  38.441   7.950
 6032POPC   C4A23178   5.824  38.431   7.650
 6032POPC   C1B23179   5.883  38.695   8.550
 6032POPC   C2B23180   5.880  38.664   8.250
 6032POPC   C3B23181   5.881  38.718   7.950
 6032POPC   C4B23182   5.866  38.728   7.650
 6033POPC   NC323183  12.856  36.087   9.450
 6033POPC   PO423184  12.849  36.163   9.150
 6033POPC   GL123185  12.880  36.147   8.850
 6033POPC   GL223186  12.932  36.052   8.850
 6033POPC   C1A23187  12.859  36.110   8.550
 6033POPC   D2A23188  12.888  36.126   8.250
 6033POPC   C3A23189  12.862  36.123   7.950
 6033POPC   C4A23190  12.804  36.176   7.650
 6033POPC   C1B23191  12.958  35.849   8.550
 6033POPC   C2B23192  12.893  35.866   8.250
 6033POPC   C3B23193  12.926  35.852   7.950
 6033POPC   C4B23194  12.954  35.841   7.650
 6034POPC   NC323195  30.722  18.240   9.450
 6034POPC   PO423196  30.694  18.273   9.150
 6034POPC   GL123197  30.661  18.275   8.850
 6034POPC   GL223198  30.814  18.387   8.850
 6034POPC   C1A23199  30.649  18.300   8.550
 6034POPC   D2A23200  30.661  18.240   8.250
 6034POPC   C3A23201  30.664  18.294   7.950
 6034POPC   C4A23202  30.681  18.256   7.650
 6034POPC   C1B23203  30.969  18.432   8.550
 6034POPC   C2B23204  30.906  18.364   8.250
 6034POPC   C3B23205  30.888  18.428   7.950
 6034POPC   C4B23206  30.884  18.392   7.650
 6035POPC   NC323207   0.454  34.621   9.450
 6035POPC   PO423208   0.478  34.601   9.150
 6035POPC   GL123209   0.453  34.624   8.850
 6035POPC   GL223210   0.480  34.483   8.850
 6035POPC   C1A23211   0.430  34.584   8.550
 6035POPC   D2A23212   0.419  34.620   8.250
 6035POPC   C3A23213   0.397  34.527   7.950
 6035POPC   C4A23214   0.482  34.618   7.650
 6035POPC   C1B23215   0.554  34.332   8.550
 6035POPC   C2B23216   0.547  34.371   8.250
 6035POPC   C3B23217   0.594  34.327   7.950
 6035POPC   C4B23218   0.553  34.358   7.650
 6036POPC   NC323219  43.156  39.251   9.450
 6036POPC   PO423220  43.160  39.246   9.150
 6036POPC   GL123221  43.140  39.245   8.850
 6036POPC   GL223222  43.205  39.302   8.850
 6036POPC   C1A23223  43.148  39.189   8.550
 6036POPC   D2A23224  43.100  39.228   8.250
 6036POPC   C3A23225  43.073  39.271   7.950
 6036POPC   C4A23226  43.113  39.252   7.650
 6036POPC   C1B23227  43.333  39.269   8.550
 6036POPC   C2B23228  43.341  39.340   8.250
 6036POPC   C3B23229  43.319  39.279   7.950
 6036POPC   C4B23230  43.312  39.299   7.650
 6037POPC   NC323231   5.856  40.044   9.450
 6037POPC   PO423232   5.879  39.989   9.150
 6037POPC   GL123233   5.870  39.967   8.850
 6037POPC   GL223234   5.983  39.946   8.850
 6037POPC   C1A23235   5.909  40.010   8.550
 6037POPC   D2A23236   5.842  39.972   8.250
 6037POPC   C3A23237   5.848  39.972   7.950
 6037POPC   C4A23238   5.891  40.055   7.650
 6037POPC   C1B23239   6.103  39.877   8.550
 6037POPC   C2B23240   6.126  39.876   8.250
 6037POPC   C3B23241   6.046  39.833   7.950
 6037POPC   C4B23242   6.096  39.899   7.650
 6038POPC   NC323243  14.405  28.340   9.450
 6038POPC   PO423244  14.434  28.386   9.150
 6038POPC   GL123245  14.366  28.386   8.850
 6038POPC   GL223246  14.282  28.411   8.850
 6038POPC   C1A23247  14.389  28.406   8.550
 6038POPC   D2A23248  14.364  28.347   8.250
 6038POPC   C3A23249  14.439  28.342   7.950
 6038POPC   C4A23250  14.364  28.362   7.650
 6038POPC   C1B23251  14.171  28.423   8.550
 6038POPC   C2B23252  14.136  28.428   8.250
 6038POPC   C3B23253  14.187  28.455   7.950
 6038POPC   C4B23254  14.143  28.478   7.650
 6039POPC   NC323255  32.231  30.742   9.450
 6039POPC   PO423256  32.271  30.723   9.150
 6039POPC   GL123257  32.260  30.731   8.850
 6039POPC   GL223258  32.144  30.776   8.850
 6039POPC   C1A23259  32.272  30.670   8.550
 6039POPC   D2A23260  32.220  30.724   8.250
 6039POPC   C3A23261  32.271  30.684   7.950
 6039POPC   C4A23262  32.212  30.721   7.650
 6039POPC   C1B23263  31.981  30.769   8.550
 6039POPC   C2B23264  32.055  30.818   8.250
 6039POPC   C3B23265  31.990  30.781   7.950
 6039POPC   C4B23266  31.960  30.736   7.650
 6040POPC   NC323267  12.033  42.341   9.450
 6040POPC   PO423268  12.106  42.302   9.150
 6040POPC   GL123269  12.113  42.285   8.850
 6040POPC   GL223270  12.004  42.204   8.850
 6040POPC   C1A23271  12.062  42.357   8.550
 6040POPC   D2A23272  12.081  42.334   8.250
 6040POPC   C3A23273  12.103  42.383   7.950
 6040POPC   C4A23274  12.082  42.376   7.650
 6040POPC   C1B23275  11.971  42.082   8.550
 6040POPC   C2B23276  12.058  42.049   8.250
 6040POPC   C3B23277  12.021  42.086   7.950
 6040POPC   C4B23278  12.021  42.122   7.650
 6041POPC   NC323279  12.122  23.760   9.450
 6041POPC   PO423280  12.064  23.712   9.150
 6041POPC   GL123281  12.068  23.760   8.850
 6041POPC   GL223282  11.943  23.732   8.850
 6041POPC   C1A23283  12.125  23.710   8.550
 6041POPC   D2A23284  12.028  23.735   8.250
 6041POPC   C3A23285  12.092  23.720   7.950
 6041POPC   C4A23286  12.095  23.742   7.650
 6041POPC   C1B23287  11.845  23.831   8.550
 6041POPC   C2B23288  11.855  23.755   8.250
 6041POPC   C3B23289  11.879  23.799   7.950
 6041POPC   C4B23290  11.849  23.745   7.650
 6042POPC   NC323291  17.519  40.015   9.450
 6042POPC   PO423292  17.543  40.049   9.150
 6042POPC   GL123293  17.481  39.994   8.850
 6042POPC   GL223294  17.417  39.959   8.850
 6042POPC   C1A23295  17.473  40.050   8.550
 6042POPC   D2A23296  17.531  39.985   8.250
 6042POPC   C3A23297  17.502  40.044   7.950
 6042POPC   C4A23298  17.527  40.018   7.650
 6042POPC   C1B23299  17.271  39.965   8.550
 6042POPC   C2B23300  17.300  39.915   8.250
 6042POPC   C3B23301  17.251  39.981   7.950
 6042POPC   C4B23302  17.270  39.964   7.650
 6043POPC   NC323303  39.263  29.107   9.450
 6043POPC   PO423304  39.268  29.159   9.150
 6043POPC   GL123305  39.189  29.130   8.850
 6043POPC   GL223306  39.240  29.070   8.850
 6043POPC   C1A23307  39.258  29.155   8.550
 6043POPC   D2A23308  39.270  29.181   8.250
 6043POPC   C3A23309  39.256  29.104   7.950
 6043POPC   C4A23310  39.226  29.143   7.650
 6043POPC   C1B23311  39.284  28.870   8.550
 6043POPC   C2B23312  39.326  28.939   8.250
 6043POPC   C3B23313  39.277  28.876   7.950
 6043POPC   C4B23314  39.321  28.905   7.650
 6044POPC   NC323315  29.168   4.355   9.450
 6044POPC   PO423316  29.179   4.360   9.150
 6044POPC   GL123317  29.123   4.334   8.850
 6044POPC   GL223318  29.082   4.467   8.850
 6044POPC   C1A23319  29.134   4.344   8.550
 6044POPC   D2A23320  29.143   4.338   8.250
 6044POPC   C3A23321  29.191   4.277   7.950
 6044POPC   C4A23322  29.185   4.362   7.650
 6044POPC   C1B23323  29.081   4.549   8.550
 6044POPC   C2B23324  29.132   4.595   8.250
 6044POPC   C3B23325  29.065   4.512   7.950
 6044POPC   C4B23326  29.097   4.583   7.650
 6045POPC   NC323327  29.947  43.856   9.450
 6045POPC   PO423328  29.920  43.929   9.150
 6045POPC   GL123329  29.935  43.917   8.850
 6045POPC   GL223330  30.011  43.958   8.850
 6045POPC   C1A23331  29.936  43.880   8.550
 6045POPC   D2A23332  29.894  43.875   8.250
 6045POPC   C3A23333  29.889  43.897   7.950
 6045POPC   C4A23334  29.899  43.928   7.650
 6045POPC   C1B23335  30.134  43.914   8.550
 6045POPC   C2B23336  30.174  43.904   8.250
 6045POPC   C3B23337  30.140  43.882   7.950
 6045POPC   C4B23338  30.181  43.948   7.650
 6046POPC   NC323339  43.932  32.248   9.450
 6046POPC   PO423340  43.903  32.208   9.150
 6046POPC   GL123341  43.912  32.241   8.850
 6046POPC   GL223342  43.798  32.148   8.850
 6046POPC   C1A23343  43.923  32.214   8.550
 6046POPC   D2A23344  43.879  32.206   8.250
 6046POPC   C3A23345  43.919  32.268   7.950
 6046POPC   C4A23346  43.867  32.203   7.650
 6046POPC   C1B23347  43.777  32.012   8.550
 6046POPC   C2B23348  43.739  31.982   8.250
 6046POPC   C3B23349  43.830  32.008   7.950
 6046POPC   C4B23350  43.750  32.040   7.650
 6047POPC   NC323351  44.696  30.717   9.450
 6047POPC   PO423352  44.618  30.690   9.150
 6047POPC   GL123353  44.624  30.653   8.850
 6047POPC   GL223354  44.718  30.814   8.850
 6047POPC   C1A23355  44.625  30.746   8.550
 6047POPC   D2A23356  44.646  30.685   8.250
 6047POPC   C3A23357  44.692  30.688   7.950
 6047POPC   C4A23358  44.657  30.669   7.650
 6047POPC   C1B23359  44.739  30.946   8.550
 6047POPC   C2B23360  44.823  30.910   8.250
 6047POPC   C3B23361  44.752  30.892   7.950
 6047POPC   C4B23362  44.801  30.894   7.650
 6048POPC   NC323363  17.523   7.371   9.450
 6048POPC   PO423364  17.493   7.379   9.150
 6048POPC   GL123365  17.490   7.449   8.850
 6048POPC   GL223366  17.580   7.513   8.850
 6048POPC   C1A23367  17.483   7.412   8.550
 6048POPC   D2A23368  17.495   7.467   8.250
 6048POPC   C3A23369  17.531   7.381   7.950
 6048POPC   C4A23370  17.541   7.440   7.650
 6048POPC   C1B23371  17.673   7.543   8.550
 6048POPC   C2B23372  17.705   7.579   8.250
 6048POPC   C3B23373  17.648   7.563   7.950
 6048POPC   C4B23374  17.710   7.538   7.650
 6049POPC   NC323375  23.669   6.623   9.450
 6049POPC   PO423376  23.760   6.678   9.150
 6049POPC   GL123377  23.747   6.675   8.850
 6049POPC   GL223378  23.844   6.748   8.850
 6049POPC   C1A23379  23.720   6.619   8.550
 6049POPC   D2A23380  23.679   6.612   8.250
 6049POPC   C3A23381  23.738   6.635   7.950
 6049POPC   C4A23382  23.702   6.656   7.650
 6049POPC   C1B23383  23.930   6.837   8.550
 6049POPC   C2B23384  23.942   6.768   8.250
 6049POPC   C3B23385  23.940   6.801   7.950
 6049POPC   C4B23386  23.870   6.745   7.650
 6050POPC   NC323387   4.304  44.653   9.450
 6050POPC   PO423388   4.306  44.658   9.150
 6050POPC   GL123389   4.300  44.636   8.850
 6050POPC   GL223390   4.178  44.627   8.850
 6050POPC   C1A23391   4.267  44.662   8.550
 6050POPC   D2A23392   4.335  44.618   8.250
 6050POPC   C3A23393   4.269  44.699   7.950
 6050POPC   C4A23394   4.351  44.641   7.650
 6050POPC   C1B23395   4.068  44.532   8.550
 6050POPC   C2B23396   4.122  44.501   8.250
 6050POPC   C3B23397   4.154  44.501   7.950
 6050POPC   C4B23398   4.085  44.582   7.650
 6051POPC   NC323399  35.315  21.391   9.450
 6051POPC   PO423400  35.306  21.414   9.150
 6051POPC   GL123401  35.319  21.374   8.850
 6051POPC   GL223402  35.200  21.374   8.850
 6051POPC   C1A23403  35.360  21.434   8.550
 6051POPC   D2A23404  35.334  21.364   8.250
 6051POPC   C3A23405  35.303  21.416   7.950
 6051POPC   C4A23406  35.398  21.400   7.650
 6051POPC   C1B23407  35.153  21.295   8.550
 6051POPC   C2B23408  35.094  21.302   8.250
 6051POPC   C3B23409  35.159  21.264   7.950
 6051POPC   C4B23410  35.088  21.232   7.650
 6052POPC   NC323411   7.438  22.949   9.450
 6052POPC   PO423412   7.386  22.970   9.150
 6052POPC   GL123413   7.411  22.945   8.850
 6052POPC   GL223414   7.328  22.826   8.850
 6052POPC   C1A23415   7.411  22.955   8.550
 6052POPC   D2A23416   7.376  22.913   8.250
 6052POPC   C3A23417   7.418  22.964   7.950
 6052POPC   C4A23418   7.410  22.904   7.650
 6052POPC   C1B23419   7.296  22.755   8.550
 6052POPC   C2B23420   7.264  22.711   8.250
 6052POPC   C3B23421   7.301  22.729   7.950
 6052POPC   C4B23422   7.265  22.764   7.650
 6053POPC   NC323423  43.848  39.276   9.450
 6053POPC   PO423424  43.933  39.262   9.150
 6053POPC   GL123425  43.908  39.264   8.850
 6053POPC   GL223426  44.004  39.264   8.850
 6053POPC   C1A23427  43.912  39.228   8.550
 6053POPC   D2A23428  43.878  39.193   8.250
 6053POPC   C3A23429  43.870  39.216   7.950
 6053POPC   C4A23430  43.841  39.252   7.650
 6053POPC   C1B23431  44.142  39.313   8.550
 6053POPC   C2B23432  44.155  39.268   8.250
 6053POPC   C3B23433  44.094  39.303   7.950
 6053POPC   C4B23434  44.134  39.309   7.650
 6054POPC   NC323435  37.681   3.534   9.450
 6054POPC   PO423436  37.636   3.497   9.150
 6054POPC   GL123437  37.726   3.509   8.850
 6054POPC   GL223438  37.591   3.518   8.850
 6054POPC   C1A23439  37.696   3.562   8.550
 6054POPC   D2A23440  37.689   3.531   8.250
 6054POPC   C3A23441  37.723   3.572   7.950
 6054POPC   C4A23442  37.686   3.495   7.650
 6054POPC   C1B23443  37.405   3.497   8.550
 6054POPC   C2B23444  37.430   3.503   8.250
 6054POPC   C3B23445  37.447   3.523   7.950
 6054POPC   C4B23446  37.438   3.515   7.650
 6055POPC   NC323447  36.090  22.142   9.450
 6055POPC   PO423448  36.085  22.194   9.150
 6055POPC   GL123449  36.112  22.191   8.850
 6055POPC   GL223450  36.174  22.296   8.850
 6055POPC   C1A23451  36.124  22.197   8.550
 6055POPC   D2A23452  36.118  22.141   8.250
 6055POPC   C3A23453  36.098  22.129   7.950
 6055POPC   C4A23454  36.151  22.187   7.650
 6055POPC   C1B23455  36.288  22.360   8.550
 6055POPC   C2B23456  36.321  22.319   8.250
 6055POPC   C3B23457  36.268  22.360   7.950
 6055POPC   C4B23458  36.316  22.382   7.650
 6056POPC   NC323459   3.508  15.214   9.450
 6056POPC   PO423460   3.573  15.208   9.150
 6056POPC   GL123461   3.564  15.201   8.850
 6056POPC   GL223462   3.444  15.200   8.850
 6056POPC   C1A23463   3.531  15.202   8.550
 6056POPC   D2A23464   3.562  15.216   8.250
 6056POPC   C3A23465   3.560  15.208   7.950
 6056POPC   C4A23466   3.533  15.159   7.650
 6056POPC   C1B23467   3.331  15.244   8.550
 6056POPC   C2B23468   3.321  15.198   8.250
 6056POPC   C3B23469   3.287  15.219   7.950
 6056POPC   C4B23470   3.274  15.183   7.650
 6057POPC   NC323471  36.083   3.591   9.450
 6057POPC   PO423472  36.081   3.495   9.150
 6057POPC   GL123473  36.084   3.564   8.850
 6057POPC   GL223474  36.254   3.518   8.850
 6057POPC   C1A23475  36.093   3.572   8.550
 6057POPC   D2A23476  36.088   3.496   8.250
 6057POPC   C3A23477  36.141   3.533   7.950
 6057POPC   C4A23478  36.095   3.572   7.650
 6057POPC   C1B23479  36.388   3.532   8.550
 6057POPC   C2B23480  36.418   3.579   8.250
 6057POPC   C3B23481  36.387   3.604   7.950
 6057POPC   C4B23482  36.364   3.596   7.650
 6058POPC   NC323483  15.986  15.182   9.450
 6058POPC   PO423484  15.915  15.218   9.150
 6058POPC   GL123485  15.976  15.164   8.850
 6058POPC   GL223486  16.107  15.198   8.850
 6058POPC   C1A23487  15.974  15.179   8.550
 6058POPC   D2A23488  15.958  15.196   8.250
 6058POPC   C3A23489  15.960  15.177   7.950
 6058POPC   C4A23490  15.971  15.148   7.650
 6058POPC   C1B23491  16.148  15.294   8.550
 6058POPC   C2B23492  16.190  15.262   8.250
 6058POPC   C3B23493  16.196  15.344   7.950
 6058POPC   C4B23494  16.211  15.326   7.650
 6059POPC   NC323495  14.452  14.383   9.450
 6059POPC   PO423496  14.371  14.408   9.150
 6059POPC   GL123497  14.420  14.354   8.850
 6059POPC   GL223498  14.375  14.537   8.850
 6059POPC   C1A23499  14.430  14.407   8.550
 6059POPC   D2A23500  14.361  14.357   8.250
 6059POPC   C3A23501  14.438  14.404   7.950
 6059POPC   C4A23502  14.445  14.388   7.650
 6059POPC   C1B23503  14.344  14.627   8.550
 6059POPC   C2B23504  14.405  14.655   8.250
 6059POPC   C3B23505  14.326  14.635   7.950
 6059POPC   C4B23506  14.353  14.700   7.650
 6060POPC   NC323507  39.255  29.937   9.450
 6060POPC   PO423508  39.247  29.883   9.150
 6060POPC   GL123509  39.221  29.882   8.850
 6060POPC   GL223510  39.139  29.847   8.850
 6060POPC   C1A23511  39.226  29.947   8.550
 6060POPC   D2A23512  39.212  29.875   8.250
 6060POPC   C3A23513  39.224  29.963   7.950
 6060POPC   C4A23514  39.193  29.895   7.650
 6060POPC   C1B23515  39.046  29.823   8.550
 6060POPC   C2B23516  39.026  29.803   8.250
 6060POPC   C3B23517  39.004  29.852   7.950
 6060POPC   C4B23518  38.971  29.792   7.650
 6061POPC   NC323519  35.379  43.118   9.450
 6061POPC   PO423520  35.331  43.102   9.150
 6061POPC   GL123521  35.339  43.089   8.850
 6061POPC   GL223522  35.290  43.060   8.850
 6061POPC   C1A23523  35.361  43.129   8.550
 6061POPC   D2A23524  35.317  43.149   8.250
 6061POPC   C3A23525  35.354  43.146   7.950
 6061POPC   C4A23526  35.398  43.127   7.650
 6061POPC   C1B23527  35.153  42.950   8.550
 6061POPC   C2B23528  35.153  42.927   8.250
 6061POPC   C3B23529  35.217  42.929   7.950
 6061POPC   C4B23530  35.192  42.943   7.650
 6062POPC   NC323531   1.255  26.854   9.450
 6062POPC   PO423532   1.211  26.815   9.150
 6062POPC   GL123533   1.240  26.819   8.850
 6062POPC   GL223534   1.180  26.943   8.850
 6062POPC   C1A23535   1.205  26.833   8.550
 6062POPC   D2A23536   1.259  26.844   8.250
 6062POPC   C3A23537   1.192  26.848   7.950
 6062POPC   C4A23538   1.194  26.773   7.650
 6062POPC   C1B23539   1.075  27.061   8.550
 6062POPC   C2B23540   1.119  27.064   8.250
 6062POPC   C3B23541   1.132  27.012   7.950
 6062POPC   C4B23542   1.126  27.015   7.650
 6063POPC   NC323543  34.580  23.752   9.450
 6063POPC   PO423544  34.612  23.681   9.150
 6063POPC   GL123545  34.617  23.697   8.850
 6063POPC   GL223546  34.425  23.724   8.850
 6063POPC   C1A23547  34.586  23.708   8.550
 6063POPC   D2A23548  34.572  23.704   8.250
 6063POPC   C3A23549  34.589  23.717   7.950
 6063POPC   C4A23550  34.569  23.709   7.650
 6063POPC   C1B23551  34.369  23.829   8.550
 6063POPC   C2B23552  34.305  23.780   8.250
 6063POPC   C3B23553  34.294  23.776   7.950
 6063POPC   C4B23554  34.365  23.821   7.650
 6064POPC   NC323555  36.103   9.796   9.450
 6064POPC   PO423556  36.081   9.783   9.150
 6064POPC   GL123557  36.164   9.773   8.850
 6064POPC   GL223558  36.075   9.654   8.850
 6064POPC   C1A23559  36.094   9.745   8.550
 6064POPC   D2A23560  36.110   9.754   8.250
 6064POPC   C3A23561  36.085   9.765   7.950
 6064POPC   C4A23562  36.098   9.766   7.650
 6064POPC   C1B23563  36.064   9.559   8.550
 6064POPC   C2B23564  36.051   9.525   8.250
 6064POPC   C3B23565  36.019   9.515   7.950
 6064POPC   C4B23566  36.017   9.502   7.650
 6065POPC   NC323567   1.999  22.139   9.450
 6065POPC   PO423568   1.964  22.168   9.150
 6065POPC   GL123569   1.956  22.121   8.850
 6065POPC   GL223570   2.050  22.055   8.850
 6065POPC   C1A23571   2.000  22.142   8.550
 6065POPC   D2A23572   1.959  22.168   8.250
 6065POPC   C3A23573   2.010  22.113   7.950
 6065POPC   C4A23574   1.980  22.155   7.650
 6065POPC   C1B23575   2.107  21.972   8.550
 6065POPC   C2B23576   2.133  21.951   8.250
 6065POPC   C3B23577   2.149  21.912   7.950
 6065POPC   C4B23578   2.140  21.984   7.650
 6066POPC   NC323579  32.288  27.635   9.450
 6066POPC   PO423580  32.263  27.599   9.150
 6066POPC   GL123581  32.270  27.618   8.850
 6066POPC   GL223582  32.200  27.718   8.850
 6066POPC   C1A23583  32.281  27.606   8.550
 6066POPC   D2A23584  32.276  27.629   8.250
 6066POPC   C3A23585  32.251  27.574   7.950
 6066POPC   C4A23586  32.221  27.581   7.650
 6066POPC   C1B23587  32.275  27.889   8.550
 6066POPC   C2B23588  32.268  27.816   8.250
 6066POPC   C3B23589  32.285  27.835   7.950
 6066POPC   C4B23590  32.245  27.874   7.650
 6067POPC   NC323591   1.223  29.920   9.450
 6067POPC   PO423592   1.259  29.924   9.150
 6067POPC   GL123593   1.228  29.935   8.850
 6067POPC   GL223594   1.322  29.940   8.850
 6067POPC   C1A23595   1.192  29.932   8.550
 6067POPC   D2A23596   1.175  29.940   8.250
 6067POPC   C3A23597   1.236  29.961   7.950
 6067POPC   C4A23598   1.261  29.921   7.650
 6067POPC   C1B23599   1.405  30.031   8.550
 6067POPC   C2B23600   1.399  30.041   8.250
 6067POPC   C3B23601   1.426  29.977   7.950
 6067POPC   C4B23602   1.445  30.019   7.650
 6068POPC   NC323603  10.494  34.598   9.450
 6068POPC   PO423604  10.516  34.578   9.150
 6068POPC   GL123605  10.503  34.533   8.850
 6068POPC   GL223606  10.627  34.561   8.850
 6068POPC   C1A23607  10.556  34.602   8.550
 6068POPC   D2A23608  10.564  34.580   8.250
 6068POPC   C3A23609  10.479  34.536   7.950
 6068POPC   C4A23610  10.505  34.548   7.650
 6068POPC   C1B23611  10.798  34.637   8.550
 6068POPC   C2B23612  10.717  34.668   8.250
 6068POPC   C3B23613  10.792  34.624   7.950
 6068POPC   C4B23614  10.754  34.665   7.650
 6069POPC   NC323615  34.569   8.233   9.450
 6069POPC   PO423616  34.607   8.155   9.150
 6069POPC   GL123617  34.559   8.202   8.850
 6069POPC   GL223618  34.439   8.252   8.850
 6069POPC   C1A23619  34.534   8.183   8.550
 6069POPC   D2A23620  34.580   8.228   8.250
 6069POPC   C3A23621  34.562   8.206   7.950
 6069POPC   C4A23622  34.563   8.217   7.650
 6069POPC   C1B23623  34.328   8.192   8.550
 6069POPC   C2B23624  34.319   8.263   8.250
 6069POPC   C3B23625  34.361   8.227   7.950
 6069POPC   C4B23626  34.302   8.180   7.650
 6070POPC   NC323627  16.717  35.398   9.450
 6070POPC   PO423628  16.724  35.347   9.150
 6070POPC   GL123629  16.775  35.386   8.850
 6070POPC   GL223630  16.817  35.249   8.850
 6070POPC   C1A23631  16.765  35.373   8.550
 6070POPC   D2A23632  16.731  35.370   8.250
 6070POPC   C3A23633  16.699  35.325   7.950
 6070POPC   C4A23634  16.682  35.339   7.650
 6070POPC   C1B23635  16.915  35.150   8.550
 6070POPC   C2B23636  16.920  35.172   8.250
 6070POPC   C3B23637  16.910  35.147   7.950
 6070POPC   C4B23638  16.909  35.192   7.650
 6071POPC   NC323639  19.787   9.789   9.450
 6071POPC   PO423640  19.798   9.747   9.150
 6071POPC   GL123641  19.813   9.702   8.850
 6071POPC   GL223642  19.815   9.637   8.850
 6071POPC   C1A23643  19.798   9.783   8.550
 6071POPC   D2A23644  19.854   9.746   8.250
 6071POPC   C3A23645  19.792   9.773   7.950
 6071POPC   C4A23646  19.814   9.756   7.650
 6071POPC   C1B23647  19.790   9.469   8.550
 6071POPC   C2B23648  19.769   9.526   8.250
 6071POPC   C3B23649  19.849   9.530   7.950
 6071POPC   C4B23650  19.809   9.458   7.650
 6072POPC   NC323651   7.390  34.570   9.450
 6072POPC   PO423652   7.404  34.537   9.150
 6072POPC   GL123653   7.444  34.534   8.850
 6072POPC   GL223654   7.361  34.432   8.850
 6072POPC   C1A23655   7.464  34.590   8.550
 6072POPC   D2A23656   7.392  34.543   8.250
 6072POPC   C3A23657   7.425  34.556   7.950
 6072POPC   C4A23658   7.421  34.624   7.650
 6072POPC   C1B23659   7.342  34.344   8.550
 6072POPC   C2B23660   7.362  34.395   8.250
 6072POPC   C3B23661   7.349  34.378   7.950
 6072POPC   C4B23662   7.358  34.393   7.650
 6073POPC   NC323663  26.033  40.003   9.450
 6073POPC   PO423664  26.057  40.054   9.150
 6073POPC   GL123665  26.089  40.017   8.850
 6073POPC   GL223666  26.097  40.093   8.850
 6073POPC   C1A23667  26.023  40.002   8.550
 6073POPC   D2A23668  26.020  40.014   8.250
 6073POPC   C3A23669  26.001  40.030   7.950
 6073POPC   C4A23670  25.996  40.048   7.650
 6073POPC   C1B23671  26.234  40.213   8.550
 6073POPC   C2B23672  26.245  40.243   8.250
 6073POPC   C3B23673  26.168  40.213   7.950
 6073POPC   C4B23674  26.165  40.196   7.650
 6074POPC   NC323675   2.791  32.271   9.450
 6074POPC   PO423676   2.769  32.242   9.150
 6074POPC   GL123677   2.748  32.286   8.850
 6074POPC   GL223678   2.838  32.173   8.850
 6074POPC   C1A23679   2.788  32.224   8.550
 6074POPC   D2A23680   2.763  32.234   8.250
 6074POPC   C3A23681   2.800  32.215   7.950
 6074POPC   C4A23682   2.748  32.224   7.650
 6074POPC   C1B23683   2.953  32.115   8.550
 6074POPC   C2B23684   2.958  32.107   8.250
 6074POPC   C3B23685   2.966  32.169   7.950
 6074POPC   C4B23686   2.969  32.157   7.650
 6075POPC   NC323687  19.032   1.209   9.450
 6075POPC   PO423688  19.057   1.171   9.150
 6075POPC   GL123689  19.094   1.204   8.850
 6075POPC   GL223690  18.986   1.288   8.850
 6075POPC   C1A23691  19.023   1.231   8.550
 6075POPC   D2A23692  19.070   1.235   8.250
 6075POPC   C3A23693  19.089   1.208   7.950
 6075POPC   C4A23694  19.052   1.167   7.650
 6075POPC   C1B23695  18.849   1.292   8.550
 6075POPC   C2B23696  18.779   1.326   8.250
 6075POPC   C3B23697  18.834   1.268   7.950
 6075POPC   C4B23698  18.847   1.283   7.650
 6076POPC   NC323699  40.820   7.375   9.450
 6076POPC   PO423700  40.757   7.408   9.150
 6076POPC   GL123701  40.798   7.436   8.850
 6076POPC   GL223702  40.883   7.530   8.850
 6076POPC   C1A23703  40.781   7.468   8.550
 6076POPC   D2A23704  40.830   7.410   8.250
 6076POPC   C3A23705  40.778   7.397   7.950
 6076POPC   C4A23706  40.751   7.414   7.650
 6076POPC   C1B23707  40.949   7.557   8.550
 6076POPC   C2B23708  40.912   7.587   8.250
 6076POPC   C3B23709  40.925   7.631   7.950
 6076POPC   C4B23710  40.939   7.579   7.650
 6077POPC   NC323711  31.487   1.182   9.450
 6077POPC   PO423712  31.454   1.176   9.150
 6077POPC   GL123713  31.453   1.219   8.850
 6077POPC   GL223714  31.535   1.349   8.850
 6077POPC   C1A23715  31.437   1.254   8.550
 6077POPC   D2A23716  31.457   1.241   8.250
 6077POPC   C3A23717  31.434   1.260   7.950
 6077POPC   C4A23718  31.435   1.201   7.650
 6077POPC   C1B23719  31.595   1.400   8.550
 6077POPC   C2B23720  31.609   1.413   8.250
 6077POPC   C3B23721  31.617   1.371   7.950
 6077POPC   C4B23722  31.623   1.384   7.650
 6078POPC   NC323723  43.074  43.859   9.450
 6078POPC   PO423724  43.091  43.924   9.150
 6078POPC   GL123725  43.149  43.912   8.850
 6078POPC   GL223726  42.996  43.918   8.850
 6078POPC   C1A23727  43.087  43.907   8.550
 6078POPC   D2A23728  43.073  43.903   8.250
 6078POPC   C3A23729  43.101  43.879   7.950
 6078POPC   C4A23730  43.142  43.915   7.650
 6078POPC   C1B23731  42.844  43.861   8.550
 6078POPC   C2B23732  42.841  43.823   8.250
 6078POPC   C3B23733  42.824  43.888   7.950
 6078POPC   C4B23734  42.828  43.887   7.650
 6079POPC   NC323735  25.269  44.626   9.450
 6079POPC   PO423736  25.269  44.653   9.150
 6079POPC   GL123737  25.299  44.691   8.850
 6079POPC   GL223738  25.229  44.602   8.850
 6079POPC   C1A23739  25.239  44.703   8.550
 6079POPC   D2A23740  25.259  44.614   8.250
 6079POPC   C3A23741  25.314  44.623   7.950
 6079POPC   C4A23742  25.234  44.661   7.650
 6079POPC   C1B23743  25.138  44.488   8.550
 6079POPC   C2B23744  25.084  44.451   8.250
 6079POPC   C3B23745  25.076  44.430   7.950
 6079POPC   C4B23746  25.125  44.432   7.650
 6080POPC   NC323747  37.678  36.875   9.450
 6080POPC   PO423748  37.696  36.874   9.150
 6080POPC   GL123749  37.698  36.937   8.850
 6080POPC   GL223750  37.765  37.068   8.850
 6080POPC   C1A23751  37.719  36.946   8.550
 6080POPC   D2A23752  37.722  36.870   8.250
 6080POPC   C3A23753  37.723  36.881   7.950
 6080POPC   C4A23754  37.721  36.910   7.650
 6080POPC   C1B23755  37.770  37.153   8.550
 6080POPC   C2B23756  37.771  37.178   8.250
 6080POPC   C3B23757  37.742  37.143   7.950
 6080POPC   C4B23758  37.757  37.142   7.650
 6081POPC   NC323759  11.295  33.004   9.450
 6081POPC   PO423760  11.289  33.067   9.150
 6081POPC   GL123761  11.337  32.987   8.850
 6081POPC   GL223762  11.440  33.018   8.850
 6081POPC   C1A23763  11.328  33.047   8.550
 6081POPC   D2A23764  11.307  33.036   8.250
 6081POPC   C3A23765  11.258  32.985   7.950
 6081POPC   C4A23766  11.273  33.058   7.650
 6081POPC   C1B23767  11.532  32.959   8.550
 6081POPC   C2B23768  11.569  33.028   8.250
 6081POPC   C3B23769  11.521  32.995   7.950
 6081POPC   C4B23770  11.585  32.971   7.650
 6082POPC   NC323771  26.033  12.070   9.450
 6082POPC   PO423772  26.015  12.105   9.150
 6082POPC   GL123773  26.055  12.099   8.850
 6082POPC   GL223774  26.031  11.973   8.850
 6082POPC   C1A23775  25.995  12.099   8.550
 6082POPC   D2A23776  26.058  12.056   8.250
 6082POPC   C3A23777  26.035  12.109   7.950
 6082POPC   C4A23778  26.034  12.074   7.650
 6082POPC   C1B23779  25.963  11.790   8.550
 6082POPC   C2B23780  26.014  11.819   8.250
 6082POPC   C3B23781  25.975  11.805   7.950
 6082POPC   C4B23782  25.989  11.780   7.650
 6083POPC   NC323783  41.528   4.313   9.450
 6083POPC   PO423784  41.517   4.332   9.150
 6083POPC   GL123785  41.516   4.319   8.850
 6083POPC   GL223786  41.652   4.410   8.850
 6083POPC   C1A23787  41.589   4.349   8.550
 6083POPC   D2A23788  41.544   4.289   8.250
 6083POPC   C3A23789  41.555   4.331   7.950
 6083POPC   C4A23790  41.595   4.305   7.650
 6083POPC   C1B23791  41.726   4.546   8.550
 6083POPC   C2B23792  41.747   4.516   8.250
 6083POPC   C3B23793  41.708   4.497   7.950
 6083POPC   C4B23794  41.694   4.515   7.650
 6084POPC   NC323795  23.714   5.881   9.450
 6084POPC   PO423796  23.712   5.913   9.150
 6084POPC   GL123797  23.670   5.863   8.850
 6084POPC   GL223798  23.756   5.959   8.850
 6084POPC   C1A23799  23.667   5.890   8.550
 6084POPC   D2A23800  23.730   5.858   8.250
 6084POPC   C3A23801  23.748   5.883   7.950
 6084POPC   C4A23802  23.699   5.852   7.650
 6084POPC   C1B23803  23.862   6.096   8.550
 6084POPC   C2B23804  23.793   6.044   8.250
 6084POPC   C3B23805  23.840   6.073   7.950
 6084POPC   C4B23806  23.814   6.085   7.650
 6085POPC   NC323807  19.012   7.396   9.450
 6085POPC   PO423808  19.067   7.456   9.150
 6085POPC   GL123809  19.099   7.393   8.850
 6085POPC   GL223810  19.158   7.300   8.850
 6085POPC   C1A23811  19.100   7.411   8.550
 6085POPC   D2A23812  19.037   7.405   8.250
 6085POPC   C3A23813  19.062   7.383   7.950
 6085POPC   C4A23814  19.100   7.391   7.650
 6085POPC   C1B23815  19.167   7.212   8.550
 6085POPC   C2B23816  19.216   7.181   8.250
 6085POPC   C3B23817  19.231   7.235   7.950
 6085POPC   C4B23818  19.184   7.207   7.650
 6086POPC   NC323819  35.347  22.139   9.450
 6086POPC   PO423820  35.321  22.148   9.150
 6086POPC   GL123821  35.320  22.141   8.850
 6086POPC   GL223822  35.435  22.046   8.850
 6086POPC   C1A23823  35.349  22.159   8.550
 6086POPC   D2A23824  35.338  22.160   8.250
 6086POPC   C3A23825  35.360  22.211   7.950
 6086POPC   C4A23826  35.333  22.207   7.650
 6086POPC   C1B23827  35.457  21.978   8.550
 6086POPC   C2B23828  35.513  21.977   8.250
 6086POPC   C3B23829  35.479  21.907   7.950
 6086POPC   C4B23830  35.497  21.932   7.650
 6087POPC   NC323831  24.452  41.546   9.450
 6087POPC   PO423832  24.511  41.601   9.150
 6087POPC   GL123833  24.497  41.569   8.850
 6087POPC   GL223834  24.375  41.515   8.850
 6087POPC   C1A23835  24.455  41.540   8.550
 6087POPC   D2A23836  24.441  41.565   8.250
 6087POPC   C3A23837  24.484  41.560   7.950
 6087POPC   C4A23838  24.490  41.543   7.650
 6087POPC   C1B23839  24.318  41.377   8.550
 6087POPC   C2B23840  24.252  41.410   8.250
 6087POPC   C3B23841  24.316  41.440   7.950
 6087POPC   C4B23842  24.309  41.416   7.650
 6088POPC   NC323843  14.447  25.264   9.450
 6088POPC   PO423844  14.380  25.242   9.150
 6088POPC   GL123845  14.413  25.272   8.850
 6088POPC   GL223846  14.306  25.276   8.850
 6088POPC   C1A23847  14.444  25.277   8.550
 6088POPC   D2A23848  14.388  25.306   8.250
 6088POPC   C3A23849  14.401  25.234   7.950
 6088POPC   C4A23850  14.414  25.229   7.650
 6088POPC   C1B23851  14.148  25.324   8.550
 6088POPC   C2B23852  14.156  25.311   8.250
 6088POPC   C3B23853  14.144  25.290   7.950
 6088POPC   C4B23854  14.196  25.257   7.650
 6089POPC   NC323855  19.828  10.479   9.450
 6089POPC   PO423856  19.834  10.532   9.150
 6089POPC   GL123857  19.797  10.488   8.850
 6089POPC   GL223858  19.896  10.438   8.850
 6089POPC   C1A23859  19.845  10.485   8.550
 6089POPC   D2A23860  19.787  10.530   8.250
 6089POPC   C3A23861  19.830  10.571   7.950
 6089POPC   C4A23862  19.848  10.529   7.650
 6089POPC   C1B23863  19.885  10.328   8.550
 6089POPC   C2B23864  19.912  10.325   8.250
 6089POPC   C3B23865  19.891  10.245   7.950
 6089POPC   C4B23866  19.913  10.315   7.650
 6090POPC   NC323867   2.728   1.995   9.450
 6090POPC   PO423868   2.732   2.035   9.150
 6090POPC   GL123869   2.774   2.011   8.850
 6090POPC   GL223870   2.883   1.975   8.850
 6090POPC   C1A23871   2.741   1.984   8.550
 6090POPC   D2A23872   2.778   1.987   8.250
 6090POPC   C3A23873   2.731   1.953   7.950
 6090POPC   C4A23874   2.742   2.036   7.650
 6090POPC   C1B23875   3.004   2.035   8.550
 6090POPC   C2B23876   3.046   2.046   8.250
 6090POPC   C3B23877   2.962   2.007   7.950
 6090POPC   C4B23878   2.991   2.064   7.650
 6091POPC   NC323879  19.049  43.143   9.450
 6091POPC   PO423880  19.065  43.076   9.150
 6091POPC   GL123881  19.037  43.144   8.850
 6091POPC   GL223882  18.984  43.174   8.850
 6091POPC   C1A23883  19.063  43.066   8.550
 6091POPC   D2A23884  19.068  43.130   8.250
 6091POPC   C3A23885  19.095  43.110   7.950
 6091POPC   C4A23886  19.018  43.094   7.650
 6091POPC   C1B23887  18.793  43.173   8.550
 6091POPC   C2B23888  18.844  43.152   8.250
 6091POPC   C3B23889  18.783  43.096   7.950
 6091POPC   C4B23890  18.772  43.133   7.650
 6092POPC   NC323891   8.947  39.213   9.450
 6092POPC   PO423892   8.971  39.182   9.150
 6092POPC   GL123893   8.942  39.227   8.850
 6092POPC   GL223894   9.039  39.365   8.850
 6092POPC   C1A23895   8.936  39.185   8.550
 6092POPC   D2A23896   8.930  39.262   8.250
 6092POPC   C3A23897   9.001  39.207   7.950
 6092POPC   C4A23898   9.021  39.258   7.650
 6092POPC   C1B23899   9.010  39.465   8.550
 6092POPC   C2B23900   9.035  39.464   8.250
 6092POPC   C3B23901   9.041  39.487   7.950
 6092POPC   C4B23902   8.979  39.451   7.650
 6093POPC   NC323903  36.889   1.992   9.450
 6093POPC   PO423904  36.938   2.012   9.150
 6093POPC   GL123905  36.912   2.016   8.850
 6093POPC   GL223906  36.939   2.143   8.850
 6093POPC   C1A23907  36.869   1.998   8.550
 6093POPC   D2A23908  36.901   2.011   8.250
 6093POPC   C3A23909  36.918   1.959   7.950
 6093POPC   C4A23910  36.891   1.942   7.650
 6093POPC   C1B23911  37.018   2.211   8.550
 6093POPC   C2B23912  36.967   2.210   8.250
 6093POPC   C3B23913  36.993   2.266   7.950
 6093POPC   C4B23914  36.954   2.243   7.650
 6094POPC   NC323915   6.674  24.475   9.450
 6094POPC   PO423916   6.601  24.526   9.150
 6094POPC   GL123917   6.674  24.467   8.850
 6094POPC   GL223918   6.711  24.612   8.850
 6094POPC   C1A23919   6.598  24.501   8.550
 6094POPC   D2A23920   6.669  24.515   8.250
 6094POPC   C3A23921   6.625  24.537   7.950
 6094POPC   C4A23922   6.689  24.452   7.650
 6094POPC   C1B23923   6.847  24.655   8.550
 6094POPC   C2B23924   6.854  24.686   8.250
 6094POPC   C3B23925   6.845  24.608   7.950
 6094POPC   C4B23926   6.832  24.637   7.650
 6095POPC   NC323927  31.441  35.388   9.450
 6095POPC   PO423928  31.518  35.368   9.150
 6095POPC   GL123929  31.460  35.350   8.850
 6095POPC   GL223930  31.458  35.191   8.850
 6095POPC   C1A23931  31.439  35.346   8.550
 6095POPC   D2A23932  31.457  35.309   8.250
 6095POPC   C3A23933  31.503  35.316   7.950
 6095POPC   C4A23934  31.457  35.336   7.650
 6095POPC   C1B23935  31.434  35.129   8.550
 6095POPC   C2B23936  31.389  35.095   8.250
 6095POPC   C3B23937  31.411  35.152   7.950
 6095POPC   C4B23938  31.403  35.087   7.650
 6096POPC   NC323939  35.312   9.704   9.450
 6096POPC   PO423940  35.360   9.728   9.150
 6096POPC   GL123941  35.339   9.738   8.850
 6096POPC   GL223942  35.457   9.762   8.850
 6096POPC   C1A23943  35.361   9.740   8.550
 6096POPC   D2A23944  35.370   9.796   8.250
 6096POPC   C3A23945  35.364   9.762   7.950
 6096POPC   C4A23946  35.345   9.703   7.650
 6096POPC   C1B23947  35.635   9.777   8.550
 6096POPC   C2B23948  35.607   9.802   8.250
 6096POPC   C3B23949  35.551   9.826   7.950
 6096POPC   C4B23950  35.611   9.774   7.650
 6097POPC   NC323951  13.593  12.889   9.450
 6097POPC   PO423952  13.653  12.826   9.150
 6097POPC   GL123953  13.606  12.813   8.850
 6097POPC   GL223954  13.634  12.759   8.850
 6097POPC   C1A23955  13.647  12.818   8.550
 6097POPC   D2A23956  13.677  12.824   8.250
 6097POPC   C3A23957  13.631  12.856   7.950
 6097POPC   C4A23958  13.634  12.894   7.650
 6097POPC   C1B23959  13.678  12.580   8.550
 6097POPC   C2B23960  13.719  12.586   8.250
 6097POPC   C3B23961  13.726  12.577   7.950
 6097POPC   C4B23962  13.721  12.656   7.650
 6098POPC   NC323963  29.964  14.361   9.450
 6098POPC   PO423964  29.963  14.443   9.150
 6098POPC   GL123965  29.892  14.425   8.850
 6098POPC   GL223966  29.877  14.487   8.850
 6098POPC   C1A23967  29.919  14.423   8.550
 6098POPC   D2A23968  29.874  14.434   8.250
 6098POPC   C3A23969  29.895  14.453   7.950
 6098POPC   C4A23970  29.924  14.395   7.650
 6098POPC   C1B23971  29.803  14.649   8.550
 6098POPC   C2B23972  29.864  14.623   8.250
 6098POPC   C3B23973  29.846  14.645   7.950
 6098POPC   C4B23974  29.843  14.680   7.650
 6099POPC   NC323975  22.925  19.874   9.450
 6099POPC   PO423976  22.913  19.870   9.150
 6099POPC   GL123977  22.913  19.827   8.850
 6099POPC   GL223978  22.933  19.981   8.850
 6099POPC   C1A23979  22.919  19.814   8.550
 6099POPC   D2A23980  22.979  19.877   8.250
 6099POPC   C3A23981  22.957  19.864   7.950
 6099POPC   C4A23982  22.915  19.868   7.650
 6099POPC   C1B23983  22.837  20.081   8.550
 6099POPC   C2B23984  22.851  20.047   8.250
 6099POPC   C3B23985  22.852  20.066   7.950
 6099POPC   C4B23986  22.853  20.125   7.650
 6100POPC   NC323987   9.734  19.009   9.450
 6100POPC   PO423988   9.702  19.013   9.150
 6100POPC   GL123989   9.744  19.012   8.850
 6100POPC   GL223990   9.698  19.158   8.850
 6100POPC   C1A23991   9.758  19.060   8.550
 6100POPC   D2A23992   9.715  19.056   8.250
 6100POPC   C3A23993   9.704  19.059   7.950
 6100POPC   C4A23994   9.725  19.108   7.650
 6100POPC   C1B23995   9.621  19.268   8.550
 6100POPC   C2B23996   9.552  19.272   8.250
 6100POPC   C3B23997   9.546  19.262   7.950
 6100POPC   C4B23998   9.640  19.239   7.650
 6101POPC   NC323999  36.115  27.636   9.450
 6101POPC   PO424000  36.107  27.608   9.150
 6101POPC   GL124001  36.147  27.584   8.850
 6101POPC   GL224002  36.022  27.728   8.850
 6101POPC   C1A24003  36.079  27.557   8.550
 6101POPC   D2A24004  36.092  27.608   8.250
 6101POPC   C3A24005  36.097  27.630   7.950
 6101POPC   C4A24006  36.078  27.571   7.650
 6101POPC   C1B24007  35.934  27.778   8.550
 6101POPC   C2B24008  35.950  27.765   8.250
 6101POPC   C3B24009  36.013  27.797   7.950
 6101POPC   C4B24010  35.930  27.831   7.650
 6102POPC   NC324011  17.483  12.081   9.450
 6102POPC   PO424012  17.553  12.055   9.150
 6102POPC   GL124013  17.556  12.031   8.850
 6102POPC   GL224014  17.629  12.047   8.850
 6102POPC   C1A24015  17.475  12.091   8.550
 6102POPC   D2A24016  17.477  12.104   8.250
 6102POPC   C3A24017  17.543  12.030   7.950
 6102POPC   C4A24018  17.528  12.031   7.650
 6102POPC   C1B24019  17.722  12.062   8.550
 6102POPC   C2B24020  17.766  12.027   8.250
 6102POPC   C3B24021  17.751  12.069   7.950
 6102POPC   C4B24022  17.781  12.047   7.650
 6103POPC   NC324023  17.482  35.381   9.450
 6103POPC   PO424024  17.549  35.303   9.150
 6103POPC   GL124025  17.541  35.354   8.850
 6103POPC   GL224026  17.561  35.445   8.850
 6103POPC   C1A24027  17.508  35.372   8.550
 6103POPC   D2A24028  17.543  35.348   8.250
 6103POPC   C3A24029  17.482  35.382   7.950
 6103POPC   C4A24030  17.516  35.350   7.650
 6103POPC   C1B24031  17.729  35.475   8.550
 6103POPC   C2B24032  17.728  35.518   8.250
 6103POPC   C3B24033  17.696  35.484   7.950
 6103POPC   C4B24034  17.721  35.525   7.650
 6104POPC   NC324035   7.446   6.682   9.450
 6104POPC   PO424036   7.449   6.619   9.150
 6104POPC   GL124037   7.445   6.622   8.850
 6104POPC   GL224038   7.479   6.568   8.850
 6104POPC   C1A24039   7.406   6.629   8.550
 6104POPC   D2A24040   7.372   6.597   8.250
 6104POPC   C3A24041   7.386   6.630   7.950
 6104POPC   C4A24042   7.390   6.623   7.650
 6104POPC   C1B24043   7.581   6.450   8.550
 6104POPC   C2B24044   7.529   6.473   8.250
 6104POPC   C3B24045   7.591   6.500   7.950
 6104POPC   C4B24046   7.604   6.468   7.650
 6105POPC   NC324047  37.666  28.333   9.450
 6105POPC   PO424048  37.660  28.321   9.150
 6105POPC   GL124049  37.684  28.415   8.850
 6105POPC   GL224050  37.660  28.292   8.850
 6105POPC   C1A24051  37.718  28.371   8.550
 6105POPC   D2A24052  37.658  28.331   8.250
 6105POPC   C3A24053  37.719  28.373   7.950
 6105POPC   C4A24054  37.631  28.406   7.650
 6105POPC   C1B24055  37.612  28.087   8.550
 6105POPC   C2B24056  37.625  28.177   8.250
 6105POPC   C3B24057  37.618  28.151   7.950
 6105POPC   C4B24058  37.604  28.150   7.650
 6106POPC   NC324059  37.711  14.398   9.450
 6106POPC   PO424060  37.654  14.451   9.150
 6106POPC   GL124061  37.664  14.449   8.850
 6106POPC   GL224062  37.698  14.271   8.850
 6106POPC   C1A24063  37.711  14.366   8.550
 6106POPC   D2A24064  37.708  14.381   8.250
 6106POPC   C3A24065  37.709  14.367   7.950
 6106POPC   C4A24066  37.689  14.360   7.650
 6106POPC   C1B24067  37.756  14.154   8.550
 6106POPC   C2B24068  37.762  14.180   8.250
 6106POPC   C3B24069  37.696  14.183   7.950
 6106POPC   C4B24070  37.693  14.112   7.650
 6107POPC   NC324071  26.808  39.972   9.450
 6107POPC   PO424072  26.835  40.017   9.150
 6107POPC   GL124073  26.824  39.991   8.850
 6107POPC   GL224074  26.846  40.082   8.850
 6107POPC   C1A24075  26.830  39.962   8.550
 6107POPC   D2A24076  26.781  39.982   8.250
 6107POPC   C3A24077  26.788  39.985   7.950
 6107POPC   C4A24078  26.784  39.985   7.650
 6107POPC   C1B24079  27.002  40.254   8.550
 6107POPC   C2B24080  26.997  40.172   8.250
 6107POPC   C3B24081  26.980  40.182   7.950
 6107POPC   C4B24082  26.927  40.242   7.650
 6108POPC   NC324083  34.598  42.358   9.450
 6108POPC   PO424084  34.613  42.370   9.150
 6108POPC   GL124085  34.589  42.361   8.850
 6108POPC   GL224086  34.590  42.435   8.850
 6108POPC   C1A24087  34.600  42.331   8.550
 6108POPC   D2A24088  34.610  42.372   8.250
 6108POPC   C3A24089  34.557  42.321   7.950
 6108POPC   C4A24090  34.595  42.325   7.650
 6108POPC   C1B24091  34.623  42.571   8.550
 6108POPC   C2B24092  34.695  42.548   8.250
 6108POPC   C3B24093  34.660  42.613   7.950
 6108POPC   C4B24094  34.692  42.577   7.650
 6109POPC   NC324095  32.203   1.223   9.450
 6109POPC   PO424096  32.201   1.234   9.150
 6109POPC   GL124097  32.259   1.178   8.850
 6109POPC   GL224098  32.235   1.358   8.850
 6109POPC   C1A24099  32.236   1.168   8.550
 6109POPC   D2A24100  32.204   1.245   8.250
 6109POPC   C3A24101  32.260   1.261   7.950
 6109POPC   C4A24102  32.217   1.184   7.650
 6109POPC   C1B24103  32.117   1.423   8.550
 6109POPC   C2B24104  32.160   1.397   8.250
 6109POPC   C3B24105  32.114   1.408   7.950
 6109POPC   C4B24106  32.123   1.457   7.650
 6110POPC   NC324107  27.630  22.181   9.450
 6110POPC   PO424108  27.587  22.159   9.150
 6110POPC   GL124109  27.634  22.145   8.850
 6110POPC   GL224110  27.684  22.071   8.850
 6110POPC   C1A24111  27.550  22.209   8.550
 6110POPC   D2A24112  27.569  22.126   8.250
 6110POPC   C3A24113  27.630  22.140   7.950
 6110POPC   C4A24114  27.585  22.182   7.650
 6110POPC   C1B24115  27.672  21.918   8.550
 6110POPC   C2B24116  27.739  21.928   8.250
 6110POPC   C3B24117  27.696  21.939   7.950
 6110POPC   C4B24118  27.663  21.957   7.650
 6111POPC   NC324119  16.731  27.628   9.450
 6111POPC   PO424120  16.757  27.572   9.150
 6111POPC   GL124121  16.742  27.630   8.850
 6111POPC   GL224122  16.689  27.520   8.850
 6111POPC   C1A24123  16.700  27.605   8.550
 6111POPC   D2A24124  16.707  27.577   8.250
 6111POPC   C3A24125  16.729  27.564   7.950
 6111POPC   C4A24126  16.689  27.577   7.650
 6111POPC   C1B24127  16.562  27.429   8.550
 6111POPC   C2B24128  16.549  27.418   8.250
 6111POPC   C3B24129  16.523  27.374   7.950
 6111POPC   C4B24130  16.540  27.440   7.650
 6112POPC   NC324131  21.368  23.685   9.450
 6112POPC   PO424132  21.390  23.731   9.150
 6112POPC   GL124133  21.343  23.720   8.850
 6112POPC   GL224134  21.459  23.548   8.850
 6112POPC   C1A24135  21.344  23.665   8.550
 6112POPC   D2A24136  21.353  23.697   8.250
 6112POPC   C3A24137  21.428  23.753   7.950
 6112POPC   C4A24138  21.400  23.684   7.650
 6112POPC   C1B24139  21.490  23.524   8.550
 6112POPC   C2B24140  21.429  23.427   8.250
 6112POPC   C3B24141  21.453  23.488   7.950
 6112POPC   C4B24142  21.472  23.521   7.650
 6113POPC   NC324143  39.203   5.904   9.450
 6113POPC   PO424144  39.206   5.883   9.150
 6113POPC   GL124145  39.261   5.839   8.850
 6113POPC   GL224146  39.337   5.878   8.850
 6113POPC   C1A24147  39.233   5.842   8.550
 6113POPC   D2A24148  39.239   5.914   8.250
 6113POPC   C3A24149  39.224   5.828   7.950
 6113POPC   C4A24150  39.273   5.868   7.650
 6113POPC   C1B24151  39.427   5.752   8.550
 6113POPC   C2B24152  39.487   5.798   8.250
 6113POPC   C3B24153  39.484   5.784   7.950
 6113POPC   C4B24154  39.449   5.810   7.650
 6114POPC   NC324155  19.874  22.180   9.450
 6114POPC   PO424156  19.813  22.198   9.150
 6114POPC   GL124157  19.851  22.163   8.850
 6114POPC   GL224158  19.791  22.269   8.850
 6114POPC   C1A24159  19.839  22.178   8.550
 6114POPC   D2A24160  19.866  22.131   8.250
 6114POPC   C3A24161  19.866  22.135   7.950
 6114POPC   C4A24162  19.839  22.158   7.650
 6114POPC   C1B24163  19.797  22.420   8.550
 6114POPC   C2B24164  19.797  22.420   8.250
 6114POPC   C3B24165  19.846  22.443   7.950
 6114POPC   C4B24166  19.828  22.452   7.650
 6115POPC   NC324167  16.720  40.739   9.450
 6115POPC   PO424168  16.771  40.832   9.150
 6115POPC   GL124169  16.773  40.750   8.850
 6115POPC   GL224170  16.584  40.728   8.850
 6115POPC   C1A24171  16.763  40.778   8.550
 6115POPC   D2A24172  16.699  40.750   8.250
 6115POPC   C3A24173  16.758  40.798   7.950
 6115POPC   C4A24174  16.747  40.739   7.650
 6115POPC   C1B24175  16.531  40.649   8.550
 6115POPC   C2B24176  16.558  40.631   8.250
 6115POPC   C3B24177  16.532  40.695   7.950
 6115POPC   C4B24178  16.490  40.660   7.650
 6116POPC   NC324179  35.314  37.636   9.450
 6116POPC   PO424180  35.369  37.704   9.150
 6116POPC   GL124181  35.303  37.711   8.850
 6116POPC   GL224182  35.494  37.681   8.850
 6116POPC   C1A24183  35.350  37.680   8.550
 6116POPC   D2A24184  35.323  37.634   8.250
 6116POPC   C3A24185  35.360  37.672   7.950
 6116POPC   C4A24186  35.309  37.725   7.650
 6116POPC   C1B24187  35.599  37.710   8.550
 6116POPC   C2B24188  35.633  37.647   8.250
 6116POPC   C3B24189  35.618  37.629   7.950
 6116POPC   C4B24190  35.579  37.669   7.650
 6117POPC   NC324191  11.312  34.531   9.450
 6117POPC   PO424192  11.252  34.623   9.150
 6117POPC   GL124193  11.326  34.605   8.850
 6117POPC   GL224194  11.318  34.730   8.850
 6117POPC   C1A24195  11.292  34.581   8.550
 6117POPC   D2A24196  11.319  34.539   8.250
 6117POPC   C3A24197  11.346  34.607   7.950
 6117POPC   C4A24198  11.298  34.565   7.650
 6117POPC   C1B24199  11.453  34.813   8.550
 6117POPC   C2B24200  11.444  34.819   8.250
 6117POPC   C3B24201  11.383  34.761   7.950
 6117POPC   C4B24202  11.375  34.815   7.650
 6118POPC   NC324203  32.287   8.954   9.450
 6118POPC   PO424204  32.244   8.989   9.150
 6118POPC   GL124205  32.225   8.938   8.850
 6118POPC   GL224206  32.144   8.905   8.850
 6118POPC   C1A24207  32.296   8.989   8.550
 6118POPC   D2A24208  32.211   8.978   8.250
 6118POPC   C3A24209  32.256   8.979   7.950
 6118POPC   C4A24210  32.262   8.967   7.650
 6118POPC   C1B24211  32.063   8.737   8.550
 6118POPC   C2B24212  32.088   8.737   8.250
 6118POPC   C3B24213  32.079   8.788   7.950
 6118POPC   C4B24214  32.112   8.750   7.650
 6119POPC   NC324215  21.357   5.055   9.450
 6119POPC   PO424216  21.377   5.129   9.150
 6119POPC   GL124217  21.411   5.044   8.850
 6119POPC   GL224218  21.364   5.244   8.850
 6119POPC   C1A24219  21.355   5.096   8.550
 6119POPC   D2A24220  21.347   5.131   8.250
 6119POPC   C3A24221  21.412   5.106   7.950
 6119POPC   C4A24222  21.405   5.048   7.650
 6119POPC   C1B24223  21.298   5.327   8.550
 6119POPC   C2B24224  21.304   5.333   8.250
 6119POPC   C3B24225  21.379   5.362   7.950
 6119POPC   C4B24226  21.315   5.307   7.650
 6120POPC   NC324227  40.007  19.106   9.450
 6120POPC   PO424228  40.022  19.057   9.150
 6120POPC   GL124229  39.960  19.090   8.850
 6120POPC   GL224230  40.078  18.971   8.850
 6120POPC   C1A24231  40.043  19.098   8.550
 6120POPC   D2A24232  39.981  19.074   8.250
 6120POPC   C3A24233  40.035  19.050   7.950
 6120POPC   C4A24234  40.048  19.029   7.650
 6120POPC   C1B24235  40.167  18.821   8.550
 6120POPC   C2B24236  40.117  18.813   8.250
 6120POPC   C3B24237  40.146  18.845   7.950
 6120POPC   C4B24238  40.153  18.880   7.650
 6121POPC   NC324239  37.673  31.437   9.450
 6121POPC   PO424240  37.636  31.490   9.150
 6121POPC   GL124241  37.675  31.512   8.850
 6121POPC   GL224242  37.543  31.454   8.850
 6121POPC   C1A24243  37.708  31.475   8.550
 6121POPC   D2A24244  37.682  31.474   8.250
 6121POPC   C3A24245  37.715  31.458   7.950
 6121POPC   C4A24246  37.648  31.463   7.650
 6121POPC   C1B24247  37.407  31.442   8.550
 6121POPC   C2B24248  37.475  31.455   8.250
 6121POPC   C3B24249  37.434  31.374   7.950
 6121POPC   C4B24250  37.391  31.432   7.650
 6122POPC   NC324251   0.455  19.062   9.450
 6122POPC   PO424252   0.398  19.079   9.150
 6122POPC   GL124253   0.415  19.056   8.850
 6122POPC   GL224254   0.567  19.005   8.850
 6122POPC   C1A24255   0.474  19.072   8.550
 6122POPC   D2A24256   0.393  19.068   8.250
 6122POPC   C3A24257   0.469  19.027   7.950
 6122POPC   C4A24258   0.444  19.062   7.650
 6122POPC   C1B24259   0.664  18.906   8.550
 6122POPC   C2B24260   0.697  18.958   8.250
 6122POPC   C3B24261   0.654  18.886   7.950
 6122POPC   C4B24262   0.652  18.920   7.650
 6123POPC   NC324263  40.810  30.648   9.450
 6123POPC   PO424264  40.820  30.731   9.150
 6123POPC   GL124265  40.781  30.656   8.850
 6123POPC   GL224266  40.730  30.523   8.850
 6123POPC   C1A24267  40.793  30.723   8.550
 6123POPC   D2A24268  40.809  30.713   8.250
 6123POPC   C3A24269  40.798  30.685   7.950
 6123POPC   C4A24270  40.809  30.655   7.650
 6123POPC   C1B24271  40.750  30.479   8.550
 6123POPC   C2B24272  40.767  30.468   8.250
 6123POPC   C3B24273  40.805  30.409   7.950
 6123POPC   C4B24274  40.779  30.481   7.650
 6124POPC   NC324275   5.855  23.682   9.450
 6124POPC   PO424276   5.912  23.696   9.150
 6124POPC   GL124277   5.865  23.713   8.850
 6124POPC   GL224278   5.768  23.799   8.850
 6124POPC   C1A24279   5.919  23.722   8.550
 6124POPC   D2A24280   5.888  23.763   8.250
 6124POPC   C3A24281   5.909  23.756   7.950
 6124POPC   C4A24282   5.916  23.677   7.650
 6124POPC   C1B24283   5.684  23.914   8.550
 6124POPC   C2B24284   5.734  23.899   8.250
 6124POPC   C3B24285   5.672  23.850   7.950
 6124POPC   C4B24286   5.653  23.892   7.650
 6125POPC   NC324287   2.759  37.638   9.450
 6125POPC   PO424288   2.780  37.725   9.150
 6125POPC   GL124289   2.812  37.637   8.850
 6125POPC   GL224290   2.705  37.764   8.850
 6125POPC   C1A24291   2.762  37.691   8.550
 6125POPC   D2A24292   2.791  37.727   8.250
 6125POPC   C3A24293   2.780  37.723   7.950
 6125POPC   C4A24294   2.792  37.701   7.650
 6125POPC   C1B24295   2.556  37.842   8.550
 6125POPC   C2B24296   2.602  37.861   8.250
 6125POPC   C3B24297   2.516  37.864   7.950
 6125POPC   C4B24298   2.519  37.852   7.650
 6126POPC   NC324299  12.104  20.620   9.450
 6126POPC   PO424300  12.054  20.566   9.150
 6126POPC   GL124301  12.091  20.635   8.850
 6126POPC   GL224302  12.175  20.732   8.850
 6126POPC   C1A24303  12.040  20.656   8.550
 6126POPC   D2A24304  12.080  20.619   8.250
 6126POPC   C3A24305  12.112  20.655   7.950
 6126POPC   C4A24306  12.044  20.619   7.650
 6126POPC   C1B24307  12.266  20.787   8.550
 6126POPC   C2B24308  12.249  20.809   8.250
 6126POPC   C3B24309  12.236  20.770   7.950
 6126POPC   C4B24310  12.195  20.786   7.650
 6127POPC   NC324311  20.594   6.663   9.450
 6127POPC   PO424312  20.591   6.630   9.150
 6127POPC   GL124313  20.577   6.622   8.850
 6127POPC   GL224314  20.692   6.557   8.850
 6127POPC   C1A24315  20.654   6.636   8.550
 6127POPC   D2A24316  20.611   6.658   8.250
 6127POPC   C3A24317  20.639   6.645   7.950
 6127POPC   C4A24318  20.629   6.656   7.650
 6127POPC   C1B24319  20.751   6.452   8.550
 6127POPC   C2B24320  20.810   6.446   8.250
 6127POPC   C3B24321  20.749   6.507   7.950
 6127POPC   C4B24322  20.733   6.409   7.650
 6128POPC   NC324323  21.416  29.136   9.450
 6128POPC   PO424324  21.374  29.150   9.150
 6128POPC   GL124325  21.339  29.130   8.850
 6128POPC   GL224326  21.502  29.216   8.850
 6128POPC   C1A24327  21.352  29.131   8.550
 6128POPC   D2A24328  21.343  29.121   8.250
 6128POPC   C3A24329  21.404  29.173   7.950
 6128POPC   C4A24330  21.380  29.175   7.650
 6128POPC   C1B24331  21.602  29.306   8.550
 6128POPC   C2B24332  21.571  29.339   8.250
 6128POPC   C3B24333  21.620  29.274   7.950
 6128POPC   C4B24334  21.602  29.265   7.650
 6129POPC   NC324335  12.036   5.111   9.450
 6129POPC   PO424336  12.044   5.143   9.150
 6129POPC   GL124337  12.125   5.088   8.850
 6129POPC   GL224338  12.009   5.183   8.850
 6129POPC   C1A24339  12.109   5.095   8.550
 6129POPC   D2A24340  12.040   5.072   8.250
 6129POPC   C3A24341  12.035   5.094   7.950
 6129POPC   C4A24342  12.042   5.067   7.650
 6129POPC   C1B24343  11.974   5.377   8.550
 6129POPC   C2B24344  12.002   5.352   8.250
 6129POPC   C3B24345  11.962   5.340   7.950
 6129POPC   C4B24346  11.997   5.375   7.650
 6130POPC   NC324347   0.470  12.869   9.450
 6130POPC   PO424348   0.471  12.803   9.150
 6130POPC   GL124349   0.404  12.885   8.850
 6130POPC   GL224350   0.349  12.830   8.850
 6130POPC   C1A24351   0.471  12.804   8.550
 6130POPC   D2A24352   0.424  12.843   8.250
 6130POPC   C3A24353   0.443  12.890   7.950
 6130POPC   C4A24354   0.410  12.813   7.650
 6130POPC   C1B24355   0.232  12.727   8.550
 6130POPC   C2B24356   0.191  12.734   8.250
 6130POPC   C3B24357   0.242  12.706   7.950
 6130POPC   C4B24358   0.195  12.735   7.650
 6131POPC   NC324359  25.308  26.026   9.450
 6131POPC   PO424360  25.225  26.028   9.150
 6131POPC   GL124361  25.308  26.083   8.850
 6131POPC   GL224362  25.375  26.136   8.850
 6131POPC   C1A24363  25.248  26.051   8.550
 6131POPC   D2A24364  25.217  26.025   8.250
 6131POPC   C3A24365  25.301  26.021   7.950
 6131POPC   C4A24366  25.272  26.087   7.650
 6131POPC   C1B24367  25.393  26.276   8.550
 6131POPC   C2B24368  25.385  26.222   8.250
 6131POPC   C3B24369  25.361  26.242   7.950
 6131POPC   C4B24370  25.375  26.265   7.650
 6132POPC   NC324371  25.246  16.775   9.450
 6132POPC   PO424372  25.270  16.754   9.150
 6132POPC   GL124373  25.229  16.778   8.850
 6132POPC   GL224374  25.383  16.674   8.850
 6132POPC   C1A24375  25.280  16.770   8.550
 6132POPC   D2A24376  25.301  16.756   8.250
 6132POPC   C3A24377  25.274  16.768   7.950
 6132POPC   C4A24378  25.247  16.743   7.650
 6132POPC   C1B24379  25.446  16.538   8.550
 6132POPC   C2B24380  25.453  16.536   8.250
 6132POPC   C3B24381  25.464  16.602   7.950
 6132POPC   C4B24382  25.478  16.517   7.650
 6133POPC   NC324383  41.571  16.721   9.450
 6133POPC   PO424384  41.515  16.739   9.150
 6133POPC   GL124385  41.542  16.758   8.850
 6133POPC   GL224386  41.629  16.624   8.850
 6133POPC   C1A24387  41.584  16.776   8.550
 6133POPC   D2A24388  41.606  16.772   8.250
 6133POPC   C3A24389  41.568  16.732   7.950
 6133POPC   C4A24390  41.602  16.779   7.650
 6133POPC   C1B24391  41.721  16.544   8.550
 6133POPC   C2B24392  41.744  16.583   8.250
 6133POPC   C3B24393  41.730  16.616   7.950
 6133POPC   C4B24394  41.738  16.523   7.650
 6134POPC   NC324395   7.451  26.072   9.450
 6134POPC   PO424396   7.384  26.074   9.150
 6134POPC   GL124397   7.430  26.011   8.850
 6134POPC   GL224398   7.534  26.021   8.850
 6134POPC   C1A24399   7.444  26.087   8.550
 6134POPC   D2A24400   7.441  26.004   8.250
 6134POPC   C3A24401   7.461  26.041   7.950
 6134POPC   C4A24402   7.419  26.009   7.650
 6134POPC   C1B24403   7.640  25.983   8.550
 6134POPC   C2B24404   7.673  25.990   8.250
 6134POPC   C3B24405   7.652  26.042   7.950
 6134POPC   C4B24406   7.641  25.993   7.650
 6135POPC   NC324407  43.069  15.221   9.450
 6135POPC   PO424408  43.158  15.165   9.150
 6135POPC   GL124409  43.069  15.195   8.850
 6135POPC   GL224410  43.218  15.211   8.850
 6135POPC   C1A24411  43.103  15.133   8.550
 6135POPC   D2A24412  43.082  15.178   8.250
 6135POPC   C3A24413  43.069  15.133   7.950
 6135POPC   C4A24414  43.124  15.171   7.650
 6135POPC   C1B24415  43.304  15.302   8.550
 6135POPC   C2B24416  43.360  15.322   8.250
 6135POPC   C3B24417  43.365  15.258   7.950
 6135POPC   C4B24418  43.331  15.323   7.650
 6136POPC   NC324419  16.741   1.171   9.450
 6136POPC   PO424420  16.715   1.168   9.150
 6136POPC   GL124421  16.735   1.196   8.850
 6136POPC   GL224422  16.589   1.207   8.850
 6136POPC   C1A24423  16.755   1.251   8.550
 6136POPC   D2A24424  16.711   1.211   8.250
 6136POPC   C3A24425  16.777   1.200   7.950
 6136POPC   C4A24426  16.745   1.248   7.650
 6136POPC   C1B24427  16.468   1.219   8.550
 6136POPC   C2B24428  16.507   1.284   8.250
 6136POPC   C3B24429  16.517   1.272   7.950
 6136POPC   C4B24430  16.442   1.229   7.650
 6137POPC   NC324431   5.096  24.528   9.450
 6137POPC   PO424432   5.080  24.502   9.150
 6137POPC   GL124433   5.136  24.483   8.850
 6137POPC   GL224434   5.160  24.584   8.850
 6137POPC   C1A24435   5.047  24.519   8.550
 6137POPC   D2A24436   5.063  24.445   8.250
 6137POPC   C3A24437   5.138  24.486   7.950
 6137POPC   C4A24438   5.044  24.458   7.650
 6137POPC   C1B24439   5.115  24.763   8.550
 6137POPC   C2B24440   5.129  24.689   8.250
 6137POPC   C3B24441   5.116  24.726   7.950
 6137POPC   C4B24442   5.149  24.730   7.650
 6138POPC   NC324443   6.679  32.296   9.450
 6138POPC   PO424444   6.641  32.219   9.150
 6138POPC   GL124445   6.621  32.200   8.850
 6138POPC   GL224446   6.750  32.184   8.850
 6138POPC   C1A24447   6.687  32.250   8.550
 6138POPC   D2A24448   6.690  32.272   8.250
 6138POPC   C3A24449   6.675  32.290   7.950
 6138POPC   C4A24450   6.618  32.225   7.650
 6138POPC   C1B24451   6.901  32.170   8.550
 6138POPC   C2B24452   6.833  32.162   8.250
 6138POPC   C3B24453   6.853  32.164   7.950
 6138POPC   C4B24454   6.831  32.155   7.650
 6139POPC   NC324455  19.041   3.501   9.450
 6139POPC   PO424456  19.015   3.561   9.150
 6139POPC   GL124457  19.019   3.562   8.850
 6139POPC   GL224458  19.154   3.645   8.850
 6139POPC   C1A24459  19.019   3.573   8.550
 6139POPC   D2A24460  19.079   3.543   8.250
 6139POPC   C3A24461  19.032   3.588   7.950
 6139POPC   C4A24462  19.014   3.519   7.650
 6139POPC   C1B24463  19.235   3.704   8.550
 6139POPC   C2B24464  19.226   3.695   8.250
 6139POPC   C3B24465  19.254   3.746   7.950
 6139POPC   C4B24466  19.188   3.741   7.650
 6140POPC   NC324467   1.968  28.376   9.450
 6140POPC   PO424468   1.983  28.322   9.150
 6140POPC   GL124469   1.987  28.386   8.850
 6140POPC   GL224470   1.909  28.306   8.850
 6140POPC   C1A24471   2.005  28.365   8.550
 6140POPC   D2A24472   2.033  28.373   8.250
 6140POPC   C3A24473   1.973  28.384   7.950
 6140POPC   C4A24474   1.989  28.417   7.650
 6140POPC   C1B24475   1.813  28.176   8.550
 6140POPC   C2B24476   1.905  28.122   8.250
 6140POPC   C3B24477   1.841  28.130   7.950
 6140POPC   C4B24478   1.812  28.150   7.650
 6141POPC   NC324479  24.485  22.947   9.450
 6141POPC   PO424480  24.504  22.982   9.150
 6141POPC   GL124481  24.530  22.942   8.850
 6141POPC   GL224482  24.599  22.988   8.850
 6141POPC   C1A24483  24.447  22.889   8.550
 6141POPC   D2A24484  24.458  22.943   8.250
 6141POPC   C3A24485  24.486  22.955   7.950
 6141POPC   C4A24486  24.524  22.943   7.650
 6141POPC   C1B24487  24.658  23.069   8.550
 6141POPC   C2B24488  24.726  23.106   8.250
 6141POPC   C3B24489  24.740  23.084   7.950
 6141POPC   C4B24490  24.647  23.033   7.650
 6142POPC   NC324491   8.943   0.478   9.450
 6142POPC   PO424492   8.949   0.439   9.150
 6142POPC   GL124493   8.938   0.468   8.850
 6142POPC   GL224494   9.065   0.488   8.850
 6142POPC   C1A24495   8.929   0.417   8.550
 6142POPC   D2A24496   8.988   0.481   8.250
 6142POPC   C3A24497   9.010   0.444   7.950
 6142POPC   C4A24498   9.020   0.393   7.650
 6142POPC   C1B24499   9.184   0.556   8.550
 6142POPC   C2B24500   9.183   0.612   8.250
 6142POPC   C3B24501   9.215   0.547   7.950
 6142POPC   C4B24502   9.179   0.531   7.650
 6143POPC   NC324503  24.461   1.243   9.450
 6143POPC   PO424504  24.456   1.227   9.150
 6143POPC   GL124505  24.504   1.179   8.850
 6143POPC   GL224506  24.636   1.180   8.850
 6143POPC   C1A24507  24.488   1.175   8.550
 6143POPC   D2A24508  24.509   1.188   8.250
 6143POPC   C3A24509  24.518   1.248   7.950
 6143POPC   C4A24510  24.456   1.204   7.650
 6143POPC   C1B24511  24.761   1.139   8.550
 6143POPC   C2B24512  24.737   1.153   8.250
 6143POPC   C3B24513  24.703   1.136   7.950
 6143POPC   C4B24514  24.774   1.099   7.650
 6144POPC   NC324515   1.208  10.531   9.450
 6144POPC   PO424516   1.251  10.482   9.150
 6144POPC   GL124517   1.224  10.546   8.850
 6144POPC   GL224518   1.167  10.593   8.850
 6144POPC   C1A24519   1.197  10.529   8.550
 6144POPC   D2A24520   1.174  10.490   8.250
 6144POPC   C3A24521   1.237  10.557   7.950
 6144POPC   C4A24522   1.219  10.478   7.650
 6144POPC   C1B24523   1.046  10.645   8.550
 6144POPC   C2B24524   1.016  10.701   8.250
 6144POPC   C3B24525   1.038  10.683   7.950
 6144POPC   C4B24526   0.993  10.678   7.650
 6145POPC   NC324527  19.788  34.534   9.450
 6145POPC   PO424528  19.803  34.572   9.150
 6145POPC   GL124529  19.818  34.536   8.850
 6145POPC   GL224530  19.913  34.536   8.850
 6145POPC   C1A24531  19.824  34.528   8.550
 6145POPC   D2A24532  19.819  34.577   8.250
 6145POPC   C3A24533  19.883  34.571   7.950
 6145POPC   C4A24534  19.839  34.580   7.650
 6145POPC   C1B24535  20.005  34.438   8.550
 6145POPC   C2B24536  20.003  34.424   8.250
 6145POPC   C3B24537  20.014  34.438   7.950
 6145POPC   C4B24538  20.045  34.375   7.650
 6146POPC   NC324539   7.378   4.283   9.450
 6146POPC   PO424540   7.446   4.361   9.150
 6146POPC   GL124541   7.446   4.330   8.850
 6146POPC   GL224542   7.349   4.440   8.850
 6146POPC   C1A24543   7.426   4.282   8.550
 6146POPC   D2A24544   7.379   4.274   8.250
 6146POPC   C3A24545   7.377   4.336   7.950
 6146POPC   C4A24546   7.374   4.323   7.650
 6146POPC   C1B24547   7.232   4.492   8.550
 6146POPC   C2B24548   7.261   4.535   8.250
 6146POPC   C3B24549   7.269   4.492   7.950
 6146POPC   C4B24550   7.257   4.473   7.650
 6147POPC   NC324551  44.620  29.904   9.450
 6147POPC   PO424552  44.703  29.933   9.150
 6147POPC   GL124553  44.684  29.966   8.850
 6147POPC   GL224554  44.636  29.818   8.850
 6147POPC   C1A24555  44.616  29.886   8.550
 6147POPC   D2A24556  44.652  29.890   8.250
 6147POPC   C3A24557  44.707  29.922   7.950
 6147POPC   C4A24558  44.656  29.881   7.650
 6147POPC   C1B24559  44.574  29.677   8.550
 6147POPC   C2B24560  44.593  29.697   8.250
 6147POPC   C3B24561  44.591  29.698   7.950
 6147POPC   C4B24562  44.620  29.665   7.650
 6148POPC   NC324563   6.613  30.722   9.450
 6148POPC   PO424564   6.631  30.692   9.150
 6148POPC   GL124565   6.689  30.707   8.850
 6148POPC   GL224566   6.704  30.797   8.850
 6148POPC   C1A24567   6.613  30.679   8.550
 6148POPC   D2A24568   6.688  30.648   8.250
 6148POPC   C3A24569   6.638  30.729   7.950
 6148POPC   C4A24570   6.674  30.660   7.650
 6148POPC   C1B24571   6.662  30.912   8.550
 6148POPC   C2B24572   6.689  30.958   8.250
 6148POPC   C3B24573   6.702  30.923   7.950
 6148POPC   C4B24574   6.698  30.992   7.650
 6149POPC   NC324575  26.055  41.525   9.450
 6149POPC   PO424576  26.076  41.577   9.150
 6149POPC   GL124577  26.060  41.546   8.850
 6149POPC   GL224578  26.058  41.701   8.850
 6149POPC   C1A24579  26.063  41.511   8.550
 6149POPC   D2A24580  26.087  41.559   8.250
 6149POPC   C3A24581  26.082  41.578   7.950
 6149POPC   C4A24582  26.072  41.601   7.650
 6149POPC   C1B24583  26.009  41.790   8.550
 6149POPC   C2B24584  26.045  41.816   8.250
 6149POPC   C3B24585  26.077  41.832   7.950
 6149POPC   C4B24586  26.022  41.793   7.650
 6150POPC   NC324587  33.788  23.666   9.450
 6150POPC   PO424588  33.825  23.747   9.150
 6150POPC   GL124589  33.787  23.747   8.850
 6150POPC   GL224590  33.740  23.790   8.850
 6150POPC   C1A24591  33.768  23.721   8.550
 6150POPC   D2A24592  33.838  23.762   8.250
 6150POPC   C3A24593  33.823  23.692   7.950
 6150POPC   C4A24594  33.813  23.757   7.650
 6150POPC   C1B24595  33.562  23.872   8.550
 6150POPC   C2B24596  33.629  23.888   8.250
 6150POPC   C3B24597  33.640  23.864   7.950
 6150POPC   C4B24598  33.583  23.847   7.650
 6151POPC   NC324599  37.663  15.999   9.450
 6151POPC   PO424600  37.680  15.993   9.150
 6151POPC   GL124601  37.658  15.944   8.850
 6151POPC   GL224602  37.752  15.795   8.850
 6151POPC   C1A24603  37.720  16.001   8.550
 6151POPC   D2A24604  37.659  15.940   8.250
 6151POPC   C3A24605  37.636  15.975   7.950
 6151POPC   C4A24606  37.694  15.988   7.650
 6151POPC   C1B24607  37.688  15.704   8.550
 6151POPC   C2B24608  37.698  15.722   8.250
 6151POPC   C3B24609  37.736  15.733   7.950
 6151POPC   C4B24610  37.720  15.736   7.650
 6152POPC   NC324611  43.914  43.135   9.450
 6152POPC   PO424612  43.873  43.105   9.150
 6152POPC   GL124613  43.842  43.149   8.850
 6152POPC   GL224614  43.975  43.070   8.850
 6152POPC   C1A24615  43.851  43.063   8.550
 6152POPC   D2A24616  43.863  43.087   8.250
 6152POPC   C3A24617  43.917  43.072   7.950
 6152POPC   C4A24618  43.897  43.148   7.650
 6152POPC   C1B24619  44.084  42.968   8.550
 6152POPC   C2B24620  44.116  43.021   8.250
 6152POPC   C3B24621  44.135  42.979   7.950
 6152POPC   C4B24622  44.061  42.988   7.650
 6153POPC   NC324623  32.265  41.516   9.450
 6153POPC   PO424624  32.254  41.602   9.150
 6153POPC   GL124625  32.205  41.547   8.850
 6153POPC   GL224626  32.107  41.469   8.850
 6153POPC   C1A24627  32.218  41.581   8.550
 6153POPC   D2A24628  32.292  41.529   8.250
 6153POPC   C3A24629  32.257  41.570   7.950
 6153POPC   C4A24630  32.272  41.604   7.650
 6153POPC   C1B24631  32.081  41.387   8.550
 6153POPC   C2B24632  32.038  41.427   8.250
 6153POPC   C3B24633  32.043  41.383   7.950
 6153POPC   C4B24634  32.052  41.456   7.650
 6154POPC   NC324635  43.917  19.023   9.450
 6154POPC   PO424636  43.868  19.083   9.150
 6154POPC   GL124637  43.846  19.108   8.850
 6154POPC   GL224638  43.751  19.025   8.850
 6154POPC   C1A24639  43.866  19.103   8.550
 6154POPC   D2A24640  43.878  19.056   8.250
 6154POPC   C3A24641  43.853  19.062   7.950
 6154POPC   C4A24642  43.926  19.020   7.650
 6154POPC   C1B24643  43.648  19.086   8.550
 6154POPC   C2B24644  43.639  19.060   8.250
 6154POPC   C3B24645  43.668  19.053   7.950
 6154POPC   C4B24646  43.622  19.078   7.650
 6155POPC   NC324647  36.137   8.958   9.450
 6155POPC   PO424648  36.091   9.015   9.150
 6155POPC   GL124649  36.156   8.946   8.850
 6155POPC   GL224650  36.016   8.903   8.850
 6155POPC   C1A24651  36.092   8.951   8.550
 6155POPC   D2A24652  36.118   8.993   8.250
 6155POPC   C3A24653  36.144   8.998   7.950
 6155POPC   C4A24654  36.103   8.994   7.650
 6155POPC   C1B24655  35.900   8.915   8.550
 6155POPC   C2B24656  35.843   8.912   8.250
 6155POPC   C3B24657  35.847   8.873   7.950
 6155POPC   C4B24658  35.896   8.904   7.650
 6156POPC   NC324659  17.557   8.170   9.450
 6156POPC   PO424660  17.472   8.222   9.150
 6156POPC   GL124661  17.462   8.201   8.850
 6156POPC   GL224662  17.496   8.319   8.850
 6156POPC   C1A24663  17.505   8.221   8.550
 6156POPC   D2A24664  17.513   8.207   8.250
 6156POPC   C3A24665  17.479   8.220   7.950
 6156POPC   C4A24666  17.509   8.188   7.650
 6156POPC   C1B24667  17.455   8.415   8.550
 6156POPC   C2B24668  17.540   8.456   8.250
 6156POPC   C3B24669  17.482   8.436   7.950
 6156POPC   C4B24670  17.529   8.442   7.650
 6157POPC   NC324671  18.321  25.285   9.450
 6157POPC   PO424672  18.286  25.257   9.150
 6157POPC   GL124673  18.266  25.294   8.850
 6157POPC   GL224674  18.361  25.187   8.850
 6157POPC   C1A24675  18.238  25.262   8.550
 6157POPC   D2A24676  18.329  25.265   8.250
 6157POPC   C3A24677  18.260  25.306   7.950
 6157POPC   C4A24678  18.290  25.313   7.650
 6157POPC   C1B24679  18.393  25.073   8.550
 6157POPC   C2B24680  18.414  25.016   8.250
 6157POPC   C3B24681  18.417  25.044   7.950
 6157POPC   C4B24682  18.465  25.017   7.650
 6158POPC   NC324683   8.205  23.675   9.450
 6158POPC   PO424684   8.219  23.703   9.150
 6158POPC   GL124685   8.197  23.706   8.850
 6158POPC   GL224686   8.316  23.809   8.850
 6158POPC   C1A24687   8.230  23.742   8.550
 6158POPC   D2A24688   8.218  23.729   8.250
 6158POPC   C3A24689   8.233  23.761   7.950
 6158POPC   C4A24690   8.187  23.667   7.650
 6158POPC   C1B24691   8.345  23.922   8.550
 6158POPC   C2B24692   8.389  23.904   8.250
 6158POPC   C3B24693   8.332  23.900   7.950
 6158POPC   C4B24694   8.363  23.913   7.650
 6159POPC   NC324695  14.423  26.031   9.450
 6159POPC   PO424696  14.428  26.013   9.150
 6159POPC   GL124697  14.361  26.047   8.850
 6159POPC   GL224698  14.265  26.066   8.850
 6159POPC   C1A24699  14.404  26.085   8.550
 6159POPC   D2A24700  14.422  26.028   8.250
 6159POPC   C3A24701  14.373  26.037   7.950
 6159POPC   C4A24702  14.420  26.029   7.650
 6159POPC   C1B24703  14.159  26.157   8.550
 6159POPC   C2B24704  14.215  26.179   8.250
 6159POPC   C3B24705  14.196  26.159   7.950
 6159POPC   C4B24706  14.174  26.181   7.650
 6160POPC   NC324707  36.102  35.381   9.450
 6160POPC   PO424708  36.175  35.356   9.150
 6160POPC   GL124709  36.096  35.354   8.850
 6160POPC   GL224710  36.042  35.413   8.850
 6160POPC   C1A24711  36.118  35.308   8.550
 6160POPC   D2A24712  36.166  35.310   8.250
 6160POPC   C3A24713  36.157  35.317   7.950
 6160POPC   C4A24714  36.109  35.314   7.650
 6160POPC   C1B24715  35.941  35.566   8.550
 6160POPC   C2B24716  35.991  35.594   8.250
 6160POPC   C3B24717  36.034  35.571   7.950
 6160POPC   C4B24718  36.021  35.562   7.650
 6161POPC   NC324719  10.532  30.739   9.450
 6161POPC   PO424720  10.561  30.717   9.150
 6161POPC   GL124721  10.535  30.655   8.850
 6161POPC   GL224722  10.472  30.801   8.850
 6161POPC   C1A24723  10.556  30.709   8.550
 6161POPC   D2A24724  10.494  30.652   8.250
 6161POPC   C3A24725  10.522  30.681   7.950
 6161POPC   C4A24726  10.476  30.726   7.650
 6161POPC   C1B24727  10.519  30.959   8.550
 6161POPC   C2B24728  10.470  30.972   8.250
 6161POPC   C3B24729  10.540  30.993   7.950
 6161POPC   C4B24730  10.445  30.974   7.650
 6162POPC   NC324731   6.690   3.525   9.450
 6162POPC   PO424732   6.607   3.503   9.150
 6162POPC   GL124733   6.672   3.527   8.850
 6162POPC   GL224734   6.617   3.661   8.850
 6162POPC   C1A24735   6.616   3.572   8.550
 6162POPC   D2A24736   6.606   3.573   8.250
 6162POPC   C3A24737   6.641   3.509   7.950
 6162POPC   C4A24738   6.681   3.590   7.650
 6162POPC   C1B24739   6.551   3.776   8.550
 6162POPC   C2B24740   6.573   3.763   8.250
 6162POPC   C3B24741   6.573   3.768   7.950
 6162POPC   C4B24742   6.546   3.811   7.650
 6163POPC   NC324743  36.154  10.510   9.450
 6163POPC   PO424744  36.165  10.490   9.150
 6163POPC   GL124745  36.099  10.489   8.850
 6163POPC   GL224746  36.245  10.543   8.850
 6163POPC   C1A24747  36.082  10.489   8.550
 6163POPC   D2A24748  36.081  10.485   8.250
 6163POPC   C3A24749  36.133  10.528   7.950
 6163POPC   C4A24750  36.090  10.556   7.650
 6163POPC   C1B24751  36.338  10.595   8.550
 6163POPC   C2B24752  36.418  10.532   8.250
 6163POPC   C3B24753  36.361  10.573   7.950
 6163POPC   C4B24754  36.413  10.498   7.650
 6164POPC   NC324755  32.997  29.963   9.450
 6164POPC   PO424756  33.074  29.939   9.150
 6164POPC   GL124757  33.004  29.942   8.850
 6164POPC   GL224758  32.871  29.945   8.850
 6164POPC   C1A24759  33.048  29.886   8.550
 6164POPC   D2A24760  32.979  29.905   8.250
 6164POPC   C3A24761  32.985  29.905   7.950
 6164POPC   C4A24762  33.040  29.970   7.650
 6164POPC   C1B24763  32.763  29.931   8.550
 6164POPC   C2B24764  32.775  29.907   8.250
 6164POPC   C3B24765  32.739  29.892   7.950
 6164POPC   C4B24766  32.752  29.963   7.650
 6165POPC   NC324767  24.521   1.965   9.450
 6165POPC   PO424768  24.443   1.960   9.150
 6165POPC   GL124769  24.534   1.977   8.850
 6165POPC   GL224770  24.499   2.128   8.850
 6165POPC   C1A24771  24.468   2.034   8.550
 6165POPC   D2A24772  24.520   1.970   8.250
 6165POPC   C3A24773  24.536   2.009   7.950
 6165POPC   C4A24774  24.536   2.025   7.650
 6165POPC   C1B24775  24.534   2.275   8.550
 6165POPC   C2B24776  24.543   2.250   8.250
 6165POPC   C3B24777  24.543   2.263   7.950
 6165POPC   C4B24778  24.558   2.240   7.650
 6166POPC   NC324779  14.418  29.886   9.450
 6166POPC   PO424780  14.432  29.911   9.150
 6166POPC   GL124781  14.442  29.893   8.850
 6166POPC   GL224782  14.413  30.059   8.850
 6166POPC   C1A24783  14.362  29.965   8.550
 6166POPC   D2A24784  14.355  29.871   8.250
 6166POPC   C3A24785  14.403  29.915   7.950
 6166POPC   C4A24786  14.389  29.925   7.650
 6166POPC   C1B24787  14.388  30.191   8.550
 6166POPC   C2B24788  14.433  30.151   8.250
 6166POPC   C3B24789  14.382  30.213   7.950
 6166POPC   C4B24790  14.392  30.196   7.650
 6167POPC   NC324791  23.721  22.202   9.450
 6167POPC   PO424792  23.683  22.114   9.150
 6167POPC   GL124793  23.715  22.174   8.850
 6167POPC   GL224794  23.813  22.024   8.850
 6167POPC   C1A24795  23.690  22.136   8.550
 6167POPC   D2A24796  23.686  22.123   8.250
 6167POPC   C3A24797  23.751  22.132   7.950
 6167POPC   C4A24798  23.692  22.152   7.650
 6167POPC   C1B24799  23.894  21.970   8.550
 6167POPC   C2B24800  23.923  21.949   8.250
 6167POPC   C3B24801  23.911  21.996   7.950
 6167POPC   C4B24802  23.866  21.999   7.650
 6168POPC   NC324803  43.126   7.459   9.450
 6168POPC   PO424804  43.107   7.438   9.150
 6168POPC   GL124805  43.097   7.451   8.850
 6168POPC   GL224806  42.957   7.375   8.850
 6168POPC   C1A24807  43.158   7.427   8.550
 6168POPC   D2A24808  43.121   7.397   8.250
 6168POPC   C3A24809  43.133   7.442   7.950
 6168POPC   C4A24810  43.086   7.404   7.650
 6168POPC   C1B24811  42.888   7.458   8.550
 6168POPC   C2B24812  42.905   7.467   8.250
 6168POPC   C3B24813  42.895   7.434   7.950
 6168POPC   C4B24814  42.813   7.452   7.650
 6169POPC   NC324815  38.424  15.996   9.450
 6169POPC   PO424816  38.456  15.985   9.150
 6169POPC   GL124817  38.489  15.955   8.850
 6169POPC   GL224818  38.578  15.955   8.850
 6169POPC   C1A24819  38.488  15.959   8.550
 6169POPC   D2A24820  38.480  15.998   8.250
 6169POPC   C3A24821  38.469  15.910   7.950
 6169POPC   C4A24822  38.443  15.939   7.650
 6169POPC   C1B24823  38.657  16.044   8.550
 6169POPC   C2B24824  38.668  16.059   8.250
 6169POPC   C3B24825  38.739  16.045   7.950
 6169POPC   C4B24826  38.678  16.026   7.650
 6170POPC   NC324827  33.820  27.604   9.450
 6170POPC   PO424828  33.807  27.561   9.150
 6170POPC   GL124829  33.807  27.632   8.850
 6170POPC   GL224830  33.681  27.574   8.850
 6170POPC   C1A24831  33.833  27.609   8.550
 6170POPC   D2A24832  33.810  27.570   8.250
 6170POPC   C3A24833  33.794  27.552   7.950
 6170POPC   C4A24834  33.783  27.624   7.650
 6170POPC   C1B24835  33.574  27.619   8.550
 6170POPC   C2B24836  33.501  27.570   8.250
 6170POPC   C3B24837  33.543  27.634   7.950
 6170POPC   C4B24838  33.567  27.632   7.650
 6171POPC   NC324839   8.202  24.489   9.450
 6171POPC   PO424840   8.166  24.493   9.150
 6171POPC   GL124841   8.150  24.533   8.850
 6171POPC   GL224842   8.061  24.393   8.850
 6171POPC   C1A24843   8.238  24.455   8.550
 6171POPC   D2A24844   8.202  24.496   8.250
 6171POPC   C3A24845   8.218  24.494   7.950
 6171POPC   C4A24846   8.185  24.534   7.650
 6171POPC   C1B24847   7.965  24.366   8.550
 6171POPC   C2B24848   7.974  24.355   8.250
 6171POPC   C3B24849   7.985  24.362   7.950
 6171POPC   C4B24850   7.970  24.411   7.650
 6172POPC   NC324851  10.495  38.422   9.450
 6172POPC   PO424852  10.552  38.484   9.150
 6172POPC   GL124853  10.516  38.408   8.850
 6172POPC   GL224854  10.425  38.372   8.850
 6172POPC   C1A24855  10.520  38.499   8.550
 6172POPC   D2A24856  10.544  38.431   8.250
 6172POPC   C3A24857  10.549  38.486   7.950
 6172POPC   C4A24858  10.503  38.412   7.650
 6172POPC   C1B24859  10.426  38.243   8.550
 6172POPC   C2B24860  10.398  38.213   8.250
 6172POPC   C3B24861  10.437  38.215   7.950
 6172POPC   C4B24862  10.364  38.241   7.650
 6173POPC   NC324863   0.409  23.742   9.450
 6173POPC   PO424864   0.470  23.699   9.150
 6173POPC   GL124865   0.389  23.720   8.850
 6173POPC   GL224866   0.479  23.824   8.850
 6173POPC   C1A24867   0.427  23.667   8.550
 6173POPC   D2A24868   0.407  23.678   8.250
 6173POPC   C3A24869   0.430  23.752   7.950
 6173POPC   C4A24870   0.456  23.669   7.650
 6173POPC   C1B24871   0.486  23.964   8.550
 6173POPC   C2B24872   0.473  23.952   8.250
 6173POPC   C3B24873   0.494  23.930   7.950
 6173POPC   C4B24874   0.476  23.940   7.650
 6174POPC   NC324875  41.589  26.798   9.450
 6174POPC   PO424876  41.589  26.794   9.150
 6174POPC   GL124877  41.509  26.793   8.850
 6174POPC   GL224878  41.633  26.907   8.850
 6174POPC   C1A24879  41.559  26.831   8.550
 6174POPC   D2A24880  41.522  26.771   8.250
 6174POPC   C3A24881  41.589  26.780   7.950
 6174POPC   C4A24882  41.517  26.794   7.650
 6174POPC   C1B24883  41.804  26.898   8.550
 6174POPC   C2B24884  41.832  26.855   8.250
 6174POPC   C3B24885  41.773  26.881   7.950
 6174POPC   C4B24886  41.823  26.873   7.650
 6175POPC   NC324887   8.991  37.697   9.450
 6175POPC   PO424888   8.937  37.713   9.150
 6175POPC   GL124889   8.930  37.706   8.850
 6175POPC   GL224890   9.133  37.745   8.850
 6175POPC   C1A24891   8.952  37.682   8.550
 6175POPC   D2A24892   8.964  37.651   8.250
 6175POPC   C3A24893   8.961  37.642   7.950
 6175POPC   C4A24894   8.986  37.726   7.650
 6175POPC   C1B24895   9.211  37.768   8.550
 6175POPC   C2B24896   9.189  37.769   8.250
 6175POPC   C3B24897   9.170  37.748   7.950
 6175POPC   C4B24898   9.179  37.808   7.650
 6176POPC   NC324899  28.419   2.030   9.450
 6176POPC   PO424900  28.341   1.942   9.150
 6176POPC   GL124901  28.362   1.968   8.850
 6176POPC   GL224902  28.437   2.114   8.850
 6176POPC   C1A24903  28.412   1.967   8.550
 6176POPC   D2A24904  28.381   2.029   8.250
 6176POPC   C3A24905  28.334   1.953   7.950
 6176POPC   C4A24906  28.356   1.995   7.650
 6176POPC   C1B24907  28.438   2.226   8.550
 6176POPC   C2B24908  28.394   2.254   8.250
 6176POPC   C3B24909  28.405   2.220   7.950
 6176POPC   C4B24910  28.442   2.244   7.650
 6177POPC   NC324911  12.896  20.656   9.450
 6177POPC   PO424912  12.886  20.629   9.150
 6177POPC   GL124913  12.803  20.641   8.850
 6177POPC   GL224914  12.838  20.683   8.850
 6177POPC   C1A24915  12.834  20.565   8.550
 6177POPC   D2A24916  12.834  20.603   8.250
 6177POPC   C3A24917  12.863  20.629   7.950
 6177POPC   C4A24918  12.805  20.627   7.650
 6177POPC   C1B24919  12.711  20.834   8.550
 6177POPC   C2B24920  12.744  20.859   8.250
 6177POPC   C3B24921  12.773  20.861   7.950
 6177POPC   C4B24922  12.796  20.818   7.650
 6178POPC   NC324923  11.276   2.039   9.450
 6178POPC   PO424924  11.350   1.953   9.150
 6178POPC   GL124925  11.316   1.959   8.850
 6178POPC   GL224926  11.442   1.978   8.850
 6178POPC   C1A24927  11.279   2.004   8.550
 6178POPC   D2A24928  11.346   1.941   8.250
 6178POPC   C3A24929  11.311   2.001   7.950
 6178POPC   C4A24930  11.329   1.979   7.650
 6178POPC   C1B24931  11.550   1.974   8.550
 6178POPC   C2B24932  11.524   2.002   8.250
 6178POPC   C3B24933  11.592   2.011   7.950
 6178POPC   C4B24934  11.516   1.926   7.650
 6179POPC   NC324935   5.864  17.515   9.450
 6179POPC   PO424936   5.865  17.501   9.150
 6179POPC   GL124937   5.865  17.462   8.850
 6179POPC   GL224938   5.906  17.411   8.850
 6179POPC   C1A24939   5.910  17.525   8.550
 6179POPC   D2A24940   5.901  17.512   8.250
 6179POPC   C3A24941   5.895  17.518   7.950
 6179POPC   C4A24942   5.894  17.521   7.650
 6179POPC   C1B24943   5.927  17.244   8.550
 6179POPC   C2B24944   5.913  17.247   8.250
 6179POPC   C3B24945   5.934  17.226   7.950
 6179POPC   C4B24946   5.900  17.265   7.650
 6180POPC   NC324947  17.528  25.227   9.450
 6180POPC   PO424948  17.477  25.315   9.150
 6180POPC   GL124949  17.521  25.310   8.850
 6180POPC   GL224950  17.545  25.112   8.850
 6180POPC   C1A24951  17.512  25.235   8.550
 6180POPC   D2A24952  17.505  25.242   8.250
 6180POPC   C3A24953  17.512  25.294   7.950
 6180POPC   C4A24954  17.537  25.276   7.650
 6180POPC   C1B24955  17.522  25.063   8.550
 6180POPC   C2B24956  17.530  25.044   8.250
 6180POPC   C3B24957  17.554  24.996   7.950
 6180POPC   C4B24958  17.548  24.982   7.650
 6181POPC   NC324959  18.270   2.724   9.450
 6181POPC   PO424960  18.322   2.774   9.150
 6181POPC   GL124961  18.330   2.807   8.850
 6181POPC   GL224962  18.170   2.732   8.850
 6181POPC   C1A24963  18.255   2.811   8.550
 6181POPC   D2A24964  18.289   2.800   8.250
 6181POPC   C3A24965  18.243   2.736   7.950
 6181POPC   C4A24966  18.291   2.769   7.650
 6181POPC   C1B24967  18.093   2.663   8.550
 6181POPC   C2B24968  18.035   2.615   8.250
 6181POPC   C3B24969  18.112   2.594   7.950
 6181POPC   C4B24970  18.028   2.622   7.650
 6182POPC   NC324971  29.107  40.026   9.450
 6182POPC   PO424972  29.108  39.971   9.150
 6182POPC   GL124973  29.182  39.958   8.850
 6182POPC   GL224974  29.014  40.031   8.850
 6182POPC   C1A24975  29.164  40.025   8.550
 6182POPC   D2A24976  29.151  39.979   8.250
 6182POPC   C3A24977  29.141  40.049   7.950
 6182POPC   C4A24978  29.129  40.016   7.650
 6182POPC   C1B24979  28.894  40.055   8.550
 6182POPC   C2B24980  28.869  40.063   8.250
 6182POPC   C3B24981  28.864  40.081   7.950
 6182POPC   C4B24982  28.864  40.055   7.650
 6183POPC   NC324983  14.415  30.711   9.450
 6183POPC   PO424984  14.425  30.695   9.150
 6183POPC   GL124985  14.369  30.655   8.850
 6183POPC   GL224986  14.488  30.581   8.850
 6183POPC   C1A24987  14.445  30.706   8.550
 6183POPC   D2A24988  14.363  30.693   8.250
 6183POPC   C3A24989  14.354  30.648   7.950
 6183POPC   C4A24990  14.397  30.735   7.650
 6183POPC   C1B24991  14.489  30.491   8.550
 6183POPC   C2B24992  14.521  30.499   8.250
 6183POPC   C3B24993  14.472  30.485   7.950
 6183POPC   C4B24994  14.481  30.448   7.650
 6184POPC   NC324995  30.648   1.221   9.450
 6184POPC   PO424996  30.711   1.184   9.150
 6184POPC   GL124997  30.719   1.253   8.850
 6184POPC   GL224998  30.632   1.338   8.850
 6184POPC   C1A24999  30.674   1.217   8.550
 6184POPC   D2A25000  30.699   1.165   8.250
 6184POPC   C3A25001  30.694   1.175   7.950
 6184POPC   C4A25002  30.686   1.181   7.650
 6184POPC   C1B25003  30.503   1.351   8.550
 6184POPC   C2B25004  30.492   1.360   8.250
 6184POPC   C3B25005  30.477   1.388   7.950
 6184POPC   C4B25006  30.484   1.426   7.650
 6185POPC   NC325007  29.918  15.915   9.450
 6185POPC   PO425008  29.876  15.984   9.150
 6185POPC   GL125009  29.918  15.936   8.850
 6185POPC   GL225010  29.767  16.015   8.850
 6185POPC   C1A25011  29.952  15.925   8.550
 6185POPC   D2A25012  29.930  15.962   8.250
 6185POPC   C3A25013  29.918  15.986   7.950
 6185POPC   C4A25014  29.874  15.962   7.650
 6185POPC   C1B25015  29.750  16.066   8.550
 6185POPC   C2B25016  29.681  16.078   8.250
 6185POPC   C3B25017  29.682  16.121   7.950
 6185POPC   C4B25018  29.750  16.033   7.650
 6186POPC   NC325019   1.225   9.752   9.450
 6186POPC   PO425020   1.180   9.729   9.150
 6186POPC   GL125021   1.213   9.772   8.850
 6186POPC   GL225022   1.281   9.881   8.850
 6186POPC   C1A25023   1.210   9.756   8.550
 6186POPC   D2A25024   1.250   9.781   8.250
 6186POPC   C3A25025   1.261   9.714   7.950
 6186POPC   C4A25026   1.217   9.711   7.650
 6186POPC   C1B25027   1.358   9.945   8.550
 6186POPC   C2B25028   1.353  10.013   8.250
 6186POPC   C3B25029   1.294   9.996   7.950
 6186POPC   C4B25030   1.308   9.948   7.650
 6187POPC   NC325031   2.005   9.016   9.450
 6187POPC   PO425032   1.974   8.969   9.150
 6187POPC   GL125033   1.981   8.986   8.850
 6187POPC   GL225034   1.899   9.015   8.850
 6187POPC   C1A25035   2.007   8.985   8.550
 6187POPC   D2A25036   1.999   8.960   8.250
 6187POPC   C3A25037   1.967   8.992   7.950
 6187POPC   C4A25038   1.948   9.020   7.650
 6187POPC   C1B25039   1.784   9.041   8.550
 6187POPC   C2B25040   1.696   8.960   8.250
 6187POPC   C3B25041   1.761   9.038   7.950
 6187POPC   C4B25042   1.743   8.991   7.650
 6188POPC   NC325043  27.612  39.185   9.450
 6188POPC   PO425044  27.549  39.202   9.150
 6188POPC   GL125045  27.621  39.270   8.850
 6188POPC   GL225046  27.505  39.362   8.850
 6188POPC   C1A25047  27.571  39.241   8.550
 6188POPC   D2A25048  27.568  39.250   8.250
 6188POPC   C3A25049  27.637  39.237   7.950
 6188POPC   C4A25050  27.575  39.269   7.650
 6188POPC   C1B25051  27.372  39.366   8.550
 6188POPC   C2B25052  27.376  39.435   8.250
 6188POPC   C3B25053  27.416  39.369   7.950
 6188POPC   C4B25054  27.434  39.446   7.650
 6189POPC   NC325055  19.815  12.872   9.450
 6189POPC   PO425056  19.816  12.898   9.150
 6189POPC   GL125057  19.801  12.824   8.850
 6189POPC   GL225058  19.916  12.723   8.850
 6189POPC   C1A25059  19.873  12.876   8.550
 6189POPC   D2A25060  19.819  12.805   8.250
 6189POPC   C3A25061  19.852  12.888   7.950
 6189POPC   C4A25062  19.880  12.843   7.650
 6189POPC   C1B25063  20.019  12.636   8.550
 6189POPC   C2B25064  20.040  12.671   8.250
 6189POPC   C3B25065  20.042  12.629   7.950
 6189POPC   C4B25066  19.981  12.643   7.650
 6190POPC   NC325067   9.730   5.130   9.450
 6190POPC   PO425068   9.731   5.045   9.150
 6190POPC   GL125069   9.717   5.051   8.850
 6190POPC   GL225070   9.746   5.183   8.850
 6190POPC   C1A25071   9.750   5.064   8.550
 6190POPC   D2A25072   9.769   5.125   8.250
 6190POPC   C3A25073   9.774   5.086   7.950
 6190POPC   C4A25074   9.731   5.124   7.650
 6190POPC   C1B25075   9.727   5.366   8.550
 6190POPC   C2B25076   9.784   5.326   8.250
 6190POPC   C3B25077   9.793   5.348   7.950
 6190POPC   C4B25078   9.804   5.324   7.650
 6191POPC   NC325079  36.162  19.072   9.450
 6191POPC   PO425080  36.129  19.050   9.150
 6191POPC   GL125081  36.147  19.067   8.850
 6191POPC   GL225082  36.021  18.954   8.850
 6191POPC   C1A25083  36.127  19.098   8.550
 6191POPC   D2A25084  36.079  19.079   8.250
 6191POPC   C3A25085  36.084  19.010   7.950
 6191POPC   C4A25086  36.124  19.057   7.650
 6191POPC   C1B25087  35.974  18.861   8.550
 6191POPC   C2B25088  35.950  18.836   8.250
 6191POPC   C3B25089  35.953  18.837   7.950
 6191POPC   C4B25090  36.018  18.824   7.650
 6192POPC   NC325091  10.475   0.481   9.450
 6192POPC   PO425092  10.550   0.486   9.150
 6192POPC   GL125093  10.535   0.401   8.850
 6192POPC   GL225094  10.526   0.597   8.850
 6192POPC   C1A25095  10.527   0.474   8.550
 6192POPC   D2A25096  10.535   0.482   8.250
 6192POPC   C3A25097  10.516   0.412   7.950
 6192POPC   C4A25098  10.547   0.452   7.650
 6192POPC   C1B25099  10.485   0.699   8.550
 6192POPC   C2B25100  10.534   0.723   8.250
 6192POPC   C3B25101  10.545   0.718   7.950
 6192POPC   C4B25102  10.462   0.734   7.650
 6193POPC   NC325103  12.111   7.428   9.450
 6193POPC   PO425104  12.103   7.388   9.150
 6193POPC   GL125105  12.087   7.421   8.850
 6193POPC   GL225106  12.233   7.369   8.850
 6193POPC   C1A25107  12.104   7.464   8.550
 6193POPC   D2A25108  12.090   7.431   8.250
 6193POPC   C3A25109  12.049   7.402   7.950
 6193POPC   C4A25110  12.065   7.396   7.650
 6193POPC   C1B25111  12.337   7.408   8.550
 6193POPC   C2B25112  12.355   7.359   8.250
 6193POPC   C3B25113  12.355   7.370   7.950
 6193POPC   C4B25114  12.321   7.430   7.650
 6194POPC   NC325115  34.572  36.873   9.450
 6194POPC   PO425116  34.584  36.926   9.150
 6194POPC   GL125117  34.600  36.902   8.850
 6194POPC   GL225118  34.628  36.765   8.850
 6194POPC   C1A25119  34.555  36.949   8.550
 6194POPC   D2A25120  34.624  36.890   8.250
 6194POPC   C3A25121  34.526  36.952   7.950
 6194POPC   C4A25122  34.560  36.927   7.650
 6194POPC   C1B25123  34.636  36.611   8.550
 6194POPC   C2B25124  34.602  36.691   8.250
 6194POPC   C3B25125  34.620  36.632   7.950
 6194POPC   C4B25126  34.618  36.702   7.650
 6195POPC   NC325127  16.756   2.736   9.450
 6195POPC   PO425128  16.688   2.753   9.150
 6195POPC   GL125129  16.733   2.725   8.850
 6195POPC   GL225130  16.656   2.639   8.850
 6195POPC   C1A25131  16.713   2.785   8.550
 6195POPC   D2A25132  16.704   2.770   8.250
 6195POPC   C3A25133  16.682   2.802   7.950
 6195POPC   C4A25134  16.720   2.813   7.650
 6195POPC   C1B25135  16.562   2.573   8.550
 6195POPC   C2B25136  16.561   2.618   8.250
 6195POPC   C3B25137  16.578   2.554   7.950
 6195POPC   C4B25138  16.527   2.583   7.650
 6196POPC   NC325139   2.797  15.166   9.450
 6196POPC   PO425140   2.728  15.213   9.150
 6196POPC   GL125141   2.795  15.146   8.850
 6196POPC   GL225142   2.677  15.061   8.850
 6196POPC   C1A25143   2.794  15.163   8.550
 6196POPC   D2A25144   2.787  15.204   8.250
 6196POPC   C3A25145   2.757  15.224   7.950
 6196POPC   C4A25146   2.784  15.196   7.650
 6196POPC   C1B25147   2.625  14.987   8.550
 6196POPC   C2B25148   2.628  14.963   8.250
 6196POPC   C3B25149   2.647  14.938   7.950
 6196POPC   C4B25150   2.641  14.966   7.650
 6197POPC   NC325151   5.873   8.234   9.450
 6197POPC   PO425152   5.822   8.162   9.150
 6197POPC   GL125153   5.859   8.170   8.850
 6197POPC   GL225154   5.877   8.353   8.850
 6197POPC   C1A25155   5.847   8.174   8.550
 6197POPC   D2A25156   5.827   8.217   8.250
 6197POPC   C3A25157   5.848   8.240   7.950
 6197POPC   C4A25158   5.917   8.209   7.650
 6197POPC   C1B25159   5.933   8.423   8.550
 6197POPC   C2B25160   5.933   8.435   8.250
 6197POPC   C3B25161   5.972   8.483   7.950
 6197POPC   C4B25162   5.904   8.466   7.650
 6198POPC   NC325163  40.741  19.078   9.450
 6198POPC   PO425164  40.803  19.102   9.150
 6198POPC   GL125165  40.776  19.045   8.850
 6198POPC   GL225166  40.719  19.113   8.850
 6198POPC   C1A25167  40.735  19.038   8.550
 6198POPC   D2A25168  40.795  19.047   8.250
 6198POPC   C3A25169  40.813  19.084   7.950
 6198POPC   C4A25170  40.809  19.015   7.650
 6198POPC   C1B25171  40.577  19.178   8.550
 6198POPC   C2B25172  40.566  19.176   8.250
 6198POPC   C3B25173  40.602  19.213   7.950
 6198POPC   C4B25174  40.596  19.226   7.650
 6199POPC   NC325175  33.797   9.770   9.450
 6199POPC   PO425176  33.763   9.744   9.150
 6199POPC   GL125177  33.797   9.726   8.850
 6199POPC   GL225178  33.882   9.691   8.850
 6199POPC   C1A25179  33.756   9.789   8.550
 6199POPC   D2A25180  33.798   9.737   8.250
 6199POPC   C3A25181  33.803   9.793   7.950
 6199POPC   C4A25182  33.757   9.713   7.650
 6199POPC   C1B25183  33.970   9.533   8.550
 6199POPC   C2B25184  33.931   9.506   8.250
 6199POPC   C3B25185  33.947   9.533   7.950
 6199POPC   C4B25186  33.958   9.546   7.650
 6200POPC   NC325187   5.902  34.545   9.450
 6200POPC   PO425188   5.916  34.608   9.150
 6200POPC   GL125189   5.909  34.531   8.850
 6200POPC   GL225190   5.911  34.661   8.850
 6200POPC   C1A25191   5.885  34.601   8.550
 6200POPC   D2A25192   5.886  34.539   8.250
 6200POPC   C3A25193   5.856  34.537   7.950
 6200POPC   C4A25194   5.879  34.621   7.650
 6200POPC   C1B25195   5.994  34.785   8.550
 6200POPC   C2B25196   5.973  34.749   8.250
 6200POPC   C3B25197   5.939  34.834   7.950
 6200POPC   C4B25198   5.953  34.750   7.650
 6201POPC   NC325199  29.942   5.117   9.450
 6201POPC   PO425200  29.920   5.059   9.150
 6201POPC   GL125201  29.872   5.118   8.850
 6201POPC   GL225202  30.033   5.081   8.850
 6201POPC   C1A25203  29.945   5.130   8.550
 6201POPC   D2A25204  29.913   5.131   8.250
 6201POPC   C3A25205  29.941   5.110   7.950
 6201POPC   C4A25206  29.878   5.087   7.650
 6201POPC   C1B25207  30.133   4.964   8.550
 6201POPC   C2B25208  30.149   5.024   8.250
 6201POPC   C3B25209  30.102   5.017   7.950
 6201POPC   C4B25210  30.120   4.935   7.650
 6202POPC   NC325211  19.854  29.908   9.450
 6202POPC   PO425212  19.789  29.938   9.150
 6202POPC   GL125213  19.818  29.965   8.850
 6202POPC   GL225214  19.809  29.801   8.850
 6202POPC   C1A25215  19.792  29.897   8.550
 6202POPC   D2A25216  19.804  29.965   8.250
 6202POPC   C3A25217  19.792  29.969   7.950
 6202POPC   C4A25218  19.785  29.960   7.650
 6202POPC   C1B25219  19.727  29.673   8.550
 6202POPC   C2B25220  19.696  29.729   8.250
 6202POPC   C3B25221  19.664  29.751   7.950
 6202POPC   C4B25222  19.728  29.671   7.650
 6203POPC   NC325223  44.620  25.999   9.450
 6203POPC   PO425224  44.651  26.062   9.150
 6203POPC   GL125225  44.655  26.080   8.850
 6203POPC   GL225226  44.685  26.148   8.850
 6203POPC   C1A25227  44.627  26.072   8.550
 6203POPC   D2A25228  44.707  26.086   8.250
 6203POPC   C3A25229  44.678  26.077   7.950
 6203POPC   C4A25230  44.644  26.002   7.650
 6203POPC   C1B25231  44.718  26.263   8.550
 6203POPC   C2B25232  44.732  26.249   8.250
 6203POPC   C3B25233  44.725  26.322   7.950
 6203POPC   C4B25234  44.749  26.326   7.650
 6204POPC   NC325235   4.362   1.999   9.450
 6204POPC   PO425236   4.311   1.957   9.150
 6204POPC   GL125237   4.329   1.949   8.850
 6204POPC   GL225238   4.414   1.901   8.850
 6204POPC   C1A25239   4.305   2.016   8.550
 6204POPC   D2A25240   4.357   1.962   8.250
 6204POPC   C3A25241   4.365   1.986   7.950
 6204POPC   C4A25242   4.328   1.980   7.650
 6204POPC   C1B25243   4.481   1.829   8.550
 6204POPC   C2B25244   4.550   1.800   8.250
 6204POPC   C3B25245   4.463   1.790   7.950
 6204POPC   C4B25246   4.483   1.865   7.650
 6205POPC   NC325247  30.682   5.890   9.450
 6205POPC   PO425248  30.719   5.842   9.150
 6205POPC   GL125249  30.661   5.859   8.850
 6205POPC   GL225250  30.829   5.939   8.850
 6205POPC   C1A25251  30.683   5.862   8.550
 6205POPC   D2A25252  30.710   5.881   8.250
 6205POPC   C3A25253  30.694   5.852   7.950
 6205POPC   C4A25254  30.706   5.891   7.650
 6205POPC   C1B25255  30.862   6.051   8.550
 6205POPC   C2B25256  30.915   6.014   8.250
 6205POPC   C3B25257  30.949   6.014   7.950
 6205POPC   C4B25258  30.914   6.033   7.650
 6206POPC   NC325259   7.462  25.231   9.450
 6206POPC   PO425260   7.411  25.245   9.150
 6206POPC   GL125261   7.407  25.297   8.850
 6206POPC   GL225262   7.274  25.306   8.850
 6206POPC   C1A25263   7.422  25.309   8.550
 6206POPC   D2A25264   7.452  25.226   8.250
 6206POPC   C3A25265   7.445  25.243   7.950
 6206POPC   C4A25266   7.373  25.282   7.650
 6206POPC   C1B25267   7.198  25.273   8.550
 6206POPC   C2B25268   7.211  25.219   8.250
 6206POPC   C3B25269   7.209  25.229   7.950
 6206POPC   C4B25270   7.148  25.286   7.650
 6207POPC   NC325271  29.887  42.305   9.450
 6207POPC   PO425272  29.964  42.355   9.150
 6207POPC   GL125273  29.904  42.313   8.850
 6207POPC   GL225274  29.820  42.391   8.850
 6207POPC   C1A25275  29.915  42.312   8.550
 6207POPC   D2A25276  29.899  42.297   8.250
 6207POPC   C3A25277  29.938  42.370   7.950
 6207POPC   C4A25278  29.929  42.286   7.650
 6207POPC   C1B25279  29.686  42.310   8.550
 6207POPC   C2B25280  29.704  42.377   8.250
 6207POPC   C3B25281  29.684  42.366   7.950
 6207POPC   C4B25282  29.638  42.341   7.650
 6208POPC   NC325283  36.141  21.355   9.450
 6208POPC   PO425284  36.079  21.351   9.150
 6208POPC   GL125285  36.134  21.415   8.850
 6208POPC   GL225286  36.088  21.311   8.850
 6208POPC   C1A25287  36.145  21.421   8.550
 6208POPC   D2A25288  36.078  21.360   8.250
 6208POPC   C3A25289  36.150  21.350   7.950
 6208POPC   C4A25290  36.135  21.422   7.650
 6208POPC   C1B25291  35.976  21.177   8.550
 6208POPC   C2B25292  36.023  21.155   8.250
 6208POPC   C3B25293  35.991  21.199   7.950
 6208POPC   C4B25294  35.988  21.189   7.650
 6209POPC   NC325295  17.484   8.928   9.450
 6209POPC   PO425296  17.488   8.988   9.150
 6209POPC   GL125297  17.514   9.018   8.850
 6209POPC   GL225298  17.518   8.861   8.850
 6209POPC   C1A25299  17.531   9.019   8.550
 6209POPC   D2A25300  17.514   8.974   8.250
 6209POPC   C3A25301  17.499   8.957   7.950
 6209POPC   C4A25302  17.486   8.940   7.650
 6209POPC   C1B25303  17.510   8.735   8.550
 6209POPC   C2B25304  17.557   8.682   8.250
 6209POPC   C3B25305  17.577   8.752   7.950
 6209POPC   C4B25306  17.490   8.739   7.650
 6210POPC   NC325307   9.006  29.915   9.450
 6210POPC   PO425308   9.022  29.954   9.150
 6210POPC   GL125309   9.008  29.910   8.850
 6210POPC   GL225310   9.062  29.935   8.850
 6210POPC   C1A25311   8.925  29.944   8.550
 6210POPC   D2A25312   8.963  29.968   8.250
 6210POPC   C3A25313   8.976  29.920   7.950
 6210POPC   C4A25314   8.934  29.955   7.650
 6210POPC   C1B25315   9.209  29.992   8.550
 6210POPC   C2B25316   9.173  29.980   8.250
 6210POPC   C3B25317   9.182  29.974   7.950
 6210POPC   C4B25318   9.253  29.966   7.650
 6211POPC   NC325319   8.182   0.451   9.450
 6211POPC   PO425320   8.173   0.464   9.150
 6211POPC   GL125321   8.159   0.471   8.850
 6211POPC   GL225322   8.085   0.393   8.850
 6211POPC   C1A25323   8.216   0.445   8.550
 6211POPC   D2A25324   8.177   0.469   8.250
 6211POPC   C3A25325   8.245   0.449   7.950
 6211POPC   C4A25326   8.194   0.426   7.650
 6211POPC   C1B25327   8.042   0.231   8.550
 6211POPC   C2B25328   8.058   0.221   8.250
 6211POPC   C3B25329   8.022   0.240   7.950
 6211POPC   C4B25330   8.064   0.294   7.650
 6212POPC   NC325331  26.797   0.423   9.450
 6212POPC   PO425332  26.842   0.450   9.150
 6212POPC   GL125333  26.867   0.468   8.850
 6212POPC   GL225334  26.813   0.518   8.850
 6212POPC   C1A25335  26.832   0.465   8.550
 6212POPC   D2A25336  26.783   0.468   8.250
 6212POPC   C3A25337  26.796   0.420   7.950
 6212POPC   C4A25338  26.830   0.390   7.650
 6212POPC   C1B25339  26.917   0.720   8.550
 6212POPC   C2B25340  26.927   0.645   8.250
 6212POPC   C3B25341  26.864   0.712   7.950
 6212POPC   C4B25342  26.866   0.648   7.650
 6213POPC   NC325343  29.952   4.308   9.450
 6213POPC   PO425344  29.906   4.282   9.150
 6213POPC   GL125345  29.966   4.343   8.850
 6213POPC   GL225346  30.002   4.461   8.850
 6213POPC   C1A25347  29.892   4.336   8.550
 6213POPC   D2A25348  29.888   4.334   8.250
 6213POPC   C3A25349  29.952   4.286   7.950
 6213POPC   C4A25350  29.891   4.322   7.650
 6213POPC   C1B25351  30.026   4.552   8.550
 6213POPC   C2B25352  30.036   4.589   8.250
 6213POPC   C3B25353  30.019   4.501   7.950
 6213POPC   C4B25354  29.998   4.593   7.650
 6214POPC   NC325355  16.734  29.930   9.450
 6214POPC   PO425356  16.746  29.881   9.150
 6214POPC   GL125357  16.712  29.965   8.850
 6214POPC   GL225358  16.644  29.899   8.850
 6214POPC   C1A25359  16.741  29.966   8.550
 6214POPC   D2A25360  16.764  29.937   8.250
 6214POPC   C3A25361  16.683  29.916   7.950
 6214POPC   C4A25362  16.746  29.874   7.650
 6214POPC   C1B25363  16.449  29.870   8.550
 6214POPC   C2B25364  16.475  29.952   8.250
 6214POPC   C3B25365  16.458  29.954   7.950
 6214POPC   C4B25366  16.501  29.930   7.650
 6215POPC   NC325367  34.584  35.375   9.450
 6215POPC   PO425368  34.543  35.308   9.150
 6215POPC   GL125369  34.593  35.351   8.850
 6215POPC   GL225370  34.471  35.379   8.850
 6215POPC   C1A25371  34.614  35.349   8.550
 6215POPC   D2A25372  34.554  35.337   8.250
 6215POPC   C3A25373  34.569  35.323   7.950
 6215POPC   C4A25374  34.609  35.366   7.650
 6215POPC   C1B25375  34.312  35.513   8.550
 6215POPC   C2B25376  34.384  35.471   8.250
 6215POPC   C3B25377  34.349  35.454   7.950
 6215POPC   C4B25378  34.371  35.502   7.650
 6216POPC   NC325379  12.105  29.113   9.450
 6216POPC   PO425380  12.042  29.189   9.150
 6216POPC   GL125381  12.115  29.162   8.850
 6216POPC   GL225382  12.230  29.148   8.850
 6216POPC   C1A25383  12.097  29.161   8.550
 6216POPC   D2A25384  12.062  29.160   8.250
 6216POPC   C3A25385  12.097  29.178   7.950
 6216POPC   C4A25386  12.108  29.135   7.650
 6216POPC   C1B25387  12.328  29.265   8.550
 6216POPC   C2B25388  12.327  29.256   8.250
 6216POPC   C3B25389  12.296  29.234   7.950
 6216POPC   C4B25390  12.330  29.196   7.650
 6217POPC   NC325391  15.151  20.570   9.450
 6217POPC   PO425392  15.132  20.566   9.150
 6217POPC   GL125393  15.191  20.635   8.850
 6217POPC   GL225394  15.301  20.527   8.850
 6217POPC   C1A25395  15.191  20.628   8.550
 6217POPC   D2A25396  15.181  20.642   8.250
 6217POPC   C3A25397  15.140  20.647   7.950
 6217POPC   C4A25398  15.192  20.613   7.650
 6217POPC   C1B25399  15.430  20.532   8.550
 6217POPC   C2B25400  15.430  20.516   8.250
 6217POPC   C3B25401  15.359  20.492   7.950
 6217POPC   C4B25402  15.410  20.552   7.650
 6218POPC   NC325403   4.305  38.482   9.450
 6218POPC   PO425404   4.315  38.493   9.150
 6218POPC   GL125405   4.360  38.500   8.850
 6218POPC   GL225406   4.391  38.570   8.850
 6218POPC   C1A25407   4.313  38.465   8.550
 6218POPC   D2A25408   4.275  38.411   8.250
 6218POPC   C3A25409   4.325  38.427   7.950
 6218POPC   C4A25410   4.293  38.461   7.650
 6218POPC   C1B25411   4.409  38.632   8.550
 6218POPC   C2B25412   4.380  38.719   8.250
 6218POPC   C3B25413   4.419  38.719   7.950
 6218POPC   C4B25414   4.442  38.723   7.650
 6219POPC   NC325415  26.049   0.458   9.450
 6219POPC   PO425416  26.090   0.436   9.150
 6219POPC   GL125417  26.084   0.480   8.850
 6219POPC   GL225418  25.991   0.344   8.850
 6219POPC   C1A25419  26.045   0.391   8.550
 6219POPC   D2A25420  26.022   0.467   8.250
 6219POPC   C3A25421  26.037   0.443   7.950
 6219POPC   C4A25422  25.998   0.472   7.650
 6219POPC   C1B25423  25.885   0.213   8.550
 6219POPC   C2B25424  25.953   0.258   8.250
 6219POPC   C3B25425  25.956   0.188   7.950
 6219POPC   C4B25426  25.945   0.232   7.650
 6220POPC   NC325427  31.448  38.473   9.450
 6220POPC   PO425428  31.517  38.502   9.150
 6220POPC   GL125429  31.483  38.473   8.850
 6220POPC   GL225430  31.421  38.575   8.850
 6220POPC   C1A25431  31.508  38.440   8.550
 6220POPC   D2A25432  31.451  38.464   8.250
 6220POPC   C3A25433  31.431  38.497   7.950
 6220POPC   C4A25434  31.478  38.414   7.650
 6220POPC   C1B25435  31.311  38.642   8.550
 6220POPC   C2B25436  31.368  38.703   8.250
 6220POPC   C3B25437  31.312  38.689   7.950
 6220POPC   C4B25438  31.296  38.704   7.650
 6221POPC   NC325439   3.563  38.496   9.450
 6221POPC   PO425440   3.493  38.498   9.150
 6221POPC   GL125441   3.507  38.437   8.850
 6221POPC   GL225442   3.385  38.510   8.850
 6221POPC   C1A25443   3.565  38.434   8.550
 6221POPC   D2A25444   3.510  38.486   8.250
 6221POPC   C3A25445   3.591  38.409   7.950
 6221POPC   C4A25446   3.533  38.437   7.650
 6221POPC   C1B25447   3.267  38.548   8.550
 6221POPC   C2B25448   3.270  38.555   8.250
 6221POPC   C3B25449   3.313  38.495   7.950
 6221POPC   C4B25450   3.336  38.495   7.650
 6222POPC   NC325451  28.401  36.168   9.450
 6222POPC   PO425452  28.345  36.140   9.150
 6222POPC   GL125453  28.345  36.158   8.850
 6222POPC   GL225454  28.405  36.278   8.850
 6222POPC   C1A25455  28.361  36.157   8.550
 6222POPC   D2A25456  28.360  36.135   8.250
 6222POPC   C3A25457  28.339  36.144   7.950
 6222POPC   C4A25458  28.366  36.117   7.650
 6222POPC   C1B25459  28.512  36.339   8.550
 6222POPC   C2B25460  28.489  36.341   8.250
 6222POPC   C3B25461  28.478  36.366   7.950
 6222POPC   C4B25462  28.469  36.281   7.650
 6223POPC   NC325463  14.376  32.983   9.450
 6223POPC   PO425464  14.388  33.041   9.150
 6223POPC   GL125465  14.433  33.037   8.850
 6223POPC   GL225466  14.374  32.891   8.850
 6223POPC   C1A25467  14.439  33.043   8.550
 6223POPC   D2A25468  14.422  33.036   8.250
 6223POPC   C3A25469  14.408  33.030   7.950
 6223POPC   C4A25470  14.398  33.036   7.650
 6223POPC   C1B25471  14.442  32.741   8.550
 6223POPC   C2B25472  14.436  32.755   8.250
 6223POPC   C3B25473  14.456  32.742   7.950
 6223POPC   C4B25474  14.431  32.746   7.650
 6224POPC   NC325475   8.155  28.401   9.450
 6224POPC   PO425476   8.216  28.397   9.150
 6224POPC   GL125477   8.237  28.326   8.850
 6224POPC   GL225478   8.144  28.484   8.850
 6224POPC   C1A25479   8.164  28.382   8.550
 6224POPC   D2A25480   8.182  28.401   8.250
 6224POPC   C3A25481   8.222  28.352   7.950
 6224POPC   C4A25482   8.191  28.402   7.650
 6224POPC   C1B25483   8.162  28.580   8.550
 6224POPC   C2B25484   8.161  28.577   8.250
 6224POPC   C3B25485   8.156  28.658   7.950
 6224POPC   C4B25486   8.134  28.624   7.650
 6225POPC   NC325487   0.474  12.063   9.450
 6225POPC   PO425488   0.453  12.037   9.150
 6225POPC   GL125489   0.416  12.094   8.850
 6225POPC   GL225490   0.433  12.003   8.850
 6225POPC   C1A25491   0.451  12.056   8.550
 6225POPC   D2A25492   0.397  12.105   8.250
 6225POPC   C3A25493   0.466  12.096   7.950
 6225POPC   C4A25494   0.468  12.084   7.650
 6225POPC   C1B25495   0.364  11.788   8.550
 6225POPC   C2B25496   0.342  11.834   8.250
 6225POPC   C3B25497   0.372  11.791   7.950
 6225POPC   C4B25498   0.338  11.822   7.650
 6226POPC   NC325499  36.115  39.190   9.450
 6226POPC   PO425500  36.176  39.197   9.150
 6226POPC   GL125501  36.166  39.184   8.850
 6226POPC   GL225502  36.083  39.320   8.850
 6226POPC   C1A25503  36.084  39.185   8.550
 6226POPC   D2A25504  36.163  39.274   8.250
 6226POPC   C3A25505  36.095  39.236   7.950
 6226POPC   C4A25506  36.123  39.264   7.650
 6226POPC   C1B25507  36.077  39.438   8.550
 6226POPC   C2B25508  36.091  39.503   8.250
 6226POPC   C3B25509  36.080  39.443   7.950
 6226POPC   C4B25510  36.125  39.437   7.650
 6227POPC   NC325511  34.572  33.753   9.450
 6227POPC   PO425512  34.601  33.813   9.150
 6227POPC   GL125513  34.555  33.829   8.850
 6227POPC   GL225514  34.423  33.845   8.850
 6227POPC   C1A25515  34.608  33.798   8.550
 6227POPC   D2A25516  34.554  33.842   8.250
 6227POPC   C3A25517  34.626  33.805   7.950
 6227POPC   C4A25518  34.559  33.816   7.650
 6227POPC   C1B25519  34.348  33.904   8.550
 6227POPC   C2B25520  34.379  33.905   8.250
 6227POPC   C3B25521  34.310  33.909   7.950
 6227POPC   C4B25522  34.301  33.881   7.650
 6228POPC   NC325523   5.134  17.546   9.450
 6228POPC   PO425524   5.062  17.482   9.150
 6228POPC   GL125525   5.117  17.467   8.850
 6228POPC   GL225526   4.987  17.527   8.850
 6228POPC   C1A25527   5.092  17.487   8.550
 6228POPC   D2A25528   5.066  17.526   8.250
 6228POPC   C3A25529   5.086  17.512   7.950
 6228POPC   C4A25530   5.133  17.550   7.650
 6228POPC   C1B25531   4.878  17.462   8.550
 6228POPC   C2B25532   4.809  17.486   8.250
 6228POPC   C3B25533   4.853  17.468   7.950
 6228POPC   C4B25534   4.823  17.430   7.650
 6229POPC   NC325535  29.932  11.311   9.450
 6229POPC   PO425536  29.884  11.276   9.150
 6229POPC   GL125537  29.923  11.260   8.850
 6229POPC   GL225538  29.807  11.298   8.850
 6229POPC   C1A25539  29.875  11.280   8.550
 6229POPC   D2A25540  29.965  11.308   8.250
 6229POPC   C3A25541  29.909  11.268   7.950
 6229POPC   C4A25542  29.883  11.256   7.650
 6229POPC   C1B25543  29.706  11.334   8.550
 6229POPC   C2B25544  29.686  11.368   8.250
 6229POPC   C3B25545  29.734  11.373   7.950
 6229POPC   C4B25546  29.645  11.399   7.650
 6230POPC   NC325547  34.532  19.825   9.450
 6230POPC   PO425548  34.615  19.881   9.150
 6230POPC   GL125549  34.626  19.832   8.850
 6230POPC   GL225550  34.567  19.962   8.850
 6230POPC   C1A25551  34.622  19.884   8.550
 6230POPC   D2A25552  34.618  19.880   8.250
 6230POPC   C3A25553  34.581  19.852   7.950
 6230POPC   C4A25554  34.560  19.814   7.650
 6230POPC   C1B25555  34.645  20.098   8.550
 6230POPC   C2B25556  34.597  20.115   8.250
 6230POPC   C3B25557  34.639  20.121   7.950
 6230POPC   C4B25558  34.661  20.036   7.650
 6231POPC   NC325559  22.892  36.116   9.450
 6231POPC   PO425560  22.895  36.171   9.150
 6231POPC   GL125561  22.892  36.133   8.850
 6231POPC   GL225562  22.810  36.087   8.850
 6231POPC   C1A25563  22.955  36.105   8.550
 6231POPC   D2A25564  22.983  36.126   8.250
 6231POPC   C3A25565  22.897  36.090   7.950
 6231POPC   C4A25566  22.899  36.091   7.650
 6231POPC   C1B25567  22.665  36.084   8.550
 6231POPC   C2B25568  22.733  36.077   8.250
 6231POPC   C3B25569  22.701  36.152   7.950
 6231POPC   C4B25570  22.731  36.140   7.650
 6232POPC   NC325571  40.743  16.747   9.450
 6232POPC   PO425572  40.765  16.696   9.150
 6232POPC   GL125573  40.765  16.769   8.850
 6232POPC   GL225574  40.746  16.810   8.850
 6232POPC   C1A25575  40.746  16.693   8.550
 6232POPC   D2A25576  40.829  16.766   8.250
 6232POPC   C3A25577  40.810  16.763   7.950
 6232POPC   C4A25578  40.779  16.716   7.650
 6232POPC   C1B25579  40.726  16.986   8.550
 6232POPC   C2B25580  40.703  16.935   8.250
 6232POPC   C3B25581  40.687  17.000   7.950
 6232POPC   C4B25582  40.715  17.014   7.650
 6233POPC   NC325583  23.735  43.897   9.450
 6233POPC   PO425584  23.698  43.907   9.150
 6233POPC   GL125585  23.721  43.885   8.850
 6233POPC   GL225586  23.636  43.795   8.850
 6233POPC   C1A25587  23.742  43.875   8.550
 6233POPC   D2A25588  23.732  43.861   8.250
 6233POPC   C3A25589  23.721  43.928   7.950
 6233POPC   C4A25590  23.729  43.851   7.650
 6233POPC   C1B25591  23.678  43.643   8.550
 6233POPC   C2B25592  23.604  43.657   8.250
 6233POPC   C3B25593  23.632  43.677   7.950
 6233POPC   C4B25594  23.620  43.634   7.650
 6234POPC   NC325595  32.999   7.372   9.450
 6234POPC   PO425596  33.008   7.461   9.150
 6234POPC   GL125597  33.020   7.402   8.850
 6234POPC   GL225598  33.139   7.343   8.850
 6234POPC   C1A25599  33.003   7.470   8.550
 6234POPC   D2A25600  33.043   7.450   8.250
 6234POPC   C3A25601  33.026   7.436   7.950
 6234POPC   C4A25602  33.054   7.391   7.650
 6234POPC   C1B25603  33.249   7.271   8.550
 6234POPC   C2B25604  33.270   7.254   8.250
 6234POPC   C3B25605  33.213   7.244   7.950
 6234POPC   C4B25606  33.236   7.247   7.650
 6235POPC   NC325607  26.073  35.317   9.450
 6235POPC   PO425608  26.065  35.359   9.150
 6235POPC   GL125609  26.032  35.384   8.850
 6235POPC   GL225610  25.901  35.345   8.850
 6235POPC   C1A25611  26.017  35.304   8.550
 6235POPC   D2A25612  26.088  35.335   8.250
 6235POPC   C3A25613  26.015  35.346   7.950
 6235POPC   C4A25614  26.038  35.331   7.650
 6235POPC   C1B25615  25.764  35.272   8.550
 6235POPC   C2B25616  25.848  35.244   8.250
 6235POPC   C3B25617  25.828  35.274   7.950
 6235POPC   C4B25618  25.840  35.211   7.650
 6236POPC   NC325619  14.386  21.369   9.450
 6236POPC   PO425620  14.438  21.391   9.150
 6236POPC   GL125621  14.408  21.400   8.850
 6236POPC   GL225622  14.346  21.266   8.850
 6236POPC   C1A25623  14.453  21.423   8.550
 6236POPC   D2A25624  14.383  21.377   8.250
 6236POPC   C3A25625  14.446  21.363   7.950
 6236POPC   C4A25626  14.382  21.376   7.650
 6236POPC   C1B25627  14.224  21.196   8.550
 6236POPC   C2B25628  14.181  21.162   8.250
 6236POPC   C3B25629  14.194  21.197   7.950
 6236POPC   C4B25630  14.210  21.206   7.650
 6237POPC   NC325631  33.751  41.576   9.450
 6237POPC   PO425632  33.835  41.607   9.150
 6237POPC   GL125633  33.850  41.550   8.850
 6237POPC   GL225634  33.635  41.547   8.850
 6237POPC   C1A25635  33.775  41.521   8.550
 6237POPC   D2A25636  33.801  41.525   8.250
 6237POPC   C3A25637  33.830  41.606   7.950
 6237POPC   C4A25638  33.789  41.573   7.650
 6237POPC   C1B25639  33.595  41.484   8.550
 6237POPC   C2B25640  33.551  41.463   8.250
 6237POPC   C3B25641  33.533  41.534   7.950
 6237POPC   C4B25642  33.606  41.497   7.650
 6238POPC   NC325643   3.529   2.812   9.450
 6238POPC   PO425644   3.573   2.722   9.150
 6238POPC   GL125645   3.564   2.732   8.850
 6238POPC   GL225646   3.423   2.676   8.850
 6238POPC   C1A25647   3.587   2.812   8.550
 6238POPC   D2A25648   3.575   2.762   8.250
 6238POPC   C3A25649   3.591   2.769   7.950
 6238POPC   C4A25650   3.499   2.807   7.650
 6238POPC   C1B25651   3.336   2.710   8.550
 6238POPC   C2B25652   3.304   2.643   8.250
 6238POPC   C3B25653   3.308   2.712   7.950
 6238POPC   C4B25654   3.301   2.636   7.650
 6239POPC   NC325655   7.451  19.052   9.450
 6239POPC   PO425656   7.423  19.036   9.150
 6239POPC   GL125657   7.383  19.059   8.850
 6239POPC   GL225658   7.497  19.122   8.850
 6239POPC   C1A25659   7.379  19.083   8.550
 6239POPC   D2A25660   7.451  19.080   8.250
 6239POPC   C3A25661   7.411  19.106   7.950
 6239POPC   C4A25662   7.462  19.030   7.650
 6239POPC   C1B25663   7.628  19.072   8.550
 6239POPC   C2B25664   7.666  19.094   8.250
 6239POPC   C3B25665   7.695  19.140   7.950
 6239POPC   C4B25666   7.623  19.149   7.650
 6240POPC   NC325667  13.613  14.448   9.450
 6240POPC   PO425668  13.652  14.394   9.150
 6240POPC   GL125669  13.604  14.398   8.850
 6240POPC   GL225670  13.480  14.445   8.850
 6240POPC   C1A25671  13.644  14.400   8.550
 6240POPC   D2A25672  13.613  14.450   8.250
 6240POPC   C3A25673  13.651  14.402   7.950
 6240POPC   C4A25674  13.646  14.419   7.650
 6240POPC   C1B25675  13.432  14.478   8.550
 6240POPC   C2B25676  13.397  14.521   8.250
 6240POPC   C3B25677  13.411  14.458   7.950
 6240POPC   C4B25678  13.406  14.516   7.650
 6241POPC   NC325679  19.028   0.473   9.450
 6241POPC   PO425680  19.097   0.399   9.150
 6241POPC   GL125681  19.059   0.472   8.850
 6241POPC   GL225682  19.183   0.456   8.850
 6241POPC   C1A25683  19.055   0.483   8.550
 6241POPC   D2A25684  19.044   0.460   8.250
 6241POPC   C3A25685  19.070   0.439   7.950
 6241POPC   C4A25686  19.084   0.485   7.650
 6241POPC   C1B25687  19.263   0.393   8.550
 6241POPC   C2B25688  19.339   0.337   8.250
 6241POPC   C3B25689  19.309   0.393   7.950
 6241POPC   C4B25690  19.272   0.391   7.650
 6242POPC   NC325691  10.543  32.209   9.450
 6242POPC   PO425692  10.541  32.230   9.150
 6242POPC   GL125693  10.545  32.231   8.850
 6242POPC   GL225694  10.657  32.155   8.850
 6242POPC   C1A25695  10.534  32.286   8.550
 6242POPC   D2A25696  10.555  32.297   8.250
 6242POPC   C3A25697  10.500  32.254   7.950
 6242POPC   C4A25698  10.551  32.297   7.650
 6242POPC   C1B25699  10.731  32.053   8.550
 6242POPC   C2B25700  10.733  32.048   8.250
 6242POPC   C3B25701  10.670  32.037   7.950
 6242POPC   C4B25702  10.708  32.060   7.650
 6243POPC   NC325703  40.812  15.956   9.450
 6243POPC   PO425704  40.810  15.988   9.150
 6243POPC   GL125705  40.800  15.955   8.850
 6243POPC   GL225706  40.756  15.841   8.850
 6243POPC   C1A25707  40.822  16.003   8.550
 6243POPC   D2A25708  40.734  15.994   8.250
 6243POPC   C3A25709  40.806  16.004   7.950
 6243POPC   C4A25710  40.775  15.988   7.650
 6243POPC   C1B25711  40.713  15.770   8.550
 6243POPC   C2B25712  40.660  15.672   8.250
 6243POPC   C3B25713  40.685  15.707   7.950
 6243POPC   C4B25714  40.719  15.701   7.650
 6244POPC   NC325715  44.697  25.247   9.450
 6244POPC   PO425716  44.692  25.229   9.150
 6244POPC   GL125717  44.655  25.276   8.850
 6244POPC   GL225718  44.566  25.194   8.850
 6244POPC   C1A25719  44.649  25.261   8.550
 6244POPC   D2A25720  44.622  25.275   8.250
 6244POPC   C3A25721  44.616  25.297   7.950
 6244POPC   C4A25722  44.616  25.297   7.650
 6244POPC   C1B25723  44.436  25.094   8.550
 6244POPC   C2B25724  44.436  25.169   8.250
 6244POPC   C3B25725  44.444  25.115   7.950
 6244POPC   C4B25726  44.487  25.126   7.650
 6245POPC   NC325727  22.947  18.287   9.450
 6245POPC   PO425728  22.973  18.322   9.150
 6245POPC   GL125729  22.954  18.253   8.850
 6245POPC   GL225730  23.033  18.197   8.850
 6245POPC   C1A25731  22.929  18.325   8.550
 6245POPC   D2A25732  22.906  18.240   8.250
 6245POPC   C3A25733  22.929  18.292   7.950
 6245POPC   C4A25734  22.971  18.276   7.650
 6245POPC   C1B25735  23.045  18.060   8.550
 6245POPC   C2B25736  23.070  18.086   8.250
 6245POPC   C3B25737  23.093  18.101   7.950
 6245POPC   C4B25738  23.114  18.038   7.650
 6246POPC   NC325739  37.662  39.244   9.450
 6246POPC   PO425740  37.698  39.232   9.150
 6246POPC   GL125741  37.700  39.272   8.850
 6246POPC   GL225742  37.597  39.299   8.850
 6246POPC   C1A25743  37.639  39.228   8.550
 6246POPC   D2A25744  37.652  39.254   8.250
 6246POPC   C3A25745  37.664  39.240   7.950
 6246POPC   C4A25746  37.709  39.204   7.650
 6246POPC   C1B25747  37.506  39.430   8.550
 6246POPC   C2B25748  37.584  39.484   8.250
 6246POPC   C3B25749  37.524  39.401   7.950
 6246POPC   C4B25750  37.552  39.453   7.650
 6247POPC   NC325751  36.922  31.515   9.450
 6247POPC   PO425752  36.934  31.478   9.150
 6247POPC   GL125753  36.857  31.444   8.850
 6247POPC   GL225754  36.895  31.540   8.850
 6247POPC   C1A25755  36.883  31.494   8.550
 6247POPC   D2A25756  36.953  31.462   8.250
 6247POPC   C3A25757  36.875  31.481   7.950
 6247POPC   C4A25758  36.864  31.432   7.650
 6247POPC   C1B25759  36.768  31.670   8.550
 6247POPC   C2B25760  36.849  31.658   8.250
 6247POPC   C3B25761  36.768  31.672   7.950
 6247POPC   C4B25762  36.755  31.746   7.650
 6248POPC   NC325763  25.270  18.243   9.450
 6248POPC   PO425764  25.249  18.264   9.150
 6248POPC   GL125765  25.257  18.245   8.850
 6248POPC   GL225766  25.411  18.252   8.850
 6248POPC   C1A25767  25.221  18.308   8.550
 6248POPC   D2A25768  25.241  18.284   8.250
 6248POPC   C3A25769  25.267  18.264   7.950
 6248POPC   C4A25770  25.315  18.322   7.650
 6248POPC   C1B25771  25.559  18.210   8.550
 6248POPC   C2B25772  25.540  18.271   8.250
 6248POPC   C3B25773  25.466  18.209   7.950
 6248POPC   C4B25774  25.549  18.239   7.650
 6249POPC   NC325775  13.642   8.972   9.450
 6249POPC   PO425776  13.578   8.935   9.150
 6249POPC   GL125777  13.644   8.936   8.850
 6249POPC   GL225778  13.546   9.061   8.850
 6249POPC   C1A25779  13.644   9.007   8.550
 6249POPC   D2A25780  13.658   8.947   8.250
 6249POPC   C3A25781  13.651   8.973   7.950
 6249POPC   C4A25782  13.662   9.015   7.650
 6249POPC   C1B25783  13.420   9.131   8.550
 6249POPC   C2B25784  13.385   9.149   8.250
 6249POPC   C3B25785  13.390   9.106   7.950
 6249POPC   C4B25786  13.411   9.073   7.650
 6250POPC   NC325787  32.208  21.367   9.450
 6250POPC   PO425788  32.215  21.415   9.150
 6250POPC   GL125789  32.230  21.355   8.850
 6250POPC   GL225790  32.359  21.407   8.850
 6250POPC   C1A25791  32.277  21.339   8.550
 6250POPC   D2A25792  32.249  21.416   8.250
 6250POPC   C3A25793  32.291  21.390   7.950
 6250POPC   C4A25794  32.199  21.365   7.650
 6250POPC   C1B25795  32.457  21.540   8.550
 6250POPC   C2B25796  32.501  21.529   8.250
 6250POPC   C3B25797  32.427  21.516   7.950
 6250POPC   C4B25798  32.469  21.497   7.650
 6251POPC   NC325799  33.027  44.689   9.450
 6251POPC   PO425800  33.063  44.646   9.150
 6251POPC   GL125801  32.995  44.631   8.850
 6251POPC   GL225802  33.093  44.728   8.850
 6251POPC   C1A25803  33.069  44.697   8.550
 6251POPC   D2A25804  33.039  44.639   8.250
 6251POPC   C3A25805  33.048  44.673   7.950
 6251POPC   C4A25806  33.052  44.640   7.650
 6251POPC   C1B25807  33.219  44.890   8.550
 6251POPC   C2B25808  33.175  44.820   8.250
 6251POPC   C3B25809  33.183  44.830   7.950
 6251POPC   C4B25810  33.199  44.824   7.650
 6252POPC   NC325811   2.002  34.601   9.450
 6252POPC   PO425812   2.021  34.559   9.150
 6252POPC   GL125813   2.003  34.546   8.850
 6252POPC   GL225814   2.129  34.475   8.850
 6252POPC   C1A25815   2.002  34.542   8.550
 6252POPC   D2A25816   2.026  34.619   8.250
 6252POPC   C3A25817   2.018  34.568   7.950
 6252POPC   C4A25818   2.032  34.546   7.650
 6252POPC   C1B25819   2.199  34.408   8.550
 6252POPC   C2B25820   2.176  34.475   8.250
 6252POPC   C3B25821   2.234  34.468   7.950
 6252POPC   C4B25822   2.162  34.434   7.650
 6253POPC   NC325823  35.385  32.227   9.450
 6253POPC   PO425824  35.389  32.239   9.150
 6253POPC   GL125825  35.355  32.222   8.850
 6253POPC   GL225826  35.241  32.104   8.850
 6253POPC   C1A25827  35.304  32.242   8.550
 6253POPC   D2A25828  35.310  32.258   8.250
 6253POPC   C3A25829  35.373  32.264   7.950
 6253POPC   C4A25830  35.304  32.283   7.650
 6253POPC   C1B25831  35.252  32.014   8.550
 6253POPC   C2B25832  35.212  32.085   8.250
 6253POPC   C3B25833  35.256  32.089   7.950
 6253POPC   C4B25834  35.258  32.055   7.650
 6254POPC   NC325835  23.695   5.052   9.450
 6254POPC   PO425836  23.764   5.067   9.150
 6254POPC   GL125837  23.746   5.129   8.850
 6254POPC   GL225838  23.839   5.144   8.850
 6254POPC   C1A25839  23.720   5.047   8.550
 6254POPC   D2A25840  23.732   5.123   8.250
 6254POPC   C3A25841  23.758   5.101   7.950
 6254POPC   C4A25842  23.742   5.085   7.650
 6254POPC   C1B25843  23.912   5.241   8.550
 6254POPC   C2B25844  23.856   5.301   8.250
 6254POPC   C3B25845  23.868   5.258   7.950
 6254POPC   C4B25846  23.882   5.262   7.650
 6255POPC   NC325847  29.156  33.822   9.450
 6255POPC   PO425848  29.113  33.820   9.150
 6255POPC   GL125849  29.183  33.774   8.850
 6255POPC   GL225850  29.077  33.912   8.850
 6255POPC   C1A25851  29.192  33.772   8.550
 6255POPC   D2A25852  29.156  33.753   8.250
 6255POPC   C3A25853  29.110  33.763   7.950
 6255POPC   C4A25854  29.133  33.759   7.650
 6255POPC   C1B25855  29.107  34.075   8.550
 6255POPC   C2B25856  29.106  34.016   8.250
 6255POPC   C3B25857  29.127  34.022   7.950
 6255POPC   C4B25858  29.102  34.058   7.650
 6256POPC   NC325859  25.250  43.061   9.450
 6256POPC   PO425860  25.216  43.084   9.150
 6256POPC   GL125861  25.228  43.087   8.850
 6256POPC   GL225862  25.245  42.969   8.850
 6256POPC   C1A25863  25.284  43.109   8.550
 6256POPC   D2A25864  25.225  43.109   8.250
 6256POPC   C3A25865  25.239  43.128   7.950
 6256POPC   C4A25866  25.303  43.062   7.650
 6256POPC   C1B25867  25.222  42.846   8.550
 6256POPC   C2B25868  25.280  42.900   8.250
 6256POPC   C3B25869  25.265  42.902   7.950
 6256POPC   C4B25870  25.286  42.905   7.650
 6257POPC   NC325871   5.064   2.725   9.450
 6257POPC   PO425872   5.060   2.800   9.150
 6257POPC   GL125873   5.094   2.791   8.850
 6257POPC   GL225874   5.242   2.766   8.850
 6257POPC   C1A25875   5.080   2.754   8.550
 6257POPC   D2A25876   5.124   2.813   8.250
 6257POPC   C3A25877   5.067   2.812   7.950
 6257POPC   C4A25878   5.046   2.782   7.650
 6257POPC   C1B25879   5.347   2.694   8.550
 6257POPC   C2B25880   5.339   2.716   8.250
 6257POPC   C3B25881   5.374   2.717   7.950
 6257POPC   C4B25882   5.349   2.688   7.650
 6258POPC   NC325883   1.978  12.824   9.450
 6258POPC   PO425884   1.981  12.853   9.150
 6258POPC   GL125885   1.995  12.857   8.850
 6258POPC   GL225886   1.890  12.744   8.850
 6258POPC   C1A25887   2.022  12.832   8.550
 6258POPC   D2A25888   2.034  12.896   8.250
 6258POPC   C3A25889   1.969  12.856   7.950
 6258POPC   C4A25890   1.970  12.881   7.650
 6258POPC   C1B25891   1.792  12.698   8.550
 6258POPC   C2B25892   1.778  12.708   8.250
 6258POPC   C3B25893   1.801  12.645   7.950
 6258POPC   C4B25894   1.832  12.704   7.650
 6259POPC   NC325895  26.803  20.647   9.450
 6259POPC   PO425896  26.847  20.635   9.150
 6259POPC   GL125897  26.831  20.628   8.850
 6259POPC   GL225898  26.677  20.552   8.850
 6259POPC   C1A25899  26.798  20.619   8.550
 6259POPC   D2A25900  26.794  20.649   8.250
 6259POPC   C3A25901  26.863  20.658   7.950
 6259POPC   C4A25902  26.819  20.592   7.650
 6259POPC   C1B25903  26.538  20.498   8.550
 6259POPC   C2B25904  26.613  20.522   8.250
 6259POPC   C3B25905  26.617  20.508   7.950
 6259POPC   C4B25906  26.547  20.521   7.650
 6260POPC   NC325907  20.567  35.375   9.450
 6260POPC   PO425908  20.660  35.376   9.150
 6260POPC   GL125909  20.596  35.352   8.850
 6260POPC   GL225910  20.687  35.431   8.850
 6260POPC   C1A25911  20.590  35.359   8.550
 6260POPC   D2A25912  20.624  35.344   8.250
 6260POPC   C3A25913  20.620  35.360   7.950
 6260POPC   C4A25914  20.630  35.317   7.650
 6260POPC   C1B25915  20.726  35.527   8.550
 6260POPC   C2B25916  20.767  35.546   8.250
 6260POPC   C3B25917  20.737  35.525   7.950
 6260POPC   C4B25918  20.718  35.521   7.650
 6261POPC   NC325919  12.816  39.218   9.450
 6261POPC   PO425920  12.826  39.237   9.150
 6261POPC   GL125921  12.858  39.272   8.850
 6261POPC   GL225922  12.808  39.100   8.850
 6261POPC   C1A25923  12.826  39.216   8.550
 6261POPC   D2A25924  12.812  39.210   8.250
 6261POPC   C3A25925  12.894  39.273   7.950
 6261POPC   C4A25926  12.853  39.220   7.650
 6261POPC   C1B25927  12.683  39.044   8.550
 6261POPC   C2B25928  12.681  39.021   8.250
 6261POPC   C3B25929  12.656  38.998   7.950
 6261POPC   C4B25930  12.739  39.036   7.650
 6262POPC   NC325931  29.139  19.811   9.450
 6262POPC   PO425932  29.135  19.860   9.150
 6262POPC   GL125933  29.146  19.865   8.850
 6262POPC   GL225934  29.185  19.949   8.850
 6262POPC   C1A25935  29.155  19.829   8.550
 6262POPC   D2A25936  29.150  19.835   8.250
 6262POPC   C3A25937  29.122  19.787   7.950
 6262POPC   C4A25938  29.131  19.810   7.650
 6262POPC   C1B25939  29.357  19.977   8.550
 6262POPC   C2B25940  29.334  19.966   8.250
 6262POPC   C3B25941  29.341  20.059   7.950
 6262POPC   C4B25942  29.367  20.010   7.650
 6263POPC   NC325943  39.959   4.358   9.450
 6263POPC   PO425944  40.027   4.291   9.150
 6263POPC   GL125945  39.969   4.346   8.850
 6263POPC   GL225946  39.872   4.453   8.850
 6263POPC   C1A25947  39.967   4.359   8.550
 6263POPC   D2A25948  40.031   4.302   8.250
 6263POPC   C3A25949  40.041   4.276   7.950
 6263POPC   C4A25950  40.032   4.367   7.650
 6263POPC   C1B25951  39.790   4.506   8.550
 6263POPC   C2B25952  39.831   4.493   8.250
 6263POPC   C3B25953  39.839   4.494   7.950
 6263POPC   C4B25954  39.792   4.482   7.650
 6264POPC   NC325955  38.453  32.227   9.450
 6264POPC   PO425956  38.442  32.286   9.150
 6264POPC   GL125957  38.434  32.238   8.850
 6264POPC   GL225958  38.397  32.114   8.850
 6264POPC   C1A25959  38.448  32.278   8.550
 6264POPC   D2A25960  38.412  32.294   8.250
 6264POPC   C3A25961  38.435  32.292   7.950
 6264POPC   C4A25962  38.450  32.208   7.650
 6264POPC   C1B25963  38.320  32.012   8.550
 6264POPC   C2B25964  38.352  32.002   8.250
 6264POPC   C3B25965  38.341  32.087   7.950
 6264POPC   C4B25966  38.325  31.993   7.650
 6265POPC   NC325967  15.161  24.478   9.450
 6265POPC   PO425968  15.221  24.445   9.150
 6265POPC   GL125969  15.206  24.486   8.850
 6265POPC   GL225970  15.121  24.359   8.850
 6265POPC   C1A25971  15.171  24.444   8.550
 6265POPC   D2A25972  15.160  24.532   8.250
 6265POPC   C3A25973  15.202  24.440   7.950
 6265POPC   C4A25974  15.185  24.481   7.650
 6265POPC   C1B25975  15.064  24.235   8.550
 6265POPC   C2B25976  15.057  24.286   8.250
 6265POPC   C3B25977  15.090  24.310   7.950
 6265POPC   C4B25978  15.072  24.269   7.650
 6266POPC   NC325979   0.449   3.581   9.450
 6266POPC   PO425980   0.451   3.536   9.150
 6266POPC   GL125981   0.450   3.584   8.850
 6266POPC   GL225982   0.575   3.421   8.850
 6266POPC   C1A25983   0.464   3.511   8.550
 6266POPC   D2A25984   0.390   3.554   8.250
 6266POPC   C3A25985   0.477   3.549   7.950
 6266POPC   C4A25986   0.416   3.515   7.650
 6266POPC   C1B25987   0.570   3.360   8.550
 6266POPC   C2B25988   0.598   3.409   8.250
 6266POPC   C3B25989   0.607   3.367   7.950
 6266POPC   C4B25990   0.645   3.369   7.650
 6267POPC   NC325991  36.094  41.568   9.450
 6267POPC   PO425992  36.095  41.567   9.150
 6267POPC   GL125993  36.127  41.604   8.850
 6267POPC   GL225994  36.069  41.401   8.850
 6267POPC   C1A25995  36.081  41.533   8.550
 6267POPC   D2A25996  36.164  41.554   8.250
 6267POPC   C3A25997  36.130  41.598   7.950
 6267POPC   C4A25998  36.140  41.520   7.650
 6267POPC   C1B25999  36.025  41.308   8.550
 6267POPC   C2B26000  36.048  41.345   8.250
 6267POPC   C3B26001  35.971  41.368   7.950
 6267POPC   C4B26002  36.016  41.388   7.650
 6268POPC   NC326003   1.227  21.409   9.450
 6268POPC   PO426004   1.186  21.389   9.150
 6268POPC   GL126005   1.187  21.397   8.850
 6268POPC   GL226006   1.165  21.484   8.850
 6268POPC   C1A26007   1.214  21.372   8.550
 6268POPC   D2A26008   1.235  21.384   8.250
 6268POPC   C3A26009   1.231  21.382   7.950
 6268POPC   C4A26010   1.247  21.338   7.650
 6268POPC   C1B26011   1.165  21.575   8.550
 6268POPC   C2B26012   1.125  21.575   8.250
 6268POPC   C3B26013   1.174  21.638   7.950
 6268POPC   C4B26014   1.125  21.648   7.650
 6269POPC   NC326015  12.847   1.259   9.450
 6269POPC   PO426016  12.835   1.195   9.150
 6269POPC   GL126017  12.840   1.247   8.850
 6269POPC   GL226018  12.954   1.168   8.850
 6269POPC   C1A26019  12.859   1.186   8.550
 6269POPC   D2A26020  12.870   1.230   8.250
 6269POPC   C3A26021  12.862   1.176   7.950
 6269POPC   C4A26022  12.889   1.198   7.650
 6269POPC   C1B26023  13.061   1.214   8.550
 6269POPC   C2B26024  13.068   1.221   8.250
 6269POPC   C3B26025  13.059   1.200   7.950
 6269POPC   C4B26026  13.115   1.232   7.650
 6270POPC   NC326027  20.576   4.341   9.450
 6270POPC   PO426028  20.624   4.319   9.150
 6270POPC   GL126029  20.605   4.356   8.850
 6270POPC   GL226030  20.468   4.313   8.850
 6270POPC   C1A26031  20.590   4.329   8.550
 6270POPC   D2A26032  20.612   4.350   8.250
 6270POPC   C3A26033  20.619   4.338   7.950
 6270POPC   C4A26034  20.656   4.289   7.650
 6270POPC   C1B26035  20.392   4.359   8.550
 6270POPC   C2B26036  20.393   4.423   8.250
 6270POPC   C3B26037  20.360   4.368   7.950
 6270POPC   C4B26038  20.341   4.393   7.650
 6271POPC   NC326039  41.541   1.189   9.450
 6271POPC   PO426040  41.528   1.209   9.150
 6271POPC   GL126041  41.597   1.240   8.850
 6271POPC   GL226042  41.558   1.064   8.850
 6271POPC   C1A26043  41.588   1.259   8.550
 6271POPC   D2A26044  41.541   1.250   8.250
 6271POPC   C3A26045  41.578   1.227   7.950
 6271POPC   C4A26046  41.542   1.203   7.650
 6271POPC   C1B26047  41.569   0.935   8.550
 6271POPC   C2B26048  41.537   0.979   8.250
 6271POPC   C3B26049  41.527   1.009   7.950
 6271POPC   C4B26050  41.580   0.961   7.650
 6272POPC   NC326051   4.294  35.321   9.450
 6272POPC   PO426052   4.300  35.322   9.150
 6272POPC   GL126053   4.346  35.398   8.850
 6272POPC   GL226054   4.477  35.362   8.850
 6272POPC   C1A26055   4.287  35.339   8.550
 6272POPC   D2A26056   4.356  35.315   8.250
 6272POPC   C3A26057   4.364  35.351   7.950
 6272POPC   C4A26058   4.288  35.343   7.650
 6272POPC   C1B26059   4.593  35.341   8.550
 6272POPC   C2B26060   4.600  35.388   8.250
 6272POPC   C3B26061   4.536  35.401   7.950
 6272POPC   C4B26062   4.528  35.410   7.650
 6273POPC   NC326063  13.639  17.515   9.450
 6273POPC   PO426064  13.665  17.460   9.150
 6273POPC   GL126065  13.593  17.542   8.850
 6273POPC   GL226066  13.648  17.612   8.850
 6273POPC   C1A26067  13.615  17.479   8.550
 6273POPC   D2A26068  13.612  17.556   8.250
 6273POPC   C3A26069  13.606  17.479   7.950
 6273POPC   C4A26070  13.651  17.532   7.650
 6273POPC   C1B26071  13.597  17.748   8.550
 6273POPC   C2B26072  13.607  17.722   8.250
 6273POPC   C3B26073  13.582  17.791   7.950
 6273POPC   C4B26074  13.621  17.798   7.650
 6274POPC   NC326075  14.371  19.018   9.450
 6274POPC   PO426076  14.426  19.032   9.150
 6274POPC   GL126077  14.413  19.011   8.850
 6274POPC   GL226078  14.373  19.174   8.850
 6274POPC   C1A26079  14.395  19.043   8.550
 6274POPC   D2A26080  14.371  19.101   8.250
 6274POPC   C3A26081  14.386  19.077   7.950
 6274POPC   C4A26082  14.378  19.035   7.650
 6274POPC   C1B26083  14.366  19.345   8.550
 6274POPC   C2B26084  14.395  19.356   8.250
 6274POPC   C3B26085  14.450  19.299   7.950
 6274POPC   C4B26086  14.389  19.305   7.650
 6275POPC   NC326087  38.491  38.443   9.450
 6275POPC   PO426088  38.441  38.479   9.150
 6275POPC   GL126089  38.429  38.429   8.850
 6275POPC   GL226090  38.512  38.624   8.850
 6275POPC   C1A26091  38.428  38.487   8.550
 6275POPC   D2A26092  38.427  38.439   8.250
 6275POPC   C3A26093  38.460  38.444   7.950
 6275POPC   C4A26094  38.429  38.429   7.650
 6275POPC   C1B26095  38.537  38.659   8.550
 6275POPC   C2B26096  38.500  38.719   8.250
 6275POPC   C3B26097  38.495  38.724   7.950
 6275POPC   C4B26098  38.504  38.708   7.650
 6276POPC   NC326099   8.221  29.951   9.450
 6276POPC   PO426100   8.171  29.902   9.150
 6276POPC   GL126101   8.241  29.874   8.850
 6276POPC   GL226102   8.293  30.041   8.850
 6276POPC   C1A26103   8.199  29.950   8.550
 6276POPC   D2A26104   8.209  29.940   8.250
 6276POPC   C3A26105   8.182  29.967   7.950
 6276POPC   C4A26106   8.237  29.947   7.650
 6276POPC   C1B26107   8.252  30.197   8.550
 6276POPC   C2B26108   8.297  30.179   8.250
 6276POPC   C3B26109   8.246  30.191   7.950
 6276POPC   C4B26110   8.323  30.194   7.650
 6277POPC   NC326111  35.361   2.813   9.450
 6277POPC   PO426112  35.312   2.779   9.150
 6277POPC   GL126113  35.345   2.808   8.850
 6277POPC   GL226114  35.230   2.696   8.850
 6277POPC   C1A26115  35.317   2.776   8.550
 6277POPC   D2A26116  35.393   2.781   8.250
 6277POPC   C3A26117  35.317   2.784   7.950
 6277POPC   C4A26118  35.335   2.725   7.650
 6277POPC   C1B26119  35.160   2.577   8.550
 6277POPC   C2B26120  35.197   2.547   8.250
 6277POPC   C3B26121  35.127   2.610   7.950
 6277POPC   C4B26122  35.194   2.620   7.650
 6278POPC   NC326123  39.252  33.808   9.450
 6278POPC   PO426124  39.205  33.841   9.150
 6278POPC   GL126125  39.197  33.815   8.850
 6278POPC   GL226126  39.323  33.781   8.850
 6278POPC   C1A26127  39.251  33.822   8.550
 6278POPC   D2A26128  39.251  33.805   8.250
 6278POPC   C3A26129  39.216  33.774   7.950
 6278POPC   C4A26130  39.253  33.774   7.650
 6278POPC   C1B26131  39.418  33.709   8.550
 6278POPC   C2B26132  39.414  33.701   8.250
 6278POPC   C3B26133  39.425  33.723   7.950
 6278POPC   C4B26134  39.447  33.653   7.650
 6279POPC   NC326135  44.652  40.824   9.450
 6279POPC   PO426136  44.634  40.745   9.150
 6279POPC   GL126137  44.678  40.778   8.850
 6279POPC   GL226138  44.780  40.724   8.850
 6279POPC   C1A26139  44.684  40.741   8.550
 6279POPC   D2A26140  44.690  40.739   8.250
 6279POPC   C3A26141  44.666  40.761   7.950
 6279POPC   C4A26142  44.627  40.792   7.650
 6279POPC   C1B26143  44.885  40.702   8.550
 6279POPC   C2B26144  44.870  40.781   8.250
 6279POPC   C3B26145  44.954  40.747   7.950
 6279POPC   C4B26146  44.876  40.741   7.650
 6280POPC   NC326147  26.780   2.003   9.450
 6280POPC   PO426148  26.828   2.031   9.150
 6280POPC   GL126149  26.837   2.008   8.850
 6280POPC   GL226150  26.805   1.923   8.850
 6280POPC   C1A26151  26.862   2.018   8.550
 6280POPC   D2A26152  26.821   2.037   8.250
 6280POPC   C3A26153  26.862   2.019   7.950
 6280POPC   C4A26154  26.835   1.994   7.650
 6280POPC   C1B26155  26.679   1.720   8.550
 6280POPC   C2B26156  26.669   1.739   8.250
 6280POPC   C3B26157  26.745   1.725   7.950
 6280POPC   C4B26158  26.728   1.800   7.650
 6281POPC   NC326159  20.601  42.330   9.450
 6281POPC   PO426160  20.570  42.350   9.150
 6281POPC   GL126161  20.651  42.368   8.850
 6281POPC   GL226162  20.767  42.281   8.850
 6281POPC   C1A26163  20.597  42.366   8.550
 6281POPC   D2A26164  20.574  42.336   8.250
 6281POPC   C3A26165  20.571  42.370   7.950
 6281POPC   C4A26166  20.576  42.363   7.650
 6281POPC   C1B26167  20.890  42.324   8.550
 6281POPC   C2B26168  20.842  42.299   8.250
 6281POPC   C3B26169  20.874  42.303   7.950
 6281POPC   C4B26170  20.885  42.285   7.650
 6282POPC   NC326171  17.541  19.056   9.450
 6282POPC   PO426172  17.488  19.027   9.150
 6282POPC   GL126173  17.538  19.046   8.850
 6282POPC   GL226174  17.491  19.203   8.850
 6282POPC   C1A26175  17.487  19.076   8.550
 6282POPC   D2A26176  17.457  19.104   8.250
 6282POPC   C3A26177  17.472  19.024   7.950
 6282POPC   C4A26178  17.498  19.089   7.650
 6282POPC   C1B26179  17.397  19.304   8.550
 6282POPC   C2B26180  17.434  19.284   8.250
 6282POPC   C3B26181  17.415  19.334   7.950
 6282POPC   C4B26182  17.444  19.285   7.650
 6283POPC   NC326183   9.785  34.571   9.450
 6283POPC   PO426184   9.754  34.570   9.150
 6283POPC   GL126185   9.789  34.554   8.850
 6283POPC   GL226186   9.666  34.452   8.850
 6283POPC   C1A26187   9.736  34.567   8.550
 6283POPC   D2A26188   9.752  34.543   8.250
 6283POPC   C3A26189   9.776  34.566   7.950
 6283POPC   C4A26190   9.730  34.536   7.650
 6283POPC   C1B26191   9.628  34.331   8.550
 6283POPC   C2B26192   9.619  34.379   8.250
 6283POPC   C3B26193   9.603  34.323   7.950
 6283POPC   C4B26194   9.638  34.351   7.650
 6284POPC   NC326195  33.006  30.649   9.450
 6284POPC   PO426196  33.054  30.689   9.150
 6284POPC   GL126197  32.994  30.737   8.850
 6284POPC   GL226198  33.094  30.632   8.850
 6284POPC   C1A26199  32.978  30.736   8.550
 6284POPC   D2A26200  33.054  30.649   8.250
 6284POPC   C3A26201  33.039  30.684   7.950
 6284POPC   C4A26202  33.022  30.742   7.650
 6284POPC   C1B26203  33.120  30.501   8.550
 6284POPC   C2B26204  33.205  30.464   8.250
 6284POPC   C3B26205  33.121  30.496   7.950
 6284POPC   C4B26206  33.130  30.507   7.650
 6285POPC   NC326207  30.707  36.866   9.450
 6285POPC   PO426208  30.680  36.887   9.150
 6285POPC   GL126209  30.701  36.901   8.850
 6285POPC   GL226210  30.737  37.055   8.850
 6285POPC   C1A26211  30.701  36.895   8.550
 6285POPC   D2A26212  30.706  36.880   8.250
 6285POPC   C3A26213  30.713  36.906   7.950
 6285POPC   C4A26214  30.669  36.891   7.650
 6285POPC   C1B26215  30.820  37.077   8.550
 6285POPC   C2B26216  30.855  37.109   8.250
 6285POPC   C3B26217  30.799  37.094   7.950
 6285POPC   C4B26218  30.860  37.102   7.650
 6286POPC   NC326219  26.086  19.815   9.450
 6286POPC   PO426220  26.056  19.848   9.150
 6286POPC   GL126221  26.000  19.869   8.850
 6286POPC   GL226222  26.085  19.768   8.850
 6286POPC   C1A26223  26.051  19.852   8.550
 6286POPC   D2A26224  26.053  19.864   8.250
 6286POPC   C3A26225  26.016  19.797   7.950
 6286POPC   C4A26226  26.046  19.869   7.650
 6286POPC   C1B26227  26.200  19.636   8.550
 6286POPC   C2B26228  26.207  19.638   8.250
 6286POPC   C3B26229  26.249  19.693   7.950
 6286POPC   C4B26230  26.156  19.604   7.650
 6287POPC   NC326231  34.528  39.232   9.450
 6287POPC   PO426232  34.568  39.184   9.150
 6287POPC   GL126233  34.569  39.259   8.850
 6287POPC   GL226234  34.545  39.402   8.850
 6287POPC   C1A26235  34.563  39.186   8.550
 6287POPC   D2A26236  34.620  39.194   8.250
 6287POPC   C3A26237  34.610  39.275   7.950
 6287POPC   C4A26238  34.624  39.234   7.650
 6287POPC   C1B26239  34.604  39.455   8.550
 6287POPC   C2B26240  34.522  39.472   8.250
 6287POPC   C3B26241  34.529  39.479   7.950
 6287POPC   C4B26242  34.571  39.498   7.650
 6288POPC   NC326243  24.489  12.820   9.450
 6288POPC   PO426244  24.520  12.892   9.150
 6288POPC   GL126245  24.511  12.836   8.850
 6288POPC   GL226246  24.513  12.953   8.850
 6288POPC   C1A26247  24.440  12.893   8.550
 6288POPC   D2A26248  24.448  12.829   8.250
 6288POPC   C3A26249  24.479  12.863   7.950
 6288POPC   C4A26250  24.494  12.900   7.650
 6288POPC   C1B26251  24.568  13.099   8.550
 6288POPC   C2B26252  24.527  13.113   8.250
 6288POPC   C3B26253  24.588  13.099   7.950
 6288POPC   C4B26254  24.593  13.057   7.650
 6289POPC   NC326255  42.356  29.936   9.450
 6289POPC   PO426256  42.349  29.917   9.150
 6289POPC   GL126257  42.285  29.901   8.850
 6289POPC   GL226258  42.477  29.829   8.850
 6289POPC   C1A26259  42.371  29.874   8.550
 6289POPC   D2A26260  42.322  29.886   8.250
 6289POPC   C3A26261  42.299  29.960   7.950
 6289POPC   C4A26262  42.312  29.957   7.650
 6289POPC   C1B26263  42.502  29.740   8.550
 6289POPC   C2B26264  42.502  29.747   8.250
 6289POPC   C3B26265  42.576  29.804   7.950
 6289POPC   C4B26266  42.485  29.773   7.650
 6290POPC   NC326267  31.475  41.538   9.450
 6290POPC   PO426268  31.455  41.585   9.150
 6290POPC   GL126269  31.452  41.536   8.850
 6290POPC   GL226270  31.319  41.527   8.850
 6290POPC   C1A26271  31.489  41.555   8.550
 6290POPC   D2A26272  31.509  41.517   8.250
 6290POPC   C3A26273  31.485  41.545   7.950
 6290POPC   C4A26274  31.499  41.516   7.650
 6290POPC   C1B26275  31.264  41.562   8.550
 6290POPC   C2B26276  31.186  41.591   8.250
 6290POPC   C3B26277  31.232  41.586   7.950
 6290POPC   C4B26278  31.224  41.533   7.650
 6291POPC   NC326279   4.313  24.527   9.450
 6291POPC   PO426280   4.354  24.533   9.150
 6291POPC   GL126281   4.340  24.484   8.850
 6291POPC   GL226282   4.348  24.646   8.850
 6291POPC   C1A26283   4.319  24.473   8.550
 6291POPC   D2A26284   4.276  24.525   8.250
 6291POPC   C3A26285   4.275  24.532   7.950
 6291POPC   C4A26286   4.335  24.459   7.650
 6291POPC   C1B26287   4.438  24.671   8.550
 6291POPC   C2B26288   4.441  24.684   8.250
 6291POPC   C3B26289   4.460  24.759   7.950
 6291POPC   C4B26290   4.399  24.738   7.650
 6292POPC   NC326291  39.992  39.244   9.450
 6292POPC   PO426292  39.976  39.229   9.150
 6292POPC   GL126293  40.035  39.249   8.850
 6292POPC   GL226294  39.934  39.349   8.850
 6292POPC   C1A26295  40.037  39.256   8.550
 6292POPC   D2A26296  40.042  39.261   8.250
 6292POPC   C3A26297  40.040  39.190   7.950
 6292POPC   C4A26298  40.039  39.241   7.650
 6292POPC   C1B26299  39.903  39.458   8.550
 6292POPC   C2B26300  39.840  39.489   8.250
 6292POPC   C3B26301  39.923  39.422   7.950
 6292POPC   C4B26302  39.863  39.476   7.650
 6293POPC   NC326303  15.912  43.893   9.450
 6293POPC   PO426304  15.908  43.936   9.150
 6293POPC   GL126305  15.957  43.843   8.850
 6293POPC   GL226306  15.937  44.003   8.850
 6293POPC   C1A26307  15.929  43.879   8.550
 6293POPC   D2A26308  15.962  43.843   8.250
 6293POPC   C3A26309  15.982  43.838   7.950
 6293POPC   C4A26310  15.995  43.924   7.650
 6293POPC   C1B26311  15.865  44.147   8.550
 6293POPC   C2B26312  15.870  44.155   8.250
 6293POPC   C3B26313  15.856  44.094   7.950
 6293POPC   C4B26314  15.828  44.122   7.650
 6294POPC   NC326315  17.478  44.614   9.450
 6294POPC   PO426316  17.517  44.628   9.150
 6294POPC   GL126317  17.471  44.643   8.850
 6294POPC   GL226318  17.420  44.607   8.850
 6294POPC   C1A26319  17.523  44.660   8.550
 6294POPC   D2A26320  17.542  44.641   8.250
 6294POPC   C3A26321  17.495  44.657   7.950
 6294POPC   C4A26322  17.485  44.699   7.650
 6294POPC   C1B26323  17.311  44.490   8.550
 6294POPC   C2B26324  17.369  44.496   8.250
 6294POPC   C3B26325  17.339  44.504   7.950
 6294POPC   C4B26326  17.348  44.460   7.650
 6295POPC   NC326327  17.536  26.781   9.450
 6295POPC   PO426328  17.457  26.841   9.150
 6295POPC   GL126329  17.479  26.835   8.850
 6295POPC   GL226330  17.610  26.684   8.850
 6295POPC   C1A26331  17.460  26.841   8.550
 6295POPC   D2A26332  17.552  26.788   8.250
 6295POPC   C3A26333  17.521  26.799   7.950
 6295POPC   C4A26334  17.491  26.846   7.650
 6295POPC   C1B26335  17.637  26.658   8.550
 6295POPC   C2B26336  17.684  26.651   8.250
 6295POPC   C3B26337  17.708  26.652   7.950
 6295POPC   C4B26338  17.705  26.639   7.650
 6296POPC   NC326339  26.817  40.737   9.450
 6296POPC   PO426340  26.834  40.761   9.150
 6296POPC   GL126341  26.856  40.774   8.850
 6296POPC   GL226342  26.973  40.825   8.850
 6296POPC   C1A26343  26.814  40.796   8.550
 6296POPC   D2A26344  26.836  40.757   8.250
 6296POPC   C3A26345  26.799  40.774   7.950
 6296POPC   C4A26346  26.781  40.755   7.650
 6296POPC   C1B26347  27.022  40.755   8.550
 6296POPC   C2B26348  27.064  40.813   8.250
 6296POPC   C3B26349  27.028  40.754   7.950
 6296POPC   C4B26350  27.114  40.786   7.650
 6297POPC   NC326351  22.984  11.270   9.450
 6297POPC   PO426352  22.914  11.288   9.150
 6297POPC   GL126353  22.957  11.317   8.850
 6297POPC   GL226354  22.821  11.329   8.850
 6297POPC   C1A26355  22.948  11.324   8.550
 6297POPC   D2A26356  22.895  11.280   8.250
 6297POPC   C3A26357  22.976  11.279   7.950
 6297POPC   C4A26358  22.905  11.339   7.650
 6297POPC   C1B26359  22.652  11.323   8.550
 6297POPC   C2B26360  22.736  11.387   8.250
 6297POPC   C3B26361  22.713  11.352   7.950
 6297POPC   C4B26362  22.689  11.295   7.650
 6298POPC   NC326363  31.494  40.759   9.450
 6298POPC   PO426364  31.475  40.823   9.150
 6298POPC   GL126365  31.456  40.758   8.850
 6298POPC   GL226366  31.531  40.679   8.850
 6298POPC   C1A26367  31.454  40.763   8.550
 6298POPC   D2A26368  31.511  40.770   8.250
 6298POPC   C3A26369  31.455  40.786   7.950
 6298POPC   C4A26370  31.510  40.814   7.650
 6298POPC   C1B26371  31.584  40.605   8.550
 6298POPC   C2B26372  31.629  40.610   8.250
 6298POPC   C3B26373  31.636  40.551   7.950
 6298POPC   C4B26374  31.653  40.615   7.650
 6299POPC   NC326375  39.194  15.194   9.450
 6299POPC   PO426376  39.188  15.218   9.150
 6299POPC   GL126377  39.247  15.218   8.850
 6299POPC   GL226378  39.095  15.243   8.850
 6299POPC   C1A26379  39.222  15.159   8.550
 6299POPC   D2A26380  39.217  15.199   8.250
 6299POPC   C3A26381  39.220  15.192   7.950
 6299POPC   C4A26382  39.276  15.136   7.650
 6299POPC   C1B26383  39.023  15.241   8.550
 6299POPC   C2B26384  39.034  15.234   8.250
 6299POPC   C3B26385  38.957  15.229   7.950
 6299POPC   C4B26386  39.004  15.300   7.650
 6300POPC   NC326387   2.733  19.079   9.450
 6300POPC   PO426388   2.749  19.009   9.150
 6300POPC   GL126389   2.809  19.034   8.850
 6300POPC   GL226390   2.673  19.045   8.850
 6300POPC   C1A26391   2.752  19.048   8.550
 6300POPC   D2A26392   2.780  19.093   8.250
 6300POPC   C3A26393   2.728  19.086   7.950
 6300POPC   C4A26394   2.778  19.053   7.650
 6300POPC   C1B26395   2.509  18.901   8.550
 6300POPC   C2B26396   2.539  18.982   8.250
 6300POPC   C3B26397   2.586  18.904   7.950
 6300POPC   C4B26398   2.578  18.909   7.650
 6301POPC   NC326399   7.381   5.910   9.450
 6301POPC   PO426400   7.429   5.843   9.150
 6301POPC   GL126401   7.461   5.898   8.850
 6301POPC   GL226402   7.522   5.762   8.850
 6301POPC   C1A26403   7.373   5.902   8.550
 6301POPC   D2A26404   7.465   5.873   8.250
 6301POPC   C3A26405   7.459   5.836   7.950
 6301POPC   C4A26406   7.382   5.833   7.650
 6301POPC   C1B26407   7.635   5.794   8.550
 6301POPC   C2B26408   7.670   5.774   8.250
 6301POPC   C3B26409   7.641   5.771   7.950
 6301POPC   C4B26410   7.666   5.763   7.650
 6302POPC   NC326411   8.939   7.381   9.450
 6302POPC   PO426412   8.964   7.446   9.150
 6302POPC   GL126413   8.949   7.432   8.850
 6302POPC   GL226414   8.830   7.341   8.850
 6302POPC   C1A26415   8.941   7.441   8.550
 6302POPC   D2A26416   8.969   7.379   8.250
 6302POPC   C3A26417   8.996   7.434   7.950
 6302POPC   C4A26418   9.021   7.413   7.650
 6302POPC   C1B26419   8.734   7.320   8.550
 6302POPC   C2B26420   8.755   7.283   8.250
 6302POPC   C3B26421   8.764   7.235   7.950
 6302POPC   C4B26422   8.753   7.302   7.650
 6303POPC   NC326423   2.793   7.442   9.450
 6303POPC   PO426424   2.748   7.451   9.150
 6303POPC   GL126425   2.756   7.466   8.850
 6303POPC   GL226426   2.799   7.538   8.850
 6303POPC   C1A26427   2.763   7.393   8.550
 6303POPC   D2A26428   2.773   7.398   8.250
 6303POPC   C3A26429   2.768   7.406   7.950
 6303POPC   C4A26430   2.770   7.437   7.650
 6303POPC   C1B26431   2.877   7.659   8.550
 6303POPC   C2B26432   2.853   7.705   8.250
 6303POPC   C3B26433   2.843   7.663   7.950
 6303POPC   C4B26434   2.819   7.613   7.650
 6304POPC   NC326435  16.770  28.355   9.450
 6304POPC   PO426436  16.774  28.346   9.150
 6304POPC   GL126437  16.749  28.356   8.850
 6304POPC   GL226438  16.733  28.247   8.850
 6304POPC   C1A26439  16.777  28.389   8.550
 6304POPC   D2A26440  16.729  28.394   8.250
 6304POPC   C3A26441  16.719  28.413   7.950
 6304POPC   C4A26442  16.696  28.329   7.650
 6304POPC   C1B26443  16.792  28.129   8.550
 6304POPC   C2B26444  16.800  28.099   8.250
 6304POPC   C3B26445  16.849  28.147   7.950
 6304POPC   C4B26446  16.840  28.145   7.650
 6305POPC   NC326447  38.421  20.616   9.450
 6305POPC   PO426448  38.419  20.585   9.150
 6305POPC   GL126449  38.477  20.651   8.850
 6305POPC   GL226450  38.374  20.704   8.850
 6305POPC   C1A26451  38.498  20.580   8.550
 6305POPC   D2A26452  38.415  20.601   8.250
 6305POPC   C3A26453  38.426  20.570   7.950
 6305POPC   C4A26454  38.501  20.614   7.650
 6305POPC   C1B26455  38.348  20.810   8.550
 6305POPC   C2B26456  38.401  20.822   8.250
 6305POPC   C3B26457  38.407  20.837   7.950
 6305POPC   C4B26458  38.348  20.826   7.650
 6306POPC   NC326459  19.081   4.290   9.450
 6306POPC   PO426460  19.048   4.334   9.150
 6306POPC   GL126461  19.078   4.284   8.850
 6306POPC   GL226462  19.217   4.228   8.850
 6306POPC   C1A26463  19.037   4.320   8.550
 6306POPC   D2A26464  19.065   4.334   8.250
 6306POPC   C3A26465  19.068   4.318   7.950
 6306POPC   C4A26466  19.075   4.330   7.650
 6306POPC   C1B26467  19.275   4.282   8.550
 6306POPC   C2B26468  19.337   4.248   8.250
 6306POPC   C3B26469  19.343   4.279   7.950
 6306POPC   C4B26470  19.256   4.203   7.650
 6307POPC   NC326471  40.809  39.223   9.450
 6307POPC   PO426472  40.774  39.195   9.150
 6307POPC   GL126473  40.748  39.185   8.850
 6307POPC   GL226474  40.914  39.210   8.850
 6307POPC   C1A26475  40.803  39.269   8.550
 6307POPC   D2A26476  40.764  39.226   8.250
 6307POPC   C3A26477  40.824  39.275   7.950
 6307POPC   C4A26478  40.811  39.250   7.650
 6307POPC   C1B26479  41.018  39.256   8.550
 6307POPC   C2B26480  41.010  39.313   8.250
 6307POPC   C3B26481  40.982  39.244   7.950
 6307POPC   C4B26482  41.004  39.270   7.650
 6308POPC   NC326483  14.374  10.544   9.450
 6308POPC   PO426484  14.417  10.505   9.150
 6308POPC   GL126485  14.415  10.531   8.850
 6308POPC   GL226486  14.441  10.628   8.850
 6308POPC   C1A26487  14.433  10.484   8.550
 6308POPC   D2A26488  14.408  10.545   8.250
 6308POPC   C3A26489  14.421  10.495   7.950
 6308POPC   C4A26490  14.388  10.529   7.650
 6308POPC   C1B26491  14.580  10.764   8.550
 6308POPC   C2B26492  14.568  10.721   8.250
 6308POPC   C3B26493  14.496  10.767   7.950
 6308POPC   C4B26494  14.543  10.734   7.650
 6309POPC   NC326495  25.256  33.037   9.450
 6309POPC   PO426496  25.286  33.035   9.150
 6309POPC   GL126497  25.289  33.003   8.850
 6309POPC   GL226498  25.122  33.055   8.850
 6309POPC   C1A26499  25.265  32.980   8.550
 6309POPC   D2A26500  25.234  33.018   8.250
 6309POPC   C3A26501  25.304  33.018   7.950
 6309POPC   C4A26502  25.292  33.029   7.650
 6309POPC   C1B26503  25.022  33.021   8.550
 6309POPC   C2B26504  25.019  33.069   8.250
 6309POPC   C3B26505  25.027  33.033   7.950
 6309POPC   C4B26506  25.031  33.049   7.650
 6310POPC   NC326507  36.175  29.157   9.450
 6310POPC   PO426508  36.096  29.171   9.150
 6310POPC   GL126509  36.090  29.129   8.850
 6310POPC   GL226510  36.185  29.266   8.850
 6310POPC   C1A26511  36.159  29.144   8.550
 6310POPC   D2A26512  36.151  29.155   8.250
 6310POPC   C3A26513  36.094  29.117   7.950
 6310POPC   C4A26514  36.137  29.166   7.650
 6310POPC   C1B26515  36.333  29.307   8.550
 6310POPC   C2B26516  36.311  29.356   8.250
 6310POPC   C3B26517  36.340  29.295   7.950
 6310POPC   C4B26518  36.340  29.269   7.650
 6311POPC   NC326519  11.293  43.081   9.450
 6311POPC   PO426520  11.295  43.122   9.150
 6311POPC   GL126521  11.347  43.124   8.850
 6311POPC   GL226522  11.372  43.024   8.850
 6311POPC   C1A26523  11.348  43.109   8.550
 6311POPC   D2A26524  11.323  43.156   8.250
 6311POPC   C3A26525  11.294  43.103   7.950
 6311POPC   C4A26526  11.285  43.097   7.650
 6311POPC   C1B26527  11.326  42.875   8.550
 6311POPC   C2B26528  11.392  42.862   8.250
 6311POPC   C3B26529  11.354  42.820   7.950
 6311POPC   C4B26530  11.385  42.906   7.650
 6312POPC   NC326531  43.852  43.881   9.450
 6312POPC   PO426532  43.901  43.866   9.150
 6312POPC   GL126533  43.840  43.878   8.850
 6312POPC   GL226534  43.897  43.724   8.850
 6312POPC   C1A26535  43.929  43.886   8.550
 6312POPC   D2A26536  43.847  43.932   8.250
 6312POPC   C3A26537  43.867  43.915   7.950
 6312POPC   C4A26538  43.935  43.899   7.650
 6312POPC   C1B26539  43.967  43.684   8.550
 6312POPC   C2B26540  43.990  43.650   8.250
 6312POPC   C3B26541  43.937  43.680   7.950
 6312POPC   C4B26542  44.024  43.623   7.650
 6313POPC   NC326543  14.415  40.754   9.450
 6313POPC   PO426544  14.431  40.804   9.150
 6313POPC   GL126545  14.413  40.733   8.850
 6313POPC   GL226546  14.315  40.740   8.850
 6313POPC   C1A26547  14.452  40.783   8.550
 6313POPC   D2A26548  14.450  40.800   8.250
 6313POPC   C3A26549  14.389  40.806   7.950
 6313POPC   C4A26550  14.416  40.748   7.650
 6313POPC   C1B26551  14.128  40.786   8.550
 6313POPC   C2B26552  14.193  40.738   8.250
 6313POPC   C3B26553  14.153  40.803   7.950
 6313POPC   C4B26554  14.143  40.767   7.650
 6314POPC   NC326555   2.024  12.123   9.450
 6314POPC   PO426556   1.942  12.054   9.150
 6314POPC   GL126557   1.957  12.048   8.850
 6314POPC   GL226558   2.052  11.982   8.850
 6314POPC   C1A26559   1.973  12.107   8.550
 6314POPC   D2A26560   1.991  12.067   8.250
 6314POPC   C3A26561   1.955  12.096   7.950
 6314POPC   C4A26562   1.946  12.041   7.650
 6314POPC   C1B26563   2.178  12.003   8.550
 6314POPC   C2B26564   2.199  11.948   8.250
 6314POPC   C3B26565   2.255  11.973   7.950
 6314POPC   C4B26566   2.220  11.937   7.650
 6315POPC   NC326567   5.919  19.039   9.450
 6315POPC   PO426568   5.913  19.042   9.150
 6315POPC   GL126569   5.834  19.009   8.850
 6315POPC   GL226570   5.984  19.026   8.850
 6315POPC   C1A26571   5.865  19.068   8.550
 6315POPC   D2A26572   5.819  19.063   8.250
 6315POPC   C3A26573   5.885  19.093   7.950
 6315POPC   C4A26574   5.914  19.068   7.650
 6315POPC   C1B26575   6.090  19.052   8.550
 6315POPC   C2B26576   6.133  19.019   8.250
 6315POPC   C3B26577   6.108  19.042   7.950
 6315POPC   C4B26578   6.080  19.036   7.650
 6316POPC   NC326579  34.622  38.466   9.450
 6316POPC   PO426580  34.571  38.439   9.150
 6316POPC   GL126581  34.527  38.474   8.850
 6316POPC   GL226582  34.488  38.393   8.850
 6316POPC   C1A26583  34.548  38.429   8.550
 6316POPC   D2A26584  34.615  38.444   8.250
 6316POPC   C3A26585  34.587  38.406   7.950
 6316POPC   C4A26586  34.603  38.495   7.650
 6316POPC   C1B26587  34.379  38.312   8.550
 6316POPC   C2B26588  34.315  38.309   8.250
 6316POPC   C3B26589  34.349  38.289   7.950
 6316POPC   C4B26590  34.397  38.354   7.650
 6317POPC   NC326591  19.785  27.546   9.450
 6317POPC   PO426592  19.857  27.562   9.150
 6317POPC   GL126593  19.828  27.603   8.850
 6317POPC   GL226594  19.880  27.488   8.850
 6317POPC   C1A26595  19.847  27.587   8.550
 6317POPC   D2A26596  19.861  27.639   8.250
 6317POPC   C3A26597  19.802  27.597   7.950
 6317POPC   C4A26598  19.822  27.640   7.650
 6317POPC   C1B26599  20.017  27.367   8.550
 6317POPC   C2B26600  20.000  27.346   8.250
 6317POPC   C3B26601  20.010  27.411   7.950
 6317POPC   C4B26602  19.951  27.351   7.650
 6318POPC   NC326603  39.957  32.253   9.450
 6318POPC   PO426604  40.021  32.230   9.150
 6318POPC   GL126605  39.965  32.265   8.850
 6318POPC   GL226606  40.090  32.207   8.850
 6318POPC   C1A26607  39.989  32.266   8.550
 6318POPC   D2A26608  40.002  32.288   8.250
 6318POPC   C3A26609  39.982  32.221   7.950
 6318POPC   C4A26610  39.962  32.284   7.650
 6318POPC   C1B26611  40.168  32.088   8.550
 6318POPC   C2B26612  40.214  32.074   8.250
 6318POPC   C3B26613  40.215  32.081   7.950
 6318POPC   C4B26614  40.198  32.052   7.650
 6319POPC   NC326615  12.030  14.420   9.450
 6319POPC   PO426616  12.118  14.382   9.150
 6319POPC   GL126617  12.049  14.430   8.850
 6319POPC   GL226618  11.945  14.443   8.850
 6319POPC   C1A26619  12.030  14.433   8.550
 6319POPC   D2A26620  12.038  14.406   8.250
 6319POPC   C3A26621  12.046  14.390   7.950
 6319POPC   C4A26622  12.075  14.368   7.650
 6319POPC   C1B26623  11.820  14.494   8.550
 6319POPC   C2B26624  11.876  14.403   8.250
 6319POPC   C3B26625  11.842  14.421   7.950
 6319POPC   C4B26626  11.810  14.498   7.650
 6320POPC   NC326627  29.929  22.966   9.450
 6320POPC   PO426628  29.947  22.929   9.150
 6320POPC   GL126629  29.936  22.911   8.850
 6320POPC   GL226630  29.926  22.807   8.850
 6320POPC   C1A26631  29.940  22.954   8.550
 6320POPC   D2A26632  29.891  22.949   8.250
 6320POPC   C3A26633  29.943  22.931   7.950
 6320POPC   C4A26634  29.892  22.959   7.650
 6320POPC   C1B26635  29.954  22.676   8.550
 6320POPC   C2B26636  29.898  22.640   8.250
 6320POPC   C3B26637  29.911  22.650   7.950
 6320POPC   C4B26638  29.892  22.721   7.650
 6321POPC   NC326639   5.122  16.777   9.450
 6321POPC   PO426640   5.075  16.684   9.150
 6321POPC   GL126641   5.067  16.721   8.850
 6321POPC   GL226642   5.088  16.846   8.850
 6321POPC   C1A26643   5.066  16.693   8.550
 6321POPC   D2A26644   5.063  16.718   8.250
 6321POPC   C3A26645   5.063  16.759   7.950
 6321POPC   C4A26646   5.073  16.716   7.650
 6321POPC   C1B26647   5.130  16.989   8.550
 6321POPC   C2B26648   5.162  17.007   8.250
 6321POPC   C3B26649   5.095  16.947   7.950
 6321POPC   C4B26650   5.073  16.970   7.650
 6322POPC   NC326651  27.609  36.162   9.450
 6322POPC   PO426652  27.544  36.108   9.150
 6322POPC   GL126653  27.564  36.131   8.850
 6322POPC   GL226654  27.536  36.276   8.850
 6322POPC   C1A26655  27.556  36.144   8.550
 6322POPC   D2A26656  27.641  36.109   8.250
 6322POPC   C3A26657  27.557  36.080   7.950
 6322POPC   C4A26658  27.545  36.136   7.650
 6322POPC   C1B26659  27.587  36.415   8.550
 6322POPC   C2B26660  27.576  36.384   8.250
 6322POPC   C3B26661  27.560  36.397   7.950
 6322POPC   C4B26662  27.622  36.346   7.650
 6323POPC   NC326663   7.402  43.875   9.450
 6323POPC   PO426664   7.453  43.853   9.150
 6323POPC   GL126665   7.420  43.869   8.850
 6323POPC   GL226666   7.358  43.769   8.850
 6323POPC   C1A26667   7.449  43.914   8.550
 6323POPC   D2A26668   7.440  43.918   8.250
 6323POPC   C3A26669   7.376  43.847   7.950
 6323POPC   C4A26670   7.457  43.905   7.650
 6323POPC   C1B26671   7.382  43.683   8.550
 6323POPC   C2B26672   7.384  43.629   8.250
 6323POPC   C3B26673   7.391  43.605   7.950
 6323POPC   C4B26674   7.379  43.628   7.650
 6324POPC   NC326675  33.019  40.783   9.450
 6324POPC   PO426676  33.064  40.747   9.150
 6324POPC   GL126677  32.998  40.803   8.850
 6324POPC   GL226678  32.924  40.881   8.850
 6324POPC   C1A26679  33.034  40.810   8.550
 6324POPC   D2A26680  33.015  40.767   8.250
 6324POPC   C3A26681  32.986  40.797   7.950
 6324POPC   C4A26682  32.994  40.811   7.650
 6324POPC   C1B26683  32.843  40.930   8.550
 6324POPC   C2B26684  32.880  40.960   8.250
 6324POPC   C3B26685  32.857  40.917   7.950
 6324POPC   C4B26686  32.852  40.965   7.650
 6325POPC   NC326687  29.946  19.792   9.450
 6325POPC   PO426688  29.882  19.864   9.150
 6325POPC   GL126689  29.952  19.818   8.850
 6325POPC   GL226690  30.035  19.732   8.850
 6325POPC   C1A26691  29.896  19.822   8.550
 6325POPC   D2A26692  29.954  19.851   8.250
 6325POPC   C3A26693  29.889  19.865   7.950
 6325POPC   C4A26694  29.937  19.880   7.650
 6325POPC   C1B26695  30.169  19.707   8.550
 6325POPC   C2B26696  30.083  19.716   8.250
 6325POPC   C3B26697  30.076  19.676   7.950
 6325POPC   C4B26698  30.151  19.689   7.650
 6326POPC   NC326699  30.703  42.342   9.450
 6326POPC   PO426700  30.720  42.286   9.150
 6326POPC   GL126701  30.683  42.340   8.850
 6326POPC   GL226702  30.621  42.314   8.850
 6326POPC   C1A26703  30.659  42.305   8.550
 6326POPC   D2A26704  30.676  42.377   8.250
 6326POPC   C3A26705  30.664  42.372   7.950
 6326POPC   C4A26706  30.743  42.370   7.650
 6326POPC   C1B26707  30.478  42.377   8.550
 6326POPC   C2B26708  30.480  42.304   8.250
 6326POPC   C3B26709  30.414  42.377   7.950
 6326POPC   C4B26710  30.482  42.339   7.650
 6327POPC   NC326711   7.424  41.603   9.450
 6327POPC   PO426712   7.440  41.598   9.150
 6327POPC   GL126713   7.425  41.608   8.850
 6327POPC   GL226714   7.476  41.433   8.850
 6327POPC   C1A26715   7.465  41.608   8.550
 6327POPC   D2A26716   7.438  41.560   8.250
 6327POPC   C3A26717   7.402  41.524   7.950
 6327POPC   C4A26718   7.404  41.583   7.650
 6327POPC   C1B26719   7.457  41.337   8.550
 6327POPC   C2B26720   7.477  41.359   8.250
 6327POPC   C3B26721   7.454  41.315   7.950
 6327POPC   C4B26722   7.432  41.360   7.650
 6328POPC   NC326723  32.995   0.480   9.450
 6328POPC   PO426724  33.024   0.454   9.150
 6328POPC   GL126725  33.034   0.481   8.850
 6328POPC   GL226726  32.993   0.301   8.850
 6328POPC   C1A26727  32.985   0.414   8.550
 6328POPC   D2A26728  33.052   0.483   8.250
 6328POPC   C3A26729  33.071   0.402   7.950
 6328POPC   C4A26730  33.068   0.393   7.650
 6328POPC   C1B26731  32.969   0.219   8.550
 6328POPC   C2B26732  32.970   0.220   8.250
 6328POPC   C3B26733  33.031   0.169   7.950
 6328POPC   C4B26734  32.959   0.211   7.650
 6329POPC   NC326735  22.190  22.900   9.450
 6329POPC   PO426736  22.113  22.943   9.150
 6329POPC   GL126737  22.135  22.944   8.850
 6329POPC   GL226738  22.094  22.846   8.850
 6329POPC   C1A26739  22.162  22.902   8.550
 6329POPC   D2A26740  22.189  22.963   8.250
 6329POPC   C3A26741  22.191  22.976   7.950
 6329POPC   C4A26742  22.189  22.898   7.650
 6329POPC   C1B26743  22.147  22.671   8.550
 6329POPC   C2B26744  22.122  22.672   8.250
 6329POPC   C3B26745  22.074  22.699   7.950
 6329POPC   C4B26746  22.088  22.709   7.650
 6330POPC   NC326747  44.639  15.210   9.450
 6330POPC   PO426748  44.666  15.228   9.150
 6330POPC   GL126749  44.671  15.208   8.850
 6330POPC   GL226750  44.648  15.340   8.850
 6330POPC   C1A26751  44.654  15.217   8.550
 6330POPC   D2A26752  44.694  15.161   8.250
 6330POPC   C3A26753  44.709  15.193   7.950
 6330POPC   C4A26754  44.630  15.191   7.650
 6330POPC   C1B26755  44.712  15.471   8.550
 6330POPC   C2B26756  44.664  15.467   8.250
 6330POPC   C3B26757  44.708  15.477   7.950
 6330POPC   C4B26758  44.697  15.466   7.650
 6331POPC   NC326759  39.258  27.593   9.450
 6331POPC   PO426760  39.217  27.635   9.150
 6331POPC   GL126761  39.279  27.605   8.850
 6331POPC   GL226762  39.159  27.675   8.850
 6331POPC   C1A26763  39.251  27.599   8.550
 6331POPC   D2A26764  39.199  27.609   8.250
 6331POPC   C3A26765  39.247  27.589   7.950
 6331POPC   C4A26766  39.195  27.620   7.650
 6331POPC   C1B26767  39.150  27.817   8.550
 6331POPC   C2B26768  39.200  27.827   8.250
 6331POPC   C3B26769  39.224  27.810   7.950
 6331POPC   C4B26770  39.132  27.880   7.650
 6332POPC   NC326771  37.669  27.623   9.450
 6332POPC   PO426772  37.632  27.567   9.150
 6332POPC   GL126773  37.640  27.639   8.850
 6332POPC   GL226774  37.694  27.723   8.850
 6332POPC   C1A26775  37.675  27.640   8.550
 6332POPC   D2A26776  37.681  27.569   8.250
 6332POPC   C3A26777  37.687  27.612   7.950
 6332POPC   C4A26778  37.717  27.583   7.650
 6332POPC   C1B26779  37.574  27.838   8.550
 6332POPC   C2B26780  37.611  27.793   8.250
 6332POPC   C3B26781  37.628  27.870   7.950
 6332POPC   C4B26782  37.645  27.829   7.650
 6333POPC   NC326783  30.688  19.814   9.450
 6333POPC   PO426784  30.671  19.801   9.150
 6333POPC   GL126785  30.723  19.827   8.850
 6333POPC   GL226786  30.755  19.934   8.850
 6333POPC   C1A26787  30.668  19.873   8.550
 6333POPC   D2A26788  30.658  19.858   8.250
 6333POPC   C3A26789  30.733  19.801   7.950
 6333POPC   C4A26790  30.678  19.836   7.650
 6333POPC   C1B26791  30.730  20.086   8.550
 6333POPC   C2B26792  30.734  20.033   8.250
 6333POPC   C3B26793  30.762  20.038   7.950
 6333POPC   C4B26794  30.777  20.114   7.650
 6334POPC   NC326795  31.475   9.740   9.450
 6334POPC   PO426796  31.500   9.761   9.150
 6334POPC   GL126797  31.478   9.778   8.850
 6334POPC   GL226798  31.556   9.687   8.850
 6334POPC   C1A26799  31.491   9.769   8.550
 6334POPC   D2A26800  31.447   9.755   8.250
 6334POPC   C3A26801  31.519   9.700   7.950
 6334POPC   C4A26802  31.520   9.707   7.650
 6334POPC   C1B26803  31.682   9.636   8.550
 6334POPC   C2B26804  31.687   9.549   8.250
 6334POPC   C3B26805  31.670   9.568   7.950
 6334POPC   C4B26806  31.713   9.542   7.650
 6335POPC   NC326807  28.417  28.409   9.450
 6335POPC   PO426808  28.346  28.336   9.150
 6335POPC   GL126809  28.363  28.413   8.850
 6335POPC   GL226810  28.406  28.283   8.850
 6335POPC   C1A26811  28.408  28.322   8.550
 6335POPC   D2A26812  28.385  28.347   8.250
 6335POPC   C3A26813  28.334  28.357   7.950
 6335POPC   C4A26814  28.352  28.328   7.650
 6335POPC   C1B26815  28.517  28.123   8.550
 6335POPC   C2B26816  28.506  28.175   8.250
 6335POPC   C3B26817  28.484  28.202   7.950
 6335POPC   C4B26818  28.494  28.192   7.650
 6336POPC   NC326819  12.804  42.330   9.450
 6336POPC   PO426820  12.825  42.373   9.150
 6336POPC   GL126821  12.874  42.357   8.850
 6336POPC   GL226822  12.777  42.385   8.850
 6336POPC   C1A26823  12.884  42.318   8.550
 6336POPC   D2A26824  12.878  42.352   8.250
 6336POPC   C3A26825  12.839  42.382   7.950
 6336POPC   C4A26826  12.808  42.322   7.650
 6336POPC   C1B26827  12.635  42.489   8.550
 6336POPC   C2B26828  12.614  42.434   8.250
 6336POPC   C3B26829  12.632  42.504   7.950
 6336POPC   C4B26830  12.674  42.493   7.650
 6337POPC   NC326831  29.939  15.200   9.450
 6337POPC   PO426832  29.907  15.155   9.150
 6337POPC   GL126833  29.957  15.221   8.850
 6337POPC   GL226834  29.984  15.063   8.850
 6337POPC   C1A26835  29.890  15.145   8.550
 6337POPC   D2A26836  29.951  15.206   8.250
 6337POPC   C3A26837  29.886  15.188   7.950
 6337POPC   C4A26838  29.968  15.134   7.650
 6337POPC   C1B26839  30.070  15.042   8.550
 6337POPC   C2B26840  30.107  15.034   8.250
 6337POPC   C3B26841  30.161  14.980   7.950
 6337POPC   C4B26842  30.122  15.070   7.650
 6338POPC   NC326843  22.970   8.985   9.450
 6338POPC   PO426844  22.951   8.984   9.150
 6338POPC   GL126845  22.919   8.984   8.850
 6338POPC   GL226846  22.916   9.107   8.850
 6338POPC   C1A26847  22.905   9.015   8.550
 6338POPC   D2A26848  22.921   9.001   8.250
 6338POPC   C3A26849  22.966   8.983   7.950
 6338POPC   C4A26850  22.946   8.967   7.650
 6338POPC   C1B26851  23.000   9.209   8.550
 6338POPC   C2B26852  22.955   9.269   8.250
 6338POPC   C3B26853  22.947   9.267   7.950
 6338POPC   C4B26854  22.988   9.252   7.650
 6339POPC   NC326855   7.445   8.243   9.450
 6339POPC   PO426856   7.465   8.190   9.150
 6339POPC   GL126857   7.437   8.153   8.850
 6339POPC   GL226858   7.286   8.073   8.850
 6339POPC   C1A26859   7.451   8.165   8.550
 6339POPC   D2A26860   7.439   8.154   8.250
 6339POPC   C3A26861   7.443   8.245   7.950
 6339POPC   C4A26862   7.406   8.229   7.650
 6339POPC   C1B26863   7.190   8.074   8.550
 6339POPC   C2B26864   7.284   7.988   8.250
 6339POPC   C3B26865   7.249   8.044   7.950
 6339POPC   C4B26866   7.195   8.024   7.650
 6340POPC   NC326867   8.176   5.853   9.450
 6340POPC   PO426868   8.182   5.915   9.150
 6340POPC   GL126869   8.186   5.845   8.850
 6340POPC   GL226870   8.237   5.932   8.850
 6340POPC   C1A26871   8.242   5.833   8.550
 6340POPC   D2A26872   8.202   5.895   8.250
 6340POPC   C3A26873   8.214   5.882   7.950
 6340POPC   C4A26874   8.157   5.897   7.650
 6340POPC   C1B26875   8.350   6.056   8.550
 6340POPC   C2B26876   8.405   6.053   8.250
 6340POPC   C3B26877   8.408   6.025   7.950
 6340POPC   C4B26878   8.369   6.045   7.650
 6341POPC   NC326879   6.620  19.072   9.450
 6341POPC   PO426880   6.628  19.088   9.150
 6341POPC   GL126881   6.661  19.023   8.850
 6341POPC   GL226882   6.756  18.980   8.850
 6341POPC   C1A26883   6.674  19.070   8.550
 6341POPC   D2A26884   6.598  19.097   8.250
 6341POPC   C3A26885   6.650  19.028   7.950
 6341POPC   C4A26886   6.637  19.060   7.650
 6341POPC   C1B26887   6.753  18.826   8.550
 6341POPC   C2B26888   6.803  18.845   8.250
 6341POPC   C3B26889   6.735  18.808   7.950
 6341POPC   C4B26890   6.744  18.818   7.650
 6342POPC   NC326891  27.565  40.771   9.450
 6342POPC   PO426892  27.572  40.777   9.150
 6342POPC   GL126893  27.573  40.811   8.850
 6342POPC   GL226894  27.620  40.631   8.850
 6342POPC   C1A26895  27.622  40.780   8.550
 6342POPC   D2A26896  27.561  40.827   8.250
 6342POPC   C3A26897  27.606  40.765   7.950
 6342POPC   C4A26898  27.575  40.826   7.650
 6342POPC   C1B26899  27.614  40.512   8.550
 6342POPC   C2B26900  27.554  40.548   8.250
 6342POPC   C3B26901  27.600  40.579   7.950
 6342POPC   C4B26902  27.612  40.577   7.650
 6343POPC   NC326903   4.341  17.462   9.450
 6343POPC   PO426904   4.270  17.517   9.150
 6343POPC   GL126905   4.357  17.536   8.850
 6343POPC   GL226906   4.309  17.621   8.850
 6343POPC   C1A26907   4.347  17.533   8.550
 6343POPC   D2A26908   4.319  17.506   8.250
 6343POPC   C3A26909   4.312  17.475   7.950
 6343POPC   C4A26910   4.298  17.494   7.650
 6343POPC   C1B26911   4.280  17.735   8.550
 6343POPC   C2B26912   4.320  17.725   8.250
 6343POPC   C3B26913   4.271  17.718   7.950
 6343POPC   C4B26914   4.307  17.767   7.650
 6344POPC   NC326915  43.910  14.443   9.450
 6344POPC   PO426916  43.841  14.438   9.150
 6344POPC   GL126917  43.852  14.368   8.850
 6344POPC   GL226918  43.791  14.485   8.850
 6344POPC   C1A26919  43.929  14.406   8.550
 6344POPC   D2A26920  43.930  14.441   8.250
 6344POPC   C3A26921  43.852  14.421   7.950
 6344POPC   C4A26922  43.924  14.398   7.650
 6344POPC   C1B26923  43.695  14.549   8.550
 6344POPC   C2B26924  43.659  14.589   8.250
 6344POPC   C3B26925  43.744  14.598   7.950
 6344POPC   C4B26926  43.661  14.587   7.650
 6345POPC   NC326927  26.842  33.758   9.450
 6345POPC   PO426928  26.800  33.822   9.150
 6345POPC   GL126929  26.828  33.846   8.850
 6345POPC   GL226930  26.835  33.900   8.850
 6345POPC   C1A26931  26.795  33.839   8.550
 6345POPC   D2A26932  26.797  33.779   8.250
 6345POPC   C3A26933  26.786  33.822   7.950
 6345POPC   C4A26934  26.848  33.788   7.650
 6345POPC   C1B26935  26.753  34.060   8.550
 6345POPC   C2B26936  26.755  34.081   8.250
 6345POPC   C3B26937  26.819  34.057   7.950
 6345POPC   C4B26938  26.819  34.030   7.650
 6346POPC   NC326939  36.876  11.261   9.450
 6346POPC   PO426940  36.869  11.274   9.150
 6346POPC   GL126941  36.944  11.308   8.850
 6346POPC   GL226942  36.940  11.257   8.850
 6346POPC   C1A26943  36.908  11.272   8.550
 6346POPC   D2A26944  36.922  11.319   8.250
 6346POPC   C3A26945  36.924  11.287   7.950
 6346POPC   C4A26946  36.934  11.276   7.650
 6346POPC   C1B26947  37.036  11.157   8.550
 6346POPC   C2B26948  37.061  11.082   8.250
 6346POPC   C3B26949  37.056  11.144   7.950
 6346POPC   C4B26950  37.075  11.158   7.650
 6347POPC   NC326951  15.916  41.515   9.450
 6347POPC   PO426952  15.969  41.588   9.150
 6347POPC   GL126953  15.992  41.596   8.850
 6347POPC   GL226954  16.036  41.469   8.850
 6347POPC   C1A26955  15.972  41.563   8.550
 6347POPC   D2A26956  15.981  41.533   8.250
 6347POPC   C3A26957  15.998  41.604   7.950
 6347POPC   C4A26958  15.911  41.515   7.650
 6347POPC   C1B26959  16.207  41.390   8.550
 6347POPC   C2B26960  16.139  41.462   8.250
 6347POPC   C3B26961  16.126  41.461   7.950
 6347POPC   C4B26962  16.126  41.422   7.650
 6348POPC   NC326963  42.318  12.835   9.450
 6348POPC   PO426964  42.304  12.844   9.150
 6348POPC   GL126965  42.299  12.895   8.850
 6348POPC   GL226966  42.251  12.853   8.850
 6348POPC   C1A26967  42.358  12.898   8.550
 6348POPC   D2A26968  42.309  12.843   8.250
 6348POPC   C3A26969  42.335  12.899   7.950
 6348POPC   C4A26970  42.294  12.810   7.650
 6348POPC   C1B26971  42.117  12.954   8.550
 6348POPC   C2B26972  42.059  12.918   8.250
 6348POPC   C3B26973  42.068  12.915   7.950
 6348POPC   C4B26974  42.106  12.890   7.650
 6349POPC   NC326975  25.273  22.140   9.450
 6349POPC   PO426976  25.230  22.193   9.150
 6349POPC   GL126977  25.233  22.199   8.850
 6349POPC   GL226978  25.292  22.251   8.850
 6349POPC   C1A26979  25.216  22.125   8.550
 6349POPC   D2A26980  25.219  22.189   8.250
 6349POPC   C3A26981  25.295  22.186   7.950
 6349POPC   C4A26982  25.217  22.178   7.650
 6349POPC   C1B26983  25.402  22.363   8.550
 6349POPC   C2B26984  25.328  22.369   8.250
 6349POPC   C3B26985  25.396  22.345   7.950
 6349POPC   C4B26986  25.363  22.391   7.650
 6350POPC   NC326987  15.206  41.530   9.450
 6350POPC   PO426988  15.213  41.599   9.150
 6350POPC   GL126989  15.168  41.559   8.850
 6350POPC   GL226990  15.074  41.668   8.850
 6350POPC   C1A26991  15.162  41.518   8.550
 6350POPC   D2A26992  15.150  41.563   8.250
 6350POPC   C3A26993  15.161  41.551   7.950
 6350POPC   C4A26994  15.134  41.561   7.650
 6350POPC   C1B26995  15.082  41.801   8.550
 6350POPC   C2B26996  15.016  41.788   8.250
 6350POPC   C3B26997  15.031  41.811   7.950
 6350POPC   C4B26998  15.014  41.731   7.650
 6351POPC   NC326999  23.714  12.121   9.450
 6351POPC   PO427000  23.738  12.086   9.150
 6351POPC   GL127001  23.752  12.083   8.850
 6351POPC   GL227002  23.763  11.917   8.850
 6351POPC   C1A27003  23.720  12.031   8.550
 6351POPC   D2A27004  23.762  12.123   8.250
 6351POPC   C3A27005  23.676  12.094   7.950
 6351POPC   C4A27006  23.686  12.062   7.650
 6351POPC   C1B27007  23.828  11.864   8.550
 6351POPC   C2B27008  23.813  11.801   8.250
 6351POPC   C3B27009  23.768  11.819   7.950
 6351POPC   C4B27010  23.784  11.872   7.650
 6352POPC   NC327011  26.032  42.336   9.450
 6352POPC   PO427012  26.082  42.296   9.150
 6352POPC   GL127013  26.053  42.292   8.850
 6352POPC   GL227014  26.155  42.368   8.850
 6352POPC   C1A27015  26.016  42.383   8.550
 6352POPC   D2A27016  26.000  42.318   8.250
 6352POPC   C3A27017  26.075  42.370   7.950
 6352POPC   C4A27018  26.005  42.308   7.650
 6352POPC   C1B27019  26.335  42.423   8.550
 6352POPC   C2B27020  26.242  42.413   8.250
 6352POPC   C3B27021  26.329  42.403   7.950
 6352POPC   C4B27022  26.254  42.420   7.650
 6353POPC   NC327023  41.604  31.431   9.450
 6353POPC   PO427024  41.585  31.437   9.150
 6353POPC   GL127025  41.607  31.462   8.850
 6353POPC   GL227026  41.637  31.593   8.850
 6353POPC   C1A27027  41.516  31.486   8.550
 6353POPC   D2A27028  41.586  31.462   8.250
 6353POPC   C3A27029  41.542  31.483   7.950
 6353POPC   C4A27030  41.567  31.518   7.650
 6353POPC   C1B27031  41.690  31.671   8.550
 6353POPC   C2B27032  41.712  31.624   8.250
 6353POPC   C3B27033  41.775  31.674   7.950
 6353POPC   C4B27034  41.782  31.683   7.650
 6354POPC   NC327035  22.199  33.831   9.450
 6354POPC   PO427036  22.202  33.829   9.150
 6354POPC   GL127037  22.128  33.765   8.850
 6354POPC   GL227038  22.125  33.724   8.850
 6354POPC   C1A27039  22.146  33.767   8.550
 6354POPC   D2A27040  22.132  33.814   8.250
 6354POPC   C3A27041  22.157  33.797   7.950
 6354POPC   C4A27042  22.209  33.838   7.650
 6354POPC   C1B27043  22.052  33.591   8.550
 6354POPC   C2B27044  22.003  33.553   8.250
 6354POPC   C3B27045  22.004  33.622   7.950
 6354POPC   C4B27046  22.010  33.625   7.650
 6355POPC   NC327047  43.893   3.573   9.450
 6355POPC   PO427048  43.885   3.519   9.150
 6355POPC   GL127049  43.907   3.492   8.850
 6355POPC   GL227050  43.886   3.633   8.850
 6355POPC   C1A27051  43.908   3.507   8.550
 6355POPC   D2A27052  43.837   3.529   8.250
 6355POPC   C3A27053  43.901   3.537   7.950
 6355POPC   C4A27054  43.860   3.512   7.650
 6355POPC   C1B27055  43.843   3.761   8.550
 6355POPC   C2B27056  43.854   3.781   8.250
 6355POPC   C3B27057  43.773   3.747   7.950
 6355POPC   C4B27058  43.818   3.760   7.650
 6356POPC   NC327059  36.130  43.841   9.450
 6356POPC   PO427060  36.143  43.918   9.150
 6356POPC   GL127061  36.143  43.844   8.850
 6356POPC   GL227062  36.195  43.983   8.850
 6356POPC   C1A27063  36.155  43.936   8.550
 6356POPC   D2A27064  36.172  43.913   8.250
 6356POPC   C3A27065  36.112  43.927   7.950
 6356POPC   C4A27066  36.162  43.886   7.650
 6356POPC   C1B27067  36.246  44.085   8.550
 6356POPC   C2B27068  36.260  44.159   8.250
 6356POPC   C3B27069  36.223  44.091   7.950
 6356POPC   C4B27070  36.191  44.088   7.650
 6357POPC   NC327071  33.035  37.705   9.450
 6357POPC   PO427072  33.005  37.699   9.150
 6357POPC   GL127073  32.976  37.674   8.850
 6357POPC   GL227074  32.956  37.721   8.850
 6357POPC   C1A27075  33.030  37.688   8.550
 6357POPC   D2A27076  32.997  37.711   8.250
 6357POPC   C3A27077  33.025  37.695   7.950
 6357POPC   C4A27078  33.013  37.682   7.650
 6357POPC   C1B27079  32.874  37.850   8.550
 6357POPC   C2B27080  32.842  37.880   8.250
 6357POPC   C3B27081  32.878  37.824   7.950
 6357POPC   C4B27082  32.862  37.830   7.650
 6358POPC   NC327083  34.549  24.461   9.450
 6358POPC   PO427084  34.549  24.519   9.150
 6358POPC   GL127085  34.583  24.479   8.850
 6358POPC   GL227086  34.666  24.555   8.850
 6358POPC   C1A27087  34.583  24.494   8.550
 6358POPC   D2A27088  34.617  24.471   8.250
 6358POPC   C3A27089  34.625  24.523   7.950
 6358POPC   C4A27090  34.578  24.527   7.650
 6358POPC   C1B27091  34.759  24.615   8.550
 6358POPC   C2B27092  34.796  24.638   8.250
 6358POPC   C3B27093  34.791  24.646   7.950
 6358POPC   C4B27094  34.799  24.644   7.650
 6359POPC   NC327095  23.733  16.707   9.450
 6359POPC   PO427096  23.671  16.758   9.150
 6359POPC   GL127097  23.680  16.761   8.850
 6359POPC   GL227098  23.617  16.821   8.850
 6359POPC   C1A27099  23.682  16.730   8.550
 6359POPC   D2A27100  23.717  16.707   8.250
 6359POPC   C3A27101  23.723  16.747   7.950
 6359POPC   C4A27102  23.675  16.764   7.650
 6359POPC   C1B27103  23.507  16.872   8.550
 6359POPC   C2B27104  23.558  16.927   8.250
 6359POPC   C3B27105  23.529  16.906   7.950
 6359POPC   C4B27106  23.566  16.953   7.650
 6360POPC   NC327107  29.898   2.806   9.450
 6360POPC   PO427108  29.893   2.796   9.150
 6360POPC   GL127109  29.884   2.803   8.850
 6360POPC   GL227110  29.784   2.644   8.850
 6360POPC   C1A27111  29.955   2.763   8.550
 6360POPC   D2A27112  29.926   2.723   8.250
 6360POPC   C3A27113  29.920   2.775   7.950
 6360POPC   C4A27114  29.912   2.722   7.650
 6360POPC   C1B27115  29.707   2.624   8.550
 6360POPC   C2B27116  29.729   2.619   8.250
 6360POPC   C3B27117  29.736   2.641   7.950
 6360POPC   C4B27118  29.687   2.610   7.650
 6361POPC   NC327119  24.446  34.555   9.450
 6361POPC   PO427120  24.443  34.623   9.150
 6361POPC   GL127121  24.452  34.616   8.850
 6361POPC   GL227122  24.556  34.738   8.850
 6361POPC   C1A27123  24.528  34.600   8.550
 6361POPC   D2A27124  24.521  34.591   8.250
 6361POPC   C3A27125  24.518  34.619   7.950
 6361POPC   C4A27126  24.497  34.583   7.650
 6361POPC   C1B27127  24.555  34.751   8.550
 6361POPC   C2B27128  24.642  34.755   8.250
 6361POPC   C3B27129  24.610  34.834   7.950
 6361POPC   C4B27130  24.637  34.790   7.650
 6362POPC   NC327131  40.054  26.777   9.450
 6362POPC   PO427132  39.997  26.768   9.150
 6362POPC   GL127133  40.038  26.773   8.850
 6362POPC   GL227134  39.990  26.946   8.850
 6362POPC   C1A27135  40.026  26.861   8.550
 6362POPC   D2A27136  39.974  26.770   8.250
 6362POPC   C3A27137  39.977  26.815   7.950
 6362POPC   C4A27138  40.040  26.836   7.650
 6362POPC   C1B27139  40.036  27.062   8.550
 6362POPC   C2B27140  40.011  27.064   8.250
 6362POPC   C3B27141  40.002  27.051   7.950
 6362POPC   C4B27142  39.989  27.037   7.650
 6363POPC   NC327143  31.506  34.572   9.450
 6363POPC   PO427144  31.466  34.540   9.150
 6363POPC   GL127145  31.466  34.564   8.850
 6363POPC   GL227146  31.528  34.715   8.850
 6363POPC   C1A27147  31.500  34.609   8.550
 6363POPC   D2A27148  31.434  34.583   8.250
 6363POPC   C3A27149  31.517  34.580   7.950
 6363POPC   C4A27150  31.491  34.566   7.650
 6363POPC   C1B27151  31.613  34.801   8.550
 6363POPC   C2B27152  31.640  34.795   8.250
 6363POPC   C3B27153  31.644  34.768   7.950
 6363POPC   C4B27154  31.609  34.779   7.650
 6364POPC   NC327155  14.414  27.552   9.450
 6364POPC   PO427156  14.382  27.585   9.150
 6364POPC   GL127157  14.432  27.613   8.850
 6364POPC   GL227158  14.511  27.485   8.850
 6364POPC   C1A27159  14.389  27.618   8.550
 6364POPC   D2A27160  14.429  27.611   8.250
 6364POPC   C3A27161  14.436  27.575   7.950
 6364POPC   C4A27162  14.452  27.587   7.650
 6364POPC   C1B27163  14.574  27.487   8.550
 6364POPC   C2B27164  14.642  27.435   8.250
 6364POPC   C3B27165  14.569  27.468   7.950
 6364POPC   C4B27166  14.613  27.480   7.650
 6365POPC   NC327167  28.409  13.608   9.450
 6365POPC   PO427168  28.335  13.612   9.150
 6365POPC   GL127169  28.342  13.589   8.850
 6365POPC   GL227170  28.337  13.551   8.850
 6365POPC   C1A27171  28.338  13.628   8.550
 6365POPC   D2A27172  28.373  13.605   8.250
 6365POPC   C3A27173  28.357  13.671   7.950
 6365POPC   C4A27174  28.368  13.629   7.650
 6365POPC   C1B27175  28.228  13.418   8.550
 6365POPC   C2B27176  28.194  13.437   8.250
 6365POPC   C3B27177  28.188  13.371   7.950
 6365POPC   C4B27178  28.277  13.467   7.650
 6366POPC   NC327179  12.854   0.406   9.450
 6366POPC   PO427180  12.885   0.450   9.150
 6366POPC   GL127181  12.824   0.417   8.850
 6366POPC   GL227182  12.936   0.393   8.850
 6366POPC   C1A27183  12.863   0.393   8.550
 6366POPC   D2A27184  12.823   0.400   8.250
 6366POPC   C3A27185  12.869   0.399   7.950
 6366POPC   C4A27186  12.810   0.426   7.650
 6366POPC   C1B27187  13.038   0.243   8.550
 6366POPC   C2B27188  13.051   0.248   8.250
 6366POPC   C3B27189  13.030   0.333   7.950
 6366POPC   C4B27190  13.007   0.319   7.650
 6367POPC   NC327191  32.205  11.256   9.450
 6367POPC   PO427192  32.217  11.317   9.150
 6367POPC   GL127193  32.273  11.332   8.850
 6367POPC   GL227194  32.289  11.248   8.850
 6367POPC   C1A27195  32.248  11.327   8.550
 6367POPC   D2A27196  32.295  11.315   8.250
 6367POPC   C3A27197  32.289  11.292   7.950
 6367POPC   C4A27198  32.208  11.330   7.650
 6367POPC   C1B27199  32.413  11.130   8.550
 6367POPC   C2B27200  32.456  11.142   8.250
 6367POPC   C3B27201  32.441  11.095   7.950
 6367POPC   C4B27202  32.360  11.157   7.650
 6368POPC   NC327203   2.720  26.819   9.450
 6368POPC   PO427204   2.810  26.853   9.150
 6368POPC   GL127205   2.768  26.867   8.850
 6368POPC   GL227206   2.839  26.940   8.850
 6368POPC   C1A27207   2.780  26.864   8.550
 6368POPC   D2A27208   2.809  26.768   8.250
 6368POPC   C3A27209   2.749  26.806   7.950
 6368POPC   C4A27210   2.766  26.819   7.650
 6368POPC   C1B27211   2.854  27.019   8.550
 6368POPC   C2B27212   2.887  26.986   8.250
 6368POPC   C3B27213   2.878  27.005   7.950
 6368POPC   C4B27214   2.929  26.986   7.650
 6369POPC   NC327215   9.767  42.364   9.450
 6369POPC   PO427216   9.720  42.289   9.150
 6369POPC   GL127217   9.715  42.330   8.850
 6369POPC   GL227218   9.786  42.400   8.850
 6369POPC   C1A27219   9.775  42.326   8.550
 6369POPC   D2A27220   9.704  42.360   8.250
 6369POPC   C3A27221   9.700  42.383   7.950
 6369POPC   C4A27222   9.786  42.360   7.650
 6369POPC   C1B27223   9.901  42.550   8.550
 6369POPC   C2B27224   9.897  42.500   8.250
 6369POPC   C3B27225   9.861  42.511   7.950
 6369POPC   C4B27226   9.902  42.504   7.650
 6370POPC   NC327227   8.950  38.425   9.450
 6370POPC   PO427228   8.933  38.459   9.150
 6370POPC   GL127229   8.991  38.496   8.850
 6370POPC   GL227230   8.878  38.432   8.850
 6370POPC   C1A27231   8.986  38.423   8.550
 6370POPC   D2A27232   8.978  38.410   8.250
 6370POPC   C3A27233   8.929  38.413   7.950
 6370POPC   C4A27234   8.991  38.470   7.650
 6370POPC   C1B27235   8.754  38.376   8.550
 6370POPC   C2B27236   8.703  38.322   8.250
 6370POPC   C3B27237   8.717  38.326   7.950
 6370POPC   C4B27238   8.708  38.367   7.650
 6371POPC   NC327239  23.751  20.657   9.450
 6371POPC   PO427240  23.719  20.646   9.150
 6371POPC   GL127241  23.729  20.583   8.850
 6371POPC   GL227242  23.639  20.480   8.850
 6371POPC   C1A27243  23.704  20.597   8.550
 6371POPC   D2A27244  23.668  20.597   8.250
 6371POPC   C3A27245  23.707  20.657   7.950
 6371POPC   C4A27246  23.731  20.620   7.650
 6371POPC   C1B27247  23.589  20.421   8.550
 6371POPC   C2B27248  23.559  20.384   8.250
 6371POPC   C3B27249  23.555  20.396   7.950
 6371POPC   C4B27250  23.515  20.410   7.650
 6372POPC   NC327251  41.559  19.798   9.450
 6372POPC   PO427252  41.539  19.853   9.150
 6372POPC   GL127253  41.585  19.839   8.850
 6372POPC   GL227254  41.456  19.708   8.850
 6372POPC   C1A27255  41.524  19.853   8.550
 6372POPC   D2A27256  41.518  19.835   8.250
 6372POPC   C3A27257  41.606  19.845   7.950
 6372POPC   C4A27258  41.536  19.856   7.650
 6372POPC   C1B27259  41.434  19.588   8.550
 6372POPC   C2B27260  41.450  19.660   8.250
 6372POPC   C3B27261  41.400  19.592   7.950
 6372POPC   C4B27262  41.415  19.657   7.650
 6373POPC   NC327263   8.174  39.977   9.450
 6373POPC   PO427264   8.212  40.036   9.150
 6373POPC   GL127265   8.176  40.014   8.850
 6373POPC   GL227266   8.241  39.882   8.850
 6373POPC   C1A27267   8.238  40.001   8.550
 6373POPC   D2A27268   8.165  40.018   8.250
 6373POPC   C3A27269   8.149  39.987   7.950
 6373POPC   C4A27270   8.191  39.990   7.650
 6373POPC   C1B27271   8.214  39.733   8.550
 6373POPC   C2B27272   8.143  39.722   8.250
 6373POPC   C3B27273   8.217  39.731   7.950
 6373POPC   C4B27274   8.153  39.790   7.650
 6374POPC   NC327275  37.634   1.251   9.450
 6374POPC   PO427276  37.716   1.176   9.150
 6374POPC   GL127277  37.698   1.202   8.850
 6374POPC   GL227278  37.544   1.139   8.850
 6374POPC   C1A27279  37.659   1.173   8.550
 6374POPC   D2A27280  37.642   1.228   8.250
 6374POPC   C3A27281  37.657   1.184   7.950
 6374POPC   C4A27282  37.680   1.165   7.650
 6374POPC   C1B27283  37.501   1.055   8.550
 6374POPC   C2B27284  37.458   1.101   8.250
 6374POPC   C3B27285  37.479   1.042   7.950
 6374POPC   C4B27286  37.440   1.066   7.650
 6375POPC   NC327287  42.346  20.609   9.450
 6375POPC   PO427288  42.327  20.594   9.150
 6375POPC   GL127289  42.367  20.564   8.850
 6375POPC   GL227290  42.346  20.754   8.850
 6375POPC   C1A27291  42.373  20.636   8.550
 6375POPC   D2A27292  42.380  20.613   8.250
 6375POPC   C3A27293  42.342  20.648   7.950
 6375POPC   C4A27294  42.359  20.561   7.650
 6375POPC   C1B27295  42.338  20.859   8.550
 6375POPC   C2B27296  42.347  20.863   8.250
 6375POPC   C3B27297  42.362  20.820   7.950
 6375POPC   C4B27298  42.402  20.871   7.650
 6376POPC   NC327299  34.618   9.715   9.450
 6376POPC   PO427300  34.584   9.780   9.150
 6376POPC   GL127301  34.527   9.779   8.850
 6376POPC   GL227302  34.440   9.725   8.850
 6376POPC   C1A27303  34.623   9.706   8.550
 6376POPC   D2A27304  34.624   9.760   8.250
 6376POPC   C3A27305  34.618   9.775   7.950
 6376POPC   C4A27306  34.544   9.704   7.650
 6376POPC   C1B27307  34.368   9.701   8.550
 6376POPC   C2B27308  34.362   9.699   8.250
 6376POPC   C3B27309  34.353   9.727   7.950
 6376POPC   C4B27310  34.375   9.714   7.650
 6377POPC   NC327311  26.069  36.124   9.450
 6377POPC   PO427312  26.061  36.151   9.150
 6377POPC   GL127313  26.044  36.160   8.850
 6377POPC   GL227314  25.918  36.221   8.850
 6377POPC   C1A27315  26.018  36.167   8.550
 6377POPC   D2A27316  26.035  36.105   8.250
 6377POPC   C3A27317  26.034  36.100   7.950
 6377POPC   C4A27318  26.035  36.167   7.650
 6377POPC   C1B27319  25.824  36.186   8.550
 6377POPC   C2B27320  25.857  36.258   8.250
 6377POPC   C3B27321  25.823  36.222   7.950
 6377POPC   C4B27322  25.795  36.244   7.650
 6378POPC   NC327323  12.045   9.016   9.450
 6378POPC   PO427324  12.098   8.984   9.150
 6378POPC   GL127325  12.115   8.929   8.850
 6378POPC   GL227326  12.000   8.861   8.850
 6378POPC   C1A27327  12.028   8.946   8.550
 6378POPC   D2A27328  12.053   8.948   8.250
 6378POPC   C3A27329  12.081   8.981   7.950
 6378POPC   C4A27330  12.085   8.987   7.650
 6378POPC   C1B27331  11.867   8.776   8.550
 6378POPC   C2B27332  11.879   8.845   8.250
 6378POPC   C3B27333  11.866   8.798   7.950
 6378POPC   C4B27334  11.898   8.823   7.650
 6379POPC   NC327335  12.047  35.346   9.450
 6379POPC   PO427336  12.060  35.381   9.150
 6379POPC   GL127337  12.104  35.320   8.850
 6379POPC   GL227338  12.219  35.366   8.850
 6379POPC   C1A27339  12.031  35.303   8.550
 6379POPC   D2A27340  12.083  35.367   8.250
 6379POPC   C3A27341  12.067  35.316   7.950
 6379POPC   C4A27342  12.050  35.348   7.650
 6379POPC   C1B27343  12.356  35.314   8.550
 6379POPC   C2B27344  12.325  35.339   8.250
 6379POPC   C3B27345  12.350  35.306   7.950
 6379POPC   C4B27346  12.307  35.342   7.650
 6380POPC   NC327347  20.649  43.073   9.450
 6380POPC   PO427348  20.657  43.088   9.150
 6380POPC   GL127349  20.654  43.103   8.850
 6380POPC   GL227350  20.680  43.209   8.850
 6380POPC   C1A27351  20.610  43.118   8.550
 6380POPC   D2A27352  20.589  43.112   8.250
 6380POPC   C3A27353  20.576  43.157   7.950
 6380POPC   C4A27354  20.563  43.101   7.650
 6380POPC   C1B27355  20.775  43.237   8.550
 6380POPC   C2B27356  20.812  43.221   8.250
 6380POPC   C3B27357  20.765  43.289   7.950
 6380POPC   C4B27358  20.850  43.246   7.650
 6381POPC   NC327359  27.552   2.730   9.450
 6381POPC   PO427360  27.586   2.763   9.150
 6381POPC   GL127361  27.601   2.778   8.850
 6381POPC   GL227362  27.517   2.836   8.850
 6381POPC   C1A27363  27.573   2.731   8.550
 6381POPC   D2A27364  27.640   2.801   8.250
 6381POPC   C3A27365  27.565   2.746   7.950
 6381POPC   C4A27366  27.571   2.750   7.650
 6381POPC   C1B27367  27.418   2.866   8.550
 6381POPC   C2B27368  27.364   2.913   8.250
 6381POPC   C3B27369  27.434   2.892   7.950
 6381POPC   C4B27370  27.352   2.929   7.650
 6382POPC   NC327371  32.233  32.266   9.450
 6382POPC   PO427372  32.292  32.268   9.150
 6382POPC   GL127373  32.215  32.202   8.850
 6382POPC   GL227374  32.222  32.136   8.850
 6382POPC   C1A27375  32.215  32.248   8.550
 6382POPC   D2A27376  32.212  32.249   8.250
 6382POPC   C3A27377  32.246  32.244   7.950
 6382POPC   C4A27378  32.273  32.251   7.650
 6382POPC   C1B27379  32.100  32.063   8.550
 6382POPC   C2B27380  32.156  32.003   8.250
 6382POPC   C3B27381  32.180  31.986   7.950
 6382POPC   C4B27382  32.177  32.027   7.650
 6383POPC   NC327383   9.740  24.451   9.450
 6383POPC   PO427384   9.704  24.456   9.150
 6383POPC   GL127385   9.709  24.501   8.850
 6383POPC   GL227386   9.812  24.336   8.850
 6383POPC   C1A27387   9.776  24.520   8.550
 6383POPC   D2A27388   9.781  24.499   8.250
 6383POPC   C3A27389   9.749  24.498   7.950
 6383POPC   C4A27390   9.714  24.532   7.650
 6383POPC   C1B27391   9.833  24.214   8.550
 6383POPC   C2B27392   9.822  24.231   8.250
 6383POPC   C3B27393   9.839  24.230   7.950
 6383POPC   C4B27394   9.891  24.280   7.650
 6384POPC   NC327395   5.091  19.837   9.450
 6384POPC   PO427396   5.082  19.834   9.150
 6384POPC   GL127397   5.131  19.882   8.850
 6384POPC   GL227398   5.008  19.796   8.850
 6384POPC   C1A27399   5.116  19.820   8.550
 6384POPC   D2A27400   5.065  19.825   8.250
 6384POPC   C3A27401   5.094  19.788   7.950
 6384POPC   C4A27402   5.093  19.838   7.650
 6384POPC   C1B27403   4.858  19.712   8.550
 6384POPC   C2B27404   4.889  19.713   8.250
 6384POPC   C3B27405   4.839  19.777   7.950
 6384POPC   C4B27406   4.824  19.739   7.650
 6385POPC   NC327407  16.709  43.073   9.450
 6385POPC   PO427408  16.690  43.146   9.150
 6385POPC   GL127409  16.727  43.086   8.850
 6385POPC   GL227410  16.846  43.070   8.850
 6385POPC   C1A27411  16.765  43.100   8.550
 6385POPC   D2A27412  16.759  43.156   8.250
 6385POPC   C3A27413  16.732  43.126   7.950
 6385POPC   C4A27414  16.770  43.081   7.650
 6385POPC   C1B27415  16.906  42.987   8.550
 6385POPC   C2B27416  16.910  42.921   8.250
 6385POPC   C3B27417  16.977  43.004   7.950
 6385POPC   C4B27418  16.925  42.958   7.650
 6386POPC   NC327419  36.142  18.271   9.450
 6386POPC   PO427420  36.130  18.286   9.150
 6386POPC   GL127421  36.163  18.279   8.850
 6386POPC   GL227422  36.188  18.242   8.850
 6386POPC   C1A27423  36.168  18.303   8.550
 6386POPC   D2A27424  36.167  18.252   8.250
 6386POPC   C3A27425  36.176  18.250   7.950
 6386POPC   C4A27426  36.130  18.331   7.650
 6386POPC   C1B27427  36.330  18.059   8.550
 6386POPC   C2B27428  36.292  18.154   8.250
 6386POPC   C3B27429  36.276  18.142   7.950
 6386POPC   C4B27430  36.349  18.116   7.650
 6387POPC   NC327431  22.203  10.553   9.450
 6387POPC   PO427432  22.160  10.526   9.150
 6387POPC   GL127433  22.207  10.483   8.850
 6387POPC   GL227434  22.288  10.613   8.850
 6387POPC   C1A27435  22.165  10.480   8.550
 6387POPC   D2A27436  22.160  10.558   8.250
 6387POPC   C3A27437  22.124  10.477   7.950
 6387POPC   C4A27438  22.187  10.553   7.650
 6387POPC   C1B27439  22.399  10.677   8.550
 6387POPC   C2B27440  22.325  10.678   8.250
 6387POPC   C3B27441  22.413  10.686   7.950
 6387POPC   C4B27442  22.380  10.623   7.650
 6388POPC   NC327443  10.508   5.849   9.450
 6388POPC   PO427444  10.491   5.905   9.150
 6388POPC   GL127445  10.474   5.878   8.850
 6388POPC   GL227446  10.435   5.708   8.850
 6388POPC   C1A27447  10.572   5.846   8.550
 6388POPC   D2A27448  10.527   5.822   8.250
 6388POPC   C3A27449  10.486   5.853   7.950
 6388POPC   C4A27450  10.570   5.835   7.650
 6388POPC   C1B27451  10.457   5.626   8.550
 6388POPC   C2B27452  10.442   5.622   8.250
 6388POPC   C3B27453  10.480   5.611   7.950
 6388POPC   C4B27454  10.449   5.620   7.650
 6389POPC   NC327455  16.721  40.034   9.450
 6389POPC   PO427456  16.758  39.969   9.150
 6389POPC   GL127457  16.774  39.966   8.850
 6389POPC   GL227458  16.662  39.882   8.850
 6389POPC   C1A27459  16.775  39.972   8.550
 6389POPC   D2A27460  16.778  40.046   8.250
 6389POPC   C3A27461  16.684  39.979   7.950
 6389POPC   C4A27462  16.754  39.968   7.650
 6389POPC   C1B27463  16.642  39.753   8.550
 6389POPC   C2B27464  16.624  39.759   8.250
 6389POPC   C3B27465  16.691  39.815   7.950
 6389POPC   C4B27466  16.668  39.755   7.650
 6390POPC   NC327467   9.728  31.443   9.450
 6390POPC   PO427468   9.791  31.452   9.150
 6390POPC   GL127469   9.751  31.506   8.850
 6390POPC   GL227470   9.671  31.341   8.850
 6390POPC   C1A27471   9.721  31.435   8.550
 6390POPC   D2A27472   9.782  31.431   8.250
 6390POPC   C3A27473   9.735  31.486   7.950
 6390POPC   C4A27474   9.756  31.465   7.650
 6390POPC   C1B27475   9.631  31.266   8.550
 6390POPC   C2B27476   9.580  31.301   8.250
 6390POPC   C3B27477   9.659  31.297   7.950
 6390POPC   C4B27478   9.637  31.243   7.650
 6391POPC   NC327479   0.432  26.805   9.450
 6391POPC   PO427480   0.421  26.769   9.150
 6391POPC   GL127481   0.482  26.853   8.850
 6391POPC   GL227482   0.353  26.834   8.850
 6391POPC   C1A27483   0.446  26.809   8.550
 6391POPC   D2A27484   0.455  26.808   8.250
 6391POPC   C3A27485   0.433  26.771   7.950
 6391POPC   C4A27486   0.403  26.807   7.650
 6391POPC   C1B27487   0.173  26.840   8.550
 6391POPC   C2B27488   0.144  26.848   8.250
 6391POPC   C3B27489   0.184  26.797   7.950
 6391POPC   C4B27490   0.165  26.829   7.650
 6392POPC   NC327491  32.227  38.448   9.450
 6392POPC   PO427492  32.287  38.435   9.150
 6392POPC   GL127493  32.263  38.459   8.850
 6392POPC   GL227494  32.290  38.363   8.850
 6392POPC   C1A27495  32.252  38.476   8.550
 6392POPC   D2A27496  32.289  38.445   8.250
 6392POPC   C3A27497  32.228  38.435   7.950
 6392POPC   C4A27498  32.235  38.471   7.650
 6392POPC   C1B27499  32.279  38.190   8.550
 6392POPC   C2B27500  32.341  38.218   8.250
 6392POPC   C3B27501  32.262  38.240   7.950
 6392POPC   C4B27502  32.300  38.237   7.650
 6393POPC   NC327503   0.410  27.596   9.450
 6393POPC   PO427504   0.445  27.548   9.150
 6393POPC   GL127505   0.443  27.574   8.850
 6393POPC   GL227506   0.308  27.596   8.850
 6393POPC   C1A27507   0.458  27.627   8.550
 6393POPC   D2A27508   0.465  27.623   8.250
 6393POPC   C3A27509   0.464  27.636   7.950
 6393POPC   C4A27510   0.445  27.602   7.650
 6393POPC   C1B27511   0.142  27.591   8.550
 6393POPC   C2B27512   0.188  27.610   8.250
 6393POPC   C3B27513   0.150  27.608   7.950
 6393POPC   C4B27514   0.180  27.532   7.650
 6394POPC   NC327515  28.325   6.655   9.450
 6394POPC   PO427516  28.396   6.626   9.150
 6394POPC   GL127517  28.398   6.610   8.850
 6394POPC   GL227518  28.500   6.672   8.850
 6394POPC   C1A27519  28.337   6.686   8.550
 6394POPC   D2A27520  28.381   6.631   8.250
 6394POPC   C3A27521  28.385   6.645   7.950
 6394POPC   C4A27522  28.332   6.595   7.650
 6394POPC   C1B27523  28.631   6.691   8.550
 6394POPC   C2B27524  28.665   6.651   8.250
 6394POPC   C3B27525  28.590   6.665   7.950
 6394POPC   C4B27526  28.607   6.659   7.650
 6395POPC   NC327527  26.030   2.778   9.450
 6395POPC   PO427528  26.010   2.763   9.150
 6395POPC   GL127529  26.091   2.803   8.850
 6395POPC   GL227530  25.943   2.692   8.850
 6395POPC   C1A27531  26.068   2.812   8.550
 6395POPC   D2A27532  26.071   2.806   8.250
 6395POPC   C3A27533  26.006   2.799   7.950
 6395POPC   C4A27534  26.014   2.755   7.650
 6395POPC   C1B27535  25.859   2.584   8.550
 6395POPC   C2B27536  25.883   2.613   8.250
 6395POPC   C3B27537  25.887   2.538   7.950
 6395POPC   C4B27538  25.898   2.612   7.650
 6396POPC   NC327539  10.482  33.787   9.450
 6396POPC   PO427540  10.485  33.766   9.150
 6396POPC   GL127541  10.482  33.760   8.850
 6396POPC   GL227542  10.644  33.848   8.850
 6396POPC   C1A27543  10.567  33.808   8.550
 6396POPC   D2A27544  10.480  33.835   8.250
 6396POPC   C3A27545  10.545  33.778   7.950
 6396POPC   C4A27546  10.537  33.816   7.650
 6396POPC   C1B27547  10.811  33.854   8.550
 6396POPC   C2B27548  10.809  33.875   8.250
 6396POPC   C3B27549  10.772  33.893   7.950
 6396POPC   C4B27550  10.747  33.815   7.650
 6397POPC   NC327551   8.923  22.127   9.450
 6397POPC   PO427552   8.934  22.161   9.150
 6397POPC   GL127553   8.949  22.150   8.850
 6397POPC   GL227554   8.874  22.191   8.850
 6397POPC   C1A27555   8.990  22.209   8.550
 6397POPC   D2A27556   8.994  22.159   8.250
 6397POPC   C3A27557   8.980  22.183   7.950
 6397POPC   C4A27558   9.004  22.165   7.650
 6397POPC   C1B27559   8.746  22.194   8.550
 6397POPC   C2B27560   8.716  22.275   8.250
 6397POPC   C3B27561   8.726  22.262   7.950
 6397POPC   C4B27562   8.731  22.264   7.650
 6398POPC   NC327563   1.990  43.065   9.450
 6398POPC   PO427564   1.940  43.153   9.150
 6398POPC   GL127565   1.966  43.129   8.850
 6398POPC   GL227566   2.146  43.049   8.850
 6398POPC   C1A27567   1.997  43.131   8.550
 6398POPC   D2A27568   1.983  43.078   8.250
 6398POPC   C3A27569   1.983  43.124   7.950
 6398POPC   C4A27570   1.982  43.135   7.650
 6398POPC   C1B27571   2.232  42.998   8.550
 6398POPC   C2B27572   2.238  42.989   8.250
 6398POPC   C3B27573   2.191  43.012   7.950
 6398POPC   C4B27574   2.183  42.969   7.650
 6399POPC   NC327575   4.305  36.916   9.450
 6399POPC   PO427576   4.338  36.867   9.150
 6399POPC   GL127577   4.338  36.924   8.850
 6399POPC   GL227578   4.325  36.746   8.850
 6399POPC   C1A27579   4.365  36.948   8.550
 6399POPC   D2A27580   4.325  36.906   8.250
 6399POPC   C3A27581   4.315  36.868   7.950
 6399POPC   C4A27582   4.308  36.904   7.650
 6399POPC   C1B27583   4.281  36.629   8.550
 6399POPC   C2B27584   4.303  36.626   8.250
 6399POPC   C3B27585   4.277  36.698   7.950
 6399POPC   C4B27586   4.352  36.619   7.650
 6400POPC   NC327587  40.004   3.530   9.450
 6400POPC   PO427588  39.979   3.565   9.150
 6400POPC   GL127589  40.029   3.512   8.850
 6400POPC   GL227590  39.925   3.508   8.850
 6400POPC   C1A27591  40.001   3.523   8.550
 6400POPC   D2A27592  39.957   3.575   8.250
 6400POPC   C3A27593  40.000   3.546   7.950
 6400POPC   C4A27594  40.012   3.493   7.650
 6400POPC   C1B27595  39.843   3.425   8.550
 6400POPC   C2B27596  39.827   3.425   8.250
 6400POPC   C3B27597  39.799   3.406   7.950
 6400POPC   C4B27598  39.816   3.430   7.650
 6401POPC   NC327599  23.697  24.494   9.450
 6401POPC   PO427600  23.734  24.513   9.150
 6401POPC   GL127601  23.756  24.520   8.850
 6401POPC   GL227602  23.651  24.460   8.850
 6401POPC   C1A27603  23.715  24.511   8.550
 6401POPC   D2A27604  23.732  24.504   8.250
 6401POPC   C3A27605  23.683  24.533   7.950
 6401POPC   C4A27606  23.723  24.459   7.650
 6401POPC   C1B27607  23.513  24.400   8.550
 6401POPC   C2B27608  23.493  24.357   8.250
 6401POPC   C3B27609  23.469  24.427   7.950
 6401POPC   C4B27610  23.531  24.367   7.650
 6402POPC   NC327611  19.824   4.274   9.450
 6402POPC   PO427612  19.841   4.296   9.150
 6402POPC   GL127613  19.837   4.316   8.850
 6402POPC   GL227614  19.829   4.223   8.850
 6402POPC   C1A27615  19.870   4.347   8.550
 6402POPC   D2A27616  19.841   4.340   8.250
 6402POPC   C3A27617  19.828   4.317   7.950
 6402POPC   C4A27618  19.883   4.338   7.650
 6402POPC   C1B27619  19.798   4.042   8.550
 6402POPC   C2B27620  19.843   4.056   8.250
 6402POPC   C3B27621  19.826   4.099   7.950
 6402POPC   C4B27622  19.806   4.026   7.650
 6403POPC   NC327623   5.082  22.142   9.450
 6403POPC   PO427624   5.115  22.154   9.150
 6403POPC   GL127625   5.119  22.210   8.850
 6403POPC   GL227626   4.966  22.266   8.850
 6403POPC   C1A27627   5.083  22.177   8.550
 6403POPC   D2A27628   5.049  22.196   8.250
 6403POPC   C3A27629   5.124  22.187   7.950
 6403POPC   C4A27630   5.128  22.158   7.650
 6403POPC   C1B27631   4.978  22.357   8.550
 6403POPC   C2B27632   4.959  22.343   8.250
 6403POPC   C3B27633   4.891  22.361   7.950
 6403POPC   C4B27634   4.906  22.319   7.650
 6404POPC   NC327635  18.308   6.681   9.450
 6404POPC   PO427636  18.260   6.614   9.150
 6404POPC   GL127637  18.298   6.600   8.850
 6404POPC   GL227638  18.160   6.747   8.850
 6404POPC   C1A27639  18.284   6.609   8.550
 6404POPC   D2A27640  18.238   6.654   8.250
 6404POPC   C3A27641  18.269   6.692   7.950
 6404POPC   C4A27642  18.288   6.677   7.650
 6404POPC   C1B27643  18.144   6.819   8.550
 6404POPC   C2B27644  18.129   6.811   8.250
 6404POPC   C3B27645  18.072   6.781   7.950
 6404POPC   C4B27646  18.107   6.793   7.650
 6405POPC   NC327647  16.762  18.313   9.450
 6405POPC   PO427648  16.776  18.243   9.150
 6405POPC   GL127649  16.728  18.295   8.850
 6405POPC   GL227650  16.654  18.280   8.850
 6405POPC   C1A27651  16.743  18.250   8.550
 6405POPC   D2A27652  16.695  18.288   8.250
 6405POPC   C3A27653  16.750  18.244   7.950
 6405POPC   C4A27654  16.769  18.235   7.650
 6405POPC   C1B27655  16.499  18.169   8.550
 6405POPC   C2B27656  16.498  18.196   8.250
 6405POPC   C3B27657  16.511  18.218   7.950
 6405POPC   C4B27658  16.487  18.191   7.650
 6406POPC   NC327659  19.024   2.745   9.450
 6406POPC   PO427660  19.066   2.779   9.150
 6406POPC   GL127661  19.044   2.802   8.850
 6406POPC   GL227662  19.191   2.887   8.850
 6406POPC   C1A27663  19.079   2.777   8.550
 6406POPC   D2A27664  19.069   2.727   8.250
 6406POPC   C3A27665  19.088   2.726   7.950
 6406POPC   C4A27666  19.043   2.786   7.650
 6406POPC   C1B27667  19.240   2.950   8.550
 6406POPC   C2B27668  19.235   2.887   8.250
 6406POPC   C3B27669  19.205   2.954   7.950
 6406POPC   C4B27670  19.240   2.890   7.650
 6407POPC   NC327671  13.639  21.349   9.450
 6407POPC   PO427672  13.605  21.363   9.150
 6407POPC   GL127673  13.593  21.388   8.850
 6407POPC   GL227674  13.735  21.380   8.850
 6407POPC   C1A27675  13.583  21.403   8.550
 6407POPC   D2A27676  13.675  21.404   8.250
 6407POPC   C3A27677  13.597  21.337   7.950
 6407POPC   C4A27678  13.622  21.368   7.650
 6407POPC   C1B27679  13.890  21.404   8.550
 6407POPC   C2B27680  13.883  21.436   8.250
 6407POPC   C3B27681  13.850  21.474   7.950
 6407POPC   C4B27682  13.883  21.461   7.650
 6408POPC   NC327683  22.954   5.137   9.450
 6408POPC   PO427684  22.911   5.053   9.150
 6408POPC   GL127685  22.912   5.083   8.850
 6408POPC   GL227686  22.786   5.147   8.850
 6408POPC   C1A27687  22.910   5.132   8.550
 6408POPC   D2A27688  22.958   5.140   8.250
 6408POPC   C3A27689  22.936   5.046   7.950
 6408POPC   C4A27690  22.968   5.091   7.650
 6408POPC   C1B27691  22.680   5.117   8.550
 6408POPC   C2B27692  22.740   5.119   8.250
 6408POPC   C3B27693  22.711   5.174   7.950
 6408POPC   C4B27694  22.663   5.149   7.650
 6409POPC   NC327695   9.724  22.155   9.450
 6409POPC   PO427696   9.798  22.191   9.150
 6409POPC   GL127697   9.723  22.143   8.850
 6409POPC   GL227698   9.857  22.213   8.850
 6409POPC   C1A27699   9.776  22.204   8.550
 6409POPC   D2A27700   9.735  22.200   8.250
 6409POPC   C3A27701   9.759  22.147   7.950
 6409POPC   C4A27702   9.733  22.187   7.650
 6409POPC   C1B27703   9.936  22.323   8.550
 6409POPC   C2B27704   9.901  22.385   8.250
 6409POPC   C3B27705   9.876  22.389   7.950
 6409POPC   C4B27706   9.923  22.337   7.650
 6410POPC   NC327707  36.919  29.957   9.450
 6410POPC   PO427708  36.903  29.933   9.150
 6410POPC   GL127709  36.920  29.936   8.850
 6410POPC   GL227710  36.977  30.013   8.850
 6410POPC   C1A27711  36.889  29.937   8.550
 6410POPC   D2A27712  36.947  29.891   8.250
 6410POPC   C3A27713  36.854  29.906   7.950
 6410POPC   C4A27714  36.952  29.889   7.650
 6410POPC   C1B27715  37.093  30.093   8.550
 6410POPC   C2B27716  37.096  30.100   8.250
 6410POPC   C3B27717  37.079  30.146   7.950
 6410POPC   C4B27718  37.079  30.156   7.650
 6411POPC   NC327719  29.191   1.953   9.450
 6411POPC   PO427720  29.189   1.982   9.150
 6411POPC   GL127721  29.173   2.039   8.850
 6411POPC   GL227722  29.074   2.067   8.850
 6411POPC   C1A27723  29.121   2.017   8.550
 6411POPC   D2A27724  29.106   1.950   8.250
 6411POPC   C3A27725  29.179   2.007   7.950
 6411POPC   C4A27726  29.126   1.983   7.650
 6411POPC   C1B27727  28.937   2.150   8.550
 6411POPC   C2B27728  28.972   2.100   8.250
 6411POPC   C3B27729  28.908   2.179   7.950
 6411POPC   C4B27730  28.935   2.115   7.650
 6412POPC   NC327731   3.575   5.119   9.450
 6412POPC   PO427732   3.523   5.075   9.150
 6412POPC   GL127733   3.539   5.091   8.850
 6412POPC   GL227734   3.618   5.227   8.850
 6412POPC   C1A27735   3.568   5.079   8.550
 6412POPC   D2A27736   3.504   5.124   8.250
 6412POPC   C3A27737   3.535   5.117   7.950
 6412POPC   C4A27738   3.515   5.084   7.650
 6412POPC   C1B27739   3.772   5.233   8.550
 6412POPC   C2B27740   3.767   5.272   8.250
 6412POPC   C3B27741   3.698   5.226   7.950
 6412POPC   C4B27742   3.678   5.293   7.650
 6413POPC   NC327743  12.828  22.917   9.450
 6413POPC   PO427744  12.902  22.986   9.150
 6413POPC   GL127745  12.875  22.898   8.850
 6413POPC   GL227746  12.901  23.086   8.850
 6413POPC   C1A27747  12.892  22.934   8.550
 6413POPC   D2A27748  12.897  22.925   8.250
 6413POPC   C3A27749  12.887  22.971   7.950
 6413POPC   C4A27750  12.813  22.888   7.650
 6413POPC   C1B27751  12.898  23.188   8.550
 6413POPC   C2B27752  12.914  23.164   8.250
 6413POPC   C3B27753  12.907  23.196   7.950
 6413POPC   C4B27754  12.946  23.169   7.650
 6414POPC   NC327755   2.752  38.461   9.450
 6414POPC   PO427756   2.814  38.420   9.150
 6414POPC   GL127757   2.752  38.461   8.850
 6414POPC   GL227758   2.715  38.563   8.850
 6414POPC   C1A27759   2.800  38.452   8.550
 6414POPC   D2A27760   2.727  38.477   8.250
 6414POPC   C3A27761   2.735  38.443   7.950
 6414POPC   C4A27762   2.787  38.413   7.650
 6414POPC   C1B27763   2.595  38.598   8.550
 6414POPC   C2B27764   2.592  38.592   8.250
 6414POPC   C3B27765   2.616  38.578   7.950
 6414POPC   C4B27766   2.596  38.580   7.650
 6415POPC   NC327767   5.115  28.384   9.450
 6415POPC   PO427768   5.119  28.347   9.150
 6415POPC   GL127769   5.067  28.341   8.850
 6415POPC   GL227770   4.999  28.434   8.850
 6415POPC   C1A27771   5.121  28.371   8.550
 6415POPC   D2A27772   5.101  28.331   8.250
 6415POPC   C3A27773   5.057  28.349   7.950
 6415POPC   C4A27774   5.085  28.345   7.650
 6415POPC   C1B27775   4.953  28.541   8.550
 6415POPC   C2B27776   4.910  28.513   8.250
 6415POPC   C3B27777   4.867  28.587   7.950
 6415POPC   C4B27778   4.891  28.566   7.650
 6416POPC   NC327779  29.916  21.417   9.450
 6416POPC   PO427780  29.959  21.386   9.150
 6416POPC   GL127781  29.879  21.339   8.850
 6416POPC   GL227782  29.929  21.474   8.850
 6416POPC   C1A27783  29.970  21.421   8.550
 6416POPC   D2A27784  29.902  21.337   8.250
 6416POPC   C3A27785  29.955  21.435   7.950
 6416POPC   C4A27786  29.948  21.344   7.650
 6416POPC   C1B27787  29.970  21.654   8.550
 6416POPC   C2B27788  29.961  21.582   8.250
 6416POPC   C3B27789  30.007  21.622   7.950
 6416POPC   C4B27790  30.000  21.597   7.650
 6417POPC   NC327791  43.078  17.488   9.450
 6417POPC   PO427792  43.144  17.530   9.150
 6417POPC   GL127793  43.074  17.507   8.850
 6417POPC   GL227794  43.200  17.438   8.850
 6417POPC   C1A27795  43.107  17.485   8.550
 6417POPC   D2A27796  43.062  17.552   8.250
 6417POPC   C3A27797  43.142  17.497   7.950
 6417POPC   C4A27798  43.079  17.496   7.650
 6417POPC   C1B27799  43.254  17.319   8.550
 6417POPC   C2B27800  43.315  17.278   8.250
 6417POPC   C3B27801  43.302  17.306   7.950
 6417POPC   C4B27802  43.327  17.293   7.650
 6418POPC   NC327803   0.470  25.286   9.450
 6418POPC   PO427804   0.400  25.232   9.150
 6418POPC   GL127805   0.444  25.292   8.850
 6418POPC   GL227806   0.334  25.171   8.850
 6418POPC   C1A27807   0.480  25.223   8.550
 6418POPC   D2A27808   0.449  25.294   8.250
 6418POPC   C3A27809   0.479  25.297   7.950
 6418POPC   C4A27810   0.425  25.282   7.650
 6418POPC   C1B27811   0.254  25.122   8.550
 6418POPC   C2B27812   0.204  25.174   8.250
 6418POPC   C3B27813   0.190  25.144   7.950
 6418POPC   C4B27814   0.260  25.111   7.650
 6419POPC   NC327815  17.538  32.271   9.450
 6419POPC   PO427816  17.470  32.244   9.150
 6419POPC   GL127817  17.496  32.272   8.850
 6419POPC   GL227818  17.542  32.382   8.850
 6419POPC   C1A27819  17.535  32.267   8.550
 6419POPC   D2A27820  17.462  32.287   8.250
 6419POPC   C3A27821  17.490  32.257   7.950
 6419POPC   C4A27822  17.502  32.258   7.650
 6419POPC   C1B27823  17.503  32.485   8.550
 6419POPC   C2B27824  17.540  32.511   8.250
 6419POPC   C3B27825  17.573  32.494   7.950
 6419POPC   C4B27826  17.567  32.531   7.650
 6420POPC   NC327827  35.395  38.492   9.450
 6420POPC   PO427828  35.322  38.465   9.150
 6420POPC   GL127829  35.303  38.481   8.850
 6420POPC   GL227830  35.275  38.345   8.850
 6420POPC   C1A27831  35.319  38.431   8.550
 6420POPC   D2A27832  35.361  38.505   8.250
 6420POPC   C3A27833  35.363  38.408   7.950
 6420POPC   C4A27834  35.328  38.462   7.650
 6420POPC   C1B27835  35.262  38.254   8.550
 6420POPC   C2B27836  35.241  38.217   8.250
 6420POPC   C3B27837  35.278  38.177   7.950
 6420POPC   C4B27838  35.235  38.179   7.650
 6421POPC   NC327839  29.942  38.450   9.450
 6421POPC   PO427840  29.898  38.462   9.150
 6421POPC   GL127841  29.876  38.436   8.850
 6421POPC   GL227842  30.093  38.463   8.850
 6421POPC   C1A27843  29.957  38.477   8.550
 6421POPC   D2A27844  29.947  38.444   8.250
 6421POPC   C3A27845  29.951  38.440   7.950
 6421POPC   C4A27846  29.905  38.425   7.650
 6421POPC   C1B27847  30.158  38.410   8.550
 6421POPC   C2B27848  30.190  38.478   8.250
 6421POPC   C3B27849  30.206  38.452   7.950
 6421POPC   C4B27850  30.124  38.456   7.650
 6422POPC   NC327851  32.207   7.413   9.450
 6422POPC   PO427852  32.233   7.385   9.150
 6422POPC   GL127853  32.261   7.393   8.850
 6422POPC   GL227854  32.368   7.369   8.850
 6422POPC   C1A27855  32.283   7.431   8.550
 6422POPC   D2A27856  32.249   7.446   8.250
 6422POPC   C3A27857  32.247   7.442   7.950
 6422POPC   C4A27858  32.204   7.425   7.650
 6422POPC   C1B27859  32.433   7.259   8.550
 6422POPC   C2B27860  32.440   7.277   8.250
 6422POPC   C3B27861  32.442   7.348   7.950
 6422POPC   C4B27862  32.506   7.346   7.650
 6423POPC   NC327863  24.474  32.978   9.450
 6423POPC   PO427864  24.528  33.039   9.150
 6423POPC   GL127865  24.469  33.012   8.850
 6423POPC   GL227866  24.425  33.003   8.850
 6423POPC   C1A27867  24.485  32.999   8.550
 6423POPC   D2A27868  24.464  33.005   8.250
 6423POPC   C3A27869  24.517  33.038   7.950
 6423POPC   C4A27870  24.537  33.048   7.650
 6423POPC   C1B27871  24.306  32.923   8.550
 6423POPC   C2B27872  24.256  32.878   8.250
 6423POPC   C3B27873  24.237  32.876   7.950
 6423POPC   C4B27874  24.256  32.877   7.650
 6424POPC   NC327875  38.409  39.264   9.450
 6424POPC   PO427876  38.481  39.204   9.150
 6424POPC   GL127877  38.418  39.246   8.850
 6424POPC   GL227878  38.567  39.174   8.850
 6424POPC   C1A27879  38.485  39.242   8.550
 6424POPC   D2A27880  38.487  39.265   8.250
 6424POPC   C3A27881  38.432  39.205   7.950
 6424POPC   C4A27882  38.470  39.242   7.650
 6424POPC   C1B27883  38.751  39.208   8.550
 6424POPC   C2B27884  38.652  39.189   8.250
 6424POPC   C3B27885  38.693  39.207   7.950
 6424POPC   C4B27886  38.702  39.194   7.650
 6425POPC   NC327887  15.940  29.179   9.450
 6425POPC   PO427888  15.965  29.177   9.150
 6425POPC   GL127889  15.953  29.132   8.850
 6425POPC   GL227890  15.873  29.124   8.850
 6425POPC   C1A27891  15.912  29.095   8.550
 6425POPC   D2A27892  15.944  29.133   8.250
 6425POPC   C3A27893  15.993  29.115   7.950
 6425POPC   C4A27894  15.983  29.106   7.650
 6425POPC   C1B27895  15.739  29.174   8.550
 6425POPC   C2B27896  15.671  29.235   8.250
 6425POPC   C3B27897  15.746  29.143   7.950
 6425POPC   C4B27898  15.756  29.239   7.650
 6426POPC   NC327899   2.728  12.076   9.450
 6426POPC   PO427900   2.803  12.055   9.150
 6426POPC   GL127901   2.757  12.109   8.850
 6426POPC   GL227902   2.811  12.206   8.850
 6426POPC   C1A27903   2.745  12.083   8.550
 6426POPC   D2A27904   2.739  12.086   8.250
 6426POPC   C3A27905   2.782  12.102   7.950
 6426POPC   C4A27906   2.807  12.086   7.650
 6426POPC   C1B27907   2.916  12.326   8.550
 6426POPC   C2B27908   2.894  12.241   8.250
 6426POPC   C3B27909   2.906  12.291   7.950
 6426POPC   C4B27910   2.881  12.263   7.650
 6427POPC   NC327911   3.587  12.820   9.450
 6427POPC   PO427912   3.562  12.881   9.150
 6427POPC   GL127913   3.587  12.863   8.850
 6427POPC   GL227914   3.448  12.897   8.850
 6427POPC   C1A27915   3.519  12.847   8.550
 6427POPC   D2A27916   3.521  12.863   8.250
 6427POPC   C3A27917   3.543  12.896   7.950
 6427POPC   C4A27918   3.564  12.859   7.650
 6427POPC   C1B27919   3.263  12.891   8.550
 6427POPC   C2B27920   3.308  12.910   8.250
 6427POPC   C3B27921   3.246  12.873   7.950
 6427POPC   C4B27922   3.250  12.891   7.650
 6428POPC   NC327923  44.709  14.364   9.450
 6428POPC   PO427924  44.633  14.413   9.150
 6428POPC   GL127925  44.710  14.366   8.850
 6428POPC   GL227926  44.523  14.311   8.850
 6428POPC   C1A27927  44.671  14.355   8.550
 6428POPC   D2A27928  44.642  14.391   8.250
 6428POPC   C3A27929  44.697  14.377   7.950
 6428POPC   C4A27930  44.679  14.386   7.650
 6428POPC   C1B27931  44.399  14.287   8.550
 6428POPC   C2B27932  44.467  14.343   8.250
 6428POPC   C3B27933  44.449  14.309   7.950
 6428POPC   C4B27934  44.397  14.332   7.650
 6429POPC   NC327935  33.762  43.852   9.450
 6429POPC   PO427936  33.806  43.851   9.150
 6429POPC   GL127937  33.786  43.861   8.850
 6429POPC   GL227938  33.893  43.769   8.850
 6429POPC   C1A27939  33.763  43.879   8.550
 6429POPC   D2A27940  33.782  43.918   8.250
 6429POPC   C3A27941  33.831  43.884   7.950
 6429POPC   C4A27942  33.777  43.894   7.650
 6429POPC   C1B27943  33.910  43.723   8.550
 6429POPC   C2B27944  33.927  43.700   8.250
 6429POPC   C3B27945  33.917  43.688   7.950
 6429POPC   C4B27946  33.966  43.660   7.650
 6430POPC   NC327947   5.065  29.872   9.450
 6430POPC   PO427948   5.114  29.889   9.150
 6430POPC   GL127949   5.123  29.960   8.850
 6430POPC   GL227950   5.026  29.820   8.850
 6430POPC   C1A27951   5.109  29.953   8.550
 6430POPC   D2A27952   5.101  29.943   8.250
 6430POPC   C3A27953   5.123  29.927   7.950
 6430POPC   C4A27954   5.080  29.970   7.650
 6430POPC   C1B27955   4.882  29.779   8.550
 6430POPC   C2B27956   4.938  29.700   8.250
 6430POPC   C3B27957   4.949  29.736   7.950
 6430POPC   C4B27958   4.918  29.701   7.650
 6431POPC   NC327959  34.531  26.844   9.450
 6431POPC   PO427960  34.620  26.862   9.150
 6431POPC   GL127961  34.596  26.817   8.850
 6431POPC   GL227962  34.425  26.815   8.850
 6431POPC   C1A27963  34.564  26.784   8.550
 6431POPC   D2A27964  34.604  26.855   8.250
 6431POPC   C3A27965  34.529  26.819   7.950
 6431POPC   C4A27966  34.600  26.797   7.650
 6431POPC   C1B27967  34.366  26.703   8.550
 6431POPC   C2B27968  34.303  26.733   8.250
 6431POPC   C3B27969  34.301  26.765   7.950
 6431POPC   C4B27970  34.291  26.747   7.650
 6432POPC   NC327971  22.932  14.383   9.450
 6432POPC   PO427972  22.921  14.367   9.150
 6432POPC   GL127973  22.925  14.371   8.850
 6432POPC   GL227974  22.965  14.548   8.850
 6432POPC   C1A27975  22.909  14.358   8.550
 6432POPC   D2A27976  22.983  14.403   8.250
 6432POPC   C3A27977  22.945  14.411   7.950
 6432POPC   C4A27978  22.937  14.406   7.650
 6432POPC   C1B27979  23.069  14.601   8.550
 6432POPC   C2B27980  23.112  14.640   8.250
 6432POPC   C3B27981  23.117  14.643   7.950
 6432POPC   C4B27982  23.056  14.613   7.650
 6433POPC   NC327983  15.211  28.404   9.450
 6433POPC   PO427984  15.159  28.359   9.150
 6433POPC   GL127985  15.156  28.385   8.850
 6433POPC   GL227986  15.084  28.316   8.850
 6433POPC   C1A27987  15.147  28.325   8.550
 6433POPC   D2A27988  15.168  28.408   8.250
 6433POPC   C3A27989  15.177  28.402   7.950
 6433POPC   C4A27990  15.214  28.379   7.650
 6433POPC   C1B27991  14.953  28.178   8.550
 6433POPC   C2B27992  15.027  28.222   8.250
 6433POPC   C3B27993  15.042  28.167   7.950
 6433POPC   C4B27994  14.979  28.182   7.650
 6434POPC   NC327995  26.011  39.205   9.450
 6434POPC   PO427996  26.061  39.244   9.150
 6434POPC   GL127997  26.064  39.256   8.850
 6434POPC   GL227998  26.052  39.339   8.850
 6434POPC   C1A27999  26.075  39.212   8.550
 6434POPC   D2A28000  26.004  39.193   8.250
 6434POPC   C3A28001  26.047  39.226   7.950
 6434POPC   C4A28002  26.067  39.250   7.650
 6434POPC   C1B28003  26.156  39.496   8.550
 6434POPC   C2B28004  26.085  39.437   8.250
 6434POPC   C3B28005  26.130  39.475   7.950
 6434POPC   C4B28006  26.123  39.422   7.650
 6435POPC   NC328007  34.598  29.884   9.450
 6435POPC   PO428008  34.579  29.947   9.150
 6435POPC   GL128009  34.618  29.960   8.850
 6435POPC   GL228010  34.485  29.988   8.850
 6435POPC   C1A28011  34.563  29.924   8.550
 6435POPC   D2A28012  34.553  29.955   8.250
 6435POPC   C3A28013  34.559  29.954   7.950
 6435POPC   C4A28014  34.564  29.954   7.650
 6435POPC   C1B28015  34.362  30.149   8.550
 6435POPC   C2B28016  34.368  30.065   8.250
 6435POPC   C3B28017  34.439  30.119   7.950
 6435POPC   C4B28018  34.383  30.113   7.650
 6436POPC   NC328019  12.050  33.043   9.450
 6436POPC   PO428020  12.053  33.020   9.150
 6436POPC   GL128021  12.101  32.993   8.850
 6436POPC   GL228022  12.126  32.884   8.850
 6436POPC   C1A28023  12.074  32.987   8.550
 6436POPC   D2A28024  12.056  33.045   8.250
 6436POPC   C3A28025  12.032  33.043   7.950
 6436POPC   C4A28026  12.118  32.988   7.650
 6436POPC   C1B28027  12.180  32.771   8.550
 6436POPC   C2B28028  12.220  32.777   8.250
 6436POPC   C3B28029  12.186  32.761   7.950
 6436POPC   C4B28030  12.155  32.753   7.650
 6437POPC   NC328031   8.237  19.082   9.450
 6437POPC   PO428032   8.210  19.068   9.150
 6437POPC   GL128033   8.153  19.092   8.850
 6437POPC   GL228034   8.305  19.113   8.850
 6437POPC   C1A28035   8.236  19.039   8.550
 6437POPC   D2A28036   8.211  19.096   8.250
 6437POPC   C3A28037   8.244  19.088   7.950
 6437POPC   C4A28038   8.220  19.030   7.650
 6437POPC   C1B28039   8.375  19.207   8.550
 6437POPC   C2B28040   8.362  19.254   8.250
 6437POPC   C3B28041   8.398  19.215   7.950
 6437POPC   C4B28042   8.394  19.296   7.650
 6438POPC   NC328043  12.103  11.261   9.450
 6438POPC   PO428044  12.030  11.263   9.150
 6438POPC   GL128045  12.111  11.296   8.850
 6438POPC   GL228046  12.126  11.418   8.850
 6438POPC   C1A28047  12.122  11.267   8.550
 6438POPC   D2A28048  12.078  11.289   8.250
 6438POPC   C3A28049  12.051  11.257   7.950
 6438POPC   C4A28050  12.104  11.270   7.650
 6438POPC   C1B28051  12.082  11.528   8.550
 6438POPC   C2B28052  12.145  11.497   8.250
 6438POPC   C3B28053  12.140  11.538   7.950
 6438POPC   C4B28054  12.148  11.573   7.650
 6439POPC   NC328055   6.609  39.992   9.450
 6439POPC   PO428056   6.614  40.003   9.150
 6439POPC   GL128057   6.655  40.023   8.850
 6439POPC   GL228058   6.578  39.863   8.850
 6439POPC   C1A28059   6.602  40.012   8.550
 6439POPC   D2A28060   6.655  39.984   8.250
 6439POPC   C3A28061   6.648  39.975   7.950
 6439POPC   C4A28062   6.666  39.976   7.650
 6439POPC   C1B28063   6.440  39.773   8.550
 6439POPC   C2B28064   6.466  39.777   8.250
 6439POPC   C3B28065   6.487  39.793   7.950
 6439POPC   C4B28066   6.531  39.781   7.650
 6440POPC   NC328067  37.699   7.390   9.450
 6440POPC   PO428068  37.677   7.420   9.150
 6440POPC   GL128069  37.701   7.438   8.850
 6440POPC   GL228070  37.571   7.395   8.850
 6440POPC   C1A28071  37.636   7.414   8.550
 6440POPC   D2A28072  37.699   7.416   8.250
 6440POPC   C3A28073  37.688   7.374   7.950
 6440POPC   C4A28074  37.651   7.376   7.650
 6440POPC   C1B28075  37.388   7.402   8.550
 6440POPC   C2B28076  37.413   7.419   8.250
 6440POPC   C3B28077  37.478   7.339   7.950
 6440POPC   C4B28078  37.385   7.335   7.650
 6441POPC   NC328079  24.441  12.033   9.450
 6441POPC   PO428080  24.508  12.092   9.150
 6441POPC   GL128081  24.501  12.095   8.850
 6441POPC   GL228082  24.518  12.225   8.850
 6441POPC   C1A28083  24.445  12.102   8.550
 6441POPC   D2A28084  24.446  12.091   8.250
 6441POPC   C3A28085  24.528  12.068   7.950
 6441POPC   C4A28086  24.523  12.068   7.650
 6441POPC   C1B28087  24.514  12.365   8.550
 6441POPC   C2B28088  24.554  12.317   8.250
 6441POPC   C3B28089  24.505  12.313   7.950
 6441POPC   C4B28090  24.492  12.309   7.650
 6442POPC   NC328091   5.047  31.466   9.450
 6442POPC   PO428092   5.073  31.470   9.150
 6442POPC   GL128093   5.090  31.436   8.850
 6442POPC   GL228094   5.253  31.428   8.850
 6442POPC   C1A28095   5.078  31.466   8.550
 6442POPC   D2A28096   5.072  31.503   8.250
 6442POPC   C3A28097   5.101  31.464   7.950
 6442POPC   C4A28098   5.057  31.500   7.650
 6442POPC   C1B28099   5.341  31.403   8.550
 6442POPC   C2B28100   5.306  31.451   8.250
 6442POPC   C3B28101   5.301  31.438   7.950
 6442POPC   C4B28102   5.313  31.411   7.650
 6443POPC   NC328103  19.057  33.773   9.450
 6443POPC   PO428104  19.070  33.799   9.150
 6443POPC   GL128105  19.095  33.822   8.850
 6443POPC   GL228106  19.060  33.920   8.850
 6443POPC   C1A28107  19.096  33.777   8.550
 6443POPC   D2A28108  19.022  33.839   8.250
 6443POPC   C3A28109  19.072  33.806   7.950
 6443POPC   C4A28110  19.015  33.813   7.650
 6443POPC   C1B28111  19.002  34.056   8.550
 6443POPC   C2B28112  19.049  34.074   8.250
 6443POPC   C3B28113  18.981  34.024   7.950
 6443POPC   C4B28114  19.005  34.092   7.650
 6444POPC   NC328115  25.261  23.718   9.450
 6444POPC   PO428116  25.293  23.729   9.150
 6444POPC   GL128117  25.308  23.707   8.850
 6444POPC   GL228118  25.325  23.597   8.850
 6444POPC   C1A28119  25.287  23.741   8.550
 6444POPC   D2A28120  25.266  23.708   8.250
 6444POPC   C3A28121  25.296  23.695   7.950
 6444POPC   C4A28122  25.235  23.689   7.650
 6444POPC   C1B28123  25.469  23.530   8.550
 6444POPC   C2B28124  25.399  23.556   8.250
 6444POPC   C3B28125  25.459  23.504   7.950
 6444POPC   C4B28126  25.462  23.562   7.650
 6445POPC   NC328127  15.973  23.714   9.450
 6445POPC   PO428128  15.920  23.762   9.150
 6445POPC   GL128129  15.958  23.701   8.850
 6445POPC   GL228130  16.007  23.622   8.850
 6445POPC   C1A28131  15.977  23.761   8.550
 6445POPC   D2A28132  15.986  23.691   8.250
 6445POPC   C3A28133  15.931  23.700   7.950
 6445POPC   C4A28134  15.978  23.676   7.650
 6445POPC   C1B28135  15.979  23.424   8.550
 6445POPC   C2B28136  16.015  23.431   8.250
 6445POPC   C3B28137  16.023  23.496   7.950
 6445POPC   C4B28138  16.044  23.507   7.650
 6446POPC   NC328139  18.266  34.616   9.450
 6446POPC   PO428140  18.257  34.585   9.150
 6446POPC   GL128141  18.324  34.540   8.850
 6446POPC   GL228142  18.221  34.408   8.850
 6446POPC   C1A28143  18.260  34.559   8.550
 6446POPC   D2A28144  18.259  34.534   8.250
 6446POPC   C3A28145  18.319  34.615   7.950
 6446POPC   C4A28146  18.288  34.624   7.650
 6446POPC   C1B28147  18.190  34.361   8.550
 6446POPC   C2B28148  18.182  34.366   8.250
 6446POPC   C3B28149  18.252  34.322   7.950
 6446POPC   C4B28150  18.184  34.377   7.650
 6447POPC   NC328151   8.242   4.331   9.450
 6447POPC   PO428152   8.183   4.361   9.150
 6447POPC   GL128153   8.202   4.291   8.850
 6447POPC   GL228154   8.056   4.356   8.850
 6447POPC   C1A28155   8.218   4.277   8.550
 6447POPC   D2A28156   8.218   4.296   8.250
 6447POPC   C3A28157   8.191   4.276   7.950
 6447POPC   C4A28158   8.184   4.288   7.650
 6447POPC   C1B28159   7.980   4.458   8.550
 6447POPC   C2B28160   8.006   4.494   8.250
 6447POPC   C3B28161   8.034   4.457   7.950
 6447POPC   C4B28162   7.967   4.404   7.650
 6448POPC   NC328163  30.715  39.189   9.450
 6448POPC   PO428164  30.701  39.267   9.150
 6448POPC   GL128165  30.742  39.253   8.850
 6448POPC   GL228166  30.686  39.307   8.850
 6448POPC   C1A28167  30.722  39.190   8.550
 6448POPC   D2A28168  30.707  39.259   8.250
 6448POPC   C3A28169  30.707  39.192   7.950
 6448POPC   C4A28170  30.682  39.234   7.650
 6448POPC   C1B28171  30.603  39.504   8.550
 6448POPC   C2B28172  30.628  39.454   8.250
 6448POPC   C3B28173  30.651  39.422   7.950
 6448POPC   C4B28174  30.563  39.423   7.650
 6449POPC   NC328175  16.722  42.333   9.450
 6449POPC   PO428176  16.765  42.380   9.150
 6449POPC   GL128177  16.737  42.366   8.850
 6449POPC   GL228178  16.663  42.394   8.850
 6449POPC   C1A28179  16.736  42.347   8.550
 6449POPC   D2A28180  16.712  42.367   8.250
 6449POPC   C3A28181  16.696  42.372   7.950
 6449POPC   C4A28182  16.777  42.347   7.650
 6449POPC   C1B28183  16.579  42.531   8.550
 6449POPC   C2B28184  16.600  42.578   8.250
 6449POPC   C3B28185  16.619  42.541   7.950
 6449POPC   C4B28186  16.625  42.571   7.650
 6450POPC   NC328187  14.400  36.172   9.450
 6450POPC   PO428188  14.354  36.165   9.150
 6450POPC   GL128189  14.429  36.095   8.850
 6450POPC   GL228190  14.258  36.035   8.850
 6450POPC   C1A28191  14.405  36.153   8.550
 6450POPC   D2A28192  14.375  36.138   8.250
 6450POPC   C3A28193  14.398  36.132   7.950
 6450POPC   C4A28194  14.400  36.120   7.650
 6450POPC   C1B28195  14.169  35.981   8.550
 6450POPC   C2B28196  14.191  35.984   8.250
 6450POPC   C3B28197  14.165  36.003   7.950
 6450POPC   C4B28198  14.227  35.996   7.650
 6451POPC   NC328199  28.319  17.480   9.450
 6451POPC   PO428200  28.411  17.554   9.150
 6451POPC   GL128201  28.323  17.463   8.850
 6451POPC   GL228202  28.451  17.399   8.850
 6451POPC   C1A28203  28.338  17.475   8.550
 6451POPC   D2A28204  28.342  17.553   8.250
 6451POPC   C3A28205  28.321  17.465   7.950
 6451POPC   C4A28206  28.375  17.503   7.650
 6451POPC   C1B28207  28.469  17.317   8.550
 6451POPC   C2B28208  28.512  17.278   8.250
 6451POPC   C3B28209  28.547  17.287   7.950
 6451POPC   C4B28210  28.501  17.333   7.650
 6452POPC   NC328211  11.335  38.474   9.450
 6452POPC   PO428212  11.344  38.494   9.150
 6452POPC   GL128213  11.301  38.424   8.850
 6452POPC   GL228214  11.220  38.379   8.850
 6452POPC   C1A28215  11.313  38.440   8.550
 6452POPC   D2A28216  11.285  38.500   8.250
 6452POPC   C3A28217  11.342  38.496   7.950
 6452POPC   C4A28218  11.318  38.487   7.650
 6452POPC   C1B28219  11.137  38.263   8.550
 6452POPC   C2B28220  11.177  38.193   8.250
 6452POPC   C3B28221  11.202  38.243   7.950
 6452POPC   C4B28222  11.175  38.187   7.650
 6453POPC   NC328223   1.201  25.999   9.450
 6453POPC   PO428224   1.165  26.022   9.150
 6453POPC   GL128225   1.241  26.051   8.850
 6453POPC   GL228226   1.103  26.097   8.850
 6453POPC   C1A28227   1.170  26.031   8.550
 6453POPC   D2A28228   1.253  26.077   8.250
 6453POPC   C3A28229   1.209  26.037   7.950
 6453POPC   C4A28230   1.238  26.084   7.650
 6453POPC   C1B28231   0.981  26.190   8.550
 6453POPC   C2B28232   1.000  26.221   8.250
 6453POPC   C3B28233   1.031  26.188   7.950
 6453POPC   C4B28234   0.991  26.199   7.650
 6454POPC   NC328235  14.399  23.742   9.450
 6454POPC   PO428236  14.395  23.699   9.150
 6454POPC   GL128237  14.389  23.692   8.850
 6454POPC   GL228238  14.474  23.745   8.850
 6454POPC   C1A28239  14.372  23.759   8.550
 6454POPC   D2A28240  14.358  23.702   8.250
 6454POPC   C3A28241  14.397  23.727   7.950
 6454POPC   C4A28242  14.435  23.754   7.650
 6454POPC   C1B28243  14.654  23.780   8.550
 6454POPC   C2B28244  14.577  23.864   8.250
 6454POPC   C3B28245  14.589  23.796   7.950
 6454POPC   C4B28246  14.648  23.798   7.650
 6455POPC   NC328247  37.636   0.447   9.450
 6455POPC   PO428248  37.642   0.401   9.150
 6455POPC   GL128249  37.703   0.476   8.850
 6455POPC   GL228250  37.800   0.567   8.850
 6455POPC   C1A28251  37.680   0.389   8.550
 6455POPC   D2A28252  37.721   0.392   8.250
 6455POPC   C3A28253  37.711   0.458   7.950
 6455POPC   C4A28254  37.643   0.480   7.650
 6455POPC   C1B28255  37.830   0.620   8.550
 6455POPC   C2B28256  37.870   0.598   8.250
 6455POPC   C3B28257  37.815   0.651   7.950
 6455POPC   C4B28258  37.838   0.616   7.650
 6456POPC   NC328259  41.514   7.456   9.450
 6456POPC   PO428260  41.534   7.462   9.150
 6456POPC   GL128261  41.522   7.382   8.850
 6456POPC   GL228262  41.481   7.339   8.850
 6456POPC   C1A28263  41.554   7.431   8.550
 6456POPC   D2A28264  41.604   7.469   8.250
 6456POPC   C3A28265  41.512   7.376   7.950
 6456POPC   C4A28266  41.552   7.444   7.650
 6456POPC   C1B28267  41.342   7.371   8.550
 6456POPC   C2B28268  41.308   7.326   8.250
 6456POPC   C3B28269  41.331   7.344   7.950
 6456POPC   C4B28270  41.277   7.358   7.650
 6457POPC   NC328271  10.551  13.592   9.450
 6457POPC   PO428272  10.523  13.588   9.150
 6457POPC   GL128273  10.496  13.612   8.850
 6457POPC   GL228274  10.673  13.607   8.850
 6457POPC   C1A28275  10.509  13.613   8.550
 6457POPC   D2A28276  10.551  13.602   8.250
 6457POPC   C3A28277  10.509  13.673   7.950
 6457POPC   C4A28278  10.530  13.617   7.650
 6457POPC   C1B28279  10.813  13.604   8.550
 6457POPC   C2B28280  10.803  13.592   8.250
 6457POPC   C3B28281  10.767  13.672   7.950
 6457POPC   C4B28282  10.750  13.642   7.650
 6458POPC   NC328283  42.301   8.924   9.450
 6458POPC   PO428284  42.370   8.933   9.150
 6458POPC   GL128285  42.294   8.998   8.850
 6458POPC   GL228286  42.277   9.090   8.850
 6458POPC   C1A28287  42.314   8.992   8.550
 6458POPC   D2A28288  42.317   8.944   8.250
 6458POPC   C3A28289  42.328   9.015   7.950
 6458POPC   C4A28290  42.336   8.986   7.650
 6458POPC   C1B28291  42.176   9.092   8.550
 6458POPC   C2B28292  42.157   9.179   8.250
 6458POPC   C3B28293  42.138   9.184   7.950
 6458POPC   C4B28294  42.138   9.151   7.650
 6459POPC   NC328295  28.376  11.328   9.450
 6459POPC   PO428296  28.377  11.283   9.150
 6459POPC   GL128297  28.359  11.305   8.850
 6459POPC   GL228298  28.440  11.220   8.850
 6459POPC   C1A28299  28.336  11.321   8.550
 6459POPC   D2A28300  28.390  11.266   8.250
 6459POPC   C3A28301  28.382  11.326   7.950
 6459POPC   C4A28302  28.344  11.282   7.650
 6459POPC   C1B28303  28.585  11.207   8.550
 6459POPC   C2B28304  28.550  11.144   8.250
 6459POPC   C3B28305  28.560  11.181   7.950
 6459POPC   C4B28306  28.607  11.217   7.650
 6460POPC   NC328307  22.171   6.667   9.450
 6460POPC   PO428308  22.116   6.617   9.150
 6460POPC   GL128309  22.177   6.642   8.850
 6460POPC   GL228310  22.268   6.714   8.850
 6460POPC   C1A28311  22.204   6.609   8.550
 6460POPC   D2A28312  22.151   6.657   8.250
 6460POPC   C3A28313  22.113   6.670   7.950
 6460POPC   C4A28314  22.131   6.636   7.650
 6460POPC   C1B28315  22.346   6.816   8.550
 6460POPC   C2B28316  22.332   6.767   8.250
 6460POPC   C3B28317  22.340   6.825   7.950
 6460POPC   C4B28318  22.332   6.782   7.650
 6461POPC   NC328319  10.482  15.984   9.450
 6461POPC   PO428320  10.530  15.921   9.150
 6461POPC   GL128321  10.520  15.948   8.850
 6461POPC   GL228322  10.525  16.076   8.850
 6461POPC   C1A28323  10.480  15.980   8.550
 6461POPC   D2A28324  10.530  15.945   8.250
 6461POPC   C3A28325  10.529  15.958   7.950
 6461POPC   C4A28326  10.534  16.000   7.650
 6461POPC   C1B28327  10.395  16.196   8.550
 6461POPC   C2B28328  10.396  16.167   8.250
 6461POPC   C3B28329  10.395  16.205   7.950
 6461POPC   C4B28330  10.456  16.161   7.650
 6462POPC   NC328331  30.655  38.442   9.450
 6462POPC   PO428332  30.737  38.411   9.150
 6462POPC   GL128333  30.732  38.425   8.850
 6462POPC   GL228334  30.678  38.554   8.850
 6462POPC   C1A28335  30.709  38.494   8.550
 6462POPC   D2A28336  30.739  38.501   8.250
 6462POPC   C3A28337  30.696  38.484   7.950
 6462POPC   C4A28338  30.676  38.452   7.650
 6462POPC   C1B28339  30.784  38.658   8.550
 6462POPC   C2B28340  30.694  38.708   8.250
 6462POPC   C3B28341  30.723  38.695   7.950
 6462POPC   C4B28342  30.777  38.655   7.650
 6463POPC   NC328343  32.257  23.701   9.450
 6463POPC   PO428344  32.266  23.666   9.150
 6463POPC   GL128345  32.285  23.665   8.850
 6463POPC   GL228346  32.319  23.865   8.850
 6463POPC   C1A28347  32.284  23.669   8.550
 6463POPC   D2A28348  32.231  23.675   8.250
 6463POPC   C3A28349  32.272  23.668   7.950
 6463POPC   C4A28350  32.250  23.685   7.650
 6463POPC   C1B28351  32.332  23.901   8.550
 6463POPC   C2B28352  32.333  23.991   8.250
 6463POPC   C3B28353  32.282  23.953   7.950
 6463POPC   C4B28354  32.292  23.954   7.650
 6464POPC   NC328355  39.272  14.452   9.450
 6464POPC   PO428356  39.224  14.384   9.150
 6464POPC   GL128357  39.192  14.380   8.850
 6464POPC   GL228358  39.348  14.523   8.850
 6464POPC   C1A28359  39.183  14.402   8.550
 6464POPC   D2A28360  39.221  14.403   8.250
 6464POPC   C3A28361  39.261  14.356   7.950
 6464POPC   C4A28362  39.201  14.357   7.650
 6464POPC   C1B28363  39.399  14.588   8.550
 6464POPC   C2B28364  39.411  14.600   8.250
 6464POPC   C3B28365  39.433  14.607   7.950
 6464POPC   C4B28366  39.408  14.529   7.650
 6465POPC   NC328367  10.526  11.308   9.450
 6465POPC   PO428368  10.524  11.293   9.150
 6465POPC   GL128369  10.548  11.271   8.850
 6465POPC   GL228370  10.672  11.243   8.850
 6465POPC   C1A28371  10.560  11.347   8.550
 6465POPC   D2A28372  10.501  11.317   8.250
 6465POPC   C3A28373  10.561  11.285   7.950
 6465POPC   C4A28374  10.509  11.280   7.650
 6465POPC   C1B28375  10.785  11.195   8.550
 6465POPC   C2B28376  10.804  11.212   8.250
 6465POPC   C3B28377  10.794  11.272   7.950
 6465POPC   C4B28378  10.778  11.236   7.650
 6466POPC   NC328379   1.180  12.823   9.450
 6466POPC   PO428380   1.191  12.858   9.150
 6466POPC   GL128381   1.204  12.815   8.850
 6466POPC   GL228382   1.070  12.834   8.850
 6466POPC   C1A28383   1.218  12.818   8.550
 6466POPC   D2A28384   1.244  12.810   8.250
 6466POPC   C3A28385   1.170  12.840   7.950
 6466POPC   C4A28386   1.189  12.842   7.650
 6466POPC   C1B28387   0.958  12.908   8.550
 6466POPC   C2B28388   0.991  12.886   8.250
 6466POPC   C3B28389   0.944  12.912   7.950
 6466POPC   C4B28390   0.922  12.930   7.650
 6467POPC   NC328391  12.839  41.543   9.450
 6467POPC   PO428392  12.866  41.577   9.150
 6467POPC   GL128393  12.871  41.552   8.850
 6467POPC   GL228394  12.753  41.595   8.850
 6467POPC   C1A28395  12.850  41.579   8.550
 6467POPC   D2A28396  12.861  41.578   8.250
 6467POPC   C3A28397  12.814  41.564   7.950
 6467POPC   C4A28398  12.875  41.558   7.650
 6467POPC   C1B28399  12.642  41.714   8.550
 6467POPC   C2B28400  12.618  41.681   8.250
 6467POPC   C3B28401  12.643  41.655   7.950
 6467POPC   C4B28402  12.606  41.742   7.650
 6468POPC   NC328403  15.162  15.190   9.450
 6468POPC   PO428404  15.203  15.218   9.150
 6468POPC   GL128405  15.208  15.150   8.850
 6468POPC   GL228406  15.282  15.281   8.850
 6468POPC   C1A28407  15.221  15.152   8.550
 6468POPC   D2A28408  15.224  15.228   8.250
 6468POPC   C3A28409  15.147  15.177   7.950
 6468POPC   C4A28410  15.155  15.219   7.650
 6468POPC   C1B28411  15.416  15.369   8.550
 6468POPC   C2B28412  15.400  15.288   8.250
 6468POPC   C3B28413  15.419  15.312   7.950
 6468POPC   C4B28414  15.340  15.287   7.650
 6469POPC   NC328415  12.063  13.620   9.450
 6469POPC   PO428416  12.099  13.608   9.150
 6469POPC   GL128417  12.104  13.643   8.850
 6469POPC   GL228418  11.948  13.529   8.850
 6469POPC   C1A28419  12.059  13.608   8.550
 6469POPC   D2A28420  12.028  13.652   8.250
 6469POPC   C3A28421  12.082  13.668   7.950
 6469POPC   C4A28422  12.096  13.668   7.650
 6469POPC   C1B28423  11.804  13.505   8.550
 6469POPC   C2B28424  11.823  13.525   8.250
 6469POPC   C3B28425  11.889  13.559   7.950
 6469POPC   C4B28426  11.825  13.566   7.650
 6470POPC   NC328427  15.147  33.068   9.450
 6470POPC   PO428428  15.146  33.012   9.150
 6470POPC   GL128429  15.210  33.029   8.850
 6470POPC   GL228430  15.292  32.885   8.850
 6470POPC   C1A28431  15.194  33.024   8.550
 6470POPC   D2A28432  15.137  33.048   8.250
 6470POPC   C3A28433  15.200  33.000   7.950
 6470POPC   C4A28434  15.159  32.987   7.650
 6470POPC   C1B28435  15.294  32.853   8.550
 6470POPC   C2B28436  15.288  32.761   8.250
 6470POPC   C3B28437  15.293  32.805   7.950
 6470POPC   C4B28438  15.348  32.818   7.650
 6471POPC   NC328439  21.359   2.764   9.450
 6471POPC   PO428440  21.352   2.763   9.150
 6471POPC   GL128441  21.343   2.759   8.850
 6471POPC   GL228442  21.276   2.669   8.850
 6471POPC   C1A28443  21.380   2.780   8.550
 6471POPC   D2A28444  21.405   2.783   8.250
 6471POPC   C3A28445  21.417   2.759   7.950
 6471POPC   C4A28446  21.383   2.732   7.650
 6471POPC   C1B28447  21.204   2.550   8.550
 6471POPC   C2B28448  21.198   2.609   8.250
 6471POPC   C3B28449  21.250   2.563   7.950
 6471POPC   C4B28450  21.190   2.540   7.650
 6472POPC   NC328451  19.027  31.482   9.450
 6472POPC   PO428452  19.105  31.447   9.150
 6472POPC   GL128453  19.099  31.483   8.850
 6472POPC   GL228454  19.071  31.373   8.850
 6472POPC   C1A28455  19.057  31.508   8.550
 6472POPC   D2A28456  19.080  31.503   8.250
 6472POPC   C3A28457  19.044  31.484   7.950
 6472POPC   C4A28458  19.094  31.502   7.650
 6472POPC   C1B28459  19.217  31.257   8.550
 6472POPC   C2B28460  19.170  31.201   8.250
 6472POPC   C3B28461  19.123  31.239   7.950
 6472POPC   C4B28462  19.125  31.215   7.650
 6473POPC   NC328463  28.405  22.157   9.450
 6473POPC   PO428464  28.329  22.182   9.150
 6473POPC   GL128465  28.388  22.212   8.850
 6473POPC   GL228466  28.339  22.055   8.850
 6473POPC   C1A28467  28.411  22.168   8.550
 6473POPC   D2A28468  28.409  22.138   8.250
 6473POPC   C3A28469  28.332  22.184   7.950
 6473POPC   C4A28470  28.413  22.165   7.650
 6473POPC   C1B28471  28.231  21.965   8.550
 6473POPC   C2B28472  28.235  21.984   8.250
 6473POPC   C3B28473  28.265  21.940   7.950
 6473POPC   C4B28474  28.241  21.926   7.650
 6474POPC   NC328475  24.497  36.101   9.450
 6474POPC   PO428476  24.449  36.157   9.150
 6474POPC   GL128477  24.512  36.084   8.850
 6474POPC   GL228478  24.633  36.150   8.850
 6474POPC   C1A28479  24.474  36.139   8.550
 6474POPC   D2A28480  24.466  36.161   8.250
 6474POPC   C3A28481  24.525  36.130   7.950
 6474POPC   C4A28482  24.471  36.150   7.650
 6474POPC   C1B28483  24.754  36.258   8.550
 6474POPC   C2B28484  24.678  36.199   8.250
 6474POPC   C3B28485  24.698  36.200   7.950
 6474POPC   C4B28486  24.770  36.244   7.650
 6475POPC   NC328487  36.098   5.852   9.450
 6475POPC   PO428488  36.098   5.823   9.150
 6475POPC   GL128489  36.133   5.855   8.850
 6475POPC   GL228490  36.254   5.918   8.850
 6475POPC   C1A28491  36.171   5.885   8.550
 6475POPC   D2A28492  36.155   5.835   8.250
 6475POPC   C3A28493  36.082   5.853   7.950
 6475POPC   C4A28494  36.134   5.861   7.650
 6475POPC   C1B28495  36.371   5.918   8.550
 6475POPC   C2B28496  36.330   5.890   8.250
 6475POPC   C3B28497  36.381   5.873   7.950
 6475POPC   C4B28498  36.341   5.874   7.650
 6476POPC   NC328499  29.895  12.855   9.450
 6476POPC   PO428500  29.872  12.827   9.150
 6476POPC   GL128501  29.956  12.901   8.850
 6476POPC   GL228502  29.976  12.938   8.850
 6476POPC   C1A28503  29.889  12.846   8.550
 6476POPC   D2A28504  29.879  12.832   8.250
 6476POPC   C3A28505  29.934  12.818   7.950
 6476POPC   C4A28506  29.877  12.891   7.650
 6476POPC   C1B28507  29.965  13.064   8.550
 6476POPC   C2B28508  29.977  13.091   8.250
 6476POPC   C3B28509  29.955  13.129   7.950
 6476POPC   C4B28510  30.004  13.128   7.650
 6477POPC   NC328511  20.632  31.494   9.450
 6477POPC   PO428512  20.645  31.425   9.150
 6477POPC   GL128513  20.566  31.482   8.850
 6477POPC   GL228514  20.633  31.395   8.850
 6477POPC   C1A28515  20.652  31.441   8.550
 6477POPC   D2A28516  20.564  31.519   8.250
 6477POPC   C3A28517  20.631  31.448   7.950
 6477POPC   C4A28518  20.606  31.500   7.650
 6477POPC   C1B28519  20.686  31.268   8.550
 6477POPC   C2B28520  20.672  31.249   8.250
 6477POPC   C3B28521  20.651  31.232   7.950
 6477POPC   C4B28522  20.668  31.189   7.650
 6478POPC   NC328523   3.572   5.858   9.450
 6478POPC   PO428524   3.537   5.894   9.150
 6478POPC   GL128525   3.492   5.882   8.850
 6478POPC   GL228526   3.642   5.785   8.850
 6478POPC   C1A28527   3.521   5.846   8.550
 6478POPC   D2A28528   3.584   5.907   8.250
 6478POPC   C3A28529   3.524   5.851   7.950
 6478POPC   C4A28530   3.566   5.910   7.650
 6478POPC   C1B28531   3.706   5.627   8.550
 6478POPC   C2B28532   3.682   5.621   8.250
 6478POPC   C3B28533   3.694   5.642   7.950
 6478POPC   C4B28534   3.687   5.683   7.650
 6479POPC   NC328535   5.070  32.994   9.450
 6479POPC   PO428536   5.111  33.010   9.150
 6479POPC   GL128537   5.111  32.975   8.850
 6479POPC   GL228538   5.126  33.093   8.850
 6479POPC   C1A28539   5.118  32.993   8.550
 6479POPC   D2A28540   5.057  33.005   8.250
 6479POPC   C3A28541   5.068  33.001   7.950
 6479POPC   C4A28542   5.101  32.976   7.650
 6479POPC   C1B28543   5.171  33.247   8.550
 6479POPC   C2B28544   5.183  33.244   8.250
 6479POPC   C3B28545   5.198  33.260   7.950
 6479POPC   C4B28546   5.158  33.290   7.650
 6480POPC   NC328547   7.464  28.380   9.450
 6480POPC   PO428548   7.428  28.327   9.150
 6480POPC   GL128549   7.437  28.386   8.850
 6480POPC   GL228550   7.252  28.375   8.850
 6480POPC   C1A28551   7.451  28.397   8.550
 6480POPC   D2A28552   7.460  28.377   8.250
 6480POPC   C3A28553   7.442  28.406   7.950
 6480POPC   C4A28554   7.434  28.329   7.650
 6480POPC   C1B28555   7.220  28.410   8.550
 6480POPC   C2B28556   7.179  28.339   8.250
 6480POPC   C3B28557   7.144  28.361   7.950
 6480POPC   C4B28558   7.141  28.374   7.650
 6481POPC   NC328559  22.959   2.007   9.450
 6481POPC   PO428560  22.901   2.034   9.150
 6481POPC   GL128561  22.985   1.949   8.850
 6481POPC   GL228562  23.054   1.966   8.850
 6481POPC   C1A28563  22.903   1.941   8.550
 6481POPC   D2A28564  22.924   2.032   8.250
 6481POPC   C3A28565  22.972   2.027   7.950
 6481POPC   C4A28566  22.953   1.974   7.650
 6481POPC   C1B28567  23.200   1.901   8.550
 6481POPC   C2B28568  23.191   1.870   8.250
 6481POPC   C3B28569  23.117   1.863   7.950
 6481POPC   C4B28570  23.178   1.868   7.650
 6482POPC   NC328571  23.714  18.320   9.450
 6482POPC   PO428572  23.760  18.245   9.150
 6482POPC   GL128573  23.719  18.238   8.850
 6482POPC   GL228574  23.568  18.323   8.850
 6482POPC   C1A28575  23.690  18.284   8.550
 6482POPC   D2A28576  23.698  18.307   8.250
 6482POPC   C3A28577  23.710  18.263   7.950
 6482POPC   C4A28578  23.754  18.276   7.650
 6482POPC   C1B28579  23.470  18.329   8.550
 6482POPC   C2B28580  23.460  18.315   8.250
 6482POPC   C3B28581  23.467  18.305   7.950
 6482POPC   C4B28582  23.469  18.274   7.650
 6483POPC   NC328583  26.852  36.881   9.450
 6483POPC   PO428584  26.785  36.894   9.150
 6483POPC   GL128585  26.816  36.857   8.850
 6483POPC   GL228586  26.693  36.829   8.850
 6483POPC   C1A28587  26.783  36.892   8.550
 6483POPC   D2A28588  26.853  36.857   8.250
 6483POPC   C3A28589  26.837  36.918   7.950
 6483POPC   C4A28590  26.779  36.892   7.650
 6483POPC   C1B28591  26.607  36.780   8.550
 6483POPC   C2B28592  26.603  36.762   8.250
 6483POPC   C3B28593  26.628  36.774   7.950
 6483POPC   C4B28594  26.559  36.788   7.650
 6484POPC   NC328595   5.095  44.662   9.450
 6484POPC   PO428596   5.054  44.620   9.150
 6484POPC   GL128597   5.105  44.688   8.850
 6484POPC   GL228598   5.013  44.668   8.850
 6484POPC   C1A28599   5.074  44.669   8.550
 6484POPC   D2A28600   5.048  44.675   8.250
 6484POPC   C3A28601   5.081  44.674   7.950
 6484POPC   C4A28602   5.057  44.623   7.650
 6484POPC   C1B28603   4.807  44.684   8.550
 6484POPC   C2B28604   4.870  44.706   8.250
 6484POPC   C3B28605   4.824  44.708   7.950
 6484POPC   C4B28606   4.834  44.707   7.650
 6485POPC   NC328607  22.889  31.510   9.450
 6485POPC   PO428608  22.985  31.454   9.150
 6485POPC   GL128609  22.904  31.457   8.850
 6485POPC   GL228610  23.024  31.334   8.850
 6485POPC   C1A28611  22.923  31.477   8.550
 6485POPC   D2A28612  22.901  31.514   8.250
 6485POPC   C3A28613  22.932  31.455   7.950
 6485POPC   C4A28614  22.921  31.508   7.650
 6485POPC   C1B28615  23.093  31.237   8.550
 6485POPC   C2B28616  23.117  31.220   8.250
 6485POPC   C3B28617  23.102  31.233   7.950
 6485POPC   C4B28618  23.029  31.237   7.650
 6486POPC   NC328619  33.046   9.005   9.450
 6486POPC   PO428620  33.036   8.958   9.150
 6486POPC   GL128621  33.030   9.004   8.850
 6486POPC   GL228622  33.095   9.050   8.850
 6486POPC   C1A28623  33.056   8.966   8.550
 6486POPC   D2A28624  33.042   9.021   8.250
 6486POPC   C3A28625  32.989   8.943   7.950
 6486POPC   C4A28626  33.043   8.929   7.650
 6486POPC   C1B28627  33.049   9.216   8.550
 6486POPC   C2B28628  33.043   9.187   8.250
 6486POPC   C3B28629  33.035   9.185   7.950
 6486POPC   C4B28630  33.112   9.237   7.650
 6487POPC   NC328631   0.445   6.677   9.450
 6487POPC   PO428632   0.475   6.600   9.150
 6487POPC   GL128633   0.421   6.620   8.850
 6487POPC   GL228634   0.487   6.540   8.850
 6487POPC   C1A28635   0.430   6.650   8.550
 6487POPC   D2A28636   0.431   6.622   8.250
 6487POPC   C3A28637   0.406   6.662   7.950
 6487POPC   C4A28638   0.403   6.628   7.650
 6487POPC   C1B28639   0.599   6.504   8.550
 6487POPC   C2B28640   0.637   6.516   8.250
 6487POPC   C3B28641   0.598   6.507   7.950
 6487POPC   C4B28642   0.628   6.443   7.650
 6488POPC   NC328643  12.872  19.011   9.450
 6488POPC   PO428644  12.890  19.074   9.150
 6488POPC   GL128645  12.846  19.031   8.850
 6488POPC   GL228646  12.883  18.975   8.850
 6488POPC   C1A28647  12.867  19.090   8.550
 6488POPC   D2A28648  12.891  19.101   8.250
 6488POPC   C3A28649  12.843  19.099   7.950
 6488POPC   C4A28650  12.803  19.087   7.650
 6488POPC   C1B28651  12.899  18.807   8.550
 6488POPC   C2B28652  12.887  18.863   8.250
 6488POPC   C3B28653  12.950  18.823   7.950
 6488POPC   C4B28654  12.958  18.789   7.650
 6489POPC   NC328655  32.229  28.333   9.450
 6489POPC   PO428656  32.233  28.394   9.150
 6489POPC   GL128657  32.279  28.361   8.850
 6489POPC   GL228658  32.201  28.497   8.850
 6489POPC   C1A28659  32.242  28.394   8.550
 6489POPC   D2A28660  32.294  28.326   8.250
 6489POPC   C3A28661  32.216  28.400   7.950
 6489POPC   C4A28662  32.291  28.396   7.650
 6489POPC   C1B28663  32.046  28.502   8.550
 6489POPC   C2B28664  32.038  28.511   8.250
 6489POPC   C3B28665  32.048  28.540   7.950
 6489POPC   C4B28666  32.069  28.520   7.650
 6490POPC   NC328667  36.944  34.571   9.450
 6490POPC   PO428668  36.932  34.588   9.150
 6490POPC   GL128669  36.893  34.550   8.850
 6490POPC   GL228670  36.994  34.518   8.850
 6490POPC   C1A28671  36.892  34.620   8.550
 6490POPC   D2A28672  36.890  34.608   8.250
 6490POPC   C3A28673  36.888  34.592   7.950
 6490POPC   C4A28674  36.869  34.580   7.650
 6490POPC   C1B28675  37.180  34.552   8.550
 6490POPC   C2B28676  37.155  34.522   8.250
 6490POPC   C3B28677  37.128  34.512   7.950
 6490POPC   C4B28678  37.186  34.533   7.650
 6491POPC   NC328679  15.161  39.265   9.450
 6491POPC   PO428680  15.179  39.246   9.150
 6491POPC   GL128681  15.130  39.222   8.850
 6491POPC   GL228682  15.062  39.295   8.850
 6491POPC   C1A28683  15.212  39.228   8.550
 6491POPC   D2A28684  15.203  39.271   8.250
 6491POPC   C3A28685  15.172  39.193   7.950
 6491POPC   C4A28686  15.155  39.230   7.650
 6491POPC   C1B28687  14.913  39.308   8.550
 6491POPC   C2B28688  14.986  39.272   8.250
 6491POPC   C3B28689  14.908  39.337   7.950
 6491POPC   C4B28690  14.893  39.317   7.650
 6492POPC   NC328691  33.819   5.093   9.450
 6492POPC   PO428692  33.794   5.057   9.150
 6492POPC   GL128693  33.792   5.106   8.850
 6492POPC   GL228694  33.940   5.075   8.850
 6492POPC   C1A28695  33.802   5.129   8.550
 6492POPC   D2A28696  33.766   5.116   8.250
 6492POPC   C3A28697  33.839   5.075   7.950
 6492POPC   C4A28698  33.837   5.134   7.650
 6492POPC   C1B28699  34.005   5.040   8.550
 6492POPC   C2B28700  34.052   5.035   8.250
 6492POPC   C3B28701  34.071   5.107   7.950
 6492POPC   C4B28702  34.050   5.031   7.650
 6493POPC   NC328703  18.312  37.679   9.450
 6493POPC   PO428704  18.322  37.699   9.150
 6493POPC   GL128705  18.326  37.656   8.850
 6493POPC   GL228706  18.376  37.695   8.850
 6493POPC   C1A28707  18.258  37.693   8.550
 6493POPC   D2A28708  18.295  37.674   8.250
 6493POPC   C3A28709  18.247  37.650   7.950
 6493POPC   C4A28710  18.242  37.680   7.650
 6493POPC   C1B28711  18.509  37.746   8.550
 6493POPC   C2B28712  18.493  37.798   8.250
 6493POPC   C3B28713  18.547  37.766   7.950
 6493POPC   C4B28714  18.470  37.803   7.650
 6494POPC   NC328715   1.983  36.933   9.450
 6494POPC   PO428716   1.974  36.870   9.150
 6494POPC   GL128717   2.018  36.856   8.850
 6494POPC   GL228718   1.927  36.844   8.850
 6494POPC   C1A28719   2.003  36.950   8.550
 6494POPC   D2A28720   1.971  36.878   8.250
 6494POPC   C3A28721   1.951  36.856   7.950
 6494POPC   C4A28722   1.988  36.904   7.650
 6494POPC   C1B28723   1.829  36.698   8.550
 6494POPC   C2B28724   1.832  36.684   8.250
 6494POPC   C3B28725   1.890  36.679   7.950
 6494POPC   C4B28726   1.815  36.666   7.650
 6495POPC   NC328727  32.298  44.648   9.450
 6495POPC   PO428728  32.211  44.703   9.150
 6495POPC   GL128729  32.288  44.702   8.850
 6495POPC   GL228730  32.244  44.833   8.850
 6495POPC   C1A28731  32.218  44.618   8.550
 6495POPC   D2A28732  32.260  44.706   8.250
 6495POPC   C3A28733  32.205  44.686   7.950
 6495POPC   C4A28734  32.207  44.703   7.650
 6495POPC   C1B28735  32.277  44.927   8.550
 6495POPC   C2B28736  32.255  44.921   8.250
 6495POPC   C3B28737  32.215  44.892   7.950
 6495POPC   C4B28738  32.245  44.887   7.650
 6496POPC   NC328739  36.891   8.959   9.450
 6496POPC   PO428740  36.918   8.934   9.150
 6496POPC   GL128741  36.871   8.935   8.850
 6496POPC   GL228742  36.882   8.823   8.850
 6496POPC   C1A28743  36.918   9.005   8.550
 6496POPC   D2A28744  36.917   8.963   8.250
 6496POPC   C3A28745  36.866   8.948   7.950
 6496POPC   C4A28746  36.921   8.946   7.650
 6496POPC   C1B28747  36.891   8.745   8.550
 6496POPC   C2B28748  36.949   8.706   8.250
 6496POPC   C3B28749  36.950   8.677   7.950
 6496POPC   C4B28750  36.941   8.761   7.650
 6497POPC   NC328751  41.595  13.599   9.450
 6497POPC   PO428752  41.527  13.601   9.150
 6497POPC   GL128753  41.597  13.610   8.850
 6497POPC   GL228754  41.603  13.681   8.850
 6497POPC   C1A28755  41.556  13.653   8.550
 6497POPC   D2A28756  41.518  13.673   8.250
 6497POPC   C3A28757  41.527  13.586   7.950
 6497POPC   C4A28758  41.537  13.589   7.650
 6497POPC   C1B28759  41.777  13.778   8.550
 6497POPC   C2B28760  41.698  13.814   8.250
 6497POPC   C3B28761  41.778  13.787   7.950
 6497POPC   C4B28762  41.763  13.743   7.650
 6498POPC   NC328763   1.245  36.079   9.450
 6498POPC   PO428764   1.222  36.162   9.150
 6498POPC   GL128765   1.219  36.080   8.850
 6498POPC   GL228766   1.189  36.052   8.850
 6498POPC   C1A28767   1.193  36.080   8.550
 6498POPC   D2A28768   1.206  36.120   8.250
 6498POPC   C3A28769   1.205  36.108   7.950
 6498POPC   C4A28770   1.176  36.112   7.650
 6498POPC   C1B28771   1.111  35.899   8.550
 6498POPC   C2B28772   1.135  35.917   8.250
 6498POPC   C3B28773   1.118  35.938   7.950
 6498POPC   C4B28774   1.098  35.893   7.650
 6499POPC   NC328775  28.322  29.896   9.450
 6499POPC   PO428776  28.347  29.900   9.150
 6499POPC   GL128777  28.417  29.875   8.850
 6499POPC   GL228778  28.473  29.851   8.850
 6499POPC   C1A28779  28.399  29.948   8.550
 6499POPC   D2A28780  28.390  29.942   8.250
 6499POPC   C3A28781  28.337  29.959   7.950
 6499POPC   C4A28782  28.371  29.925   7.650
 6499POPC   C1B28783  28.482  29.690   8.550
 6499POPC   C2B28784  28.478  29.758   8.250
 6499POPC   C3B28785  28.527  29.730   7.950
 6499POPC   C4B28786  28.504  29.723   7.650
 6500POPC   NC328787  30.680   1.978   9.450
 6500POPC   PO428788  30.731   2.029   9.150
 6500POPC   GL128789  30.728   2.012   8.850
 6500POPC   GL228790  30.822   2.071   8.850
 6500POPC   C1A28791  30.661   1.962   8.550
 6500POPC   D2A28792  30.701   2.019   8.250
 6500POPC   C3A28793  30.680   1.986   7.950
 6500POPC   C4A28794  30.702   2.023   7.650
 6500POPC   C1B28795  30.825   2.144   8.550
 6500POPC   C2B28796  30.874   2.217   8.250
 6500POPC   C3B28797  30.873   2.142   7.950
 6500POPC   C4B28798  30.902   2.145   7.650
 6501POPC   NC328799  20.603   5.115   9.450
 6501POPC   PO428800  20.595   5.068   9.150
 6501POPC   GL128801  20.633   5.128   8.850
 6501POPC   GL228802  20.522   5.184   8.850
 6501POPC   C1A28803  20.637   5.054   8.550
 6501POPC   D2A28804  20.595   5.109   8.250
 6501POPC   C3A28805  20.592   5.088   7.950
 6501POPC   C4A28806  20.646   5.087   7.650
 6501POPC   C1B28807  20.568   5.288   8.550
 6501POPC   C2B28808  20.474   5.280   8.250
 6501POPC   C3B28809  20.567   5.365   7.950
 6501POPC   C4B28810  20.559   5.343   7.650
 6502POPC   NC328811  15.962  42.331   9.450
 6502POPC   PO428812  15.925  42.296   9.150
 6502POPC   GL128813  15.994  42.321   8.850
 6502POPC   GL228814  15.838  42.384   8.850
 6502POPC   C1A28815  15.966  42.347   8.550
 6502POPC   D2A28816  15.914  42.292   8.250
 6502POPC   C3A28817  15.986  42.345   7.950
 6502POPC   C4A28818  15.911  42.377   7.650
 6502POPC   C1B28819  15.761  42.406   8.550
 6502POPC   C2B28820  15.739  42.378   8.250
 6502POPC   C3B28821  15.696  42.373   7.950
 6502POPC   C4B28822  15.676  42.438   7.650
 6503POPC   NC328823  24.527  43.907   9.450
 6503POPC   PO428824  24.475  43.865   9.150
 6503POPC   GL128825  24.505  43.864   8.850
 6503POPC   GL228826  24.636  43.839   8.850
 6503POPC   C1A28827  24.535  43.858   8.550
 6503POPC   D2A28828  24.530  43.892   8.250
 6503POPC   C3A28829  24.496  43.844   7.950
 6503POPC   C4A28830  24.457  43.867   7.650
 6503POPC   C1B28831  24.709  43.773   8.550
 6503POPC   C2B28832  24.752  43.789   8.250
 6503POPC   C3B28833  24.758  43.767   7.950
 6503POPC   C4B28834  24.737  43.815   7.650
 6504POPC   NC328835  30.672  11.294   9.450
 6504POPC   PO428836  30.732  11.320   9.150
 6504POPC   GL128837  30.683  11.338   8.850
 6504POPC   GL228838  30.760  11.422   8.850
 6504POPC   C1A28839  30.729  11.327   8.550
 6504POPC   D2A28840  30.649  11.329   8.250
 6504POPC   C3A28841  30.648  11.332   7.950
 6504POPC   C4A28842  30.661  11.332   7.650
 6504POPC   C1B28843  30.874  11.472   8.550
 6504POPC   C2B28844  30.857  11.464   8.250
 6504POPC   C3B28845  30.873  11.493   7.950
 6504POPC   C4B28846  30.875  11.494   7.650
 6505POPC   NC328847  38.409  17.467   9.450
 6505POPC   PO428848  38.472  17.518   9.150
 6505POPC   GL128849  38.464  17.543   8.850
 6505POPC   GL228850  38.304  17.519   8.850
 6505POPC   C1A28851  38.414  17.504   8.550
 6505POPC   D2A28852  38.497  17.474   8.250
 6505POPC   C3A28853  38.477  17.535   7.950
 6505POPC   C4A28854  38.444  17.537   7.650
 6505POPC   C1B28855  38.250  17.570   8.550
 6505POPC   C2B28856  38.243  17.555   8.250
 6505POPC   C3B28857  38.236  17.566   7.950
 6505POPC   C4B28858  38.205  17.616   7.650
 6506POPC   NC328859  11.300  36.870   9.450
 6506POPC   PO428860  11.291  36.888   9.150
 6506POPC   GL128861  11.303  36.871   8.850
 6506POPC   GL228862  11.263  36.850   8.850
 6506POPC   C1A28863  11.335  36.920   8.550
 6506POPC   D2A28864  11.271  36.951   8.250
 6506POPC   C3A28865  11.293  36.874   7.950
 6506POPC   C4A28866  11.286  36.946   7.650
 6506POPC   C1B28867  11.113  36.756   8.550
 6506POPC   C2B28868  11.165  36.751   8.250
 6506POPC   C3B28869  11.080  36.769   7.950
 6506POPC   C4B28870  11.113  36.769   7.650
 6507POPC   NC328871  28.372  43.140   9.450
 6507POPC   PO428872  28.324  43.082   9.150
 6507POPC   GL128873  28.342  43.103   8.850
 6507POPC   GL228874  28.400  43.276   8.850
 6507POPC   C1A28875  28.398  43.063   8.550
 6507POPC   D2A28876  28.328  43.074   8.250
 6507POPC   C3A28877  28.386  43.076   7.950
 6507POPC   C4A28878  28.385  43.073   7.650
 6507POPC   C1B28879  28.360  43.327   8.550
 6507POPC   C2B28880  28.389  43.333   8.250
 6507POPC   C3B28881  28.342  43.405   7.950
 6507POPC   C4B28882  28.407  43.395   7.650
 6508POPC   NC328883  36.128  23.738   9.450
 6508POPC   PO428884  36.146  23.699   9.150
 6508POPC   GL128885  36.176  23.673   8.850
 6508POPC   GL228886  36.050  23.556   8.850
 6508POPC   C1A28887  36.166  23.698   8.550
 6508POPC   D2A28888  36.161  23.686   8.250
 6508POPC   C3A28889  36.137  23.703   7.950
 6508POPC   C4A28890  36.119  23.744   7.650
 6508POPC   C1B28891  36.040  23.472   8.550
 6508POPC   C2B28892  36.035  23.507   8.250
 6508POPC   C3B28893  36.017  23.518   7.950
 6508POPC   C4B28894  36.090  23.453   7.650
 6509POPC   NC328895  22.160  25.276   9.450
 6509POPC   PO428896  22.187  25.312   9.150
 6509POPC   GL128897  22.114  25.254   8.850
 6509POPC   GL228898  22.249  25.367   8.850
 6509POPC   C1A28899  22.200  25.251   8.550
 6509POPC   D2A28900  22.118  25.260   8.250
 6509POPC   C3A28901  22.212  25.311   7.950
 6509POPC   C4A28902  22.170  25.270   7.650
 6509POPC   C1B28903  22.282  25.473   8.550
 6509POPC   C2B28904  22.349  25.440   8.250
 6509POPC   C3B28905  22.318  25.454   7.950
 6509POPC   C4B28906  22.265  25.459   7.650
 6510POPC   NC328907  44.638  41.578   9.450
 6510POPC   PO428908  44.685  41.589   9.150
 6510POPC   GL128909  44.706  41.509   8.850
 6510POPC   GL228910  44.741  41.549   8.850
 6510POPC   C1A28911  44.619  41.518   8.550
 6510POPC   D2A28912  44.670  41.602   8.250
 6510POPC   C3A28913  44.630  41.583   7.950
 6510POPC   C4A28914  44.670  41.597   7.650
 6510POPC   C1B28915  44.878  41.514   8.550
 6510POPC   C2B28916  44.936  41.544   8.250
 6510POPC   C3B28917  44.865  41.480   7.950
 6510POPC   C4B28918  44.956  41.493   7.650
 6511POPC   NC328919  12.096  15.912   9.450
 6511POPC   PO428920  12.099  15.992   9.150
 6511POPC   GL128921  12.075  15.957   8.850
 6511POPC   GL228922  12.105  15.835   8.850
 6511POPC   C1A28923  12.075  15.954   8.550
 6511POPC   D2A28924  12.055  15.918   8.250
 6511POPC   C3A28925  12.060  15.990   7.950
 6511POPC   C4A28926  12.123  15.952   7.650
 6511POPC   C1B28927  12.039  15.700   8.550
 6511POPC   C2B28928  12.092  15.668   8.250
 6511POPC   C3B28929  12.082  15.733   7.950
 6511POPC   C4B28930  12.110  15.745   7.650
 6512POPC   NC328931   1.233  36.940   9.450
 6512POPC   PO428932   1.199  36.877   9.150
 6512POPC   GL128933   1.210  36.872   8.850
 6512POPC   GL228934   1.113  37.038   8.850
 6512POPC   C1A28935   1.217  36.934   8.550
 6512POPC   D2A28936   1.238  36.920   8.250
 6512POPC   C3A28937   1.243  36.921   7.950
 6512POPC   C4A28938   1.242  36.874   7.650
 6512POPC   C1B28939   1.038  37.148   8.550
 6512POPC   C2B28940   1.056  37.143   8.250
 6512POPC   C3B28941   1.106  37.150   7.950
 6512POPC   C4B28942   1.084  37.165   7.650
 6513POPC   NC328943  26.064  34.608   9.450
 6513POPC   PO428944  26.031  34.564   9.150
 6513POPC   GL128945  26.063  34.616   8.850
 6513POPC   GL228946  25.886  34.572   8.850
 6513POPC   C1A28947  26.001  34.585   8.550
 6513POPC   D2A28948  26.057  34.595   8.250
 6513POPC   C3A28949  26.028  34.613   7.950
 6513POPC   C4A28950  26.089  34.547   7.650
 6513POPC   C1B28951  25.782  34.644   8.550
 6513POPC   C2B28952  25.823  34.678   8.250
 6513POPC   C3B28953  25.833  34.651   7.950
 6513POPC   C4B28954  25.812  34.665   7.650
 6514POPC   NC328955   6.628  15.166   9.450
 6514POPC   PO428956   6.659  15.229   9.150
 6514POPC   GL128957   6.694  15.191   8.850
 6514POPC   GL228958   6.666  15.092   8.850
 6514POPC   C1A28959   6.663  15.215   8.550
 6514POPC   D2A28960   6.628  15.210   8.250
 6514POPC   C3A28961   6.615  15.138   7.950
 6514POPC   C4A28962   6.652  15.158   7.650
 6514POPC   C1B28963   6.581  14.961   8.550
 6514POPC   C2B28964   6.615  14.881   8.250
 6514POPC   C3B28965   6.606  14.973   7.950
 6514POPC   C4B28966   6.647  14.955   7.650
 6515POPC   NC328967  14.407   1.191   9.450
 6515POPC   PO428968  14.355   1.247   9.150
 6515POPC   GL128969  14.442   1.218   8.850
 6515POPC   GL228970  14.511   1.139   8.850
 6515POPC   C1A28971  14.360   1.255   8.550
 6515POPC   D2A28972  14.428   1.174   8.250
 6515POPC   C3A28973  14.453   1.240   7.950
 6515POPC   C4A28974  14.408   1.189   7.650
 6515POPC   C1B28975  14.579   1.000   8.550
 6515POPC   C2B28976  14.563   0.984   8.250
 6515POPC   C3B28977  14.592   1.065   7.950
 6515POPC   C4B28978  14.588   1.050   7.650
 6516POPC   NC328979  15.154  26.009   9.450
 6516POPC   PO428980  15.175  26.070   9.150
 6516POPC   GL128981  15.228  26.086   8.850
 6516POPC   GL228982  15.068  26.021   8.850
 6516POPC   C1A28983  15.161  26.022   8.550
 6516POPC   D2A28984  15.193  26.002   8.250
 6516POPC   C3A28985  15.224  26.071   7.950
 6516POPC   C4A28986  15.133  26.027   7.650
 6516POPC   C1B28987  14.922  25.926   8.550
 6516POPC   C2B28988  14.959  25.920   8.250
 6516POPC   C3B28989  14.943  25.924   7.950
 6516POPC   C4B28990  14.982  25.962   7.650
 6517POPC   NC328991  29.878  24.508   9.450
 6517POPC   PO428992  29.921  24.450   9.150
 6517POPC   GL128993  29.919  24.528   8.850
 6517POPC   GL228994  29.832  24.477   8.850
 6517POPC   C1A28995  29.880  24.506   8.550
 6517POPC   D2A28996  29.945  24.506   8.250
 6517POPC   C3A28997  29.941  24.459   7.950
 6517POPC   C4A28998  29.914  24.533   7.650
 6517POPC   C1B28999  29.719  24.414   8.550
 6517POPC   C2B29000  29.703  24.419   8.250
 6517POPC   C3B29001  29.679  24.402   7.950
 6517POPC   C4B29002  29.689  24.364   7.650
 6518POPC   NC329003  42.369  15.197   9.450
 6518POPC   PO429004  42.340  15.212   9.150
 6518POPC   GL129005  42.304  15.168   8.850
 6518POPC   GL229006  42.245  15.161   8.850
 6518POPC   C1A29007  42.301  15.183   8.550
 6518POPC   D2A29008  42.369  15.197   8.250
 6518POPC   C3A29009  42.287  15.211   7.950
 6518POPC   C4A29010  42.341  15.143   7.650
 6518POPC   C1B29011  42.045  15.211   8.550
 6518POPC   C2B29012  42.111  15.232   8.250
 6518POPC   C3B29013  42.097  15.210   7.950
 6518POPC   C4B29014  42.052  15.215   7.650
 6519POPC   NC329015  35.385   9.019   9.450
 6519POPC   PO429016  35.302   8.950   9.150
 6519POPC   GL129017  35.331   8.988   8.850
 6519POPC   GL229018  35.262   8.934   8.850
 6519POPC   C1A29019  35.379   8.924   8.550
 6519POPC   D2A29020  35.397   8.970   8.250
 6519POPC   C3A29021  35.302   8.996   7.950
 6519POPC   C4A29022  35.325   8.948   7.650
 6519POPC   C1B29023  35.157   8.852   8.550
 6519POPC   C2B29024  35.115   8.866   8.250
 6519POPC   C3B29025  35.119   8.818   7.950
 6519POPC   C4B29026  35.180   8.852   7.650
 6520POPC   NC329027  16.739  33.816   9.450
 6520POPC   PO429028  16.692  33.819   9.150
 6520POPC   GL129029  16.761  33.822   8.850
 6520POPC   GL229030  16.817  33.745   8.850
 6520POPC   C1A29031  16.695  33.816   8.550
 6520POPC   D2A29032  16.714  33.762   8.250
 6520POPC   C3A29033  16.699  33.845   7.950
 6520POPC   C4A29034  16.696  33.801   7.650
 6520POPC   C1B29035  16.970  33.705   8.550
 6520POPC   C2B29036  17.005  33.745   8.250
 6520POPC   C3B29037  17.000  33.743   7.950
 6520POPC   C4B29038  16.973  33.695   7.650
 6521POPC   NC329039  28.333  35.304   9.450
 6521POPC   PO429040  28.352  35.383   9.150
 6521POPC   GL129041  28.336  35.363   8.850
 6521POPC   GL229042  28.313  35.507   8.850
 6521POPC   C1A29043  28.353  35.335   8.550
 6521POPC   D2A29044  28.330  35.401   8.250
 6521POPC   C3A29045  28.409  35.316   7.950
 6521POPC   C4A29046  28.355  35.350   7.650
 6521POPC   C1B29047  28.326  35.597   8.550
 6521POPC   C2B29048  28.312  35.555   8.250
 6521POPC   C3B29049  28.338  35.567   7.950
 6521POPC   C4B29050  28.374  35.601   7.650
 6522POPC   NC329051   7.427  40.046   9.450
 6522POPC   PO429052   7.431  39.971   9.150
 6522POPC   GL129053   7.399  40.006   8.850
 6522POPC   GL229054   7.355  39.867   8.850
 6522POPC   C1A29055   7.401  40.037   8.550
 6522POPC   D2A29056   7.437  40.050   8.250
 6522POPC   C3A29057   7.392  40.016   7.950
 6522POPC   C4A29058   7.386  40.029   7.650
 6522POPC   C1B29059   7.367  39.784   8.550
 6522POPC   C2B29060   7.361  39.762   8.250
 6522POPC   C3B29061   7.415  39.774   7.950
 6522POPC   C4B29062   7.391  39.723   7.650
 6523POPC   NC329063  12.065   0.455   9.450
 6523POPC   PO429064  12.032   0.433   9.150
 6523POPC   GL129065  12.090   0.485   8.850
 6523POPC   GL229066  12.172   0.426   8.850
 6523POPC   C1A29067  12.124   0.480   8.550
 6523POPC   D2A29068  12.118   0.459   8.250
 6523POPC   C3A29069  12.114   0.394   7.950
 6523POPC   C4A29070  12.051   0.474   7.650
 6523POPC   C1B29071  12.319   0.330   8.550
 6523POPC   C2B29072  12.326   0.337   8.250
 6523POPC   C3B29073  12.349   0.313   7.950
 6523POPC   C4B29074  12.329   0.298   7.650
 6524POPC   NC329075  26.773   5.051   9.450
 6524POPC   PO429076  26.773   5.114   9.150
 6524POPC   GL129077  26.846   5.061   8.850
 6524POPC   GL229078  26.923   5.216   8.850
 6524POPC   C1A29079  26.811   5.046   8.550
 6524POPC   D2A29080  26.780   5.112   8.250
 6524POPC   C3A29081  26.838   5.073   7.950
 6524POPC   C4A29082  26.791   5.078   7.650
 6524POPC   C1B29083  26.920   5.284   8.550
 6524POPC   C2B29084  26.976   5.336   8.250
 6524POPC   C3B29085  26.919   5.318   7.950
 6524POPC   C4B29086  26.991   5.335   7.650
 6525POPC   NC329087  11.338  18.261   9.450
 6525POPC   PO429088  11.277  18.280   9.150
 6525POPC   GL129089  11.291  18.325   8.850
 6525POPC   GL229090  11.194  18.310   8.850
 6525POPC   C1A29091  11.312  18.276   8.550
 6525POPC   D2A29092  11.321  18.328   8.250
 6525POPC   C3A29093  11.289  18.237   7.950
 6525POPC   C4A29094  11.280  18.296   7.650
 6525POPC   C1B29095  11.058  18.256   8.550
 6525POPC   C2B29096  11.071  18.214   8.250
 6525POPC   C3B29097  11.013  18.232   7.950
 6525POPC   C4B29098  11.039  18.218   7.650
 6526POPC   NC329099  12.895  33.829   9.450
 6526POPC   PO429100  12.812  33.758   9.150
 6526POPC   GL129101  12.824  33.821   8.850
 6526POPC   GL229102  12.701  33.860   8.850
 6526POPC   C1A29103  12.847  33.834   8.550
 6526POPC   D2A29104  12.834  33.766   8.250
 6526POPC   C3A29105  12.849  33.767   7.950
 6526POPC   C4A29106  12.851  33.841   7.650
 6526POPC   C1B29107  12.634  33.971   8.550
 6526POPC   C2B29108  12.645  33.893   8.250
 6526POPC   C3B29109  12.670  33.932   7.950
 6526POPC   C4B29110  12.607  33.883   7.650
 6527POPC   NC329111  33.801  34.548   9.450
 6527POPC   PO429112  33.838  34.592   9.150
 6527POPC   GL129113  33.829  34.619   8.850
 6527POPC   GL229114  33.853  34.676   8.850
 6527POPC   C1A29115  33.805  34.588   8.550
 6527POPC   D2A29116  33.771  34.609   8.250
 6527POPC   C3A29117  33.830  34.616   7.950
 6527POPC   C4A29118  33.795  34.546   7.650
 6527POPC   C1B29119  33.978  34.811   8.550
 6527POPC   C2B29120  33.966  34.740   8.250
 6527POPC   C3B29121  33.933  34.746   7.950
 6527POPC   C4B29122  33.916  34.740   7.650
 6528POPC   NC329123   4.300  23.666   9.450
 6528POPC   PO429124   4.355  23.762   9.150
 6528POPC   GL129125   4.321  23.732   8.850
 6528POPC   GL229126   4.473  23.713   8.850
 6528POPC   C1A29127   4.286  23.742   8.550
 6528POPC   D2A29128   4.364  23.688   8.250
 6528POPC   C3A29129   4.281  23.700   7.950
 6528POPC   C4A29130   4.357  23.682   7.650
 6528POPC   C1B29131   4.550  23.701   8.550
 6528POPC   C2B29132   4.544  23.634   8.250
 6528POPC   C3B29133   4.554  23.703   7.950
 6528POPC   C4B29134   4.512  23.621   7.650
 6529POPC   NC329135   8.240  22.890   9.450
 6529POPC   PO429136   8.165  22.985   9.150
 6529POPC   GL129137   8.174  22.934   8.850
 6529POPC   GL229138   8.039  22.959   8.850
 6529POPC   C1A29139   8.222  22.978   8.550
 6529POPC   D2A29140   8.240  22.955   8.250
 6529POPC   C3A29141   8.225  22.893   7.950
 6529POPC   C4A29142   8.225  22.937   7.650
 6529POPC   C1B29143   7.950  22.998   8.550
 6529POPC   C2B29144   7.980  22.970   8.250
 6529POPC   C3B29145   7.937  22.934   7.950
 6529POPC   C4B29146   7.991  22.913   7.650
 6530POPC   NC329147   8.240  22.211   9.450
 6530POPC   PO429148   8.167  22.205   9.150
 6530POPC   GL129149   8.227  22.167   8.850
 6530POPC   GL229150   8.112  22.273   8.850
 6530POPC   C1A29151   8.169  22.194   8.550
 6530POPC   D2A29152   8.237  22.146   8.250
 6530POPC   C3A29153   8.191  22.132   7.950
 6530POPC   C4A29154   8.166  22.128   7.650
 6530POPC   C1B29155   8.079  22.373   8.550
 6530POPC   C2B29156   8.056  22.381   8.250
 6530POPC   C3B29157   7.986  22.330   7.950
 6530POPC   C4B29158   8.078  22.317   7.650
 6531POPC   NC329159  37.672  21.347   9.450
 6531POPC   PO429160  37.709  21.425   9.150
 6531POPC   GL129161  37.646  21.389   8.850
 6531POPC   GL229162  37.646  21.230   8.850
 6531POPC   C1A29163  37.724  21.342   8.550
 6531POPC   D2A29164  37.694  21.422   8.250
 6531POPC   C3A29165  37.716  21.338   7.950
 6531POPC   C4A29166  37.692  21.378   7.650
 6531POPC   C1B29167  37.720  21.092   8.550
 6531POPC   C2B29168  37.741  21.134   8.250
 6531POPC   C3B29169  37.720  21.106   7.950
 6531POPC   C4B29170  37.676  21.169   7.650
 6532POPC   NC329171  40.024  15.990   9.450
 6532POPC   PO429172  39.967  15.948   9.150
 6532POPC   GL129173  40.034  15.974   8.850
 6532POPC   GL229174  40.137  16.031   8.850
 6532POPC   C1A29175  40.051  15.922   8.550
 6532POPC   D2A29176  40.040  15.924   8.250
 6532POPC   C3A29177  40.040  15.922   7.950
 6532POPC   C4A29178  39.967  15.996   7.650
 6532POPC   C1B29179  40.259  16.106   8.550
 6532POPC   C2B29180  40.246  16.140   8.250
 6532POPC   C3B29181  40.251  16.073   7.950
 6532POPC   C4B29182  40.246  16.044   7.650
 6533POPC   NC329183   3.572  34.625   9.450
 6533POPC   PO429184   3.521  34.556   9.150
 6533POPC   GL129185   3.591  34.619   8.850
 6533POPC   GL229186   3.520  34.710   8.850
 6533POPC   C1A29187   3.591  34.530   8.550
 6533POPC   D2A29188   3.550  34.604   8.250
 6533POPC   C3A29189   3.589  34.614   7.950
 6533POPC   C4A29190   3.561  34.576   7.650
 6533POPC   C1B29191   3.565  34.861   8.550
 6533POPC   C2B29192   3.574  34.777   8.250
 6533POPC   C3B29193   3.531  34.776   7.950
 6533POPC   C4B29194   3.604  34.840   7.650
 6534POPC   NC329195  35.326  31.504   9.450
 6534POPC   PO429196  35.356  31.466   9.150
 6534POPC   GL129197  35.376  31.459   8.850
 6534POPC   GL229198  35.450  31.424   8.850
 6534POPC   C1A29199  35.315  31.438   8.550
 6534POPC   D2A29200  35.389  31.494   8.250
 6534POPC   C3A29201  35.338  31.434   7.950
 6534POPC   C4A29202  35.308  31.485   7.650
 6534POPC   C1B29203  35.593  31.432   8.550
 6534POPC   C2B29204  35.551  31.426   8.250
 6534POPC   C3B29205  35.566  31.433   7.950
 6534POPC   C4B29206  35.636  31.455   7.650
 6535POPC   NC329207  12.826  37.695   9.450
 6535POPC   PO429208  12.856  37.658   9.150
 6535POPC   GL129209  12.815  37.650   8.850
 6535POPC   GL229210  12.915  37.599   8.850
 6535POPC   C1A29211  12.850  37.718   8.550
 6535POPC   D2A29212  12.886  37.690   8.250
 6535POPC   C3A29213  12.818  37.701   7.950
 6535POPC   C4A29214  12.848  37.704   7.650
 6535POPC   C1B29215  12.990  37.458   8.550
 6535POPC   C2B29216  12.947  37.417   8.250
 6535POPC   C3B29217  12.954  37.481   7.950
 6535POPC   C4B29218  13.006  37.418   7.650
 6536POPC   NC329219  10.524  43.069   9.450
 6536POPC   PO429220  10.476  43.081   9.150
 6536POPC   GL129221  10.478  43.158   8.850
 6536POPC   GL229222  10.462  43.057   8.850
 6536POPC   C1A29223  10.485  43.142   8.550
 6536POPC   D2A29224  10.487  43.146   8.250
 6536POPC   C3A29225  10.539  43.087   7.950
 6536POPC   C4A29226  10.513  43.100   7.650
 6536POPC   C1B29227  10.361  42.918   8.550
 6536POPC   C2B29228  10.362  42.901   8.250
 6536POPC   C3B29229  10.313  42.971   7.950
 6536POPC   C4B29230  10.312  42.919   7.650
 6537POPC   NC329231  37.700  18.319   9.450
 6537POPC   PO429232  37.678  18.285   9.150
 6537POPC   GL129233  37.721  18.268   8.850
 6537POPC   GL229234  37.786  18.282   8.850
 6537POPC   C1A29235  37.700  18.257   8.550
 6537POPC   D2A29236  37.658  18.274   8.250
 6537POPC   C3A29237  37.680  18.254   7.950
 6537POPC   C4A29238  37.677  18.244   7.650
 6537POPC   C1B29239  37.918  18.213   8.550
 6537POPC   C2B29240  37.894  18.248   8.250
 6537POPC   C3B29241  37.889  18.296   7.950
 6537POPC   C4B29242  37.877  18.275   7.650
 6538POPC   NC329243  11.268   1.208   9.450
 6538POPC   PO429244  11.329   1.238   9.150
 6538POPC   GL129245  11.342   1.193   8.850
 6538POPC   GL229246  11.281   1.327   8.850
 6538POPC   C1A29247  11.328   1.218   8.550
 6538POPC   D2A29248  11.274   1.188   8.250
 6538POPC   C3A29249  11.279   1.245   7.950
 6538POPC   C4A29250  11.330   1.205   7.650
 6538POPC   C1B29251  11.315   1.462   8.550
 6538POPC   C2B29252  11.324   1.484   8.250
 6538POPC   C3B29253  11.350   1.457   7.950
 6538POPC   C4B29254  11.344   1.445   7.650
 6539POPC   NC329255  25.263  25.304   9.450
 6539POPC   PO429256  25.296  25.266   9.150
 6539POPC   GL129257  25.296  25.236   8.850
 6539POPC   GL229258  25.378  25.261   8.850
 6539POPC   C1A29259  25.293  25.238   8.550
 6539POPC   D2A29260  25.283  25.295   8.250
 6539POPC   C3A29261  25.284  25.219   7.950
 6539POPC   C4A29262  25.222  25.269   7.650
 6539POPC   C1B29263  25.555  25.254   8.550
 6539POPC   C2B29264  25.494  25.248   8.250
 6539POPC   C3B29265  25.486  25.295   7.950
 6539POPC   C4B29266  25.526  25.288   7.650
 6540POPC   NC329267  26.077  18.277   9.450
 6540POPC   PO429268  26.049  18.296   9.150
 6540POPC   GL129269  26.061  18.244   8.850
 6540POPC   GL229270  25.946  18.420   8.850
 6540POPC   C1A29271  26.071  18.326   8.550
 6540POPC   D2A29272  26.033  18.241   8.250
 6540POPC   C3A29273  26.079  18.254   7.950
 6540POPC   C4A29274  26.064  18.309   7.650
 6540POPC   C1B29275  25.964  18.550   8.550
 6540POPC   C2B29276  25.961  18.456   8.250
 6540POPC   C3B29277  25.970  18.471   7.950
 6540POPC   C4B29278  25.906  18.530   7.650
 6541POPC   NC329279  23.754  12.836   9.450
 6541POPC   PO429280  23.736  12.823   9.150
 6541POPC   GL129281  23.752  12.844   8.850
 6541POPC   GL229282  23.848  12.773   8.850
 6541POPC   C1A29283  23.719  12.848   8.550
 6541POPC   D2A29284  23.691  12.865   8.250
 6541POPC   C3A29285  23.722  12.858   7.950
 6541POPC   C4A29286  23.690  12.863   7.650
 6541POPC   C1B29287  23.942  12.675   8.550
 6541POPC   C2B29288  23.932  12.765   8.250
 6541POPC   C3B29289  23.939  12.713   7.950
 6541POPC   C4B29290  23.889  12.678   7.650
 6542POPC   NC329291   8.209  15.926   9.450
 6542POPC   PO429292   8.168  15.976   9.150
 6542POPC   GL129293   8.150  16.003   8.850
 6542POPC   GL229294   8.311  15.914   8.850
 6542POPC   C1A29295   8.181  15.929   8.550
 6542POPC   D2A29296   8.157  15.933   8.250
 6542POPC   C3A29297   8.185  15.968   7.950
 6542POPC   C4A29298   8.229  15.998   7.650
 6542POPC   C1B29299   8.454  15.886   8.550
 6542POPC   C2B29300   8.389  15.893   8.250
 6542POPC   C3B29301   8.464  15.868   7.950
 6542POPC   C4B29302   8.438  15.892   7.650
 6543POPC   NC329303   3.540   7.448   9.450
 6543POPC   PO429304   3.500   7.434   9.150
 6543POPC   GL129305   3.508   7.373   8.850
 6543POPC   GL229306   3.575   7.296   8.850
 6543POPC   C1A29307   3.585   7.422   8.550
 6543POPC   D2A29308   3.512   7.376   8.250
 6543POPC   C3A29309   3.582   7.380   7.950
 6543POPC   C4A29310   3.494   7.440   7.650
 6543POPC   C1B29311   3.685   7.185   8.550
 6543POPC   C2B29312   3.734   7.223   8.250
 6543POPC   C3B29313   3.658   7.183   7.950
 6543POPC   C4B29314   3.735   7.250   7.650
 6544POPC   NC329315  44.622  38.422   9.450
 6544POPC   PO429316  44.634  38.468   9.150
 6544POPC   GL129317  44.659  38.437   8.850
 6544POPC   GL229318  44.730  38.590   8.850
 6544POPC   C1A29319  44.689  38.482   8.550
 6544POPC   D2A29320  44.707  38.465   8.250
 6544POPC   C3A29321  44.656  38.434   7.950
 6544POPC   C4A29322  44.677  38.407   7.650
 6544POPC   C1B29323  44.763  38.734   8.550
 6544POPC   C2B29324  44.751  38.666   8.250
 6544POPC   C3B29325  44.761  38.689   7.950
 6544POPC   C4B29326  44.790  38.737   7.650
 6545POPC   NC329327   4.361  33.839   9.450
 6545POPC   PO429328   4.365  33.797   9.150
 6545POPC   GL129329   4.313  33.833   8.850
 6545POPC   GL229330   4.184  33.851   8.850
 6545POPC   C1A29331   4.361  33.790   8.550
 6545POPC   D2A29332   4.327  33.838   8.250
 6545POPC   C3A29333   4.332  33.804   7.950
 6545POPC   C4A29334   4.315  33.837   7.650
 6545POPC   C1B29335   4.066  33.867   8.550
 6545POPC   C2B29336   4.025  33.868   8.250
 6545POPC   C3B29337   4.105  33.824   7.950
 6545POPC   C4B29338   4.048  33.812   7.650
 6546POPC   NC329339  26.079  20.579   9.450
 6546POPC   PO429340  26.007  20.599   9.150
 6546POPC   GL129341  26.047  20.602   8.850
 6546POPC   GL229342  26.100  20.692   8.850
 6546POPC   C1A29343  26.006  20.647   8.550
 6546POPC   D2A29344  26.016  20.626   8.250
 6546POPC   C3A29345  26.006  20.653   7.950
 6546POPC   C4A29346  26.050  20.641   7.650
 6546POPC   C1B29347  26.120  20.868   8.550
 6546POPC   C2B29348  26.094  20.905   8.250
 6546POPC   C3B29349  26.060  20.807   7.950
 6546POPC   C4B29350  26.086  20.885   7.650
 6547POPC   NC329351   4.355  36.118   9.450
 6547POPC   PO429352   4.294  36.089   9.150
 6547POPC   GL129353   4.297  36.166   8.850
 6547POPC   GL229354   4.436  36.236   8.850
 6547POPC   C1A29355   4.337  36.080   8.550
 6547POPC   D2A29356   4.318  36.118   8.250
 6547POPC   C3A29357   4.314  36.104   7.950
 6547POPC   C4A29358   4.313  36.103   7.650
 6547POPC   C1B29359   4.447  36.356   8.550
 6547POPC   C2B29360   4.431  36.308   8.250
 6547POPC   C3B29361   4.487  36.378   7.950
 6547POPC   C4B29362   4.472  36.323   7.650
 6548POPC   NC329363  32.258  29.964   9.450
 6548POPC   PO429364  32.240  29.911   9.150
 6548POPC   GL129365  32.259  29.925   8.850
 6548POPC   GL229366  32.352  29.843   8.850
 6548POPC   C1A29367  32.251  29.926   8.550
 6548POPC   D2A29368  32.223  29.952   8.250
 6548POPC   C3A29369  32.292  29.877   7.950
 6548POPC   C4A29370  32.277  29.927   7.650
 6548POPC   C1B29371  32.451  29.803   8.550
 6548POPC   C2B29372  32.510  29.840   8.250
 6548POPC   C3B29373  32.489  29.784   7.950
 6548POPC   C4B29374  32.486  29.782   7.650
 6549POPC   NC329375   5.865  41.537   9.450
 6549POPC   PO429376   5.830  41.546   9.150
 6549POPC   GL129377   5.851  41.565   8.850
 6549POPC   GL229378   5.754  41.513   8.850
 6549POPC   C1A29379   5.910  41.549   8.550
 6549POPC   D2A29380   5.877  41.516   8.250
 6549POPC   C3A29381   5.833  41.563   7.950
 6549POPC   C4A29382   5.913  41.567   7.650
 6549POPC   C1B29383   5.635  41.377   8.550
 6549POPC   C2B29384   5.666  41.432   8.250
 6549POPC   C3B29385   5.668  41.467   7.950
 6549POPC   C4B29386   5.615  41.380   7.650
 6550POPC   NC329387   2.015  33.767   9.450
 6550POPC   PO429388   1.969  33.807   9.150
 6550POPC   GL129389   2.002  33.849   8.850
 6550POPC   GL229390   2.043  33.665   8.850
 6550POPC   C1A29391   2.035  33.831   8.550
 6550POPC   D2A29392   2.016  33.762   8.250
 6550POPC   C3A29393   1.985  33.839   7.950
 6550POPC   C4A29394   2.036  33.759   7.650
 6550POPC   C1B29395   2.040  33.591   8.550
 6550POPC   C2B29396   2.041  33.601   8.250
 6550POPC   C3B29397   2.042  33.581   7.950
 6550POPC   C4B29398   2.120  33.572   7.650
 6551POPC   NC329399  24.497  22.171   9.450
 6551POPC   PO429400  24.462  22.188   9.150
 6551POPC   GL129401  24.534  22.206   8.850
 6551POPC   GL229402  24.627  22.217   8.850
 6551POPC   C1A29403  24.481  22.185   8.550
 6551POPC   D2A29404  24.498  22.158   8.250
 6551POPC   C3A29405  24.502  22.188   7.950
 6551POPC   C4A29406  24.491  22.153   7.650
 6551POPC   C1B29407  24.764  22.287   8.550
 6551POPC   C2B29408  24.717  22.253   8.250
 6551POPC   C3B29409  24.736  22.262   7.950
 6551POPC   C4B29410  24.679  22.290   7.650
 6552POPC   NC329411   6.642  37.711   9.450
 6552POPC   PO429412   6.648  37.682   9.150
 6552POPC   GL129413   6.692  37.704   8.850
 6552POPC   GL229414   6.775  37.662   8.850
 6552POPC   C1A29415   6.661  37.663   8.550
 6552POPC   D2A29416   6.649  37.701   8.250
 6552POPC   C3A29417   6.619  37.684   7.950
 6552POPC   C4A29418   6.614  37.666   7.650
 6552POPC   C1B29419   6.918  37.668   8.550
 6552POPC   C2B29420   6.914  37.674   8.250
 6552POPC   C3B29421   6.893  37.676   7.950
 6552POPC   C4B29422   6.884  37.597   7.650
 6553POPC   NC329423  22.161   5.878   9.450
 6553POPC   PO429424  22.184   5.900   9.150
 6553POPC   GL129425  22.140   5.843   8.850
 6553POPC   GL229426  22.209   5.726   8.850
 6553POPC   C1A29427  22.168   5.913   8.550
 6553POPC   D2A29428  22.128   5.895   8.250
 6553POPC   C3A29429  22.206   5.890   7.950
 6553POPC   C4A29430  22.167   5.912   7.650
 6553POPC   C1B29431  22.186   5.638   8.550
 6553POPC   C2B29432  22.214   5.584   8.250
 6553POPC   C3B29433  22.255   5.621   7.950
 6553POPC   C4B29434  22.227   5.585   7.650
 6554POPC   NC329435  21.343  22.144   9.450
 6554POPC   PO429436  21.357  22.173   9.150
 6554POPC   GL129437  21.423  22.137   8.850
 6554POPC   GL229438  21.496  22.146   8.850
 6554POPC   C1A29439  21.396  22.199   8.550
 6554POPC   D2A29440  21.392  22.128   8.250
 6554POPC   C3A29441  21.346  22.154   7.950
 6554POPC   C4A29442  21.415  22.131   7.650
 6554POPC   C1B29443  21.621  22.113   8.550
 6554POPC   C2B29444  21.633  22.145   8.250
 6554POPC   C3B29445  21.588  22.142   7.950
 6554POPC   C4B29446  21.643  22.106   7.650
 6555POPC   NC329447  42.314  19.806   9.450
 6555POPC   PO429448  42.355  19.870   9.150
 6555POPC   GL129449  42.339  19.791   8.850
 6555POPC   GL229450  42.435  19.948   8.850
 6555POPC   C1A29451  42.339  19.883   8.550
 6555POPC   D2A29452  42.350  19.817   8.250
 6555POPC   C3A29453  42.323  19.884   7.950
 6555POPC   C4A29454  42.370  19.814   7.650
 6555POPC   C1B29455  42.524  20.029   8.550
 6555POPC   C2B29456  42.494  19.944   8.250
 6555POPC   C3B29457  42.575  20.034   7.950
 6555POPC   C4B29458  42.548  20.007   7.650
 6556POPC   NC329459  35.390   0.415   9.450
 6556POPC   PO429460  35.354   0.390   9.150
 6556POPC   GL129461  35.381   0.461   8.850
 6556POPC   GL229462  35.305   0.514   8.850
 6556POPC   C1A29463  35.346   0.421   8.550
 6556POPC   D2A29464  35.372   0.474   8.250
 6556POPC   C3A29465  35.322   0.403   7.950
 6556POPC   C4A29466  35.341   0.452   7.650
 6556POPC   C1B29467  35.188   0.600   8.550
 6556POPC   C2B29468  35.155   0.617   8.250
 6556POPC   C3B29469  35.168   0.574   7.950
 6556POPC   C4B29470  35.186   0.560   7.650
 6557POPC   NC329471  31.481  32.269   9.450
 6557POPC   PO429472  31.508  32.265   9.150
 6557POPC   GL129473  31.483  32.287   8.850
 6557POPC   GL229474  31.394  32.143   8.850
 6557POPC   C1A29475  31.472  32.207   8.550
 6557POPC   D2A29476  31.438  32.247   8.250
 6557POPC   C3A29477  31.496  32.263   7.950
 6557POPC   C4A29478  31.448  32.262   7.650
 6557POPC   C1B29479  31.379  32.016   8.550
 6557POPC   C2B29480  31.338  32.009   8.250
 6557POPC   C3B29481  31.331  32.054   7.950
 6557POPC   C4B29482  31.382  32.048   7.650
 6558POPC   NC329483  19.020  25.275   9.450
 6558POPC   PO429484  19.064  25.283   9.150
 6558POPC   GL129485  19.104  25.247   8.850
 6558POPC   GL229486  18.941  25.344   8.850
 6558POPC   C1A29487  19.068  25.259   8.550
 6558POPC   D2A29488  19.015  25.274   8.250
 6558POPC   C3A29489  19.026  25.246   7.950
 6558POPC   C4A29490  19.078  25.224   7.650
 6558POPC   C1B29491  18.908  25.453   8.550
 6558POPC   C2B29492  18.916  25.409   8.250
 6558POPC   C3B29493  18.916  25.396   7.950
 6558POPC   C4B29494  18.862  25.410   7.650
 6559POPC   NC329495   4.348  42.384   9.450
 6559POPC   PO429496   4.364  42.289   9.150
 6559POPC   GL129497   4.279  42.381   8.850
 6559POPC   GL229498   4.394  42.241   8.850
 6559POPC   C1A29499   4.294  42.352   8.550
 6559POPC   D2A29500   4.333  42.316   8.250
 6559POPC   C3A29501   4.350  42.301   7.950
 6559POPC   C4A29502   4.362  42.289   7.650
 6559POPC   C1B29503   4.446  42.122   8.550
 6559POPC   C2B29504   4.437  42.097   8.250
 6559POPC   C3B29505   4.455  42.083   7.950
 6559POPC   C4B29506   4.430  42.137   7.650
 6560POPC   NC329507  13.645  35.302   9.450
 6560POPC   PO429508  13.632  35.310   9.150
 6560POPC   GL129509  13.656  35.347   8.850
 6560POPC   GL229510  13.502  35.374   8.850
 6560POPC   C1A29511  13.628  35.363   8.550
 6560POPC   D2A29512  13.671  35.390   8.250
 6560POPC   C3A29513  13.647  35.314   7.950
 6560POPC   C4A29514  13.587  35.327   7.650
 6560POPC   C1B29515  13.371  35.376   8.550
 6560POPC   C2B29516  13.373  35.346   8.250
 6560POPC   C3B29517  13.416  35.357   7.950
 6560POPC   C4B29518  13.350  35.352   7.650
 6561POPC   NC329519  25.289   3.588   9.450
 6561POPC   PO429520  25.254   3.554   9.150
 6561POPC   GL129521  25.222   3.564   8.850
 6561POPC   GL229522  25.354   3.516   8.850
 6561POPC   C1A29523  25.267   3.568   8.550
 6561POPC   D2A29524  25.232   3.494   8.250
 6561POPC   C3A29525  25.282   3.563   7.950
 6561POPC   C4A29526  25.278   3.517   7.650
 6561POPC   C1B29527  25.507   3.438   8.550
 6561POPC   C2B29528  25.520   3.432   8.250
 6561POPC   C3B29529  25.525   3.456   7.950
 6561POPC   C4B29530  25.480   3.408   7.650
 6562POPC   NC329531   5.066  39.199   9.450
 6562POPC   PO429532   5.058  39.246   9.150
 6562POPC   GL129533   5.053  39.261   8.850
 6562POPC   GL229534   5.058  39.108   8.850
 6562POPC   C1A29535   5.130  39.260   8.550
 6562POPC   D2A29536   5.057  39.190   8.250
 6562POPC   C3A29537   5.117  39.192   7.950
 6562POPC   C4A29538   5.049  39.216   7.650
 6562POPC   C1B29539   5.101  38.964   8.550
 6562POPC   C2B29540   5.114  38.953   8.250
 6562POPC   C3B29541   5.018  38.980   7.950
 6562POPC   C4B29542   5.055  38.969   7.650
 6563POPC   NC329543   7.431  32.217   9.450
 6563POPC   PO429544   7.429  32.213   9.150
 6563POPC   GL129545   7.452  32.233   8.850
 6563POPC   GL229546   7.527  32.274   8.850
 6563POPC   C1A29547   7.439  32.253   8.550
 6563POPC   D2A29548   7.417  32.261   8.250
 6563POPC   C3A29549   7.438  32.273   7.950
 6563POPC   C4A29550   7.434  32.234   7.650
 6563POPC   C1B29551   7.609  32.349   8.550
 6563POPC   C2B29552   7.671  32.422   8.250
 6563POPC   C3B29553   7.622  32.368   7.950
 6563POPC   C4B29554   7.671  32.407   7.650
 6564POPC   NC329555  10.526   5.072   9.450
 6564POPC   PO429556  10.558   5.106   9.150
 6564POPC   GL129557  10.547   5.111   8.850
 6564POPC   GL229558  10.402   5.093   8.850
 6564POPC   C1A29559  10.546   5.106   8.550
 6564POPC   D2A29560  10.524   5.065   8.250
 6564POPC   C3A29561  10.571   5.120   7.950
 6564POPC   C4A29562  10.556   5.078   7.650
 6564POPC   C1B29563  10.274   5.135   8.550
 6564POPC   C2B29564  10.272   5.210   8.250
 6564POPC   C3B29565  10.315   5.169   7.950
 6564POPC   C4B29566  10.268   5.200   7.650
 6565POPC   NC329567  30.678  31.482   9.450
 6565POPC   PO429568  30.699  31.484   9.150
 6565POPC   GL129569  30.677  31.483   8.850
 6565POPC   GL229570  30.729  31.590   8.850
 6565POPC   C1A29571  30.672  31.497   8.550
 6565POPC   D2A29572  30.698  31.475   8.250
 6565POPC   C3A29573  30.678  31.446   7.950
 6565POPC   C4A29574  30.686  31.506   7.650
 6565POPC   C1B29575  30.873  31.686   8.550
 6565POPC   C2B29576  30.869  31.709   8.250
 6565POPC   C3B29577  30.828  31.663   7.950
 6565POPC   C4B29578  30.845  31.644   7.650
 6566POPC   NC329579  31.515   8.976   9.450
 6566POPC   PO429580  31.466   9.018   9.150
 6566POPC   GL129581  31.504   8.989   8.850
 6566POPC   GL229582  31.380   9.036   8.850
 6566POPC   C1A29583  31.513   8.982   8.550
 6566POPC   D2A29584  31.469   8.994   8.250
 6566POPC   C3A29585  31.509   9.010   7.950
 6566POPC   C4A29586  31.517   9.009   7.650
 6566POPC   C1B29587  31.295   9.172   8.550
 6566POPC   C2B29588  31.315   9.203   8.250
 6566POPC   C3B29589  31.358   9.217   7.950
 6566POPC   C4B29590  31.363   9.160   7.650
 6567POPC   NC329591  33.072  11.348   9.450
 6567POPC   PO429592  33.021  11.302   9.150
 6567POPC   GL129593  33.004  11.255   8.850
 6567POPC   GL229594  33.170  11.284   8.850
 6567POPC   C1A29595  32.994  11.259   8.550
 6567POPC   D2A29596  33.021  11.269   8.250
 6567POPC   C3A29597  32.980  11.286   7.950
 6567POPC   C4A29598  33.013  11.286   7.650
 6567POPC   C1B29599  33.240  11.337   8.550
 6567POPC   C2B29600  33.264  11.317   8.250
 6567POPC   C3B29601  33.250  11.301   7.950
 6567POPC   C4B29602  33.266  11.277   7.650
 6568POPC   NC329603  22.921  22.888   9.450
 6568POPC   PO429604  22.937  22.982   9.150
 6568POPC   GL129605  22.953  22.948   8.850
 6568POPC   GL229606  22.920  22.813   8.850
 6568POPC   C1A29607  22.925  22.988   8.550
 6568POPC   D2A29608  22.971  22.918   8.250
 6568POPC   C3A29609  22.917  22.933   7.950
 6568POPC   C4A29610  22.917  22.907   7.650
 6568POPC   C1B29611  22.872  22.665   8.550
 6568POPC   C2B29612  22.865  22.717   8.250
 6568POPC   C3B29613  22.899  22.681   7.950
 6568POPC   C4B29614  22.913  22.714   7.650
 6569POPC   NC329615   5.111  43.860   9.450
 6569POPC   PO429616   5.051  43.852   9.150
 6569POPC   GL129617   5.096  43.865   8.850
 6569POPC   GL229618   5.134  44.018   8.850
 6569POPC   C1A29619   5.061  43.881   8.550
 6569POPC   D2A29620   5.110  43.896   8.250
 6569POPC   C3A29621   5.072  43.913   7.950
 6569POPC   C4A29622   5.061  43.840   7.650
 6569POPC   C1B29623   5.143  44.154   8.550
 6569POPC   C2B29624   5.173  44.181   8.250
 6569POPC   C3B29625   5.087  44.101   7.950
 6569POPC   C4B29626   5.091  44.113   7.650
 6570POPC   NC329627  29.965  25.248   9.450
 6570POPC   PO429628  29.912  25.308   9.150
 6570POPC   GL129629  29.967  25.244   8.850
 6570POPC   GL229630  29.861  25.315   8.850
 6570POPC   C1A29631  29.887  25.224   8.550
 6570POPC   D2A29632  29.890  25.293   8.250
 6570POPC   C3A29633  29.902  25.221   7.950
 6570POPC   C4A29634  29.964  25.247   7.650
 6570POPC   C1B29635  29.742  25.446   8.550
 6570POPC   C2B29636  29.729  25.479   8.250
 6570POPC   C3B29637  29.720  25.419   7.950
 6570POPC   C4B29638  29.747  25.417   7.650
 6571POPC   NC329639  15.158  44.686   9.450
 6571POPC   PO429640  15.172  44.700   9.150
 6571POPC   GL129641  15.201  44.615   8.850
 6571POPC   GL229642  15.137  44.528   8.850
 6571POPC   C1A29643  15.225  44.699   8.550
 6571POPC   D2A29644  15.135  44.642   8.250
 6571POPC   C3A29645  15.158  44.621   7.950
 6571POPC   C4A29646  15.162  44.638   7.650
 6571POPC   C1B29647  15.168  44.420   8.550
 6571POPC   C2B29648  15.133  44.429   8.250
 6571POPC   C3B29649  15.103  44.452   7.950
 6571POPC   C4B29650  15.163  44.372   7.650
 6572POPC   NC329651   4.340  15.200   9.450
 6572POPC   PO429652   4.320  15.222   9.150
 6572POPC   GL129653   4.310  15.207   8.850
 6572POPC   GL229654   4.215  15.246   8.850
 6572POPC   C1A29655   4.313  15.184   8.550
 6572POPC   D2A29656   4.333  15.196   8.250
 6572POPC   C3A29657   4.308  15.189   7.950
 6572POPC   C4A29658   4.321  15.143   7.650
 6572POPC   C1B29659   4.161  15.322   8.550
 6572POPC   C2B29660   4.102  15.385   8.250
 6572POPC   C3B29661   4.084  15.319   7.950
 6572POPC   C4B29662   4.081  15.371   7.650
 6573POPC   NC329663  11.286   8.149   9.450
 6573POPC   PO429664  11.264   8.241   9.150
 6573POPC   GL129665  11.250   8.223   8.850
 6573POPC   GL229666  11.408   8.114   8.850
 6573POPC   C1A29667  11.324   8.187   8.550
 6573POPC   D2A29668  11.276   8.179   8.250
 6573POPC   C3A29669  11.272   8.216   7.950
 6573POPC   C4A29670  11.274   8.229   7.650
 6573POPC   C1B29671  11.550   8.068   8.550
 6573POPC   C2B29672  11.537   8.122   8.250
 6573POPC   C3B29673  11.527   8.113   7.950
 6573POPC   C4B29674  11.543   8.043   7.650
 6574POPC   NC329675  22.118  17.484   9.450
 6574POPC   PO429676  22.195  17.490   9.150
 6574POPC   GL129677  22.204  17.537   8.850
 6574POPC   GL229678  22.307  17.619   8.850
 6574POPC   C1A29679  22.183  17.498   8.550
 6574POPC   D2A29680  22.162  17.486   8.250
 6574POPC   C3A29681  22.156  17.523   7.950
 6574POPC   C4A29682  22.174  17.542   7.650
 6574POPC   C1B29683  22.325  17.597   8.550
 6574POPC   C2B29684  22.377  17.630   8.250
 6574POPC   C3B29685  22.325  17.670   7.950
 6574POPC   C4B29686  22.391  17.609   7.650
 6575POPC   NC329687  39.236  18.233   9.450
 6575POPC   PO429688  39.267  18.254   9.150
 6575POPC   GL129689  39.269  18.322   8.850
 6575POPC   GL229690  39.276  18.142   8.850
 6575POPC   C1A29691  39.198  18.235   8.550
 6575POPC   D2A29692  39.269  18.271   8.250
 6575POPC   C3A29693  39.181  18.270   7.950
 6575POPC   C4A29694  39.205  18.234   7.650
 6575POPC   C1B29695  39.335  18.053   8.550
 6575POPC   C2B29696  39.329  18.017   8.250
 6575POPC   C3B29697  39.344  18.067   7.950
 6575POPC   C4B29698  39.372  18.094   7.650
 6576POPC   NC329699  14.424  34.535   9.450
 6576POPC   PO429700  14.411  34.570   9.150
 6576POPC   GL129701  14.408  34.617   8.850
 6576POPC   GL229702  14.482  34.656   8.850
 6576POPC   C1A29703  14.446  34.537   8.550
 6576POPC   D2A29704  14.379  34.604   8.250
 6576POPC   C3A29705  14.442  34.545   7.950
 6576POPC   C4A29706  14.407  34.541   7.650
 6576POPC   C1B29707  14.616  34.669   8.550
 6576POPC   C2B29708  14.628  34.675   8.250
 6576POPC   C3B29709  14.632  34.705   7.950
 6576POPC   C4B29710  14.574  34.676   7.650
 6577POPC   NC329711  38.449   8.926   9.450
 6577POPC   PO429712  38.451   8.973   9.150
 6577POPC   GL129713  38.422   9.014   8.850
 6577POPC   GL229714  38.382   8.950   8.850
 6577POPC   C1A29715  38.424   8.949   8.550
 6577POPC   D2A29716  38.406   8.949   8.250
 6577POPC   C3A29717  38.491   8.931   7.950
 6577POPC   C4A29718  38.463   8.927   7.650
 6577POPC   C1B29719  38.236   8.803   8.550
 6577POPC   C2B29720  38.272   8.804   8.250
 6577POPC   C3B29721  38.237   8.822   7.950
 6577POPC   C4B29722  38.238   8.871   7.650
 6578POPC   NC329723  11.288  17.515   9.450
 6578POPC   PO429724  11.250  17.522   9.150
 6578POPC   GL129725  11.349  17.505   8.850
 6578POPC   GL229726  11.347  17.341   8.850
 6578POPC   C1A29727  11.306  17.531   8.550
 6578POPC   D2A29728  11.258  17.529   8.250
 6578POPC   C3A29729  11.259  17.475   7.950
 6578POPC   C4A29730  11.269  17.520   7.650
 6578POPC   C1B29731  11.345  17.239   8.550
 6578POPC   C2B29732  11.373  17.289   8.250
 6578POPC   C3B29733  11.363  17.308   7.950
 6578POPC   C4B29734  11.324  17.287   7.650
 6579POPC   NC329735  10.535   8.992   9.450
 6579POPC   PO429736  10.502   9.019   9.150
 6579POPC   GL129737  10.493   8.946   8.850
 6579POPC   GL229738  10.373   8.980   8.850
 6579POPC   C1A29739  10.496   8.973   8.550
 6579POPC   D2A29740  10.512   8.989   8.250
 6579POPC   C3A29741  10.483   8.993   7.950
 6579POPC   C4A29742  10.507   9.015   7.650
 6579POPC   C1B29743  10.317   9.059   8.550
 6579POPC   C2B29744  10.330   9.062   8.250
 6579POPC   C3B29745  10.255   9.019   7.950
 6579POPC   C4B29746  10.267   9.103   7.650
 6580POPC   NC329747  15.993  22.916   9.450
 6580POPC   PO429748  15.914  22.944   9.150
 6580POPC   GL129749  15.939  22.986   8.850
 6580POPC   GL229750  15.925  22.819   8.850
 6580POPC   C1A29751  15.950  22.943   8.550
 6580POPC   D2A29752  15.941  22.931   8.250
 6580POPC   C3A29753  15.953  22.954   7.950
 6580POPC   C4A29754  15.920  22.923   7.650
 6580POPC   C1B29755  15.895  22.671   8.550
 6580POPC   C2B29756  15.977  22.655   8.250
 6580POPC   C3B29757  15.937  22.694   7.950
 6580POPC   C4B29758  15.916  22.663   7.650
 6581POPC   NC329759   9.699   2.762   9.450
 6581POPC   PO429760   9.741   2.796   9.150
 6581POPC   GL129761   9.738   2.718   8.850
 6581POPC   GL229762   9.712   2.663   8.850
 6581POPC   C1A29763   9.721   2.777   8.550
 6581POPC   D2A29764   9.793   2.764   8.250
 6581POPC   C3A29765   9.781   2.736   7.950
 6581POPC   C4A29766   9.757   2.791   7.650
 6581POPC   C1B29767   9.652   2.560   8.550
 6581POPC   C2B29768   9.657   2.522   8.250
 6581POPC   C3B29769   9.593   2.592   7.950
 6581POPC   C4B29770   9.599   2.531   7.650
 6582POPC   NC329771  16.770  31.429   9.450
 6582POPC   PO429772  16.729  31.471   9.150
 6582POPC   GL129773  16.734  31.475   8.850
 6582POPC   GL229774  16.622  31.363   8.850
 6582POPC   C1A29775  16.742  31.514   8.550
 6582POPC   D2A29776  16.733  31.522   8.250
 6582POPC   C3A29777  16.705  31.441   7.950
 6582POPC   C4A29778  16.747  31.458   7.650
 6582POPC   C1B29779  16.555  31.356   8.550
 6582POPC   C2B29780  16.524  31.265   8.250
 6582POPC   C3B29781  16.488  31.297   7.950
 6582POPC   C4B29782  16.568  31.273   7.650
 6583POPC   NC329783  14.394  20.620   9.450
 6583POPC   PO429784  14.373  20.626   9.150
 6583POPC   GL129785  14.448  20.651   8.850
 6583POPC   GL229786  14.463  20.684   8.850
 6583POPC   C1A29787  14.429  20.565   8.550
 6583POPC   D2A29788  14.363  20.588   8.250
 6583POPC   C3A29789  14.362  20.617   7.950
 6583POPC   C4A29790  14.379  20.637   7.650
 6583POPC   C1B29791  14.598  20.737   8.550
 6583POPC   C2B29792  14.633  20.771   8.250
 6583POPC   C3B29793  14.560  20.716   7.950
 6583POPC   C4B29794  14.598  20.734   7.650
 6584POPC   NC329795  39.248  26.026   9.450
 6584POPC   PO429796  39.272  26.088   9.150
 6584POPC   GL129797  39.261  26.049   8.850
 6584POPC   GL229798  39.113  26.074   8.850
 6584POPC   C1A29799  39.189  26.072   8.550
 6584POPC   D2A29800  39.256  26.080   8.250
 6584POPC   C3A29801  39.186  26.037   7.950
 6584POPC   C4A29802  39.214  26.057   7.650
 6584POPC   C1B29803  39.034  26.116   8.550
 6584POPC   C2B29804  38.990  26.112   8.250
 6584POPC   C3B29805  38.975  26.142   7.950
 6584POPC   C4B29806  38.981  26.099   7.650
 6585POPC   NC329807  16.691  12.120   9.450
 6585POPC   PO429808  16.775  12.123   9.150
 6585POPC   GL129809  16.762  12.073   8.850
 6585POPC   GL229810  16.599  12.201   8.850
 6585POPC   C1A29811  16.683  12.066   8.550
 6585POPC   D2A29812  16.741  12.057   8.250
 6585POPC   C3A29813  16.697  12.100   7.950
 6585POPC   C4A29814  16.743  12.091   7.650
 6585POPC   C1B29815  16.607  12.242   8.550
 6585POPC   C2B29816  16.545  12.255   8.250
 6585POPC   C3B29817  16.535  12.265   7.950
 6585POPC   C4B29818  16.559  12.225   7.650
 6586POPC   NC329819  16.748  23.723   9.450
 6586POPC   PO429820  16.712  23.709   9.150
 6586POPC   GL129821  16.719  23.673   8.850
 6586POPC   GL229822  16.655  23.736   8.850
 6586POPC   C1A29823  16.768  23.729   8.550
 6586POPC   D2A29824  16.727  23.729   8.250
 6586POPC   C3A29825  16.745  23.748   7.950
 6586POPC   C4A29826  16.688  23.698   7.650
 6586POPC   C1B29827  16.511  23.746   8.550
 6586POPC   C2B29828  16.520  23.794   8.250
 6586POPC   C3B29829  16.533  23.718   7.950
 6586POPC   C4B29830  16.438  23.744   7.650
 6587POPC   NC329831  35.379  18.262   9.450
 6587POPC   PO429832  35.323  18.241   9.150
 6587POPC   GL129833  35.334  18.315   8.850
 6587POPC   GL229834  35.218  18.261   8.850
 6587POPC   C1A29835  35.308  18.318   8.550
 6587POPC   D2A29836  35.364  18.274   8.250
 6587POPC   C3A29837  35.395  18.239   7.950
 6587POPC   C4A29838  35.377  18.281   7.650
 6587POPC   C1B29839  35.068  18.256   8.550
 6587POPC   C2B29840  35.142  18.304   8.250
 6587POPC   C3B29841  35.116  18.253   7.950
 6587POPC   C4B29842  35.122  18.234   7.650
 6588POPC   NC329843   4.293  37.717   9.450
 6588POPC   PO429844   4.310  37.652   9.150
 6588POPC   GL129845   4.278  37.648   8.850
 6588POPC   GL229846   4.465  37.641   8.850
 6588POPC   C1A29847   4.345  37.691   8.550
 6588POPC   D2A29848   4.287  37.668   8.250
 6588POPC   C3A29849   4.284  37.720   7.950
 6588POPC   C4A29850   4.319  37.704   7.650
 6588POPC   C1B29851   4.529  37.548   8.550
 6588POPC   C2B29852   4.551  37.539   8.250
 6588POPC   C3B29853   4.484  37.546   7.950
 6588POPC   C4B29854   4.552  37.545   7.650
 6589POPC   NC329855  31.435   0.401   9.450
 6589POPC   PO429856  31.498   0.465   9.150
 6589POPC   GL129857  31.476   0.432   8.850
 6589POPC   GL229858  31.565   0.346   8.850
 6589POPC   C1A29859  31.512   0.488   8.550
 6589POPC   D2A29860  31.482   0.482   8.250
 6589POPC   C3A29861  31.496   0.468   7.950
 6589POPC   C4A29862  31.510   0.479   7.650
 6589POPC   C1B29863  31.701   0.356   8.550
 6589POPC   C2B29864  31.740   0.334   8.250
 6589POPC   C3B29865  31.736   0.356   7.950
 6589POPC   C4B29866  31.667   0.344   7.650
 6590POPC   NC329867  40.824  10.568   9.450
 6590POPC   PO429868  40.816  10.485   9.150
 6590POPC   GL129869  40.756  10.569   8.850
 6590POPC   GL229870  40.778  10.361   8.850
 6590POPC   C1A29871  40.781  10.560   8.550
 6590POPC   D2A29872  40.750  10.483   8.250
 6590POPC   C3A29873  40.745  10.529   7.950
 6590POPC   C4A29874  40.753  10.504   7.650
 6590POPC   C1B29875  40.794  10.298   8.550
 6590POPC   C2B29876  40.797  10.252   8.250
 6590POPC   C3B29877  40.780  10.276   7.950
 6590POPC   C4B29878  40.769  10.296   7.650
 6591POPC   NC329879  26.826  39.213   9.450
 6591POPC   PO429880  26.832  39.250   9.150
 6591POPC   GL129881  26.848  39.198   8.850
 6591POPC   GL229882  26.902  39.322   8.850
 6591POPC   C1A29883  26.814  39.206   8.550
 6591POPC   D2A29884  26.786  39.206   8.250
 6591POPC   C3A29885  26.863  39.198   7.950
 6591POPC   C4A29886  26.822  39.216   7.650
 6591POPC   C1B29887  26.992  39.443   8.550
 6591POPC   C2B29888  26.980  39.387   8.250
 6591POPC   C3B29889  26.945  39.449   7.950
 6591POPC   C4B29890  26.985  39.414   7.650
 6592POPC   NC329891  43.082  19.049   9.450
 6592POPC   PO429892  43.131  19.030   9.150
 6592POPC   GL129893  43.146  19.092   8.850
 6592POPC   GL229894  42.964  18.964   8.850
 6592POPC   C1A29895  43.099  19.043   8.550
 6592POPC   D2A29896  43.083  19.104   8.250
 6592POPC   C3A29897  43.102  19.073   7.950
 6592POPC   C4A29898  43.134  19.035   7.650
 6592POPC   C1B29899  42.863  18.924   8.550
 6592POPC   C2B29900  42.851  18.959   8.250
 6592POPC   C3B29901  42.838  18.950   7.950
 6592POPC   C4B29902  42.899  18.962   7.650
 6593POPC   NC329903  22.198   9.745   9.450
 6593POPC   PO429904  22.143   9.731   9.150
 6593POPC   GL129905  22.199   9.743   8.850
 6593POPC   GL229906  22.249   9.847   8.850
 6593POPC   C1A29907  22.128   9.708   8.550
 6593POPC   D2A29908  22.190   9.752   8.250
 6593POPC   C3A29909  22.153   9.740   7.950
 6593POPC   C4A29910  22.131   9.753   7.650
 6593POPC   C1B29911  22.284   9.990   8.550
 6593POPC   C2B29912  22.281   9.940   8.250
 6593POPC   C3B29913  22.225   9.948   7.950
 6593POPC   C4B29914  22.200  10.030   7.650
 6594POPC   NC329915  11.348  40.007   9.450
 6594POPC   PO429916  11.348  40.045   9.150
 6594POPC   GL129917  11.327  39.961   8.850
 6594POPC   GL229918  11.365  39.916   8.850
 6594POPC   C1A29919  11.279  40.030   8.550
 6594POPC   D2A29920  11.286  40.010   8.250
 6594POPC   C3A29921  11.308  39.986   7.950
 6594POPC   C4A29922  11.288  40.015   7.650
 6594POPC   C1B29923  11.389  39.838   8.550
 6594POPC   C2B29924  11.445  39.749   8.250
 6594POPC   C3B29925  11.395  39.759   7.950
 6594POPC   C4B29926  11.429  39.825   7.650
 6595POPC   NC329927   0.483   4.294   9.450
 6595POPC   PO429928   0.392   4.318   9.150
 6595POPC   GL129929   0.435   4.287   8.850
 6595POPC   GL229930   0.353   4.315   8.850
 6595POPC   C1A29931   0.419   4.319   8.550
 6595POPC   D2A29932   0.465   4.290   8.250
 6595POPC   C3A29933   0.441   4.359   7.950
 6595POPC   C4A29934   0.418   4.364   7.650
 6595POPC   C1B29935   0.195   4.283   8.550
 6595POPC   C2B29936   0.208   4.302   8.250
 6595POPC   C3B29937   0.198   4.323   7.950
 6595POPC   C4B29938   0.187   4.272   7.650
 6596POPC   NC329939  32.987  36.885   9.450
 6596POPC   PO429940  33.013  36.886   9.150
 6596POPC   GL129941  33.033  36.903   8.850
 6596POPC   GL229942  33.051  37.012   8.850
 6596POPC   C1A29943  32.996  36.876   8.550
 6596POPC   D2A29944  33.010  36.948   8.250
 6596POPC   C3A29945  33.021  36.899   7.950
 6596POPC   C4A29946  33.023  36.870   7.650
 6596POPC   C1B29947  33.167  37.107   8.550
 6596POPC   C2B29948  33.084  37.081   8.250
 6596POPC   C3B29949  33.139  37.155   7.950
 6596POPC   C4B29950  33.083  37.150   7.650
 6597POPC   NC329951  10.475  26.789   9.450
 6597POPC   PO429952  10.508  26.814   9.150
 6597POPC   GL129953  10.478  26.821   8.850
 6597POPC   GL229954  10.659  26.884   8.850
 6597POPC   C1A29955  10.533  26.824   8.550
 6597POPC   D2A29956  10.556  26.784   8.250
 6597POPC   C3A29957  10.544  26.811   7.950
 6597POPC   C4A29958  10.506  26.791   7.650
 6597POPC   C1B29959  10.746  26.821   8.550
 6597POPC   C2B29960  10.804  26.854   8.250
 6597POPC   C3B29961  10.810  26.839   7.950
 6597POPC   C4B29962  10.769  26.822   7.650
 6598POPC   NC329963  39.270  33.026   9.450
 6598POPC   PO429964  39.243  32.977   9.150
 6598POPC   GL129965  39.214  32.997   8.850
 6598POPC   GL229966  39.222  33.135   8.850
 6598POPC   C1A29967  39.276  33.051   8.550
 6598POPC   D2A29968  39.201  32.995   8.250
 6598POPC   C3A29969  39.230  33.066   7.950
 6598POPC   C4A29970  39.235  32.982   7.650
 6598POPC   C1B29971  39.100  33.208   8.550
 6598POPC   C2B29972  39.164  33.238   8.250
 6598POPC   C3B29973  39.129  33.206   7.950
 6598POPC   C4B29974  39.069  33.229   7.650
 6599POPC   NC329975  14.375  17.550   9.450
 6599POPC   PO429976  14.421  17.498   9.150
 6599POPC   GL129977  14.410  17.516   8.850
 6599POPC   GL229978  14.426  17.429   8.850
 6599POPC   C1A29979  14.428  17.513   8.550
 6599POPC   D2A29980  14.375  17.508   8.250
 6599POPC   C3A29981  14.381  17.544   7.950
 6599POPC   C4A29982  14.377  17.459   7.650
 6599POPC   C1B29983  14.436  17.308   8.550
 6599POPC   C2B29984  14.418  17.228   8.250
 6599POPC   C3B29985  14.484  17.247   7.950
 6599POPC   C4B29986  14.494  17.274   7.650
 6600POPC   NC329987  36.099  24.448   9.450
 6600POPC   PO429988  36.145  24.504   9.150
 6600POPC   GL129989  36.157  24.461   8.850
 6600POPC   GL229990  36.084  24.545   8.850
 6600POPC   C1A29991  36.084  24.506   8.550
 6600POPC   D2A29992  36.080  24.494   8.250
 6600POPC   C3A29993  36.087  24.516   7.950
 6600POPC   C4A29994  36.112  24.491   7.650
 6600POPC   C1B29995  35.914  24.694   8.550
 6600POPC   C2B29996  35.965  24.681   8.250
 6600POPC   C3B29997  35.959  24.631   7.950
 6600POPC   C4B29998  35.982  24.667   7.650
 6601POPC   NC329999  24.465   5.109   9.450
 6601POPC   PO430000  24.497   5.105   9.150
 6601POPC   GL130001  24.491   5.083   8.850
 6601POPC   GL230002  24.519   5.168   8.850
 6601POPC   C1A30003  24.533   5.132   8.550
 6601POPC   D2A30004  24.443   5.105   8.250
 6601POPC   C3A30005  24.526   5.128   7.950
 6601POPC   C4A30006  24.534   5.089   7.650
 6601POPC   C1B30007  24.462   5.348   8.550
 6601POPC   C2B30008  24.471   5.339   8.250
 6601POPC   C3B30009  24.425   5.341   7.950
 6601POPC   C4B30010  24.497   5.301   7.650
 6602POPC   NC330011   1.175   2.007   9.450
 6602POPC   PO430012   1.184   1.949   9.150
 6602POPC   GL130013   1.172   1.995   8.850
 6602POPC   GL230014   1.129   2.072   8.850
 6602POPC   C1A30015   1.257   1.950   8.550
 6602POPC   D2A30016   1.215   2.025   8.250
 6602POPC   C3A30017   1.169   1.961   7.950
 6602POPC   C4A30018   1.181   1.945   7.650
 6602POPC   C1B30019   1.121   2.178   8.550
 6602POPC   C2B30020   1.152   2.208   8.250
 6602POPC   C3B30021   1.135   2.222   7.950
 6602POPC   C4B30022   1.151   2.258   7.650
 6603POPC   NC330023   4.319   0.424   9.450
 6603POPC   PO430024   4.268   0.450   9.150
 6603POPC   GL130025   4.291   0.470   8.850
 6603POPC   GL230026   4.368   0.332   8.850
 6603POPC   C1A30027   4.296   0.404   8.550
 6603POPC   D2A30028   4.274   0.452   8.250
 6603POPC   C3A30029   4.311   0.483   7.950
 6603POPC   C4A30030   4.353   0.474   7.650
 6603POPC   C1B30031   4.354   0.222   8.550
 6603POPC   C2B30032   4.370   0.201   8.250
 6603POPC   C3B30033   4.412   0.207   7.950
 6603POPC   C4B30034   4.330   0.224   7.650
 6604POPC   NC330035  22.944  21.379   9.450
 6604POPC   PO430036  22.940  21.353   9.150
 6604POPC   GL130037  22.987  21.435   8.850
 6604POPC   GL230038  22.900  21.557   8.850
 6604POPC   C1A30039  22.903  21.350   8.550
 6604POPC   D2A30040  22.924  21.355   8.250
 6604POPC   C3A30041  22.979  21.350   7.950
 6604POPC   C4A30042  22.987  21.404   7.650
 6604POPC   C1B30043  22.876  21.627   8.550
 6604POPC   C2B30044  22.900  21.618   8.250
 6604POPC   C3B30045  22.861  21.620   7.950
 6604POPC   C4B30046  22.900  21.617   7.650
 6605POPC   NC330047  33.840   8.947   9.450
 6605POPC   PO430048  33.795   8.935   9.150
 6605POPC   GL130049  33.764   8.929   8.850
 6605POPC   GL230050  33.860   8.873   8.850
 6605POPC   C1A30051  33.797   8.932   8.550
 6605POPC   D2A30052  33.756   8.978   8.250
 6605POPC   C3A30053  33.788   8.953   7.950
 6605POPC   C4A30054  33.782   8.944   7.650
 6605POPC   C1B30055  33.980   8.826   8.550
 6605POPC   C2B30056  33.928   8.769   8.250
 6605POPC   C3B30057  33.952   8.730   7.950
 6605POPC   C4B30058  33.998   8.825   7.650
 6606POPC   NC330059   4.344  26.085   9.450
 6606POPC   PO430060   4.301  25.996   9.150
 6606POPC   GL130061   4.344  25.993   8.850
 6606POPC   GL230062   4.242  26.009   8.850
 6606POPC   C1A30063   4.310  26.002   8.550
 6606POPC   D2A30064   4.302  26.042   8.250
 6606POPC   C3A30065   4.361  26.002   7.950
 6606POPC   C4A30066   4.307  26.039   7.650
 6606POPC   C1B30067   4.135  25.924   8.550
 6606POPC   C2B30068   4.110  25.932   8.250
 6606POPC   C3B30069   4.131  25.918   7.950
 6606POPC   C4B30070   4.065  25.904   7.650
 6607POPC   NC330071  27.567  13.632   9.450
 6607POPC   PO430072  27.551  13.676   9.150
 6607POPC   GL130073  27.603  13.600   8.850
 6607POPC   GL230074  27.659  13.534   8.850
 6607POPC   C1A30075  27.641  13.603   8.550
 6607POPC   D2A30076  27.640  13.591   8.250
 6607POPC   C3A30077  27.595  13.590   7.950
 6607POPC   C4A30078  27.597  13.582   7.650
 6607POPC   C1B30079  27.711  13.470   8.550
 6607POPC   C2B30080  27.701  13.478   8.250
 6607POPC   C3B30081  27.771  13.382   7.950
 6607POPC   C4B30082  27.720  13.454   7.650
 6608POPC   NC330083  29.151   1.243   9.450
 6608POPC   PO430084  29.144   1.182   9.150
 6608POPC   GL130085  29.184   1.195   8.850
 6608POPC   GL230086  29.137   1.044   8.850
 6608POPC   C1A30087  29.137   1.238   8.550
 6608POPC   D2A30088  29.102   1.204   8.250
 6608POPC   C3A30089  29.178   1.172   7.950
 6608POPC   C4A30090  29.120   1.220   7.650
 6608POPC   C1B30091  29.195   0.984   8.550
 6608POPC   C2B30092  29.174   0.933   8.250
 6608POPC   C3B30093  29.159   0.966   7.950
 6608POPC   C4B30094  29.182   0.974   7.650
 6609POPC   NC330095  39.200  17.460   9.450
 6609POPC   PO430096  39.263  17.460   9.150
 6609POPC   GL130097  39.226  17.462   8.850
 6609POPC   GL230098  39.166  17.566   8.850
 6609POPC   C1A30099  39.273  17.461   8.550
 6609POPC   D2A30100  39.264  17.539   8.250
 6609POPC   C3A30101  39.232  17.529   7.950
 6609POPC   C4A30102  39.189  17.469   7.650
 6609POPC   C1B30103  39.085  17.708   8.550
 6609POPC   C2B30104  39.125  17.732   8.250
 6609POPC   C3B30105  39.065  17.699   7.950
 6609POPC   C4B30106  39.084  17.667   7.650
 6610POPC   NC330107  25.314   1.996   9.450
 6610POPC   PO430108  25.216   1.946   9.150
 6610POPC   GL130109  25.315   2.003   8.850
 6610POPC   GL230110  25.357   1.884   8.850
 6610POPC   C1A30111  25.269   2.025   8.550
 6610POPC   D2A30112  25.307   2.035   8.250
 6610POPC   C3A30113  25.287   2.006   7.950
 6610POPC   C4A30114  25.262   2.000   7.650
 6610POPC   C1B30115  25.455   1.888   8.550
 6610POPC   C2B30116  25.490   1.818   8.250
 6610POPC   C3B30117  25.425   1.842   7.950
 6610POPC   C4B30118  25.491   1.798   7.650
 6611POPC   NC330119  15.173   1.176   9.450
 6611POPC   PO430120  15.136   1.254   9.150
 6611POPC   GL130121  15.162   1.165   8.850
 6611POPC   GL230122  15.248   1.183   8.850
 6611POPC   C1A30123  15.228   1.232   8.550
 6611POPC   D2A30124  15.218   1.176   8.250
 6611POPC   C3A30125  15.203   1.175   7.950
 6611POPC   C4A30126  15.146   1.231   7.650
 6611POPC   C1B30127  15.376   1.055   8.550
 6611POPC   C2B30128  15.377   1.064   8.250
 6611POPC   C3B30129  15.425   1.043   7.950
 6611POPC   C4B30130  15.380   1.061   7.650
 6612POPC   NC330131  25.277  37.647   9.450
 6612POPC   PO430132  25.262  37.728   9.150
 6612POPC   GL130133  25.266  37.690   8.850
 6612POPC   GL230134  25.258  37.531   8.850
 6612POPC   C1A30135  25.295  37.685   8.550
 6612POPC   D2A30136  25.259  37.723   8.250
 6612POPC   C3A30137  25.270  37.631   7.950
 6612POPC   C4A30138  25.278  37.685   7.650
 6612POPC   C1B30139  25.272  37.423   8.550
 6612POPC   C2B30140  25.207  37.452   8.250
 6612POPC   C3B30141  25.212  37.445   7.950
 6612POPC   C4B30142  25.283  37.382   7.650
 6613POPC   NC330143  28.397  40.809   9.450
 6613POPC   PO430144  28.406  40.830   9.150
 6613POPC   GL130145  28.378  40.808   8.850
 6613POPC   GL230146  28.332  40.627   8.850
 6613POPC   C1A30147  28.401  40.753   8.550
 6613POPC   D2A30148  28.354  40.752   8.250
 6613POPC   C3A30149  28.366  40.818   7.950
 6613POPC   C4A30150  28.405  40.748   7.650
 6613POPC   C1B30151  28.291  40.602   8.550
 6613POPC   C2B30152  28.219  40.543   8.250
 6613POPC   C3B30153  28.246  40.586   7.950
 6613POPC   C4B30154  28.257  40.583   7.650
 6614POPC   NC330155  36.867  30.683   9.450
 6614POPC   PO430156  36.947  30.686   9.150
 6614POPC   GL130157  36.899  30.688   8.850
 6614POPC   GL230158  36.871  30.552   8.850
 6614POPC   C1A30159  36.889  30.692   8.550
 6614POPC   D2A30160  36.896  30.746   8.250
 6614POPC   C3A30161  36.870  30.667   7.950
 6614POPC   C4A30162  36.855  30.673   7.650
 6614POPC   C1B30163  36.774  30.450   8.550
 6614POPC   C2B30164  36.862  30.484   8.250
 6614POPC   C3B30165  36.843  30.481   7.950
 6614POPC   C4B30166  36.788  30.490   7.650
 6615POPC   NC330167   9.741  41.509   9.450
 6615POPC   PO430168   9.705  41.548   9.150
 6615POPC   GL130169   9.764  41.568   8.850
 6615POPC   GL230170   9.743  41.422   8.850
 6615POPC   C1A30171   9.770  41.518   8.550
 6615POPC   D2A30172   9.771  41.551   8.250
 6615POPC   C3A30173   9.781  41.531   7.950
 6615POPC   C4A30174   9.741  41.575   7.650
 6615POPC   C1B30175   9.831  41.342   8.550
 6615POPC   C2B30176   9.756  41.315   8.250
 6615POPC   C3B30177   9.804  41.292   7.950
 6615POPC   C4B30178   9.844  41.295   7.650
 6616POPC   NC330179  13.638   7.374   9.450
 6616POPC   PO430180  13.607   7.434   9.150
 6616POPC   GL130181  13.582   7.459   8.850
 6616POPC   GL230182  13.597   7.282   8.850
 6616POPC   C1A30183  13.645   7.435   8.550
 6616POPC   D2A30184  13.676   7.445   8.250
 6616POPC   C3A30185  13.658   7.443   7.950
 6616POPC   C4A30186  13.674   7.429   7.650
 6616POPC   C1B30187  13.616   7.135   8.550
 6616POPC   C2B30188  13.538   7.198   8.250
 6616POPC   C3B30189  13.549   7.153   7.950
 6616POPC   C4B30190  13.609   7.160   7.650
 6617POPC   NC330191  44.612   0.422   9.450
 6617POPC   PO430192  44.681   0.393   9.150
 6617POPC   GL130193  44.634   0.424   8.850
 6617POPC   GL230194  44.512   0.343   8.850
 6617POPC   C1A30195  44.668   0.479   8.550
 6617POPC   D2A30196  44.621   0.441   8.250
 6617POPC   C3A30197  44.668   0.452   7.950
 6617POPC   C4A30198  44.673   0.414   7.650
 6617POPC   C1B30199  44.395   0.379   8.550
 6617POPC   C2B30200  44.475   0.311   8.250
 6617POPC   C3B30201  44.451   0.371   7.950
 6617POPC   C4B30202  44.387   0.345   7.650
 6618POPC   NC330203  33.015  29.150   9.450
 6618POPC   PO430204  32.998  29.129   9.150
 6618POPC   GL130205  33.011  29.152   8.850
 6618POPC   GL230206  33.047  29.242   8.850
 6618POPC   C1A30207  33.057  29.139   8.550
 6618POPC   D2A30208  32.988  29.157   8.250
 6618POPC   C3A30209  33.064  29.174   7.950
 6618POPC   C4A30210  33.033  29.155   7.650
 6618POPC   C1B30211  33.088  29.338   8.550
 6618POPC   C2B30212  33.142  29.348   8.250
 6618POPC   C3B30213  33.087  29.355   7.950
 6618POPC   C4B30214  33.069  29.398   7.650
 6619POPC   NC330215   5.893  43.921   9.450
 6619POPC   PO430216   5.915  43.918   9.150
 6619POPC   GL130217   5.870  43.877   8.850
 6619POPC   GL230218   5.826  43.805   8.850
 6619POPC   C1A30219   5.919  43.890   8.550
 6619POPC   D2A30220   5.852  43.853   8.250
 6619POPC   C3A30221   5.857  43.913   7.950
 6619POPC   C4A30222   5.874  43.918   7.650
 6619POPC   C1B30223   5.852  43.643   8.550
 6619POPC   C2B30224   5.844  43.659   8.250
 6619POPC   C3B30225   5.861  43.624   7.950
 6619POPC   C4B30226   5.887  43.632   7.650
 6620POPC   NC330227  33.843  43.100   9.450
 6620POPC   PO430228  33.785  43.152   9.150
 6620POPC   GL130229  33.809  43.088   8.850
 6620POPC   GL230230  33.881  42.989   8.850
 6620POPC   C1A30231  33.756  43.130   8.550
 6620POPC   D2A30232  33.784  43.072   8.250
 6620POPC   C3A30233  33.844  43.142   7.950
 6620POPC   C4A30234  33.793  43.061   7.650
 6620POPC   C1B30235  33.984  42.970   8.550
 6620POPC   C2B30236  33.962  42.978   8.250
 6620POPC   C3B30237  33.998  42.947   7.950
 6620POPC   C4B30238  33.946  42.925   7.650
 6621POPC   NC330239  41.573  15.942   9.450
 6621POPC   PO430240  41.587  16.002   9.150
 6621POPC   GL130241  41.528  15.907   8.850
 6621POPC   GL230242  41.439  15.921   8.850
 6621POPC   C1A30243  41.593  15.928   8.550
 6621POPC   D2A30244  41.533  15.972   8.250
 6621POPC   C3A30245  41.527  15.928   7.950
 6621POPC   C4A30246  41.517  15.916   7.650
 6621POPC   C1B30247  41.290  15.896   8.550
 6621POPC   C2B30248  41.345  15.922   8.250
 6621POPC   C3B30249  41.270  15.958   7.950
 6621POPC   C4B30250  41.269  15.883   7.650
 6622POPC   NC330251  29.939  36.156   9.450
 6622POPC   PO430252  29.970  36.160   9.150
 6622POPC   GL130253  29.928  36.120   8.850
 6622POPC   GL230254  29.795  36.092   8.850
 6622POPC   C1A30255  29.902  36.123   8.550
 6622POPC   D2A30256  29.895  36.116   8.250
 6622POPC   C3A30257  29.923  36.083   7.950
 6622POPC   C4A30258  29.925  36.167   7.650
 6622POPC   C1B30259  29.721  35.921   8.550
 6622POPC   C2B30260  29.695  35.979   8.250
 6622POPC   C3B30261  29.777  35.980   7.950
 6622POPC   C4B30262  29.737  35.943   7.650
 6623POPC   NC330263  14.440  38.415   9.450
 6623POPC   PO430264  14.425  38.468   9.150
 6623POPC   GL130265  14.446  38.479   8.850
 6623POPC   GL230266  14.494  38.540   8.850
 6623POPC   C1A30267  14.431  38.460   8.550
 6623POPC   D2A30268  14.439  38.454   8.250
 6623POPC   C3A30269  14.442  38.499   7.950
 6623POPC   C4A30270  14.412  38.440   7.650
 6623POPC   C1B30271  14.621  38.672   8.550
 6623POPC   C2B30272  14.575  38.637   8.250
 6623POPC   C3B30273  14.585  38.627   7.950
 6623POPC   C4B30274  14.612  38.598   7.650
 6624POPC   NC330275  21.377  43.930   9.450
 6624POPC   PO430276  21.420  43.901   9.150
 6624POPC   GL130277  21.426  43.861   8.850
 6624POPC   GL230278  21.243  43.821   8.850
 6624POPC   C1A30279  21.389  43.838   8.550
 6624POPC   D2A30280  21.401  43.871   8.250
 6624POPC   C3A30281  21.390  43.842   7.950
 6624POPC   C4A30282  21.358  43.935   7.650
 6624POPC   C1B30283  21.168  43.726   8.550
 6624POPC   C2B30284  21.184  43.694   8.250
 6624POPC   C3B30285  21.149  43.780   7.950
 6624POPC   C4B30286  21.197  43.704   7.650
 6625POPC   NC330287   9.013  17.531   9.450
 6625POPC   PO430288   8.988  17.557   9.150
 6625POPC   GL130289   9.017  17.544   8.850
 6625POPC   GL230290   9.085  17.394   8.850
 6625POPC   C1A30291   8.953  17.474   8.550
 6625POPC   D2A30292   8.994  17.524   8.250
 6625POPC   C3A30293   8.978  17.482   7.950
 6625POPC   C4A30294   8.945  17.556   7.650
 6625POPC   C1B30295   9.207  17.337   8.550
 6625POPC   C2B30296   9.186  17.413   8.250
 6625POPC   C3B30297   9.219  17.378   7.950
 6625POPC   C4B30298   9.204  17.405   7.650
 6626POPC   NC330299  38.482  27.557   9.450
 6626POPC   PO430300  38.430  27.614   9.150
 6626POPC   GL130301  38.434  27.626   8.850
 6626POPC   GL230302  38.519  27.709   8.850
 6626POPC   C1A30303  38.422  27.640   8.550
 6626POPC   D2A30304  38.452  27.570   8.250
 6626POPC   C3A30305  38.456  27.602   7.950
 6626POPC   C4A30306  38.453  27.623   7.650
 6626POPC   C1B30307  38.481  27.880   8.550
 6626POPC   C2B30308  38.522  27.791   8.250
 6626POPC   C3B30309  38.492  27.833   7.950
 6626POPC   C4B30310  38.457  27.882   7.650
 6627POPC   NC330311   2.734  43.140   9.450
 6627POPC   PO430312   2.749  43.140   9.150
 6627POPC   GL130313   2.729  43.080   8.850
 6627POPC   GL230314   2.837  43.027   8.850
 6627POPC   C1A30315   2.777  43.128   8.550
 6627POPC   D2A30316   2.764  43.089   8.250
 6627POPC   C3A30317   2.771  43.066   7.950
 6627POPC   C4A30318   2.807  43.098   7.650
 6627POPC   C1B30319   2.844  42.889   8.550
 6627POPC   C2B30320   2.848  42.917   8.250
 6627POPC   C3B30321   2.921  42.895   7.950
 6627POPC   C4B30322   2.921  42.872   7.650
 6628POPC   NC330323   2.012   5.846   9.450
 6628POPC   PO430324   1.980   5.889   9.150
 6628POPC   GL130325   1.989   5.838   8.850
 6628POPC   GL230326   2.145   5.954   8.850
 6628POPC   C1A30327   2.011   5.852   8.550
 6628POPC   D2A30328   2.012   5.897   8.250
 6628POPC   C3A30329   2.028   5.872   7.950
 6628POPC   C4A30330   2.025   5.851   7.650
 6628POPC   C1B30331   2.254   6.009   8.550
 6628POPC   C2B30332   2.242   6.023   8.250
 6628POPC   C3B30333   2.190   5.972   7.950
 6628POPC   C4B30334   2.260   5.968   7.650
 6629POPC   NC330335  29.108   2.738   9.450
 6629POPC   PO430336  29.177   2.764   9.150
 6629POPC   GL130337  29.116   2.774   8.850
 6629POPC   GL230338  29.084   2.849   8.850
 6629POPC   C1A30339  29.144   2.804   8.550
 6629POPC   D2A30340  29.115   2.732   8.250
 6629POPC   C3A30341  29.188   2.754   7.950
 6629POPC   C4A30342  29.109   2.762   7.650
 6629POPC   C1B30343  28.966   2.927   8.550
 6629POPC   C2B30344  28.946   2.937   8.250
 6629POPC   C3B30345  28.974   2.936   7.950
 6629POPC   C4B30346  29.005   2.927   7.650
 6630POPC   NC330347  15.209  36.887   9.450
 6630POPC   PO430348  15.219  36.936   9.150
 6630POPC   GL130349  15.169  36.887   8.850
 6630POPC   GL230350  15.224  37.031   8.850
 6630POPC   C1A30351  15.200  36.892   8.550
 6630POPC   D2A30352  15.169  36.940   8.250
 6630POPC   C3A30353  15.212  36.939   7.950
 6630POPC   C4A30354  15.167  36.863   7.650
 6630POPC   C1B30355  15.223  37.136   8.550
 6630POPC   C2B30356  15.276  37.194   8.250
 6630POPC   C3B30357  15.212  37.190   7.950
 6630POPC   C4B30358  15.216  37.174   7.650
 6631POPC   NC330359  33.794   8.194   9.450
 6631POPC   PO430360  33.782   8.227   9.150
 6631POPC   GL130361  33.808   8.225   8.850
 6631POPC   GL230362  33.734   8.325   8.850
 6631POPC   C1A30363  33.835   8.157   8.550
 6631POPC   D2A30364  33.778   8.161   8.250
 6631POPC   C3A30365  33.784   8.213   7.950
 6631POPC   C4A30366  33.754   8.154   7.650
 6631POPC   C1B30367  33.659   8.477   8.550
 6631POPC   C2B30368  33.677   8.397   8.250
 6631POPC   C3B30369  33.694   8.382   7.950
 6631POPC   C4B30370  33.708   8.387   7.650
 6632POPC   NC330371  40.791   8.988   9.450
 6632POPC   PO430372  40.775   8.964   9.150
 6632POPC   GL130373  40.797   8.963   8.850
 6632POPC   GL230374  40.892   9.125   8.850
 6632POPC   C1A30375  40.741   8.945   8.550
 6632POPC   D2A30376  40.794   8.928   8.250
 6632POPC   C3A30377  40.747   9.017   7.950
 6632POPC   C4A30378  40.757   8.929   7.650
 6632POPC   C1B30379  40.940   9.165   8.550
 6632POPC   C2B30380  40.912   9.226   8.250
 6632POPC   C3B30381  40.892   9.224   7.950
 6632POPC   C4B30382  40.897   9.194   7.650
 6633POPC   NC330383  31.448  30.650   9.450
 6633POPC   PO430384  31.522  30.661   9.150
 6633POPC   GL130385  31.503  30.702   8.850
 6633POPC   GL230386  31.351  30.769   8.850
 6633POPC   C1A30387  31.440  30.677   8.550
 6633POPC   D2A30388  31.423  30.657   8.250
 6633POPC   C3A30389  31.458  30.663   7.950
 6633POPC   C4A30390  31.433  30.687   7.650
 6633POPC   C1B30391  31.317  30.828   8.550
 6633POPC   C2B30392  31.325  30.834   8.250
 6633POPC   C3B30393  31.331  30.879   7.950
 6633POPC   C4B30394  31.285  30.823   7.650
 6634POPC   NC330395   9.738   0.486   9.450
 6634POPC   PO430396   9.700   0.398   9.150
 6634POPC   GL130397   9.726   0.458   8.850
 6634POPC   GL230398   9.680   0.519   8.850
 6634POPC   C1A30399   9.741   0.487   8.550
 6634POPC   D2A30400   9.785   0.416   8.250
 6634POPC   C3A30401   9.770   0.437   7.950
 6634POPC   C4A30402   9.781   0.475   7.650
 6634POPC   C1B30403   9.508   0.601   8.550
 6634POPC   C2B30404   9.572   0.595   8.250
 6634POPC   C3B30405   9.539   0.618   7.950
 6634POPC   C4B30406   9.547   0.610   7.650
 6635POPC   NC330407  26.774   4.337   9.450
 6635POPC   PO430408  26.815   4.352   9.150
 6635POPC   GL130409  26.806   4.292   8.850
 6635POPC   GL230410  26.927   4.214   8.850
 6635POPC   C1A30411  26.833   4.287   8.550
 6635POPC   D2A30412  26.860   4.288   8.250
 6635POPC   C3A30413  26.787   4.323   7.950
 6635POPC   C4A30414  26.772   4.285   7.650
 6635POPC   C1B30415  27.020   4.160   8.550
 6635POPC   C2B30416  27.034   4.128   8.250
 6635POPC   C3B30417  27.013   4.129   7.950
 6635POPC   C4B30418  26.960   4.155   7.650
 6636POPC   NC330419  31.432  33.063   9.450
 6636POPC   PO430420  31.482  33.016   9.150
 6636POPC   GL130421  31.489  33.032   8.850
 6636POPC   GL230422  31.607  33.055   8.850
 6636POPC   C1A30423  31.499  33.026   8.550
 6636POPC   D2A30424  31.451  33.009   8.250
 6636POPC   C3A30425  31.481  33.050   7.950
 6636POPC   C4A30426  31.441  33.020   7.650
 6636POPC   C1B30427  31.692  33.023   8.550
 6636POPC   C2B30428  31.689  33.081   8.250
 6636POPC   C3B30429  31.687  33.045   7.950
 6636POPC   C4B30430  31.717  33.024   7.650
 6637POPC   NC330431  16.742  30.675   9.450
 6637POPC   PO430432  16.702  30.662   9.150
 6637POPC   GL130433  16.759  30.716   8.850
 6637POPC   GL230434  16.795  30.650   8.850
 6637POPC   C1A30435  16.766  30.734   8.550
 6637POPC   D2A30436  16.744  30.658   8.250
 6637POPC   C3A30437  16.751  30.663   7.950
 6637POPC   C4A30438  16.723  30.689   7.650
 6637POPC   C1B30439  16.893  30.574   8.550
 6637POPC   C2B30440  16.866  30.480   8.250
 6637POPC   C3B30441  16.870  30.514   7.950
 6637POPC   C4B30442  16.922  30.483   7.650
 6638POPC   NC330443   0.445  42.300   9.450
 6638POPC   PO430444   0.484  42.374   9.150
 6638POPC   GL130445   0.406  42.358   8.850
 6638POPC   GL230446   0.567  42.293   8.850
 6638POPC   C1A30447   0.446  42.292   8.550
 6638POPC   D2A30448   0.398  42.374   8.250
 6638POPC   C3A30449   0.429  42.365   7.950
 6638POPC   C4A30450   0.438  42.322   7.650
 6638POPC   C1B30451   0.641  42.244   8.550
 6638POPC   C2B30452   0.685  42.296   8.250
 6638POPC   C3B30453   0.699  42.287   7.950
 6638POPC   C4B30454   0.700  42.231   7.650
 6639POPC   NC330455   6.668  31.518   9.450
 6639POPC   PO430456   6.649  31.518   9.150
 6639POPC   GL130457   6.601  31.474   8.850
 6639POPC   GL230458   6.496  31.417   8.850
 6639POPC   C1A30459   6.622  31.518   8.550
 6639POPC   D2A30460   6.649  31.479   8.250
 6639POPC   C3A30461   6.671  31.431   7.950
 6639POPC   C4A30462   6.670  31.518   7.650
 6639POPC   C1B30463   6.387  31.454   8.550
 6639POPC   C2B30464   6.351  31.428   8.250
 6639POPC   C3B30465   6.439  31.458   7.950
 6639POPC   C4B30466   6.357  31.471   7.650
 6640POPC   NC330467   8.983  33.816   9.450
 6640POPC   PO430468   8.947  33.798   9.150
 6640POPC   GL130469   8.962  33.835   8.850
 6640POPC   GL230470   9.044  33.946   8.850
 6640POPC   C1A30471   9.006  33.764   8.550
 6640POPC   D2A30472   8.924  33.773   8.250
 6640POPC   C3A30473   8.991  33.804   7.950
 6640POPC   C4A30474   8.957  33.807   7.650
 6640POPC   C1B30475   9.108  34.048   8.550
 6640POPC   C2B30476   9.108  34.036   8.250
 6640POPC   C3B30477   9.107  34.011   7.950
 6640POPC   C4B30478   9.081  33.999   7.650
 6641POPC   NC330479   1.989  33.065   9.450
 6641POPC   PO430480   1.985  33.063   9.150
 6641POPC   GL130481   1.952  32.997   8.850
 6641POPC   GL230482   1.949  32.961   8.850
 6641POPC   C1A30483   1.959  33.005   8.550
 6641POPC   D2A30484   1.983  33.018   8.250
 6641POPC   C3A30485   2.037  32.987   7.950
 6641POPC   C4A30486   1.973  33.035   7.650
 6641POPC   C1B30487   1.836  32.863   8.550
 6641POPC   C2B30488   1.858  32.802   8.250
 6641POPC   C3B30489   1.800  32.859   7.950
 6641POPC   C4B30490   1.816  32.875   7.650
 6642POPC   NC330491   1.972  15.951   9.450
 6642POPC   PO430492   2.035  15.973   9.150
 6642POPC   GL130493   1.994  15.974   8.850
 6642POPC   GL230494   1.817  15.923   8.850
 6642POPC   C1A30495   2.034  15.923   8.550
 6642POPC   D2A30496   1.961  15.926   8.250
 6642POPC   C3A30497   1.980  15.962   7.950
 6642POPC   C4A30498   2.011  15.956   7.650
 6642POPC   C1B30499   1.713  16.008   8.550
 6642POPC   C2B30500   1.738  15.995   8.250
 6642POPC   C3B30501   1.751  15.962   7.950
 6642POPC   C4B30502   1.777  15.995   7.650
 6643POPC   NC330503  36.084  28.348   9.450
 6643POPC   PO430504  36.158  28.366   9.150
 6643POPC   GL130505  36.080  28.410   8.850
 6643POPC   GL230506  36.278  28.294   8.850
 6643POPC   C1A30507  36.137  28.399   8.550
 6643POPC   D2A30508  36.097  28.376   8.250
 6643POPC   C3A30509  36.089  28.386   7.950
 6643POPC   C4A30510  36.099  28.355   7.650
 6643POPC   C1B30511  36.311  28.222   8.550
 6643POPC   C2B30512  36.386  28.259   8.250
 6643POPC   C3B30513  36.306  28.250   7.950
 6643POPC   C4B30514  36.308  28.210   7.650
 6644POPC   NC330515  34.620  22.958   9.450
 6644POPC   PO430516  34.582  22.951   9.150
 6644POPC   GL130517  34.567  22.969   8.850
 6644POPC   GL230518  34.574  23.011   8.850
 6644POPC   C1A30519  34.611  22.888   8.550
 6644POPC   D2A30520  34.595  22.987   8.250
 6644POPC   C3A30521  34.619  22.979   7.950
 6644POPC   C4A30522  34.567  22.955   7.650
 6644POPC   C1B30523  34.638  23.175   8.550
 6644POPC   C2B30524  34.674  23.206   8.250
 6644POPC   C3B30525  34.648  23.192   7.950
 6644POPC   C4B30526  34.682  23.140   7.650
 6645POPC   NC330527  29.172  31.424   9.450
 6645POPC   PO430528  29.168  31.505   9.150
 6645POPC   GL130529  29.123  31.483   8.850
 6645POPC   GL230530  29.136  31.387   8.850
 6645POPC   C1A30531  29.150  31.509   8.550
 6645POPC   D2A30532  29.126  31.511   8.250
 6645POPC   C3A30533  29.187  31.458   7.950
 6645POPC   C4A30534  29.147  31.430   7.650
 6645POPC   C1B30535  29.015  31.213   8.550
 6645POPC   C2B30536  29.015  31.242   8.250
 6645POPC   C3B30537  28.988  31.222   7.950
 6645POPC   C4B30538  29.056  31.197   7.650
 6646POPC   NC330539  36.889   1.263   9.450
 6646POPC   PO430540  36.933   1.182   9.150
 6646POPC   GL130541  36.882   1.183   8.850
 6646POPC   GL230542  36.982   1.158   8.850
 6646POPC   C1A30543  36.872   1.238   8.550
 6646POPC   D2A30544  36.877   1.201   8.250
 6646POPC   C3A30545  36.867   1.201   7.950
 6646POPC   C4A30546  36.899   1.253   7.650
 6646POPC   C1B30547  37.092   1.089   8.550
 6646POPC   C2B30548  37.111   1.094   8.250
 6646POPC   C3B30549  37.143   1.085   7.950
 6646POPC   C4B30550  37.150   1.104   7.650
 6647POPC   NC330551  34.593  32.200   9.450
 6647POPC   PO430552  34.624  32.213   9.150
 6647POPC   GL130553  34.616  32.286   8.850
 6647POPC   GL230554  34.546  32.386   8.850
 6647POPC   C1A30555  34.623  32.292   8.550
 6647POPC   D2A30556  34.579  32.205   8.250
 6647POPC   C3A30557  34.539  32.287   7.950
 6647POPC   C4A30558  34.555  32.205   7.650
 6647POPC   C1B30559  34.456  32.502   8.550
 6647POPC   C2B30560  34.458  32.426   8.250
 6647POPC   C3B30561  34.438  32.506   7.950
 6647POPC   C4B30562  34.412  32.495   7.650
 6648POPC   NC330563   2.725  30.692   9.450
 6648POPC   PO430564   2.778  30.657   9.150
 6648POPC   GL130565   2.726  30.738   8.850
 6648POPC   GL230566   2.866  30.792   8.850
 6648POPC   C1A30567   2.735  30.684   8.550
 6648POPC   D2A30568   2.790  30.716   8.250
 6648POPC   C3A30569   2.813  30.656   7.950
 6648POPC   C4A30570   2.760  30.666   7.650
 6648POPC   C1B30571   2.988  30.826   8.550
 6648POPC   C2B30572   3.000  30.856   8.250
 6648POPC   C3B30573   2.967  30.809   7.950
 6648POPC   C4B30574   2.926  30.809   7.650
 6649POPC   NC330575   1.226  22.172   9.450
 6649POPC   PO430576   1.173  22.147   9.150
 6649POPC   GL130577   1.214  22.198   8.850
 6649POPC   GL230578   1.166  22.005   8.850
 6649POPC   C1A30579   1.173  22.133   8.550
 6649POPC   D2A30580   1.247  22.193   8.250
 6649POPC   C3A30581   1.178  22.159   7.950
 6649POPC   C4A30582   1.230  22.127   7.650
 6649POPC   C1B30583   1.184  21.918   8.550
 6649POPC   C2B30584   1.218  21.946   8.250
 6649POPC   C3B30585   1.157  21.953   7.950
 6649POPC   C4B30586   1.136  21.918   7.650
 6650POPC   NC330587  18.326   5.096   9.450
 6650POPC   PO430588  18.295   5.123   9.150
 6650POPC   GL130589  18.321   5.111   8.850
 6650POPC   GL230590  18.164   5.143   8.850
 6650POPC   C1A30591  18.329   5.116   8.550
 6650POPC   D2A30592  18.293   5.046   8.250
 6650POPC   C3A30593  18.308   5.130   7.950
 6650POPC   C4A30594  18.234   5.097   7.650
 6650POPC   C1B30595  18.030   5.261   8.550
 6650POPC   C2B30596  18.091   5.205   8.250
 6650POPC   C3B30597  18.061   5.275   7.950
 6650POPC   C4B30598  18.053   5.283   7.650
 6651POPC   NC330599  27.632  22.946   9.450
 6651POPC   PO430600  27.619  22.908   9.150
 6651POPC   GL130601  27.592  22.980   8.850
 6651POPC   GL230602  27.734  22.851   8.850
 6651POPC   C1A30603  27.568  22.909   8.550
 6651POPC   D2A30604  27.624  22.982   8.250
 6651POPC   C3A30605  27.565  22.902   7.950
 6651POPC   C4A30606  27.565  22.950   7.650
 6651POPC   C1B30607  27.839  22.854   8.550
 6651POPC   C2B30608  27.804  22.814   8.250
 6651POPC   C3B30609  27.847  22.871   7.950
 6651POPC   C4B30610  27.808  22.890   7.650
 6652POPC   NC330611  17.460  29.101   9.450
 6652POPC   PO430612  17.478  29.121   9.150
 6652POPC   GL130613  17.501  29.191   8.850
 6652POPC   GL230614  17.624  29.050   8.850
 6652POPC   C1A30615  17.461  29.105   8.550
 6652POPC   D2A30616  17.534  29.097   8.250
 6652POPC   C3A30617  17.474  29.156   7.950
 6652POPC   C4A30618  17.461  29.134   7.650
 6652POPC   C1B30619  17.674  29.006   8.550
 6652POPC   C2B30620  17.711  29.043   8.250
 6652POPC   C3B30621  17.742  29.062   7.950
 6652POPC   C4B30622  17.713  28.995   7.650
 6653POPC   NC330623   2.005   6.668   9.450
 6653POPC   PO430624   2.028   6.629   9.150
 6653POPC   GL130625   2.034   6.679   8.850
 6653POPC   GL230626   2.036   6.587   8.850
 6653POPC   C1A30627   1.944   6.674   8.550
 6653POPC   D2A30628   2.032   6.692   8.250
 6653POPC   C3A30629   1.969   6.648   7.950
 6653POPC   C4A30630   2.037   6.679   7.650
 6653POPC   C1B30631   2.137   6.498   8.550
 6653POPC   C2B30632   2.146   6.437   8.250
 6653POPC   C3B30633   2.204   6.422   7.950
 6653POPC   C4B30634   2.153   6.459   7.650
 6654POPC   NC330635  38.505  34.580   9.450
 6654POPC   PO430636  38.418  34.548   9.150
 6654POPC   GL130637  38.430  34.541   8.850
 6654POPC   GL230638  38.447  34.659   8.850
 6654POPC   C1A30639  38.483  34.542   8.550
 6654POPC   D2A30640  38.444  34.553   8.250
 6654POPC   C3A30641  38.429  34.573   7.950
 6654POPC   C4A30642  38.415  34.556   7.650
 6654POPC   C1B30643  38.499  34.780   8.550
 6654POPC   C2B30644  38.471  34.796   8.250
 6654POPC   C3B30645  38.522  34.866   7.950
 6654POPC   C4B30646  38.501  34.831   7.650
 6655POPC   NC330647  19.797  30.737   9.450
 6655POPC   PO430648  19.850  30.658   9.150
 6655POPC   GL130649  19.860  30.688   8.850
 6655POPC   GL230650  19.773  30.729   8.850
 6655POPC   C1A30651  19.837  30.673   8.550
 6655POPC   D2A30652  19.879  30.737   8.250
 6655POPC   C3A30653  19.871  30.681   7.950
 6655POPC   C4A30654  19.882  30.674   7.650
 6655POPC   C1B30655  19.639  30.865   8.550
 6655POPC   C2B30656  19.653  30.803   8.250
 6655POPC   C3B30657  19.635  30.874   7.950
 6655POPC   C4B30658  19.607  30.842   7.650
 6656POPC   NC330659   4.346   8.221   9.450
 6656POPC   PO430660   4.364   8.207   9.150
 6656POPC   GL130661   4.335   8.156   8.850
 6656POPC   GL230662   4.413   8.294   8.850
 6656POPC   C1A30663   4.273   8.232   8.550
 6656POPC   D2A30664   4.356   8.176   8.250
 6656POPC   C3A30665   4.273   8.241   7.950
 6656POPC   C4A30666   4.295   8.233   7.650
 6656POPC   C1B30667   4.448   8.370   8.550
 6656POPC   C2B30668   4.489   8.405   8.250
 6656POPC   C3B30669   4.540   8.409   7.950
 6656POPC   C4B30670   4.537   8.384   7.650
 6657POPC   NC330671  11.330  27.640   9.450
 6657POPC   PO430672  11.348  27.556   9.150
 6657POPC   GL130673  11.298  27.559   8.850
 6657POPC   GL230674  11.244  27.669   8.850
 6657POPC   C1A30675  11.326  27.543   8.550
 6657POPC   D2A30676  11.284  27.619   8.250
 6657POPC   C3A30677  11.260  27.637   7.950
 6657POPC   C4A30678  11.264  27.567   7.650
 6657POPC   C1B30679  11.160  27.807   8.550
 6657POPC   C2B30680  11.173  27.820   8.250
 6657POPC   C3B30681  11.180  27.829   7.950
 6657POPC   C4B30682  11.136  27.756   7.650
 6658POPC   NC330683  37.706  19.836   9.450
 6658POPC   PO430684  37.661  19.874   9.150
 6658POPC   GL130685  37.720  19.835   8.850
 6658POPC   GL230686  37.565  19.755   8.850
 6658POPC   C1A30687  37.672  19.873   8.550
 6658POPC   D2A30688  37.667  19.855   8.250
 6658POPC   C3A30689  37.686  19.825   7.950
 6658POPC   C4A30690  37.694  19.855   7.650
 6658POPC   C1B30691  37.401  19.748   8.550
 6658POPC   C2B30692  37.397  19.785   8.250
 6658POPC   C3B30693  37.473  19.786   7.950
 6658POPC   C4B30694  37.435  19.701   7.650
 6659POPC   NC330695   1.172  19.860   9.450
 6659POPC   PO430696   1.196  19.806   9.150
 6659POPC   GL130697   1.230  19.880   8.850
 6659POPC   GL230698   1.233  19.910   8.850
 6659POPC   C1A30699   1.196  19.835   8.550
 6659POPC   D2A30700   1.199  19.850   8.250
 6659POPC   C3A30701   1.217  19.874   7.950
 6659POPC   C4A30702   1.261  19.860   7.650
 6659POPC   C1B30703   1.257  20.056   8.550
 6659POPC   C2B30704   1.261  20.122   8.250
 6659POPC   C3B30705   1.277  20.120   7.950
 6659POPC   C4B30706   1.258  20.089   7.650
 6660POPC   NC330707  34.611  27.617   9.450
 6660POPC   PO430708  34.576  27.566   9.150
 6660POPC   GL130709  34.622  27.589   8.850
 6660POPC   GL230710  34.652  27.701   8.850
 6660POPC   C1A30711  34.585  27.639   8.550
 6660POPC   D2A30712  34.556  27.544   8.250
 6660POPC   C3A30713  34.604  27.622   7.950
 6660POPC   C4A30714  34.619  27.575   7.650
 6660POPC   C1B30715  34.748  27.754   8.550
 6660POPC   C2B30716  34.702  27.840   8.250
 6660POPC   C3B30717  34.756  27.795   7.950
 6660POPC   C4B30718  34.767  27.775   7.650
 6661POPC   NC330719  19.835  22.929   9.450
 6661POPC   PO430720  19.883  22.936   9.150
 6661POPC   GL130721  19.839  22.978   8.850
 6661POPC   GL230722  19.810  23.022   8.850
 6661POPC   C1A30723  19.863  22.954   8.550
 6661POPC   D2A30724  19.810  22.970   8.250
 6661POPC   C3A30725  19.801  22.897   7.950
 6661POPC   C4A30726  19.795  22.945   7.650
 6661POPC   C1B30727  19.845  23.218   8.550
 6661POPC   C2B30728  19.921  23.207   8.250
 6661POPC   C3B30729  19.850  23.213   7.950
 6661POPC   C4B30730  19.840  23.168   7.650
 6662POPC   NC330731  13.604  34.584   9.450
 6662POPC   PO430732  13.623  34.598   9.150
 6662POPC   GL130733  13.613  34.579   8.850
 6662POPC   GL230734  13.703  34.561   8.850
 6662POPC   C1A30735  13.621  34.533   8.550
 6662POPC   D2A30736  13.599  34.587   8.250
 6662POPC   C3A30737  13.578  34.553   7.950
 6662POPC   C4A30738  13.669  34.597   7.650
 6662POPC   C1B30739  13.860  34.530   8.550
 6662POPC   C2B30740  13.874  34.573   8.250
 6662POPC   C3B30741  13.917  34.576   7.950
 6662POPC   C4B30742  13.843  34.573   7.650
 6663POPC   NC330743   6.681  35.382   9.450
 6663POPC   PO430744   6.675  35.355   9.150
 6663POPC   GL130745   6.651  35.334   8.850
 6663POPC   GL230746   6.611  35.492   8.850
 6663POPC   C1A30747   6.619  35.375   8.550
 6663POPC   D2A30748   6.630  35.352   8.250
 6663POPC   C3A30749   6.693  35.357   7.950
 6663POPC   C4A30750   6.657  35.374   7.650
 6663POPC   C1B30751   6.567  35.625   8.550
 6663POPC   C2B30752   6.600  35.580   8.250
 6663POPC   C3B30753   6.647  35.630   7.950
 6663POPC   C4B30754   6.652  35.565   7.650
 6664POPC   NC330755  20.656  32.228   9.450
 6664POPC   PO430756  20.611  32.289   9.150
 6664POPC   GL130757  20.565  32.279   8.850
 6664POPC   GL230758  20.561  32.184   8.850
 6664POPC   C1A30759  20.612  32.279   8.550
 6664POPC   D2A30760  20.631  32.267   8.250
 6664POPC   C3A30761  20.630  32.249   7.950
 6664POPC   C4A30762  20.634  32.255   7.650
 6664POPC   C1B30763  20.485  32.019   8.550
 6664POPC   C2B30764  20.433  32.041   8.250
 6664POPC   C3B30765  20.482  32.012   7.950
 6664POPC   C4B30766  20.477  32.002   7.650
 6665POPC   NC330767  15.943  37.659   9.450
 6665POPC   PO430768  15.917  37.674   9.150
 6665POPC   GL130769  15.973  37.655   8.850
 6665POPC   GL230770  16.036  37.651   8.850
 6665POPC   C1A30771  16.003  37.690   8.550
 6665POPC   D2A30772  15.956  37.705   8.250
 6665POPC   C3A30773  15.936  37.668   7.950
 6665POPC   C4A30774  15.985  37.648   7.650
 6665POPC   C1B30775  16.244  37.631   8.550
 6665POPC   C2B30776  16.186  37.719   8.250
 6665POPC   C3B30777  16.187  37.687   7.950
 6665POPC   C4B30778  16.216  37.703   7.650
 6666POPC   NC330779   3.573  41.565   9.450
 6666POPC   PO430780   3.580  41.559   9.150
 6666POPC   GL130781   3.544  41.608   8.850
 6666POPC   GL230782   3.409  41.586   8.850
 6666POPC   C1A30783   3.537  41.539   8.550
 6666POPC   D2A30784   3.551  41.564   8.250
 6666POPC   C3A30785   3.529  41.520   7.950
 6666POPC   C4A30786   3.581  41.605   7.650
 6666POPC   C1B30787   3.252  41.555   8.550
 6666POPC   C2B30788   3.315  41.583   8.250
 6666POPC   C3B30789   3.293  41.545   7.950
 6666POPC   C4B30790   3.270  41.514   7.650
 6667POPC   NC330791  10.564  35.311   9.450
 6667POPC   PO430792  10.486  35.372   9.150
 6667POPC   GL130793  10.546  35.310   8.850
 6667POPC   GL230794  10.570  35.482   8.850
 6667POPC   C1A30795  10.520  35.371   8.550
 6667POPC   D2A30796  10.571  35.329   8.250
 6667POPC   C3A30797  10.561  35.325   7.950
 6667POPC   C4A30798  10.487  35.321   7.650
 6667POPC   C1B30799  10.524  35.565   8.550
 6667POPC   C2B30800  10.520  35.562   8.250
 6667POPC   C3B30801  10.549  35.574   7.950
 6667POPC   C4B30802  10.486  35.575   7.650
 6668POPC   NC330803  24.500  36.870   9.450
 6668POPC   PO430804  24.500  36.890   9.150
 6668POPC   GL130805  24.529  36.916   8.850
 6668POPC   GL230806  24.453  36.753   8.850
 6668POPC   C1A30807  24.507  36.932   8.550
 6668POPC   D2A30808  24.513  36.906   8.250
 6668POPC   C3A30809  24.459  36.951   7.950
 6668POPC   C4A30810  24.508  36.891   7.650
 6668POPC   C1B30811  24.420  36.632   8.550
 6668POPC   C2B30812  24.386  36.658   8.250
 6668POPC   C3B30813  24.392  36.675   7.950
 6668POPC   C4B30814  24.408  36.691   7.650
 6669POPC   NC330815   1.215  28.389   9.450
 6669POPC   PO430816   1.229  28.411   9.150
 6669POPC   GL130817   1.182  28.331   8.850
 6669POPC   GL230818   1.127  28.262   8.850
 6669POPC   C1A30819   1.229  28.396   8.550
 6669POPC   D2A30820   1.257  28.351   8.250
 6669POPC   C3A30821   1.207  28.391   7.950
 6669POPC   C4A30822   1.173  28.405   7.650
 6669POPC   C1B30823   1.075  28.192   8.550
 6669POPC   C2B30824   1.041  28.196   8.250
 6669POPC   C3B30825   1.077  28.151   7.950
 6669POPC   C4B30826   1.103  28.189   7.650
 6670POPC   NC330827   1.258  41.520   9.450
 6670POPC   PO430828   1.217  41.533   9.150
 6670POPC   GL130829   1.240  41.526   8.850
 6670POPC   GL230830   1.049  41.556   8.850
 6670POPC   C1A30831   1.260  41.570   8.550
 6670POPC   D2A30832   1.210  41.567   8.250
 6670POPC   C3A30833   1.255  41.560   7.950
 6670POPC   C4A30834   1.213  41.542   7.650
 6670POPC   C1B30835   0.954  41.527   8.550
 6670POPC   C2B30836   0.995  41.589   8.250
 6670POPC   C3B30837   0.984  41.543   7.950
 6670POPC   C4B30838   1.012  41.570   7.650
 6671POPC   NC330839  38.458  26.821   9.450
 6671POPC   PO430840  38.449  26.830   9.150
 6671POPC   GL130841  38.441  26.776   8.850
 6671POPC   GL230842  38.591  26.742   8.850
 6671POPC   C1A30843  38.432  26.850   8.550
 6671POPC   D2A30844  38.441  26.821   8.250
 6671POPC   C3A30845  38.458  26.778   7.950
 6671POPC   C4A30846  38.478  26.859   7.650
 6671POPC   C1B30847  38.733  26.778   8.550
 6671POPC   C2B30848  38.732  26.698   8.250
 6671POPC   C3B30849  38.648  26.702   7.950
 6671POPC   C4B30850  38.663  26.696   7.650
 6672POPC   NC330851   1.968  20.658   9.450
 6672POPC   PO430852   1.974  20.583   9.150
 6672POPC   GL130853   2.004  20.592   8.850
 6672POPC   GL230854   2.006  20.474   8.850
 6672POPC   C1A30855   1.980  20.597   8.550
 6672POPC   D2A30856   2.016  20.643   8.250
 6672POPC   C3A30857   1.999  20.623   7.950
 6672POPC   C4A30858   1.997  20.580   7.650
 6672POPC   C1B30859   2.054  20.333   8.550
 6672POPC   C2B30860   2.118  20.414   8.250
 6672POPC   C3B30861   2.064  20.383   7.950
 6672POPC   C4B30862   2.089  20.357   7.650
 6673POPC   NC330863  12.866  27.614   9.450
 6673POPC   PO430864  12.876  27.641   9.150
 6673POPC   GL130865  12.864  27.630   8.850
 6673POPC   GL230866  12.803  27.652   8.850
 6673POPC   C1A30867  12.883  27.557   8.550
 6673POPC   D2A30868  12.816  27.612   8.250
 6673POPC   C3A30869  12.850  27.582   7.950
 6673POPC   C4A30870  12.830  27.619   7.650
 6673POPC   C1B30871  12.654  27.761   8.550
 6673POPC   C2B30872  12.630  27.749   8.250
 6673POPC   C3B30873  12.635  27.772   7.950
 6673POPC   C4B30874  12.661  27.786   7.650
 6674POPC   NC330875   2.011  44.662   9.450
 6674POPC   PO430876   1.985  44.644   9.150
 6674POPC   GL130877   2.020  44.613   8.850
 6674POPC   GL230878   1.882  44.565   8.850
 6674POPC   C1A30879   2.004  44.666   8.550
 6674POPC   D2A30880   2.020  44.635   8.250
 6674POPC   C3A30881   1.941  44.620   7.950
 6674POPC   C4A30882   1.951  44.668   7.650
 6674POPC   C1B30883   1.816  44.538   8.550
 6674POPC   C2B30884   1.734  44.576   8.250
 6674POPC   C3B30885   1.749  44.516   7.950
 6674POPC   C4B30886   1.780  44.491   7.650
 6675POPC   NC330887   8.204  16.756   9.450
 6675POPC   PO430888   8.217  16.765   9.150
 6675POPC   GL130889   8.197  16.735   8.850
 6675POPC   GL230890   8.170  16.855   8.850
 6675POPC   C1A30891   8.181  16.765   8.550
 6675POPC   D2A30892   8.201  16.705   8.250
 6675POPC   C3A30893   8.217  16.724   7.950
 6675POPC   C4A30894   8.179  16.742   7.650
 6675POPC   C1B30895   8.105  16.984   8.550
 6675POPC   C2B30896   8.050  16.939   8.250
 6675POPC   C3B30897   8.110  16.976   7.950
 6675POPC   C4B30898   8.068  16.934   7.650
 6676POPC   NC330899  31.500  12.040   9.450
 6676POPC   PO430900  31.480  12.063   9.150
 6676POPC   GL130901  31.480  12.071   8.850
 6676POPC   GL230902  31.351  12.027   8.850
 6676POPC   C1A30903  31.469  12.043   8.550
 6676POPC   D2A30904  31.471  12.125   8.250
 6676POPC   C3A30905  31.435  12.122   7.950
 6676POPC   C4A30906  31.481  12.117   7.650
 6676POPC   C1B30907  31.260  11.900   8.550
 6676POPC   C2B30908  31.252  11.956   8.250
 6676POPC   C3B30909  31.243  11.920   7.950
 6676POPC   C4B30910  31.293  11.894   7.650
 6677POPC   NC330911  26.087   6.609   9.450
 6677POPC   PO430912  25.999   6.631   9.150
 6677POPC   GL130913  26.018   6.654   8.850
 6677POPC   GL230914  25.918   6.559   8.850
 6677POPC   C1A30915  26.087   6.633   8.550
 6677POPC   D2A30916  26.085   6.669   8.250
 6677POPC   C3A30917  25.994   6.604   7.950
 6677POPC   C4A30918  26.047   6.669   7.650
 6677POPC   C1B30919  25.871   6.490   8.550
 6677POPC   C2B30920  25.874   6.424   8.250
 6677POPC   C3B30921  25.882   6.421   7.950
 6677POPC   C4B30922  25.919   6.501   7.650
 6678POPC   NC330923  13.673  19.877   9.450
 6678POPC   PO430924  13.622  19.793   9.150
 6678POPC   GL130925  13.618  19.801   8.850
 6678POPC   GL230926  13.684  19.707   8.850
 6678POPC   C1A30927  13.647  19.816   8.550
 6678POPC   D2A30928  13.614  19.822   8.250
 6678POPC   C3A30929  13.628  19.819   7.950
 6678POPC   C4A30930  13.635  19.854   7.650
 6678POPC   C1B30931  13.744  19.605   8.550
 6678POPC   C2B30932  13.666  19.561   8.250
 6678POPC   C3B30933  13.722  19.577   7.950
 6678POPC   C4B30934  13.709  19.642   7.650
 6679POPC   NC330935  12.075  36.134   9.450
 6679POPC   PO430936  12.069  36.166   9.150
 6679POPC   GL130937  12.118  36.173   8.850
 6679POPC   GL230938  12.028  36.218   8.850
 6679POPC   C1A30939  12.039  36.127   8.550
 6679POPC   D2A30940  12.065  36.078   8.250
 6679POPC   C3A30941  12.104  36.172   7.950
 6679POPC   C4A30942  12.124  36.174   7.650
 6679POPC   C1B30943  11.872  36.321   8.550
 6679POPC   C2B30944  11.863  36.293   8.250
 6679POPC   C3B30945  11.866  36.252   7.950
 6679POPC   C4B30946  11.885  36.238   7.650
 6680POPC   NC330947  13.595  32.226   9.450
 6680POPC   PO430948  13.606  32.251   9.150
 6680POPC   GL130949  13.606  32.272   8.850
 6680POPC   GL230950  13.712  32.180   8.850
 6680POPC   C1A30951  13.672  32.265   8.550
 6680POPC   D2A30952  13.618  32.295   8.250
 6680POPC   C3A30953  13.587  32.276   7.950
 6680POPC   C4A30954  13.589  32.210   7.650
 6680POPC   C1B30955  13.879  32.160   8.550
 6680POPC   C2B30956  13.849  32.121   8.250
 6680POPC   C3B30957  13.883  32.155   7.950
 6680POPC   C4B30958  13.844  32.194   7.650
 6681POPC   NC330959  42.292  26.853   9.450
 6681POPC   PO430960  42.348  26.795   9.150
 6681POPC   GL130961  42.378  26.857   8.850
 6681POPC   GL230962  42.432  26.750   8.850
 6681POPC   C1A30963  42.312  26.825   8.550
 6681POPC   D2A30964  42.337  26.855   8.250
 6681POPC   C3A30965  42.371  26.795   7.950
 6681POPC   C4A30966  42.286  26.823   7.650
 6681POPC   C1B30967  42.561  26.698   8.550
 6681POPC   C2B30968  42.510  26.692   8.250
 6681POPC   C3B30969  42.581  26.714   7.950
 6681POPC   C4B30970  42.576  26.736   7.650
 6682POPC   NC330971  21.373  43.106   9.450
 6682POPC   PO430972  21.426  43.145   9.150
 6682POPC   GL130973  21.394  43.068   8.850
 6682POPC   GL230974  21.309  43.057   8.850
 6682POPC   C1A30975  21.379  43.141   8.550
 6682POPC   D2A30976  21.350  43.110   8.250
 6682POPC   C3A30977  21.394  43.093   7.950
 6682POPC   C4A30978  21.400  43.112   7.650
 6682POPC   C1B30979  21.213  42.954   8.550
 6682POPC   C2B30980  21.199  42.892   8.250
 6682POPC   C3B30981  21.227  42.964   7.950
 6682POPC   C4B30982  21.157  42.896   7.650
 6683POPC   NC330983  12.819  40.829   9.450
 6683POPC   PO430984  12.804  40.738   9.150
 6683POPC   GL130985  12.810  40.832   8.850
 6683POPC   GL230986  12.946  40.879   8.850
 6683POPC   C1A30987  12.829  40.806   8.550
 6683POPC   D2A30988  12.831  40.816   8.250
 6683POPC   C3A30989  12.816  40.800   7.950
 6683POPC   C4A30990  12.833  40.820   7.650
 6683POPC   C1B30991  12.943  40.993   8.550
 6683POPC   C2B30992  12.990  40.971   8.250
 6683POPC   C3B30993  13.007  41.027   7.950
 6683POPC   C4B30994  12.995  41.042   7.650
 6684POPC   NC330995  15.940  38.410   9.450
 6684POPC   PO430996  15.954  38.458   9.150
 6684POPC   GL130997  15.993  38.480   8.850
 6684POPC   GL230998  16.022  38.331   8.850
 6684POPC   C1A30999  15.988  38.449   8.550
 6684POPC   D2A31000  15.956  38.481   8.250
 6684POPC   C3A31001  15.993  38.461   7.950
 6684POPC   C4A31002  15.951  38.427   7.650
 6684POPC   C1B31003  15.992  38.193   8.550
 6684POPC   C2B31004  16.000  38.217   8.250
 6684POPC   C3B31005  16.010  38.216   7.950
 6684POPC   C4B31006  16.050  38.191   7.650
 6685POPC   NC331007   5.128  43.065   9.450
 6685POPC   PO431008   5.080  43.140   9.150
 6685POPC   GL131009   5.054  43.153   8.850
 6685POPC   GL231010   5.107  43.051   8.850
 6685POPC   C1A31011   5.128  43.113   8.550
 6685POPC   D2A31012   5.044  43.115   8.250
 6685POPC   C3A31013   5.058  43.096   7.950
 6685POPC   C4A31014   5.061  43.093   7.650
 6685POPC   C1B31015   5.174  42.925   8.550
 6685POPC   C2B31016   5.263  42.868   8.250
 6685POPC   C3B31017   5.187  42.857   7.950
 6685POPC   C4B31018   5.230  42.874   7.650
 6686POPC   NC331019  23.744  17.548   9.450
 6686POPC   PO431020  23.739  17.541   9.150
 6686POPC   GL131021  23.759  17.471   8.850
 6686POPC   GL231022  23.619  17.462   8.850
 6686POPC   C1A31023  23.764  17.538   8.550
 6686POPC   D2A31024  23.760  17.478   8.250
 6686POPC   C3A31025  23.726  17.514   7.950
 6686POPC   C4A31026  23.682  17.478   7.650
 6686POPC   C1B31027  23.492  17.350   8.550
 6686POPC   C2B31028  23.467  17.423   8.250
 6686POPC   C3B31029  23.498  17.398   7.950
 6686POPC   C4B31030  23.476  17.361   7.650
 6687POPC   NC331031  13.645   0.399   9.450
 6687POPC   PO431032  13.642   0.450   9.150
 6687POPC   GL131033  13.667   0.484   8.850
 6687POPC   GL231034  13.657   0.363   8.850
 6687POPC   C1A31035  13.623   0.404   8.550
 6687POPC   D2A31036  13.603   0.456   8.250
 6687POPC   C3A31037  13.626   0.390   7.950
 6687POPC   C4A31038  13.587   0.439   7.650
 6687POPC   C1B31039  13.628   0.174   8.550
 6687POPC   C2B31040  13.618   0.230   8.250
 6687POPC   C3B31041  13.618   0.212   7.950
 6687POPC   C4B31042  13.635   0.172   7.650
 6688POPC   NC331043   3.564  16.691   9.450
 6688POPC   PO431044   3.505  16.765   9.150
 6688POPC   GL131045   3.492  16.717   8.850
 6688POPC   GL231046   3.407  16.674   8.850
 6688POPC   C1A31047   3.494  16.721   8.550
 6688POPC   D2A31048   3.559  16.701   8.250
 6688POPC   C3A31049   3.542  16.714   7.950
 6688POPC   C4A31050   3.524  16.714   7.650
 6688POPC   C1B31051   3.337  16.582   8.550
 6688POPC   C2B31052   3.380  16.616   8.250
 6688POPC   C3B31053   3.359  16.558   7.950
 6688POPC   C4B31054   3.317  16.578   7.650
 6689POPC   NC331055  25.232   2.782   9.450
 6689POPC   PO431056  25.224   2.744   9.150
 6689POPC   GL131057  25.263   2.802   8.850
 6689POPC   GL231058  25.276   2.881   8.850
 6689POPC   C1A31059  25.286   2.807   8.550
 6689POPC   D2A31060  25.241   2.750   8.250
 6689POPC   C3A31061  25.227   2.726   7.950
 6689POPC   C4A31062  25.261   2.772   7.650
 6689POPC   C1B31063  25.241   3.025   8.550
 6689POPC   C2B31064  25.330   2.994   8.250
 6689POPC   C3B31065  25.238   3.039   7.950
 6689POPC   C4B31066  25.278   3.038   7.650
 6690POPC   NC331067  36.169  31.430   9.450
 6690POPC   PO431068  36.124  31.479   9.150
 6690POPC   GL131069  36.104  31.470   8.850
 6690POPC   GL231070  36.089  31.334   8.850
 6690POPC   C1A31071  36.145  31.461   8.550
 6690POPC   D2A31072  36.119  31.491   8.250
 6690POPC   C3A31073  36.084  31.429   7.950
 6690POPC   C4A31074  36.101  31.511   7.650
 6690POPC   C1B31075  36.132  31.177   8.550
 6690POPC   C2B31076  36.101  31.249   8.250
 6690POPC   C3B31077  36.069  31.270   7.950
 6690POPC   C4B31078  36.071  31.208   7.650
 6691POPC   NC331079  27.585  25.994   9.450
 6691POPC   PO431080  27.573  26.003   9.150
 6691POPC   GL131081  27.603  26.069   8.850
 6691POPC   GL231082  27.697  26.011   8.850
 6691POPC   C1A31083  27.623  26.031   8.550
 6691POPC   D2A31084  27.642  26.033   8.250
 6691POPC   C3A31085  27.547  26.033   7.950
 6691POPC   C4A31086  27.635  26.020   7.650
 6691POPC   C1B31087  27.853  25.971   8.550
 6691POPC   C2B31088  27.850  25.912   8.250
 6691POPC   C3B31089  27.846  25.958   7.950
 6691POPC   C4B31090  27.797  25.998   7.650
 6692POPC   NC331091  42.375  42.326   9.450
 6692POPC   PO431092  42.302  42.370   9.150
 6692POPC   GL131093  42.303  42.309   8.850
 6692POPC   GL231094  42.260  42.357   8.850
 6692POPC   C1A31095  42.288  42.321   8.550
 6692POPC   D2A31096  42.373  42.379   8.250
 6692POPC   C3A31097  42.343  42.295   7.950
 6692POPC   C4A31098  42.342  42.307   7.650
 6692POPC   C1B31099  42.117  42.480   8.550
 6692POPC   C2B31100  42.135  42.482   8.250
 6692POPC   C3B31101  42.108  42.497   7.950
 6692POPC   C4B31102  42.177  42.511   7.650
 6693POPC   NC331103  42.289   3.506   9.450
 6693POPC   PO431104  42.359   3.527   9.150
 6693POPC   GL131105  42.304   3.570   8.850
 6693POPC   GL231106  42.314   3.652   8.850
 6693POPC   C1A31107  42.378   3.588   8.550
 6693POPC   D2A31108  42.326   3.564   8.250
 6693POPC   C3A31109  42.364   3.493   7.950
 6693POPC   C4A31110  42.308   3.561   7.650
 6693POPC   C1B31111  42.282   3.758   8.550
 6693POPC   C2B31112  42.313   3.803   8.250
 6693POPC   C3B31113  42.312   3.759   7.950
 6693POPC   C4B31114  42.266   3.757   7.650
 6694POPC   NC331115  19.101  22.135   9.450
 6694POPC   PO431116  19.064  22.124   9.150
 6694POPC   GL131117  19.024  22.165   8.850
 6694POPC   GL231118  18.918  22.105   8.850
 6694POPC   C1A31119  19.026  22.124   8.550
 6694POPC   D2A31120  19.048  22.152   8.250
 6694POPC   C3A31121  19.076  22.180   7.950
 6694POPC   C4A31122  19.083  22.135   7.650
 6694POPC   C1B31123  18.906  21.961   8.550
 6694POPC   C2B31124  18.921  21.953   8.250
 6694POPC   C3B31125  18.853  21.961   7.950
 6694POPC   C4B31126  18.876  21.979   7.650
 6695POPC   NC331127  15.964  12.084   9.450
 6695POPC   PO431128  15.958  12.094   9.150
 6695POPC   GL131129  15.968  12.113   8.850
 6695POPC   GL231130  15.899  11.989   8.850
 6695POPC   C1A31131  15.973  12.047   8.550
 6695POPC   D2A31132  15.938  12.033   8.250
 6695POPC   C3A31133  15.962  12.109   7.950
 6695POPC   C4A31134  15.931  12.105   7.650
 6695POPC   C1B31135  15.927  11.830   8.550
 6695POPC   C2B31136  15.939  11.818   8.250
 6695POPC   C3B31137  15.965  11.868   7.950
 6695POPC   C4B31138  15.932  11.851   7.650
 6696POPC   NC331139   8.204  20.649   9.450
 6696POPC   PO431140   8.147  20.588   9.150
 6696POPC   GL131141   8.217  20.582   8.850
 6696POPC   GL231142   8.290  20.697   8.850
 6696POPC   C1A31143   8.195  20.590   8.550
 6696POPC   D2A31144   8.217  20.658   8.250
 6696POPC   C3A31145   8.235  20.589   7.950
 6696POPC   C4A31146   8.173  20.582   7.650
 6696POPC   C1B31147   8.415  20.728   8.550
 6696POPC   C2B31148   8.409  20.760   8.250
 6696POPC   C3B31149   8.394  20.713   7.950
 6696POPC   C4B31150   8.433  20.731   7.650
 6697POPC   NC331151  15.153  11.347   9.450
 6697POPC   PO431152  15.188  11.348   9.150
 6697POPC   GL131153  15.156  11.314   8.850
 6697POPC   GL231154  15.067  11.245   8.850
 6697POPC   C1A31155  15.148  11.347   8.550
 6697POPC   D2A31156  15.229  11.308   8.250
 6697POPC   C3A31157  15.218  11.268   7.950
 6697POPC   C4A31158  15.181  11.289   7.650
 6697POPC   C1B31159  15.031  11.107   8.550
 6697POPC   C2B31160  14.976  11.134   8.250
 6697POPC   C3B31161  14.963  11.142   7.950
 6697POPC   C4B31162  15.027  11.081   7.650
 6698POPC   NC331163  13.615  36.104   9.450
 6698POPC   PO431164  13.620  36.113   9.150
 6698POPC   GL131165  13.675  36.105   8.850
 6698POPC   GL231166  13.518  36.096   8.850
 6698POPC   C1A31167  13.638  36.116   8.550
 6698POPC   D2A31168  13.643  36.097   8.250
 6698POPC   C3A31169  13.674  36.125   7.950
 6698POPC   C4A31170  13.625  36.164   7.650
 6698POPC   C1B31171  13.413  36.048   8.550
 6698POPC   C2B31172  13.401  36.046   8.250
 6698POPC   C3B31173  13.370  35.979   7.950
 6698POPC   C4B31174  13.456  36.032   7.650
 6699POPC   NC331175  44.619  39.959   9.450
 6699POPC   PO431176  44.664  39.992   9.150
 6699POPC   GL131177  44.705  40.043   8.850
 6699POPC   GL231178  44.706  39.895   8.850
 6699POPC   C1A31179  44.630  40.041   8.550
 6699POPC   D2A31180  44.615  40.026   8.250
 6699POPC   C3A31181  44.651  39.972   7.950
 6699POPC   C4A31182  44.669  40.038   7.650
 6699POPC   C1B31183  44.768  39.770   8.550
 6699POPC   C2B31184  44.682  39.807   8.250
 6699POPC   C3B31185  44.724  39.752   7.950
 6699POPC   C4B31186  44.677  39.783   7.650
 6700POPC   NC331187  19.788  28.339   9.450
 6700POPC   PO431188  19.833  28.336   9.150
 6700POPC   GL131189  19.849  28.350   8.850
 6700POPC   GL231190  19.882  28.493   8.850
 6700POPC   C1A31191  19.848  28.341   8.550
 6700POPC   D2A31192  19.819  28.320   8.250
 6700POPC   C3A31193  19.879  28.411   7.950
 6700POPC   C4A31194  19.838  28.396   7.650
 6700POPC   C1B31195  19.939  28.592   8.550
 6700POPC   C2B31196  19.911  28.547   8.250
 6700POPC   C3B31197  19.984  28.641   7.950
 6700POPC   C4B31198  19.944  28.620   7.650
 6701POPC   NC331199   3.545  28.325   9.450
 6701POPC   PO431200   3.550  28.368   9.150
 6701POPC   GL131201   3.523  28.351   8.850
 6701POPC   GL231202   3.416  28.338   8.850
 6701POPC   C1A31203   3.576  28.363   8.550
 6701POPC   D2A31204   3.549  28.358   8.250
 6701POPC   C3A31205   3.567  28.392   7.950
 6701POPC   C4A31206   3.555  28.320   7.650
 6701POPC   C1B31207   3.247  28.396   8.550
 6701POPC   C2B31208   3.259  28.385   8.250
 6701POPC   C3B31209   3.257  28.320   7.950
 6701POPC   C4B31210   3.319  28.310   7.650
 6702POPC   NC331211  24.510  35.317   9.450
 6702POPC   PO431212  24.442  35.398   9.150
 6702POPC   GL131213  24.535  35.356   8.850
 6702POPC   GL231214  24.648  35.244   8.850
 6702POPC   C1A31215  24.460  35.346   8.550
 6702POPC   D2A31216  24.524  35.307   8.250
 6702POPC   C3A31217  24.440  35.332   7.950
 6702POPC   C4A31218  24.518  35.314   7.650
 6702POPC   C1B31219  24.668  35.267   8.550
 6702POPC   C2B31220  24.676  35.242   8.250
 6702POPC   C3B31221  24.693  35.273   7.950
 6702POPC   C4B31222  24.755  35.250   7.650
 6703POPC   NC331223  33.813  19.834   9.450
 6703POPC   PO431224  33.846  19.864   9.150
 6703POPC   GL131225  33.801  19.827   8.850
 6703POPC   GL231226  33.807  19.685   8.850
 6703POPC   C1A31227  33.751  19.804   8.550
 6703POPC   D2A31228  33.786  19.807   8.250
 6703POPC   C3A31229  33.795  19.833   7.950
 6703POPC   C4A31230  33.817  19.854   7.650
 6703POPC   C1B31231  33.688  19.550   8.550
 6703POPC   C2B31232  33.718  19.623   8.250
 6703POPC   C3B31233  33.710  19.624   7.950
 6703POPC   C4B31234  33.716  19.636   7.650
 6704POPC   NC331235   2.014  22.975   9.450
 6704POPC   PO431236   1.981  22.978   9.150
 6704POPC   GL131237   1.973  22.980   8.850
 6704POPC   GL231238   1.847  22.834   8.850
 6704POPC   C1A31239   1.993  22.898   8.550
 6704POPC   D2A31240   2.005  22.895   8.250
 6704POPC   C3A31241   1.994  22.973   7.950
 6704POPC   C4A31242   1.975  22.902   7.650
 6704POPC   C1B31243   1.817  22.778   8.550
 6704POPC   C2B31244   1.776  22.796   8.250
 6704POPC   C3B31245   1.774  22.800   7.950
 6704POPC   C4B31246   1.833  22.756   7.650
 6705POPC   NC331247  25.255  33.818   9.450
 6705POPC   PO431248  25.296  33.779   9.150
 6705POPC   GL131249  25.230  33.827   8.850
 6705POPC   GL231250  25.227  33.727   8.850
 6705POPC   C1A31251  25.281  33.780   8.550
 6705POPC   D2A31252  25.249  33.837   8.250
 6705POPC   C3A31253  25.256  33.751   7.950
 6705POPC   C4A31254  25.276  33.827   7.650
 6705POPC   C1B31255  25.201  33.534   8.550
 6705POPC   C2B31256  25.206  33.532   8.250
 6705POPC   C3B31257  25.242  33.543   7.950
 6705POPC   C4B31258  25.244  33.528   7.650
 6706POPC   NC331259   7.378  26.805   9.450
 6706POPC   PO431260   7.470  26.784   9.150
 6706POPC   GL131261   7.413  26.797   8.850
 6706POPC   GL231262   7.485  26.747   8.850
 6706POPC   C1A31263   7.406  26.789   8.550
 6706POPC   D2A31264   7.441  26.834   8.250
 6706POPC   C3A31265   7.460  26.839   7.950
 6706POPC   C4A31266   7.407  26.789   7.650
 6706POPC   C1B31267   7.597  26.617   8.550
 6706POPC   C2B31268   7.572  26.621   8.250
 6706POPC   C3B31269   7.541  26.583   7.950
 6706POPC   C4B31270   7.557  26.635   7.650
 6707POPC   NC331271  18.263  18.322   9.450
 6707POPC   PO431272  18.291  18.278   9.150
 6707POPC   GL131273  18.319  18.280   8.850
 6707POPC   GL231274  18.409  18.281   8.850
 6707POPC   C1A31275  18.324  18.287   8.550
 6707POPC   D2A31276  18.266  18.238   8.250
 6707POPC   C3A31277  18.314  18.243   7.950
 6707POPC   C4A31278  18.250  18.286   7.650
 6707POPC   C1B31279  18.521  18.247   8.550
 6707POPC   C2B31280  18.523  18.251   8.250
 6707POPC   C3B31281  18.559  18.194   7.950
 6707POPC   C4B31282  18.512  18.194   7.650
 6708POPC   NC331283  34.574  28.419   9.450
 6708POPC   PO431284  34.590  28.338   9.150
 6708POPC   GL131285  34.538  28.339   8.850
 6708POPC   GL231286  34.469  28.463   8.850
 6708POPC   C1A31287  34.590  28.369   8.550
 6708POPC   D2A31288  34.576  28.410   8.250
 6708POPC   C3A31289  34.621  28.347   7.950
 6708POPC   C4A31290  34.538  28.345   7.650
 6708POPC   C1B31291  34.445  28.555   8.550
 6708POPC   C2B31292  34.413  28.604   8.250
 6708POPC   C3B31293  34.447  28.570   7.950
 6708POPC   C4B31294  34.469  28.627   7.650
 6709POPC   NC331295  33.818   3.561   9.450
 6709POPC   PO431296  33.793   3.565   9.150
 6709POPC   GL131297  33.781   3.520   8.850
 6709POPC   GL231298  33.866   3.510   8.850
 6709POPC   C1A31299  33.810   3.547   8.550
 6709POPC   D2A31300  33.775   3.505   8.250
 6709POPC   C3A31301  33.838   3.566   7.950
 6709POPC   C4A31302  33.756   3.525   7.650
 6709POPC   C1B31303  33.989   3.386   8.550
 6709POPC   C2B31304  34.033   3.392   8.250
 6709POPC   C3B31305  33.978   3.419   7.950
 6709POPC   C4B31306  34.009   3.434   7.650
 6710POPC   NC331307  28.335  33.766   9.450
 6710POPC   PO431308  28.382  33.789   9.150
 6710POPC   GL131309  28.325  33.781   8.850
 6710POPC   GL231310  28.309  33.904   8.850
 6710POPC   C1A31311  28.367  33.762   8.550
 6710POPC   D2A31312  28.388  33.766   8.250
 6710POPC   C3A31313  28.403  33.765   7.950
 6710POPC   C4A31314  28.326  33.769   7.650
 6710POPC   C1B31315  28.156  33.962   8.550
 6710POPC   C2B31316  28.248  33.967   8.250
 6710POPC   C3B31317  28.174  34.031   7.950
 6710POPC   C4B31318  28.224  33.947   7.650
 6711POPC   NC331319  10.500   4.347   9.450
 6711POPC   PO431320  10.531   4.297   9.150
 6711POPC   GL131321  10.564   4.345   8.850
 6711POPC   GL231322  10.620   4.401   8.850
 6711POPC   C1A31323  10.494   4.274   8.550
 6711POPC   D2A31324  10.506   4.357   8.250
 6711POPC   C3A31325  10.549   4.319   7.950
 6711POPC   C4A31326  10.556   4.300   7.650
 6711POPC   C1B31327  10.789   4.406   8.550
 6711POPC   C2B31328  10.761   4.371   8.250
 6711POPC   C3B31329  10.812   4.399   7.950
 6711POPC   C4B31330  10.720   4.359   7.650
 6712POPC   NC331331  11.293  26.832   9.450
 6712POPC   PO431332  11.331  26.839   9.150
 6712POPC   GL131333  11.298  26.847   8.850
 6712POPC   GL231334  11.167  26.821   8.850
 6712POPC   C1A31335  11.330  26.827   8.550
 6712POPC   D2A31336  11.336  26.864   8.250
 6712POPC   C3A31337  11.266  26.849   7.950
 6712POPC   C4A31338  11.343  26.827   7.650
 6712POPC   C1B31339  11.070  26.767   8.550
 6712POPC   C2B31340  11.041  26.758   8.250
 6712POPC   C3B31341  11.003  26.802   7.950
 6712POPC   C4B31342  11.026  26.777   7.650
 6713POPC   NC331343   5.872   0.442   9.450
 6713POPC   PO431344   5.828   0.448   9.150
 6713POPC   GL131345   5.867   0.415   8.850
 6713POPC   GL231346   5.812   0.541   8.850
 6713POPC   C1A31347   5.900   0.437   8.550
 6713POPC   D2A31348   5.916   0.396   8.250
 6713POPC   C3A31349   5.914   0.421   7.950
 6713POPC   C4A31350   5.823   0.409   7.650
 6713POPC   C1B31351   5.752   0.686   8.550
 6713POPC   C2B31352   5.807   0.639   8.250
 6713POPC   C3B31353   5.816   0.658   7.950
 6713POPC   C4B31354   5.752   0.635   7.650
 6714POPC   NC331355  26.775  33.017   9.450
 6714POPC   PO431356  26.769  33.041   9.150
 6714POPC   GL131357  26.835  33.017   8.850
 6714POPC   GL231358  26.891  33.102   8.850
 6714POPC   C1A31359  26.825  33.065   8.550
 6714POPC   D2A31360  26.812  32.996   8.250
 6714POPC   C3A31361  26.787  33.053   7.950
 6714POPC   C4A31362  26.803  33.000   7.650
 6714POPC   C1B31363  26.900  33.257   8.550
 6714POPC   C2B31364  26.888  33.239   8.250
 6714POPC   C3B31365  26.938  33.223   7.950
 6714POPC   C4B31366  26.940  33.211   7.650
 6715POPC   NC331367  28.330  24.522   9.450
 6715POPC   PO431368  28.329  24.531   9.150
 6715POPC   GL131369  28.383  24.445   8.850
 6715POPC   GL231370  28.302  24.382   8.850
 6715POPC   C1A31371  28.336  24.498   8.550
 6715POPC   D2A31372  28.369  24.448   8.250
 6715POPC   C3A31373  28.389  24.445   7.950
 6715POPC   C4A31374  28.368  24.507   7.650
 6715POPC   C1B31375  28.160  24.279   8.550
 6715POPC   C2B31376  28.219  24.266   8.250
 6715POPC   C3B31377  28.224  24.332   7.950
 6715POPC   C4B31378  28.197  24.324   7.650
 6716POPC   NC331379  11.339  39.247   9.450
 6716POPC   PO431380  11.278  39.229   9.150
 6716POPC   GL131381  11.339  39.265   8.850
 6716POPC   GL231382  11.238  39.109   8.850
 6716POPC   C1A31383  11.322  39.208   8.550
 6716POPC   D2A31384  11.250  39.223   8.250
 6716POPC   C3A31385  11.300  39.227   7.950
 6716POPC   C4A31386  11.298  39.188   7.650
 6716POPC   C1B31387  11.198  38.966   8.550
 6716POPC   C2B31388  11.188  38.987   8.250
 6716POPC   C3B31389  11.227  38.962   7.950
 6716POPC   C4B31390  11.207  38.965   7.650
 6717POPC   NC331391  12.835  16.684   9.450
 6717POPC   PO431392  12.812  16.752   9.150
 6717POPC   GL131393  12.841  16.712   8.850
 6717POPC   GL231394  12.928  16.613   8.850
 6717POPC   C1A31395  12.894  16.697   8.550
 6717POPC   D2A31396  12.830  16.775   8.250
 6717POPC   C3A31397  12.828  16.687   7.950
 6717POPC   C4A31398  12.806  16.727   7.650
 6717POPC   C1B31399  13.056  16.605   8.550
 6717POPC   C2B31400  13.100  16.552   8.250
 6717POPC   C3B31401  13.056  16.603   7.950
 6717POPC   C4B31402  13.107  16.631   7.650
 6718POPC   NC331403  36.171  20.600   9.450
 6718POPC   PO431404  36.137  20.621   9.150
 6718POPC   GL131405  36.134  20.610   8.850
 6718POPC   GL231406  36.082  20.479   8.850
 6718POPC   C1A31407  36.114  20.632   8.550
 6718POPC   D2A31408  36.086  20.644   8.250
 6718POPC   C3A31409  36.102  20.566   7.950
 6718POPC   C4A31410  36.119  20.583   7.650
 6718POPC   C1B31411  35.907  20.424   8.550
 6718POPC   C2B31412  35.944  20.452   8.250
 6718POPC   C3B31413  35.966  20.477   7.950
 6718POPC   C4B31414  35.934  20.386   7.650
 6719POPC   NC331415  43.088  26.837   9.450
 6719POPC   PO431416  43.127  26.859   9.150
 6719POPC   GL131417  43.094  26.828   8.850
 6719POPC   GL231418  43.231  26.843   8.850
 6719POPC   C1A31419  43.114  26.846   8.550
 6719POPC   D2A31420  43.068  26.854   8.250
 6719POPC   C3A31421  43.130  26.847   7.950
 6719POPC   C4A31422  43.125  26.802   7.650
 6719POPC   C1B31423  43.306  26.912   8.550
 6719POPC   C2B31424  43.307  26.875   8.250
 6719POPC   C3B31425  43.357  26.951   7.950
 6719POPC   C4B31426  43.387  26.923   7.650
 6720POPC   NC331427   6.673  16.726   9.450
 6720POPC   PO431428   6.669  16.771   9.150
 6720POPC   GL131429   6.604  16.748   8.850
 6720POPC   GL231430   6.775  16.728   8.850
 6720POPC   C1A31431   6.687  16.773   8.550
 6720POPC   D2A31432   6.667  16.700   8.250
 6720POPC   C3A31433   6.687  16.774   7.950
 6720POPC   C4A31434   6.662  16.780   7.650
 6720POPC   C1B31435   6.918  16.757   8.550
 6720POPC   C2B31436   6.880  16.772   8.250
 6720POPC   C3B31437   6.860  16.762   7.950
 6720POPC   C4B31438   6.918  16.709   7.650
 6721POPC   NC331439   5.132  18.308   9.450
 6721POPC   PO431440   5.118  18.307   9.150
 6721POPC   GL131441   5.112  18.269   8.850
 6721POPC   GL231442   5.126  18.370   8.850
 6721POPC   C1A31443   5.051  18.322   8.550
 6721POPC   D2A31444   5.052  18.277   8.250
 6721POPC   C3A31445   5.049  18.319   7.950
 6721POPC   C4A31446   5.045  18.246   7.650
 6721POPC   C1B31447   5.076  18.574   8.550
 6721POPC   C2B31448   5.077  18.534   8.250
 6721POPC   C3B31449   5.087  18.550   7.950
 6721POPC   C4B31450   5.065  18.582   7.650
 6722POPC   NC331451  35.391  32.989   9.450
 6722POPC   PO431452  35.362  33.041   9.150
 6722POPC   GL131453  35.353  33.052   8.850
 6722POPC   GL231454  35.412  33.171   8.850
 6722POPC   C1A31455  35.356  33.013   8.550
 6722POPC   D2A31456  35.316  33.043   8.250
 6722POPC   C3A31457  35.350  33.074   7.950
 6722POPC   C4A31458  35.307  33.055   7.650
 6722POPC   C1B31459  35.406  33.220   8.550
 6722POPC   C2B31460  35.428  33.296   8.250
 6722POPC   C3B31461  35.397  33.293   7.950
 6722POPC   C4B31462  35.405  33.250   7.650
 6723POPC   NC331463  10.503  42.351   9.450
 6723POPC   PO431464  10.475  42.299   9.150
 6723POPC   GL131465  10.572  42.365   8.850
 6723POPC   GL231466  10.611  42.412   8.850
 6723POPC   C1A31467  10.545  42.345   8.550
 6723POPC   D2A31468  10.566  42.321   8.250
 6723POPC   C3A31469  10.519  42.353   7.950
 6723POPC   C4A31470  10.571  42.346   7.650
 6723POPC   C1B31471  10.776  42.429   8.550
 6723POPC   C2B31472  10.779  42.345   8.250
 6723POPC   C3B31473  10.739  42.383   7.950
 6723POPC   C4B31474  10.723  42.412   7.650
 6724POPC   NC331475  29.098  12.881   9.450
 6724POPC   PO431476  29.108  12.824   9.150
 6724POPC   GL131477  29.112  12.876   8.850
 6724POPC   GL231478  29.233  12.966   8.850
 6724POPC   C1A31479  29.130  12.832   8.550
 6724POPC   D2A31480  29.180  12.889   8.250
 6724POPC   C3A31481  29.187  12.871   7.950
 6724POPC   C4A31482  29.120  12.885   7.650
 6724POPC   C1B31483  29.276  13.024   8.550
 6724POPC   C2B31484  29.257  13.075   8.250
 6724POPC   C3B31485  29.261  13.027   7.950
 6724POPC   C4B31486  29.331  13.038   7.650
 6725POPC   NC331487  28.368  22.895   9.450
 6725POPC   PO431488  28.336  22.981   9.150
 6725POPC   GL131489  28.369  22.950   8.850
 6725POPC   GL231490  28.383  23.044   8.850
 6725POPC   C1A31491  28.369  22.951   8.550
 6725POPC   D2A31492  28.395  22.892   8.250
 6725POPC   C3A31493  28.377  22.909   7.950
 6725POPC   C4A31494  28.336  22.898   7.650
 6725POPC   C1B31495  28.398  23.196   8.550
 6725POPC   C2B31496  28.318  23.210   8.250
 6725POPC   C3B31497  28.367  23.206   7.950
 6725POPC   C4B31498  28.330  23.206   7.650
 6726POPC   NC331499  40.777  27.593   9.450
 6726POPC   PO431500  40.755  27.589   9.150
 6726POPC   GL131501  40.778  27.603   8.850
 6726POPC   GL231502  40.649  27.632   8.850
 6726POPC   C1A31503  40.831  27.590   8.550
 6726POPC   D2A31504  40.818  27.609   8.250
 6726POPC   C3A31505  40.758  27.627   7.950
 6726POPC   C4A31506  40.769  27.628   7.650
 6726POPC   C1B31507  40.577  27.745   8.550
 6726POPC   C2B31508  40.550  27.733   8.250
 6726POPC   C3B31509  40.536  27.708   7.950
 6726POPC   C4B31510  40.528  27.729   7.650
 6727POPC   NC331511  17.485  32.986   9.450
 6727POPC   PO431512  17.527  33.050   9.150
 6727POPC   GL131513  17.513  32.995   8.850
 6727POPC   GL231514  17.409  33.119   8.850
 6727POPC   C1A31515  17.464  32.982   8.550
 6727POPC   D2A31516  17.553  33.019   8.250
 6727POPC   C3A31517  17.501  33.017   7.950
 6727POPC   C4A31518  17.537  33.074   7.650
 6727POPC   C1B31519  17.373  33.202   8.550
 6727POPC   C2B31520  17.351  33.272   8.250
 6727POPC   C3B31521  17.347  33.175   7.950
 6727POPC   C4B31522  17.393  33.227   7.650
 6728POPC   NC331523  44.706  31.474   9.450
 6728POPC   PO431524  44.633  31.451   9.150
 6728POPC   GL131525  44.628  31.506   8.850
 6728POPC   GL231526  44.766  31.514   8.850
 6728POPC   C1A31527  44.654  31.486   8.550
 6728POPC   D2A31528  44.660  31.501   8.250
 6728POPC   C3A31529  44.627  31.508   7.950
 6728POPC   C4A31530  44.659  31.509   7.650
 6728POPC   C1B31531  44.890  31.416   8.550
 6728POPC   C2B31532  44.950  31.507   8.250
 6728POPC   C3B31533  44.922  31.443   7.950
 6728POPC   C4B31534  44.930  31.469   7.650
 6729POPC   NC331535  44.677  15.979   9.450
 6729POPC   PO431536  44.643  15.951   9.150
 6729POPC   GL131537  44.636  16.004   8.850
 6729POPC   GL231538  44.836  15.977   8.850
 6729POPC   C1A31539  44.654  15.925   8.550
 6729POPC   D2A31540  44.708  15.953   8.250
 6729POPC   C3A31541  44.625  15.987   7.950
 6729POPC   C4A31542  44.655  15.911   7.650
 6729POPC   C1B31543  44.932  15.977   8.550
 6729POPC   C2B31544  44.879  16.026   8.250
 6729POPC   C3B31545  44.940  15.952   7.950
 6729POPC   C4B31546  44.956  15.947   7.650
 6730POPC   NC331547  36.897  26.865   9.450
 6730POPC   PO431548  36.893  26.778   9.150
 6730POPC   GL131549  36.929  26.776   8.850
 6730POPC   GL231550  36.772  26.820   8.850
 6730POPC   C1A31551  36.872  26.848   8.550
 6730POPC   D2A31552  36.908  26.796   8.250
 6730POPC   C3A31553  36.866  26.851   7.950
 6730POPC   C4A31554  36.935  26.812   7.650
 6730POPC   C1B31555  36.680  26.854   8.550
 6730POPC   C2B31556  36.685  26.771   8.250
 6730POPC   C3B31557  36.611  26.832   7.950
 6730POPC   C4B31558  36.628  26.798   7.650
 6731POPC   NC331559  34.573  10.542   9.450
 6731POPC   PO431560  34.581  10.503   9.150
 6731POPC   GL131561  34.593  10.476   8.850
 6731POPC   GL231562  34.525  10.440   8.850
 6731POPC   C1A31563  34.593  10.480   8.550
 6731POPC   D2A31564  34.551  10.524   8.250
 6731POPC   C3A31565  34.527  10.500   7.950
 6731POPC   C4A31566  34.617  10.523   7.650
 6731POPC   C1B31567  34.538  10.304   8.550
 6731POPC   C2B31568  34.513  10.277   8.250
 6731POPC   C3B31569  34.551  10.300   7.950
 6731POPC   C4B31570  34.534  10.316   7.650
 6732POPC   NC331571  37.686  35.321   9.450
 6732POPC   PO431572  37.718  35.333   9.150
 6732POPC   GL131573  37.644  35.378   8.850
 6732POPC   GL231574  37.756  35.291   8.850
 6732POPC   C1A31575  37.648  35.342   8.550
 6732POPC   D2A31576  37.653  35.373   8.250
 6732POPC   C3A31577  37.651  35.371   7.950
 6732POPC   C4A31578  37.723  35.336   7.650
 6732POPC   C1B31579  37.877  35.205   8.550
 6732POPC   C2B31580  37.941  35.210   8.250
 6732POPC   C3B31581  37.873  35.248   7.950
 6732POPC   C4B31582  37.879  35.216   7.650
 6733POPC   NC331583  13.610   8.165   9.450
 6733POPC   PO431584  13.672   8.215   9.150
 6733POPC   GL131585  13.652   8.170   8.850
 6733POPC   GL231586  13.511   8.165   8.850
 6733POPC   C1A31587  13.642   8.189   8.550
 6733POPC   D2A31588  13.623   8.173   8.250
 6733POPC   C3A31589  13.677   8.231   7.950
 6733POPC   C4A31590  13.651   8.182   7.650
 6733POPC   C1B31591  13.373   8.202   8.550
 6733POPC   C2B31592  13.357   8.158   8.250
 6733POPC   C3B31593  13.420   8.209   7.950
 6733POPC   C4B31594  13.340   8.129   7.650
 6734POPC   NC331595  43.111  38.419   9.450
 6734POPC   PO431596  43.079  38.491   9.150
 6734POPC   GL131597  43.083  38.476   8.850
 6734POPC   GL231598  43.264  38.461   8.850
 6734POPC   C1A31599  43.070  38.473   8.550
 6734POPC   D2A31600  43.063  38.432   8.250
 6734POPC   C3A31601  43.073  38.407   7.950
 6734POPC   C4A31602  43.114  38.476   7.650
 6734POPC   C1B31603  43.331  38.521   8.550
 6734POPC   C2B31604  43.399  38.489   8.250
 6734POPC   C3B31605  43.320  38.456   7.950
 6734POPC   C4B31606  43.335  38.499   7.650
 6735POPC   NC331607  34.546   7.449   9.450
 6735POPC   PO431608  34.586   7.469   9.150
 6735POPC   GL131609  34.608   7.439   8.850
 6735POPC   GL231610  34.485   7.410   8.850
 6735POPC   C1A31611  34.623   7.462   8.550
 6735POPC   D2A31612  34.546   7.424   8.250
 6735POPC   C3A31613  34.538   7.445   7.950
 6735POPC   C4A31614  34.569   7.378   7.650
 6735POPC   C1B31615  34.370   7.334   8.550
 6735POPC   C2B31616  34.370   7.297   8.250
 6735POPC   C3B31617  34.332   7.259   7.950
 6735POPC   C4B31618  34.316   7.315   7.650
 6736POPC   NC331619  40.793  13.649   9.450
 6736POPC   PO431620  40.809  13.610   9.150
 6736POPC   GL131621  40.759  13.659   8.850
 6736POPC   GL231622  40.692  13.565   8.850
 6736POPC   C1A31623  40.778  13.669   8.550
 6736POPC   D2A31624  40.735  13.583   8.250
 6736POPC   C3A31625  40.772  13.664   7.950
 6736POPC   C4A31626  40.823  13.618   7.650
 6736POPC   C1B31627  40.691  13.437   8.550
 6736POPC   C2B31628  40.653  13.458   8.250
 6736POPC   C3B31629  40.668  13.367   7.950
 6736POPC   C4B31630  40.702  13.423   7.650
 6737POPC   NC331631  43.852  22.969   9.450
 6737POPC   PO431632  43.857  22.975   9.150
 6737POPC   GL131633  43.888  22.975   8.850
 6737POPC   GL231634  43.842  22.842   8.850
 6737POPC   C1A31635  43.915  22.906   8.550
 6737POPC   D2A31636  43.922  22.929   8.250
 6737POPC   C3A31637  43.878  22.920   7.950
 6737POPC   C4A31638  43.925  22.907   7.650
 6737POPC   C1B31639  43.794  22.751   8.550
 6737POPC   C2B31640  43.811  22.691   8.250
 6737POPC   C3B31641  43.766  22.715   7.950
 6737POPC   C4B31642  43.787  22.739   7.650
 6738POPC   NC331643  42.340  26.084   9.450
 6738POPC   PO431644  42.318  26.076   9.150
 6738POPC   GL131645  42.380  26.048   8.850
 6738POPC   GL231646  42.493  26.048   8.850
 6738POPC   C1A31647  42.330  26.044   8.550
 6738POPC   D2A31648  42.285  26.029   8.250
 6738POPC   C3A31649  42.338  26.009   7.950
 6738POPC   C4A31650  42.378  25.992   7.650
 6738POPC   C1B31651  42.573  26.000   8.550
 6738POPC   C2B31652  42.544  26.045   8.250
 6738POPC   C3B31653  42.573  26.039   7.950
 6738POPC   C4B31654  42.573  26.067   7.650
 6739POPC   NC331655   0.462   1.210   9.450
 6739POPC   PO431656   0.470   1.195   9.150
 6739POPC   GL131657   0.464   1.251   8.850
 6739POPC   GL231658   0.422   1.125   8.850
 6739POPC   C1A31659   0.421   1.245   8.550
 6739POPC   D2A31660   0.407   1.213   8.250
 6739POPC   C3A31661   0.396   1.246   7.950
 6739POPC   C4A31662   0.427   1.165   7.650
 6739POPC   C1B31663   0.485   0.925   8.550
 6739POPC   C2B31664   0.503   0.968   8.250
 6739POPC   C3B31665   0.473   0.920   7.950
 6739POPC   C4B31666   0.502   0.932   7.650
 6740POPC   NC331667  15.165   2.760   9.450
 6740POPC   PO431668  15.145   2.733   9.150
 6740POPC   GL131669  15.184   2.719   8.850
 6740POPC   GL231670  15.084   2.744   8.850
 6740POPC   C1A31671  15.149   2.770   8.550
 6740POPC   D2A31672  15.142   2.716   8.250
 6740POPC   C3A31673  15.158   2.734   7.950
 6740POPC   C4A31674  15.139   2.748   7.650
 6740POPC   C1B31675  14.954   2.679   8.550
 6740POPC   C2B31676  14.926   2.625   8.250
 6740POPC   C3B31677  14.899   2.659   7.950
 6740POPC   C4B31678  14.905   2.642   7.650
 6741POPC   NC331679  13.656  43.886   9.450
 6741POPC   PO431680  13.663  43.857   9.150
 6741POPC   GL131681  13.650  43.885   8.850
 6741POPC   GL231682  13.561  43.965   8.850
 6741POPC   C1A31683  13.664  43.920   8.550
 6741POPC   D2A31684  13.665  43.882   8.250
 6741POPC   C3A31685  13.622  43.879   7.950
 6741POPC   C4A31686  13.630  43.854   7.650
 6741POPC   C1B31687  13.489  44.104   8.550
 6741POPC   C2B31688  13.492  44.049   8.250
 6741POPC   C3B31689  13.477  44.074   7.950
 6741POPC   C4B31690  13.448  44.065   7.650
 6742POPC   NC331691  11.325   7.457   9.450
 6742POPC   PO431692  11.312   7.459   9.150
 6742POPC   GL131693  11.292   7.422   8.850
 6742POPC   GL231694  11.242   7.318   8.850
 6742POPC   C1A31695  11.270   7.443   8.550
 6742POPC   D2A31696  11.258   7.469   8.250
 6742POPC   C3A31697  11.268   7.462   7.950
 6742POPC   C4A31698  11.317   7.419   7.650
 6742POPC   C1B31699  11.156   7.283   8.550
 6742POPC   C2B31700  11.089   7.229   8.250
 6742POPC   C3B31701  11.116   7.208   7.950
 6742POPC   C4B31702  11.164   7.260   7.650
 6743POPC   NC331703  36.147   4.356   9.450
 6743POPC   PO431704  36.169   4.306   9.150
 6743POPC   GL131705  36.115   4.323   8.850
 6743POPC   GL231706  36.033   4.312   8.850
 6743POPC   C1A31707  36.086   4.365   8.550
 6743POPC   D2A31708  36.112   4.289   8.250
 6743POPC   C3A31709  36.100   4.317   7.950
 6743POPC   C4A31710  36.133   4.322   7.650
 6743POPC   C1B31711  35.877   4.297   8.550
 6743POPC   C2B31712  35.845   4.293   8.250
 6743POPC   C3B31713  35.849   4.277   7.950
 6743POPC   C4B31714  35.874   4.307   7.650
 6744POPC   NC331715  18.315  11.348   9.450
 6744POPC   PO431716  18.254  11.290   9.150
 6744POPC   GL131717  18.241  11.316   8.850
 6744POPC   GL231718  18.305  11.156   8.850
 6744POPC   C1A31719  18.249  11.345   8.550
 6744POPC   D2A31720  18.311  11.342   8.250
 6744POPC   C3A31721  18.289  11.316   7.950
 6744POPC   C4A31722  18.331  11.329   7.650
 6744POPC   C1B31723  18.447  11.075   8.550
 6744POPC   C2B31724  18.450  11.091   8.250
 6744POPC   C3B31725  18.377  11.104   7.950
 6744POPC   C4B31726  18.419  11.088   7.650
 6745POPC   NC331727   4.364   7.416   9.450
 6745POPC   PO431728   4.306   7.413   9.150
 6745POPC   GL131729   4.285   7.430   8.850
 6745POPC   GL231730   4.416   7.355   8.850
 6745POPC   C1A31731   4.280   7.409   8.550
 6745POPC   D2A31732   4.301   7.459   8.250
 6745POPC   C3A31733   4.282   7.403   7.950
 6745POPC   C4A31734   4.322   7.454   7.650
 6745POPC   C1B31735   4.450   7.231   8.550
 6745POPC   C2B31736   4.514   7.239   8.250
 6745POPC   C3B31737   4.460   7.207   7.950
 6745POPC   C4B31738   4.493   7.227   7.650
 6746POPC   NC331739  13.607  32.984   9.450
 6746POPC   PO431740  13.638  33.017   9.150
 6746POPC   GL131741  13.588  33.048   8.850
 6746POPC   GL231742  13.493  32.956   8.850
 6746POPC   C1A31743  13.602  33.053   8.550
 6746POPC   D2A31744  13.671  33.020   8.250
 6746POPC   C3A31745  13.650  33.037   7.950
 6746POPC   C4A31746  13.664  33.037   7.650
 6746POPC   C1B31747  13.371  32.923   8.550
 6746POPC   C2B31748  13.374  32.959   8.250
 6746POPC   C3B31749  13.430  32.937   7.950
 6746POPC   C4B31750  13.343  32.925   7.650
 6747POPC   NC331751  12.078  17.504   9.450
 6747POPC   PO431752  12.027  17.520   9.150
 6747POPC   GL131753  12.117  17.547   8.850
 6747POPC   GL231754  12.058  17.584   8.850
 6747POPC   C1A31755  12.110  17.543   8.550
 6747POPC   D2A31756  12.054  17.476   8.250
 6747POPC   C3A31757  12.027  17.490   7.950
 6747POPC   C4A31758  12.032  17.509   7.650
 6747POPC   C1B31759  12.088  17.766   8.550
 6747POPC   C2B31760  12.073  17.708   8.250
 6747POPC   C3B31761  12.161  17.715   7.950
 6747POPC   C4B31762  12.085  17.790   7.650
 6748POPC   NC331763  37.695  37.711   9.450
 6748POPC   PO431764  37.637  37.725   9.150
 6748POPC   GL131765  37.655  37.671   8.850
 6748POPC   GL231766  37.620  37.587   8.850
 6748POPC   C1A31767  37.702  37.655   8.550
 6748POPC   D2A31768  37.658  37.697   8.250
 6748POPC   C3A31769  37.666  37.699   7.950
 6748POPC   C4A31770  37.708  37.708   7.650
 6748POPC   C1B31771  37.527  37.507   8.550
 6748POPC   C2B31772  37.513  37.481   8.250
 6748POPC   C3B31773  37.548  37.469   7.950
 6748POPC   C4B31774  37.485  37.527   7.650
 6749POPC   NC331775  13.644  39.253   9.450
 6749POPC   PO431776  13.596  39.258   9.150
 6749POPC   GL131777  13.642  39.195   8.850
 6749POPC   GL231778  13.671  39.107   8.850
 6749POPC   C1A31779  13.657  39.220   8.550
 6749POPC   D2A31780  13.675  39.240   8.250
 6749POPC   C3A31781  13.661  39.196   7.950
 6749POPC   C4A31782  13.616  39.187   7.650
 6749POPC   C1B31783  13.724  38.977   8.550
 6749POPC   C2B31784  13.765  39.032   8.250
 6749POPC   C3B31785  13.799  38.981   7.950
 6749POPC   C4B31786  13.709  38.971   7.650
 6750POPC   NC331787  26.789  17.520   9.450
 6750POPC   PO431788  26.850  17.498   9.150
 6750POPC   GL131789  26.841  17.473   8.850
 6750POPC   GL231790  26.974  17.586   8.850
 6750POPC   C1A31791  26.849  17.475   8.550
 6750POPC   D2A31792  26.860  17.476   8.250
 6750POPC   C3A31793  26.787  17.546   7.950
 6750POPC   C4A31794  26.845  17.479   7.650
 6750POPC   C1B31795  27.063  17.590   8.550
 6750POPC   C2B31796  27.016  17.621   8.250
 6750POPC   C3B31797  27.094  17.558   7.950
 6750POPC   C4B31798  27.097  17.603   7.650
 6751POPC   NC331799   4.326  29.104   9.450
 6751POPC   PO431800   4.331  29.185   9.150
 6751POPC   GL131801   4.323  29.187   8.850
 6751POPC   GL231802   4.373  29.256   8.850
 6751POPC   C1A31803   4.309  29.132   8.550
 6751POPC   D2A31804   4.326  29.128   8.250
 6751POPC   C3A31805   4.304  29.193   7.950
 6751POPC   C4A31806   4.302  29.147   7.650
 6751POPC   C1B31807   4.472  29.303   8.550
 6751POPC   C2B31808   4.528  29.330   8.250
 6751POPC   C3B31809   4.488  29.319   7.950
 6751POPC   C4B31810   4.461  29.296   7.650
 6752POPC   NC331811   2.788  28.359   9.450
 6752POPC   PO431812   2.718  28.359   9.150
 6752POPC   GL131813   2.740  28.349   8.850
 6752POPC   GL231814   2.913  28.317   8.850
 6752POPC   C1A31815   2.789  28.374   8.550
 6752POPC   D2A31816   2.782  28.400   8.250
 6752POPC   C3A31817   2.811  28.327   7.950
 6752POPC   C4A31818   2.775  28.323   7.650
 6752POPC   C1B31819   2.986  28.316   8.550
 6752POPC   C2B31820   3.031  28.313   8.250
 6752POPC   C3B31821   3.042  28.346   7.950
 6752POPC   C4B31822   3.048  28.349   7.650
 6753POPC   NC331823  36.928  36.854   9.450
 6753POPC   PO431824  36.942  36.893   9.150
 6753POPC   GL131825  36.916  36.895   8.850
 6753POPC   GL231826  36.928  37.024   8.850
 6753POPC   C1A31827  36.880  36.890   8.550
 6753POPC   D2A31828  36.924  36.928   8.250
 6753POPC   C3A31829  36.906  36.950   7.950
 6753POPC   C4A31830  36.863  36.864   7.650
 6753POPC   C1B31831  37.014  37.094   8.550
 6753POPC   C2B31832  37.056  37.127   8.250
 6753POPC   C3B31833  37.014  37.158   7.950
 6753POPC   C4B31834  37.025  37.080   7.650
 6754POPC   NC331835   9.702  25.249   9.450
 6754POPC   PO431836   9.700  25.249   9.150
 6754POPC   GL131837   9.787  25.246   8.850
 6754POPC   GL231838   9.664  25.234   8.850
 6754POPC   C1A31839   9.723  25.257   8.550
 6754POPC   D2A31840   9.719  25.266   8.250
 6754POPC   C3A31841   9.741  25.272   7.950
 6754POPC   C4A31842   9.755  25.218   7.650
 6754POPC   C1B31843   9.545  25.297   8.550
 6754POPC   C2B31844   9.489  25.314   8.250
 6754POPC   C3B31845   9.519  25.287   7.950
 6754POPC   C4B31846   9.507  25.331   7.650
 6755POPC   NC331847  12.879  22.171   9.450
 6755POPC   PO431848  12.870  22.198   9.150
 6755POPC   GL131849  12.854  22.116   8.850
 6755POPC   GL231850  12.969  22.106   8.850
 6755POPC   C1A31851  12.802  22.115   8.550
 6755POPC   D2A31852  12.851  22.131   8.250
 6755POPC   C3A31853  12.804  22.156   7.950
 6755POPC   C4A31854  12.869  22.153   7.650
 6755POPC   C1B31855  13.096  22.058   8.550
 6755POPC   C2B31856  13.061  22.075   8.250
 6755POPC   C3B31857  13.097  22.132   7.950
 6755POPC   C4B31858  13.107  22.138   7.650
 6756POPC   NC331859  11.252   5.904   9.450
 6756POPC   PO431860  11.303   5.894   9.150
 6756POPC   GL131861  11.318   5.829   8.850
 6756POPC   GL231862  11.340   6.033   8.850
 6756POPC   C1A31863  11.317   5.837   8.550
 6756POPC   D2A31864  11.336   5.882   8.250
 6756POPC   C3A31865  11.332   5.828   7.950
 6756POPC   C4A31866  11.262   5.823   7.650
 6756POPC   C1B31867  11.308   6.103   8.550
 6756POPC   C2B31868  11.283   6.129   8.250
 6756POPC   C3B31869  11.301   6.163   7.950
 6756POPC   C4B31870  11.260   6.135   7.650
 6757POPC   NC331871  25.297  31.452   9.450
 6757POPC   PO431872  25.288  31.485   9.150
 6757POPC   GL131873  25.268  31.498   8.850
 6757POPC   GL231874  25.303  31.356   8.850
 6757POPC   C1A31875  25.223  31.493   8.550
 6757POPC   D2A31876  25.232  31.464   8.250
 6757POPC   C3A31877  25.256  31.448   7.950
 6757POPC   C4A31878  25.281  31.459   7.650
 6757POPC   C1B31879  25.216  31.176   8.550
 6757POPC   C2B31880  25.199  31.211   8.250
 6757POPC   C3B31881  25.256  31.183   7.950
 6757POPC   C4B31882  25.219  31.179   7.650
 6758POPC   NC331883  29.117   8.947   9.450
 6758POPC   PO431884  29.099   8.993   9.150
 6758POPC   GL131885  29.185   8.969   8.850
 6758POPC   GL231886  29.093   8.869   8.850
 6758POPC   C1A31887  29.192   9.011   8.550
 6758POPC   D2A31888  29.107   8.923   8.250
 6758POPC   C3A31889  29.149   9.019   7.950
 6758POPC   C4A31890  29.111   8.931   7.650
 6758POPC   C1B31891  28.969   8.787   8.550
 6758POPC   C2B31892  28.960   8.789   8.250
 6758POPC   C3B31893  29.025   8.737   7.950
 6758POPC   C4B31894  29.003   8.836   7.650
 6759POPC   NC331895  24.527   2.794   9.450
 6759POPC   PO431896  24.461   2.746   9.150
 6759POPC   GL131897  24.479   2.811   8.850
 6759POPC   GL231898  24.632   2.743   8.850
 6759POPC   C1A31899  24.478   2.784   8.550
 6759POPC   D2A31900  24.479   2.795   8.250
 6759POPC   C3A31901  24.506   2.810   7.950
 6759POPC   C4A31902  24.487   2.761   7.650
 6759POPC   C1B31903  24.743   2.840   8.550
 6759POPC   C2B31904  24.722   2.762   8.250
 6759POPC   C3B31905  24.715   2.817   7.950
 6759POPC   C4B31906  24.782   2.768   7.650
 6760POPC   NC331907  10.497  14.370   9.450
 6760POPC   PO431908  10.542  14.417   9.150
 6760POPC   GL131909  10.565  14.397   8.850
 6760POPC   GL231910  10.488  14.269   8.850
 6760POPC   C1A31911  10.494  14.387   8.550
 6760POPC   D2A31912  10.486  14.420   8.250
 6760POPC   C3A31913  10.510  14.364   7.950
 6760POPC   C4A31914  10.565  14.448   7.650
 6760POPC   C1B31915  10.459  14.169   8.550
 6760POPC   C2B31916  10.514  14.199   8.250
 6760POPC   C3B31917  10.505  14.113   7.950
 6760POPC   C4B31918  10.467  14.180   7.650
 6761POPC   NC331919  19.872  21.377   9.450
 6761POPC   PO431920  19.808  21.337   9.150
 6761POPC   GL131921  19.863  21.407   8.850
 6761POPC   GL231922  19.729  21.517   8.850
 6761POPC   C1A31923  19.851  21.340   8.550
 6761POPC   D2A31924  19.818  21.359   8.250
 6761POPC   C3A31925  19.882  21.420   7.950
 6761POPC   C4A31926  19.807  21.404   7.650
 6761POPC   C1B31927  19.682  21.566   8.550
 6761POPC   C2B31928  19.655  21.607   8.250
 6761POPC   C3B31929  19.722  21.553   7.950
 6761POPC   C4B31930  19.689  21.551   7.650
 6762POPC   NC331931  23.749  15.178   9.450
 6762POPC   PO431932  23.668  15.144   9.150
 6762POPC   GL131933  23.710  15.194   8.850
 6762POPC   GL231934  23.752  15.014   8.850
 6762POPC   C1A31935  23.722  15.169   8.550
 6762POPC   D2A31936  23.748  15.169   8.250
 6762POPC   C3A31937  23.671  15.185   7.950
 6762POPC   C4A31938  23.668  15.223   7.650
 6762POPC   C1B31939  23.767  14.896   8.550
 6762POPC   C2B31940  23.695  14.898   8.250
 6762POPC   C3B31941  23.706  14.930   7.950
 6762POPC   C4B31942  23.712  14.976   7.650
 6763POPC   NC331943  23.734   8.186   9.450
 6763POPC   PO431944  23.689   8.243   9.150
 6763POPC   GL131945  23.674   8.156   8.850
 6763POPC   GL231946  23.562   8.223   8.850
 6763POPC   C1A31947  23.755   8.154   8.550
 6763POPC   D2A31948  23.754   8.164   8.250
 6763POPC   C3A31949  23.713   8.164   7.950
 6763POPC   C4A31950  23.682   8.197   7.650
 6763POPC   C1B31951  23.510   8.233   8.550
 6763POPC   C2B31952  23.509   8.196   8.250
 6763POPC   C3B31953  23.421   8.260   7.950
 6763POPC   C4B31954  23.492   8.258   7.650
 6764POPC   NC331955  16.708  25.245   9.450
 6764POPC   PO431956  16.684  25.288   9.150
 6764POPC   GL131957  16.745  25.310   8.850
 6764POPC   GL231958  16.801  25.411   8.850
 6764POPC   C1A31959  16.722  25.272   8.550
 6764POPC   D2A31960  16.766  25.287   8.250
 6764POPC   C3A31961  16.762  25.293   7.950
 6764POPC   C4A31962  16.686  25.244   7.650
 6764POPC   C1B31963  16.820  25.515   8.550
 6764POPC   C2B31964  16.818  25.544   8.250
 6764POPC   C3B31965  16.831  25.505   7.950
 6764POPC   C4B31966  16.796  25.476   7.650
 6765POPC   NC331967  27.623  38.481   9.450
 6765POPC   PO431968  27.570  38.471   9.150
 6765POPC   GL131969  27.595  38.476   8.850
 6765POPC   GL231970  27.715  38.416   8.850
 6765POPC   C1A31971  27.616  38.465   8.550
 6765POPC   D2A31972  27.546  38.446   8.250
 6765POPC   C3A31973  27.555  38.416   7.950
 6765POPC   C4A31974  27.583  38.465   7.650
 6765POPC   C1B31975  27.847  38.401   8.550
 6765POPC   C2B31976  27.811  38.329   8.250
 6765POPC   C3B31977  27.860  38.347   7.950
 6765POPC   C4B31978  27.798  38.401   7.650
 6766POPC   NC331979  32.213  35.327   9.450
 6766POPC   PO431980  32.250  35.349   9.150
 6766POPC   GL131981  32.291  35.339   8.850
 6766POPC   GL231982  32.180  35.473   8.850
 6766POPC   C1A31983  32.297  35.315   8.550
 6766POPC   D2A31984  32.267  35.348   8.250
 6766POPC   C3A31985  32.256  35.363   7.950
 6766POPC   C4A31986  32.292  35.324   7.650
 6766POPC   C1B31987  32.018  35.512   8.550
 6766POPC   C2B31988  32.025  35.515   8.250
 6766POPC   C3B31989  32.040  35.470   7.950
 6766POPC   C4B31990  32.102  35.557   7.650
 6767POPC   NC331991  39.225  19.102   9.450
 6767POPC   PO431992  39.244  19.096   9.150
 6767POPC   GL131993  39.206  19.077   8.850
 6767POPC   GL231994  39.367  18.966   8.850
 6767POPC   C1A31995  39.274  19.105   8.550
 6767POPC   D2A31996  39.181  19.074   8.250
 6767POPC   C3A31997  39.185  19.088   7.950
 6767POPC   C4A31998  39.266  19.100   7.650
 6767POPC   C1B31999  39.442  18.880   8.550
 6767POPC   C2B32000  39.403  18.862   8.250
 6767POPC   C3B32001  39.389  18.927   7.950
 6767POPC   C4B32002  39.449  18.872   7.650
 6768POPC   NC332003  23.763  33.004   9.450
 6768POPC   PO432004  23.734  33.049   9.150
 6768POPC   GL132005  23.685  33.005   8.850
 6768POPC   GL232006  23.783  33.101   8.850
 6768POPC   C1A32007  23.758  32.981   8.550
 6768POPC   D2A32008  23.708  32.999   8.250
 6768POPC   C3A32009  23.699  33.003   7.950
 6768POPC   C4A32010  23.707  33.051   7.650
 6768POPC   C1B32011  23.768  33.242   8.550
 6768POPC   C2B32012  23.758  33.315   8.250
 6768POPC   C3B32013  23.796  33.284   7.950
 6768POPC   C4B32014  23.780  33.312   7.650
 6769POPC   NC332015   6.690  44.621   9.450
 6769POPC   PO432016   6.599  44.676   9.150
 6769POPC   GL132017   6.604  44.613   8.850
 6769POPC   GL232018   6.646  44.594   8.850
 6769POPC   C1A32019   6.633  44.672   8.550
 6769POPC   D2A32020   6.596  44.645   8.250
 6769POPC   C3A32021   6.609  44.679   7.950
 6769POPC   C4A32022   6.655  44.655   7.650
 6769POPC   C1B32023   6.603  44.396   8.550
 6769POPC   C2B32024   6.590  44.412   8.250
 6769POPC   C3B32025   6.552  44.453   7.950
 6769POPC   C4B32026   6.528  44.398   7.650
 6770POPC   NC332027  35.389  17.518   9.450
 6770POPC   PO432028  35.390  17.519   9.150
 6770POPC   GL132029  35.312  17.521   8.850
 6770POPC   GL232030  35.505  17.558   8.850
 6770POPC   C1A32031  35.369  17.498   8.550
 6770POPC   D2A32032  35.302  17.500   8.250
 6770POPC   C3A32033  35.379  17.464   7.950
 6770POPC   C4A32034  35.333  17.522   7.650
 6770POPC   C1B32035  35.611  17.634   8.550
 6770POPC   C2B32036  35.604  17.630   8.250
 6770POPC   C3B32037  35.597  17.642   7.950
 6770POPC   C4B32038  35.601  17.579   7.650
 6771POPC   NC332039  38.477  36.885   9.450
 6771POPC   PO432040  38.414  36.866   9.150
 6771POPC   GL132041  38.452  36.947   8.850
 6771POPC   GL232042  38.419  36.818   8.850
 6771POPC   C1A32043  38.482  36.869   8.550
 6771POPC   D2A32044  38.426  36.945   8.250
 6771POPC   C3A32045  38.465  36.888   7.950
 6771POPC   C4A32046  38.498  36.880   7.650
 6771POPC   C1B32047  38.294  36.703   8.550
 6771POPC   C2B32048  38.253  36.735   8.250
 6771POPC   C3B32049  38.335  36.724   7.950
 6771POPC   C4B32050  38.299  36.680   7.650
 6772POPC   NC332051  44.667  10.483   9.450
 6772POPC   PO432052  44.613  10.542   9.150
 6772POPC   GL132053  44.627  10.487   8.850
 6772POPC   GL232054  44.776  10.496   8.850
 6772POPC   C1A32055  44.623  10.559   8.550
 6772POPC   D2A32056  44.673  10.501   8.250
 6772POPC   C3A32057  44.712  10.500   7.950
 6772POPC   C4A32058  44.634  10.572   7.650
 6772POPC   C1B32059  44.867  10.426   8.550
 6772POPC   C2B32060  44.912  10.449   8.250
 6772POPC   C3B32061  44.926  10.375   7.950
 6772POPC   C4B32062  44.929  10.418   7.650
 6773POPC   NC332063   8.162  41.592   9.450
 6773POPC   PO432064   8.221  41.548   9.150
 6773POPC   GL132065   8.239  41.560   8.850
 6773POPC   GL232066   8.328  41.572   8.850
 6773POPC   C1A32067   8.204  41.548   8.550
 6773POPC   D2A32068   8.215  41.516   8.250
 6773POPC   C3A32069   8.153  41.527   7.950
 6773POPC   C4A32070   8.194  41.596   7.650
 6773POPC   C1B32071   8.425  41.589   8.550
 6773POPC   C2B32072   8.455  41.506   8.250
 6773POPC   C3B32073   8.397  41.559   7.950
 6773POPC   C4B32074   8.423  41.593   7.650
 6774POPC   NC332075  32.268   5.079   9.450
 6774POPC   PO432076  32.238   5.087   9.150
 6774POPC   GL132077  32.229   5.121   8.850
 6774POPC   GL232078  32.364   5.102   8.850
 6774POPC   C1A32079  32.200   5.057   8.550
 6774POPC   D2A32080  32.254   5.080   8.250
 6774POPC   C3A32081  32.212   5.109   7.950
 6774POPC   C4A32082  32.271   5.062   7.650
 6774POPC   C1B32083  32.526   5.049   8.550
 6774POPC   C2B32084  32.439   4.976   8.250
 6774POPC   C3B32085  32.466   4.979   7.950
 6774POPC   C4B32086  32.443   5.014   7.650
 6775POPC   NC332087  32.277  17.516   9.450
 6775POPC   PO432088  32.223  17.495   9.150
 6775POPC   GL132089  32.230  17.494   8.850
 6775POPC   GL232090  32.122  17.445   8.850
 6775POPC   C1A32091  32.297  17.529   8.550
 6775POPC   D2A32092  32.212  17.548   8.250
 6775POPC   C3A32093  32.264  17.513   7.950
 6775POPC   C4A32094  32.245  17.535   7.650
 6775POPC   C1B32095  32.008  17.466   8.550
 6775POPC   C2B32096  31.962  17.424   8.250
 6775POPC   C3B32097  32.054  17.490   7.950
 6775POPC   C4B32098  31.960  17.432   7.650
 6776POPC   NC332099  31.473  22.138   9.450
 6776POPC   PO432100  31.447  22.190   9.150
 6776POPC   GL132101  31.447  22.147   8.850
 6776POPC   GL232102  31.340  22.166   8.850
 6776POPC   C1A32103  31.517  22.167   8.550
 6776POPC   D2A32104  31.432  22.127   8.250
 6776POPC   C3A32105  31.506  22.204   7.950
 6776POPC   C4A32106  31.448  22.151   7.650
 6776POPC   C1B32107  31.198  22.245   8.550
 6776POPC   C2B32108  31.281  22.200   8.250
 6776POPC   C3B32109  31.221  22.277   7.950
 6776POPC   C4B32110  31.188  22.242   7.650
 6777POPC   NC332111  44.628   1.175   9.450
 6777POPC   PO432112  44.654   1.235   9.150
 6777POPC   GL132113  44.645   1.250   8.850
 6777POPC   GL232114  44.604   1.267   8.850
 6777POPC   C1A32115  44.629   1.245   8.550
 6777POPC   D2A32116  44.624   1.245   8.250
 6777POPC   C3A32117  44.665   1.197   7.950
 6777POPC   C4A32118  44.667   1.203   7.650
 6777POPC   C1B32119  44.522   1.406   8.550
 6777POPC   C2B32120  44.549   1.394   8.250
 6777POPC   C3B32121  44.505   1.385   7.950
 6777POPC   C4B32122  44.521   1.392   7.650
 6778POPC   NC332123  27.593   5.837   9.450
 6778POPC   PO432124  27.604   5.854   9.150
 6778POPC   GL132125  27.576   5.899   8.850
 6778POPC   GL232126  27.544   6.023   8.850
 6778POPC   C1A32127  27.577   5.889   8.550
 6778POPC   D2A32128  27.567   5.842   8.250
 6778POPC   C3A32129  27.559   5.875   7.950
 6778POPC   C4A32130  27.638   5.875   7.650
 6778POPC   C1B32131  27.581   6.129   8.550
 6778POPC   C2B32132  27.550   6.093   8.250
 6778POPC   C3B32133  27.570   6.165   7.950
 6778POPC   C4B32134  27.576   6.135   7.650
 6779POPC   NC332135  34.529  37.648   9.450
 6779POPC   PO432136  34.605  37.658   9.150
 6779POPC   GL132137  34.546  37.643   8.850
 6779POPC   GL232138  34.523  37.527   8.850
 6779POPC   C1A32139  34.605  37.663   8.550
 6779POPC   D2A32140  34.562  37.708   8.250
 6779POPC   C3A32141  34.535  37.700   7.950
 6779POPC   C4A32142  34.592  37.674   7.650
 6779POPC   C1B32143  34.603  37.474   8.550
 6779POPC   C2B32144  34.564  37.436   8.250
 6779POPC   C3B32145  34.557  37.430   7.950
 6779POPC   C4B32146  34.506  37.423   7.650
 6780POPC   NC332147   9.712   6.692   9.450
 6780POPC   PO432148   9.791   6.661   9.150
 6780POPC   GL132149   9.723   6.664   8.850
 6780POPC   GL232150   9.850   6.727   8.850
 6780POPC   C1A32151   9.756   6.626   8.550
 6780POPC   D2A32152   9.747   6.599   8.250
 6780POPC   C3A32153   9.701   6.606   7.950
 6780POPC   C4A32154   9.768   6.660   7.650
 6780POPC   C1B32155   9.967   6.788   8.550
 6780POPC   C2B32156   9.964   6.748   8.250
 6780POPC   C3B32157   9.979   6.755   7.950
 6780POPC   C4B32158   9.912   6.733   7.650
 6781POPC   NC332159  41.540  39.182   9.450
 6781POPC   PO432160  41.527  39.264   9.150
 6781POPC   GL132161  41.516  39.252   8.850
 6781POPC   GL232162  41.692  39.133   8.850
 6781POPC   C1A32163  41.558  39.259   8.550
 6781POPC   D2A32164  41.579  39.262   8.250
 6781POPC   C3A32165  41.570  39.247   7.950
 6781POPC   C4A32166  41.583  39.183   7.650
 6781POPC   C1B32167  41.728  39.108   8.550
 6781POPC   C2B32168  41.766  39.080   8.250
 6781POPC   C3B32169  41.743  39.096   7.950
 6781POPC   C4B32170  41.795  39.053   7.650
 6782POPC   NC332171  21.410  22.987   9.450
 6782POPC   PO432172  21.430  22.956   9.150
 6782POPC   GL132173  21.377  22.928   8.850
 6782POPC   GL232174  21.414  23.032   8.850
 6782POPC   C1A32175  21.352  22.978   8.550
 6782POPC   D2A32176  21.426  22.888   8.250
 6782POPC   C3A32177  21.377  22.971   7.950
 6782POPC   C4A32178  21.435  22.977   7.650
 6782POPC   C1B32179  21.452  23.186   8.550
 6782POPC   C2B32180  21.447  23.199   8.250
 6782POPC   C3B32181  21.462  23.187   7.950
 6782POPC   C4B32182  21.472  23.147   7.650
 6783POPC   NC332183  39.995  10.488   9.450
 6783POPC   PO432184  40.012  10.477   9.150
 6783POPC   GL132185  40.029  10.514   8.850
 6783POPC   GL232186  39.946  10.626   8.850
 6783POPC   C1A32187  40.025  10.567   8.550
 6783POPC   D2A32188  40.004  10.561   8.250
 6783POPC   C3A32189  39.990  10.561   7.950
 6783POPC   C4A32190  40.041  10.553   7.650
 6783POPC   C1B32191  39.947  10.748   8.550
 6783POPC   C2B32192  39.959  10.793   8.250
 6783POPC   C3B32193  39.948  10.724   7.950
 6783POPC   C4B32194  39.943  10.770   7.650
 6784POPC   NC332195  12.074  32.240   9.450
 6784POPC   PO432196  12.032  32.281   9.150
 6784POPC   GL132197  12.039  32.200   8.850
 6784POPC   GL232198  12.245  32.189   8.850
 6784POPC   C1A32199  12.110  32.237   8.550
 6784POPC   D2A32200  12.095  32.239   8.250
 6784POPC   C3A32201  12.117  32.221   7.950
 6784POPC   C4A32202  12.083  32.268   7.650
 6784POPC   C1B32203  12.321  32.221   8.550
 6784POPC   C2B32204  12.358  32.179   8.250
 6784POPC   C3B32205  12.288  32.215   7.950
 6784POPC   C4B32206  12.335  32.164   7.650
 6785POPC   NC332207  38.418  16.710   9.450
 6785POPC   PO432208  38.430  16.758   9.150
 6785POPC   GL132209  38.478  16.747   8.850
 6785POPC   GL232210  38.403  16.626   8.850
 6785POPC   C1A32211  38.446  16.776   8.550
 6785POPC   D2A32212  38.429  16.725   8.250
 6785POPC   C3A32213  38.457  16.750   7.950
 6785POPC   C4A32214  38.469  16.765   7.650
 6785POPC   C1B32215  38.396  16.524   8.550
 6785POPC   C2B32216  38.440  16.534   8.250
 6785POPC   C3B32217  38.401  16.480   7.950
 6785POPC   C4B32218  38.399  16.452   7.650
 6786POPC   NC332219   7.373  35.398   9.450
 6786POPC   PO432220   7.443  35.379   9.150
 6786POPC   GL132221   7.416  35.357   8.850
 6786POPC   GL232222   7.362  35.441   8.850
 6786POPC   C1A32223   7.453  35.397   8.550
 6786POPC   D2A32224   7.435  35.325   8.250
 6786POPC   C3A32225   7.389  35.329   7.950
 6786POPC   C4A32226   7.411  35.346   7.650
 6786POPC   C1B32227   7.401  35.649   8.550
 6786POPC   C2B32228   7.380  35.572   8.250
 6786POPC   C3B32229   7.422  35.616   7.950
 6786POPC   C4B32230   7.369  35.602   7.650
 6787POPC   NC332231  21.345  26.832   9.450
 6787POPC   PO432232  21.357  26.823   9.150
 6787POPC   GL132233  21.407  26.844   8.850
 6787POPC   GL232234  21.298  26.721   8.850
 6787POPC   C1A32235  21.412  26.795   8.550
 6787POPC   D2A32236  21.387  26.834   8.250
 6787POPC   C3A32237  21.376  26.837   7.950
 6787POPC   C4A32238  21.384  26.785   7.650
 6787POPC   C1B32239  21.156  26.713   8.550
 6787POPC   C2B32240  21.158  26.666   8.250
 6787POPC   C3B32241  21.197  26.694   7.950
 6787POPC   C4B32242  21.143  26.663   7.650
 6788POPC   NC332243   8.950   8.199   9.450
 6788POPC   PO432244   8.993   8.182   9.150
 6788POPC   GL132245   8.998   8.166   8.850
 6788POPC   GL232246   9.136   8.178   8.850
 6788POPC   C1A32247   8.939   8.195   8.550
 6788POPC   D2A32248   8.930   8.164   8.250
 6788POPC   C3A32249   8.966   8.158   7.950
 6788POPC   C4A32250   8.997   8.192   7.650
 6788POPC   C1B32251   9.234   8.205   8.550
 6788POPC   C2B32252   9.254   8.153   8.250
 6788POPC   C3B32253   9.228   8.194   7.950
 6788POPC   C4B32254   9.241   8.230   7.650
 6789POPC   NC332255  30.698  35.305   9.450
 6789POPC   PO432256  30.686  35.388   9.150
 6789POPC   GL132257  30.654  35.364   8.850
 6789POPC   GL232258  30.586  35.435   8.850
 6789POPC   C1A32259  30.660  35.303   8.550
 6789POPC   D2A32260  30.714  35.326   8.250
 6789POPC   C3A32261  30.704  35.324   7.950
 6789POPC   C4A32262  30.688  35.395   7.650
 6789POPC   C1B32263  30.526  35.485   8.550
 6789POPC   C2B32264  30.492  35.490   8.250
 6789POPC   C3B32265  30.518  35.473   7.950
 6789POPC   C4B32266  30.511  35.454   7.650
 6790POPC   NC332267  28.336  15.134   9.450
 6790POPC   PO432268  28.354  15.139   9.150
 6790POPC   GL132269  28.414  15.131   8.850
 6790POPC   GL232270  28.284  15.119   8.850
 6790POPC   C1A32271  28.349  15.215   8.550
 6790POPC   D2A32272  28.339  15.151   8.250
 6790POPC   C3A32273  28.348  15.193   7.950
 6790POPC   C4A32274  28.396  15.192   7.650
 6790POPC   C1B32275  28.158  15.106   8.550
 6790POPC   C2B32276  28.098  15.077   8.250
 6790POPC   C3B32277  28.129  15.048   7.950
 6790POPC   C4B32278  28.123  15.039   7.650
 6791POPC   NC332279  13.655  12.109   9.450
 6791POPC   PO432280  13.642  12.099   9.150
 6791POPC   GL132281  13.632  12.065   8.850
 6791POPC   GL232282  13.707  12.193   8.850
 6791POPC   C1A32283  13.642  12.035   8.550
 6791POPC   D2A32284  13.661  12.066   8.250
 6791POPC   C3A32285  13.584  12.029   7.950
 6791POPC   C4A32286  13.647  12.052   7.650
 6791POPC   C1B32287  13.820  12.211   8.550
 6791POPC   C2B32288  13.807  12.245   8.250
 6791POPC   C3B32289  13.816  12.211   7.950
 6791POPC   C4B32290  13.794  12.187   7.650
 6792POPC   NC332291  12.900  21.377   9.450
 6792POPC   PO432292  12.825  21.428   9.150
 6792POPC   GL132293  12.826  21.349   8.850
 6792POPC   GL232294  12.751  21.265   8.850
 6792POPC   C1A32295  12.832  21.435   8.550
 6792POPC   D2A32296  12.886  21.404   8.250
 6792POPC   C3A32297  12.864  21.360   7.950
 6792POPC   C4A32298  12.814  21.422   7.650
 6792POPC   C1B32299  12.701  21.127   8.550
 6792POPC   C2B32300  12.778  21.150   8.250
 6792POPC   C3B32301  12.786  21.113   7.950
 6792POPC   C4B32302  12.726  21.131   7.650
 6793POPC   NC332303  10.512  40.781   9.450
 6793POPC   PO432304  10.527  40.763   9.150
 6793POPC   GL132305  10.546  40.752   8.850
 6793POPC   GL232306  10.567  40.923   8.850
 6793POPC   C1A32307  10.504  40.799   8.550
 6793POPC   D2A32308  10.502  40.754   8.250
 6793POPC   C3A32309  10.475  40.822   7.950
 6793POPC   C4A32310  10.534  40.775   7.650
 6793POPC   C1B32311  10.603  41.031   8.550
 6793POPC   C2B32312  10.636  41.000   8.250
 6793POPC   C3B32313  10.680  41.000   7.950
 6793POPC   C4B32314  10.613  41.004   7.650
 6794POPC   NC332315  12.847  12.815   9.450
 6794POPC   PO432316  12.893  12.872   9.150
 6794POPC   GL132317  12.890  12.899   8.850
 6794POPC   GL232318  12.756  12.759   8.850
 6794POPC   C1A32319  12.855  12.858   8.550
 6794POPC   D2A32320  12.885  12.821   8.250
 6794POPC   C3A32321  12.887  12.830   7.950
 6794POPC   C4A32322  12.823  12.865   7.650
 6794POPC   C1B32323  12.666  12.804   8.550
 6794POPC   C2B32324  12.620  12.780   8.250
 6794POPC   C3B32325  12.640  12.799   7.950
 6794POPC   C4B32326  12.630  12.797   7.650
 6795POPC   NC332327  33.009  21.427   9.450
 6795POPC   PO432328  32.999  21.344   9.150
 6795POPC   GL132329  33.056  21.406   8.850
 6795POPC   GL232330  32.853  21.377   8.850
 6795POPC   C1A32331  32.985  21.424   8.550
 6795POPC   D2A32332  33.012  21.360   8.250
 6795POPC   C3A32333  33.031  21.406   7.950
 6795POPC   C4A32334  33.036  21.406   7.650
 6795POPC   C1B32335  32.729  21.401   8.550
 6795POPC   C2B32336  32.752  21.346   8.250
 6795POPC   C3B32337  32.768  21.375   7.950
 6795POPC   C4B32338  32.782  21.325   7.650
 6796POPC   NC332339  36.114  40.808   9.450
 6796POPC   PO432340  36.129  40.735   9.150
 6796POPC   GL132341  36.079  40.734   8.850
 6796POPC   GL232342  36.062  40.699   8.850
 6796POPC   C1A32343  36.086  40.772   8.550
 6796POPC   D2A32344  36.084  40.734   8.250
 6796POPC   C3A32345  36.159  40.735   7.950
 6796POPC   C4A32346  36.131  40.812   7.650
 6796POPC   C1B32347  35.975  40.524   8.550
 6796POPC   C2B32348  36.022  40.528   8.250
 6796POPC   C3B32349  36.029  40.611   7.950
 6796POPC   C4B32350  36.035  40.578   7.650
 6797POPC   NC332351  21.387  12.109   9.450
 6797POPC   PO432352  21.371  12.059   9.150
 6797POPC   GL132353  21.425  12.056   8.850
 6797POPC   GL232354  21.467  12.054   8.850
 6797POPC   C1A32355  21.351  12.100   8.550
 6797POPC   D2A32356  21.415  12.062   8.250
 6797POPC   C3A32357  21.364  12.101   7.950
 6797POPC   C4A32358  21.411  12.082   7.650
 6797POPC   C1B32359  21.552  11.925   8.550
 6797POPC   C2B32360  21.615  11.941   8.250
 6797POPC   C3B32361  21.646  11.942   7.950
 6797POPC   C4B32362  21.607  11.931   7.650
 6798POPC   NC332363  18.326  29.878   9.450
 6798POPC   PO432364  18.321  29.891   9.150
 6798POPC   GL132365  18.237  29.956   8.850
 6798POPC   GL232366  18.371  29.987   8.850
 6798POPC   C1A32367  18.234  29.911   8.550
 6798POPC   D2A32368  18.256  29.874   8.250
 6798POPC   C3A32369  18.284  29.896   7.950
 6798POPC   C4A32370  18.307  29.875   7.650
 6798POPC   C1B32371  18.348  30.187   8.550
 6798POPC   C2B32372  18.378  30.108   8.250
 6798POPC   C3B32373  18.433  30.156   7.950
 6798POPC   C4B32374  18.418  30.117   7.650
 6799POPC   NC332375   4.333  22.977   9.450
 6799POPC   PO432376   4.352  22.970   9.150
 6799POPC   GL132377   4.299  22.968   8.850
 6799POPC   GL232378   4.277  22.873   8.850
 6799POPC   C1A32379   4.319  22.986   8.550
 6799POPC   D2A32380   4.284  22.947   8.250
 6799POPC   C3A32381   4.355  22.965   7.950
 6799POPC   C4A32382   4.285  22.942   7.650
 6799POPC   C1B32383   4.231  22.664   8.550
 6799POPC   C2B32384   4.234  22.725   8.250
 6799POPC   C3B32385   4.230  22.687   7.950
 6799POPC   C4B32386   4.221  22.667   7.650
 6800POPC   NC332387   3.516  43.843   9.450
 6800POPC   PO432388   3.578  43.888   9.150
 6800POPC   GL132389   3.552  43.887   8.850
 6800POPC   GL232390   3.704  43.824   8.850
 6800POPC   C1A32391   3.519  43.928   8.550
 6800POPC   D2A32392   3.584  43.840   8.250
 6800POPC   C3A32393   3.571  43.920   7.950
 6800POPC   C4A32394   3.551  43.870   7.650
 6800POPC   C1B32395   3.752  43.823   8.550
 6800POPC   C2B32396   3.794  43.825   8.250
 6800POPC   C3B32397   3.751  43.806   7.950
 6800POPC   C4B32398   3.824  43.801   7.650
 6801POPC   NC332399   1.214  38.461   9.450
 6801POPC   PO432400   1.260  38.482   9.150
 6801POPC   GL132401   1.222  38.469   8.850
 6801POPC   GL232402   1.085  38.481   8.850
 6801POPC   C1A32403   1.254  38.435   8.550
 6801POPC   D2A32404   1.200  38.481   8.250
 6801POPC   C3A32405   1.225  38.492   7.950
 6801POPC   C4A32406   1.230  38.480   7.650
 6801POPC   C1B32407   0.993  38.423   8.550
 6801POPC   C2B32408   1.012  38.474   8.250
 6801POPC   C3B32409   0.990  38.502   7.950
 6801POPC   C4B32410   0.991  38.404   7.650
 6802POPC   NC332411   1.946  41.513   9.450
 6802POPC   PO432412   1.959  41.560   9.150
 6802POPC   GL132413   1.990  41.593   8.850
 6802POPC   GL232414   2.025  41.706   8.850
 6802POPC   C1A32415   2.024  41.580   8.550
 6802POPC   D2A32416   2.021  41.528   8.250
 6802POPC   C3A32417   1.949  41.566   7.950
 6802POPC   C4A32418   1.973  41.577   7.650
 6802POPC   C1B32419   1.978  41.835   8.550
 6802POPC   C2B32420   1.989  41.844   8.250
 6802POPC   C3B32421   1.968  41.824   7.950
 6802POPC   C4B32422   1.972  41.783   7.650
 6803POPC   NC332423   1.248  23.675   9.450
 6803POPC   PO432424   1.198  23.672   9.150
 6803POPC   GL132425   1.195  23.674   8.850
 6803POPC   GL232426   1.311  23.650   8.850
 6803POPC   C1A32427   1.202  23.741   8.550
 6803POPC   D2A32428   1.226  23.669   8.250
 6803POPC   C3A32429   1.214  23.691   7.950
 6803POPC   C4A32430   1.198  23.707   7.650
 6803POPC   C1B32431   1.399  23.592   8.550
 6803POPC   C2B32432   1.461  23.605   8.250
 6803POPC   C3B32433   1.391  23.602   7.950
 6803POPC   C4B32434   1.395  23.578   7.650
 6804POPC   NC332435   8.152  29.148   9.450
 6804POPC   PO432436   8.241  29.132   9.150
 6804POPC   GL132437   8.215  29.095   8.850
 6804POPC   GL232438   8.324  29.088   8.850
 6804POPC   C1A32439   8.232  29.147   8.550
 6804POPC   D2A32440   8.193  29.175   8.250
 6804POPC   C3A32441   8.151  29.100   7.950
 6804POPC   C4A32442   8.225  29.188   7.650
 6804POPC   C1B32443   8.492  29.123   8.550
 6804POPC   C2B32444   8.432  29.148   8.250
 6804POPC   C3B32445   8.436  29.106   7.950
 6804POPC   C4B32446   8.394  29.128   7.650
 6805POPC   NC332447  42.372  18.260   9.450
 6805POPC   PO432448  42.358  18.307   9.150
 6805POPC   GL132449  42.360  18.260   8.850
 6805POPC   GL232450  42.345  18.411   8.850
 6805POPC   C1A32451  42.378  18.330   8.550
 6805POPC   D2A32452  42.290  18.289   8.250
 6805POPC   C3A32453  42.368  18.268   7.950
 6805POPC   C4A32454  42.316  18.297   7.650
 6805POPC   C1B32455  42.297  18.484   8.550
 6805POPC   C2B32456  42.273  18.488   8.250
 6805POPC   C3B32457  42.291  18.486   7.950
 6805POPC   C4B32458  42.276  18.482   7.650
 6806POPC   NC332459  18.300  19.078   9.450
 6806POPC   PO432460  18.249  19.050   9.150
 6806POPC   GL132461  18.330  19.105   8.850
 6806POPC   GL232462  18.452  19.090   8.850
 6806POPC   C1A32463  18.282  19.094   8.550
 6806POPC   D2A32464  18.289  19.077   8.250
 6806POPC   C3A32465  18.253  19.064   7.950
 6806POPC   C4A32466  18.305  19.051   7.650
 6806POPC   C1B32467  18.477  19.099   8.550
 6806POPC   C2B32468  18.522  19.111   8.250
 6806POPC   C3B32469  18.500  19.117   7.950
 6806POPC   C4B32470  18.486  19.164   7.650
 6807POPC   NC332471  29.907  39.203   9.450
 6807POPC   PO432472  29.922  39.236   9.150
 6807POPC   GL132473  29.892  39.257   8.850
 6807POPC   GL232474  29.897  39.321   8.850
 6807POPC   C1A32475  29.970  39.186   8.550
 6807POPC   D2A32476  29.952  39.199   8.250
 6807POPC   C3A32477  29.957  39.245   7.950
 6807POPC   C4A32478  29.969  39.271   7.650
 6807POPC   C1B32479  29.810  39.484   8.550
 6807POPC   C2B32480  29.897  39.438   8.250
 6807POPC   C3B32481  29.878  39.518   7.950
 6807POPC   C4B32482  29.812  39.465   7.650
 6808POPC   NC332483  43.917  42.322   9.450
 6808POPC   PO432484  43.840  42.317   9.150
 6808POPC   GL132485  43.927  42.310   8.850
 6808POPC   GL232486  43.833  42.500   8.850
 6808POPC   C1A32487  43.862  42.349   8.550
 6808POPC   D2A32488  43.860  42.344   8.250
 6808POPC   C3A32489  43.907  42.287   7.950
 6808POPC   C4A32490  43.861  42.382   7.650
 6808POPC   C1B32491  43.807  42.582   8.550
 6808POPC   C2B32492  43.797  42.605   8.250
 6808POPC   C3B32493  43.858  42.613   7.950
 6808POPC   C4B32494  43.800  42.554   7.650
 6809POPC   NC332495  20.632  29.127   9.450
 6809POPC   PO432496  20.598  29.188   9.150
 6809POPC   GL132497  20.570  29.175   8.850
 6809POPC   GL232498  20.519  29.147   8.850
 6809POPC   C1A32499  20.573  29.115   8.550
 6809POPC   D2A32500  20.610  29.131   8.250
 6809POPC   C3A32501  20.571  29.167   7.950
 6809POPC   C4A32502  20.638  29.156   7.650
 6809POPC   C1B32503  20.316  29.120   8.550
 6809POPC   C2B32504  20.372  29.122   8.250
 6809POPC   C3B32505  20.362  29.177   7.950
 6809POPC   C4B32506  20.321  29.144   7.650
 6810POPC   NC332507  30.694  15.217   9.450
 6810POPC   PO432508  30.686  15.199   9.150
 6810POPC   GL132509  30.726  15.158   8.850
 6810POPC   GL232510  30.580  15.039   8.850
 6810POPC   C1A32511  30.724  15.138   8.550
 6810POPC   D2A32512  30.737  15.221   8.250
 6810POPC   C3A32513  30.719  15.160   7.950
 6810POPC   C4A32514  30.706  15.206   7.650
 6810POPC   C1B32515  30.577  15.018   8.550
 6810POPC   C2B32516  30.502  14.941   8.250
 6810POPC   C3B32517  30.509  14.951   7.950
 6810POPC   C4B32518  30.514  15.020   7.650
 6811POPC   NC332519  39.990   2.801   9.450
 6811POPC   PO432520  40.013   2.801   9.150
 6811POPC   GL132521  39.986   2.789   8.850
 6811POPC   GL232522  39.932   2.745   8.850
 6811POPC   C1A32523  40.039   2.776   8.550
 6811POPC   D2A32524  39.960   2.777   8.250
 6811POPC   C3A32525  40.003   2.752   7.950
 6811POPC   C4A32526  40.008   2.764   7.650
 6811POPC   C1B32527  39.804   2.660   8.550
 6811POPC   C2B32528  39.806   2.680   8.250
 6811POPC   C3B32529  39.745   2.730   7.950
 6811POPC   C4B32530  39.796   2.721   7.650
 6812POPC   NC332531  15.959  35.402   9.450
 6812POPC   PO432532  15.939  35.322   9.150
 6812POPC   GL132533  15.909  35.350   8.850
 6812POPC   GL232534  16.010  35.478   8.850
 6812POPC   C1A32535  15.992  35.360   8.550
 6812POPC   D2A32536  15.934  35.348   8.250
 6812POPC   C3A32537  15.919  35.302   7.950
 6812POPC   C4A32538  15.947  35.332   7.650
 6812POPC   C1B32539  15.984  35.587   8.550
 6812POPC   C2B32540  16.026  35.569   8.250
 6812POPC   C3B32541  16.004  35.573   7.950
 6812POPC   C4B32542  16.030  35.592   7.650
 6813POPC   NC332543   9.757  35.315   9.450
 6813POPC   PO432544   9.703  35.372   9.150
 6813POPC   GL132545   9.718  35.376   8.850
 6813POPC   GL232546   9.855  35.276   8.850
 6813POPC   C1A32547   9.744  35.352   8.550
 6813POPC   D2A32548   9.701  35.335   8.250
 6813POPC   C3A32549   9.774  35.370   7.950
 6813POPC   C4A32550   9.747  35.319   7.650
 6813POPC   C1B32551   9.870  35.175   8.550
 6813POPC   C2B32552   9.864  35.175   8.250
 6813POPC   C3B32553   9.938  35.157   7.950
 6813POPC   C4B32554   9.885  35.112   7.650
 6814POPC   NC332555  43.838  41.558   9.450
 6814POPC   PO432556  43.902  41.596   9.150
 6814POPC   GL132557  43.873  41.529   8.850
 6814POPC   GL232558  43.997  41.575   8.850
 6814POPC   C1A32559  43.878  41.528   8.550
 6814POPC   D2A32560  43.909  41.570   8.250
 6814POPC   C3A32561  43.839  41.570   7.950
 6814POPC   C4A32562  43.909  41.577   7.650
 6814POPC   C1B32563  44.127  41.593   8.550
 6814POPC   C2B32564  44.103  41.588   8.250
 6814POPC   C3B32565  44.091  41.560   7.950
 6814POPC   C4B32566  44.087  41.584   7.650
 6815POPC   NC332567  32.996  38.458   9.450
 6815POPC   PO432568  33.008  38.418   9.150
 6815POPC   GL132569  33.032  38.450   8.850
 6815POPC   GL232570  32.878  38.512   8.850
 6815POPC   C1A32571  32.991  38.505   8.550
 6815POPC   D2A32572  32.976  38.436   8.250
 6815POPC   C3A32573  32.974  38.430   7.950
 6815POPC   C4A32574  33.073  38.468   7.650
 6815POPC   C1B32575  32.783  38.545   8.550
 6815POPC   C2B32576  32.819  38.575   8.250
 6815POPC   C3B32577  32.784  38.546   7.950
 6815POPC   C4B32578  32.829  38.554   7.650
 6816POPC   NC332579   3.561  36.861   9.450
 6816POPC   PO432580   3.525  36.862   9.150
 6816POPC   GL132581   3.565  36.906   8.850
 6816POPC   GL232582   3.372  36.934   8.850
 6816POPC   C1A32583   3.563  36.937   8.550
 6816POPC   D2A32584   3.540  36.930   8.250
 6816POPC   C3A32585   3.502  36.879   7.950
 6816POPC   C4A32586   3.554  36.895   7.650
 6816POPC   C1B32587   3.310  36.896   8.550
 6816POPC   C2B32588   3.279  36.883   8.250
 6816POPC   C3B32589   3.293  36.880   7.950
 6816POPC   C4B32590   3.329  36.914   7.650
 6817POPC   NC332591   7.463   5.061   9.450
 6817POPC   PO432592   7.393   5.096   9.150
 6817POPC   GL132593   7.433   5.132   8.850
 6817POPC   GL232594   7.570   5.175   8.850
 6817POPC   C1A32595   7.436   5.071   8.550
 6817POPC   D2A32596   7.438   5.139   8.250
 6817POPC   C3A32597   7.452   5.048   7.950
 6817POPC   C4A32598   7.372   5.085   7.650
 6817POPC   C1B32599   7.592   5.215   8.550
 6817POPC   C2B32600   7.667   5.200   8.250
 6817POPC   C3B32601   7.608   5.263   7.950
 6817POPC   C4B32602   7.646   5.179   7.650
 6818POPC   NC332603  12.803  11.278   9.450
 6818POPC   PO432604  12.858  11.295   9.150
 6818POPC   GL132605  12.863  11.276   8.850
 6818POPC   GL232606  12.813  11.222   8.850
 6818POPC   C1A32607  12.894  11.295   8.550
 6818POPC   D2A32608  12.827  11.350   8.250
 6818POPC   C3A32609  12.851  11.278   7.950
 6818POPC   C4A32610  12.827  11.283   7.650
 6818POPC   C1B32611  12.802  11.101   8.550
 6818POPC   C2B32612  12.771  11.030   8.250
 6818POPC   C3B32613  12.719  11.029   7.950
 6818POPC   C4B32614  12.796  11.097   7.650
 6819POPC   NC332615   8.205  37.644   9.450
 6819POPC   PO432616   8.153  37.694   9.150
 6819POPC   GL132617   8.242  37.701   8.850
 6819POPC   GL232618   8.359  37.688   8.850
 6819POPC   C1A32619   8.204  37.690   8.550
 6819POPC   D2A32620   8.211  37.707   8.250
 6819POPC   C3A32621   8.171  37.728   7.950
 6819POPC   C4A32622   8.197  37.671   7.650
 6819POPC   C1B32623   8.430  37.619   8.550
 6819POPC   C2B32624   8.468  37.620   8.250
 6819POPC   C3B32625   8.402  37.624   7.950
 6819POPC   C4B32626   8.490  37.606   7.650
 6820POPC   NC332627  28.342  38.483   9.450
 6820POPC   PO432628  28.345  38.457   9.150
 6820POPC   GL132629  28.359  38.441   8.850
 6820POPC   GL232630  28.303  38.582   8.850
 6820POPC   C1A32631  28.359  38.440   8.550
 6820POPC   D2A32632  28.389  38.497   8.250
 6820POPC   C3A32633  28.387  38.444   7.950
 6820POPC   C4A32634  28.364  38.441   7.650
 6820POPC   C1B32635  28.152  38.616   8.550
 6820POPC   C2B32636  28.237  38.590   8.250
 6820POPC   C3B32637  28.241  38.630   7.950
 6820POPC   C4B32638  28.240  38.618   7.650
 6821POPC   NC332639  10.573  16.697   9.450
 6821POPC   PO432640  10.552  16.755   9.150
 6821POPC   GL132641  10.491  16.776   8.850
 6821POPC   GL232642  10.689  16.689   8.850
 6821POPC   C1A32643  10.522  16.688   8.550
 6821POPC   D2A32644  10.537  16.704   8.250
 6821POPC   C3A32645  10.490  16.720   7.950
 6821POPC   C4A32646  10.511  16.757   7.650
 6821POPC   C1B32647  10.788  16.742   8.550
 6821POPC   C2B32648  10.820  16.701   8.250
 6821POPC   C3B32649  10.739  16.716   7.950
 6821POPC   C4B32650  10.729  16.724   7.650
 6822POPC   NC332651   8.180  36.091   9.450
 6822POPC   PO432652   8.184  36.151   9.150
 6822POPC   GL132653   8.159  36.127   8.850
 6822POPC   GL232654   8.136  36.042   8.850
 6822POPC   C1A32655   8.231  36.165   8.550
 6822POPC   D2A32656   8.226  36.127   8.250
 6822POPC   C3A32657   8.149  36.150   7.950
 6822POPC   C4A32658   8.192  36.119   7.650
 6822POPC   C1B32659   8.001  36.013   8.550
 6822POPC   C2B32660   7.991  36.055   8.250
 6822POPC   C3B32661   7.934  36.049   7.950
 6822POPC   C4B32662   7.994  36.006   7.650
 6823POPC   NC332663  37.666  29.899   9.450
 6823POPC   PO432664  37.674  29.956   9.150
 6823POPC   GL132665  37.653  29.881   8.850
 6823POPC   GL232666  37.771  29.890   8.850
 6823POPC   C1A32667  37.648  29.925   8.550
 6823POPC   D2A32668  37.676  29.887   8.250
 6823POPC   C3A32669  37.635  29.957   7.950
 6823POPC   C4A32670  37.635  29.937   7.650
 6823POPC   C1B32671  37.972  29.877   8.550
 6823POPC   C2B32672  37.908  29.909   8.250
 6823POPC   C3B32673  37.879  29.878   7.950
 6823POPC   C4B32674  37.883  29.898   7.650
 6824POPC   NC332675  16.717  32.275   9.450
 6824POPC   PO432676  16.732  32.227   9.150
 6824POPC   GL132677  16.759  32.225   8.850
 6824POPC   GL232678  16.719  32.375   8.850
 6824POPC   C1A32679  16.709  32.294   8.550
 6824POPC   D2A32680  16.767  32.279   8.250
 6824POPC   C3A32681  16.744  32.235   7.950
 6824POPC   C4A32682  16.770  32.261   7.650
 6824POPC   C1B32683  16.627  32.462   8.550
 6824POPC   C2B32684  16.604  32.490   8.250
 6824POPC   C3B32685  16.652  32.453   7.950
 6824POPC   C4B32686  16.673  32.452   7.650
 6825POPC   NC332687  26.087  15.180   9.450
 6825POPC   PO432688  26.056  15.175   9.150
 6825POPC   GL132689  26.004  15.227   8.850
 6825POPC   GL232690  26.189  15.168   8.850
 6825POPC   C1A32691  26.082  15.152   8.550
 6825POPC   D2A32692  26.008  15.137   8.250
 6825POPC   C3A32693  26.088  15.145   7.950
 6825POPC   C4A32694  26.002  15.203   7.650
 6825POPC   C1B32695  26.325  15.106   8.550
 6825POPC   C2B32696  26.327  15.097   8.250
 6825POPC   C3B32697  26.231  15.130   7.950
 6825POPC   C4B32698  26.321  15.139   7.650
 6826POPC   NC332699  15.208  30.661   9.450
 6826POPC   PO432700  15.147  30.707   9.150
 6826POPC   GL132701  15.131  30.697   8.850
 6826POPC   GL232702  15.118  30.763   8.850
 6826POPC   C1A32703  15.171  30.710   8.550
 6826POPC   D2A32704  15.202  30.708   8.250
 6826POPC   C3A32705  15.184  30.737   7.950
 6826POPC   C4A32706  15.169  30.713   7.650
 6826POPC   C1B32707  14.963  30.822   8.550
 6826POPC   C2B32708  14.936  30.811   8.250
 6826POPC   C3B32709  14.923  30.788   7.950
 6826POPC   C4B32710  15.014  30.835   7.650
 6827POPC   NC332711   3.534  20.586   9.450
 6827POPC   PO432712   3.547  20.649   9.150
 6827POPC   GL132713   3.523  20.634   8.850
 6827POPC   GL232714   3.564  20.490   8.850
 6827POPC   C1A32715   3.509  20.565   8.550
 6827POPC   D2A32716   3.558  20.608   8.250
 6827POPC   C3A32717   3.581  20.589   7.950
 6827POPC   C4A32718   3.492  20.585   7.650
 6827POPC   C1B32719   3.575  20.416   8.550
 6827POPC   C2B32720   3.608  20.400   8.250
 6827POPC   C3B32721   3.624  20.357   7.950
 6827POPC   C4B32722   3.595  20.329   7.650
 6828POPC   NC332723   6.632  38.468   9.450
 6828POPC   PO432724   6.664  38.422   9.150
 6828POPC   GL132725   6.647  38.491   8.850
 6828POPC   GL232726   6.557  38.372   8.850
 6828POPC   C1A32727   6.660  38.447   8.550
 6828POPC   D2A32728   6.671  38.480   8.250
 6828POPC   C3A32729   6.631  38.495   7.950
 6828POPC   C4A32730   6.642  38.494   7.650
 6828POPC   C1B32731   6.387  38.382   8.550
 6828POPC   C2B32732   6.364  38.324   8.250
 6828POPC   C3B32733   6.371  38.400   7.950
 6828POPC   C4B32734   6.427  38.412   7.650
 6829POPC   NC332735  13.648  39.967   9.450
 6829POPC   PO432736  13.642  39.999   9.150
 6829POPC   GL132737  13.654  40.026   8.850
 6829POPC   GL232738  13.490  40.057   8.850
 6829POPC   C1A32739  13.656  40.024   8.550
 6829POPC   D2A32740  13.662  39.995   8.250
 6829POPC   C3A32741  13.651  40.005   7.950
 6829POPC   C4A32742  13.609  40.010   7.650
 6829POPC   C1B32743  13.412  40.128   8.550
 6829POPC   C2B32744  13.412  40.126   8.250
 6829POPC   C3B32745  13.382  40.117   7.950
 6829POPC   C4B32746  13.379  40.128   7.650
 6830POPC   NC332747  20.640  19.810   9.450
 6830POPC   PO432748  20.631  19.795   9.150
 6830POPC   GL132749  20.577  19.823   8.850
 6830POPC   GL232750  20.605  19.759   8.850
 6830POPC   C1A32751  20.574  19.879   8.550
 6830POPC   D2A32752  20.597  19.792   8.250
 6830POPC   C3A32753  20.603  19.839   7.950
 6830POPC   C4A32754  20.600  19.878   7.650
 6830POPC   C1B32755  20.532  19.554   8.550
 6830POPC   C2B32756  20.531  19.585   8.250
 6830POPC   C3B32757  20.592  19.624   7.950
 6830POPC   C4B32758  20.609  19.619   7.650
 6831POPC   NC332759  33.822  31.487   9.450
 6831POPC   PO432760  33.818  31.429   9.150
 6831POPC   GL132761  33.832  31.485   8.850
 6831POPC   GL232762  33.967  31.455   8.850
 6831POPC   C1A32763  33.793  31.501   8.550
 6831POPC   D2A32764  33.790  31.447   8.250
 6831POPC   C3A32765  33.797  31.497   7.950
 6831POPC   C4A32766  33.845  31.521   7.650
 6831POPC   C1B32767  34.077  31.478   8.550
 6831POPC   C2B32768  34.019  31.428   8.250
 6831POPC   C3B32769  34.010  31.513   7.950
 6831POPC   C4B32770  34.007  31.459   7.650
 6832POPC   NC332771   5.832   6.664   9.450
 6832POPC   PO432772   5.864   6.688   9.150
 6832POPC   GL132773   5.854   6.641   8.850
 6832POPC   GL232774   5.990   6.530   8.850
 6832POPC   C1A32775   5.915   6.672   8.550
 6832POPC   D2A32776   5.850   6.602   8.250
 6832POPC   C3A32777   5.899   6.666   7.950
 6832POPC   C4A32778   5.880   6.598   7.650
 6832POPC   C1B32779   6.058   6.478   8.550
 6832POPC   C2B32780   6.063   6.498   8.250
 6832POPC   C3B32781   6.027   6.467   7.950
 6832POPC   C4B32782   6.066   6.448   7.650
 6833POPC   NC332783  19.056   5.127   9.450
 6833POPC   PO432784  19.031   5.119   9.150
 6833POPC   GL132785  19.097   5.117   8.850
 6833POPC   GL232786  19.194   5.174   8.850
 6833POPC   C1A32787  19.034   5.067   8.550
 6833POPC   D2A32788  19.010   5.138   8.250
 6833POPC   C3A32789  19.095   5.123   7.950
 6833POPC   C4A32790  19.096   5.143   7.650
 6833POPC   C1B32791  19.223   5.306   8.550
 6833POPC   C2B32792  19.212   5.270   8.250
 6833POPC   C3B32793  19.285   5.292   7.950
 6833POPC   C4B32794  19.235   5.276   7.650
 6834POPC   NC332795   7.451  15.157   9.450
 6834POPC   PO432796   7.401  15.203   9.150
 6834POPC   GL132797   7.463  15.168   8.850
 6834POPC   GL232798   7.483  15.250   8.850
 6834POPC   C1A32799   7.401  15.200   8.550
 6834POPC   D2A32800   7.432  15.210   8.250
 6834POPC   C3A32801   7.458  15.166   7.950
 6834POPC   C4A32802   7.424  15.147   7.650
 6834POPC   C1B32803   7.452  15.452   8.550
 6834POPC   C2B32804   7.464  15.379   8.250
 6834POPC   C3B32805   7.464  15.401   7.950
 6834POPC   C4B32806   7.534  15.389   7.650
 6835POPC   NC332807  36.874  27.614   9.450
 6835POPC   PO432808  36.893  27.567   9.150
 6835POPC   GL132809  36.899  27.550   8.850
 6835POPC   GL232810  36.984  27.566   8.850
 6835POPC   C1A32811  36.932  27.577   8.550
 6835POPC   D2A32812  36.942  27.622   8.250
 6835POPC   C3A32813  36.916  27.547   7.950
 6835POPC   C4A32814  36.940  27.625   7.650
 6835POPC   C1B32815  37.102  27.537   8.550
 6835POPC   C2B32816  37.155  27.519   8.250
 6835POPC   C3B32817  37.167  27.484   7.950
 6835POPC   C4B32818  37.126  27.490   7.650
 6836POPC   NC332819  14.391  44.699   9.450
 6836POPC   PO432820  14.391  44.674   9.150
 6836POPC   GL132821  14.443  44.664   8.850
 6836POPC   GL232822  14.288  44.708   8.850
 6836POPC   C1A32823  14.434  44.632   8.550
 6836POPC   D2A32824  14.415  44.691   8.250
 6836POPC   C3A32825  14.432  44.666   7.950
 6836POPC   C4A32826  14.368  44.686   7.650
 6836POPC   C1B32827  14.236  44.806   8.550
 6836POPC   C2B32828  14.226  44.777   8.250
 6836POPC   C3B32829  14.235  44.795   7.950
 6836POPC   C4B32830  14.234  44.794   7.650
 6837POPC   NC332831  34.573  22.155   9.450
 6837POPC   PO432832  34.584  22.151   9.150
 6837POPC   GL132833  34.535  22.184   8.850
 6837POPC   GL232834  34.600  22.010   8.850
 6837POPC   C1A32835  34.595  22.116   8.550
 6837POPC   D2A32836  34.604  22.169   8.250
 6837POPC   C3A32837  34.548  22.142   7.950
 6837POPC   C4A32838  34.624  22.120   7.650
 6837POPC   C1B32839  34.563  21.885   8.550
 6837POPC   C2B32840  34.560  21.871   8.250
 6837POPC   C3B32841  34.570  21.939   7.950
 6837POPC   C4B32842  34.568  21.872   7.650
 6838POPC   NC332843  32.271  37.651   9.450
 6838POPC   PO432844  32.296  37.660   9.150
 6838POPC   GL132845  32.224  37.696   8.850
 6838POPC   GL232846  32.352  37.711   8.850
 6838POPC   C1A32847  32.249  37.647   8.550
 6838POPC   D2A32848  32.288  37.721   8.250
 6838POPC   C3A32849  32.270  37.637   7.950
 6838POPC   C4A32850  32.204  37.710   7.650
 6838POPC   C1B32851  32.476  37.768   8.550
 6838POPC   C2B32852  32.428  37.844   8.250
 6838POPC   C3B32853  32.496  37.851   7.950
 6838POPC   C4B32854  32.453  37.822   7.650
 6839POPC   NC332855  17.507   3.507   9.450
 6839POPC   PO432856  17.511   3.516   9.150
 6839POPC   GL132857  17.505   3.577   8.850
 6839POPC   GL232858  17.565   3.446   8.850
 6839POPC   C1A32859  17.500   3.501   8.550
 6839POPC   D2A32860  17.480   3.589   8.250
 6839POPC   C3A32861  17.494   3.548   7.950
 6839POPC   C4A32862  17.494   3.565   7.650
 6839POPC   C1B32863  17.626   3.291   8.550
 6839POPC   C2B32864  17.689   3.336   8.250
 6839POPC   C3B32865  17.676   3.372   7.950
 6839POPC   C4B32866  17.653   3.307   7.650
 6840POPC   NC332867   1.213  16.778   9.450
 6840POPC   PO432868   1.187  16.754   9.150
 6840POPC   GL132869   1.240  16.726   8.850
 6840POPC   GL232870   1.200  16.609   8.850
 6840POPC   C1A32871   1.233  16.712   8.550
 6840POPC   D2A32872   1.211  16.723   8.250
 6840POPC   C3A32873   1.200  16.736   7.950
 6840POPC   C4A32874   1.193  16.701   7.650
 6840POPC   C1B32875   1.129  16.485   8.550
 6840POPC   C2B32876   1.075  16.498   8.250
 6840POPC   C3B32877   1.159  16.531   7.950
 6840POPC   C4B32878   1.133  16.502   7.650
 6841POPC   NC332879  39.230  12.086   9.450
 6841POPC   PO432880  39.255  12.050   9.150
 6841POPC   GL132881  39.260  12.118   8.850
 6841POPC   GL232882  39.283  11.906   8.850
 6841POPC   C1A32883  39.266  12.095   8.550
 6841POPC   D2A32884  39.250  12.111   8.250
 6841POPC   C3A32885  39.210  12.095   7.950
 6841POPC   C4A32886  39.239  12.038   7.650
 6841POPC   C1B32887  39.312  11.792   8.550
 6841POPC   C2B32888  39.318  11.787   8.250
 6841POPC   C3B32889  39.268  11.846   7.950
 6841POPC   C4B32890  39.339  11.788   7.650
 6842POPC   NC332891  40.793   4.313   9.450
 6842POPC   PO432892  40.764   4.344   9.150
 6842POPC   GL132893  40.770   4.345   8.850
 6842POPC   GL232894  40.691   4.367   8.850
 6842POPC   C1A32895  40.783   4.315   8.550
 6842POPC   D2A32896  40.830   4.330   8.250
 6842POPC   C3A32897  40.812   4.300   7.950
 6842POPC   C4A32898  40.794   4.269   7.650
 6842POPC   C1B32899  40.575   4.481   8.550
 6842POPC   C2B32900  40.599   4.455   8.250
 6842POPC   C3B32901  40.582   4.496   7.950
 6842POPC   C4B32902  40.601   4.425   7.650
 6843POPC   NC332903   7.431   1.192   9.450
 6843POPC   PO432904   7.444   1.252   9.150
 6843POPC   GL132905   7.371   1.236   8.850
 6843POPC   GL232906   7.363   1.084   8.850
 6843POPC   C1A32907   7.466   1.263   8.550
 6843POPC   D2A32908   7.420   1.168   8.250
 6843POPC   C3A32909   7.460   1.171   7.950
 6843POPC   C4A32910   7.454   1.240   7.650
 6843POPC   C1B32911   7.405   0.950   8.550
 6843POPC   C2B32912   7.350   1.002   8.250
 6843POPC   C3B32913   7.397   0.941   7.950
 6843POPC   C4B32914   7.349   0.976   7.650
 6844POPC   NC332915  27.593  32.281   9.450
 6844POPC   PO432916  27.549  32.283   9.150
 6844POPC   GL132917  27.594  32.264   8.850
 6844POPC   GL232918  27.738  32.246   8.850
 6844POPC   C1A32919  27.559  32.234   8.550
 6844POPC   D2A32920  27.583  32.204   8.250
 6844POPC   C3A32921  27.582  32.286   7.950
 6844POPC   C4A32922  27.569  32.239   7.650
 6844POPC   C1B32923  27.874  32.294   8.550
 6844POPC   C2B32924  27.881  32.241   8.250
 6844POPC   C3B32925  27.806  32.266   7.950
 6844POPC   C4B32926  27.849  32.308   7.650
 6845POPC   NC332927   6.634  26.806   9.450
 6845POPC   PO432928   6.605  26.831   9.150
 6845POPC   GL132929   6.626  26.840   8.850
 6845POPC   GL232930   6.702  26.655   8.850
 6845POPC   C1A32931   6.630  26.836   8.550
 6845POPC   D2A32932   6.659  26.776   8.250
 6845POPC   C3A32933   6.691  26.771   7.950
 6845POPC   C4A32934   6.670  26.855   7.650
 6845POPC   C1B32935   6.688  26.599   8.550
 6845POPC   C2B32936   6.669  26.533   8.250
 6845POPC   C3B32937   6.695  26.563   7.950
 6845POPC   C4B32938   6.747  26.593   7.650
 6846POPC   NC332939  14.363  15.913   9.450
 6846POPC   PO432940  14.441  15.986   9.150
 6846POPC   GL132941  14.385  15.948   8.850
 6846POPC   GL232942  14.431  15.811   8.850
 6846POPC   C1A32943  14.420  15.994   8.550
 6846POPC   D2A32944  14.425  15.942   8.250
 6846POPC   C3A32945  14.451  15.994   7.950
 6846POPC   C4A32946  14.372  15.976   7.650
 6846POPC   C1B32947  14.473  15.723   8.550
 6846POPC   C2B32948  14.556  15.715   8.250
 6846POPC   C3B32949  14.526  15.727   7.950
 6846POPC   C4B32950  14.496  15.775   7.650
 6847POPC   NC332951  43.852  15.137   9.450
 6847POPC   PO432952  43.885  15.138   9.150
 6847POPC   GL132953  43.888  15.204   8.850
 6847POPC   GL232954  43.804  15.131   8.850
 6847POPC   C1A32955  43.871  15.161   8.550
 6847POPC   D2A32956  43.909  15.137   8.250
 6847POPC   C3A32957  43.918  15.177   7.950
 6847POPC   C4A32958  43.926  15.185   7.650
 6847POPC   C1B32959  43.681  15.050   8.550
 6847POPC   C2B32960  43.661  15.069   8.250
 6847POPC   C3B32961  43.626  15.138   7.950
 6847POPC   C4B32962  43.621  15.119   7.650
 6848POPC   NC332963   0.482  26.015   9.450
 6848POPC   PO432964   0.455  26.009   9.150
 6848POPC   GL132965   0.411  26.044   8.850
 6848POPC   GL232966   0.577  26.038   8.850
 6848POPC   C1A32967   0.416  26.077   8.550
 6848POPC   D2A32968   0.409  26.016   8.250
 6848POPC   C3A32969   0.419  26.003   7.950
 6848POPC   C4A32970   0.441  26.036   7.650
 6848POPC   C1B32971   0.703  25.939   8.550
 6848POPC   C2B32972   0.702  25.965   8.250
 6848POPC   C3B32973   0.668  25.968   7.950
 6848POPC   C4B32974   0.652  25.957   7.650
 6849POPC   NC332975  15.952  26.074   9.450
 6849POPC   PO432976  15.932  26.054   9.150
 6849POPC   GL132977  15.982  26.051   8.850
 6849POPC   GL232978  15.852  26.052   8.850
 6849POPC   C1A32979  15.908  26.033   8.550
 6849POPC   D2A32980  15.940  26.053   8.250
 6849POPC   C3A32981  15.955  26.002   7.950
 6849POPC   C4A32982  15.976  26.072   7.650
 6849POPC   C1B32983  15.676  26.065   8.550
 6849POPC   C2B32984  15.732  26.100   8.250
 6849POPC   C3B32985  15.750  26.073   7.950
 6849POPC   C4B32986  15.734  26.035   7.650
 6850POPC   NC332987  42.316  32.237   9.450
 6850POPC   PO432988  42.323  32.265   9.150
 6850POPC   GL132989  42.305  32.286   8.850
 6850POPC   GL232990  42.180  32.154   8.850
 6850POPC   C1A32991  42.384  32.294   8.550
 6850POPC   D2A32992  42.318  32.248   8.250
 6850POPC   C3A32993  42.349  32.271   7.950
 6850POPC   C4A32994  42.335  32.298   7.650
 6850POPC   C1B32995  42.137  32.098   8.550
 6850POPC   C2B32996  42.154  32.149   8.250
 6850POPC   C3B32997  42.137  32.145   7.950
 6850POPC   C4B32998  42.134  32.180   7.650
 6851POPC   NC332999  27.619  15.142   9.450
 6851POPC   PO433000  27.614  15.224   9.150
 6851POPC   GL133001  27.593  15.194   8.850
 6851POPC   GL233002  27.545  15.049   8.850
 6851POPC   C1A33003  27.574  15.173   8.550
 6851POPC   D2A33004  27.561  15.177   8.250
 6851POPC   C3A33005  27.623  15.157   7.950
 6851POPC   C4A33006  27.620  15.196   7.650
 6851POPC   C1B33007  27.394  14.980   8.550
 6851POPC   C2B33008  27.385  14.941   8.250
 6851POPC   C3B33009  27.447  15.020   7.950
 6851POPC   C4B33010  27.439  14.952   7.650
 6852POPC   NC333011  31.513  26.808   9.450
 6852POPC   PO433012  31.431  26.770   9.150
 6852POPC   GL133013  31.486  26.809   8.850
 6852POPC   GL233014  31.550  26.934   8.850
 6852POPC   C1A33015  31.426  26.827   8.550
 6852POPC   D2A33016  31.431  26.793   8.250
 6852POPC   C3A33017  31.443  26.851   7.950
 6852POPC   C4A33018  31.427  26.818   7.650
 6852POPC   C1B33019  31.598  27.047   8.550
 6852POPC   C2B33020  31.577  27.049   8.250
 6852POPC   C3B33021  31.575  27.029   7.950
 6852POPC   C4B33022  31.620  26.999   7.650
 6853POPC   NC333023   6.694  28.413   9.450
 6853POPC   PO433024   6.618  28.370   9.150
 6853POPC   GL133025   6.664  28.388   8.850
 6853POPC   GL233026   6.499  28.271   8.850
 6853POPC   C1A33027   6.608  28.372   8.550
 6853POPC   D2A33028   6.660  28.321   8.250
 6853POPC   C3A33029   6.602  28.397   7.950
 6853POPC   C4A33030   6.682  28.378   7.650
 6853POPC   C1B33031   6.436  28.245   8.550
 6853POPC   C2B33032   6.418  28.166   8.250
 6853POPC   C3B33033   6.451  28.166   7.950
 6853POPC   C4B33034   6.464  28.239   7.650
 6854POPC   NC333035  25.308  36.148   9.450
 6854POPC   PO433036  25.220  36.139   9.150
 6854POPC   GL133037  25.251  36.108   8.850
 6854POPC   GL233038  25.306  35.986   8.850
 6854POPC   C1A33039  25.246  36.103   8.550
 6854POPC   D2A33040  25.233  36.147   8.250
 6854POPC   C3A33041  25.267  36.078   7.950
 6854POPC   C4A33042  25.282  36.165   7.650
 6854POPC   C1B33043  25.278  35.848   8.550
 6854POPC   C2B33044  25.243  35.873   8.250
 6854POPC   C3B33045  25.261  35.918   7.950
 6854POPC   C4B33046  25.240  35.866   7.650
 6855POPC   NC333047  41.571  11.313   9.450
 6855POPC   PO433048  41.587  11.260   9.150
 6855POPC   GL133049  41.528  11.300   8.850
 6855POPC   GL233050  41.490  11.359   8.850
 6855POPC   C1A33051  41.550  11.261   8.550
 6855POPC   D2A33052  41.589  11.302   8.250
 6855POPC   C3A33053  41.552  11.313   7.950
 6855POPC   C4A33054  41.521  11.317   7.650
 6855POPC   C1B33055  41.314  11.428   8.550
 6855POPC   C2B33056  41.345  11.430   8.250
 6855POPC   C3B33057  41.365  11.364   7.950
 6855POPC   C4B33058  41.356  11.446   7.650
 6856POPC   NC333059  15.945  34.532   9.450
 6856POPC   PO433060  15.925  34.596   9.150
 6856POPC   GL133061  15.955  34.603   8.850
 6856POPC   GL233062  16.052  34.687   8.850
 6856POPC   C1A33063  15.992  34.551   8.550
 6856POPC   D2A33064  15.940  34.547   8.250
 6856POPC   C3A33065  15.953  34.527   7.950
 6856POPC   C4A33066  15.982  34.546   7.650
 6856POPC   C1B33067  16.172  34.790   8.550
 6856POPC   C2B33068  16.135  34.798   8.250
 6856POPC   C3B33069  16.147  34.776   7.950
 6856POPC   C4B33070  16.104  34.745   7.650
 6857POPC   NC333071  34.592   3.572   9.450
 6857POPC   PO433072  34.620   3.590   9.150
 6857POPC   GL133073  34.623   3.569   8.850
 6857POPC   GL233074  34.507   3.458   8.850
 6857POPC   C1A33075  34.624   3.512   8.550
 6857POPC   D2A33076  34.573   3.508   8.250
 6857POPC   C3A33077  34.561   3.542   7.950
 6857POPC   C4A33078  34.594   3.504   7.650
 6857POPC   C1B33079  34.392   3.390   8.550
 6857POPC   C2B33080  34.380   3.330   8.250
 6857POPC   C3B33081  34.438   3.322   7.950
 6857POPC   C4B33082  34.406   3.375   7.650
 6858POPC   NC333083  11.340  16.688   9.450
 6858POPC   PO433084  11.303  16.742   9.150
 6858POPC   GL133085  11.323  16.706   8.850
 6858POPC   GL233086  11.254  16.848   8.850
 6858POPC   C1A33087  11.296  16.748   8.550
 6858POPC   D2A33088  11.310  16.726   8.250
 6858POPC   C3A33089  11.297  16.747   7.950
 6858POPC   C4A33090  11.291  16.781   7.650
 6858POPC   C1B33091  11.248  17.007   8.550
 6858POPC   C2B33092  11.292  16.932   8.250
 6858POPC   C3B33093  11.305  16.948   7.950
 6858POPC   C4B33094  11.253  16.964   7.650
 6859POPC   NC333095  29.129  33.004   9.450
 6859POPC   PO433096  29.178  32.988   9.150
 6859POPC   GL133097  29.176  33.066   8.850
 6859POPC   GL233098  29.082  32.891   8.850
 6859POPC   C1A33099  29.178  32.999   8.550
 6859POPC   D2A33100  29.104  32.985   8.250
 6859POPC   C3A33101  29.190  33.061   7.950
 6859POPC   C4A33102  29.130  33.046   7.650
 6859POPC   C1B33103  29.094  32.731   8.550
 6859POPC   C2B33104  29.117  32.750   8.250
 6859POPC   C3B33105  29.111  32.808   7.950
 6859POPC   C4B33106  29.146  32.821   7.650
 6860POPC   NC333107   0.474  22.899   9.450
 6860POPC   PO433108   0.447  22.906   9.150
 6860POPC   GL133109   0.449  22.954   8.850
 6860POPC   GL233110   0.571  22.825   8.850
 6860POPC   C1A33111   0.433  22.907   8.550
 6860POPC   D2A33112   0.389  22.936   8.250
 6860POPC   C3A33113   0.433  22.891   7.950
 6860POPC   C4A33114   0.423  22.902   7.650
 6860POPC   C1B33115   0.625  22.777   8.550
 6860POPC   C2B33116   0.649  22.788   8.250
 6860POPC   C3B33117   0.580  22.789   7.950
 6860POPC   C4B33118   0.630  22.795   7.650
 6861POPC   NC333119  12.846  12.123   9.450
 6861POPC   PO433120  12.847  12.046   9.150
 6861POPC   GL133121  12.804  12.035   8.850
 6861POPC   GL233122  12.796  11.973   8.850
 6861POPC   C1A33123  12.860  12.115   8.550
 6861POPC   D2A33124  12.815  12.117   8.250
 6861POPC   C3A33125  12.805  12.037   7.950
 6861POPC   C4A33126  12.815  12.073   7.650
 6861POPC   C1B33127  12.821  11.796   8.550
 6861POPC   C2B33128  12.781  11.858   8.250
 6861POPC   C3B33129  12.755  11.856   7.950
 6861POPC   C4B33130  12.824  11.833   7.650
 6862POPC   NC333131  19.074  27.567   9.450
 6862POPC   PO433132  19.028  27.546   9.150
 6862POPC   GL133133  19.030  27.616   8.850
 6862POPC   GL233134  18.960  27.557   8.850
 6862POPC   C1A33135  19.059  27.570   8.550
 6862POPC   D2A33136  19.037  27.604   8.250
 6862POPC   C3A33137  19.067  27.636   7.950
 6862POPC   C4A33138  19.085  27.582   7.650
 6862POPC   C1B33139  18.798  27.504   8.550
 6862POPC   C2B33140  18.794  27.519   8.250
 6862POPC   C3B33141  18.816  27.489   7.950
 6862POPC   C4B33142  18.773  27.542   7.650
 6863POPC   NC333143  16.701  38.412   9.450
 6863POPC   PO433144  16.718  38.422   9.150
 6863POPC   GL133145  16.780  38.483   8.850
 6863POPC   GL233146  16.791  38.510   8.850
 6863POPC   C1A33147  16.743  38.501   8.550
 6863POPC   D2A33148  16.716  38.410   8.250
 6863POPC   C3A33149  16.776  38.503   7.950
 6863POPC   C4A33150  16.748  38.424   7.650
 6863POPC   C1B33151  16.944  38.589   8.550
 6863POPC   C2B33152  16.913  38.683   8.250
 6863POPC   C3B33153  16.914  38.667   7.950
 6863POPC   C4B33154  16.875  38.649   7.650
 6864POPC   NC333155  24.494  15.158   9.450
 6864POPC   PO433156  24.486  15.143   9.150
 6864POPC   GL133157  24.479  15.210   8.850
 6864POPC   GL233158  24.560  15.096   8.850
 6864POPC   C1A33159  24.499  15.201   8.550
 6864POPC   D2A33160  24.488  15.154   8.250
 6864POPC   C3A33161  24.459  15.166   7.950
 6864POPC   C4A33162  24.488  15.186   7.650
 6864POPC   C1B33163  24.700  15.111   8.550
 6864POPC   C2B33164  24.715  15.134   8.250
 6864POPC   C3B33165  24.676  15.103   7.950
 6864POPC   C4B33166  24.692  15.109   7.650
 6865POPC   NC333167   1.994  39.969   9.450
 6865POPC   PO433168   2.029  40.027   9.150
 6865POPC   GL133169   1.993  40.003   8.850
 6865POPC   GL233170   2.063  40.121   8.850
 6865POPC   C1A33171   1.941  39.974   8.550
 6865POPC   D2A33172   2.027  40.005   8.250
 6865POPC   C3A33173   1.964  40.053   7.950
 6865POPC   C4A33174   1.953  39.963   7.650
 6865POPC   C1B33175   2.100  40.220   8.550
 6865POPC   C2B33176   2.065  40.191   8.250
 6865POPC   C3B33177   2.098  40.255   7.950
 6865POPC   C4B33178   2.138  40.212   7.650
 6866POPC   NC333179  32.991  17.496   9.450
 6866POPC   PO433180  33.039  17.537   9.150
 6866POPC   GL133181  33.064  17.484   8.850
 6866POPC   GL233182  32.860  17.541   8.850
 6866POPC   C1A33183  33.066  17.503   8.550
 6866POPC   D2A33184  33.062  17.490   8.250
 6866POPC   C3A33185  33.037  17.489   7.950
 6866POPC   C4A33186  33.014  17.484   7.650
 6866POPC   C1B33187  32.824  17.530   8.550
 6866POPC   C2B33188  32.766  17.589   8.250
 6866POPC   C3B33189  32.791  17.601   7.950
 6866POPC   C4B33190  32.794  17.552   7.650
 6867POPC   NC333191  36.854  26.037   9.450
 6867POPC   PO433192  36.877  26.084   9.150
 6867POPC   GL133193  36.946  25.998   8.850
 6867POPC   GL233194  37.030  26.134   8.850
 6867POPC   C1A33195  36.869  26.038   8.550
 6867POPC   D2A33196  36.878  26.081   8.250
 6867POPC   C3A33197  36.888  26.008   7.950
 6867POPC   C4A33198  36.927  26.045   7.650
 6867POPC   C1B33199  37.106  26.201   8.550
 6867POPC   C2B33200  37.099  26.197   8.250
 6867POPC   C3B33201  37.134  26.206   7.950
 6867POPC   C4B33202  37.088  26.167   7.650
 6868POPC   NC333203  32.239  43.921   9.450
 6868POPC   PO433204  32.292  43.873   9.150
 6868POPC   GL133205  32.222  43.847   8.850
 6868POPC   GL233206  32.174  43.819   8.850
 6868POPC   C1A33207  32.257  43.889   8.550
 6868POPC   D2A33208  32.235  43.929   8.250
 6868POPC   C3A33209  32.240  43.925   7.950
 6868POPC   C4A33210  32.232  43.843   7.650
 6868POPC   C1B33211  32.015  43.826   8.550
 6868POPC   C2B33212  32.046  43.791   8.250
 6868POPC   C3B33213  31.982  43.818   7.950
 6868POPC   C4B33214  32.047  43.759   7.650
 6869POPC   NC333215  10.513   8.246   9.450
 6869POPC   PO433216  10.517   8.154   9.150
 6869POPC   GL133217  10.493   8.211   8.850
 6869POPC   GL233218  10.471   8.130   8.850
 6869POPC   C1A33219  10.520   8.148   8.550
 6869POPC   D2A33220  10.521   8.224   8.250
 6869POPC   C3A33221  10.513   8.234   7.950
 6869POPC   C4A33222  10.511   8.219   7.650
 6869POPC   C1B33223  10.423   7.950   8.550
 6869POPC   C2B33224  10.377   8.004   8.250
 6869POPC   C3B33225  10.460   8.003   7.950
 6869POPC   C4B33226  10.464   8.011   7.650
 6870POPC   NC333227   6.632  27.603   9.450
 6870POPC   PO433228   6.596  27.627   9.150
 6870POPC   GL133229   6.641  27.640   8.850
 6870POPC   GL233230   6.579  27.670   8.850
 6870POPC   C1A33231   6.643  27.631   8.550
 6870POPC   D2A33232   6.627  27.588   8.250
 6870POPC   C3A33233   6.626  27.589   7.950
 6870POPC   C4A33234   6.617  27.568   7.650
 6870POPC   C1B33235   6.567  27.865   8.550
 6870POPC   C2B33236   6.538  27.795   8.250
 6870POPC   C3B33237   6.553  27.837   7.950
 6870POPC   C4B33238   6.538  27.840   7.650
 6871POPC   NC333239  13.614  29.190   9.450
 6871POPC   PO433240  13.656  29.126   9.150
 6871POPC   GL133241  13.611  29.180   8.850
 6871POPC   GL233242  13.579  29.045   8.850
 6871POPC   C1A33243  13.600  29.099   8.550
 6871POPC   D2A33244  13.648  29.187   8.250
 6871POPC   C3A33245  13.651  29.165   7.950
 6871POPC   C4A33246  13.632  29.183   7.650
 6871POPC   C1B33247  13.509  28.948   8.550
 6871POPC   C2B33248  13.593  28.929   8.250
 6871POPC   C3B33249  13.562  28.916   7.950
 6871POPC   C4B33250  13.556  28.952   7.650
 6872POPC   NC333251   2.033  11.342   9.450
 6872POPC   PO433252   2.003  11.310   9.150
 6872POPC   GL133253   2.036  11.259   8.850
 6872POPC   GL233254   2.090  11.422   8.850
 6872POPC   C1A33255   1.976  11.319   8.550
 6872POPC   D2A33256   1.958  11.293   8.250
 6872POPC   C3A33257   2.009  11.272   7.950
 6872POPC   C4A33258   1.976  11.329   7.650
 6872POPC   C1B33259   2.199  11.474   8.550
 6872POPC   C2B33260   2.161  11.433   8.250
 6872POPC   C3B33261   2.174  11.448   7.950
 6872POPC   C4B33262   2.183  11.422   7.650
 6873POPC   NC333263  36.880   5.076   9.450
 6873POPC   PO433264  36.869   5.084   9.150
 6873POPC   GL133265  36.891   5.112   8.850
 6873POPC   GL233266  37.032   4.988   8.850
 6873POPC   C1A33267  36.876   5.094   8.550
 6873POPC   D2A33268  36.855   5.044   8.250
 6873POPC   C3A33269  36.925   5.089   7.950
 6873POPC   C4A33270  36.854   5.055   7.650
 6873POPC   C1B33271  37.140   4.908   8.550
 6873POPC   C2B33272  37.079   4.928   8.250
 6873POPC   C3B33273  37.126   4.960   7.950
 6873POPC   C4B33274  37.046   4.913   7.650
 6874POPC   NC333275  29.095  42.370   9.450
 6874POPC   PO433276  29.123  42.326   9.150
 6874POPC   GL133277  29.174  42.286   8.850
 6874POPC   GL233278  29.083  42.492   8.850
 6874POPC   C1A33279  29.104  42.315   8.550
 6874POPC   D2A33280  29.126  42.314   8.250
 6874POPC   C3A33281  29.188  42.384   7.950
 6874POPC   C4A33282  29.117  42.324   7.650
 6874POPC   C1B33283  29.068  42.579   8.550
 6874POPC   C2B33284  29.002  42.538   8.250
 6874POPC   C3B33285  29.039  42.589   7.950
 6874POPC   C4B33286  29.077  42.555   7.650
 6875POPC   NC333287  14.453  40.001   9.450
 6875POPC   PO433288  14.433  39.981   9.150
 6875POPC   GL133289  14.435  40.055   8.850
 6875POPC   GL233290  14.362  40.075   8.850
 6875POPC   C1A33291  14.442  40.001   8.550
 6875POPC   D2A33292  14.445  39.977   8.250
 6875POPC   C3A33293  14.424  40.035   7.950
 6875POPC   C4A33294  14.445  40.021   7.650
 6875POPC   C1B33295  14.257  40.152   8.550
 6875POPC   C2B33296  14.204  40.210   8.250
 6875POPC   C3B33297  14.219  40.134   7.950
 6875POPC   C4B33298  14.202  40.213   7.650
 6876POPC   NC333299   6.676   8.231   9.450
 6876POPC   PO433300   6.670   8.182   9.150
 6876POPC   GL133301   6.691   8.196   8.850
 6876POPC   GL233302   6.711   8.293   8.850
 6876POPC   C1A33303   6.604   8.240   8.550
 6876POPC   D2A33304   6.601   8.203   8.250
 6876POPC   C3A33305   6.666   8.190   7.950
 6876POPC   C4A33306   6.658   8.206   7.650
 6876POPC   C1B33307   6.728   8.463   8.550
 6876POPC   C2B33308   6.775   8.428   8.250
 6876POPC   C3B33309   6.712   8.480   7.950
 6876POPC   C4B33310   6.684   8.402   7.650
 6877POPC   NC333311  40.770   8.239   9.450
 6877POPC   PO433312  40.812   8.192   9.150
 6877POPC   GL133313  40.771   8.214   8.850
 6877POPC   GL233314  40.615   8.252   8.850
 6877POPC   C1A33315  40.750   8.244   8.550
 6877POPC   D2A33316  40.806   8.154   8.250
 6877POPC   C3A33317  40.743   8.152   7.950
 6877POPC   C4A33318  40.739   8.211   7.650
 6877POPC   C1B33319  40.570   8.248   8.550
 6877POPC   C2B33320  40.533   8.238   8.250
 6877POPC   C3B33321  40.524   8.228   7.950
 6877POPC   C4B33322  40.570   8.237   7.650
 6878POPC   NC333323   1.980  18.251   9.450
 6878POPC   PO433324   1.968  18.255   9.150
 6878POPC   GL133325   2.019  18.270   8.850
 6878POPC   GL233326   1.894  18.335   8.850
 6878POPC   C1A33327   1.944  18.284   8.550
 6878POPC   D2A33328   1.960  18.310   8.250
 6878POPC   C3A33329   2.032  18.240   7.950
 6878POPC   C4A33330   1.951  18.251   7.650
 6878POPC   C1B33331   1.725  18.437   8.550
 6878POPC   C2B33332   1.798  18.414   8.250
 6878POPC   C3B33333   1.801  18.379   7.950
 6878POPC   C4B33334   1.775  18.401   7.650
 6879POPC   NC333335  32.987  43.073   9.450
 6879POPC   PO433336  33.039  43.083   9.150
 6879POPC   GL133337  33.009  43.081   8.850
 6879POPC   GL233338  32.941  42.957   8.850
 6879POPC   C1A33339  33.039  43.075   8.550
 6879POPC   D2A33340  33.071  43.069   8.250
 6879POPC   C3A33341  33.059  43.105   7.950
 6879POPC   C4A33342  33.018  43.068   7.650
 6879POPC   C1B33343  32.900  42.829   8.550
 6879POPC   C2B33344  32.971  42.837   8.250
 6879POPC   C3B33345  32.923  42.918   7.950
 6879POPC   C4B33346  32.931  42.827   7.650
 6880POPC   NC333347  21.341  35.371   9.450
 6880POPC   PO433348  21.400  35.333   9.150
 6880POPC   GL133349  21.414  35.386   8.850
 6880POPC   GL233350  21.278  35.415   8.850
 6880POPC   C1A33351  21.365  35.381   8.550
 6880POPC   D2A33352  21.348  35.374   8.250
 6880POPC   C3A33353  21.395  35.365   7.950
 6880POPC   C4A33354  21.397  35.347   7.650
 6880POPC   C1B33355  21.196  35.487   8.550
 6880POPC   C2B33356  21.142  35.494   8.250
 6880POPC   C3B33357  21.180  35.481   7.950
 6880POPC   C4B33358  21.152  35.543   7.650
 6881POPC   NC333359  23.754   3.507   9.450
 6881POPC   PO433360  23.698   3.591   9.150
 6881POPC   GL133361  23.671   3.504   8.850
 6881POPC   GL233362  23.803   3.578   8.850
 6881POPC   C1A33363  23.734   3.549   8.550
 6881POPC   D2A33364  23.699   3.528   8.250
 6881POPC   C3A33365  23.710   3.566   7.950
 6881POPC   C4A33366  23.693   3.538   7.650
 6881POPC   C1B33367  23.915   3.711   8.550
 6881POPC   C2B33368  23.916   3.691   8.250
 6881POPC   C3B33369  23.980   3.672   7.950
 6881POPC   C4B33370  23.906   3.651   7.650
 6882POPC   NC333371  15.937  24.456   9.450
 6882POPC   PO433372  15.912  24.533   9.150
 6882POPC   GL133373  15.909  24.498   8.850
 6882POPC   GL233374  15.930  24.370   8.850
 6882POPC   C1A33375  15.972  24.443   8.550
 6882POPC   D2A33376  15.969  24.506   8.250
 6882POPC   C3A33377  15.955  24.478   7.950
 6882POPC   C4A33378  15.975  24.443   7.650
 6882POPC   C1B33379  15.947  24.283   8.550
 6882POPC   C2B33380  15.878  24.196   8.250
 6882POPC   C3B33381  15.945  24.244   7.950
 6882POPC   C4B33382  15.875  24.277   7.650
 6883POPC   NC333383  33.016  23.681   9.450
 6883POPC   PO433384  33.006  23.742   9.150
 6883POPC   GL133385  33.004  23.714   8.850
 6883POPC   GL233386  32.919  23.649   8.850
 6883POPC   C1A33387  33.055  23.694   8.550
 6883POPC   D2A33388  32.992  23.753   8.250
 6883POPC   C3A33389  33.027  23.696   7.950
 6883POPC   C4A33390  33.055  23.667   7.650
 6883POPC   C1B33391  32.777  23.588   8.550
 6883POPC   C2B33392  32.823  23.559   8.250
 6883POPC   C3B33393  32.783  23.623   7.950
 6883POPC   C4B33394  32.814  23.644   7.650
 6884POPC   NC333395  43.065   5.839   9.450
 6884POPC   PO433396  43.147   5.861   9.150
 6884POPC   GL133397  43.066   5.908   8.850
 6884POPC   GL233398  43.218   5.861   8.850
 6884POPC   C1A33399  43.159   5.891   8.550
 6884POPC   D2A33400  43.067   5.822   8.250
 6884POPC   C3A33401  43.129   5.885   7.950
 6884POPC   C4A33402  43.083   5.862   7.650
 6884POPC   C1B33403  43.312   5.797   8.550
 6884POPC   C2B33404  43.377   5.842   8.250
 6884POPC   C3B33405  43.369   5.876   7.950
 6884POPC   C4B33406  43.376   5.798   7.650
 6885POPC   NC333407   1.948  10.491   9.450
 6885POPC   PO433408   1.961  10.504   9.150
 6885POPC   GL133409   1.964  10.566   8.850
 6885POPC   GL233410   2.076  10.393   8.850
 6885POPC   C1A33411   1.975  10.563   8.550
 6885POPC   D2A33412   1.941  10.552   8.250
 6885POPC   C3A33413   1.980  10.562   7.950
 6885POPC   C4A33414   2.035  10.509   7.650
 6885POPC   C1B33415   2.187  10.289   8.550
 6885POPC   C2B33416   2.198  10.283   8.250
 6885POPC   C3B33417   2.172  10.343   7.950
 6885POPC   C4B33418   2.137  10.375   7.650
 6886POPC   NC333419  38.406  35.385   9.450
 6886POPC   PO433420  38.497  35.393   9.150
 6886POPC   GL133421  38.496  35.343   8.850
 6886POPC   GL233422  38.518  35.250   8.850
 6886POPC   C1A33423  38.486  35.322   8.550
 6886POPC   D2A33424  38.469  35.358   8.250
 6886POPC   C3A33425  38.478  35.332   7.950
 6886POPC   C4A33426  38.463  35.354   7.650
 6886POPC   C1B33427  38.605  35.171   8.550
 6886POPC   C2B33428  38.571  35.116   8.250
 6886POPC   C3B33429  38.644  35.197   7.950
 6886POPC   C4B33430  38.645  35.141   7.650
 6887POPC   NC333431  21.392  20.584   9.450
 6887POPC   PO433432  21.419  20.627   9.150
 6887POPC   GL133433  21.429  20.626   8.850
 6887POPC   GL233434  21.372  20.530   8.850
 6887POPC   C1A33435  21.434  20.657   8.550
 6887POPC   D2A33436  21.365  20.616   8.250
 6887POPC   C3A33437  21.384  20.624   7.950
 6887POPC   C4A33438  21.391  20.597   7.650
 6887POPC   C1B33439  21.279  20.358   8.550
 6887POPC   C2B33440  21.226  20.410   8.250
 6887POPC   C3B33441  21.282  20.423   7.950
 6887POPC   C4B33442  21.279  20.341   7.650
 6888POPC   NC333443  36.904  24.517   9.450
 6888POPC   PO433444  36.900  24.530   9.150
 6888POPC   GL133445  36.932  24.521   8.850
 6888POPC   GL233446  36.899  24.643   8.850
 6888POPC   C1A33447  36.870  24.457   8.550
 6888POPC   D2A33448  36.948  24.471   8.250
 6888POPC   C3A33449  36.926  24.469   7.950
 6888POPC   C4A33450  36.903  24.515   7.650
 6888POPC   C1B33451  37.005  24.688   8.550
 6888POPC   C2B33452  36.960  24.738   8.250
 6888POPC   C3B33453  36.943  24.728   7.950
 6888POPC   C4B33454  36.931  24.746   7.650
 6889POPC   NC333455  30.695   2.784   9.450
 6889POPC   PO433456  30.665   2.753   9.150
 6889POPC   GL133457  30.649   2.797   8.850
 6889POPC   GL233458  30.637   2.856   8.850
 6889POPC   C1A33459  30.658   2.760   8.550
 6889POPC   D2A33460  30.687   2.775   8.250
 6889POPC   C3A33461  30.651   2.740   7.950
 6889POPC   C4A33462  30.674   2.743   7.650
 6889POPC   C1B33463  30.633   2.966   8.550
 6889POPC   C2B33464  30.660   2.966   8.250
 6889POPC   C3B33465  30.602   2.995   7.950
 6889POPC   C4B33466  30.672   3.050   7.650
 6890POPC   NC333467   8.971   5.081   9.450
 6890POPC   PO433468   8.927   5.080   9.150
 6890POPC   GL133469   8.932   5.077   8.850
 6890POPC   GL233470   9.092   5.086   8.850
 6890POPC   C1A33471   8.947   5.095   8.550
 6890POPC   D2A33472   8.983   5.083   8.250
 6890POPC   C3A33473   9.022   5.118   7.950
 6890POPC   C4A33474   8.979   5.135   7.650
 6890POPC   C1B33475   9.162   5.017   8.550
 6890POPC   C2B33476   9.213   4.984   8.250
 6890POPC   C3B33477   9.178   5.024   7.950
 6890POPC   C4B33478   9.176   4.949   7.650
 6891POPC   NC333479   6.678  36.084   9.450
 6891POPC   PO433480   6.646  36.151   9.150
 6891POPC   GL133481   6.612  36.159   8.850
 6891POPC   GL233482   6.673  36.275   8.850
 6891POPC   C1A33483   6.678  36.123   8.550
 6891POPC   D2A33484   6.690  36.130   8.250
 6891POPC   C3A33485   6.669  36.091   7.950
 6891POPC   C4A33486   6.665  36.091   7.650
 6891POPC   C1B33487   6.681  36.400   8.550
 6891POPC   C2B33488   6.730  36.383   8.250
 6891POPC   C3B33489   6.700  36.384   7.950
 6891POPC   C4B33490   6.638  36.376   7.650
 6892POPC   NC333491   8.214   7.460   9.450
 6892POPC   PO433492   8.152   7.469   9.150
 6892POPC   GL133493   8.229   7.437   8.850
 6892POPC   GL233494   8.065   7.412   8.850
 6892POPC   C1A33495   8.173   7.375   8.550
 6892POPC   D2A33496   8.222   7.420   8.250
 6892POPC   C3A33497   8.209   7.380   7.950
 6892POPC   C4A33498   8.181   7.455   7.650
 6892POPC   C1B33499   7.983   7.418   8.550
 6892POPC   C2B33500   7.929   7.413   8.250
 6892POPC   C3B33501   7.965   7.479   7.950
 6892POPC   C4B33502   7.978   7.460   7.650
 6893POPC   NC333503  38.503  19.091   9.450
 6893POPC   PO433504  38.450  19.047   9.150
 6893POPC   GL133505  38.449  19.066   8.850
 6893POPC   GL233506  38.611  19.070   8.850
 6893POPC   C1A33507  38.486  19.052   8.550
 6893POPC   D2A33508  38.471  19.042   8.250
 6893POPC   C3A33509  38.444  19.053   7.950
 6893POPC   C4A33510  38.418  19.014   7.650
 6893POPC   C1B33511  38.658  19.028   8.550
 6893POPC   C2B33512  38.665  19.104   8.250
 6893POPC   C3B33513  38.724  19.084   7.950
 6893POPC   C4B33514  38.690  19.089   7.650
 6894POPC   NC333515   2.787  18.281   9.450
 6894POPC   PO433516   2.796  18.295   9.150
 6894POPC   GL133517   2.755  18.321   8.850
 6894POPC   GL233518   2.646  18.347   8.850
 6894POPC   C1A33519   2.794  18.327   8.550
 6894POPC   D2A33520   2.759  18.293   8.250
 6894POPC   C3A33521   2.773  18.244   7.950
 6894POPC   C4A33522   2.731  18.313   7.650
 6894POPC   C1B33523   2.558  18.358   8.550
 6894POPC   C2B33524   2.523  18.398   8.250
 6894POPC   C3B33525   2.533  18.365   7.950
 6894POPC   C4B33526   2.487  18.367   7.650
 6895POPC   NC333527  23.733  23.682   9.450
 6895POPC   PO433528  23.677  23.707   9.150
 6895POPC   GL133529  23.682  23.681   8.850
 6895POPC   GL233530  23.670  23.764   8.850
 6895POPC   C1A33531  23.729  23.689   8.550
 6895POPC   D2A33532  23.722  23.762   8.250
 6895POPC   C3A33533  23.669  23.694   7.950
 6895POPC   C4A33534  23.718  23.746   7.650
 6895POPC   C1B33535  23.502  23.900   8.550
 6895POPC   C2B33536  23.553  23.858   8.250
 6895POPC   C3B33537  23.510  23.910   7.950
 6895POPC   C4B33538  23.547  23.920   7.650
 6896POPC   NC333539   8.237  33.786   9.450
 6896POPC   PO433540   8.159  33.799   9.150
 6896POPC   GL133541   8.202  33.790   8.850
 6896POPC   GL233542   8.150  33.941   8.850
 6896POPC   C1A33543   8.153  33.782   8.550
 6896POPC   D2A33544   8.214  33.776   8.250
 6896POPC   C3A33545   8.192  33.841   7.950
 6896POPC   C4A33546   8.163  33.826   7.650
 6896POPC   C1B33547   8.233  34.095   8.550
 6896POPC   C2B33548   8.177  34.018   8.250
 6896POPC   C3B33549   8.204  34.012   7.950
 6896POPC   C4B33550   8.215  34.058   7.650
 6897POPC   NC333551  28.412  37.639   9.450
 6897POPC   PO433552  28.379  37.681   9.150
 6897POPC   GL133553  28.326  37.696   8.850
 6897POPC   GL233554  28.277  37.542   8.850
 6897POPC   C1A33555  28.412  37.705   8.550
 6897POPC   D2A33556  28.377  37.696   8.250
 6897POPC   C3A33557  28.405  37.724   7.950
 6897POPC   C4A33558  28.336  37.665   7.650
 6897POPC   C1B33559  28.218  37.427   8.550
 6897POPC   C2B33560  28.259  37.443   8.250
 6897POPC   C3B33561  28.207  37.478   7.950
 6897POPC   C4B33562  28.185  37.455   7.650
 6898POPC   NC333563   7.457  17.509   9.450
 6898POPC   PO433564   7.470  17.556   9.150
 6898POPC   GL133565   7.380  17.532   8.850
 6898POPC   GL233566   7.418  17.647   8.850
 6898POPC   C1A33567   7.443  17.546   8.550
 6898POPC   D2A33568   7.387  17.472   8.250
 6898POPC   C3A33569   7.381  17.493   7.950
 6898POPC   C4A33570   7.415  17.462   7.650
 6898POPC   C1B33571   7.478  17.729   8.550
 6898POPC   C2B33572   7.407  17.709   8.250
 6898POPC   C3B33573   7.438  17.776   7.950
 6898POPC   C4B33574   7.406  17.778   7.650
 6899POPC   NC333575  37.666   5.864   9.450
 6899POPC   PO433576  37.672   5.874   9.150
 6899POPC   GL133577  37.664   5.820   8.850
 6899POPC   GL233578  37.769   5.769   8.850
 6899POPC   C1A33579  37.723   5.875   8.550
 6899POPC   D2A33580  37.722   5.864   8.250
 6899POPC   C3A33581  37.712   5.872   7.950
 6899POPC   C4A33582  37.661   5.873   7.650
 6899POPC   C1B33583  37.790   5.664   8.550
 6899POPC   C2B33584  37.856   5.661   8.250
 6899POPC   C3B33585  37.801   5.659   7.950
 6899POPC   C4B33586  37.840   5.706   7.650
 6900POPC   NC333587  39.244  30.682   9.450
 6900POPC   PO433588  39.200  30.698   9.150
 6900POPC   GL133589  39.230  30.726   8.850
 6900POPC   GL233590  39.240  30.871   8.850
 6900POPC   C1A33591  39.247  30.743   8.550
 6900POPC   D2A33592  39.208  30.674   8.250
 6900POPC   C3A33593  39.182  30.707   7.950
 6900POPC   C4A33594  39.238  30.661   7.650
 6900POPC   C1B33595  39.174  30.898   8.550
 6900POPC   C2B33596  39.209  30.964   8.250
 6900POPC   C3B33597  39.240  30.981   7.950
 6900POPC   C4B33598  39.252  30.921   7.650
 6901POPC   NC333599   4.281  12.840   9.450
 6901POPC   PO433600   4.337  12.878   9.150
 6901POPC   GL133601   4.300  12.883   8.850
 6901POPC   GL233602   4.415  12.847   8.850
 6901POPC   C1A33603   4.331  12.805   8.550
 6901POPC   D2A33604   4.349  12.834   8.250
 6901POPC   C3A33605   4.272  12.804   7.950
 6901POPC   C4A33606   4.300  12.841   7.650
 6901POPC   C1B33607   4.520  12.852   8.550
 6901POPC   C2B33608   4.534  12.868   8.250
 6901POPC   C3B33609   4.535  12.832   7.950
 6901POPC   C4B33610   4.552  12.848   7.650
 6902POPC   NC333611  12.040  19.065   9.450
 6902POPC   PO433612  12.108  19.023   9.150
 6902POPC   GL133613  12.075  19.082   8.850
 6902POPC   GL233614  12.127  19.187   8.850
 6902POPC   C1A33615  12.051  19.101   8.550
 6902POPC   D2A33616  12.092  19.019   8.250
 6902POPC   C3A33617  12.057  19.049   7.950
 6902POPC   C4A33618  12.030  19.108   7.650
 6902POPC   C1B33619  12.192  19.318   8.550
 6902POPC   C2B33620  12.160  19.261   8.250
 6902POPC   C3B33621  12.150  19.281   7.950
 6902POPC   C4B33622  12.155  19.234   7.650
 6903POPC   NC333623  16.716  10.538   9.450
 6903POPC   PO433624  16.693  10.560   9.150
 6903POPC   GL133625  16.740  10.549   8.850
 6903POPC   GL233626  16.755  10.630   8.850
 6903POPC   C1A33627  16.699  10.561   8.550
 6903POPC   D2A33628  16.777  10.500   8.250
 6903POPC   C3A33629  16.778  10.493   7.950
 6903POPC   C4A33630  16.741  10.474   7.650
 6903POPC   C1B33631  16.831  10.770   8.550
 6903POPC   C2B33632  16.859  10.738   8.250
 6903POPC   C3B33633  16.861  10.726   7.950
 6903POPC   C4B33634  16.859  10.696   7.650
 6904POPC   NC333635  25.240   5.917   9.450
 6904POPC   PO433636  25.242   5.836   9.150
 6904POPC   GL133637  25.288   5.912   8.850
 6904POPC   GL233638  25.314   5.763   8.850
 6904POPC   C1A33639  25.281   5.877   8.550
 6904POPC   D2A33640  25.251   5.837   8.250
 6904POPC   C3A33641  25.239   5.870   7.950
 6904POPC   C4A33642  25.222   5.839   7.650
 6904POPC   C1B33643  25.424   5.628   8.550
 6904POPC   C2B33644  25.385   5.672   8.250
 6904POPC   C3B33645  25.368   5.626   7.950
 6904POPC   C4B33646  25.433   5.694   7.650
 6905POPC   NC333647  22.910  17.537   9.450
 6905POPC   PO433648  22.967  17.485   9.150
 6905POPC   GL133649  22.909  17.458   8.850
 6905POPC   GL233650  23.024  17.601   8.850
 6905POPC   C1A33651  22.918  17.533   8.550
 6905POPC   D2A33652  22.893  17.515   8.250
 6905POPC   C3A33653  22.918  17.506   7.950
 6905POPC   C4A33654  22.955  17.472   7.650
 6905POPC   C1B33655  23.165  17.648   8.550
 6905POPC   C2B33656  23.124  17.642   8.250
 6905POPC   C3B33657  23.192  17.651   7.950
 6905POPC   C4B33658  23.185  17.625   7.650
 6906POPC   NC333659  12.815  39.987   9.450
 6906POPC   PO433660  12.880  40.040   9.150
 6906POPC   GL133661  12.809  40.003   8.850
 6906POPC   GL233662  12.957  39.884   8.850
 6906POPC   C1A33663  12.843  39.965   8.550
 6906POPC   D2A33664  12.821  40.046   8.250
 6906POPC   C3A33665  12.803  39.957   7.950
 6906POPC   C4A33666  12.808  40.003   7.650
 6906POPC   C1B33667  13.003  39.765   8.550
 6906POPC   C2B33668  13.026  39.758   8.250
 6906POPC   C3B33669  12.980  39.793   7.950
 6906POPC   C4B33670  12.958  39.815   7.650
 6907POPC   NC333671  33.036  18.233   9.450
 6907POPC   PO433672  33.009  18.321   9.150
 6907POPC   GL133673  33.044  18.286   8.850
 6907POPC   GL233674  33.105  18.208   8.850
 6907POPC   C1A33675  32.987  18.300   8.550
 6907POPC   D2A33676  33.037  18.249   8.250
 6907POPC   C3A33677  33.037  18.316   7.950
 6907POPC   C4A33678  32.983  18.306   7.650
 6907POPC   C1B33679  33.239  18.237   8.550
 6907POPC   C2B33680  33.295  18.177   8.250
 6907POPC   C3B33681  33.240  18.166   7.950
 6907POPC   C4B33682  33.261  18.175   7.650
 6908POPC   NC333683  12.089  22.943   9.450
 6908POPC   PO433684  12.077  22.975   9.150
 6908POPC   GL133685  12.094  22.900   8.850
 6908POPC   GL233686  11.997  22.998   8.850
 6908POPC   C1A33687  12.094  22.918   8.550
 6908POPC   D2A33688  12.081  22.902   8.250
 6908POPC   C3A33689  12.109  22.898   7.950
 6908POPC   C4A33690  12.031  22.974   7.650
 6908POPC   C1B33691  11.920  23.130   8.550
 6908POPC   C2B33692  11.941  23.198   8.250
 6908POPC   C3B33693  11.910  23.191   7.950
 6908POPC   C4B33694  11.928  23.181   7.650
 6909POPC   NC333695   8.960  18.258   9.450
 6909POPC   PO433696   9.007  18.332   9.150
 6909POPC   GL133697   8.943  18.324   8.850
 6909POPC   GL233698   9.022  18.118   8.850
 6909POPC   C1A33699   8.995  18.233   8.550
 6909POPC   D2A33700   8.937  18.309   8.250
 6909POPC   C3A33701   8.955  18.299   7.950
 6909POPC   C4A33702   9.021  18.290   7.650
 6909POPC   C1B33703   9.035  18.020   8.550
 6909POPC   C2B33704   9.019  18.068   8.250
 6909POPC   C3B33705   9.083  18.062   7.950
 6909POPC   C4B33706   9.099  18.028   7.650
 6910POPC   NC333707  43.137  26.008   9.450
 6910POPC   PO433708  43.152  26.074   9.150
 6910POPC   GL133709  43.158  25.994   8.850
 6910POPC   GL233710  43.076  25.872   8.850
 6910POPC   C1A33711  43.083  26.000   8.550
 6910POPC   D2A33712  43.064  26.060   8.250
 6910POPC   C3A33713  43.074  26.019   7.950
 6910POPC   C4A33714  43.093  26.010   7.650
 6910POPC   C1B33715  43.092  25.765   8.550
 6910POPC   C2B33716  43.002  25.774   8.250
 6910POPC   C3B33717  43.034  25.786   7.950
 6910POPC   C4B33718  43.083  25.768   7.650
 6911POPC   NC333719   1.253   5.886   9.450
 6911POPC   PO433720   1.169   5.836   9.150
 6911POPC   GL133721   1.244   5.861   8.850
 6911POPC   GL233722   1.162   5.737   8.850
 6911POPC   C1A33723   1.175   5.883   8.550
 6911POPC   D2A33724   1.261   5.898   8.250
 6911POPC   C3A33725   1.188   5.856   7.950
 6911POPC   C4A33726   1.239   5.862   7.650
 6911POPC   C1B33727   1.033   5.690   8.550
 6911POPC   C2B33728   1.093   5.646   8.250
 6911POPC   C3B33729   1.104   5.639   7.950
 6911POPC   C4B33730   1.091   5.638   7.650
 6912POPC   NC333731  16.739  22.983   9.450
 6912POPC   PO433732  16.736  22.936   9.150
 6912POPC   GL133733  16.777  22.922   8.850
 6912POPC   GL233734  16.735  22.791   8.850
 6912POPC   C1A33735  16.688  22.958   8.550
 6912POPC   D2A33736  16.684  22.970   8.250
 6912POPC   C3A33737  16.774  22.910   7.950
 6912POPC   C4A33738  16.767  22.904   7.650
 6912POPC   C1B33739  16.687  22.655   8.550
 6912POPC   C2B33740  16.610  22.680   8.250
 6912POPC   C3B33741  16.619  22.670   7.950
 6912POPC   C4B33742  16.679  22.697   7.650
 6913POPC   NC333743   2.751  32.993   9.450
 6913POPC   PO433744   2.781  32.998   9.150
 6913POPC   GL133745   2.722  33.015   8.850
 6913POPC   GL233746   2.861  33.091   8.850
 6913POPC   C1A33747   2.792  33.031   8.550
 6913POPC   D2A33748   2.802  33.021   8.250
 6913POPC   C3A33749   2.780  33.037   7.950
 6913POPC   C4A33750   2.774  33.040   7.650
 6913POPC   C1B33751   2.933  33.163   8.550
 6913POPC   C2B33752   2.994  33.126   8.250
 6913POPC   C3B33753   2.957  33.171   7.950
 6913POPC   C4B33754   2.949  33.172   7.650
 6914POPC   NC333755  26.819  38.421   9.450
 6914POPC   PO433756  26.770  38.415   9.150
 6914POPC   GL133757  26.806  38.455   8.850
 6914POPC   GL233758  26.895  38.477   8.850
 6914POPC   C1A33759  26.831  38.465   8.550
 6914POPC   D2A33760  26.820  38.482   8.250
 6914POPC   C3A33761  26.777  38.503   7.950
 6914POPC   C4A33762  26.851  38.423   7.650
 6914POPC   C1B33763  27.027  38.416   8.550
 6914POPC   C2B33764  27.049  38.432   8.250
 6914POPC   C3B33765  27.102  38.485   7.950
 6914POPC   C4B33766  27.034  38.402   7.650
 6915POPC   NC333767  17.490  30.718   9.450
 6915POPC   PO433768  17.491  30.672   9.150
 6915POPC   GL133769  17.459  30.716   8.850
 6915POPC   GL233770  17.458  30.528   8.850
 6915POPC   C1A33771  17.498  30.728   8.550
 6915POPC   D2A33772  17.557  30.707   8.250
 6915POPC   C3A33773  17.528  30.712   7.950
 6915POPC   C4A33774  17.549  30.721   7.650
 6915POPC   C1B33775  17.454  30.423   8.550
 6915POPC   C2B33776  17.442  30.495   8.250
 6915POPC   C3B33777  17.454  30.414   7.950
 6915POPC   C4B33778  17.407  30.487   7.650
 6916POPC   NC333779  39.990  14.396   9.450
 6916POPC   PO433780  39.965  14.416   9.150
 6916POPC   GL133781  39.991  14.354   8.850
 6916POPC   GL233782  39.968  14.527   8.850
 6916POPC   C1A33783  39.959  14.449   8.550
 6916POPC   D2A33784  39.961  14.377   8.250
 6916POPC   C3A33785  39.963  14.429   7.950
 6916POPC   C4A33786  40.001  14.368   7.650
 6916POPC   C1B33787  39.980  14.608   8.550
 6916POPC   C2B33788  40.052  14.615   8.250
 6916POPC   C3B33789  39.993  14.617   7.950
 6916POPC   C4B33790  39.993  14.682   7.650
 6917POPC   NC333791   3.515  23.694   9.450
 6917POPC   PO433792   3.502  23.737   9.150
 6917POPC   GL133793   3.504  23.709   8.850
 6917POPC   GL233794   3.586  23.864   8.850
 6917POPC   C1A33795   3.499  23.686   8.550
 6917POPC   D2A33796   3.581  23.700   8.250
 6917POPC   C3A33797   3.556  23.729   7.950
 6917POPC   C4A33798   3.499  23.731   7.650
 6917POPC   C1B33799   3.565  24.012   8.550
 6917POPC   C2B33800   3.539  23.968   8.250
 6917POPC   C3B33801   3.584  24.007   7.950
 6917POPC   C4B33802   3.511  23.963   7.650
 6918POPC   NC333803   5.842  33.001   9.450
 6918POPC   PO433804   5.827  33.028   9.150
 6918POPC   GL133805   5.872  33.028   8.850
 6918POPC   GL233806   5.736  33.008   8.850
 6918POPC   C1A33807   5.820  32.989   8.550
 6918POPC   D2A33808   5.873  32.997   8.250
 6918POPC   C3A33809   5.852  33.073   7.950
 6918POPC   C4A33810   5.840  33.069   7.650
 6918POPC   C1B33811   5.623  32.925   8.550
 6918POPC   C2B33812   5.653  32.946   8.250
 6918POPC   C3B33813   5.587  32.963   7.950
 6918POPC   C4B33814   5.583  33.007   7.650
 6919POPC   NC333815  36.868  40.765   9.450
 6919POPC   PO433816  36.940  40.801   9.150
 6919POPC   GL133817  36.907  40.746   8.850
 6919POPC   GL233818  36.816  40.938   8.850
 6919POPC   C1A33819  36.939  40.747   8.550
 6919POPC   D2A33820  36.870  40.787   8.250
 6919POPC   C3A33821  36.854  40.831   7.950
 6919POPC   C4A33822  36.931  40.805   7.650
 6919POPC   C1B33823  36.827  41.060   8.550
 6919POPC   C2B33824  36.851  40.976   8.250
 6919POPC   C3B33825  36.792  41.014   7.950
 6919POPC   C4B33826  36.783  40.975   7.650
 6920POPC   NC333827   5.848  19.843   9.450
 6920POPC   PO433828   5.840  19.838   9.150
 6920POPC   GL133829   5.915  19.818   8.850
 6920POPC   GL233830   5.816  19.765   8.850
 6920POPC   C1A33831   5.833  19.799   8.550
 6920POPC   D2A33832   5.905  19.827   8.250
 6920POPC   C3A33833   5.861  19.843   7.950
 6920POPC   C4A33834   5.853  19.786   7.650
 6920POPC   C1B33835   5.762  19.650   8.550
 6920POPC   C2B33836   5.763  19.604   8.250
 6920POPC   C3B33837   5.704  19.650   7.950
 6920POPC   C4B33838   5.767  19.643   7.650
 6921POPC   NC333839   3.545  15.982   9.450
 6921POPC   PO433840   3.562  15.912   9.150
 6921POPC   GL133841   3.580  15.999   8.850
 6921POPC   GL233842   3.554  15.839   8.850
 6921POPC   C1A33843   3.504  15.976   8.550
 6921POPC   D2A33844   3.530  15.975   8.250
 6921POPC   C3A33845   3.529  15.955   7.950
 6921POPC   C4A33846   3.533  15.986   7.650
 6921POPC   C1B33847   3.535  15.711   8.550
 6921POPC   C2B33848   3.548  15.715   8.250
 6921POPC   C3B33849   3.541  15.699   7.950
 6921POPC   C4B33850   3.560  15.715   7.650
 6922POPC   NC333851   1.997  30.657   9.450
 6922POPC   PO433852   1.940  30.654   9.150
 6922POPC   GL133853   2.017  30.666   8.850
 6922POPC   GL233854   2.107  30.719   8.850
 6922POPC   C1A33855   2.038  30.703   8.550
 6922POPC   D2A33856   1.948  30.689   8.250
 6922POPC   C3A33857   1.973  30.706   7.950
 6922POPC   C4A33858   2.029  30.731   7.650
 6922POPC   C1B33859   2.224  30.790   8.550
 6922POPC   C2B33860   2.228  30.823   8.250
 6922POPC   C3B33861   2.178  30.840   7.950
 6922POPC   C4B33862   2.157  30.840   7.650
 6923POPC   NC333863  15.931   9.786   9.450
 6923POPC   PO433864  15.980   9.734   9.150
 6923POPC   GL133865  15.988   9.785   8.850
 6923POPC   GL233866  15.924   9.605   8.850
 6923POPC   C1A33867  15.935   9.749   8.550
 6923POPC   D2A33868  15.960   9.791   8.250
 6923POPC   C3A33869  15.956   9.721   7.950
 6923POPC   C4A33870  15.938   9.707   7.650
 6923POPC   C1B33871  15.878   9.496   8.550
 6923POPC   C2B33872  15.916   9.509   8.250
 6923POPC   C3B33873  15.915   9.550   7.950
 6923POPC   C4B33874  15.867   9.501   7.650
 6924POPC   NC333875  18.320  17.541   9.450
 6924POPC   PO433876  18.296  17.524   9.150
 6924POPC   GL133877  18.266  17.478   8.850
 6924POPC   GL233878  18.393  17.614   8.850
 6924POPC   C1A33879  18.279  17.507   8.550
 6924POPC   D2A33880  18.274  17.493   8.250
 6924POPC   C3A33881  18.333  17.527   7.950
 6924POPC   C4A33882  18.317  17.488   7.650
 6924POPC   C1B33883  18.432  17.746   8.550
 6924POPC   C2B33884  18.413  17.715   8.250
 6924POPC   C3B33885  18.406  17.745   7.950
 6924POPC   C4B33886  18.388  17.678   7.650
 6925POPC   NC333887  40.829  19.848   9.450
 6925POPC   PO433888  40.814  19.850   9.150
 6925POPC   GL133889  40.777  19.806   8.850
 6925POPC   GL233890  40.932  19.889   8.850
 6925POPC   C1A33891  40.789  19.881   8.550
 6925POPC   D2A33892  40.819  19.846   8.250
 6925POPC   C3A33893  40.792  19.788   7.950
 6925POPC   C4A33894  40.747  19.791   7.650
 6925POPC   C1B33895  41.039  19.995   8.550
 6925POPC   C2B33896  41.051  19.943   8.250
 6925POPC   C3B33897  40.965  19.925   7.950
 6925POPC   C4B33898  40.994  19.906   7.650
 6926POPC   NC333899  28.380  30.655   9.450
 6926POPC   PO433900  28.367  30.684   9.150
 6926POPC   GL133901  28.403  30.661   8.850
 6926POPC   GL233902  28.489  30.763   8.850
 6926POPC   C1A33903  28.412  30.688   8.550
 6926POPC   D2A33904  28.336  30.679   8.250
 6926POPC   C3A33905  28.370  30.710   7.950
 6926POPC   C4A33906  28.331  30.650   7.650
 6926POPC   C1B33907  28.497  30.952   8.550
 6926POPC   C2B33908  28.555  30.863   8.250
 6926POPC   C3B33909  28.539  30.875   7.950
 6926POPC   C4B33910  28.541  30.854   7.650
 6927POPC   NC333911  42.338   4.320   9.450
 6927POPC   PO433912  42.357   4.336   9.150
 6927POPC   GL133913  42.373   4.355   8.850
 6927POPC   GL233914  42.196   4.432   8.850
 6927POPC   C1A33915  42.369   4.335   8.550
 6927POPC   D2A33916  42.325   4.338   8.250
 6927POPC   C3A33917  42.311   4.327   7.950
 6927POPC   C4A33918  42.310   4.299   7.650
 6927POPC   C1B33919  42.121   4.424   8.550
 6927POPC   C2B33920  42.083   4.510   8.250
 6927POPC   C3B33921  42.144   4.507   7.950
 6927POPC   C4B33922  42.175   4.492   7.650
 6928POPC   NC333923  29.137  36.120   9.450
 6928POPC   PO433924  29.144  36.095   9.150
 6928POPC   GL133925  29.147  36.127   8.850
 6928POPC   GL233926  29.221  36.155   8.850
 6928POPC   C1A33927  29.127  36.080   8.550
 6928POPC   D2A33928  29.097  36.138   8.250
 6928POPC   C3A33929  29.190  36.137   7.950
 6928POPC   C4A33930  29.106  36.139   7.650
 6928POPC   C1B33931  29.415  36.190   8.550
 6928POPC   C2B33932  29.362  36.095   8.250
 6928POPC   C3B33933  29.403  36.182   7.950
 6928POPC   C4B33934  29.382  36.121   7.650
 6929POPC   NC333935  36.871  32.202   9.450
 6929POPC   PO433936  36.886  32.262   9.150
 6929POPC   GL133937  36.880  32.202   8.850
 6929POPC   GL233938  36.932  32.167   8.850
 6929POPC   C1A33939  36.949  32.233   8.550
 6929POPC   D2A33940  36.876  32.215   8.250
 6929POPC   C3A33941  36.917  32.296   7.950
 6929POPC   C4A33942  36.855  32.239   7.650
 6929POPC   C1B33943  36.887  31.975   8.550
 6929POPC   C2B33944  36.957  31.968   8.250
 6929POPC   C3B33945  36.918  32.043   7.950
 6929POPC   C4B33946  36.961  32.010   7.650
 6930POPC   NC333947  12.063  24.440   9.450
 6930POPC   PO433948  12.052  24.479   9.150
 6930POPC   GL133949  12.063  24.535   8.850
 6930POPC   GL233950  12.128  24.624   8.850
 6930POPC   C1A33951  12.044  24.458   8.550
 6930POPC   D2A33952  12.057  24.443   8.250
 6930POPC   C3A33953  12.100  24.472   7.950
 6930POPC   C4A33954  12.113  24.506   7.650
 6930POPC   C1B33955  12.157  24.709   8.550
 6930POPC   C2B33956  12.143  24.761   8.250
 6930POPC   C3B33957  12.160  24.685   7.950
 6930POPC   C4B33958  12.180  24.772   7.650
 6931POPC   NC333959   5.914  30.683   9.450
 6931POPC   PO433960   5.844  30.648   9.150
 6931POPC   GL133961   5.844  30.720   8.850
 6931POPC   GL233962   5.922  30.576   8.850
 6931POPC   C1A33963   5.843  30.650   8.550
 6931POPC   D2A33964   5.902  30.690   8.250
 6931POPC   C3A33965   5.878  30.736   7.950
 6931POPC   C4A33966   5.887  30.741   7.650
 6931POPC   C1B33967   6.090  30.581   8.550
 6931POPC   C2B33968   6.016  30.584   8.250
 6931POPC   C3B33969   6.027  30.582   7.950
 6931POPC   C4B33970   6.054  30.541   7.650
 6932POPC   NC333971  12.092  16.747   9.450
 6932POPC   PO433972  12.071  16.754   9.150
 6932POPC   GL133973  12.058  16.731   8.850
 6932POPC   GL233974  11.914  16.702   8.850
 6932POPC   C1A33975  12.118  16.691   8.550
 6932POPC   D2A33976  12.069  16.729   8.250
 6932POPC   C3A33977  12.064  16.718   7.950
 6932POPC   C4A33978  12.067  16.740   7.650
 6932POPC   C1B33979  11.886  16.662   8.550
 6932POPC   C2B33980  11.809  16.687   8.250
 6932POPC   C3B33981  11.799  16.630   7.950
 6932POPC   C4B33982  11.858  16.603   7.650
 6933POPC   NC333983   2.791   3.555   9.450
 6933POPC   PO433984   2.776   3.528   9.150
 6933POPC   GL133985   2.751   3.509   8.850
 6933POPC   GL233986   2.660   3.607   8.850
 6933POPC   C1A33987   2.727   3.495   8.550
 6933POPC   D2A33988   2.785   3.527   8.250
 6933POPC   C3A33989   2.784   3.587   7.950
 6933POPC   C4A33990   2.812   3.508   7.650
 6933POPC   C1B33991   2.597   3.783   8.550
 6933POPC   C2B33992   2.660   3.724   8.250
 6933POPC   C3B33993   2.636   3.803   7.950
 6933POPC   C4B33994   2.678   3.734   7.650
 6934POPC   NC333995  17.492  22.916   9.450
 6934POPC   PO433996  17.512  22.977   9.150
 6934POPC   GL133997  17.520  22.943   8.850
 6934POPC   GL233998  17.543  22.823   8.850
 6934POPC   C1A33999  17.543  22.938   8.550
 6934POPC   D2A34000  17.473  22.955   8.250
 6934POPC   C3A34001  17.547  22.959   7.950
 6934POPC   C4A34002  17.499  22.965   7.650
 6934POPC   C1B34003  17.517  22.647   8.550
 6934POPC   C2B34004  17.515  22.643   8.250
 6934POPC   C3B34005  17.457  22.716   7.950
 6934POPC   C4B34006  17.492  22.711   7.650
 6935POPC   NC334007   7.396   0.454   9.450
 6935POPC   PO434008   7.388   0.469   9.150
 6935POPC   GL134009   7.419   0.389   8.850
 6935POPC   GL234010   7.378   0.574   8.850
 6935POPC   C1A34011   7.401   0.420   8.550
 6935POPC   D2A34012   7.432   0.454   8.250
 6935POPC   C3A34013   7.458   0.424   7.950
 6935POPC   C4A34014   7.458   0.483   7.650
 6935POPC   C1B34015   7.338   0.658   8.550
 6935POPC   C2B34016   7.389   0.657   8.250
 6935POPC   C3B34017   7.339   0.658   7.950
 6935POPC   C4B34018   7.385   0.653   7.650
 6936POPC   NC334019  27.597  24.482   9.450
 6936POPC   PO434020  27.613  24.492   9.150
 6936POPC   GL134021  27.546  24.539   8.850
 6936POPC   GL234022  27.499  24.377   8.850
 6936POPC   C1A34023  27.631  24.534   8.550
 6936POPC   D2A34024  27.604  24.516   8.250
 6936POPC   C3A34025  27.567  24.457   7.950
 6936POPC   C4A34026  27.630  24.476   7.650
 6936POPC   C1B34027  27.455  24.341   8.550
 6936POPC   C2B34028  27.384  24.350   8.250
 6936POPC   C3B34029  27.430  24.274   7.950
 6936POPC   C4B34030  27.374  24.309   7.650
 6937POPC   NC334031  34.540   5.852   9.450
 6937POPC   PO434032  34.581   5.846   9.150
 6937POPC   GL134033  34.543   5.877   8.850
 6937POPC   GL234034  34.505   5.711   8.850
 6937POPC   C1A34035  34.582   5.855   8.550
 6937POPC   D2A34036  34.561   5.837   8.250
 6937POPC   C3A34037  34.550   5.895   7.950
 6937POPC   C4A34038  34.579   5.852   7.650
 6937POPC   C1B34039  34.472   5.592   8.550
 6937POPC   C2B34040  34.533   5.621   8.250
 6937POPC   C3B34041  34.547   5.659   7.950
 6937POPC   C4B34042  34.536   5.630   7.650
 6938POPC   NC334043   9.010  21.378   9.450
 6938POPC   PO434044   8.947  21.342   9.150
 6938POPC   GL134045   8.935  21.392   8.850
 6938POPC   GL234046   8.882  21.272   8.850
 6938POPC   C1A34047   8.974  21.409   8.550
 6938POPC   D2A34048   9.004  21.341   8.250
 6938POPC   C3A34049   8.946  21.413   7.950
 6938POPC   C4A34050   8.988  21.357   7.650
 6938POPC   C1B34051   8.775  21.199   8.550
 6938POPC   C2B34052   8.856  21.185   8.250
 6938POPC   C3B34053   8.856  21.246   7.950
 6938POPC   C4B34054   8.798  21.158   7.650
 6939POPC   NC334055  36.155  36.915   9.450
 6939POPC   PO434056  36.153  36.923   9.150
 6939POPC   GL134057  36.117  36.879   8.850
 6939POPC   GL234058  36.207  36.849   8.850
 6939POPC   C1A34059  36.090  36.926   8.550
 6939POPC   D2A34060  36.094  36.859   8.250
 6939POPC   C3A34061  36.107  36.892   7.950
 6939POPC   C4A34062  36.147  36.899   7.650
 6939POPC   C1B34063  36.315  36.691   8.550
 6939POPC   C2B34064  36.266  36.663   8.250
 6939POPC   C3B34065  36.244  36.726   7.950
 6939POPC   C4B34066  36.248  36.698   7.650
 6940POPC   NC334067   5.053  20.655   9.450
 6940POPC   PO434068   5.062  20.593   9.150
 6940POPC   GL134069   5.128  20.614   8.850
 6940POPC   GL234070   5.140  20.755   8.850
 6940POPC   C1A34071   5.101  20.636   8.550
 6940POPC   D2A34072   5.116  20.578   8.250
 6940POPC   C3A34073   5.043  20.594   7.950
 6940POPC   C4A34074   5.110  20.562   7.650
 6940POPC   C1B34075   5.259  20.826   8.550
 6940POPC   C2B34076   5.233  20.776   8.250
 6940POPC   C3B34077   5.188  20.822   7.950
 6940POPC   C4B34078   5.203  20.781   7.650
 6941POPC   NC334079  16.776  26.814   9.450
 6941POPC   PO434080  16.755  26.806   9.150
 6941POPC   GL134081  16.699  26.824   8.850
 6941POPC   GL234082  16.817  26.823   8.850
 6941POPC   C1A34083  16.729  26.867   8.550
 6941POPC   D2A34084  16.768  26.802   8.250
 6941POPC   C3A34085  16.684  26.801   7.950
 6941POPC   C4A34086  16.776  26.788   7.650
 6941POPC   C1B34087  16.937  26.871   8.550
 6941POPC   C2B34088  16.995  26.898   8.250
 6941POPC   C3B34089  16.927  26.860   7.950
 6941POPC   C4B34090  16.969  26.870   7.650
 6942POPC   NC334091  31.519   4.303   9.450
 6942POPC   PO434092  31.510   4.295   9.150
 6942POPC   GL134093  31.479   4.360   8.850
 6942POPC   GL234094  31.421   4.236   8.850
 6942POPC   C1A34095  31.477   4.283   8.550
 6942POPC   D2A34096  31.449   4.311   8.250
 6942POPC   C3A34097  31.431   4.353   7.950
 6942POPC   C4A34098  31.488   4.277   7.650
 6942POPC   C1B34099  31.374   4.035   8.550
 6942POPC   C2B34100  31.415   4.099   8.250
 6942POPC   C3B34101  31.405   4.054   7.950
 6942POPC   C4B34102  31.407   4.099   7.650
 6943POPC   NC334103  22.149   2.024   9.450
 6943POPC   PO434104  22.159   2.027   9.150
 6943POPC   GL134105  22.184   1.982   8.850
 6943POPC   GL234106  22.094   1.817   8.850
 6943POPC   C1A34107  22.204   1.984   8.550
 6943POPC   D2A34108  22.210   1.980   8.250
 6943POPC   C3A34109  22.123   2.026   7.950
 6943POPC   C4A34110  22.198   1.947   7.650
 6943POPC   C1B34111  22.168   1.791   8.550
 6943POPC   C2B34112  22.092   1.779   8.250
 6943POPC   C3B34113  22.161   1.703   7.950
 6943POPC   C4B34114  22.100   1.744   7.650
 6944POPC   NC334115   3.510  21.402   9.450
 6944POPC   PO434116   3.514  21.383   9.150
 6944POPC   GL134117   3.527  21.404   8.850
 6944POPC   GL234118   3.403  21.309   8.850
 6944POPC   C1A34119   3.538  21.349   8.550
 6944POPC   D2A34120   3.515  21.394   8.250
 6944POPC   C3A34121   3.501  21.387   7.950
 6944POPC   C4A34122   3.538  21.359   7.650
 6944POPC   C1B34123   3.355  21.202   8.550
 6944POPC   C2B34124   3.340  21.207   8.250
 6944POPC   C3B34125   3.400  21.236   7.950
 6944POPC   C4B34126   3.358  21.256   7.650
 6945POPC   NC334127  41.544   8.992   9.450
 6945POPC   PO434128  41.517   8.985   9.150
 6945POPC   GL134129  41.543   8.996   8.850
 6945POPC   GL234130  41.475   8.919   8.850
 6945POPC   C1A34131  41.581   8.987   8.550
 6945POPC   D2A34132  41.589   8.946   8.250
 6945POPC   C3A34133  41.531   8.971   7.950
 6945POPC   C4A34134  41.526   8.924   7.650
 6945POPC   C1B34135  41.360   8.807   8.550
 6945POPC   C2B34136  41.307   8.866   8.250
 6945POPC   C3B34137  41.375   8.841   7.950
 6945POPC   C4B34138  41.346   8.840   7.650
 6946POPC   NC334139  33.045  26.088   9.450
 6946POPC   PO434140  33.009  26.020   9.150
 6946POPC   GL134141  33.064  26.005   8.850
 6946POPC   GL234142  33.063  25.901   8.850
 6946POPC   C1A34143  32.981  26.023   8.550
 6946POPC   D2A34144  32.992  26.015   8.250
 6946POPC   C3A34145  33.010  26.008   7.950
 6946POPC   C4A34146  33.031  26.076   7.650
 6946POPC   C1B34147  33.193  25.817   8.550
 6946POPC   C2B34148  33.204  25.819   8.250
 6946POPC   C3B34149  33.183  25.862   7.950
 6946POPC   C4B34150  33.136  25.876   7.650
 6947POPC   NC334151  35.333   5.871   9.450
 6947POPC   PO434152  35.304   5.890   9.150
 6947POPC   GL134153  35.321   5.876   8.850
 6947POPC   GL234154  35.281   5.739   8.850
 6947POPC   C1A34155  35.399   5.870   8.550
 6947POPC   D2A34156  35.320   5.913   8.250
 6947POPC   C3A34157  35.359   5.846   7.950
 6947POPC   C4A34158  35.304   5.822   7.650
 6947POPC   C1B34159  35.303   5.638   8.550
 6947POPC   C2B34160  35.271   5.637   8.250
 6947POPC   C3B34161  35.257   5.602   7.950
 6947POPC   C4B34162  35.264   5.617   7.650
 6948POPC   NC334163   2.012   4.345   9.450
 6948POPC   PO434164   1.948   4.301   9.150
 6948POPC   GL134165   2.020   4.299   8.850
 6948POPC   GL234166   1.952   4.473   8.850
 6948POPC   C1A34167   2.021   4.349   8.550
 6948POPC   D2A34168   2.018   4.366   8.250
 6948POPC   C3A34169   1.983   4.270   7.950
 6948POPC   C4A34170   1.994   4.333   7.650
 6948POPC   C1B34171   2.014   4.569   8.550
 6948POPC   C2B34172   2.014   4.526   8.250
 6948POPC   C3B34173   2.021   4.551   7.950
 6948POPC   C4B34174   2.053   4.594   7.650
 6949POPC   NC334175  33.768  22.162   9.450
 6949POPC   PO434176  33.762  22.203   9.150
 6949POPC   GL134177  33.800  22.184   8.850
 6949POPC   GL234178  33.782  22.290   8.850
 6949POPC   C1A34179  33.834  22.134   8.550
 6949POPC   D2A34180  33.809  22.119   8.250
 6949POPC   C3A34181  33.768  22.151   7.950
 6949POPC   C4A34182  33.805  22.119   7.650
 6949POPC   C1B34183  33.731  22.400   8.550
 6949POPC   C2B34184  33.734  22.425   8.250
 6949POPC   C3B34185  33.739  22.387   7.950
 6949POPC   C4B34186  33.794  22.387   7.650
 6950POPC   NC334187  23.744  35.335   9.450
 6950POPC   PO434188  23.744  35.323   9.150
 6950POPC   GL134189  23.676  35.344   8.850
 6950POPC   GL234190  23.558  35.365   8.850
 6950POPC   C1A34191  23.671  35.308   8.550
 6950POPC   D2A34192  23.745  35.337   8.250
 6950POPC   C3A34193  23.710  35.386   7.950
 6950POPC   C4A34194  23.737  35.395   7.650
 6950POPC   C1B34195  23.426  35.257   8.550
 6950POPC   C2B34196  23.486  35.338   8.250
 6950POPC   C3B34197  23.430  35.289   7.950
 6950POPC   C4B34198  23.514  35.248   7.650
 6951POPC   NC334199  22.204  14.357   9.450
 6951POPC   PO434200  22.164  14.356   9.150
 6951POPC   GL134201  22.146  14.365   8.850
 6951POPC   GL234202  22.073  14.371   8.850
 6951POPC   C1A34203  22.116  14.392   8.550
 6951POPC   D2A34204  22.138  14.449   8.250
 6951POPC   C3A34205  22.199  14.437   7.950
 6951POPC   C4A34206  22.135  14.448   7.650
 6951POPC   C1B34207  21.921  14.380   8.550
 6951POPC   C2B34208  21.913  14.328   8.250
 6951POPC   C3B34209  21.959  14.379   7.950
 6951POPC   C4B34210  21.930  14.334   7.650
 6952POPC   NC334211  17.485  17.539   9.450
 6952POPC   PO434212  17.472  17.501   9.150
 6952POPC   GL134213  17.483  17.499   8.850
 6952POPC   GL234214  17.337  17.560   8.850
 6952POPC   C1A34215  17.473  17.465   8.550
 6952POPC   D2A34216  17.553  17.486   8.250
 6952POPC   C3A34217  17.512  17.459   7.950
 6952POPC   C4A34218  17.487  17.502   7.650
 6952POPC   C1B34219  17.235  17.525   8.550
 6952POPC   C2B34220  17.209  17.540   8.250
 6952POPC   C3B34221  17.245  17.519   7.950
 6952POPC   C4B34222  17.274  17.525   7.650
 6953POPC   NC334223   1.175  12.101   9.450
 6953POPC   PO434224   1.189  12.076   9.150
 6953POPC   GL134225   1.228  12.042   8.850
 6953POPC   GL234226   1.078  11.954   8.850
 6953POPC   C1A34227   1.170  12.035   8.550
 6953POPC   D2A34228   1.210  12.122   8.250
 6953POPC   C3A34229   1.186  12.048   7.950
 6953POPC   C4A34230   1.261  12.098   7.650
 6953POPC   C1B34231   0.979  11.898   8.550
 6953POPC   C2B34232   0.993  11.958   8.250
 6953POPC   C3B34233   1.013  11.946   7.950
 6953POPC   C4B34234   1.066  11.948   7.650
 6954POPC   NC334235  28.335  32.988   9.450
 6954POPC   PO434236  28.390  33.042   9.150
 6954POPC   GL134237  28.385  33.010   8.850
 6954POPC   GL234238  28.307  33.144   8.850
 6954POPC   C1A34239  28.344  33.074   8.550
 6954POPC   D2A34240  28.370  33.028   8.250
 6954POPC   C3A34241  28.326  33.068   7.950
 6954POPC   C4A34242  28.375  33.069   7.650
 6954POPC   C1B34243  28.216  33.149   8.550
 6954POPC   C2B34244  28.144  33.192   8.250
 6954POPC   C3B34245  28.169  33.168   7.950
 6954POPC   C4B34246  28.149  33.173   7.650
 6955POPC   NC334247  18.290  28.340   9.450
 6955POPC   PO434248  18.327  28.335   9.150
 6955POPC   GL134249  18.269  28.404   8.850
 6955POPC   GL234250  18.269  28.463   8.850
 6955POPC   C1A34251  18.330  28.341   8.550
 6955POPC   D2A34252  18.239  28.406   8.250
 6955POPC   C3A34253  18.236  28.331   7.950
 6955POPC   C4A34254  18.236  28.372   7.650
 6955POPC   C1B34255  18.224  28.639   8.550
 6955POPC   C2B34256  18.227  28.644   8.250
 6955POPC   C3B34257  18.205  28.636   7.950
 6955POPC   C4B34258  18.164  28.605   7.650
 6956POPC   NC334259  12.100  12.861   9.450
 6956POPC   PO434260  12.065  12.833   9.150
 6956POPC   GL134261  12.086  12.895   8.850
 6956POPC   GL234262  12.092  12.985   8.850
 6956POPC   C1A34263  12.120  12.892   8.550
 6956POPC   D2A34264  12.087  12.855   8.250
 6956POPC   C3A34265  12.053  12.805   7.950
 6956POPC   C4A34266  12.107  12.824   7.650
 6956POPC   C1B34267  12.163  13.057   8.550
 6956POPC   C2B34268  12.109  13.115   8.250
 6956POPC   C3B34269  12.154  13.071   7.950
 6956POPC   C4B34270  12.150  13.096   7.650
 6957POPC   NC334271  33.846  20.639   9.450
 6957POPC   PO434272  33.777  20.596   9.150
 6957POPC   GL134273  33.835  20.588   8.850
 6957POPC   GL234274  33.814  20.512   8.850
 6957POPC   C1A34275  33.818  20.578   8.550
 6957POPC   D2A34276  33.842  20.605   8.250
 6957POPC   C3A34277  33.830  20.561   7.950
 6957POPC   C4A34278  33.768  20.656   7.650
 6957POPC   C1B34279  33.910  20.406   8.550
 6957POPC   C2B34280  33.819  20.410   8.250
 6957POPC   C3B34281  33.834  20.359   7.950
 6957POPC   C4B34282  33.817  20.340   7.650
 6958POPC   NC334283  12.027  43.150   9.450
 6958POPC   PO434284  12.031  43.093   9.150
 6958POPC   GL134285  12.124  43.082   8.850
 6958POPC   GL234286  11.999  43.196   8.850
 6958POPC   C1A34287  12.098  43.144   8.550
 6958POPC   D2A34288  12.108  43.124   8.250
 6958POPC   C3A34289  12.075  43.149   7.950
 6958POPC   C4A34290  12.046  43.088   7.650
 6958POPC   C1B34291  11.899  43.287   8.550
 6958POPC   C2B34292  11.968  43.288   8.250
 6958POPC   C3B34293  11.943  43.342   7.950
 6958POPC   C4B34294  11.944  43.325   7.650
 6959POPC   NC334295  30.711  22.118   9.450
 6959POPC   PO434296  30.700  22.139   9.150
 6959POPC   GL134297  30.702  22.157   8.850
 6959POPC   GL234298  30.752  22.299   8.850
 6959POPC   C1A34299  30.735  22.167   8.550
 6959POPC   D2A34300  30.727  22.146   8.250
 6959POPC   C3A34301  30.738  22.164   7.950
 6959POPC   C4A34302  30.703  22.115   7.650
 6959POPC   C1B34303  30.802  22.400   8.550
 6959POPC   C2B34304  30.853  22.332   8.250
 6959POPC   C3B34305  30.849  22.333   7.950
 6959POPC   C4B34306  30.855  22.402   7.650
 6960POPC   NC334307   6.692  22.985   9.450
 6960POPC   PO434308   6.601  22.896   9.150
 6960POPC   GL134309   6.629  22.937   8.850
 6960POPC   GL234310   6.626  23.093   8.850
 6960POPC   C1A34311   6.648  22.984   8.550
 6960POPC   D2A34312   6.660  22.957   8.250
 6960POPC   C3A34313   6.620  22.966   7.950
 6960POPC   C4A34314   6.633  22.984   7.650
 6960POPC   C1B34315   6.601  23.224   8.550
 6960POPC   C2B34316   6.622  23.200   8.250
 6960POPC   C3B34317   6.611  23.191   7.950
 6960POPC   C4B34318   6.579  23.175   7.650
 6961POPC   NC334319  19.875   2.021   9.450
 6961POPC   PO434320  19.790   1.973   9.150
 6961POPC   GL134321  19.798   1.966   8.850
 6961POPC   GL234322  19.715   2.023   8.850
 6961POPC   C1A34323  19.867   2.034   8.550
 6961POPC   D2A34324  19.792   2.031   8.250
 6961POPC   C3A34325  19.824   2.024   7.950
 6961POPC   C4A34326  19.846   1.962   7.650
 6961POPC   C1B34327  19.545   2.016   8.550
 6961POPC   C2B34328  19.616   2.028   8.250
 6961POPC   C3B34329  19.620   2.047   7.950
 6961POPC   C4B34330  19.595   1.982   7.650
 6962POPC   NC334331  36.905  39.984   9.450
 6962POPC   PO434332  36.906  39.980   9.150
 6962POPC   GL134333  36.888  39.988   8.850
 6962POPC   GL234334  36.746  39.955   8.850
 6962POPC   C1A34335  36.940  40.031   8.550
 6962POPC   D2A34336  36.950  39.993   8.250
 6962POPC   C3A34337  36.865  39.961   7.950
 6962POPC   C4A34338  36.869  39.991   7.650
 6962POPC   C1B34339  36.647  39.947   8.550
 6962POPC   C2B34340  36.644  39.947   8.250
 6962POPC   C3B34341  36.643  39.936   7.950
 6962POPC   C4B34342  36.685  39.918   7.650
 6963POPC   NC334343  44.637  11.336   9.450
 6963POPC   PO434344  44.657  11.287   9.150
 6963POPC   GL134345  44.701  11.263   8.850
 6963POPC   GL234346  44.612  11.171   8.850
 6963POPC   C1A34347  44.697  11.283   8.550
 6963POPC   D2A34348  44.660  11.338   8.250
 6963POPC   C3A34349  44.669  11.300   7.950
 6963POPC   C4A34350  44.676  11.263   7.650
 6963POPC   C1B34351  44.681  11.076   8.550
 6963POPC   C2B34352  44.677  11.049   8.250
 6963POPC   C3B34353  44.610  11.083   7.950
 6963POPC   C4B34354  44.657  11.039   7.650
 6964POPC   NC334355  31.501  25.295   9.450
 6964POPC   PO434356  31.463  25.231   9.150
 6964POPC   GL134357  31.482  25.303   8.850
 6964POPC   GL234358  31.417  25.342   8.850
 6964POPC   C1A34359  31.515  25.282   8.550
 6964POPC   D2A34360  31.441  25.240   8.250
 6964POPC   C3A34361  31.492  25.282   7.950
 6964POPC   C4A34362  31.495  25.276   7.650
 6964POPC   C1B34363  31.317  25.426   8.550
 6964POPC   C2B34364  31.333  25.474   8.250
 6964POPC   C3B34365  31.290  25.512   7.950
 6964POPC   C4B34366  31.334  25.478   7.650
 6965POPC   NC334367   5.853  22.171   9.450
 6965POPC   PO434368   5.866  22.165   9.150
 6965POPC   GL134369   5.863  22.132   8.850
 6965POPC   GL234370   5.919  22.209   8.850
 6965POPC   C1A34371   5.891  22.151   8.550
 6965POPC   D2A34372   5.830  22.197   8.250
 6965POPC   C3A34373   5.875  22.182   7.950
 6965POPC   C4A34374   5.898  22.188   7.650
 6965POPC   C1B34375   6.075  22.337   8.550
 6965POPC   C2B34376   6.080  22.299   8.250
 6965POPC   C3B34377   6.087  22.295   7.950
 6965POPC   C4B34378   6.013  22.379   7.650
 6966POPC   NC334379  20.608  12.106   9.450
 6966POPC   PO434380  20.631  12.062   9.150
 6966POPC   GL134381  20.643  12.114   8.850
 6966POPC   GL234382  20.737  12.187   8.850
 6966POPC   C1A34383  20.611  12.058   8.550
 6966POPC   D2A34384  20.627  12.108   8.250
 6966POPC   C3A34385  20.562  12.121   7.950
 6966POPC   C4A34386  20.643  12.121   7.650
 6966POPC   C1B34387  20.837  12.223   8.550
 6966POPC   C2B34388  20.831  12.263   8.250
 6966POPC   C3B34389  20.813  12.199   7.950
 6966POPC   C4B34390  20.774  12.281   7.650
 6967POPC   NC334391   0.470  24.483   9.450
 6967POPC   PO434392   0.407  24.460   9.150
 6967POPC   GL134393   0.421  24.440   8.850
 6967POPC   GL234394   0.305  24.369   8.850
 6967POPC   C1A34395   0.487  24.476   8.550
 6967POPC   D2A34396   0.390  24.508   8.250
 6967POPC   C3A34397   0.401  24.461   7.950
 6967POPC   C4A34398   0.398  24.526   7.650
 6967POPC   C1B34399   0.239  24.293   8.550
 6967POPC   C2B34400   0.299  24.347   8.250
 6967POPC   C3B34401   0.298  24.261   7.950
 6967POPC   C4B34402   0.275  24.295   7.650
 6968POPC   NC334403  22.895  19.026   9.450
 6968POPC   PO434404  22.939  19.066   9.150
 6968POPC   GL134405  22.921  19.015   8.850
 6968POPC   GL234406  22.941  18.961   8.850
 6968POPC   C1A34407  22.981  19.014   8.550
 6968POPC   D2A34408  22.901  19.025   8.250
 6968POPC   C3A34409  22.959  19.048   7.950
 6968POPC   C4A34410  22.951  19.061   7.650
 6968POPC   C1B34411  22.812  18.838   8.550
 6968POPC   C2B34412  22.809  18.779   8.250
 6968POPC   C3B34413  22.858  18.791   7.950
 6968POPC   C4B34414  22.846  18.814   7.650
 6969POPC   NC334415  42.366   2.784   9.450
 6969POPC   PO434416  42.335   2.807   9.150
 6969POPC   GL134417  42.380   2.791   8.850
 6969POPC   GL234418  42.263   2.611   8.850
 6969POPC   C1A34419  42.361   2.748   8.550
 6969POPC   D2A34420  42.360   2.774   8.250
 6969POPC   C3A34421  42.374   2.795   7.950
 6969POPC   C4A34422  42.307   2.777   7.650
 6969POPC   C1B34423  42.247   2.509   8.550
 6969POPC   C2B34424  42.214   2.544   8.250
 6969POPC   C3B34425  42.234   2.478   7.950
 6969POPC   C4B34426  42.261   2.550   7.650
 6970POPC   NC334427  14.406  15.212   9.450
 6970POPC   PO434428  14.389  15.150   9.150
 6970POPC   GL134429  14.359  15.190   8.850
 6970POPC   GL234430  14.283  15.087   8.850
 6970POPC   C1A34431  14.397  15.184   8.550
 6970POPC   D2A34432  14.435  15.206   8.250
 6970POPC   C3A34433  14.420  15.200   7.950
 6970POPC   C4A34434  14.372  15.208   7.650
 6970POPC   C1B34435  14.161  15.123   8.550
 6970POPC   C2B34436  14.204  15.057   8.250
 6970POPC   C3B34437  14.177  15.136   7.950
 6970POPC   C4B34438  14.178  15.107   7.650
 6971POPC   NC334439  15.951  27.592   9.450
 6971POPC   PO434440  15.912  27.573   9.150
 6971POPC   GL134441  15.984  27.548   8.850
 6971POPC   GL234442  15.997  27.734   8.850
 6971POPC   C1A34443  15.966  27.543   8.550
 6971POPC   D2A34444  15.999  27.599   8.250
 6971POPC   C3A34445  15.958  27.591   7.950
 6971POPC   C4A34446  16.001  27.573   7.650
 6971POPC   C1B34447  16.055  27.818   8.550
 6971POPC   C2B34448  16.050  27.789   8.250
 6971POPC   C3B34449  16.129  27.770   7.950
 6971POPC   C4B34450  16.082  27.772   7.650
 6972POPC   NC334451  44.700   1.985   9.450
 6972POPC   PO434452  44.690   2.018   9.150
 6972POPC   GL134453  44.684   1.983   8.850
 6972POPC   GL234454  44.592   2.080   8.850
 6972POPC   C1A34455  44.663   1.953   8.550
 6972POPC   D2A34456  44.644   1.982   8.250
 6972POPC   C3A34457  44.621   2.021   7.950
 6972POPC   C4A34458  44.684   2.017   7.650
 6972POPC   C1B34459  44.584   2.192   8.550
 6972POPC   C2B34460  44.522   2.157   8.250
 6972POPC   C3B34461  44.500   2.254   7.950
 6972POPC   C4B34462  44.553   2.205   7.650
 6973POPC   NC334463  26.029  38.491   9.450
 6973POPC   PO434464  26.055  38.456   9.150
 6973POPC   GL134465  26.052  38.415   8.850
 6973POPC   GL234466  26.120  38.466   8.850
 6973POPC   C1A34467  25.999  38.469   8.550
 6973POPC   D2A34468  26.061  38.428   8.250
 6973POPC   C3A34469  26.086  38.481   7.950
 6973POPC   C4A34470  26.072  38.412   7.650
 6973POPC   C1B34471  26.315  38.370   8.550
 6973POPC   C2B34472  26.276  38.420   8.250
 6973POPC   C3B34473  26.278  38.386   7.950
 6973POPC   C4B34474  26.251  38.401   7.650
 6974POPC   NC334475   2.785   2.772   9.450
 6974POPC   PO434476   2.787   2.744   9.150
 6974POPC   GL134477   2.766   2.746   8.850
 6974POPC   GL234478   2.702   2.877   8.850
 6974POPC   C1A34479   2.743   2.720   8.550
 6974POPC   D2A34480   2.721   2.723   8.250
 6974POPC   C3A34481   2.727   2.803   7.950
 6974POPC   C4A34482   2.771   2.815   7.650
 6974POPC   C1B34483   2.538   2.939   8.550
 6974POPC   C2B34484   2.597   2.904   8.250
 6974POPC   C3B34485   2.603   2.937   7.950
 6974POPC   C4B34486   2.555   2.948   7.650
 6975POPC   NC334487  21.359  19.791   9.450
 6975POPC   PO434488  21.364  19.884   9.150
 6975POPC   GL134489  21.435  19.868   8.850
 6975POPC   GL234490  21.259  19.887   8.850
 6975POPC   C1A34491  21.375  19.863   8.550
 6975POPC   D2A34492  21.433  19.788   8.250
 6975POPC   C3A34493  21.394  19.793   7.950
 6975POPC   C4A34494  21.416  19.827   7.650
 6975POPC   C1B34495  21.109  19.902   8.550
 6975POPC   C2B34496  21.170  19.843   8.250
 6975POPC   C3B34497  21.167  19.825   7.950
 6975POPC   C4B34498  21.164  19.829   7.650
 6976POPC   NC334499  19.814  29.111   9.450
 6976POPC   PO434500  19.793  29.139   9.150
 6976POPC   GL134501  19.823  29.185   8.850
 6976POPC   GL234502  19.795  29.306   8.850
 6976POPC   C1A34503  19.797  29.150   8.550
 6976POPC   D2A34504  19.793  29.155   8.250
 6976POPC   C3A34505  19.811  29.179   7.950
 6976POPC   C4A34506  19.849  29.178   7.650
 6976POPC   C1B34507  19.756  29.415   8.550
 6976POPC   C2B34508  19.774  29.409   8.250
 6976POPC   C3B34509  19.733  29.374   7.950
 6976POPC   C4B34510  19.710  29.367   7.650
 6977POPC   NC334511  41.520   5.838   9.450
 6977POPC   PO434512  41.545   5.894   9.150
 6977POPC   GL134513  41.588   5.853   8.850
 6977POPC   GL234514  41.550   6.032   8.850
 6977POPC   C1A34515  41.514   5.821   8.550
 6977POPC   D2A34516  41.599   5.842   8.250
 6977POPC   C3A34517  41.601   5.871   7.950
 6977POPC   C4A34518  41.542   5.888   7.650
 6977POPC   C1B34519  41.474   6.155   8.550
 6977POPC   C2B34520  41.475   6.159   8.250
 6977POPC   C3B34521  41.531   6.158   7.950
 6977POPC   C4B34522  41.469   6.145   7.650
 6978POPC   NC334523   2.731   0.434   9.450
 6978POPC   PO434524   2.757   0.429   9.150
 6978POPC   GL134525   2.791   0.469   8.850
 6978POPC   GL234526   2.833   0.323   8.850
 6978POPC   C1A34527   2.728   0.469   8.550
 6978POPC   D2A34528   2.758   0.452   8.250
 6978POPC   C3A34529   2.786   0.484   7.950
 6978POPC   C4A34530   2.783   0.476   7.650
 6978POPC   C1B34531   2.949   0.232   8.550
 6978POPC   C2B34532   2.912   0.248   8.250
 6978POPC   C3B34533   2.856   0.198   7.950
 6978POPC   C4B34534   2.919   0.219   7.650
 6979POPC   NC334535  43.852  13.677   9.450
 6979POPC   PO434536  43.901  13.608   9.150
 6979POPC   GL134537  43.858  13.664   8.850
 6979POPC   GL234538  44.031  13.653   8.850
 6979POPC   C1A34539  43.889  13.591   8.550
 6979POPC   D2A34540  43.881  13.593   8.250
 6979POPC   C3A34541  43.913  13.610   7.950
 6979POPC   C4A34542  43.922  13.616   7.650
 6979POPC   C1B34543  44.089  13.784   8.550
 6979POPC   C2B34544  44.113  13.744   8.250
 6979POPC   C3B34545  44.119  13.719   7.950
 6979POPC   C4B34546  44.084  13.794   7.650
 6980POPC   NC334547  43.879   8.949   9.450
 6980POPC   PO434548  43.888   8.958   9.150
 6980POPC   GL134549  43.851   8.982   8.850
 6980POPC   GL234550  44.036   8.891   8.850
 6980POPC   C1A34551  43.886   8.950   8.550
 6980POPC   D2A34552  43.899   8.985   8.250
 6980POPC   C3A34553  43.900   9.016   7.950
 6980POPC   C4A34554  43.855   8.957   7.650
 6980POPC   C1B34555  44.131   8.830   8.550
 6980POPC   C2B34556  44.072   8.827   8.250
 6980POPC   C3B34557  44.062   8.832   7.950
 6980POPC   C4B34558  44.084   8.890   7.650
 6981POPC   NC334559   3.494  22.147   9.450
 6981POPC   PO434560   3.565  22.159   9.150
 6981POPC   GL134561   3.512  22.116   8.850
 6981POPC   GL234562   3.422  22.097   8.850
 6981POPC   C1A34563   3.558  22.165   8.550
 6981POPC   D2A34564   3.519  22.195   8.250
 6981POPC   C3A34565   3.585  22.201   7.950
 6981POPC   C4A34566   3.531  22.141   7.650
 6981POPC   C1B34567   3.268  22.050   8.550
 6981POPC   C2B34568   3.289  22.045   8.250
 6981POPC   C3B34569   3.297  22.048   7.950
 6981POPC   C4B34570   3.310  22.049   7.650
 6982POPC   NC334571  26.032  44.648   9.450
 6982POPC   PO434572  26.039  44.631   9.150
 6982POPC   GL134573  26.073  44.707   8.850
 6982POPC   GL234574  25.976  44.826   8.850
 6982POPC   C1A34575  26.020  44.677   8.550
 6982POPC   D2A34576  26.063  44.710   8.250
 6982POPC   C3A34577  26.031  44.693   7.950
 6982POPC   C4A34578  26.062  44.708   7.650
 6982POPC   C1B34579  25.932  44.922   8.550
 6982POPC   C2B34580  25.989  44.935   8.250
 6982POPC   C3B34581  25.932  44.866   7.950
 6982POPC   C4B34582  25.981  44.901   7.650
 6983POPC   NC334583  16.780  32.993   9.450
 6983POPC   PO434584  16.706  33.053   9.150
 6983POPC   GL134585  16.710  33.023   8.850
 6983POPC   GL234586  16.739  33.152   8.850
 6983POPC   C1A34587  16.706  33.049   8.550
 6983POPC   D2A34588  16.778  32.991   8.250
 6983POPC   C3A34589  16.773  33.004   7.950
 6983POPC   C4A34590  16.698  33.032   7.650
 6983POPC   C1B34591  16.643  33.234   8.550
 6983POPC   C2B34592  16.613  33.268   8.250
 6983POPC   C3B34593  16.644  33.228   7.950
 6983POPC   C4B34594  16.678  33.236   7.650
 6984POPC   NC334595  41.602  15.224   9.450
 6984POPC   PO434596  41.559  15.140   9.150
 6984POPC   GL134597  41.548  15.172   8.850
 6984POPC   GL234598  41.446  15.171   8.850
 6984POPC   C1A34599  41.532  15.224   8.550
 6984POPC   D2A34600  41.551  15.132   8.250
 6984POPC   C3A34601  41.596  15.195   7.950
 6984POPC   C4A34602  41.564  15.184   7.650
 6984POPC   C1B34603  41.364  15.026   8.550
 6984POPC   C2B34604  41.328  15.120   8.250
 6984POPC   C3B34605  41.314  15.086   7.950
 6984POPC   C4B34606  41.320  15.060   7.650
 6985POPC   NC334607   8.190   9.020   9.450
 6985POPC   PO434608   8.170   9.014   9.150
 6985POPC   GL134609   8.197   8.984   8.850
 6985POPC   GL234610   8.342   8.994   8.850
 6985POPC   C1A34611   8.211   9.015   8.550
 6985POPC   D2A34612   8.219   8.960   8.250
 6985POPC   C3A34613   8.246   9.008   7.950
 6985POPC   C4A34614   8.160   8.933   7.650
 6985POPC   C1B34615   8.448   9.038   8.550
 6985POPC   C2B34616   8.493   9.040   8.250
 6985POPC   C3B34617   8.441   8.991   7.950
 6985POPC   C4B34618   8.450   9.005   7.650
 6986POPC   NC334619   9.771   1.982   9.450
 6986POPC   PO434620   9.712   2.015   9.150
 6986POPC   GL134621   9.757   1.944   8.850
 6986POPC   GL234622   9.822   2.102   8.850
 6986POPC   C1A34623   9.728   2.027   8.550
 6986POPC   D2A34624   9.706   2.033   8.250
 6986POPC   C3A34625   9.777   1.982   7.950
 6986POPC   C4A34626   9.795   2.037   7.650
 6986POPC   C1B34627   9.952   2.154   8.550
 6986POPC   C2B34628   9.997   2.146   8.250
 6986POPC   C3B34629   9.948   2.154   7.950
 6986POPC   C4B34630   9.934   2.128   7.650
 6987POPC   NC334631  42.341  27.598   9.450
 6987POPC   PO434632  42.359  27.640   9.150
 6987POPC   GL134633  42.375  27.626   8.850
 6987POPC   GL234634  42.261  27.668   8.850
 6987POPC   C1A34635  42.382  27.545   8.550
 6987POPC   D2A34636  42.330  27.606   8.250
 6987POPC   C3A34637  42.296  27.631   7.950
 6987POPC   C4A34638  42.342  27.615   7.650
 6987POPC   C1B34639  42.175  27.785   8.550
 6987POPC   C2B34640  42.217  27.779   8.250
 6987POPC   C3B34641  42.188  27.811   7.950
 6987POPC   C4B34642  42.220  27.840   7.650
 6988POPC   NC334643   2.753  24.525   9.450
 6988POPC   PO434644   2.793  24.477   9.150
 6988POPC   GL134645   2.814  24.496   8.850
 6988POPC   GL234646   2.667  24.587   8.850
 6988POPC   C1A34647   2.778  24.512   8.550
 6988POPC   D2A34648   2.734  24.510   8.250
 6988POPC   C3A34649   2.810  24.509   7.950
 6988POPC   C4A34650   2.803  24.464   7.650
 6988POPC   C1B34651   2.512  24.650   8.550
 6988POPC   C2B34652   2.580  24.581   8.250
 6988POPC   C3B34653   2.520  24.658   7.950
 6988POPC   C4B34654   2.511  24.653   7.650
 6989POPC   NC334655  19.017   8.983   9.450
 6989POPC   PO434656  19.051   8.998   9.150
 6989POPC   GL134657  19.093   8.959   8.850
 6989POPC   GL234658  18.983   8.987   8.850
 6989POPC   C1A34659  19.077   8.939   8.550
 6989POPC   D2A34660  19.011   8.939   8.250
 6989POPC   C3A34661  19.023   8.932   7.950
 6989POPC   C4A34662  19.024   8.924   7.650
 6989POPC   C1B34663  18.783   8.939   8.550
 6989POPC   C2B34664  18.810   9.011   8.250
 6989POPC   C3B34665  18.803   8.960   7.950
 6989POPC   C4B34666  18.794   9.010   7.650
 6990POPC   NC334667   2.028   2.024   9.450
 6990POPC   PO434668   2.012   2.002   9.150
 6990POPC   GL134669   1.980   2.020   8.850
 6990POPC   GL234670   2.071   1.988   8.850
 6990POPC   C1A34671   2.013   1.982   8.550
 6990POPC   D2A34672   1.977   1.972   8.250
 6990POPC   C3A34673   1.951   1.968   7.950
 6990POPC   C4A34674   1.956   2.031   7.650
 6990POPC   C1B34675   2.256   1.968   8.550
 6990POPC   C2B34676   2.193   1.932   8.250
 6990POPC   C3B34677   2.203   1.915   7.950
 6990POPC   C4B34678   2.267   1.946   7.650
 6991POPC   NC334679  32.253  26.016   9.450
 6991POPC   PO434680  32.279  26.021   9.150
 6991POPC   GL134681  32.276  25.992   8.850
 6991POPC   GL234682  32.270  26.144   8.850
 6991POPC   C1A34683  32.200  26.069   8.550
 6991POPC   D2A34684  32.250  26.028   8.250
 6991POPC   C3A34685  32.267  26.002   7.950
 6991POPC   C4A34686  32.249  26.064   7.650
 6991POPC   C1B34687  32.264  26.291   8.550
 6991POPC   C2B34688  32.274  26.259   8.250
 6991POPC   C3B34689  32.325  26.324   7.950
 6991POPC   C4B34690  32.229  26.314   7.650
 6992POPC   NC334691  15.920  31.516   9.450
 6992POPC   PO434692  15.948  31.485   9.150
 6992POPC   GL134693  15.981  31.430   8.850
 6992POPC   GL234694  16.061  31.541   8.850
 6992POPC   C1A34695  15.996  31.437   8.550
 6992POPC   D2A34696  15.971  31.491   8.250
 6992POPC   C3A34697  15.992  31.436   7.950
 6992POPC   C4A34698  15.924  31.478   7.650
 6992POPC   C1B34699  16.157  31.547   8.550
 6992POPC   C2B34700  16.150  31.626   8.250
 6992POPC   C3B34701  16.185  31.626   7.950
 6992POPC   C4B34702  16.181  31.620   7.650
 6993POPC   NC334703   8.930  26.770   9.450
 6993POPC   PO434704   8.936  26.818   9.150
 6993POPC   GL134705   9.006  26.785   8.850
 6993POPC   GL234706   8.840  26.845   8.850
 6993POPC   C1A34707   8.984  26.798   8.550
 6993POPC   D2A34708   8.993  26.842   8.250
 6993POPC   C3A34709   8.971  26.804   7.950
 6993POPC   C4A34710   9.006  26.799   7.650
 6993POPC   C1B34711   8.746  26.844   8.550
 6993POPC   C2B34712   8.752  26.842   8.250
 6993POPC   C3B34713   8.697  26.856   7.950
 6993POPC   C4B34714   8.699  26.825   7.650
 6994POPC   NC334715  27.557  14.356   9.450
 6994POPC   PO434716  27.559  14.445   9.150
 6994POPC   GL134717  27.610  14.391   8.850
 6994POPC   GL234718  27.726  14.521   8.850
 6994POPC   C1A34719  27.588  14.441   8.550
 6994POPC   D2A34720  27.571  14.404   8.250
 6994POPC   C3A34721  27.643  14.434   7.950
 6994POPC   C4A34722  27.554  14.400   7.650
 6994POPC   C1B34723  27.741  14.579   8.550
 6994POPC   C2B34724  27.755  14.581   8.250
 6994POPC   C3B34725  27.818  14.520   7.950
 6994POPC   C4B34726  27.830  14.575   7.650
 6995POPC   NC334727  30.652  36.083   9.450
 6995POPC   PO434728  30.651  36.088   9.150
 6995POPC   GL134729  30.716  36.114   8.850
 6995POPC   GL234730  30.722  35.971   8.850
 6995POPC   C1A34731  30.743  36.119   8.550
 6995POPC   D2A34732  30.675  36.114   8.250
 6995POPC   C3A34733  30.669  36.121   7.950
 6995POPC   C4A34734  30.658  36.172   7.650
 6995POPC   C1B34735  30.785  35.844   8.550
 6995POPC   C2B34736  30.770  35.857   8.250
 6995POPC   C3B34737  30.818  35.853   7.950
 6995POPC   C4B34738  30.752  35.939   7.650
 6996POPC   NC334739  24.492  16.706   9.450
 6996POPC   PO434740  24.487  16.711   9.150
 6996POPC   GL134741  24.511  16.690   8.850
 6996POPC   GL234742  24.478  16.865   8.850
 6996POPC   C1A34743  24.509  16.710   8.550
 6996POPC   D2A34744  24.518  16.684   8.250
 6996POPC   C3A34745  24.462  16.691   7.950
 6996POPC   C4A34746  24.538  16.751   7.650
 6996POPC   C1B34747  24.501  16.958   8.550
 6996POPC   C2B34748  24.506  16.926   8.250
 6996POPC   C3B34749  24.505  16.935   7.950
 6996POPC   C4B34750  24.510  17.022   7.650
 6997POPC   NC334751   8.987   2.746   9.450
 6997POPC   PO434752   9.003   2.753   9.150
 6997POPC   GL134753   9.016   2.753   8.850
 6997POPC   GL234754   9.089   2.788   8.850
 6997POPC   C1A34755   8.976   2.815   8.550
 6997POPC   D2A34756   8.934   2.753   8.250
 6997POPC   C3A34757   8.995   2.739   7.950
 6997POPC   C4A34758   8.931   2.809   7.650
 6997POPC   C1B34759   9.226   2.845   8.550
 6997POPC   C2B34760   9.243   2.812   8.250
 6997POPC   C3B34761   9.204   2.855   7.950
 6997POPC   C4B34762   9.259   2.845   7.650
 6998POPC   NC334763  22.128  23.677   9.450
 6998POPC   PO434764  22.165  23.732   9.150
 6998POPC   GL134765  22.177  23.727   8.850
 6998POPC   GL234766  22.104  23.843   8.850
 6998POPC   C1A34767  22.168  23.719   8.550
 6998POPC   D2A34768  22.212  23.733   8.250
 6998POPC   C3A34769  22.197  23.760   7.950
 6998POPC   C4A34770  22.128  23.674   7.650
 6998POPC   C1B34771  21.961  23.896   8.550
 6998POPC   C2B34772  22.006  23.922   8.250
 6998POPC   C3B34773  21.953  23.858   7.950
 6998POPC   C4B34774  21.940  23.923   7.650
 6999POPC   NC334775  12.091  21.418   9.450
 6999POPC   PO434776  12.043  21.361   9.150
 6999POPC   GL134777  12.109  21.339   8.850
 6999POPC   GL234778  12.226  21.424   8.850
 6999POPC   C1A34779  12.060  21.381   8.550
 6999POPC   D2A34780  12.029  21.415   8.250
 6999POPC   C3A34781  12.028  21.344   7.950
 6999POPC   C4A34782  12.049  21.432   7.650
 6999POPC   C1B34783  12.326  21.527   8.550
 6999POPC   C2B34784  12.287  21.532   8.250
 6999POPC   C3B34785  12.282  21.526   7.950
 6999POPC   C4B34786  12.290  21.523   7.650
 7000POPC   NC334787  37.727  11.320   9.450
 7000POPC   PO434788  37.707  11.279   9.150
 7000POPC   GL134789  37.687  11.305   8.850
 7000POPC   GL234790  37.795  11.255   8.850
 7000POPC   C1A34791  37.631  11.264   8.550
 7000POPC   D2A34792  37.717  11.268   8.250
 7000POPC   C3A34793  37.659  11.291   7.950
 7000POPC   C4A34794  37.675  11.296   7.650
 7000POPC   C1B34795  37.920  11.241   8.550
 7000POPC   C2B34796  37.958  11.260   8.250
 7000POPC   C3B34797  37.921  11.279   7.950
 7000POPC   C4B34798  37.896  11.310   7.650
 7001POPC   NC334799  43.885  12.825   9.450
 7001POPC   PO434800  43.881  12.869   9.150
 7001POPC   GL134801  43.893  12.848   8.850
 7001POPC   GL234802  43.918  12.723   8.850
 7001POPC   C1A34803  43.874  12.848   8.550
 7001POPC   D2A34804  43.898  12.874   8.250
 7001POPC   C3A34805  43.863  12.895   7.950
 7001POPC   C4A34806  43.877  12.878   7.650
 7001POPC   C1B34807  44.089  12.624   8.550
 7001POPC   C2B34808  44.076  12.711   8.250
 7001POPC   C3B34809  44.080  12.663   7.950
 7001POPC   C4B34810  44.077  12.631   7.650
 7002POPC   NC334811   8.196  43.108   9.450
 7002POPC   PO434812   8.245  43.103   9.150
 7002POPC   GL134813   8.238  43.144   8.850
 7002POPC   GL234814   8.327  43.155   8.850
 7002POPC   C1A34815   8.208  43.104   8.550
 7002POPC   D2A34816   8.220  43.091   8.250
 7002POPC   C3A34817   8.231  43.083   7.950
 7002POPC   C4A34818   8.222  43.105   7.650
 7002POPC   C1B34819   8.343  43.284   8.550
 7002POPC   C2B34820   8.394  43.342   8.250
 7002POPC   C3B34821   8.324  43.326   7.950
 7002POPC   C4B34822   8.324  43.266   7.650
 7003POPC   NC334823  21.401   0.451   9.450
 7003POPC   PO434824  21.360   0.454   9.150
 7003POPC   GL134825  21.402   0.393   8.850
 7003POPC   GL234826  21.437   0.558   8.850
 7003POPC   C1A34827  21.422   0.482   8.550
 7003POPC   D2A34828  21.385   0.430   8.250
 7003POPC   C3A34829  21.401   0.426   7.950
 7003POPC   C4A34830  21.405   0.438   7.650
 7003POPC   C1B34831  21.388   0.652   8.550
 7003POPC   C2B34832  21.383   0.712   8.250
 7003POPC   C3B34833  21.447   0.692   7.950
 7003POPC   C4B34834  21.384   0.689   7.650
 7004POPC   NC334835  43.869  18.236   9.450
 7004POPC   PO434836  43.930  18.251   9.150
 7004POPC   GL134837  43.932  18.297   8.850
 7004POPC   GL234838  43.814  18.373   8.850
 7004POPC   C1A34839  43.859  18.278   8.550
 7004POPC   D2A34840  43.842  18.297   8.250
 7004POPC   C3A34841  43.899  18.273   7.950
 7004POPC   C4A34842  43.929  18.289   7.650
 7004POPC   C1B34843  43.840  18.474   8.550
 7004POPC   C2B34844  43.801  18.531   8.250
 7004POPC   C3B34845  43.808  18.551   7.950
 7004POPC   C4B34846  43.840  18.530   7.650
 7005POPC   NC334847   8.186   8.151   9.450
 7005POPC   PO434848   8.150   8.180   9.150
 7005POPC   GL134849   8.202   8.148   8.850
 7005POPC   GL234850   8.191   8.294   8.850
 7005POPC   C1A34851   8.235   8.161   8.550
 7005POPC   D2A34852   8.179   8.194   8.250
 7005POPC   C3A34853   8.173   8.172   7.950
 7005POPC   C4A34854   8.152   8.218   7.650
 7005POPC   C1B34855   8.213   8.397   8.550
 7005POPC   C2B34856   8.228   8.476   8.250
 7005POPC   C3B34857   8.266   8.419   7.950
 7005POPC   C4B34858   8.247   8.478   7.650
 7006POPC   NC334859   0.458  40.797   9.450
 7006POPC   PO434860   0.448  40.772   9.150
 7006POPC   GL134861   0.463  40.747   8.850
 7006POPC   GL234862   0.387  40.920   8.850
 7006POPC   C1A34863   0.458  40.798   8.550
 7006POPC   D2A34864   0.467  40.743   8.250
 7006POPC   C3A34865   0.412  40.777   7.950
 7006POPC   C4A34866   0.447  40.748   7.650
 7006POPC   C1B34867   0.424  41.050   8.550
 7006POPC   C2B34868   0.396  40.992   8.250
 7006POPC   C3B34869   0.379  41.029   7.950
 7006POPC   C4B34870   0.448  41.071   7.650
 7007POPC   NC334871   5.842   4.296   9.450
 7007POPC   PO434872   5.834   4.274   9.150
 7007POPC   GL134873   5.864   4.318   8.850
 7007POPC   GL234874   5.747   4.386   8.850
 7007POPC   C1A34875   5.858   4.297   8.550
 7007POPC   D2A34876   5.905   4.323   8.250
 7007POPC   C3A34877   5.832   4.348   7.950
 7007POPC   C4A34878   5.895   4.269   7.650
 7007POPC   C1B34879   5.657   4.342   8.550
 7007POPC   C2B34880   5.636   4.381   8.250
 7007POPC   C3B34881   5.657   4.359   7.950
 7007POPC   C4B34882   5.599   4.351   7.650
 7008POPC   NC334883  11.273  10.497   9.450
 7008POPC   PO434884  11.323  10.513   9.150
 7008POPC   GL134885  11.316  10.574   8.850
 7008POPC   GL234886  11.186  10.636   8.850
 7008POPC   C1A34887  11.307  10.505   8.550
 7008POPC   D2A34888  11.272  10.498   8.250
 7008POPC   C3A34889  11.338  10.528   7.950
 7008POPC   C4A34890  11.350  10.524   7.650
 7008POPC   C1B34891  11.136  10.707   8.550
 7008POPC   C2B34892  11.163  10.714   8.250
 7008POPC   C3B34893  11.133  10.758   7.950
 7008POPC   C4B34894  11.145  10.716   7.650
 7009POPC   NC334895  44.612   5.049   9.450
 7009POPC   PO434896  44.662   5.109   9.150
 7009POPC   GL134897  44.646   5.072   8.850
 7009POPC   GL234898  44.560   4.999   8.850
 7009POPC   C1A34899  44.615   5.108   8.550
 7009POPC   D2A34900  44.696   5.060   8.250
 7009POPC   C3A34901  44.679   5.060   7.950
 7009POPC   C4A34902  44.688   5.077   7.650
 7009POPC   C1B34903  44.488   4.897   8.550
 7009POPC   C2B34904  44.522   4.919   8.250
 7009POPC   C3B34905  44.442   4.965   7.950
 7009POPC   C4B34906  44.516   4.923   7.650
 7010POPC   NC334907  43.135  27.605   9.450
 7010POPC   PO434908  43.108  27.641   9.150
 7010POPC   GL134909  43.101  27.620   8.850
 7010POPC   GL234910  43.037  27.709   8.850
 7010POPC   C1A34911  43.080  27.604   8.550
 7010POPC   D2A34912  43.152  27.600   8.250
 7010POPC   C3A34913  43.079  27.621   7.950
 7010POPC   C4A34914  43.105  27.559   7.650
 7010POPC   C1B34915  42.952  27.820   8.550
 7010POPC   C2B34916  43.034  27.828   8.250
 7010POPC   C3B34917  43.037  27.802   7.950
 7010POPC   C4B34918  42.969  27.797   7.650
 7011POPC   NC334919  39.277   7.410   9.450
 7011POPC   PO434920  39.258   7.465   9.150
 7011POPC   GL134921  39.192   7.406   8.850
 7011POPC   GL234922  39.268   7.339   8.850
 7011POPC   C1A34923  39.253   7.422   8.550
 7011POPC   D2A34924  39.255   7.469   8.250
 7011POPC   C3A34925  39.205   7.428   7.950
 7011POPC   C4A34926  39.278   7.403   7.650
 7011POPC   C1B34927  39.295   7.175   8.550
 7011POPC   C2B34928  39.282   7.160   8.250
 7011POPC   C3B34929  39.308   7.151   7.950
 7011POPC   C4B34930  39.294   7.161   7.650
 7012POPC   NC334931  31.504   7.373   9.450
 7012POPC   PO434932  31.448   7.446   9.150
 7012POPC   GL134933  31.453   7.442   8.850
 7012POPC   GL234934  31.528   7.483   8.850
 7012POPC   C1A34935  31.425   7.452   8.550
 7012POPC   D2A34936  31.476   7.419   8.250
 7012POPC   C3A34937  31.500   7.431   7.950
 7012POPC   C4A34938  31.458   7.398   7.650
 7012POPC   C1B34939  31.635   7.640   8.550
 7012POPC   C2B34940  31.617   7.606   8.250
 7012POPC   C3B34941  31.653   7.645   7.950
 7012POPC   C4B34942  31.603   7.579   7.650
 7013POPC   NC334943  39.255  12.857   9.450
 7013POPC   PO434944  39.240  12.804   9.150
 7013POPC   GL134945  39.264  12.882   8.850
 7013POPC   GL234946  39.158  12.717   8.850
 7013POPC   C1A34947  39.264  12.878   8.550
 7013POPC   D2A34948  39.225  12.805   8.250
 7013POPC   C3A34949  39.193  12.857   7.950
 7013POPC   C4A34950  39.272  12.870   7.650
 7013POPC   C1B34951  39.152  12.601   8.550
 7013POPC   C2B34952  39.185  12.604   8.250
 7013POPC   C3B34953  39.164  12.590   7.950
 7013POPC   C4B34954  39.135  12.615   7.650
 7014POPC   NC334955  14.441   9.720   9.450
 7014POPC   PO434956  14.392   9.743   9.150
 7014POPC   GL134957  14.359   9.715   8.850
 7014POPC   GL234958  14.442   9.823   8.850
 7014POPC   C1A34959  14.430   9.751   8.550
 7014POPC   D2A34960  14.409   9.779   8.250
 7014POPC   C3A34961  14.357   9.788   7.950
 7014POPC   C4A34962  14.407   9.760   7.650
 7014POPC   C1B34963  14.582   9.936   8.550
 7014POPC   C2B34964  14.484   9.912   8.250
 7014POPC   C3B34965  14.564   9.952   7.950
 7014POPC   C4B34966  14.553   9.953   7.650
 7015POPC   NC334967  29.186  27.545   9.450
 7015POPC   PO434968  29.181  27.614   9.150
 7015POPC   GL134969  29.128  27.612   8.850
 7015POPC   GL234970  29.002  27.575   8.850
 7015POPC   C1A34971  29.175  27.630   8.550
 7015POPC   D2A34972  29.164  27.610   8.250
 7015POPC   C3A34973  29.164  27.558   7.950
 7015POPC   C4A34974  29.118  27.577   7.650
 7015POPC   C1B34975  28.873  27.624   8.550
 7015POPC   C2B34976  28.933  27.591   8.250
 7015POPC   C3B34977  28.925  27.660   7.950
 7015POPC   C4B34978  28.943  27.597   7.650
 7016POPC   NC334979  43.115  20.577   9.450
 7016POPC   PO434980  43.073  20.656   9.150
 7016POPC   GL134981  43.140  20.636   8.850
 7016POPC   GL234982  42.988  20.588   8.850
 7016POPC   C1A34983  43.139  20.656   8.550
 7016POPC   D2A34984  43.093  20.602   8.250
 7016POPC   C3A34985  43.088  20.602   7.950
 7016POPC   C4A34986  43.079  20.576   7.650
 7016POPC   C1B34987  42.888  20.579   8.550
 7016POPC   C2B34988  42.858  20.555   8.250
 7016POPC   C3B34989  42.863  20.544   7.950
 7016POPC   C4B34990  42.855  20.553   7.650
 7017POPC   NC334991  11.267  19.847   9.450
 7017POPC   PO434992  11.319  19.797   9.150
 7017POPC   GL134993  11.343  19.811   8.850
 7017POPC   GL234994  11.268  19.937   8.850
 7017POPC   C1A34995  11.268  19.853   8.550
 7017POPC   D2A34996  11.348  19.858   8.250
 7017POPC   C3A34997  11.322  19.847   7.950
 7017POPC   C4A34998  11.311  19.798   7.650
 7017POPC   C1B34999  11.239  20.042   8.550
 7017POPC   C2B35000  11.280  20.109   8.250
 7017POPC   C3B35001  11.290  20.043   7.950
 7017POPC   C4B35002  11.249  20.123   7.650
 7018POPC   NC335003  39.270   8.957   9.450
 7018POPC   PO435004  39.240   9.018   9.150
 7018POPC   GL135005  39.256   8.994   8.850
 7018POPC   GL235006  39.107   9.003   8.850
 7018POPC   C1A35007  39.193   8.937   8.550
 7018POPC   D2A35008  39.214   8.955   8.250
 7018POPC   C3A35009  39.198   8.982   7.950
 7018POPC   C4A35010  39.243   9.017   7.650
 7018POPC   C1B35011  39.025   9.099   8.550
 7018POPC   C2B35012  39.031   9.146   8.250
 7018POPC   C3B35013  39.030   9.102   7.950
 7018POPC   C4B35014  38.975   9.106   7.650
 7019POPC   NC335015   5.108  41.605   9.450
 7019POPC   PO435016   5.141  41.571   9.150
 7019POPC   GL135017   5.074  41.537   8.850
 7019POPC   GL235018   5.238  41.565   8.850
 7019POPC   C1A35019   5.074  41.547   8.550
 7019POPC   D2A35020   5.134  41.521   8.250
 7019POPC   C3A35021   5.134  41.588   7.950
 7019POPC   C4A35022   5.065  41.578   7.650
 7019POPC   C1B35023   5.367  41.594   8.550
 7019POPC   C2B35024   5.388  41.552   8.250
 7019POPC   C3B35025   5.360  41.563   7.950
 7019POPC   C4B35026   5.357  41.557   7.650
 7020POPC   NC335027  39.181  38.428   9.450
 7020POPC   PO435028  39.210  38.480   9.150
 7020POPC   GL135029  39.208  38.414   8.850
 7020POPC   GL235030  39.096  38.544   8.850
 7020POPC   C1A35031  39.187  38.460   8.550
 7020POPC   D2A35032  39.270  38.451   8.250
 7020POPC   C3A35033  39.261  38.469   7.950
 7020POPC   C4A35034  39.237  38.438   7.650
 7020POPC   C1B35035  39.050  38.567   8.550
 7020POPC   C2B35036  39.002  38.649   8.250
 7020POPC   C3B35037  39.045  38.571   7.950
 7020POPC   C4B35038  39.058  38.632   7.650
 7021POPC   NC335039   7.417  16.711   9.450
 7021POPC   PO435040   7.385  16.683   9.150
 7021POPC   GL135041   7.371  16.751   8.850
 7021POPC   GL235042   7.467  16.811   8.850
 7021POPC   C1A35043   7.391  16.764   8.550
 7021POPC   D2A35044   7.406  16.764   8.250
 7021POPC   C3A35045   7.416  16.715   7.950
 7021POPC   C4A35046   7.440  16.686   7.650
 7021POPC   C1B35047   7.523  16.929   8.550
 7021POPC   C2B35048   7.517  16.985   8.250
 7021POPC   C3B35049   7.478  17.020   7.950
 7021POPC   C4B35050   7.452  16.942   7.650
 7022POPC   NC335051  31.472  40.052   9.450
 7022POPC   PO435052  31.481  39.998   9.150
 7022POPC   GL135053  31.479  39.973   8.850
 7022POPC   GL235054  31.564  39.905   8.850
 7022POPC   C1A35055  31.479  39.983   8.550
 7022POPC   D2A35056  31.449  40.039   8.250
 7022POPC   C3A35057  31.480  40.026   7.950
 7022POPC   C4A35058  31.451  39.979   7.650
 7022POPC   C1B35059  31.694  39.879   8.550
 7022POPC   C2B35060  31.642  39.851   8.250
 7022POPC   C3B35061  31.621  39.884   7.950
 7022POPC   C4B35062  31.701  39.842   7.650
 7023POPC   NC335063  29.121  21.396   9.450
 7023POPC   PO435064  29.167  21.417   9.150
 7023POPC   GL135065  29.115  21.347   8.850
 7023POPC   GL235066  29.121  21.472   8.850
 7023POPC   C1A35067  29.135  21.365   8.550
 7023POPC   D2A35068  29.138  21.392   8.250
 7023POPC   C3A35069  29.157  21.390   7.950
 7023POPC   C4A35070  29.134  21.383   7.650
 7023POPC   C1B35071  29.155  21.648   8.550
 7023POPC   C2B35072  29.101  21.598   8.250
 7023POPC   C3B35073  29.141  21.658   7.950
 7023POPC   C4B35074  29.107  21.624   7.650
 7024POPC   NC335075  21.336  10.518   9.450
 7024POPC   PO435076  21.397  10.498   9.150
 7024POPC   GL135077  21.365  10.488   8.850
 7024POPC   GL235078  21.396  10.403   8.850
 7024POPC   C1A35079  21.366  10.554   8.550
 7024POPC   D2A35080  21.426  10.486   8.250
 7024POPC   C3A35081  21.379  10.492   7.950
 7024POPC   C4A35082  21.434  10.529   7.650
 7024POPC   C1B35083  21.300  10.302   8.550
 7024POPC   C2B35084  21.356  10.273   8.250
 7024POPC   C3B35085  21.287  10.325   7.950
 7024POPC   C4B35086  21.345  10.243   7.650
 7025POPC   NC335087   2.737  15.983   9.450
 7025POPC   PO435088   2.775  15.912   9.150
 7025POPC   GL135089   2.761  15.989   8.850
 7025POPC   GL235090   2.917  15.957   8.850
 7025POPC   C1A35091   2.806  15.981   8.550
 7025POPC   D2A35092   2.731  15.965   8.250
 7025POPC   C3A35093   2.795  15.919   7.950
 7025POPC   C4A35094   2.742  15.999   7.650
 7025POPC   C1B35095   2.967  15.905   8.550
 7025POPC   C2B35096   3.050  15.876   8.250
 7025POPC   C3B35097   3.032  15.914   7.950
 7025POPC   C4B35098   2.997  15.912   7.650
 7026POPC   NC335099   3.512  13.648   9.450
 7026POPC   PO435100   3.553  13.605   9.150
 7026POPC   GL135101   3.548  13.626   8.850
 7026POPC   GL235102   3.576  13.537   8.850
 7026POPC   C1A35103   3.565  13.677   8.550
 7026POPC   D2A35104   3.583  13.675   8.250
 7026POPC   C3A35105   3.565  13.601   7.950
 7026POPC   C4A35106   3.546  13.580   7.650
 7026POPC   C1B35107   3.725  13.412   8.550
 7026POPC   C2B35108   3.700  13.412   8.250
 7026POPC   C3B35109   3.678  13.387   7.950
 7026POPC   C4B35110   3.674  13.471   7.650
 7027POPC   NC335111  22.210  35.319   9.450
 7027POPC   PO435112  22.177  35.398   9.150
 7027POPC   GL135113  22.145  35.392   8.850
 7027POPC   GL235114  22.271  35.357   8.850
 7027POPC   C1A35115  22.113  35.372   8.550
 7027POPC   D2A35116  22.209  35.348   8.250
 7027POPC   C3A35117  22.188  35.381   7.950
 7027POPC   C4A35118  22.166  35.397   7.650
 7027POPC   C1B35119  22.395  35.394   8.550
 7027POPC   C2B35120  22.397  35.343   8.250
 7027POPC   C3B35121  22.427  35.360   7.950
 7027POPC   C4B35122  22.397  35.401   7.650
 7028POPC   NC335123  33.806  32.199   9.450
 7028POPC   PO435124  33.767  32.242   9.150
 7028POPC   GL135125  33.840  32.210   8.850
 7028POPC   GL235126  33.871  32.376   8.850
 7028POPC   C1A35127  33.847  32.251   8.550
 7028POPC   D2A35128  33.812  32.211   8.250
 7028POPC   C3A35129  33.850  32.244   7.950
 7028POPC   C4A35130  33.797  32.228   7.650
 7028POPC   C1B35131  33.962  32.465   8.550
 7028POPC   C2B35132  33.948  32.411   8.250
 7028POPC   C3B35133  33.968  32.473   7.950
 7028POPC   C4B35134  33.914  32.476   7.650
 7029POPC   NC335135  37.660  10.519   9.450
 7029POPC   PO435136  37.700  10.558   9.150
 7029POPC   GL135137  37.699  10.567   8.850
 7029POPC   GL235138  37.645  10.600   8.850
 7029POPC   C1A35139  37.697  10.568   8.550
 7029POPC   D2A35140  37.661  10.487   8.250
 7029POPC   C3A35141  37.669  10.561   7.950
 7029POPC   C4A35142  37.662  10.495   7.650
 7029POPC   C1B35143  37.475  10.705   8.550
 7029POPC   C2B35144  37.552  10.667   8.250
 7029POPC   C3B35145  37.502  10.704   7.950
 7029POPC   C4B35146  37.543  10.689   7.650
 7030POPC   NC335147  39.979   6.668   9.450
 7030POPC   PO435148  40.031   6.600   9.150
 7030POPC   GL135149  40.044   6.680   8.850
 7030POPC   GL235150  40.083   6.659   8.850
 7030POPC   C1A35151  39.987   6.679   8.550
 7030POPC   D2A35152  39.980   6.633   8.250
 7030POPC   C3A35153  39.996   6.606   7.950
 7030POPC   C4A35154  40.053   6.631   7.650
 7030POPC   C1B35155  40.201   6.706   8.550
 7030POPC   C2B35156  40.195   6.753   8.250
 7030POPC   C3B35157  40.255   6.709   7.950
 7030POPC   C4B35158  40.243   6.736   7.650
 7031POPC   NC335159  33.059  24.478   9.450
 7031POPC   PO435160  33.069  24.467   9.150
 7031POPC   GL135161  33.064  24.485   8.850
 7031POPC   GL235162  33.114  24.449   8.850
 7031POPC   C1A35163  33.045  24.483   8.550
 7031POPC   D2A35164  33.048  24.495   8.250
 7031POPC   C3A35165  33.023  24.500   7.950
 7031POPC   C4A35166  32.978  24.456   7.650
 7031POPC   C1B35167  33.324  24.529   8.550
 7031POPC   C2B35168  33.265  24.535   8.250
 7031POPC   C3B35169  33.248  24.512   7.950
 7031POPC   C4B35170  33.241  24.514   7.650
 7032POPC   NC335171   3.587  18.299   9.450
 7032POPC   PO435172   3.502  18.252   9.150
 7032POPC   GL135173   3.554  18.296   8.850
 7032POPC   GL235174   3.617  18.243   8.850
 7032POPC   C1A35175   3.587  18.331   8.550
 7032POPC   D2A35176   3.511  18.323   8.250
 7032POPC   C3A35177   3.560  18.244   7.950
 7032POPC   C4A35178   3.506  18.307   7.650
 7032POPC   C1B35179   3.769  18.221   8.550
 7032POPC   C2B35180   3.809  18.249   8.250
 7032POPC   C3B35181   3.743  18.310   7.950
 7032POPC   C4B35182   3.767  18.248   7.650
 7033POPC   NC335183  10.503   6.636   9.450
 7033POPC   PO435184  10.569   6.653   9.150
 7033POPC   GL135185  10.531   6.609   8.850
 7033POPC   GL235186  10.596   6.735   8.850
 7033POPC   C1A35187  10.544   6.614   8.550
 7033POPC   D2A35188  10.528   6.606   8.250
 7033POPC   C3A35189  10.550   6.677   7.950
 7033POPC   C4A35190  10.500   6.694   7.650
 7033POPC   C1B35191  10.706   6.822   8.550
 7033POPC   C2B35192  10.732   6.829   8.250
 7033POPC   C3B35193  10.742   6.776   7.950
 7033POPC   C4B35194  10.726   6.818   7.650
 7034POPC   NC335195  25.276   1.237   9.450
 7034POPC   PO435196  25.284   1.169   9.150
 7034POPC   GL135197  25.294   1.192   8.850
 7034POPC   GL235198  25.287   1.102   8.850
 7034POPC   C1A35199  25.272   1.233   8.550
 7034POPC   D2A35200  25.288   1.191   8.250
 7034POPC   C3A35201  25.315   1.217   7.950
 7034POPC   C4A35202  25.216   1.260   7.650
 7034POPC   C1B35203  25.376   0.987   8.550
 7034POPC   C2B35204  25.313   0.978   8.250
 7034POPC   C3B35205  25.356   0.932   7.950
 7034POPC   C4B35206  25.321   0.933   7.650
 7035POPC   NC335207  27.551  40.034   9.450
 7035POPC   PO435208  27.548  40.026   9.150
 7035POPC   GL135209  27.624  39.986   8.850
 7035POPC   GL235210  27.515  39.858   8.850
 7035POPC   C1A35211  27.632  39.988   8.550
 7035POPC   D2A35212  27.564  40.018   8.250
 7035POPC   C3A35213  27.552  40.026   7.950
 7035POPC   C4A35214  27.579  40.023   7.650
 7035POPC   C1B35215  27.491  39.778   8.550
 7035POPC   C2B35216  27.465  39.760   8.250
 7035POPC   C3B35217  27.479  39.774   7.950
 7035POPC   C4B35218  27.413  39.759   7.650
 7036POPC   NC335219  36.903  33.850   9.450
 7036POPC   PO435220  36.861  33.759   9.150
 7036POPC   GL135221  36.925  33.830   8.850
 7036POPC   GL235222  36.940  33.645   8.850
 7036POPC   C1A35223  36.942  33.821   8.550
 7036POPC   D2A35224  36.871  33.759   8.250
 7036POPC   C3A35225  36.891  33.826   7.950
 7036POPC   C4A35226  36.936  33.769   7.650
 7036POPC   C1B35227  36.852  33.600   8.550
 7036POPC   C2B35228  36.913  33.569   8.250
 7036POPC   C3B35229  36.924  33.570   7.950
 7036POPC   C4B35230  36.854  33.535   7.650
 7037POPC   NC335231  29.193  36.860   9.450
 7037POPC   PO435232  29.163  36.899   9.150
 7037POPC   GL135233  29.106  36.891   8.850
 7037POPC   GL235234  29.192  36.985   8.850
 7037POPC   C1A35235  29.112  36.925   8.550
 7037POPC   D2A35236  29.144  36.931   8.250
 7037POPC   C3A35237  29.102  36.925   7.950
 7037POPC   C4A35238  29.168  36.863   7.650
 7037POPC   C1B35239  29.262  37.071   8.550
 7037POPC   C2B35240  29.329  37.102   8.250
 7037POPC   C3B35241  29.339  37.096   7.950
 7037POPC   C4B35242  29.327  37.094   7.650
 7038POPC   NC335243  37.698  33.801   9.450
 7038POPC   PO435244  37.661  33.767   9.150
 7038POPC   GL135245  37.721  33.756   8.850
 7038POPC   GL235246  37.672  33.948   8.850
 7038POPC   C1A35247  37.659  33.849   8.550
 7038POPC   D2A35248  37.723  33.827   8.250
 7038POPC   C3A35249  37.652  33.790   7.950
 7038POPC   C4A35250  37.648  33.836   7.650
 7038POPC   C1B35251  37.702  34.036   8.550
 7038POPC   C2B35252  37.637  34.021   8.250
 7038POPC   C3B35253  37.702  34.089   7.950
 7038POPC   C4B35254  37.660  34.094   7.650
 7039POPC   NC335255  26.867  19.884   9.450
 7039POPC   PO435256  26.808  19.848   9.150
 7039POPC   GL135257  26.774  19.841   8.850
 7039POPC   GL235258  26.669  19.817   8.850
 7039POPC   C1A35259  26.787  19.883   8.550
 7039POPC   D2A35260  26.805  19.853   8.250
 7039POPC   C3A35261  26.854  19.807   7.950
 7039POPC   C4A35262  26.835  19.814   7.650
 7039POPC   C1B35263  26.530  19.878   8.550
 7039POPC   C2B35264  26.580  19.884   8.250
 7039POPC   C3B35265  26.543  19.856   7.950
 7039POPC   C4B35266  26.547  19.908   7.650
 7040POPC   NC335267  24.480  33.839   9.450
 7040POPC   PO435268  24.463  33.830   9.150
 7040POPC   GL135269  24.458  33.823   8.850
 7040POPC   GL235270  24.346  33.808   8.850
 7040POPC   C1A35271  24.521  33.836   8.550
 7040POPC   D2A35272  24.501  33.786   8.250
 7040POPC   C3A35273  24.511  33.819   7.950
 7040POPC   C4A35274  24.449  33.771   7.650
 7040POPC   C1B35275  24.256  33.860   8.550
 7040POPC   C2B35276  24.204  33.842   8.250
 7040POPC   C3B35277  24.205  33.857   7.950
 7040POPC   C4B35278  24.222  33.844   7.650
 7041POPC   NC335279  22.190  32.280   9.450
 7041POPC   PO435280  22.164  32.235   9.150
 7041POPC   GL135281  22.190  32.281   8.850
 7041POPC   GL235282  22.185  32.127   8.850
 7041POPC   C1A35283  22.135  32.238   8.550
 7041POPC   D2A35284  22.148  32.251   8.250
 7041POPC   C3A35285  22.115  32.238   7.950
 7041POPC   C4A35286  22.160  32.295   7.650
 7041POPC   C1B35287  22.210  32.005   8.550
 7041POPC   C2B35288  22.150  32.027   8.250
 7041POPC   C3B35289  22.157  31.983   7.950
 7041POPC   C4B35290  22.179  32.023   7.650
 7042POPC   NC335291  33.778   1.980   9.450
 7042POPC   PO435292  33.833   1.955   9.150
 7042POPC   GL135293  33.784   2.018   8.850
 7042POPC   GL235294  33.716   2.047   8.850
 7042POPC   C1A35295  33.775   1.948   8.550
 7042POPC   D2A35296  33.849   1.952   8.250
 7042POPC   C3A35297  33.755   1.959   7.950
 7042POPC   C4A35298  33.830   1.970   7.650
 7042POPC   C1B35299  33.531   1.962   8.550
 7042POPC   C2B35300  33.516   2.046   8.250
 7042POPC   C3B35301  33.543   2.019   7.950
 7042POPC   C4B35302  33.565   1.965   7.650
 7043POPC   NC335303  30.718  26.769   9.450
 7043POPC   PO435304  30.739  26.862   9.150
 7043POPC   GL135305  30.661  26.831   8.850
 7043POPC   GL235306  30.615  26.770   8.850
 7043POPC   C1A35307  30.705  26.855   8.550
 7043POPC   D2A35308  30.672  26.798   8.250
 7043POPC   C3A35309  30.664  26.793   7.950
 7043POPC   C4A35310  30.680  26.791   7.650
 7043POPC   C1B35311  30.502  26.743   8.550
 7043POPC   C2B35312  30.457  26.748   8.250
 7043POPC   C3B35313  30.494  26.749   7.950
 7043POPC   C4B35314  30.417  26.728   7.650
 7044POPC   NC335315   3.590  26.835   9.450
 7044POPC   PO435316   3.588  26.843   9.150
 7044POPC   GL135317   3.582  26.816   8.850
 7044POPC   GL235318   3.617  26.880   8.850
 7044POPC   C1A35319   3.591  26.801   8.550
 7044POPC   D2A35320   3.557  26.821   8.250
 7044POPC   C3A35321   3.553  26.830   7.950
 7044POPC   C4A35322   3.583  26.824   7.650
 7044POPC   C1B35323   3.797  26.821   8.550
 7044POPC   C2B35324   3.815  26.848   8.250
 7044POPC   C3B35325   3.839  26.847   7.950
 7044POPC   C4B35326   3.814  26.875   7.650
 7045POPC   NC335327  44.644  28.363   9.450
 7045POPC   PO435328  44.701  28.355   9.150
 7045POPC   GL135329  44.665  28.372   8.850
 7045POPC   GL235330  44.605  28.293   8.850
 7045POPC   C1A35331  44.686  28.356   8.550
 7045POPC   D2A35332  44.658  28.366   8.250
 7045POPC   C3A35333  44.701  28.375   7.950
 7045POPC   C4A35334  44.627  28.325   7.650
 7045POPC   C1B35335  44.572  28.092   8.550
 7045POPC   C2B35336  44.632  28.168   8.250
 7045POPC   C3B35337  44.597  28.113   7.950
 7045POPC   C4B35338  44.641  28.080   7.650
 7046POPC   NC335339  13.632  22.935   9.450
 7046POPC   PO435340  13.655  22.889   9.150
 7046POPC   GL135341  13.654  22.942   8.850
 7046POPC   GL235342  13.621  23.046   8.850
 7046POPC   C1A35343  13.637  22.942   8.550
 7046POPC   D2A35344  13.650  22.984   8.250
 7046POPC   C3A35345  13.636  22.930   7.950
 7046POPC   C4A35346  13.597  22.966   7.650
 7046POPC   C1B35347  13.553  23.149   8.550
 7046POPC   C2B35348  13.573  23.186   8.250
 7046POPC   C3B35349  13.591  23.200   7.950
 7046POPC   C4B35350  13.533  23.183   7.650
 7047POPC   NC335351  27.624   1.239   9.450
 7047POPC   PO435352  27.552   1.173   9.150
 7047POPC   GL135353  27.617   1.223   8.850
 7047POPC   GL235354  27.766   1.210   8.850
 7047POPC   C1A35355  27.635   1.232   8.550
 7047POPC   D2A35356  27.578   1.221   8.250
 7047POPC   C3A35357  27.606   1.198   7.950
 7047POPC   C4A35358  27.612   1.229   7.650
 7047POPC   C1B35359  27.855   1.185   8.550
 7047POPC   C2B35360  27.885   1.123   8.250
 7047POPC   C3B35361  27.821   1.128   7.950
 7047POPC   C4B35362  27.884   1.210   7.650
 7048POPC   NC335363  12.827  36.876   9.450
 7048POPC   PO435364  12.870  36.944   9.150
 7048POPC   GL135365  12.878  36.913   8.850
 7048POPC   GL235366  12.802  36.783   8.850
 7048POPC   C1A35367  12.814  36.891   8.550
 7048POPC   D2A35368  12.881  36.904   8.250
 7048POPC   C3A35369  12.865  36.947   7.950
 7048POPC   C4A35370  12.877  36.940   7.650
 7048POPC   C1B35371  12.778  36.634   8.550
 7048POPC   C2B35372  12.775  36.671   8.250
 7048POPC   C3B35373  12.796  36.678   7.950
 7048POPC   C4B35374  12.789  36.706   7.650
 7049POPC   NC335375  17.498  43.078   9.450
 7049POPC   PO435376  17.499  43.106   9.150
 7049POPC   GL135377  17.478  43.150   8.850
 7049POPC   GL235378  17.504  43.216   8.850
 7049POPC   C1A35379  17.552  43.102   8.550
 7049POPC   D2A35380  17.521  43.071   8.250
 7049POPC   C3A35381  17.502  43.135   7.950
 7049POPC   C4A35382  17.474  43.105   7.650
 7049POPC   C1B35383  17.576  43.314   8.550
 7049POPC   C2B35384  17.582  43.357   8.250
 7049POPC   C3B35385  17.528  43.368   7.950
 7049POPC   C4B35386  17.587  43.329   7.650
 7050POPC   NC335387  15.913  33.755   9.450
 7050POPC   PO435388  15.944  33.845   9.150
 7050POPC   GL135389  15.946  33.805   8.850
 7050POPC   GL235390  15.841  33.822   8.850
 7050POPC   C1A35391  15.942  33.833   8.550
 7050POPC   D2A35392  15.957  33.762   8.250
 7050POPC   C3A35393  15.940  33.774   7.950
 7050POPC   C4A35394  15.911  33.790   7.650
 7050POPC   C1B35395  15.719  33.905   8.550
 7050POPC   C2B35396  15.751  33.944   8.250
 7050POPC   C3B35397  15.741  33.957   7.950
 7050POPC   C4B35398  15.750  33.904   7.650
 7051POPC   NC335399  42.371  10.511   9.450
 7051POPC   PO435400  42.301  10.512   9.150
 7051POPC   GL135401  42.352  10.573   8.850
 7051POPC   GL235402  42.209  10.501   8.850
 7051POPC   C1A35403  42.314  10.498   8.550
 7051POPC   D2A35404  42.298  10.540   8.250
 7051POPC   C3A35405  42.340  10.533   7.950
 7051POPC   C4A35406  42.381  10.547   7.650
 7051POPC   C1B35407  42.114  10.494   8.550
 7051POPC   C2B35408  42.128  10.479   8.250
 7051POPC   C3B35409  42.110  10.460   7.950
 7051POPC   C4B35410  42.073  10.477   7.650
 7052POPC   NC335411  22.953  15.217   9.450
 7052POPC   PO435412  22.897  15.160   9.150
 7052POPC   GL135413  22.978  15.179   8.850
 7052POPC   GL235414  22.797  15.120   8.850
 7052POPC   C1A35415  22.934  15.186   8.550
 7052POPC   D2A35416  22.963  15.154   8.250
 7052POPC   C3A35417  22.942  15.217   7.950
 7052POPC   C4A35418  22.955  15.159   7.650
 7052POPC   C1B35419  22.715  15.080   8.550
 7052POPC   C2B35420  22.660  15.173   8.250
 7052POPC   C3B35421  22.646  15.132   7.950
 7052POPC   C4B35422  22.699  15.161   7.650
 7053POPC   NC335423   2.806   8.172   9.450
 7053POPC   PO435424   2.740   8.230   9.150
 7053POPC   GL135425   2.752   8.211   8.850
 7053POPC   GL235426   2.701   8.129   8.850
 7053POPC   C1A35427   2.764   8.175   8.550
 7053POPC   D2A35428   2.785   8.203   8.250
 7053POPC   C3A35429   2.742   8.174   7.950
 7053POPC   C4A35430   2.723   8.245   7.650
 7053POPC   C1B35431   2.590   8.041   8.550
 7053POPC   C2B35432   2.595   8.015   8.250
 7053POPC   C3B35433   2.535   8.060   7.950
 7053POPC   C4B35434   2.592   8.011   7.650
 7054POPC   NC335435  12.121  26.773   9.450
 7054POPC   PO435436  12.090  26.835   9.150
 7054POPC   GL135437  12.072  26.805   8.850
 7054POPC   GL235438  12.122  26.673   8.850
 7054POPC   C1A35439  12.111  26.845   8.550
 7054POPC   D2A35440  12.059  26.817   8.250
 7054POPC   C3A35441  12.104  26.817   7.950
 7054POPC   C4A35442  12.049  26.768   7.650
 7054POPC   C1B35443  12.154  26.605   8.550
 7054POPC   C2B35444  12.106  26.605   8.250
 7054POPC   C3B35445  12.114  26.544   7.950
 7054POPC   C4B35446  12.117  26.594   7.650
 7055POPC   NC335447   1.980  27.568   9.450
 7055POPC   PO435448   1.981  27.562   9.150
 7055POPC   GL135449   1.996  27.591   8.850
 7055POPC   GL235450   1.857  27.706   8.850
 7055POPC   C1A35451   1.984  27.615   8.550
 7055POPC   D2A35452   1.990  27.556   8.250
 7055POPC   C3A35453   2.004  27.568   7.950
 7055POPC   C4A35454   2.021  27.601   7.650
 7055POPC   C1B35455   1.784  27.744   8.550
 7055POPC   C2B35456   1.782  27.771   8.250
 7055POPC   C3B35457   1.744  27.770   7.950
 7055POPC   C4B35458   1.821  27.737   7.650
 7056POPC   NC335459  19.036  28.401   9.450
 7056POPC   PO435460  19.042  28.406   9.150
 7056POPC   GL135461  19.042  28.335   8.850
 7056POPC   GL235462  19.178  28.396   8.850
 7056POPC   C1A35463  19.094  28.359   8.550
 7056POPC   D2A35464  19.094  28.396   8.250
 7056POPC   C3A35465  19.079  28.392   7.950
 7056POPC   C4A35466  19.014  28.340   7.650
 7056POPC   C1B35467  19.252  28.455   8.550
 7056POPC   C2B35468  19.229  28.494   8.250
 7056POPC   C3B35469  19.272  28.482   7.950
 7056POPC   C4B35470  19.262  28.504   7.650
 7057POPC   NC335471   2.762  33.846   9.450
 7057POPC   PO435472   2.794  33.828   9.150
 7057POPC   GL135473   2.814  33.770   8.850
 7057POPC   GL235474   2.923  33.784   8.850
 7057POPC   C1A35475   2.753  33.780   8.550
 7057POPC   D2A35476   2.758  33.813   8.250
 7057POPC   C3A35477   2.732  33.769   7.950
 7057POPC   C4A35478   2.723  33.797   7.650
 7057POPC   C1B35479   3.057  33.802   8.550
 7057POPC   C2B35480   3.000  33.774   8.250
 7057POPC   C3B35481   3.060  33.815   7.950
 7057POPC   C4B35482   2.987  33.797   7.650
 7058POPC   NC335483  27.588   0.459   9.450
 7058POPC   PO435484  27.566   0.450   9.150
 7058POPC   GL135485  27.617   0.439   8.850
 7058POPC   GL235486  27.556   0.541   8.850
 7058POPC   C1A35487  27.582   0.456   8.550
 7058POPC   D2A35488  27.606   0.469   8.250
 7058POPC   C3A35489  27.643   0.434   7.950
 7058POPC   C4A35490  27.594   0.395   7.650
 7058POPC   C1B35491  27.545   0.650   8.550
 7058POPC   C2B35492  27.551   0.688   8.250
 7058POPC   C3B35493  27.491   0.698   7.950
 7058POPC   C4B35494  27.507   0.654   7.650
 7059POPC   NC335495  13.667  28.357   9.450
 7059POPC   PO435496  13.640  28.376   9.150
 7059POPC   GL135497  13.591  28.387   8.850
 7059POPC   GL235498  13.737  28.286   8.850
 7059POPC   C1A35499  13.656  28.386   8.550
 7059POPC   D2A35500  13.676  28.401   8.250
 7059POPC   C3A35501  13.617  28.413   7.950
 7059POPC   C4A35502  13.593  28.407   7.650
 7059POPC   C1B35503  13.787  28.201   8.550
 7059POPC   C2B35504  13.777  28.169   8.250
 7059POPC   C3B35505  13.791  28.219   7.950
 7059POPC   C4B35506  13.817  28.200   7.650
 7060POPC   NC335507  19.882   0.484   9.450
 7060POPC   PO435508  19.839   0.403   9.150
 7060POPC   GL135509  19.801   0.392   8.850
 7060POPC   GL235510  19.743   0.497   8.850
 7060POPC   C1A35511  19.794   0.397   8.550
 7060POPC   D2A35512  19.804   0.453   8.250
 7060POPC   C3A35513  19.825   0.460   7.950
 7060POPC   C4A35514  19.871   0.438   7.650
 7060POPC   C1B35515  19.601   0.463   8.550
 7060POPC   C2B35516  19.545   0.458   8.250
 7060POPC   C3B35517  19.569   0.492   7.950
 7060POPC   C4B35518  19.617   0.502   7.650
 7061POPC   NC335519  43.924  31.469   9.450
 7061POPC   PO435520  43.892  31.448   9.150
 7061POPC   GL135521  43.926  31.486   8.850
 7061POPC   GL235522  43.827  31.513   8.850
 7061POPC   C1A35523  43.888  31.449   8.550
 7061POPC   D2A35524  43.897  31.489   8.250
 7061POPC   C3A35525  43.929  31.504   7.950
 7061POPC   C4A35526  43.928  31.424   7.650
 7061POPC   C1B35527  43.687  31.600   8.550
 7061POPC   C2B35528  43.661  31.612   8.250
 7061POPC   C3B35529  43.673  31.601   7.950
 7061POPC   C4B35530  43.675  31.636   7.650
 7062POPC   NC335531  22.186   8.222   9.450
 7062POPC   PO435532  22.211   8.152   9.150
 7062POPC   GL135533  22.131   8.214   8.850
 7062POPC   GL235534  22.092   8.210   8.850
 7062POPC   C1A35535  22.187   8.221   8.550
 7062POPC   D2A35536  22.208   8.165   8.250
 7062POPC   C3A35537  22.207   8.202   7.950
 7062POPC   C4A35538  22.194   8.173   7.650
 7062POPC   C1B35539  21.892   8.270   8.550
 7062POPC   C2B35540  21.942   8.347   8.250
 7062POPC   C3B35541  21.975   8.322   7.950
 7062POPC   C4B35542  21.936   8.347   7.650
 7063POPC   NC335543  17.488  36.094   9.450
 7063POPC   PO435544  17.503  36.110   9.150
 7063POPC   GL135545  17.523  36.079   8.850
 7063POPC   GL235546  17.471  36.047   8.850
 7063POPC   C1A35547  17.508  36.098   8.550
 7063POPC   D2A35548  17.542  36.104   8.250
 7063POPC   C3A35549  17.487  36.096   7.950
 7063POPC   C4A35550  17.496  36.177   7.650
 7063POPC   C1B35551  17.383  35.930   8.550
 7063POPC   C2B35552  17.445  35.854   8.250
 7063POPC   C3B35553  17.466  35.936   7.950
 7063POPC   C4B35554  17.386  35.878   7.650
 7064POPC   NC335555  16.002  30.660   9.450
 7064POPC   PO435556  15.980  30.690   9.150
 7064POPC   GL135557  15.946  30.724   8.850
 7064POPC   GL235558  15.917  30.772   8.850
 7064POPC   C1A35559  15.978  30.724   8.550
 7064POPC   D2A35560  15.906  30.673   8.250
 7064POPC   C3A35561  15.977  30.735   7.950
 7064POPC   C4A35562  15.947  30.712   7.650
 7064POPC   C1B35563  15.808  30.912   8.550
 7064POPC   C2B35564  15.798  30.869   8.250
 7064POPC   C3B35565  15.801  30.858   7.950
 7064POPC   C4B35566  15.816  30.868   7.650
 7065POPC   NC335567  33.834  26.798   9.450
 7065POPC   PO435568  33.792  26.829   9.150
 7065POPC   GL135569  33.847  26.771   8.850
 7065POPC   GL235570  33.939  26.878   8.850
 7065POPC   C1A35571  33.817  26.821   8.550
 7065POPC   D2A35572  33.793  26.806   8.250
 7065POPC   C3A35573  33.783  26.817   7.950
 7065POPC   C4A35574  33.839  26.779   7.650
 7065POPC   C1B35575  34.072  26.876   8.550
 7065POPC   C2B35576  34.028  26.891   8.250
 7065POPC   C3B35577  34.092  26.920   7.950
 7065POPC   C4B35578  34.024  26.889   7.650
 7066POPC   NC335579  33.025  32.250   9.450
 7066POPC   PO435580  32.989  32.228   9.150
 7066POPC   GL135581  33.046  32.208   8.850
 7066POPC   GL235582  33.134  32.143   8.850
 7066POPC   C1A35583  33.026  32.236   8.550
 7066POPC   D2A35584  33.036  32.215   8.250
 7066POPC   C3A35585  33.068  32.285   7.950
 7066POPC   C4A35586  32.988  32.244   7.650
 7066POPC   C1B35587  33.177  32.006   8.550
 7066POPC   C2B35588  33.152  32.009   8.250
 7066POPC   C3B35589  33.157  32.083   7.950
 7066POPC   C4B35590  33.172  32.064   7.650
 7067POPC   NC335591  41.600   6.663   9.450
 7067POPC   PO435592  41.605   6.641   9.150
 7067POPC   GL135593  41.587   6.640   8.850
 7067POPC   GL235594  41.561   6.495   8.850
 7067POPC   C1A35595  41.564   6.668   8.550
 7067POPC   D2A35596  41.597   6.685   8.250
 7067POPC   C3A35597  41.561   6.633   7.950
 7067POPC   C4A35598  41.604   6.687   7.650
 7067POPC   C1B35599  41.444   6.463   8.550
 7067POPC   C2B35600  41.426   6.407   8.250
 7067POPC   C3B35601  41.447   6.440   7.950
 7067POPC   C4B35602  41.501   6.391   7.650
 7068POPC   NC335603  35.322  24.460   9.450
 7068POPC   PO435604  35.383  24.440   9.150
 7068POPC   GL135605  35.313  24.529   8.850
 7068POPC   GL235606  35.424  24.445   8.850
 7068POPC   C1A35607  35.321  24.531   8.550
 7068POPC   D2A35608  35.387  24.440   8.250
 7068POPC   C3A35609  35.365  24.460   7.950
 7068POPC   C4A35610  35.327  24.493   7.650
 7068POPC   C1B35611  35.554  24.298   8.550
 7068POPC   C2B35612  35.500  24.339   8.250
 7068POPC   C3B35613  35.536  24.334   7.950
 7068POPC   C4B35614  35.570  24.293   7.650
 7069POPC   NC335615  43.143  30.681   9.450
 7069POPC   PO435616  43.064  30.669   9.150
 7069POPC   GL135617  43.160  30.732   8.850
 7069POPC   GL235618  43.050  30.591   8.850
 7069POPC   C1A35619  43.076  30.718   8.550
 7069POPC   D2A35620  43.149  30.673   8.250
 7069POPC   C3A35621  43.144  30.691   7.950
 7069POPC   C4A35622  43.085  30.676   7.650
 7069POPC   C1B35623  42.954  30.492   8.550
 7069POPC   C2B35624  42.935  30.544   8.250
 7069POPC   C3B35625  42.984  30.465   7.950
 7069POPC   C4B35626  42.966  30.473   7.650
 7070POPC   NC335627  13.610  42.373   9.450
 7070POPC   PO435628  13.608  42.335   9.150
 7070POPC   GL135629  13.587  42.316   8.850
 7070POPC   GL235630  13.463  42.302   8.850
 7070POPC   C1A35631  13.614  42.331   8.550
 7070POPC   D2A35632  13.640  42.309   8.250
 7070POPC   C3A35633  13.620  42.337   7.950
 7070POPC   C4A35634  13.591  42.346   7.650
 7070POPC   C1B35635  13.335  42.334   8.550
 7070POPC   C2B35636  13.367  42.359   8.250
 7070POPC   C3B35637  13.415  42.367   7.950
 7070POPC   C4B35638  13.405  42.352   7.650
 7071POPC   NC335639   5.861  26.826   9.450
 7071POPC   PO435640   5.861  26.791   9.150
 7071POPC   GL135641   5.856  26.777   8.850
 7071POPC   GL235642   5.866  26.686   8.850
 7071POPC   C1A35643   5.865  26.820   8.550
 7071POPC   D2A35644   5.903  26.809   8.250
 7071POPC   C3A35645   5.901  26.846   7.950
 7071POPC   C4A35646   5.829  26.829   7.650
 7071POPC   C1B35647   5.850  26.605   8.550
 7071POPC   C2B35648   5.908  26.583   8.250
 7071POPC   C3B35649   5.888  26.523   7.950
 7071POPC   C4B35650   5.918  26.584   7.650
 7072POPC   NC335651  39.987  33.028   9.450
 7072POPC   PO435652  40.047  32.988   9.150
 7072POPC   GL135653  40.032  33.011   8.850
 7072POPC   GL235654  39.886  32.958   8.850
 7072POPC   C1A35655  39.959  33.023   8.550
 7072POPC   D2A35656  40.014  33.067   8.250
 7072POPC   C3A35657  40.009  33.074   7.950
 7072POPC   C4A35658  39.992  33.066   7.650
 7072POPC   C1B35659  39.794  32.868   8.550
 7072POPC   C2B35660  39.810  32.887   8.250
 7072POPC   C3B35661  39.829  32.905   7.950
 7072POPC   C4B35662  39.748  32.843   7.650
 7073POPC   NC335663   6.677  22.185   9.450
 7073POPC   PO435664   6.688  22.197   9.150
 7073POPC   GL135665   6.645  22.140   8.850
 7073POPC   GL235666   6.558  22.051   8.850
 7073POPC   C1A35667   6.686  22.139   8.550
 7073POPC   D2A35668   6.611  22.177   8.250
 7073POPC   C3A35669   6.664  22.145   7.950
 7073POPC   C4A35670   6.659  22.178   7.650
 7073POPC   C1B35671   6.573  21.961   8.550
 7073POPC   C2B35672   6.542  21.916   8.250
 7073POPC   C3B35673   6.532  21.988   7.950
 7073POPC   C4B35674   6.517  21.959   7.650
 7074POPC   NC335675   2.809   5.886   9.450
 7074POPC   PO435676   2.764   5.874   9.150
 7074POPC   GL135677   2.790   5.911   8.850
 7074POPC   GL235678   2.673   5.878   8.850
 7074POPC   C1A35679   2.782   5.866   8.550
 7074POPC   D2A35680   2.752   5.829   8.250
 7074POPC   C3A35681   2.726   5.852   7.950
 7074POPC   C4A35682   2.737   5.882   7.650
 7074POPC   C1B35683   2.501   5.814   8.550
 7074POPC   C2B35684   2.539   5.820   8.250
 7074POPC   C3B35685   2.489   5.804   7.950
 7074POPC   C4B35686   2.532   5.805   7.650
 7075POPC   NC335687  34.538  25.225   9.450
 7075POPC   PO435688  34.611  25.217   9.150
 7075POPC   GL135689  34.614  25.281   8.850
 7075POPC   GL235690  34.672  25.336   8.850
 7075POPC   C1A35691  34.540  25.311   8.550
 7075POPC   D2A35692  34.609  25.308   8.250
 7075POPC   C3A35693  34.614  25.300   7.950
 7075POPC   C4A35694  34.566  25.315   7.650
 7075POPC   C1B35695  34.753  25.446   8.550
 7075POPC   C2B35696  34.704  25.477   8.250
 7075POPC   C3B35697  34.672  25.446   7.950
 7075POPC   C4B35698  34.742  25.512   7.650
 7076POPC   NC335699  43.140  39.997   9.450
 7076POPC   PO435700  43.149  39.973   9.150
 7076POPC   GL135701  43.110  40.033   8.850
 7076POPC   GL235702  43.062  40.167   8.850
 7076POPC   C1A35703  43.106  40.053   8.550
 7076POPC   D2A35704  43.093  40.045   8.250
 7076POPC   C3A35705  43.090  40.056   7.950
 7076POPC   C4A35706  43.135  40.005   7.650
 7076POPC   C1B35707  43.038  40.199   8.550
 7076POPC   C2B35708  42.977  40.236   8.250
 7076POPC   C3B35709  42.987  40.282   7.950
 7076POPC   C4B35710  43.045  40.263   7.650
 7077POPC   NC335711  39.990  20.656   9.450
 7077POPC   PO435712  39.966  20.617   9.150
 7077POPC   GL135713  39.981  20.635   8.850
 7077POPC   GL235714  40.056  20.769   8.850
 7077POPC   C1A35715  39.981  20.603   8.550
 7077POPC   D2A35716  39.985  20.582   8.250
 7077POPC   C3A35717  40.036  20.654   7.950
 7077POPC   C4A35718  39.977  20.602   7.650
 7077POPC   C1B35719  40.088  20.819   8.550
 7077POPC   C2B35720  40.100  20.883   8.250
 7077POPC   C3B35721  40.114  20.816   7.950
 7077POPC   C4B35722  40.073  20.826   7.650
 7078POPC   NC335723  43.852   2.025   9.450
 7078POPC   PO435724  43.918   1.997   9.150
 7078POPC   GL135725  43.844   2.018   8.850
 7078POPC   GL235726  43.918   1.919   8.850
 7078POPC   C1A35727  43.872   1.949   8.550
 7078POPC   D2A35728  43.925   2.009   8.250
 7078POPC   C3A35729  43.911   2.031   7.950
 7078POPC   C4A35730  43.871   2.018   7.650
 7078POPC   C1B35731  43.983   1.761   8.550
 7078POPC   C2B35732  44.050   1.761   8.250
 7078POPC   C3B35733  44.040   1.763   7.950
 7078POPC   C4B35734  43.987   1.825   7.650
 7079POPC   NC335735  16.760  21.436   9.450
 7079POPC   PO435736  16.706  21.345   9.150
 7079POPC   GL135737  16.746  21.337   8.850
 7079POPC   GL235738  16.790  21.507   8.850
 7079POPC   C1A35739  16.700  21.344   8.550
 7079POPC   D2A35740  16.709  21.397   8.250
 7079POPC   C3A35741  16.719  21.353   7.950
 7079POPC   C4A35742  16.686  21.355   7.650
 7079POPC   C1B35743  16.796  21.671   8.550
 7079POPC   C2B35744  16.732  21.628   8.250
 7079POPC   C3B35745  16.822  21.600   7.950
 7079POPC   C4B35746  16.777  21.652   7.650
 7080POPC   NC335747  29.908  12.123   9.450
 7080POPC   PO435748  29.897  12.067   9.150
 7080POPC   GL135749  29.930  12.106   8.850
 7080POPC   GL235750  29.800  12.043   8.850
 7080POPC   C1A35751  29.957  12.048   8.550
 7080POPC   D2A35752  29.957  12.060   8.250
 7080POPC   C3A35753  29.880  12.047   7.950
 7080POPC   C4A35754  29.940  12.120   7.650
 7080POPC   C1B35755  29.716  12.093   8.550
 7080POPC   C2B35756  29.643  12.063   8.250
 7080POPC   C3B35757  29.658  12.127   7.950
 7080POPC   C4B35758  29.716  12.046   7.650
 7081POPC   NC335759   8.245  21.357   9.450
 7081POPC   PO435760   8.159  21.382   9.150
 7081POPC   GL135761   8.200  21.371   8.850
 7081POPC   GL235762   8.169  21.289   8.850
 7081POPC   C1A35763   8.208  21.353   8.550
 7081POPC   D2A35764   8.238  21.415   8.250
 7081POPC   C3A35765   8.211  21.387   7.950
 7081POPC   C4A35766   8.148  21.414   7.650
 7081POPC   C1B35767   8.181  21.117   8.550
 7081POPC   C2B35768   8.184  21.158   8.250
 7081POPC   C3B35769   8.195  21.123   7.950
 7081POPC   C4B35770   8.130  21.131   7.650
 7082POPC   NC335771  36.178  37.711   9.450
 7082POPC   PO435772  36.174  37.716   9.150
 7082POPC   GL135773  36.170  37.702   8.850
 7082POPC   GL235774  36.272  37.691   8.850
 7082POPC   C1A35775  36.101  37.638   8.550
 7082POPC   D2A35776  36.113  37.712   8.250
 7082POPC   C3A35777  36.177  37.648   7.950
 7082POPC   C4A35778  36.174  37.691   7.650
 7082POPC   C1B35779  36.307  37.824   8.550
 7082POPC   C2B35780  36.381  37.763   8.250
 7082POPC   C3B35781  36.345  37.786   7.950
 7082POPC   C4B35782  36.358  37.837   7.650
 7083POPC   NC335783   3.512  43.156   9.450
 7083POPC   PO435784   3.543  43.093   9.150
 7083POPC   GL135785   3.586  43.148   8.850
 7083POPC   GL235786   3.421  43.227   8.850
 7083POPC   C1A35787   3.525  43.135   8.550
 7083POPC   D2A35788   3.529  43.062   8.250
 7083POPC   C3A35789   3.589  43.068   7.950
 7083POPC   C4A35790   3.591  43.123   7.650
 7083POPC   C1B35791   3.346  43.310   8.550
 7083POPC   C2B35792   3.350  43.341   8.250
 7083POPC   C3B35793   3.351  43.296   7.950
 7083POPC   C4B35794   3.333  43.311   7.650
 7084POPC   NC335795  35.336  35.307   9.450
 7084POPC   PO435796  35.370  35.313   9.150
 7084POPC   GL135797  35.316  35.344   8.850
 7084POPC   GL235798  35.477  35.474   8.850
 7084POPC   C1A35799  35.372  35.340   8.550
 7084POPC   D2A35800  35.381  35.356   8.250
 7084POPC   C3A35801  35.304  35.398   7.950
 7084POPC   C4A35802  35.387  35.316   7.650
 7084POPC   C1B35803  35.548  35.498   8.550
 7084POPC   C2B35804  35.504  35.550   8.250
 7084POPC   C3B35805  35.507  35.497   7.950
 7084POPC   C4B35806  35.492  35.524   7.650
 7085POPC   NC335807   4.302  20.621   9.450
 7085POPC   PO435808   4.356  20.635   9.150
 7085POPC   GL135809   4.310  20.654   8.850
 7085POPC   GL235810   4.205  20.534   8.850
 7085POPC   C1A35811   4.347  20.648   8.550
 7085POPC   D2A35812   4.275  20.561   8.250
 7085POPC   C3A35813   4.334  20.647   7.950
 7085POPC   C4A35814   4.298  20.652   7.650
 7085POPC   C1B35815   4.034  20.537   8.550
 7085POPC   C2B35816   4.076  20.526   8.250
 7085POPC   C3B35817   4.055  20.558   7.950
 7085POPC   C4B35818   4.132  20.535   7.650
 7086POPC   NC335819  43.920  16.723   9.450
 7086POPC   PO435820  43.854  16.747   9.150
 7086POPC   GL135821  43.838  16.712   8.850
 7086POPC   GL235822  43.940  16.858   8.850
 7086POPC   C1A35823  43.865  16.722   8.550
 7086POPC   D2A35824  43.909  16.707   8.250
 7086POPC   C3A35825  43.900  16.727   7.950
 7086POPC   C4A35826  43.921  16.739   7.650
 7086POPC   C1B35827  43.939  16.995   8.550
 7086POPC   C2B35828  43.882  16.939   8.250
 7086POPC   C3B35829  43.881  16.980   7.950
 7086POPC   C4B35830  43.885  16.969   7.650
 7087POPC   NC335831  22.185  20.566   9.450
 7087POPC   PO435832  22.153  20.636   9.150
 7087POPC   GL135833  22.160  20.586   8.850
 7087POPC   GL235834  22.226  20.524   8.850
 7087POPC   C1A35835  22.139  20.659   8.550
 7087POPC   D2A35836  22.157  20.643   8.250
 7087POPC   C3A35837  22.131  20.577   7.950
 7087POPC   C4A35838  22.119  20.561   7.650
 7087POPC   C1B35839  22.229  20.392   8.550
 7087POPC   C2B35840  22.211  20.352   8.250
 7087POPC   C3B35841  22.226  20.408   7.950
 7087POPC   C4B35842  22.202  20.359   7.650
 7088POPC   NC335843  28.363  15.921   9.450
 7088POPC   PO435844  28.387  15.922   9.150
 7088POPC   GL135845  28.377  15.950   8.850
 7088POPC   GL235846  28.484  16.065   8.850
 7088POPC   C1A35847  28.360  15.968   8.550
 7088POPC   D2A35848  28.356  15.946   8.250
 7088POPC   C3A35849  28.364  15.970   7.950
 7088POPC   C4A35850  28.388  15.992   7.650
 7088POPC   C1B35851  28.487  16.193   8.550
 7088POPC   C2B35852  28.570  16.138   8.250
 7088POPC   C3B35853  28.507  16.194   7.950
 7088POPC   C4B35854  28.477  16.182   7.650
 7089POPC   NC335855  30.651  39.980   9.450
 7089POPC   PO435856  30.691  39.988   9.150
 7089POPC   GL135857  30.653  39.963   8.850
 7089POPC   GL235858  30.613  39.913   8.850
 7089POPC   C1A35859  30.691  39.988   8.550
 7089POPC   D2A35860  30.740  40.007   8.250
 7089POPC   C3A35861  30.722  39.974   7.950
 7089POPC   C4A35862  30.654  39.997   7.650
 7089POPC   C1B35863  30.571  39.786   8.550
 7089POPC   C2B35864  30.534  39.836   8.250
 7089POPC   C3B35865  30.578  39.771   7.950
 7089POPC   C4B35866  30.518  39.812   7.650
 7090POPC   NC335867   9.735  28.344   9.450
 7090POPC   PO435868   9.753  28.403   9.150
 7090POPC   GL135869   9.761  28.363   8.850
 7090POPC   GL235870   9.731  28.219   8.850
 7090POPC   C1A35871   9.770  28.335   8.550
 7090POPC   D2A35872   9.721  28.336   8.250
 7090POPC   C3A35873   9.712  28.408   7.950
 7090POPC   C4A35874   9.760  28.366   7.650
 7090POPC   C1B35875   9.680  28.119   8.550
 7090POPC   C2B35876   9.692  28.132   8.250
 7090POPC   C3B35877   9.738  28.099   7.950
 7090POPC   C4B35878   9.763  28.092   7.650
 7091POPC   NC335879   1.222   4.326   9.450
 7091POPC   PO435880   1.225   4.289   9.150
 7091POPC   GL135881   1.258   4.302   8.850
 7091POPC   GL235882   1.067   4.387   8.850
 7091POPC   C1A35883   1.247   4.320   8.550
 7091POPC   D2A35884   1.244   4.271   8.250
 7091POPC   C3A35885   1.248   4.320   7.950
 7091POPC   C4A35886   1.236   4.308   7.650
 7091POPC   C1B35887   0.983   4.497   8.550
 7091POPC   C2B35888   1.028   4.435   8.250
 7091POPC   C3B35889   1.015   4.500   7.950
 7091POPC   C4B35890   0.962   4.463   7.650
 7092POPC   NC335891  29.160  29.886   9.450
 7092POPC   PO435892  29.122  29.917   9.150
 7092POPC   GL135893  29.192  29.885   8.850
 7092POPC   GL235894  29.048  30.033   8.850
 7092POPC   C1A35895  29.165  29.954   8.550
 7092POPC   D2A35896  29.115  29.970   8.250
 7092POPC   C3A35897  29.168  29.941   7.950
 7092POPC   C4A35898  29.134  29.878   7.650
 7092POPC   C1B35899  29.013  30.150   8.550
 7092POPC   C2B35900  29.071  30.165   8.250
 7092POPC   C3B35901  29.033  30.139   7.950
 7092POPC   C4B35902  29.060  30.109   7.650
 7093POPC   NC335903  30.698  37.702   9.450
 7093POPC   PO435904  30.727  37.674   9.150
 7093POPC   GL135905  30.675  37.710   8.850
 7093POPC   GL235906  30.578  37.605   8.850
 7093POPC   C1A35907  30.744  37.657   8.550
 7093POPC   D2A35908  30.734  37.660   8.250
 7093POPC   C3A35909  30.652  37.722   7.950
 7093POPC   C4A35910  30.726  37.719   7.650
 7093POPC   C1B35911  30.582  37.496   8.550
 7093POPC   C2B35912  30.538  37.444   8.250
 7093POPC   C3B35913  30.578  37.492   7.950
 7093POPC   C4B35914  30.595  37.437   7.650
 7094POPC   NC335915  44.673  20.642   9.450
 7094POPC   PO435916  44.659  20.640   9.150
 7094POPC   GL135917  44.678  20.658   8.850
 7094POPC   GL235918  44.739  20.575   8.850
 7094POPC   C1A35919  44.665  20.660   8.550
 7094POPC   D2A35920  44.646  20.650   8.250
 7094POPC   C3A35921  44.639  20.569   7.950
 7094POPC   C4A35922  44.681  20.576   7.650
 7094POPC   C1B35923  44.922  20.581   8.550
 7094POPC   C2B35924  44.908  20.574   8.250
 7094POPC   C3B35925  44.925  20.574   7.950
 7094POPC   C4B35926  44.926  20.598   7.650
 7095POPC   NC335927   5.879  28.351   9.450
 7095POPC   PO435928   5.881  28.348   9.150
 7095POPC   GL135929   5.899  28.321   8.850
 7095POPC   GL235930   5.830  28.312   8.850
 7095POPC   C1A35931   5.850  28.379   8.550
 7095POPC   D2A35932   5.839  28.354   8.250
 7095POPC   C3A35933   5.905  28.404   7.950
 7095POPC   C4A35934   5.917  28.402   7.650
 7095POPC   C1B35935   5.683  28.235   8.550
 7095POPC   C2B35936   5.723  28.149   8.250
 7095POPC   C3B35937   5.701  28.163   7.950
 7095POPC   C4B35938   5.654  28.159   7.650
 7096POPC   NC335939  11.256  33.812   9.450
 7096POPC   PO435940  11.253  33.775   9.150
 7096POPC   GL135941  11.269  33.802   8.850
 7096POPC   GL235942  11.173  33.720   8.850
 7096POPC   C1A35943  11.338  33.813   8.550
 7096POPC   D2A35944  11.305  33.807   8.250
 7096POPC   C3A35945  11.296  33.828   7.950
 7096POPC   C4A35946  11.327  33.796   7.650
 7096POPC   C1B35947  11.070  33.641   8.550
 7096POPC   C2B35948  11.063  33.604   8.250
 7096POPC   C3B35949  11.089  33.686   7.950
 7096POPC   C4B35950  11.107  33.681   7.650
 7097POPC   NC335951  38.447  23.695   9.450
 7097POPC   PO435952  38.482  23.760   9.150
 7097POPC   GL135953  38.409  23.698   8.850
 7097POPC   GL235954  38.348  23.719   8.850
 7097POPC   C1A35955  38.434  23.688   8.550
 7097POPC   D2A35956  38.426  23.763   8.250
 7097POPC   C3A35957  38.436  23.719   7.950
 7097POPC   C4A35958  38.497  23.716   7.650
 7097POPC   C1B35959  38.262  23.595   8.550
 7097POPC   C2B35960  38.242  23.661   8.250
 7097POPC   C3B35961  38.194  23.643   7.950
 7097POPC   C4B35962  38.181  23.585   7.650
 7098POPC   NC335963   4.361  16.740   9.450
 7098POPC   PO435964   4.319  16.681   9.150
 7098POPC   GL135965   4.315  16.698   8.850
 7098POPC   GL235966   4.467  16.810   8.850
 7098POPC   C1A35967   4.300  16.709   8.550
 7098POPC   D2A35968   4.352  16.754   8.250
 7098POPC   C3A35969   4.273  16.744   7.950
 7098POPC   C4A35970   4.322  16.760   7.650
 7098POPC   C1B35971   4.539  16.862   8.550
 7098POPC   C2B35972   4.527  16.791   8.250
 7098POPC   C3B35973   4.555  16.865   7.950
 7098POPC   C4B35974   4.555  16.858   7.650
 7099POPC   NC335975  27.609  15.933   9.450
 7099POPC   PO435976  27.614  15.964   9.150
 7099POPC   GL135977  27.625  15.950   8.850
 7099POPC   GL235978  27.712  16.044   8.850
 7099POPC   C1A35979  27.583  15.986   8.550
 7099POPC   D2A35980  27.634  15.924   8.250
 7099POPC   C3A35981  27.629  15.981   7.950
 7099POPC   C4A35982  27.625  15.919   7.650
 7099POPC   C1B35983  27.748  16.150   8.550
 7099POPC   C2B35984  27.825  16.124   8.250
 7099POPC   C3B35985  27.788  16.157   7.950
 7099POPC   C4B35986  27.751  16.108   7.650
 7100POPC   NC335987  32.233  39.239   9.450
 7100POPC   PO435988  32.279  39.181   9.150
 7100POPC   GL135989  32.207  39.194   8.850
 7100POPC   GL235990  32.223  39.384   8.850
 7100POPC   C1A35991  32.287  39.209   8.550
 7100POPC   D2A35992  32.237  39.248   8.250
 7100POPC   C3A35993  32.221  39.224   7.950
 7100POPC   C4A35994  32.201  39.249   7.650
 7100POPC   C1B35995  32.230  39.442   8.550
 7100POPC   C2B35996  32.300  39.528   8.250
 7100POPC   C3B35997  32.216  39.449   7.950
 7100POPC   C4B35998  32.256  39.441   7.650
 7101POPC   NC335999   5.863  29.192   9.450
 7101POPC   PO436000   5.843  29.101   9.150
 7101POPC   GL136001   5.910  29.104   8.850
 7101POPC   GL236002   6.018  29.090   8.850
 7101POPC   C1A36003   5.915  29.100   8.550
 7101POPC   D2A36004   5.918  29.100   8.250
 7101POPC   C3A36005   5.888  29.135   7.950
 7101POPC   C4A36006   5.887  29.128   7.650
 7101POPC   C1B36007   6.136  29.056   8.550
 7101POPC   C2B36008   6.061  29.057   8.250
 7101POPC   C3B36009   6.105  29.066   7.950
 7101POPC   C4B36010   6.141  29.000   7.650
 7102POPC   NC336011  31.481  16.731   9.450
 7102POPC   PO436012  31.482  16.711   9.150
 7102POPC   GL136013  31.426  16.730   8.850
 7102POPC   GL236014  31.505  16.832   8.850
 7102POPC   C1A36015  31.475  16.717   8.550
 7102POPC   D2A36016  31.436  16.723   8.250
 7102POPC   C3A36017  31.453  16.714   7.950
 7102POPC   C4A36018  31.423  16.713   7.650
 7102POPC   C1B36019  31.553  16.925   8.550
 7102POPC   C2B36020  31.568  16.975   8.250
 7102POPC   C3B36021  31.587  16.979   7.950
 7102POPC   C4B36022  31.553  16.998   7.650
 7103POPC   NC336023   7.414  33.067   9.450
 7103POPC   PO436024   7.373  33.031   9.150
 7103POPC   GL136025   7.458  33.071   8.850
 7103POPC   GL236026   7.346  32.925   8.850
 7103POPC   C1A36027   7.464  33.009   8.550
 7103POPC   D2A36028   7.373  33.073   8.250
 7103POPC   C3A36029   7.423  33.013   7.950
 7103POPC   C4A36030   7.423  33.011   7.650
 7103POPC   C1B36031   7.245  32.854   8.550
 7103POPC   C2B36032   7.260  32.859   8.250
 7103POPC   C3B36033   7.308  32.855   7.950
 7103POPC   C4B36034   7.263  32.808   7.650
 7104POPC   NC336035  31.506   5.866   9.450
 7104POPC   PO436036  31.472   5.889   9.150
 7104POPC   GL136037  31.469   5.824   8.850
 7104POPC   GL236038  31.333   5.912   8.850
 7104POPC   C1A36039  31.440   5.889   8.550
 7104POPC   D2A36040  31.443   5.845   8.250
 7104POPC   C3A36041  31.508   5.878   7.950
 7104POPC   C4A36042  31.493   5.873   7.650
 7104POPC   C1B36043  31.243   6.053   8.550
 7104POPC   C2B36044  31.335   6.006   8.250
 7104POPC   C3B36045  31.280   5.987   7.950
 7104POPC   C4B36046  31.250   6.029   7.650
 7105POPC   NC336047   8.151  27.634   9.450
 7105POPC   PO436048   8.245  27.608   9.150
 7105POPC   GL136049   8.220  27.581   8.850
 7105POPC   GL236050   8.242  27.511   8.850
 7105POPC   C1A36051   8.214  27.559   8.550
 7105POPC   D2A36052   8.214  27.577   8.250
 7105POPC   C3A36053   8.227  27.603   7.950
 7105POPC   C4A36054   8.246  27.599   7.650
 7105POPC   C1B36055   8.340  27.375   8.550
 7105POPC   C2B36056   8.334  27.366   8.250
 7105POPC   C3B36057   8.305  27.343   7.950
 7105POPC   C4B36058   8.336  27.349   7.650
 7106POPC   NC336059   1.981  43.864   9.450
 7106POPC   PO436060   1.990  43.848   9.150
 7106POPC   GL136061   2.020  43.852   8.850
 7106POPC   GL236062   2.013  44.011   8.850
 7106POPC   C1A36063   1.978  43.890   8.550
 7106POPC   D2A36064   1.997  43.893   8.250
 7106POPC   C3A36065   1.956  43.905   7.950
 7106POPC   C4A36066   2.040  43.914   7.650
 7106POPC   C1B36067   2.148  44.118   8.550
 7106POPC   C2B36068   2.138  44.084   8.250
 7106POPC   C3B36069   2.091  44.097   7.950
 7106POPC   C4B36070   2.172  44.111   7.650
 7107POPC   NC336071   6.681  29.872   9.450
 7107POPC   PO436072   6.611  29.948   9.150
 7107POPC   GL136073   6.600  29.884   8.850
 7107POPC   GL236074   6.492  29.866   8.850
 7107POPC   C1A36075   6.628  29.874   8.550
 7107POPC   D2A36076   6.635  29.936   8.250
 7107POPC   C3A36077   6.671  29.898   7.950
 7107POPC   C4A36078   6.622  29.954   7.650
 7107POPC   C1B36079   6.396  29.907   8.550
 7107POPC   C2B36080   6.424  29.853   8.250
 7107POPC   C3B36081   6.369  29.822   7.950
 7107POPC   C4B36082   6.366  29.856   7.650
 7108POPC   NC336083  36.881   7.465   9.450
 7108POPC   PO436084  36.905   7.461   9.150
 7108POPC   GL136085  36.871   7.410   8.850
 7108POPC   GL236086  36.916   7.530   8.850
 7108POPC   C1A36087  36.873   7.422   8.550
 7108POPC   D2A36088  36.862   7.422   8.250
 7108POPC   C3A36089  36.854   7.403   7.950
 7108POPC   C4A36090  36.859   7.399   7.650
 7108POPC   C1B36091  36.991   7.626   8.550
 7108POPC   C2B36092  36.984   7.655   8.250
 7108POPC   C3B36093  36.932   7.623   7.950
 7108POPC   C4B36094  36.997   7.704   7.650
 7109POPC   NC336095  40.770  12.843   9.450
 7109POPC   PO436096  40.797  12.811   9.150
 7109POPC   GL136097  40.811  12.864   8.850
 7109POPC   GL236098  40.673  12.829   8.850
 7109POPC   C1A36099  40.734  12.839   8.550
 7109POPC   D2A36100  40.792  12.886   8.250
 7109POPC   C3A36101  40.738  12.825   7.950
 7109POPC   C4A36102  40.800  12.879   7.650
 7109POPC   C1B36103  40.586  12.765   8.550
 7109POPC   C2B36104  40.549  12.783   8.250
 7109POPC   C3B36105  40.515  12.761   7.950
 7109POPC   C4B36106  40.596  12.750   7.650
 7110POPC   NC336107   3.573   0.389   9.450
 7110POPC   PO436108   3.497   0.428   9.150
 7110POPC   GL136109   3.579   0.482   8.850
 7110POPC   GL236110   3.401   0.477   8.850
 7110POPC   C1A36111   3.517   0.429   8.550
 7110POPC   D2A36112   3.575   0.407   8.250
 7110POPC   C3A36113   3.500   0.436   7.950
 7110POPC   C4A36114   3.549   0.433   7.650
 7110POPC   C1B36115   3.276   0.421   8.550
 7110POPC   C2B36116   3.332   0.422   8.250
 7110POPC   C3B36117   3.258   0.496   7.950
 7110POPC   C4B36118   3.255   0.427   7.650
 7111POPC   NC336119  13.610  23.757   9.450
 7111POPC   PO436120  13.613  23.669   9.150
 7111POPC   GL136121  13.648  23.673   8.850
 7111POPC   GL236122  13.647  23.622   8.850
 7111POPC   C1A36123  13.676  23.698   8.550
 7111POPC   D2A36124  13.614  23.760   8.250
 7111POPC   C3A36125  13.653  23.700   7.950
 7111POPC   C4A36126  13.610  23.701   7.650
 7111POPC   C1B36127  13.680  23.510   8.550
 7111POPC   C2B36128  13.727  23.524   8.250
 7111POPC   C3B36129  13.691  23.485   7.950
 7111POPC   C4B36130  13.687  23.440   7.650
 7112POPC   NC336131  39.967  17.531   9.450
 7112POPC   PO436132  39.957  17.495   9.150
 7112POPC   GL136133  40.005  17.501   8.850
 7112POPC   GL236134  39.865  17.514   8.850
 7112POPC   C1A36135  39.977  17.544   8.550
 7112POPC   D2A36136  40.031  17.489   8.250
 7112POPC   C3A36137  40.015  17.546   7.950
 7112POPC   C4A36138  40.038  17.535   7.650
 7112POPC   C1B36139  39.791  17.592   8.550
 7112POPC   C2B36140  39.795  17.602   8.250
 7112POPC   C3B36141  39.765  17.590   7.950
 7112POPC   C4B36142  39.804  17.584   7.650
 7113POPC   NC336143  27.546  31.483   9.450
 7113POPC   PO436144  27.594  31.460   9.150
 7113POPC   GL136145  27.592  31.509   8.850
 7113POPC   GL236146  27.748  31.480   8.850
 7113POPC   C1A36147  27.545  31.485   8.550
 7113POPC   D2A36148  27.614  31.451   8.250
 7113POPC   C3A36149  27.640  31.451   7.950
 7113POPC   C4A36150  27.567  31.461   7.650
 7113POPC   C1B36151  27.839  31.442   8.550
 7113POPC   C2B36152  27.806  31.520   8.250
 7113POPC   C3B36153  27.848  31.488   7.950
 7113POPC   C4B36154  27.863  31.472   7.650
 7114POPC   NC336155  25.290  19.026   9.450
 7114POPC   PO436156  25.252  19.016   9.150
 7114POPC   GL136157  25.236  19.072   8.850
 7114POPC   GL236158  25.343  19.207   8.850
 7114POPC   C1A36159  25.315  19.094   8.550
 7114POPC   D2A36160  25.258  19.097   8.250
 7114POPC   C3A36161  25.268  19.035   7.950
 7114POPC   C4A36162  25.243  19.045   7.650
 7114POPC   C1B36163  25.335  19.262   8.550
 7114POPC   C2B36164  25.361  19.325   8.250
 7114POPC   C3B36165  25.352  19.308   7.950
 7114POPC   C4B36166  25.395  19.257   7.650
 7115POPC   NC336167   2.009  42.308   9.450
 7115POPC   PO436168   2.023  42.365   9.150
 7115POPC   GL136169   1.982  42.346   8.850
 7115POPC   GL236170   1.966  42.173   8.850
 7115POPC   C1A36171   1.995  42.319   8.550
 7115POPC   D2A36172   1.990  42.383   8.250
 7115POPC   C3A36173   1.945  42.339   7.950
 7115POPC   C4A36174   2.005  42.377   7.650
 7115POPC   C1B36175   1.889  42.144   8.550
 7115POPC   C2B36176   1.946  42.119   8.250
 7115POPC   C3B36177   1.911  42.123   7.950
 7115POPC   C4B36178   1.919  42.081   7.650
 7116POPC   NC336179   6.659   7.381   9.450
 7116POPC   PO436180   6.641   7.399   9.150
 7116POPC   GL136181   6.598   7.447   8.850
 7116POPC   GL236182   6.668   7.494   8.850
 7116POPC   C1A36183   6.615   7.398   8.550
 7116POPC   D2A36184   6.617   7.387   8.250
 7116POPC   C3A36185   6.674   7.405   7.950
 7116POPC   C4A36186   6.641   7.465   7.650
 7116POPC   C1B36187   6.775   7.624   8.550
 7116POPC   C2B36188   6.829   7.582   8.250
 7116POPC   C3B36189   6.804   7.588   7.950
 7116POPC   C4B36190   6.822   7.582   7.650
 7117POPC   NC336191  18.299  38.410   9.450
 7117POPC   PO436192  18.329  38.419   9.150
 7117POPC   GL136193  18.242  38.406   8.850
 7117POPC   GL236194  18.414  38.411   8.850
 7117POPC   C1A36195  18.291  38.414   8.550
 7117POPC   D2A36196  18.285  38.494   8.250
 7117POPC   C3A36197  18.287  38.496   7.950
 7117POPC   C4A36198  18.288  38.432   7.650
 7117POPC   C1B36199  18.489  38.298   8.550
 7117POPC   C2B36200  18.487  38.319   8.250
 7117POPC   C3B36201  18.490  38.299   7.950
 7117POPC   C4B36202  18.544  38.379   7.650
 7118POPC   NC336203  33.055   1.966   9.450
 7118POPC   PO436204  33.014   1.964   9.150
 7118POPC   GL136205  33.050   2.010   8.850
 7118POPC   GL236206  33.173   1.995   8.850
 7118POPC   C1A36207  33.071   1.981   8.550
 7118POPC   D2A36208  33.034   2.000   8.250
 7118POPC   C3A36209  33.055   2.004   7.950
 7118POPC   C4A36210  33.037   2.021   7.650
 7118POPC   C1B36211  33.231   2.089   8.550
 7118POPC   C2B36212  33.290   2.058   8.250
 7118POPC   C3B36213  33.279   2.067   7.950
 7118POPC   C4B36214  33.245   2.050   7.650
 7119POPC   NC336215  35.368   2.020   9.450
 7119POPC   PO436216  35.328   2.021   9.150
 7119POPC   GL136217  35.394   2.028   8.850
 7119POPC   GL236218  35.362   2.149   8.850
 7119POPC   C1A36219  35.326   2.039   8.550
 7119POPC   D2A36220  35.324   2.027   8.250
 7119POPC   C3A36221  35.376   1.942   7.950
 7119POPC   C4A36222  35.348   1.984   7.650
 7119POPC   C1B36223  35.318   2.262   8.550
 7119POPC   C2B36224  35.326   2.235   8.250
 7119POPC   C3B36225  35.284   2.197   7.950
 7119POPC   C4B36226  35.327   2.191   7.650
 7120POPC   NC336227  25.995  22.910   9.450
 7120POPC   PO436228  26.043  22.936   9.150
 7120POPC   GL136229  26.017  22.975   8.850
 7120POPC   GL236230  26.149  22.988   8.850
 7120POPC   C1A36231  26.051  22.898   8.550
 7120POPC   D2A36232  26.062  22.965   8.250
 7120POPC   C3A36233  26.074  22.984   7.950
 7120POPC   C4A36234  25.997  22.971   7.650
 7120POPC   C1B36235  26.231  23.034   8.550
 7120POPC   C2B36236  26.243  23.027   8.250
 7120POPC   C3B36237  26.309  22.990   7.950
 7120POPC   C4B36238  26.236  23.035   7.650
 7121POPC   NC336239  33.056  19.867   9.450
 7121POPC   PO436240  33.068  19.787   9.150
 7121POPC   GL136241  32.993  19.861   8.850
 7121POPC   GL236242  33.037  19.722   8.850
 7121POPC   C1A36243  32.987  19.818   8.550
 7121POPC   D2A36244  33.026  19.870   8.250
 7121POPC   C3A36245  33.067  19.875   7.950
 7121POPC   C4A36246  32.983  19.794   7.650
 7121POPC   C1B36247  33.107  19.549   8.550
 7121POPC   C2B36248  33.082  19.604   8.250
 7121POPC   C3B36249  33.100  19.618   7.950
 7121POPC   C4B36250  33.022  19.569   7.650
 7122POPC   NC336251  40.810   5.864   9.450
 7122POPC   PO436252  40.735   5.863   9.150
 7122POPC   GL136253  40.794   5.824   8.850
 7122POPC   GL236254  40.895   5.756   8.850
 7122POPC   C1A36255  40.758   5.877   8.550
 7122POPC   D2A36256  40.787   5.856   8.250
 7122POPC   C3A36257  40.800   5.883   7.950
 7122POPC   C4A36258  40.817   5.836   7.650
 7122POPC   C1B36259  40.912   5.689   8.550
 7122POPC   C2B36260  40.981   5.686   8.250
 7122POPC   C3B36261  40.939   5.720   7.950
 7122POPC   C4B36262  40.973   5.688   7.650
 7123POPC   NC336263   9.743  29.889   9.450
 7123POPC   PO436264   9.733  29.932   9.150
 7123POPC   GL136265   9.712  29.916   8.850
 7123POPC   GL236266   9.879  29.927   8.850
 7123POPC   C1A36267   9.731  29.926   8.550
 7123POPC   D2A36268   9.720  29.937   8.250
 7123POPC   C3A36269   9.717  29.877   7.950
 7123POPC   C4A36270   9.741  29.871   7.650
 7123POPC   C1B36271   9.963  29.987   8.550
 7123POPC   C2B36272  10.025  29.982   8.250
 7123POPC   C3B36273   9.961  29.948   7.950
 7123POPC   C4B36274   9.982  29.986   7.650
 7124POPC   NC336275  36.151   7.427   9.450
 7124POPC   PO436276  36.116   7.381   9.150
 7124POPC   GL136277  36.117   7.439   8.850
 7124POPC   GL236278  36.291   7.422   8.850
 7124POPC   C1A36279  36.150   7.384   8.550
 7124POPC   D2A36280  36.107   7.458   8.250
 7124POPC   C3A36281  36.167   7.448   7.950
 7124POPC   C4A36282  36.168   7.428   7.650
 7124POPC   C1B36283  36.366   7.450   8.550
 7124POPC   C2B36284  36.322   7.506   8.250
 7124POPC   C3B36285  36.420   7.479   7.950
 7124POPC   C4B36286  36.418   7.485   7.650
 7125POPC   NC336287   0.414   0.425   9.450
 7125POPC   PO436288   0.466   0.445   9.150
 7125POPC   GL136289   0.470   0.436   8.850
 7125POPC   GL236290   0.397   0.603   8.850
 7125POPC   C1A36291   0.413   0.427   8.550
 7125POPC   D2A36292   0.430   0.405   8.250
 7125POPC   C3A36293   0.440   0.468   7.950
 7125POPC   C4A36294   0.416   0.435   7.650
 7125POPC   C1B36295   0.339   0.636   8.550
 7125POPC   C2B36296   0.316   0.672   8.250
 7125POPC   C3B36297   0.352   0.701   7.950
 7125POPC   C4B36298   0.349   0.679   7.650
 7126POPC   NC336299   0.412  14.447   9.450
 7126POPC   PO436300   0.421  14.397   9.150
 7126POPC   GL136301   0.419  14.451   8.850
 7126POPC   GL236302   0.490  14.551   8.850
 7126POPC   C1A36303   0.440  14.397   8.550
 7126POPC   D2A36304   0.461  14.361   8.250
 7126POPC   C3A36305   0.464  14.362   7.950
 7126POPC   C4A36306   0.392  14.451   7.650
 7126POPC   C1B36307   0.620  14.585   8.550
 7126POPC   C2B36308   0.603  14.596   8.250
 7126POPC   C3B36309   0.630  14.635   7.950
 7126POPC   C4B36310   0.583  14.604   7.650
 7127POPC   NC336311  43.109   3.540   9.450
 7127POPC   PO436312  43.086   3.558   9.150
 7127POPC   GL136313  43.096   3.495   8.850
 7127POPC   GL236314  43.180   3.468   8.850
 7127POPC   C1A36315  43.142   3.533   8.550
 7127POPC   D2A36316  43.061   3.555   8.250
 7127POPC   C3A36317  43.098   3.492   7.950
 7127POPC   C4A36318  43.129   3.549   7.650
 7127POPC   C1B36319  43.304   3.484   8.550
 7127POPC   C2B36320  43.368   3.425   8.250
 7127POPC   C3B36321  43.389   3.424   7.950
 7127POPC   C4B36322  43.310   3.472   7.650
 7128POPC   NC336323  29.114  17.546   9.450
 7128POPC   PO436324  29.124  17.540   9.150
 7128POPC   GL136325  29.114  17.461   8.850
 7128POPC   GL236326  28.980  17.472   8.850
 7128POPC   C1A36327  29.181  17.489   8.550
 7128POPC   D2A36328  29.098  17.481   8.250
 7128POPC   C3A36329  29.167  17.505   7.950
 7128POPC   C4A36330  29.171  17.461   7.650
 7128POPC   C1B36331  28.860  17.535   8.550
 7128POPC   C2B36332  28.878  17.460   8.250
 7128POPC   C3B36333  28.915  17.513   7.950
 7128POPC   C4B36334  28.891  17.460   7.650
 7129POPC   NC336335  40.752  18.237   9.450
 7129POPC   PO436336  40.803  18.278   9.150
 7129POPC   GL136337  40.831  18.289   8.850
 7129POPC   GL236338  40.658  18.286   8.850
 7129POPC   C1A36339  40.808  18.283   8.550
 7129POPC   D2A36340  40.792  18.294   8.250
 7129POPC   C3A36341  40.778  18.240   7.950
 7129POPC   C4A36342  40.816  18.299   7.650
 7129POPC   C1B36343  40.504  18.248   8.550
 7129POPC   C2B36344  40.501  18.239   8.250
 7129POPC   C3B36345  40.493  18.275   7.950
 7129POPC   C4B36346  40.581  18.210   7.650
 7130POPC   NC336347   4.342  33.009   9.450
 7130POPC   PO436348   4.278  33.014   9.150
 7130POPC   GL136349   4.362  33.025   8.850
 7130POPC   GL236350   4.363  32.943   8.850
 7130POPC   C1A36351   4.272  33.015   8.550
 7130POPC   D2A36352   4.277  32.979   8.250
 7130POPC   C3A36353   4.311  33.033   7.950
 7130POPC   C4A36354   4.324  32.996   7.650
 7130POPC   C1B36355   4.465  32.809   8.550
 7130POPC   C2B36356   4.461  32.793   8.250
 7130POPC   C3B36357   4.475  32.792   7.950
 7130POPC   C4B36358   4.391  32.787   7.650
 7131POPC   NC336359  33.755  21.406   9.450
 7131POPC   PO436360  33.826  21.393   9.150
 7131POPC   GL136361  33.801  21.391   8.850
 7131POPC   GL236362  33.755  21.343   8.850
 7131POPC   C1A36363  33.780  21.386   8.550
 7131POPC   D2A36364  33.829  21.408   8.250
 7131POPC   C3A36365  33.782  21.362   7.950
 7131POPC   C4A36366  33.759  21.375   7.650
 7131POPC   C1B36367  33.660  21.227   8.550
 7131POPC   C2B36368  33.614  21.249   8.250
 7131POPC   C3B36369  33.640  21.234   7.950
 7131POPC   C4B36370  33.616  21.247   7.650
 7132POPC   NC336371  19.876   1.176   9.450
 7132POPC   PO436372  19.873   1.189   9.150
 7132POPC   GL136373  19.869   1.259   8.850
 7132POPC   GL236374  19.915   1.277   8.850
 7132POPC   C1A36375  19.851   1.180   8.550
 7132POPC   D2A36376  19.807   1.207   8.250
 7132POPC   C3A36377  19.825   1.236   7.950
 7132POPC   C4A36378  19.846   1.263   7.650
 7132POPC   C1B36379  19.956   1.385   8.550
 7132POPC   C2B36380  19.940   1.385   8.250
 7132POPC   C3B36381  19.966   1.433   7.950
 7132POPC   C4B36382  19.984   1.429   7.650
 7133POPC   NC336383  35.394  33.815   9.450
 7133POPC   PO436384  35.357  33.808   9.150
 7133POPC   GL136385  35.352  33.782   8.850
 7133POPC   GL236386  35.431  33.770   8.850
 7133POPC   C1A36387  35.343  33.764   8.550
 7133POPC   D2A36388  35.348  33.763   8.250
 7133POPC   C3A36389  35.370  33.798   7.950
 7133POPC   C4A36390  35.334  33.826   7.650
 7133POPC   C1B36391  35.562  33.812   8.550
 7133POPC   C2B36392  35.646  33.806   8.250
 7133POPC   C3B36393  35.585  33.826   7.950
 7133POPC   C4B36394  35.584  33.854   7.650
 7134POPC   NC336395  19.084  42.320   9.450
 7134POPC   PO436396  19.087  42.361   9.150
 7134POPC   GL136397  19.080  42.330   8.850
 7134POPC   GL236398  19.011  42.409   8.850
 7134POPC   C1A36399  19.070  42.288   8.550
 7134POPC   D2A36400  19.027  42.360   8.250
 7134POPC   C3A36401  19.028  42.329   7.950
 7134POPC   C4A36402  19.101  42.310   7.650
 7134POPC   C1B36403  18.943  42.523   8.550
 7134POPC   C2B36404  18.895  42.578   8.250
 7134POPC   C3B36405  18.869  42.556   7.950
 7134POPC   C4B36406  18.871  42.559   7.650
 7135POPC   NC336407  29.111  16.722   9.450
 7135POPC   PO436408  29.135  16.752   9.150
 7135POPC   GL136409  29.168  16.739   8.850
 7135POPC   GL236410  29.063  16.637   8.850
 7135POPC   C1A36411  29.161  16.737   8.550
 7135POPC   D2A36412  29.135  16.717   8.250
 7135POPC   C3A36413  29.156  16.720   7.950
 7135POPC   C4A36414  29.169  16.724   7.650
 7135POPC   C1B36415  28.972  16.526   8.550
 7135POPC   C2B36416  28.931  16.570   8.250
 7135POPC   C3B36417  28.993  16.520   7.950
 7135POPC   C4B36418  28.967  16.514   7.650
 7136POPC   NC336419  15.989   8.222   9.450
 7136POPC   PO436420  15.998   8.180   9.150
 7136POPC   GL136421  15.999   8.232   8.850
 7136POPC   GL236422  15.805   8.305   8.850
 7136POPC   C1A36423  16.001   8.241   8.550
 7136POPC   D2A36424  15.979   8.197   8.250
 7136POPC   C3A36425  15.970   8.235   7.950
 7136POPC   C4A36426  15.988   8.182   7.650
 7136POPC   C1B36427  15.735   8.380   8.550
 7136POPC   C2B36428  15.702   8.355   8.250
 7136POPC   C3B36429  15.713   8.338   7.950
 7136POPC   C4B36430  15.735   8.322   7.650
 7137POPC   NC336431  19.850  19.803   9.450
 7137POPC   PO436432  19.798  19.833   9.150
 7137POPC   GL136433  19.868  19.821   8.850
 7137POPC   GL236434  19.730  19.723   8.850
 7137POPC   C1A36435  19.787  19.796   8.550
 7137POPC   D2A36436  19.823  19.851   8.250
 7137POPC   C3A36437  19.840  19.805   7.950
 7137POPC   C4A36438  19.877  19.826   7.650
 7137POPC   C1B36439  19.641  19.651   8.550
 7137POPC   C2B36440  19.639  19.669   8.250
 7137POPC   C3B36441  19.654  19.682   7.950
 7137POPC   C4B36442  19.671  19.702   7.650
 7138POPC   NC336443   4.291  32.231   9.450
 7138POPC   PO436444   4.322  32.210   9.150
 7138POPC   GL136445   4.278  32.243   8.850
 7138POPC   GL236446   4.205  32.102   8.850
 7138POPC   C1A36447   4.356  32.213   8.550
 7138POPC   D2A36448   4.313  32.269   8.250
 7138POPC   C3A36449   4.366  32.251   7.950
 7138POPC   C4A36450   4.358  32.296   7.650
 7138POPC   C1B36451   4.152  32.056   8.550
 7138POPC   C2B36452   4.181  32.037   8.250
 7138POPC   C3B36453   4.194  32.041   7.950
 7138POPC   C4B36454   4.137  32.026   7.650
 7139POPC   NC336455  33.071  20.592   9.450
 7139POPC   PO436456  33.063  20.609   9.150
 7139POPC   GL136457  33.012  20.653   8.850
 7139POPC   GL236458  32.943  20.653   8.850
 7139POPC   C1A36459  33.024  20.563   8.550
 7139POPC   D2A36460  33.043  20.611   8.250
 7139POPC   C3A36461  32.978  20.572   7.950
 7139POPC   C4A36462  33.056  20.570   7.650
 7139POPC   C1B36463  32.883  20.785   8.550
 7139POPC   C2B36464  32.813  20.760   8.250
 7139POPC   C3B36465  32.802  20.742   7.950
 7139POPC   C4B36466  32.829  20.793   7.650
 7140POPC   NC336467  11.323  26.010   9.450
 7140POPC   PO436468  11.297  26.007   9.150
 7140POPC   GL136469  11.254  25.992   8.850
 7140POPC   GL236470  11.245  25.977   8.850
 7140POPC   C1A36471  11.344  25.994   8.550
 7140POPC   D2A36472  11.271  26.005   8.250
 7140POPC   C3A36473  11.256  26.032   7.950
 7140POPC   C4A36474  11.302  26.074   7.650
 7140POPC   C1B36475  11.136  25.892   8.550
 7140POPC   C2B36476  11.105  25.896   8.250
 7140POPC   C3B36477  11.102  25.848   7.950
 7140POPC   C4B36478  11.145  25.916   7.650
 7141POPC   NC336479  11.312  40.796   9.450
 7141POPC   PO436480  11.267  40.798   9.150
 7141POPC   GL136481  11.265  40.801   8.850
 7141POPC   GL236482  11.224  40.920   8.850
 7141POPC   C1A36483  11.273  40.767   8.550
 7141POPC   D2A36484  11.346  40.809   8.250
 7141POPC   C3A36485  11.336  40.813   7.950
 7141POPC   C4A36486  11.312  40.742   7.650
 7141POPC   C1B36487  11.224  41.061   8.550
 7141POPC   C2B36488  11.191  41.034   8.250
 7141POPC   C3B36489  11.181  40.996   7.950
 7141POPC   C4B36490  11.199  41.029   7.650
 7142POPC   NC336491  16.715   0.486   9.450
 7142POPC   PO436492  16.757   0.465   9.150
 7142POPC   GL136493  16.754   0.425   8.850
 7142POPC   GL236494  16.727   0.607   8.850
 7142POPC   C1A36495  16.684   0.407   8.550
 7142POPC   D2A36496  16.769   0.423   8.250
 7142POPC   C3A36497  16.735   0.461   7.950
 7142POPC   C4A36498  16.734   0.419   7.650
 7142POPC   C1B36499  16.665   0.726   8.550
 7142POPC   C2B36500  16.636   0.651   8.250
 7142POPC   C3B36501  16.666   0.632   7.950
 7142POPC   C4B36502  16.662   0.713   7.650
 7143POPC   NC336503  20.649  36.152   9.450
 7143POPC   PO436504  20.584  36.091   9.150
 7143POPC   GL136505  20.656  36.134   8.850
 7143POPC   GL236506  20.498  36.216   8.850
 7143POPC   C1A36507  20.622  36.139   8.550
 7143POPC   D2A36508  20.601  36.159   8.250
 7143POPC   C3A36509  20.576  36.096   7.950
 7143POPC   C4A36510  20.653  36.091   7.650
 7143POPC   C1B36511  20.457  36.321   8.550
 7143POPC   C2B36512  20.409  36.271   8.250
 7143POPC   C3B36513  20.500  36.287   7.950
 7143POPC   C4B36514  20.438  36.318   7.650
 7144POPC   NC336515  20.583   0.473   9.450
 7144POPC   PO436516  20.625   0.390   9.150
 7144POPC   GL136517  20.601   0.449   8.850
 7144POPC   GL236518  20.482   0.576   8.850
 7144POPC   C1A36519  20.570   0.425   8.550
 7144POPC   D2A36520  20.618   0.464   8.250
 7144POPC   C3A36521  20.619   0.405   7.950
 7144POPC   C4A36522  20.580   0.397   7.650
 7144POPC   C1B36523  20.400   0.617   8.550
 7144POPC   C2B36524  20.400   0.646   8.250
 7144POPC   C3B36525  20.492   0.653   7.950
 7144POPC   C4B36526  20.480   0.599   7.650
 7145POPC   NC336527  25.269  32.293   9.450
 7145POPC   PO436528  25.220  32.213   9.150
 7145POPC   GL136529  25.306  32.264   8.850
 7145POPC   GL236530  25.245  32.076   8.850
 7145POPC   C1A36531  25.288  32.243   8.550
 7145POPC   D2A36532  25.264  32.208   8.250
 7145POPC   C3A36533  25.294  32.296   7.950
 7145POPC   C4A36534  25.315  32.265   7.650
 7145POPC   C1B36535  25.322  31.994   8.550
 7145POPC   C2B36536  25.318  31.956   8.250
 7145POPC   C3B36537  25.334  31.953   7.950
 7145POPC   C4B36538  25.290  31.976   7.650
 7146POPC   NC336539  33.811  36.906   9.450
 7146POPC   PO436540  33.810  36.920   9.150
 7146POPC   GL136541  33.808  36.862   8.850
 7146POPC   GL236542  33.685  36.820   8.850
 7146POPC   C1A36543  33.811  36.902   8.550
 7146POPC   D2A36544  33.843  36.949   8.250
 7146POPC   C3A36545  33.834  36.893   7.950
 7146POPC   C4A36546  33.839  36.873   7.650
 7146POPC   C1B36547  33.584  36.844   8.550
 7146POPC   C2B36548  33.606  36.798   8.250
 7146POPC   C3B36549  33.530  36.840   7.950
 7146POPC   C4B36550  33.574  36.824   7.650
 7147POPC   NC336551   5.905  16.723   9.450
 7147POPC   PO436552   5.821  16.695   9.150
 7147POPC   GL136553   5.863  16.777   8.850
 7147POPC   GL236554   5.939  16.575   8.850
 7147POPC   C1A36555   5.834  16.690   8.550
 7147POPC   D2A36556   5.857  16.708   8.250
 7147POPC   C3A36557   5.879  16.752   7.950
 7147POPC   C4A36558   5.835  16.696   7.650
 7147POPC   C1B36559   5.948  16.524   8.550
 7147POPC   C2B36560   5.971  16.553   8.250
 7147POPC   C3B36561   6.000  16.560   7.950
 7147POPC   C4B36562   5.981  16.565   7.650
 7148POPC   NC336563  24.528  11.349   9.450
 7148POPC   PO436564  24.534  11.319   9.150
 7148POPC   GL136565  24.445  11.260   8.850
 7148POPC   GL236566  24.413  11.412   8.850
 7148POPC   C1A36567  24.532  11.272   8.550
 7148POPC   D2A36568  24.471  11.305   8.250
 7148POPC   C3A36569  24.522  11.258   7.950
 7148POPC   C4A36570  24.464  11.345   7.650
 7148POPC   C1B36571  24.311  11.457   8.550
 7148POPC   C2B36572  24.325  11.473   8.250
 7148POPC   C3B36573  24.327  11.509   7.950
 7148POPC   C4B36574  24.274  11.447   7.650
 7149POPC   NC336575  34.606  43.844   9.450
 7149POPC   PO436576  34.546  43.881   9.150
 7149POPC   GL136577  34.528  43.869   8.850
 7149POPC   GL236578  34.591  43.777   8.850
 7149POPC   C1A36579  34.624  43.862   8.550
 7149POPC   D2A36580  34.585  43.854   8.250
 7149POPC   C3A36581  34.604  43.881   7.950
 7149POPC   C4A36582  34.614  43.888   7.650
 7149POPC   C1B36583  34.748  43.708   8.550
 7149POPC   C2B36584  34.669  43.645   8.250
 7149POPC   C3B36585  34.711  43.657   7.950
 7149POPC   C4B36586  34.674  43.702   7.650
 7150POPC   NC336587  27.619   1.981   9.450
 7150POPC   PO436588  27.639   1.967   9.150
 7150POPC   GL136589  27.621   2.029   8.850
 7150POPC   GL236590  27.752   2.063   8.850
 7150POPC   C1A36591  27.628   2.032   8.550
 7150POPC   D2A36592  27.560   1.957   8.250
 7150POPC   C3A36593  27.600   2.022   7.950
 7150POPC   C4A36594  27.597   2.017   7.650
 7150POPC   C1B36595  27.853   2.074   8.550
 7150POPC   C2B36596  27.862   2.088   8.250
 7150POPC   C3B36597  27.811   2.039   7.950
 7150POPC   C4B36598  27.858   2.104   7.650
 7151POPC   NC336599   7.446  29.146   9.450
 7151POPC   PO436600   7.419  29.143   9.150
 7151POPC   GL136601   7.448  29.166   8.850
 7151POPC   GL236602   7.501  29.057   8.850
 7151POPC   C1A36603   7.465  29.168   8.550
 7151POPC   D2A36604   7.451  29.163   8.250
 7151POPC   C3A36605   7.390  29.162   7.950
 7151POPC   C4A36606   7.462  29.169   7.650
 7151POPC   C1B36607   7.657  29.019   8.550
 7151POPC   C2B36608   7.649  28.992   8.250
 7151POPC   C3B36609   7.671  29.031   7.950
 7151POPC   C4B36610   7.602  28.994   7.650
 7152POPC   NC336611   5.113  37.717   9.450
 7152POPC   PO436612   5.074  37.679   9.150
 7152POPC   GL136613   5.058  37.637   8.850
 7152POPC   GL236614   5.156  37.827   8.850
 7152POPC   C1A36615   5.058  37.663   8.550
 7152POPC   D2A36616   5.056  37.720   8.250
 7152POPC   C3A36617   5.046  37.661   7.950
 7152POPC   C4A36618   5.054  37.660   7.650
 7152POPC   C1B36619   5.208  37.915   8.550
 7152POPC   C2B36620   5.197  37.929   8.250
 7152POPC   C3B36621   5.232  37.857   7.950
 7152POPC   C4B36622   5.235  37.878   7.650
 7153POPC   NC336623  12.885  26.050   9.450
 7153POPC   PO436624  12.852  26.031   9.150
 7153POPC   GL136625  12.822  26.007   8.850
 7153POPC   GL236626  12.937  26.052   8.850
 7153POPC   C1A36627  12.850  26.041   8.550
 7153POPC   D2A36628  12.881  26.079   8.250
 7153POPC   C3A36629  12.876  26.019   7.950
 7153POPC   C4A36630  12.842  26.016   7.650
 7153POPC   C1B36631  13.139  26.016   8.550
 7153POPC   C2B36632  13.132  26.079   8.250
 7153POPC   C3B36633  13.110  26.043   7.950
 7153POPC   C4B36634  13.116  26.004   7.650
 7154POPC   NC336635   7.417  36.882   9.450
 7154POPC   PO436636   7.444  36.929   9.150
 7154POPC   GL136637   7.381  36.896   8.850
 7154POPC   GL236638   7.563  36.821   8.850
 7154POPC   C1A36639   7.395  36.928   8.550
 7154POPC   D2A36640   7.444  36.857   8.250
 7154POPC   C3A36641   7.409  36.886   7.950
 7154POPC   C4A36642   7.413  36.930   7.650
 7154POPC   C1B36643   7.574  36.712   8.550
 7154POPC   C2B36644   7.573  36.742   8.250
 7154POPC   C3B36645   7.586  36.718   7.950
 7154POPC   C4B36646   7.633  36.757   7.650
 7155POPC   NC336647  11.257  24.462   9.450
 7155POPC   PO436648  11.306  24.458   9.150
 7155POPC   GL136649  11.293  24.451   8.850
 7155POPC   GL236650  11.295  24.337   8.850
 7155POPC   C1A36651  11.307  24.529   8.550
 7155POPC   D2A36652  11.279  24.531   8.250
 7155POPC   C3A36653  11.317  24.444   7.950
 7155POPC   C4A36654  11.337  24.473   7.650
 7155POPC   C1B36655  11.289  24.271   8.550
 7155POPC   C2B36656  11.347  24.204   8.250
 7155POPC   C3B36657  11.323  24.261   7.950
 7155POPC   C4B36658  11.314  24.213   7.650
 7156POPC   NC336659   2.779  40.817   9.450
 7156POPC   PO436660   2.726  40.821   9.150
 7156POPC   GL136661   2.777  40.774   8.850
 7156POPC   GL236662   2.677  40.801   8.850
 7156POPC   C1A36663   2.800  40.742   8.550
 7156POPC   D2A36664   2.755  40.774   8.250
 7156POPC   C3A36665   2.741  40.754   7.950
 7156POPC   C4A36666   2.783  40.768   7.650
 7156POPC   C1B36667   2.583  40.927   8.550
 7156POPC   C2B36668   2.584  40.853   8.250
 7156POPC   C3B36669   2.581  40.878   7.950
 7156POPC   C4B36670   2.573  40.942   7.650
 7157POPC   NC336671  33.764  36.103   9.450
 7157POPC   PO436672  33.799  36.161   9.150
 7157POPC   GL136673  33.810  36.141   8.850
 7157POPC   GL236674  33.761  35.972   8.850
 7157POPC   C1A36675  33.821  36.087   8.550
 7157POPC   D2A36676  33.806  36.109   8.250
 7157POPC   C3A36677  33.762  36.123   7.950
 7157POPC   C4A36678  33.836  36.087   7.650
 7157POPC   C1B36679  33.846  35.829   8.550
 7157POPC   C2B36680  33.824  35.912   8.250
 7157POPC   C3B36681  33.826  35.855   7.950
 7157POPC   C4B36682  33.843  35.833   7.650
 7158POPC   NC336683  19.108  32.991   9.450
 7158POPC   PO436684  19.044  33.064   9.150
 7158POPC   GL136685  19.088  33.042   8.850
 7158POPC   GL236686  19.088  32.862   8.850
 7158POPC   C1A36687  19.087  33.019   8.550
 7158POPC   D2A36688  19.068  33.050   8.250
 7158POPC   C3A36689  19.020  33.067   7.950
 7158POPC   C4A36690  19.049  33.014   7.650
 7158POPC   C1B36691  19.195  32.780   8.550
 7158POPC   C2B36692  19.164  32.822   8.250
 7158POPC   C3B36693  19.196  32.844   7.950
 7158POPC   C4B36694  19.177  32.799   7.650
 7159POPC   NC336695  36.855  36.166   9.450
 7159POPC   PO436696  36.879  36.168   9.150
 7159POPC   GL136697  36.949  36.092   8.850
 7159POPC   GL236698  37.054  36.147   8.850
 7159POPC   C1A36699  36.900  36.135   8.550
 7159POPC   D2A36700  36.877  36.166   8.250
 7159POPC   C3A36701  36.885  36.166   7.950
 7159POPC   C4A36702  36.888  36.155   7.650
 7159POPC   C1B36703  37.170  36.129   8.550
 7159POPC   C2B36704  37.152  36.189   8.250
 7159POPC   C3B36705  37.124  36.108   7.950
 7159POPC   C4B36706  37.192  36.142   7.650
 7160POPC   NC336707   2.736   1.215   9.450
 7160POPC   PO436708   2.796   1.221   9.150
 7160POPC   GL136709   2.729   1.242   8.850
 7160POPC   GL236710   2.691   1.158   8.850
 7160POPC   C1A36711   2.798   1.227   8.550
 7160POPC   D2A36712   2.745   1.256   8.250
 7160POPC   C3A36713   2.724   1.184   7.950
 7160POPC   C4A36714   2.796   1.230   7.650
 7160POPC   C1B36715   2.563   1.102   8.550
 7160POPC   C2B36716   2.499   1.114   8.250
 7160POPC   C3B36717   2.538   1.076   7.950
 7160POPC   C4B36718   2.575   1.097   7.650
 7161POPC   NC336719  25.265  26.773   9.450
 7161POPC   PO436720  25.296  26.768   9.150
 7161POPC   GL136721  25.315  26.783   8.850
 7161POPC   GL236722  25.322  26.881   8.850
 7161POPC   C1A36723  25.257  26.831   8.550
 7161POPC   D2A36724  25.248  26.843   8.250
 7161POPC   C3A36725  25.267  26.776   7.950
 7161POPC   C4A36726  25.241  26.857   7.650
 7161POPC   C1B36727  25.379  27.005   8.550
 7161POPC   C2B36728  25.469  27.030   8.250
 7161POPC   C3B36729  25.439  27.026   7.950
 7161POPC   C4B36730  25.438  26.976   7.650
 7162POPC   NC336731  36.096  32.986   9.450
 7162POPC   PO436732  36.079  32.980   9.150
 7162POPC   GL136733  36.133  33.062   8.850
 7162POPC   GL236734  36.158  32.953   8.850
 7162POPC   C1A36735  36.095  33.047   8.550
 7162POPC   D2A36736  36.169  33.035   8.250
 7162POPC   C3A36737  36.107  33.036   7.950
 7162POPC   C4A36738  36.102  33.041   7.650
 7162POPC   C1B36739  36.312  32.844   8.550
 7162POPC   C2B36740  36.301  32.795   8.250
 7162POPC   C3B36741  36.309  32.779   7.950
 7162POPC   C4B36742  36.279  32.777   7.650
 7163POPC   NC336743  19.856  24.498   9.450
 7163POPC   PO436744  19.843  24.536   9.150
 7163POPC   GL136745  19.866  24.505   8.850
 7163POPC   GL236746  19.935  24.601   8.850
 7163POPC   C1A36747  19.797  24.476   8.550
 7163POPC   D2A36748  19.794  24.518   8.250
 7163POPC   C3A36749  19.806  24.451   7.950
 7163POPC   C4A36750  19.862  24.503   7.650
 7163POPC   C1B36751  19.922  24.700   8.550
 7163POPC   C2B36752  19.976  24.702   8.250
 7163POPC   C3B36753  19.928  24.681   7.950
 7163POPC   C4B36754  19.921  24.653   7.650
 7164POPC   NC336755   3.531  30.653   9.450
 7164POPC   PO436756   3.492  30.729   9.150
 7164POPC   GL136757   3.567  30.705   8.850
 7164POPC   GL236758   3.487  30.831   8.850
 7164POPC   C1A36759   3.518  30.698   8.550
 7164POPC   D2A36760   3.516  30.655   8.250
 7164POPC   C3A36761   3.513  30.722   7.950
 7164POPC   C4A36762   3.551  30.687   7.650
 7164POPC   C1B36763   3.529  30.918   8.550
 7164POPC   C2B36764   3.544  30.938   8.250
 7164POPC   C3B36765   3.549  30.962   7.950
 7164POPC   C4B36766   3.553  30.962   7.650
 7165POPC   NC336767  28.378  23.672   9.450
 7165POPC   PO436768  28.368  23.724   9.150
 7165POPC   GL136769  28.414  23.748   8.850
 7165POPC   GL236770  28.416  23.553   8.850
 7165POPC   C1A36771  28.367  23.699   8.550
 7165POPC   D2A36772  28.374  23.714   8.250
 7165POPC   C3A36773  28.408  23.730   7.950
 7165POPC   C4A36774  28.354  23.710   7.650
 7165POPC   C1B36775  28.415  23.478   8.550
 7165POPC   C2B36776  28.397  23.503   8.250
 7165POPC   C3B36777  28.412  23.481   7.950
 7165POPC   C4B36778  28.411  23.449   7.650
 7166POPC   NC336779  26.085   2.025   9.450
 7166POPC   PO436780  26.017   1.960   9.150
 7166POPC   GL136781  26.042   2.013   8.850
 7166POPC   GL236782  26.099   1.918   8.850
 7166POPC   C1A36783  26.012   2.000   8.550
 7166POPC   D2A36784  26.064   2.001   8.250
 7166POPC   C3A36785  26.005   1.946   7.950
 7166POPC   C4A36786  26.062   1.972   7.650
 7166POPC   C1B36787  26.189   1.853   8.550
 7166POPC   C2B36788  26.202   1.766   8.250
 7166POPC   C3B36789  26.180   1.831   7.950
 7166POPC   C4B36790  26.185   1.782   7.650
 7167POPC   NC336791  12.032   1.204   9.450
 7167POPC   PO436792  12.082   1.208   9.150
 7167POPC   GL136793  12.037   1.251   8.850
 7167POPC   GL236794  12.233   1.206   8.850
 7167POPC   C1A36795  12.101   1.247   8.550
 7167POPC   D2A36796  12.113   1.192   8.250
 7167POPC   C3A36797  12.080   1.191   7.950
 7167POPC   C4A36798  12.119   1.217   7.650
 7167POPC   C1B36799  12.289   1.182   8.550
 7167POPC   C2B36800  12.342   1.161   8.250
 7167POPC   C3B36801  12.329   1.172   7.950
 7167POPC   C4B36802  12.363   1.195   7.650
 7168POPC   NC336803   9.730   7.389   9.450
 7168POPC   PO436804   9.763   7.443   9.150
 7168POPC   GL136805   9.729   7.400   8.850
 7168POPC   GL236806   9.620   7.394   8.850
 7168POPC   C1A36807   9.703   7.420   8.550
 7168POPC   D2A36808   9.764   7.376   8.250
 7168POPC   C3A36809   9.766   7.400   7.950
 7168POPC   C4A36810   9.767   7.379   7.650
 7168POPC   C1B36811   9.587   7.241   8.550
 7168POPC   C2B36812   9.540   7.226   8.250
 7168POPC   C3B36813   9.587   7.284   7.950
 7168POPC   C4B36814   9.530   7.242   7.650
 7169POPC   NC336815  37.691   8.189   9.450
 7169POPC   PO436816  37.675   8.149   9.150
 7169POPC   GL136817  37.668   8.183   8.850
 7169POPC   GL236818  37.627   8.234   8.850
 7169POPC   C1A36819  37.688   8.173   8.550
 7169POPC   D2A36820  37.666   8.151   8.250
 7169POPC   C3A36821  37.637   8.234   7.950
 7169POPC   C4A36822  37.694   8.212   7.650
 7169POPC   C1B36823  37.472   8.353   8.550
 7169POPC   C2B36824  37.508   8.399   8.250
 7169POPC   C3B36825  37.548   8.369   7.950
 7169POPC   C4B36826  37.454   8.365   7.650
 7170POPC   NC336827  19.079  26.788   9.450
 7170POPC   PO436828  19.096  26.845   9.150
 7170POPC   GL136829  19.030  26.793   8.850
 7170POPC   GL236830  19.124  26.963   8.850
 7170POPC   C1A36831  19.017  26.806   8.550
 7170POPC   D2A36832  19.062  26.795   8.250
 7170POPC   C3A36833  19.086  26.849   7.950
 7170POPC   C4A36834  19.010  26.795   7.650
 7170POPC   C1B36835  19.066  27.018   8.550
 7170POPC   C2B36836  19.100  27.090   8.250
 7170POPC   C3B36837  19.062  27.066   7.950
 7170POPC   C4B36838  19.100  27.029   7.650
 7171POPC   NC336839   1.178  14.363   9.450
 7171POPC   PO436840   1.179  14.415   9.150
 7171POPC   GL136841   1.262  14.399   8.850
 7171POPC   GL236842   1.079  14.397   8.850
 7171POPC   C1A36843   1.176  14.395   8.550
 7171POPC   D2A36844   1.227  14.389   8.250
 7171POPC   C3A36845   1.227  14.399   7.950
 7171POPC   C4A36846   1.185  14.393   7.650
 7171POPC   C1B36847   0.985  14.449   8.550
 7171POPC   C2B36848   0.940  14.420   8.250
 7171POPC   C3B36849   0.936  14.453   7.950
 7171POPC   C4B36850   0.923  14.464   7.650
 7172POPC   NC336851  22.197  26.009   9.450
 7172POPC   PO436852  22.137  26.045   9.150
 7172POPC   GL136853  22.114  26.052   8.850
 7172POPC   GL236854  22.113  26.127   8.850
 7172POPC   C1A36855  22.156  26.005   8.550
 7172POPC   D2A36856  22.203  26.000   8.250
 7172POPC   C3A36857  22.164  26.073   7.950
 7172POPC   C4A36858  22.179  26.060   7.650
 7172POPC   C1B36859  22.046  26.284   8.550
 7172POPC   C2B36860  22.054  26.296   8.250
 7172POPC   C3B36861  22.026  26.249   7.950
 7172POPC   C4B36862  22.015  26.219   7.650
 7173POPC   NC336863   5.911  27.561   9.450
 7173POPC   PO436864   5.874  27.555   9.150
 7173POPC   GL136865   5.888  27.592   8.850
 7173POPC   GL236866   5.856  27.514   8.850
 7173POPC   C1A36867   5.831  27.548   8.550
 7173POPC   D2A36868   5.906  27.641   8.250
 7173POPC   C3A36869   5.843  27.609   7.950
 7173POPC   C4A36870   5.913  27.564   7.650
 7173POPC   C1B36871   5.820  27.320   8.550
 7173POPC   C2B36872   5.891  27.295   8.250
 7173POPC   C3B36873   5.842  27.382   7.950
 7173POPC   C4B36874   5.859  27.380   7.650
 7174POPC   NC336875   3.517  40.040   9.450
 7174POPC   PO436876   3.493  39.975   9.150
 7174POPC   GL136877   3.517  39.977   8.850
 7174POPC   GL236878   3.551  40.167   8.850
 7174POPC   C1A36879   3.544  40.009   8.550
 7174POPC   D2A36880   3.542  40.042   8.250
 7174POPC   C3A36881   3.554  39.981   7.950
 7174POPC   C4A36882   3.505  40.011   7.650
 7174POPC   C1B36883   3.508  40.298   8.550
 7174POPC   C2B36884   3.512  40.259   8.250
 7174POPC   C3B36885   3.480  40.250   7.950
 7174POPC   C4B36886   3.530  40.266   7.650
 7175POPC   NC336887  37.641   5.100   9.450
 7175POPC   PO436888  37.727   5.133   9.150
 7175POPC   GL136889  37.723   5.121   8.850
 7175POPC   GL236890  37.607   4.975   8.850
 7175POPC   C1A36891  37.711   5.084   8.550
 7175POPC   D2A36892  37.658   5.136   8.250
 7175POPC   C3A36893  37.729   5.101   7.950
 7175POPC   C4A36894  37.682   5.050   7.650
 7175POPC   C1B36895  37.574   4.894   8.550
 7175POPC   C2B36896  37.570   4.895   8.250
 7175POPC   C3B36897  37.622   4.889   7.950
 7175POPC   C4B36898  37.614   4.842   7.650
 7176POPC   NC336899  43.104  10.514   9.450
 7176POPC   PO436900  43.113  10.566   9.150
 7176POPC   GL136901  43.133  10.500   8.850
 7176POPC   GL236902  42.970  10.609   8.850
 7176POPC   C1A36903  43.135  10.502   8.550
 7176POPC   D2A36904  43.129  10.547   8.250
 7176POPC   C3A36905  43.085  10.546   7.950
 7176POPC   C4A36906  43.107  10.542   7.650
 7176POPC   C1B36907  42.930  10.646   8.550
 7176POPC   C2B36908  42.956  10.632   8.250
 7176POPC   C3B36909  42.927  10.719   7.950
 7176POPC   C4B36910  42.924  10.721   7.650
 7177POPC   NC336911  30.736  44.700   9.450
 7177POPC   PO436912  30.650  44.707   9.150
 7177POPC   GL136913  30.715  44.708   8.850
 7177POPC   GL236914  30.832  44.693   8.850
 7177POPC   C1A36915  30.735  44.667   8.550
 7177POPC   D2A36916  30.674  44.632   8.250
 7177POPC   C3A36917  30.678  44.625   7.950
 7177POPC   C4A36918  30.657  44.650   7.650
 7177POPC   C1B36919  30.927  44.693   8.550
 7177POPC   C2B36920  30.935  44.623   8.250
 7177POPC   C3B36921  30.965  44.685   7.950
 7177POPC   C4B36922  30.921  44.622   7.650
 7178POPC   NC336923   6.616   5.059   9.450
 7178POPC   PO436924   6.613   5.112   9.150
 7178POPC   GL136925   6.671   5.082   8.850
 7178POPC   GL236926   6.663   5.007   8.850
 7178POPC   C1A36927   6.694   5.055   8.550
 7178POPC   D2A36928   6.648   5.112   8.250
 7178POPC   C3A36929   6.627   5.080   7.950
 7178POPC   C4A36930   6.605   5.054   7.650
 7178POPC   C1B36931   6.718   4.862   8.550
 7178POPC   C2B36932   6.715   4.852   8.250
 7178POPC   C3B36933   6.698   4.904   7.950
 7178POPC   C4B36934   6.730   4.825   7.650
 7179POPC   NC336935  38.413   2.776   9.450
 7179POPC   PO436936  38.415   2.813   9.150
 7179POPC   GL136937  38.490   2.767   8.850
 7179POPC   GL236938  38.425   2.850   8.850
 7179POPC   C1A36939  38.494   2.797   8.550
 7179POPC   D2A36940  38.418   2.724   8.250
 7179POPC   C3A36941  38.498   2.782   7.950
 7179POPC   C4A36942  38.498   2.810   7.650
 7179POPC   C1B36943  38.393   3.048   8.550
 7179POPC   C2B36944  38.421   2.998   8.250
 7179POPC   C3B36945  38.444   2.983   7.950
 7179POPC   C4B36946  38.427   3.047   7.650
 7180POPC   NC336947  26.066  22.131   9.450
 7180POPC   PO436948  26.059  22.186   9.150
 7180POPC   GL136949  26.070  22.119   8.850
 7180POPC   GL236950  26.049  22.325   8.850
 7180POPC   C1A36951  26.015  22.146   8.550
 7180POPC   D2A36952  26.037  22.144   8.250
 7180POPC   C3A36953  26.026  22.155   7.950
 7180POPC   C4A36954  26.028  22.166   7.650
 7180POPC   C1B36955  25.999  22.422   8.550
 7180POPC   C2B36956  25.995  22.437   8.250
 7180POPC   C3B36957  26.028  22.411   7.950
 7180POPC   C4B36958  26.031  22.395   7.650
 7181POPC   NC336959  33.025  34.557   9.450
 7181POPC   PO436960  33.046  34.567   9.150
 7181POPC   GL136961  33.049  34.586   8.850
 7181POPC   GL236962  33.023  34.720   8.850
 7181POPC   C1A36963  33.054  34.569   8.550
 7181POPC   D2A36964  33.025  34.571   8.250
 7181POPC   C3A36965  32.998  34.574   7.950
 7181POPC   C4A36966  33.054  34.624   7.650
 7181POPC   C1B36967  33.040  34.810   8.550
 7181POPC   C2B36968  33.067  34.801   8.250
 7181POPC   C3B36969  33.034  34.838   7.950
 7181POPC   C4B36970  33.092  34.804   7.650
 7182POPC   NC336971   9.728   8.986   9.450
 7182POPC   PO436972   9.706   8.939   9.150
 7182POPC   GL136973   9.771   8.945   8.850
 7182POPC   GL236974   9.820   8.888   8.850
 7182POPC   C1A36975   9.753   8.968   8.550
 7182POPC   D2A36976   9.769   8.967   8.250
 7182POPC   C3A36977   9.732   8.977   7.950
 7182POPC   C4A36978   9.779   8.935   7.650
 7182POPC   C1B36979   9.855   8.724   8.550
 7182POPC   C2B36980   9.838   8.789   8.250
 7182POPC   C3B36981   9.862   8.732   7.950
 7182POPC   C4B36982   9.799   8.761   7.650
 7183POPC   NC336983  10.498  39.243   9.450
 7183POPC   PO436984  10.500  39.280   9.150
 7183POPC   GL136985  10.551  39.198   8.850
 7183POPC   GL236986  10.678  39.210   8.850
 7183POPC   C1A36987  10.517  39.242   8.550
 7183POPC   D2A36988  10.549  39.249   8.250
 7183POPC   C3A36989  10.519  39.266   7.950
 7183POPC   C4A36990  10.525  39.243   7.650
 7183POPC   C1B36991  10.817  39.246   8.550
 7183POPC   C2B36992  10.799  39.200   8.250
 7183POPC   C3B36993  10.779  39.233   7.950
 7183POPC   C4B36994  10.741  39.274   7.650
 7184POPC   NC336995   2.732  22.923   9.450
 7184POPC   PO436996   2.726  22.890   9.150
 7184POPC   GL136997   2.809  22.962   8.850
 7184POPC   GL236998   2.736  22.784   8.850
 7184POPC   C1A36999   2.761  22.973   8.550
 7184POPC   D2A37000   2.790  22.962   8.250
 7184POPC   C3A37001   2.797  22.981   7.950
 7184POPC   C4A37002   2.765  22.918   7.650
 7184POPC   C1B37003   2.755  22.674   8.550
 7184POPC   C2B37004   2.707  22.678   8.250
 7184POPC   C3B37005   2.753  22.684   7.950
 7184POPC   C4B37006   2.780  22.671   7.650
 7185POPC   NC337007  32.215   2.777   9.450
 7185POPC   PO437008  32.266   2.765   9.150
 7185POPC   GL137009  32.273   2.781   8.850
 7185POPC   GL237010  32.247   2.615   8.850
 7185POPC   C1A37011  32.294   2.797   8.550
 7185POPC   D2A37012  32.259   2.787   8.250
 7185POPC   C3A37013  32.259   2.753   7.950
 7185POPC   C4A37014  32.285   2.755   7.650
 7185POPC   C1B37015  32.278   2.512   8.550
 7185POPC   C2B37016  32.293   2.565   8.250
 7185POPC   C3B37017  32.324   2.533   7.950
 7185POPC   C4B37018  32.284   2.477   7.650
 7186POPC   NC337019   2.004   1.245   9.450
 7186POPC   PO437020   1.971   1.186   9.150
 7186POPC   GL137021   1.942   1.210   8.850
 7186POPC   GL237022   2.031   1.126   8.850
 7186POPC   C1A37023   1.977   1.206   8.550
 7186POPC   D2A37024   1.977   1.211   8.250
 7186POPC   C3A37025   2.022   1.196   7.950
 7186POPC   C4A37026   1.984   1.230   7.650
 7186POPC   C1B37027   2.054   1.006   8.550
 7186POPC   C2B37028   2.032   0.962   8.250
 7186POPC   C3B37029   2.038   0.994   7.950
 7186POPC   C4B37030   2.004   0.924   7.650
 7187POPC   NC337031  26.817  29.154   9.450
 7187POPC   PO437032  26.786  29.173   9.150
 7187POPC   GL137033  26.794  29.162   8.850
 7187POPC   GL237034  26.889  29.102   8.850
 7187POPC   C1A37035  26.775  29.189   8.550
 7187POPC   D2A37036  26.770  29.136   8.250
 7187POPC   C3A37037  26.837  29.119   7.950
 7187POPC   C4A37038  26.853  29.100   7.650
 7187POPC   C1B37039  27.044  28.963   8.550
 7187POPC   C2B37040  27.007  28.966   8.250
 7187POPC   C3B37041  27.019  29.020   7.950
 7187POPC   C4B37042  26.953  28.986   7.650
 7188POPC   NC337043   2.801  14.415   9.450
 7188POPC   PO437044   2.771  14.440   9.150
 7188POPC   GL137045   2.792  14.395   8.850
 7188POPC   GL237046   2.743  14.236   8.850
 7188POPC   C1A37047   2.748  14.358   8.550
 7188POPC   D2A37048   2.781  14.393   8.250
 7188POPC   C3A37049   2.807  14.388   7.950
 7188POPC   C4A37050   2.792  14.421   7.650
 7188POPC   C1B37051   2.728  14.174   8.550
 7188POPC   C2B37052   2.675  14.161   8.250
 7188POPC   C3B37053   2.666  14.183   7.950
 7188POPC   C4B37054   2.658  14.165   7.650
 7189POPC   NC337055  22.124  11.260   9.450
 7189POPC   PO437056  22.198  11.314   9.150
 7189POPC   GL137057  22.177  11.307   8.850
 7189POPC   GL237058  22.100  11.373   8.850
 7189POPC   C1A37059  22.119  11.337   8.550
 7189POPC   D2A37060  22.174  11.323   8.250
 7189POPC   C3A37061  22.113  11.317   7.950
 7189POPC   C4A37062  22.180  11.259   7.650
 7189POPC   C1B37063  21.982  11.452   8.550
 7189POPC   C2B37064  21.981  11.413   8.250
 7189POPC   C3B37065  21.927  11.448   7.950
 7189POPC   C4B37066  21.940  11.458   7.650
 7190POPC   NC337067  20.566   9.794   9.450
 7190POPC   PO437068  20.583   9.758   9.150
 7190POPC   GL137069  20.605   9.713   8.850
 7190POPC   GL237070  20.768   9.732   8.850
 7190POPC   C1A37071  20.589   9.747   8.550
 7190POPC   D2A37072  20.628   9.764   8.250
 7190POPC   C3A37073  20.570   9.745   7.950
 7190POPC   C4A37074  20.562   9.779   7.650
 7190POPC   C1B37075  20.849   9.704   8.550
 7190POPC   C2B37076  20.819   9.771   8.250
 7190POPC   C3B37077  20.816   9.707   7.950
 7190POPC   C4B37078  20.867   9.799   7.650
 7191POPC   NC337079   5.091  15.183   9.450
 7191POPC   PO437080   5.115  15.207   9.150
 7191POPC   GL137081   5.101  15.182   8.850
 7191POPC   GL237082   5.173  15.060   8.850
 7191POPC   C1A37083   5.060  15.148   8.550
 7191POPC   D2A37084   5.066  15.153   8.250
 7191POPC   C3A37085   5.116  15.130   7.950
 7191POPC   C4A37086   5.129  15.227   7.650
 7191POPC   C1B37087   5.290  14.997   8.550
 7191POPC   C2B37088   5.200  14.964   8.250
 7191POPC   C3B37089   5.209  14.940   7.950
 7191POPC   C4B37090   5.268  15.030   7.650
 7192POPC   NC337091   8.957  15.181   9.450
 7192POPC   PO437092   8.985  15.193   9.150
 7192POPC   GL137093   9.021  15.146   8.850
 7192POPC   GL237094   9.036  15.258   8.850
 7192POPC   C1A37095   8.939  15.201   8.550
 7192POPC   D2A37096   8.955  15.183   8.250
 7192POPC   C3A37097   9.007  15.139   7.950
 7192POPC   C4A37098   8.935  15.219   7.650
 7192POPC   C1B37099   9.172  15.336   8.550
 7192POPC   C2B37100   9.219  15.257   8.250
 7192POPC   C3B37101   9.165  15.309   7.950
 7192POPC   C4B37102   9.144  15.307   7.650
 7193POPC   NC337103  38.488  18.246   9.450
 7193POPC   PO437104  38.459  18.234   9.150
 7193POPC   GL137105  38.489  18.305   8.850
 7193POPC   GL237106  38.301  18.312   8.850
 7193POPC   C1A37107  38.432  18.331   8.550
 7193POPC   D2A37108  38.473  18.261   8.250
 7193POPC   C3A37109  38.441  18.291   7.950
 7193POPC   C4A37110  38.410  18.326   7.650
 7193POPC   C1B37111  38.241  18.410   8.550
 7193POPC   C2B37112  38.217  18.399   8.250
 7193POPC   C3B37113  38.265  18.336   7.950
 7193POPC   C4B37114  38.264  18.367   7.650
 7194POPC   NC337115   8.942  15.922   9.450
 7194POPC   PO437116   8.981  15.924   9.150
 7194POPC   GL137117   9.018  15.942   8.850
 7194POPC   GL237118   9.056  16.025   8.850
 7194POPC   C1A37119   8.928  15.981   8.550
 7194POPC   D2A37120   8.995  15.999   8.250
 7194POPC   C3A37121   8.978  15.961   7.950
 7194POPC   C4A37122   8.982  15.955   7.650
 7194POPC   C1B37123   9.236  15.977   8.550
 7194POPC   C2B37124   9.182  15.996   8.250
 7194POPC   C3B37125   9.221  16.006   7.950
 7194POPC   C4B37126   9.171  16.027   7.650
 7195POPC   NC337127  10.517   7.394   9.450
 7195POPC   PO437128  10.484   7.392   9.150
 7195POPC   GL137129  10.518   7.448   8.850
 7195POPC   GL237130  10.513   7.268   8.850
 7195POPC   C1A37131  10.562   7.424   8.550
 7195POPC   D2A37132  10.557   7.427   8.250
 7195POPC   C3A37133  10.503   7.469   7.950
 7195POPC   C4A37134  10.537   7.464   7.650
 7195POPC   C1B37135  10.458   7.217   8.550
 7195POPC   C2B37136  10.439   7.156   8.250
 7195POPC   C3B37137  10.440   7.167   7.950
 7195POPC   C4B37138  10.411   7.172   7.650
 7196POPC   NC337139   9.019  40.789   9.450
 7196POPC   PO437140   8.988  40.741   9.150
 7196POPC   GL137141   8.996  40.804   8.850
 7196POPC   GL237142   9.004  40.625   8.850
 7196POPC   C1A37143   9.014  40.832   8.550
 7196POPC   D2A37144   8.968  40.810   8.250
 7196POPC   C3A37145   8.930  40.768   7.950
 7196POPC   C4A37146   8.957  40.792   7.650
 7196POPC   C1B37147   9.019  40.521   8.550
 7196POPC   C2B37148   9.056  40.553   8.250
 7196POPC   C3B37149   8.980  40.524   7.950
 7196POPC   C4B37150   8.959  40.535   7.650
 7197POPC   NC337151   3.544  32.234   9.450
 7197POPC   PO437152   3.566  32.262   9.150
 7197POPC   GL137153   3.502  32.287   8.850
 7197POPC   GL237154   3.464  32.273   8.850
 7197POPC   C1A37155   3.570  32.294   8.550
 7197POPC   D2A37156   3.506  32.244   8.250
 7197POPC   C3A37157   3.583  32.284   7.950
 7197POPC   C4A37158   3.536  32.224   7.650
 7197POPC   C1B37159   3.291  32.295   8.550
 7197POPC   C2B37160   3.314  32.357   8.250
 7197POPC   C3B37161   3.334  32.299   7.950
 7197POPC   C4B37162   3.316  32.355   7.650
 7198POPC   NC337163  23.757  22.908   9.450
 7198POPC   PO437164  23.680  22.952   9.150
 7198POPC   GL137165  23.673  22.932   8.850
 7198POPC   GL237166  23.750  23.009   8.850
 7198POPC   C1A37167  23.686  22.971   8.550
 7198POPC   D2A37168  23.687  22.956   8.250
 7198POPC   C3A37169  23.752  22.902   7.950
 7198POPC   C4A37170  23.693  22.946   7.650
 7198POPC   C1B37171  23.793  23.146   8.550
 7198POPC   C2B37172  23.786  23.136   8.250
 7198POPC   C3B37173  23.825  23.176   7.950
 7198POPC   C4B37174  23.824  23.197   7.650
 7199POPC   NC337175  26.066  19.031   9.450
 7199POPC   PO437176  26.067  19.055   9.150
 7199POPC   GL137177  26.050  19.024   8.850
 7199POPC   GL237178  25.912  19.108   8.850
 7199POPC   C1A37179  26.036  19.046   8.550
 7199POPC   D2A37180  26.072  19.042   8.250
 7199POPC   C3A37181  26.055  19.089   7.950
 7199POPC   C4A37182  26.059  19.091   7.650
 7199POPC   C1B37183  25.762  19.106   8.550
 7199POPC   C2B37184  25.841  19.046   8.250
 7199POPC   C3B37185  25.802  19.089   7.950
 7199POPC   C4B37186  25.780  19.077   7.650
 7200POPC   NC337187  20.633  19.022   9.450
 7200POPC   PO437188  20.638  19.059   9.150
 7200POPC   GL137189  20.578  19.033   8.850
 7200POPC   GL237190  20.681  19.182   8.850
 7200POPC   C1A37191  20.592  19.090   8.550
 7200POPC   D2A37192  20.627  19.072   8.250
 7200POPC   C3A37193  20.588  19.072   7.950
 7200POPC   C4A37194  20.612  19.071   7.650
 7200POPC   C1B37195  20.795  19.262   8.550
 7200POPC   C2B37196  20.752  19.204   8.250
 7200POPC   C3B37197  20.798  19.276   7.950
 7200POPC   C4B37198  20.739  19.279   7.650
 7201POPC   NC337199  19.089  32.204   9.450
 7201POPC   PO437200  19.074  32.238   9.150
 7201POPC   GL137201  19.033  32.256   8.850
 7201POPC   GL237202  18.923  32.273   8.850
 7201POPC   C1A37203  19.092  32.265   8.550
 7201POPC   D2A37204  19.088  32.220   8.250
 7201POPC   C3A37205  19.088  32.201   7.950
 7201POPC   C4A37206  19.067  32.201   7.650
 7201POPC   C1B37207  18.769  32.205   8.550
 7201POPC   C2B37208  18.831  32.228   8.250
 7201POPC   C3B37209  18.792  32.233   7.950
 7201POPC   C4B37210  18.845  32.241   7.650
 7202POPC   NC337211  19.830  20.613   9.450
 7202POPC   PO437212  19.811  20.658   9.150
 7202POPC   GL137213  19.842  20.616   8.850
 7202POPC   GL237214  19.848  20.442   8.850
 7202POPC   C1A37215  19.852  20.640   8.550
 7202POPC   D2A37216  19.868  20.590   8.250
 7202POPC   C3A37217  19.852  20.586   7.950
 7202POPC   C4A37218  19.848  20.587   7.650
 7202POPC   C1B37219  19.843  20.412   8.550
 7202POPC   C2B37220  19.774  20.326   8.250
 7202POPC   C3B37221  19.754  20.365   7.950
 7202POPC   C4B37222  19.753  20.355   7.650
 7203POPC   NC337223   1.957  31.440   9.450
 7203POPC   PO437224   2.002  31.451   9.150
 7203POPC   GL137225   2.002  31.495   8.850
 7203POPC   GL237226   1.992  31.563   8.850
 7203POPC   C1A37227   2.009  31.477   8.550
 7203POPC   D2A37228   2.030  31.491   8.250
 7203POPC   C3A37229   2.011  31.441   7.950
 7203POPC   C4A37230   1.954  31.448   7.650
 7203POPC   C1B37231   1.988  31.699   8.550
 7203POPC   C2B37232   1.973  31.748   8.250
 7203POPC   C3B37233   1.974  31.679   7.950
 7203POPC   C4B37234   1.979  31.685   7.650
 7204POPC   NC337235  37.641  29.189   9.450
 7204POPC   PO437236  37.638  29.194   9.150
 7204POPC   GL137237  37.693  29.149   8.850
 7204POPC   GL237238  37.582  29.069   8.850
 7204POPC   C1A37239  37.659  29.145   8.550
 7204POPC   D2A37240  37.721  29.141   8.250
 7204POPC   C3A37241  37.650  29.140   7.950
 7204POPC   C4A37242  37.667  29.165   7.650
 7204POPC   C1B37243  37.461  29.061   8.550
 7204POPC   C2B37244  37.443  29.003   8.250
 7204POPC   C3B37245  37.450  28.972   7.950
 7204POPC   C4B37246  37.418  29.008   7.650
 7205POPC   NC337247  31.512   8.208   9.450
 7205POPC   PO437248  31.491   8.242   9.150
 7205POPC   GL137249  31.438   8.173   8.850
 7205POPC   GL237250  31.538   8.095   8.850
 7205POPC   C1A37251  31.492   8.212   8.550
 7205POPC   D2A37252  31.450   8.239   8.250
 7205POPC   C3A37253  31.447   8.148   7.950
 7205POPC   C4A37254  31.435   8.189   7.650
 7205POPC   C1B37255  31.580   7.942   8.550
 7205POPC   C2B37256  31.564   7.906   8.250
 7205POPC   C3B37257  31.500   7.919   7.950
 7205POPC   C4B37258  31.493   7.919   7.650
 7206POPC   NC337259  25.237  20.597   9.450
 7206POPC   PO437260  25.310  20.634   9.150
 7206POPC   GL137261  25.217  20.562   8.850
 7206POPC   GL237262  25.147  20.482   8.850
 7206POPC   C1A37263  25.250  20.575   8.550
 7206POPC   D2A37264  25.288  20.572   8.250
 7206POPC   C3A37265  25.300  20.651   7.950
 7206POPC   C4A37266  25.310  20.584   7.650
 7206POPC   C1B37267  25.136  20.478   8.550
 7206POPC   C2B37268  25.118  20.436   8.250
 7206POPC   C3B37269  25.080  20.479   7.950
 7206POPC   C4B37270  25.056  20.478   7.650
 7207POPC   NC337271   3.510  37.653   9.450
 7207POPC   PO437272   3.571  37.663   9.150
 7207POPC   GL137273   3.540  37.717   8.850
 7207POPC   GL237274   3.623  37.758   8.850
 7207POPC   C1A37275   3.567  37.699   8.550
 7207POPC   D2A37276   3.493  37.672   8.250
 7207POPC   C3A37277   3.536  37.663   7.950
 7207POPC   C4A37278   3.533  37.689   7.650
 7207POPC   C1B37279   3.724  37.851   8.550
 7207POPC   C2B37280   3.734  37.853   8.250
 7207POPC   C3B37281   3.719  37.899   7.950
 7207POPC   C4B37282   3.701  37.897   7.650
 7208POPC   NC337283  11.289  31.509   9.450
 7208POPC   PO437284  11.254  31.481   9.150
 7208POPC   GL137285  11.253  31.479   8.850
 7208POPC   GL237286  11.375  31.331   8.850
 7208POPC   C1A37287  11.340  31.494   8.550
 7208POPC   D2A37288  11.270  31.483   8.250
 7208POPC   C3A37289  11.343  31.446   7.950
 7208POPC   C4A37290  11.336  31.441   7.650
 7208POPC   C1B37291  11.471  31.219   8.550
 7208POPC   C2B37292  11.431  31.256   8.250
 7208POPC   C3B37293  11.411  31.286   7.950
 7208POPC   C4B37294  11.439  31.215   7.650
 7209POPC   NC337295   1.956  24.447   9.450
 7209POPC   PO437296   2.025  24.524   9.150
 7209POPC   GL137297   2.022  24.518   8.850
 7209POPC   GL237298   1.996  24.573   8.850
 7209POPC   C1A37299   2.023  24.538   8.550
 7209POPC   D2A37300   1.989  24.484   8.250
 7209POPC   C3A37301   1.989  24.496   7.950
 7209POPC   C4A37302   1.944  24.449   7.650
 7209POPC   C1B37303   2.024  24.703   8.550
 7209POPC   C2B37304   1.973  24.730   8.250
 7209POPC   C3B37305   1.979  24.704   7.950
 7209POPC   C4B37306   2.015  24.721   7.650
 7210POPC   NC337307  13.587  26.808   9.450
 7210POPC   PO437308  13.634  26.852   9.150
 7210POPC   GL137309  13.632  26.795   8.850
 7210POPC   GL237310  13.756  26.767   8.850
 7210POPC   C1A37311  13.631  26.795   8.550
 7210POPC   D2A37312  13.613  26.783   8.250
 7210POPC   C3A37313  13.637  26.812   7.950
 7210POPC   C4A37314  13.581  26.790   7.650
 7210POPC   C1B37315  13.916  26.762   8.550
 7210POPC   C2B37316  13.900  26.844   8.250
 7210POPC   C3B37317  13.834  26.787   7.950
 7210POPC   C4B37318  13.921  26.850   7.650
 7211POPC   NC337319  17.517  31.521   9.450
 7211POPC   PO437320  17.542  31.488   9.150
 7211POPC   GL137321  17.548  31.515   8.850
 7211POPC   GL237322  17.621  31.375   8.850
 7211POPC   C1A37323  17.467  31.434   8.550
 7211POPC   D2A37324  17.494  31.519   8.250
 7211POPC   C3A37325  17.541  31.518   7.950
 7211POPC   C4A37326  17.483  31.449   7.650
 7211POPC   C1B37327  17.677  31.253   8.550
 7211POPC   C2B37328  17.708  31.242   8.250
 7211POPC   C3B37329  17.632  31.283   7.950
 7211POPC   C4B37330  17.703  31.294   7.650
 7212POPC   NC337331  19.082   9.765   9.450
 7212POPC   PO437332  19.064   9.709   9.150
 7212POPC   GL137333  19.076   9.776   8.850
 7212POPC   GL237334  18.916   9.727   8.850
 7212POPC   C1A37335  19.039   9.735   8.550
 7212POPC   D2A37336  19.088   9.796   8.250
 7212POPC   C3A37337  19.095   9.711   7.950
 7212POPC   C4A37338  19.034   9.709   7.650
 7212POPC   C1B37339  18.768   9.766   8.550
 7212POPC   C2B37340  18.767   9.802   8.250
 7212POPC   C3B37341  18.856   9.759   7.950
 7212POPC   C4B37342  18.854   9.757   7.650
 7213POPC   NC337343  19.861  32.989   9.450
 7213POPC   PO437344  19.798  33.074   9.150
 7213POPC   GL137345  19.809  32.982   8.850
 7213POPC   GL237346  19.967  32.953   8.850
 7213POPC   C1A37347  19.805  33.011   8.550
 7213POPC   D2A37348  19.794  33.013   8.250
 7213POPC   C3A37349  19.884  33.005   7.950
 7213POPC   C4A37350  19.828  33.039   7.650
 7213POPC   C1B37351  20.047  32.820   8.550
 7213POPC   C2B37352  20.046  32.878   8.250
 7213POPC   C3B37353  20.062  32.800   7.950
 7213POPC   C4B37354  20.059  32.859   7.650
 7214POPC   NC337355  29.887  33.048   9.450
 7214POPC   PO437356  29.948  33.015   9.150
 7214POPC   GL137357  29.936  33.053   8.850
 7214POPC   GL237358  29.919  33.119   8.850
 7214POPC   C1A37359  29.934  33.000   8.550
 7214POPC   D2A37360  29.949  33.005   8.250
 7214POPC   C3A37361  29.906  32.989   7.950
 7214POPC   C4A37362  29.905  33.002   7.650
 7214POPC   C1B37363  29.893  33.294   8.550
 7214POPC   C2B37364  29.898  33.318   8.250
 7214POPC   C3B37365  29.903  33.316   7.950
 7214POPC   C4B37366  29.925  33.242   7.650
 7215POPC   NC337367  21.417   2.011   9.450
 7215POPC   PO437368  21.365   1.988   9.150
 7215POPC   GL137369  21.407   2.021   8.850
 7215POPC   GL237370  21.537   2.052   8.850
 7215POPC   C1A37371  21.393   2.015   8.550
 7215POPC   D2A37372  21.408   1.943   8.250
 7215POPC   C3A37373  21.390   2.036   7.950
 7215POPC   C4A37374  21.361   1.960   7.650
 7215POPC   C1B37375  21.610   2.048   8.550
 7215POPC   C2B37376  21.646   2.047   8.250
 7215POPC   C3B37377  21.634   2.130   7.950
 7215POPC   C4B37378  21.565   2.132   7.650
 7216POPC   NC337379  20.632  22.907   9.450
 7216POPC   PO437380  20.626  22.935   9.150
 7216POPC   GL137381  20.654  22.978   8.850
 7216POPC   GL237382  20.684  23.035   8.850
 7216POPC   C1A37383  20.656  22.986   8.550
 7216POPC   D2A37384  20.639  22.966   8.250
 7216POPC   C3A37385  20.633  22.947   7.950
 7216POPC   C4A37386  20.647  22.938   7.650
 7216POPC   C1B37387  20.841  23.120   8.550
 7216POPC   C2B37388  20.790  23.068   8.250
 7216POPC   C3B37389  20.774  23.088   7.950
 7216POPC   C4B37390  20.825  23.144   7.650
 7217POPC   NC337391  18.244  22.961   9.450
 7217POPC   PO437392  18.329  22.929   9.150
 7217POPC   GL137393  18.252  22.973   8.850
 7217POPC   GL237394  18.344  22.864   8.850
 7217POPC   C1A37395  18.278  22.889   8.550
 7217POPC   D2A37396  18.316  22.932   8.250
 7217POPC   C3A37397  18.253  22.959   7.950
 7217POPC   C4A37398  18.254  22.973   7.650
 7217POPC   C1B37399  18.372  22.695   8.550
 7217POPC   C2B37400  18.350  22.749   8.250
 7217POPC   C3B37401  18.373  22.694   7.950
 7217POPC   C4B37402  18.426  22.735   7.650
 7218POPC   NC337403   5.124  32.212   9.450
 7218POPC   PO437404   5.047  32.286   9.150
 7218POPC   GL137405   5.112  32.238   8.850
 7218POPC   GL237406   4.979  32.316   8.850
 7218POPC   C1A37407   5.082  32.211   8.550
 7218POPC   D2A37408   5.088  32.210   8.250
 7218POPC   C3A37409   5.054  32.298   7.950
 7218POPC   C4A37410   5.090  32.238   7.650
 7218POPC   C1B37411   4.847  32.260   8.550
 7218POPC   C2B37412   4.844  32.295   8.250
 7218POPC   C3B37413   4.875  32.328   7.950
 7218POPC   C4B37414   4.845  32.245   7.650
 7219POPC   NC337415   3.577  29.925   9.450
 7219POPC   PO437416   3.574  29.900   9.150
 7219POPC   GL137417   3.550  29.872   8.850
 7219POPC   GL237418   3.476  29.793   8.850
 7219POPC   C1A37419   3.527  29.915   8.550
 7219POPC   D2A37420   3.540  29.896   8.250
 7219POPC   C3A37421   3.566  29.940   7.950
 7219POPC   C4A37422   3.530  29.892   7.650
 7219POPC   C1B37423   3.467  29.693   8.550
 7219POPC   C2B37424   3.505  29.717   8.250
 7219POPC   C3B37425   3.518  29.722   7.950
 7219POPC   C4B37426   3.536  29.683   7.650
 7220POPC   NC337427  31.477  36.123   9.450
 7220POPC   PO437428  31.426  36.103   9.150
 7220POPC   GL137429  31.496  36.088   8.850
 7220POPC   GL237430  31.549  36.135   8.850
 7220POPC   C1A37431  31.513  36.104   8.550
 7220POPC   D2A37432  31.513  36.100   8.250
 7220POPC   C3A37433  31.452  36.097   7.950
 7220POPC   C4A37434  31.486  36.089   7.650
 7220POPC   C1B37435  31.768  36.150   8.550
 7220POPC   C2B37436  31.735  36.151   8.250
 7220POPC   C3B37437  31.721  36.110   7.950
 7220POPC   C4B37438  31.712  36.078   7.650
 7221POPC   NC337439  12.048  38.497   9.450
 7221POPC   PO437440  12.049  38.435   9.150
 7221POPC   GL137441  12.083  38.489   8.850
 7221POPC   GL237442  12.154  38.570   8.850
 7221POPC   C1A37443  12.104  38.479   8.550
 7221POPC   D2A37444  12.085  38.429   8.250
 7221POPC   C3A37445  12.042  38.432   7.950
 7221POPC   C4A37446  12.094  38.466   7.650
 7221POPC   C1B37447  12.286  38.597   8.550
 7221POPC   C2B37448  12.243  38.673   8.250
 7221POPC   C3B37449  12.226  38.608   7.950
 7221POPC   C4B37450  12.189  38.674   7.650
 7222POPC   NC337451  22.205  18.297   9.450
 7222POPC   PO437452  22.113  18.262   9.150
 7222POPC   GL137453  22.154  18.288   8.850
 7222POPC   GL237454  22.279  18.259   8.850
 7222POPC   C1A37455  22.116  18.234   8.550
 7222POPC   D2A37456  22.204  18.268   8.250
 7222POPC   C3A37457  22.141  18.292   7.950
 7222POPC   C4A37458  22.201  18.307   7.650
 7222POPC   C1B37459  22.367  18.198   8.550
 7222POPC   C2B37460  22.377  18.153   8.250
 7222POPC   C3B37461  22.429  18.188   7.950
 7222POPC   C4B37462  22.422  18.186   7.650
 7223POPC   NC337463  19.026  41.535   9.450
 7223POPC   PO437464  19.052  41.591   9.150
 7223POPC   GL137465  19.035  41.553   8.850
 7223POPC   GL237466  19.169  41.624   8.850
 7223POPC   C1A37467  19.011  41.526   8.550
 7223POPC   D2A37468  19.045  41.598   8.250
 7223POPC   C3A37469  19.090  41.532   7.950
 7223POPC   C4A37470  19.095  41.583   7.650
 7223POPC   C1B37471  19.207  41.791   8.550
 7223POPC   C2B37472  19.236  41.751   8.250
 7223POPC   C3B37473  19.207  41.777   7.950
 7223POPC   C4B37474  19.166  41.768   7.650
 7224POPC   NC337475  23.750   1.993   9.450
 7224POPC   PO437476  23.688   1.985   9.150
 7224POPC   GL137477  23.757   1.961   8.850
 7224POPC   GL237478  23.596   2.063   8.850
 7224POPC   C1A37479  23.681   1.974   8.550
 7224POPC   D2A37480  23.675   1.972   8.250
 7224POPC   C3A37481  23.664   1.972   7.950
 7224POPC   C4A37482  23.672   1.961   7.650
 7224POPC   C1B37483  23.478   2.057   8.550
 7224POPC   C2B37484  23.535   2.075   8.250
 7224POPC   C3B37485  23.467   2.116   7.950
 7224POPC   C4B37486  23.489   2.113   7.650
 7225POPC   NC337487   1.218   8.954   9.450
 7225POPC   PO437488   1.243   8.936   9.150
 7225POPC   GL137489   1.182   8.973   8.850
 7225POPC   GL237490   1.146   9.043   8.850
 7225POPC   C1A37491   1.171   8.959   8.550
 7225POPC   D2A37492   1.200   8.969   8.250
 7225POPC   C3A37493   1.248   8.929   7.950
 7225POPC   C4A37494   1.224   8.965   7.650
 7225POPC   C1B37495   1.078   9.140   8.550
 7225POPC   C2B37496   1.090   9.138   8.250
 7225POPC   C3B37497   1.115   9.168   7.950
 7225POPC   C4B37498   1.037   9.175   7.650
 7226POPC   NC337499  16.774  39.268   9.450
 7226POPC   PO437500  16.747  39.259   9.150
 7226POPC   GL137501  16.750  39.239   8.850
 7226POPC   GL237502  16.587  39.173   8.850
 7226POPC   C1A37503  16.731  39.237   8.550
 7226POPC   D2A37504  16.685  39.279   8.250
 7226POPC   C3A37505  16.772  39.223   7.950
 7226POPC   C4A37506  16.736  39.236   7.650
 7226POPC   C1B37507  16.462  39.208   8.550
 7226POPC   C2B37508  16.474  39.218   8.250
 7226POPC   C3B37509  16.452  39.208   7.950
 7226POPC   C4B37510  16.480  39.154   7.650
 7227POPC   NC337511  16.755  19.037   9.450
 7227POPC   PO437512  16.727  19.009   9.150
 7227POPC   GL137513  16.726  19.091   8.850
 7227POPC   GL237514  16.675  18.903   8.850
 7227POPC   C1A37515  16.726  19.061   8.550
 7227POPC   D2A37516  16.780  19.099   8.250
 7227POPC   C3A37517  16.716  19.105   7.950
 7227POPC   C4A37518  16.716  19.087   7.650
 7227POPC   C1B37519  16.620  18.874   8.550
 7227POPC   C2B37520  16.653  18.795   8.250
 7227POPC   C3B37521  16.613  18.795   7.950
 7227POPC   C4B37522  16.566  18.868   7.650
 7228POPC   NC337523   9.739  40.803   9.450
 7228POPC   PO437524   9.716  40.758   9.150
 7228POPC   GL137525   9.715  40.760   8.850
 7228POPC   GL237526   9.743  40.704   8.850
 7228POPC   C1A37527   9.742  40.743   8.550
 7228POPC   D2A37528   9.772  40.821   8.250
 7228POPC   C3A37529   9.730  40.737   7.950
 7228POPC   C4A37530   9.753  40.832   7.650
 7228POPC   C1B37531   9.794  40.550   8.550
 7228POPC   C2B37532   9.803  40.558   8.250
 7228POPC   C3B37533   9.785  40.512   7.950
 7228POPC   C4B37534   9.721  40.499   7.650
 7229POPC   NC337535  23.744   9.742   9.450
 7229POPC   PO437536  23.744   9.774   9.150
 7229POPC   GL137537  23.715   9.747   8.850
 7229POPC   GL237538  23.688   9.897   8.850
 7229POPC   C1A37539  23.681   9.761   8.550
 7229POPC   D2A37540  23.746   9.744   8.250
 7229POPC   C3A37541  23.669   9.733   7.950
 7229POPC   C4A37542  23.737   9.795   7.650
 7229POPC   C1B37543  23.754   9.965   8.550
 7229POPC   C2B37544  23.707   9.966   8.250
 7229POPC   C3B37545  23.757   9.982   7.950
 7229POPC   C4B37546  23.753   9.971   7.650
 7230POPC   NC337547  30.730  16.723   9.450
 7230POPC   PO437548  30.686  16.689   9.150
 7230POPC   GL137549  30.699  16.710   8.850
 7230POPC   GL237550  30.683  16.882   8.850
 7230POPC   C1A37551  30.651  16.700   8.550
 7230POPC   D2A37552  30.647  16.718   8.250
 7230POPC   C3A37553  30.714  16.768   7.950
 7230POPC   C4A37554  30.739  16.698   7.650
 7230POPC   C1B37555  30.736  16.933   8.550
 7230POPC   C2B37556  30.719  17.005   8.250
 7230POPC   C3B37557  30.768  16.957   7.950
 7230POPC   C4B37558  30.751  16.990   7.650
 7231POPC   NC337559  17.540  27.611   9.450
 7231POPC   PO437560  17.485  27.619   9.150
 7231POPC   GL137561  17.485  27.583   8.850
 7231POPC   GL237562  17.614  27.669   8.850
 7231POPC   C1A37563  17.463  27.548   8.550
 7231POPC   D2A37564  17.529  27.586   8.250
 7231POPC   C3A37565  17.460  27.577   7.950
 7231POPC   C4A37566  17.525  27.558   7.650
 7231POPC   C1B37567  17.765  27.701   8.550
 7231POPC   C2B37568  17.762  27.646   8.250
 7231POPC   C3B37569  17.752  27.682   7.950
 7231POPC   C4B37570  17.708  27.691   7.650
 7232POPC   NC337571  34.606   5.083   9.450
 7232POPC   PO437572  34.600   5.087   9.150
 7232POPC   GL137573  34.610   5.102   8.850
 7232POPC   GL237574  34.460   5.056   8.850
 7232POPC   C1A37575  34.576   5.065   8.550
 7232POPC   D2A37576  34.542   5.114   8.250
 7232POPC   C3A37577  34.531   5.084   7.950
 7232POPC   C4A37578  34.562   5.103   7.650
 7232POPC   C1B37579  34.342   5.048   8.550
 7232POPC   C2B37580  34.354   4.999   8.250
 7232POPC   C3B37581  34.330   5.071   7.950
 7232POPC   C4B37582  34.363   5.024   7.650
 7233POPC   NC337583  39.984  19.792   9.450
 7233POPC   PO437584  40.024  19.853   9.150
 7233POPC   GL137585  40.002  19.838   8.850
 7233POPC   GL237586  40.098  19.860   8.850
 7233POPC   C1A37587  40.025  19.802   8.550
 7233POPC   D2A37588  39.989  19.785   8.250
 7233POPC   C3A37589  40.017  19.861   7.950
 7233POPC   C4A37590  40.055  19.818   7.650
 7233POPC   C1B37591  40.243  19.959   8.550
 7233POPC   C2B37592  40.198  19.994   8.250
 7233POPC   C3B37593  40.268  19.913   7.950
 7233POPC   C4B37594  40.202  20.006   7.650
 7234POPC   NC337595  25.281  38.464   9.450
 7234POPC   PO437596  25.230  38.407   9.150
 7234POPC   GL137597  25.222  38.499   8.850
 7234POPC   GL237598  25.414  38.459   8.850
 7234POPC   C1A37599  25.224  38.493   8.550
 7234POPC   D2A37600  25.241  38.449   8.250
 7234POPC   C3A37601  25.277  38.477   7.950
 7234POPC   C4A37602  25.229  38.434   7.650
 7234POPC   C1B37603  25.467  38.358   8.550
 7234POPC   C2B37604  25.488  38.377   8.250
 7234POPC   C3B37605  25.541  38.344   7.950
 7234POPC   C4B37606  25.469  38.379   7.650
 7235POPC   NC337607  15.965  13.612   9.450
 7235POPC   PO437608  15.964  13.622   9.150
 7235POPC   GL137609  15.954  13.664   8.850
 7235POPC   GL237610  15.873  13.521   8.850
 7235POPC   C1A37611  15.987  13.674   8.550
 7235POPC   D2A37612  15.952  13.607   8.250
 7235POPC   C3A37613  15.935  13.643   7.950
 7235POPC   C4A37614  15.978  13.657   7.650
 7235POPC   C1B37615  15.838  13.427   8.550
 7235POPC   C2B37616  15.876  13.444   8.250
 7235POPC   C3B37617  15.892  13.422   7.950
 7235POPC   C4B37618  15.825  13.356   7.650
 7236POPC   NC337619  24.480  14.448   9.450
 7236POPC   PO437620  24.440  14.430   9.150
 7236POPC   GL137621  24.519  14.379   8.850
 7236POPC   GL237622  24.547  14.294   8.850
 7236POPC   C1A37623  24.495  14.405   8.550
 7236POPC   D2A37624  24.448  14.369   8.250
 7236POPC   C3A37625  24.535  14.438   7.950
 7236POPC   C4A37626  24.442  14.401   7.650
 7236POPC   C1B37627  24.680  14.226   8.550
 7236POPC   C2B37628  24.731  14.245   8.250
 7236POPC   C3B37629  24.733  14.276   7.950
 7236POPC   C4B37630  24.663  14.259   7.650
 7237POPC   NC337631  19.880  41.533   9.450
 7237POPC   PO437632  19.860  41.526   9.150
 7237POPC   GL137633  19.786  41.512   8.850
 7237POPC   GL237634  19.793  41.488   8.850
 7237POPC   C1A37635  19.873  41.570   8.550
 7237POPC   D2A37636  19.839  41.599   8.250
 7237POPC   C3A37637  19.824  41.563   7.950
 7237POPC   C4A37638  19.820  41.546   7.650
 7237POPC   C1B37639  19.685  41.381   8.550
 7237POPC   C2B37640  19.638  41.369   8.250
 7237POPC   C3B37641  19.689  41.368   7.950
 7237POPC   C4B37642  19.627  41.412   7.650
 7238POPC   NC337643   1.218   2.766   9.450
 7238POPC   PO437644   1.173   2.728   9.150
 7238POPC   GL137645   1.180   2.797   8.850
 7238POPC   GL237646   1.104   2.864   8.850
 7238POPC   C1A37647   1.198   2.767   8.550
 7238POPC   D2A37648   1.217   2.736   8.250
 7238POPC   C3A37649   1.216   2.768   7.950
 7238POPC   C4A37650   1.170   2.805   7.650
 7238POPC   C1B37651   1.072   2.963   8.550
 7238POPC   C2B37652   1.058   2.925   8.250
 7238POPC   C3B37653   1.091   2.953   7.950
 7238POPC   C4B37654   1.105   2.940   7.650
 7239POPC   NC337655  37.727  16.746   9.450
 7239POPC   PO437656  37.700  16.721   9.150
 7239POPC   GL137657  37.688  16.720   8.850
 7239POPC   GL237658  37.678  16.571   8.850
 7239POPC   C1A37659  37.670  16.732   8.550
 7239POPC   D2A37660  37.667  16.752   8.250
 7239POPC   C3A37661  37.714  16.778   7.950
 7239POPC   C4A37662  37.682  16.779   7.650
 7239POPC   C1B37663  37.697  16.474   8.550
 7239POPC   C2B37664  37.690  16.453   8.250
 7239POPC   C3B37665  37.693  16.460   7.950
 7239POPC   C4B37666  37.657  16.523   7.650
 7240POPC   NC337667  14.392  12.888   9.450
 7240POPC   PO437668  14.359  12.852   9.150
 7240POPC   GL137669  14.416  12.838   8.850
 7240POPC   GL237670  14.318  12.815   8.850
 7240POPC   C1A37671  14.429  12.887   8.550
 7240POPC   D2A37672  14.413  12.888   8.250
 7240POPC   C3A37673  14.412  12.816   7.950
 7240POPC   C4A37674  14.404  12.858   7.650
 7240POPC   C1B37675  14.239  12.682   8.550
 7240POPC   C2B37676  14.172  12.754   8.250
 7240POPC   C3B37677  14.228  12.675   7.950
 7240POPC   C4B37678  14.223  12.709   7.650
 7241POPC   NC337679  36.099  43.085   9.450
 7241POPC   PO437680  36.110  43.122   9.150
 7241POPC   GL137681  36.155  43.109   8.850
 7241POPC   GL237682  35.991  43.157   8.850
 7241POPC   C1A37683  36.170  43.112   8.550
 7241POPC   D2A37684  36.135  43.079   8.250
 7241POPC   C3A37685  36.121  43.094   7.950
 7241POPC   C4A37686  36.166  43.086   7.650
 7241POPC   C1B37687  35.911  43.274   8.550
 7241POPC   C2B37688  35.928  43.286   8.250
 7241POPC   C3B37689  35.886  43.220   7.950
 7241POPC   C4B37690  35.923  43.247   7.650
 7242POPC   NC337691  10.556  19.790   9.450
 7242POPC   PO437692  10.571  19.797   9.150
 7242POPC   GL137693  10.519  19.815   8.850
 7242POPC   GL237694  10.394  19.808   8.850
 7242POPC   C1A37695  10.491  19.807   8.550
 7242POPC   D2A37696  10.488  19.789   8.250
 7242POPC   C3A37697  10.516  19.867   7.950
 7242POPC   C4A37698  10.523  19.876   7.650
 7242POPC   C1B37699  10.251  19.728   8.550
 7242POPC   C2B37700  10.306  19.753   8.250
 7242POPC   C3B37701  10.282  19.799   7.950
 7242POPC   C4B37702  10.306  19.758   7.650
 7243POPC   NC337703  43.903  27.598   9.450
 7243POPC   PO437704  43.879  27.582   9.150
 7243POPC   GL137705  43.914  27.621   8.850
 7243POPC   GL237706  43.761  27.695   8.850
 7243POPC   C1A37707  43.901  27.568   8.550
 7243POPC   D2A37708  43.884  27.613   8.250
 7243POPC   C3A37709  43.876  27.569   7.950
 7243POPC   C4A37710  43.882  27.583   7.650
 7243POPC   C1B37711  43.670  27.680   8.550
 7243POPC   C2B37712  43.686  27.733   8.250
 7243POPC   C3B37713  43.687  27.683   7.950
 7243POPC   C4B37714  43.638  27.747   7.650
 7244POPC   NC337715   9.781  22.956   9.450
 7244POPC   PO437716   9.736  22.924   9.150
 7244POPC   GL137717   9.789  22.986   8.850
 7244POPC   GL237718   9.639  22.895   8.850
 7244POPC   C1A37719   9.761  22.916   8.550
 7244POPC   D2A37720   9.719  22.891   8.250
 7244POPC   C3A37721   9.760  22.944   7.950
 7244POPC   C4A37722   9.786  22.970   7.650
 7244POPC   C1B37723   9.483  22.959   8.550
 7244POPC   C2B37724   9.537  22.939   8.250
 7244POPC   C3B37725   9.505  22.885   7.950
 7244POPC   C4B37726   9.500  22.922   7.650
 7245POPC   NC337727  35.334  44.644   9.450
 7245POPC   PO437728  35.326  44.621   9.150
 7245POPC   GL137729  35.359  44.655   8.850
 7245POPC   GL237730  35.247  44.614   8.850
 7245POPC   C1A37731  35.343  44.632   8.550
 7245POPC   D2A37732  35.312  44.622   8.250
 7245POPC   C3A37733  35.304  44.644   7.950
 7245POPC   C4A37734  35.353  44.683   7.650
 7245POPC   C1B37735  35.207  44.525   8.550
 7245POPC   C2B37736  35.126  44.528   8.250
 7245POPC   C3B37737  35.210  44.473   7.950
 7245POPC   C4B37738  35.120  44.453   7.650
 7246POPC   NC337739   3.588  33.761   9.450
 7246POPC   PO437740   3.564  33.834   9.150
 7246POPC   GL137741   3.498  33.827   8.850
 7246POPC   GL237742   3.533  33.648   8.850
 7246POPC   C1A37743   3.543  33.767   8.550
 7246POPC   D2A37744   3.552  33.843   8.250
 7246POPC   C3A37745   3.578  33.805   7.950
 7246POPC   C4A37746   3.540  33.805   7.650
 7246POPC   C1B37747   3.553  33.529   8.550
 7246POPC   C2B37748   3.512  33.530   8.250
 7246POPC   C3B37749   3.516  33.571   7.950
 7246POPC   C4B37750   3.487  33.562   7.650
 7247POPC   NC337751  20.630   3.524   9.450
 7247POPC   PO437752  20.638   3.507   9.150
 7247POPC   GL137753  20.627   3.509   8.850
 7247POPC   GL237754  20.731   3.427   8.850
 7247POPC   C1A37755  20.600   3.522   8.550
 7247POPC   D2A37756  20.604   3.535   8.250
 7247POPC   C3A37757  20.585   3.554   7.950
 7247POPC   C4A37758  20.641   3.580   7.650
 7247POPC   C1B37759  20.862   3.436   8.550
 7247POPC   C2B37760  20.790   3.451   8.250
 7247POPC   C3B37761  20.805   3.427   7.950
 7247POPC   C4B37762  20.788   3.373   7.650
 7248POPC   NC337763  35.347  27.592   9.450
 7248POPC   PO437764  35.401  27.617   9.150
 7248POPC   GL137765  35.379  27.627   8.850
 7248POPC   GL237766  35.413  27.640   8.850
 7248POPC   C1A37767  35.371  27.609   8.550
 7248POPC   D2A37768  35.345  27.600   8.250
 7248POPC   C3A37769  35.350  27.557   7.950
 7248POPC   C4A37770  35.384  27.585   7.650
 7248POPC   C1B37771  35.568  27.756   8.550
 7248POPC   C2B37772  35.527  27.714   8.250
 7248POPC   C3B37773  35.599  27.783   7.950
 7248POPC   C4B37774  35.586  27.780   7.650
 7249POPC   NC337775  15.190   8.962   9.450
 7249POPC   PO437776  15.140   8.925   9.150
 7249POPC   GL137777  15.184   8.943   8.850
 7249POPC   GL237778  15.116   8.886   8.850
 7249POPC   C1A37779  15.219   8.954   8.550
 7249POPC   D2A37780  15.156   9.021   8.250
 7249POPC   C3A37781  15.191   9.017   7.950
 7249POPC   C4A37782  15.226   8.984   7.650
 7249POPC   C1B37783  14.911   8.839   8.550
 7249POPC   C2B37784  15.004   8.807   8.250
 7249POPC   C3B37785  14.999   8.879   7.950
 7249POPC   C4B37786  14.921   8.826   7.650
 7250POPC   NC337787   5.045  21.432   9.450
 7250POPC   PO437788   5.071  21.373   9.150
 7250POPC   GL137789   5.046  21.353   8.850
 7250POPC   GL237790   5.010  21.415   8.850
 7250POPC   C1A37791   5.140  21.432   8.550
 7250POPC   D2A37792   5.064  21.401   8.250
 7250POPC   C3A37793   5.137  21.379   7.950
 7250POPC   C4A37794   5.103  21.360   7.650
 7250POPC   C1B37795   4.880  21.353   8.550
 7250POPC   C2B37796   4.849  21.343   8.250
 7250POPC   C3B37797   4.830  21.393   7.950
 7250POPC   C4B37798   4.882  21.357   7.650
 7251POPC   NC337799   5.054  22.965   9.450
 7251POPC   PO437800   5.097  22.898   9.150
 7251POPC   GL137801   5.127  22.950   8.850
 7251POPC   GL237802   4.983  22.820   8.850
 7251POPC   C1A37803   5.095  22.907   8.550
 7251POPC   D2A37804   5.092  22.957   8.250
 7251POPC   C3A37805   5.137  22.914   7.950
 7251POPC   C4A37806   5.045  22.902   7.650
 7251POPC   C1B37807   4.939  22.784   8.550
 7251POPC   C2B37808   4.916  22.715   8.250
 7251POPC   C3B37809   4.941  22.727   7.950
 7251POPC   C4B37810   4.955  22.753   7.650
 7252POPC   NC337811   8.965  16.710   9.450
 7252POPC   PO437812   8.948  16.770   9.150
 7252POPC   GL137813   8.956  16.720   8.850
 7252POPC   GL237814   8.866  16.756   8.850
 7252POPC   C1A37815   9.008  16.727   8.550
 7252POPC   D2A37816   8.969  16.740   8.250
 7252POPC   C3A37817   8.941  16.778   7.950
 7252POPC   C4A37818   8.938  16.753   7.650
 7252POPC   C1B37819   8.758  16.847   8.550
 7252POPC   C2B37820   8.749  16.819   8.250
 7252POPC   C3B37821   8.763  16.780   7.950
 7252POPC   C4B37822   8.771  16.775   7.650
 7253POPC   NC337823  22.192  19.846   9.450
 7253POPC   PO437824  22.128  19.840   9.150
 7253POPC   GL137825  22.187  19.854   8.850
 7253POPC   GL237826  22.091  19.881   8.850
 7253POPC   C1A37827  22.183  19.796   8.550
 7253POPC   D2A37828  22.143  19.830   8.250
 7253POPC   C3A37829  22.180  19.873   7.950
 7253POPC   C4A37830  22.125  19.791   7.650
 7253POPC   C1B37831  21.908  19.969   8.550
 7253POPC   C2B37832  21.938  19.894   8.250
 7253POPC   C3B37833  21.907  19.916   7.950
 7253POPC   C4B37834  21.939  19.905   7.650
 7254POPC   NC337835  22.934   9.787   9.450
 7254POPC   PO437836  22.921   9.752   9.150
 7254POPC   GL137837  22.975   9.711   8.850
 7254POPC   GL237838  22.962   9.898   8.850
 7254POPC   C1A37839  22.949   9.771   8.550
 7254POPC   D2A37840  22.889   9.750   8.250
 7254POPC   C3A37841  22.923   9.699   7.950
 7254POPC   C4A37842  22.897   9.740   7.650
 7254POPC   C1B37843  23.055   9.988   8.550
 7254POPC   C2B37844  23.092   9.997   8.250
 7254POPC   C3B37845  23.086   9.950   7.950
 7254POPC   C4B37846  23.057   9.993   7.650
 7255POPC   NC337847  44.657  26.846   9.450
 7255POPC   PO437848  44.691  26.821   9.150
 7255POPC   GL137849  44.706  26.793   8.850
 7255POPC   GL237850  44.751  26.951   8.850
 7255POPC   C1A37851  44.655  26.770   8.550
 7255POPC   D2A37852  44.679  26.825   8.250
 7255POPC   C3A37853  44.646  26.822   7.950
 7255POPC   C4A37854  44.680  26.779   7.650
 7255POPC   C1B37855  44.748  27.087   8.550
 7255POPC   C2B37856  44.788  27.068   8.250
 7255POPC   C3B37857  44.739  27.095   7.950
 7255POPC   C4B37858  44.738  27.067   7.650
 7256POPC   NC337859  22.157   1.251   9.450
 7256POPC   PO437860  22.177   1.260   9.150
 7256POPC   GL137861  22.182   1.197   8.850
 7256POPC   GL237862  22.004   1.245   8.850
 7256POPC   C1A37863  22.147   1.224   8.550
 7256POPC   D2A37864  22.202   1.236   8.250
 7256POPC   C3A37865  22.195   1.260   7.950
 7256POPC   C4A37866  22.140   1.248   7.650
 7256POPC   C1B37867  21.868   1.286   8.550
 7256POPC   C2B37868  21.957   1.277   8.250
 7256POPC   C3B37869  21.948   1.258   7.950
 7256POPC   C4B37870  21.949   1.241   7.650
 7257POPC   NC337871  12.887  10.567   9.450
 7257POPC   PO437872  12.869  10.523   9.150
 7257POPC   GL137873  12.894  10.486   8.850
 7257POPC   GL237874  12.892  10.446   8.850
 7257POPC   C1A37875  12.847  10.503   8.550
 7257POPC   D2A37876  12.813  10.529   8.250
 7257POPC   C3A37877  12.830  10.486   7.950
 7257POPC   C4A37878  12.890  10.527   7.650
 7257POPC   C1B37879  13.003  10.306   8.550
 7257POPC   C2B37880  12.950  10.261   8.250
 7257POPC   C3B37881  13.014  10.314   7.950
 7257POPC   C4B37882  12.945  10.346   7.650
 7258POPC   NC337883  40.030   5.128   9.450
 7258POPC   PO437884  39.970   5.136   9.150
 7258POPC   GL137885  39.982   5.081   8.850
 7258POPC   GL237886  39.952   4.987   8.850
 7258POPC   C1A37887  39.994   5.068   8.550
 7258POPC   D2A37888  40.043   5.139   8.250
 7258POPC   C3A37889  40.018   5.044   7.950
 7258POPC   C4A37890  39.994   5.084   7.650
 7258POPC   C1B37891  39.930   4.888   8.550
 7258POPC   C2B37892  39.933   4.889   8.250
 7258POPC   C3B37893  39.978   4.824   7.950
 7258POPC   C4B37894  39.933   4.846   7.650
 7259POPC   NC337895  44.683  29.098   9.450
 7259POPC   PO437896  44.702  29.160   9.150
 7259POPC   GL137897  44.627  29.103   8.850
 7259POPC   GL237898  44.544  29.256   8.850
 7259POPC   C1A37899  44.703  29.174   8.550
 7259POPC   D2A37900  44.656  29.140   8.250
 7259POPC   C3A37901  44.633  29.105   7.950
 7259POPC   C4A37902  44.620  29.128   7.650
 7259POPC   C1B37903  44.537  29.376   8.550
 7259POPC   C2B37904  44.469  29.331   8.250
 7259POPC   C3B37905  44.487  29.366   7.950
 7259POPC   C4B37906  44.549  29.335   7.650
 7260POPC   NC337907  43.093   5.142   9.450
 7260POPC   PO437908  43.158   5.050   9.150
 7260POPC   GL137909  43.149   5.114   8.850
 7260POPC   GL237910  43.228   4.997   8.850
 7260POPC   C1A37911  43.085   5.050   8.550
 7260POPC   D2A37912  43.083   5.134   8.250
 7260POPC   C3A37913  43.108   5.087   7.950
 7260POPC   C4A37914  43.120   5.133   7.650
 7260POPC   C1B37915  43.316   4.873   8.550
 7260POPC   C2B37916  43.294   4.893   8.250
 7260POPC   C3B37917  43.243   4.944   7.950
 7260POPC   C4B37918  43.242   4.863   7.650
 7261POPC   NC337919  40.737  39.977   9.450
 7261POPC   PO437920  40.738  40.000   9.150
 7261POPC   GL137921  40.757  40.035   8.850
 7261POPC   GL237922  40.871  39.951   8.850
 7261POPC   C1A37923  40.782  39.979   8.550
 7261POPC   D2A37924  40.790  40.011   8.250
 7261POPC   C3A37925  40.790  39.994   7.950
 7261POPC   C4A37926  40.757  40.027   7.650
 7261POPC   C1B37927  41.048  39.865   8.550
 7261POPC   C2B37928  40.999  39.869   8.250
 7261POPC   C3B37929  40.981  39.875   7.950
 7261POPC   C4B37930  40.970  39.869   7.650
 7262POPC   NC337931  33.042  43.914   9.450
 7262POPC   PO437932  33.054  43.930   9.150
 7262POPC   GL137933  33.007  43.908   8.850
 7262POPC   GL237934  33.064  43.811   8.850
 7262POPC   C1A37935  33.011  43.884   8.550
 7262POPC   D2A37936  33.005  43.855   8.250
 7262POPC   C3A37937  33.074  43.930   7.950
 7262POPC   C4A37938  33.044  43.847   7.650
 7262POPC   C1B37939  33.011  43.602   8.550
 7262POPC   C2B37940  33.015  43.609   8.250
 7262POPC   C3B37941  33.041  43.628   7.950
 7262POPC   C4B37942  33.051  43.681   7.650
 7263POPC   NC337943  18.262  21.351   9.450
 7263POPC   PO437944  18.273  21.410   9.150
 7263POPC   GL137945  18.320  21.368   8.850
 7263POPC   GL237946  18.181  21.320   8.850
 7263POPC   C1A37947  18.276  21.339   8.550
 7263POPC   D2A37948  18.316  21.436   8.250
 7263POPC   C3A37949  18.299  21.412   7.950
 7263POPC   C4A37950  18.280  21.359   7.650
 7263POPC   C1B37951  18.044  21.272   8.550
 7263POPC   C2B37952  18.037  21.265   8.250
 7263POPC   C3B37953  18.020  21.348   7.950
 7263POPC   C4B37954  18.052  21.303   7.650
 7264POPC   NC337955  19.034  19.038   9.450
 7264POPC   PO437956  19.075  19.082   9.150
 7264POPC   GL137957  19.063  19.089   8.850
 7264POPC   GL237958  18.900  19.081   8.850
 7264POPC   C1A37959  19.075  19.026   8.550
 7264POPC   D2A37960  19.037  19.049   8.250
 7264POPC   C3A37961  19.012  19.035   7.950
 7264POPC   C4A37962  19.082  19.018   7.650
 7264POPC   C1B37963  18.831  19.163   8.550
 7264POPC   C2B37964  18.835  19.146   8.250
 7264POPC   C3B37965  18.819  19.142   7.950
 7264POPC   C4B37966  18.800  19.210   7.650
 7265POPC   NC337967  27.557  34.561   9.450
 7265POPC   PO437968  27.569  34.547   9.150
 7265POPC   GL137969  27.608  34.537   8.850
 7265POPC   GL237970  27.697  34.615   8.850
 7265POPC   C1A37971  27.629  34.541   8.550
 7265POPC   D2A37972  27.548  34.601   8.250
 7265POPC   C3A37973  27.632  34.586   7.950
 7265POPC   C4A37974  27.592  34.625   7.650
 7265POPC   C1B37975  27.810  34.629   8.550
 7265POPC   C2B37976  27.806  34.615   8.250
 7265POPC   C3B37977  27.818  34.612   7.950
 7265POPC   C4B37978  27.819  34.606   7.650
 7266POPC   NC337979   5.119  34.553   9.450
 7266POPC   PO437980   5.099  34.561   9.150
 7266POPC   GL137981   5.082  34.599   8.850
 7266POPC   GL237982   5.081  34.447   8.850
 7266POPC   C1A37983   5.084  34.583   8.550
 7266POPC   D2A37984   5.053  34.602   8.250
 7266POPC   C3A37985   5.087  34.573   7.950
 7266POPC   C4A37986   5.077  34.527   7.650
 7266POPC   C1B37987   5.116  34.359   8.550
 7266POPC   C2B37988   5.050  34.327   8.250
 7266POPC   C3B37989   5.055  34.292   7.950
 7266POPC   C4B37990   5.042  34.334   7.650
 7267POPC   NC337991   6.612  13.589   9.450
 7267POPC   PO437992   6.690  13.658   9.150
 7267POPC   GL137993   6.692  13.604   8.850
 7267POPC   GL237994   6.648  13.496   8.850
 7267POPC   C1A37995   6.672  13.668   8.550
 7267POPC   D2A37996   6.649  13.647   8.250
 7267POPC   C3A37997   6.666  13.596   7.950
 7267POPC   C4A37998   6.622  13.584   7.650
 7267POPC   C1B37999   6.641  13.350   8.550
 7267POPC   C2B38000   6.685  13.330   8.250
 7267POPC   C3B38001   6.659  13.414   7.950
 7267POPC   C4B38002   6.667  13.360   7.650
 7268POPC   NC338003  12.807  43.103   9.450
 7268POPC   PO438004  12.819  43.099   9.150
 7268POPC   GL138005  12.889  43.133   8.850
 7268POPC   GL238006  12.876  43.258   8.850
 7268POPC   C1A38007  12.853  43.158   8.550
 7268POPC   D2A38008  12.885  43.098   8.250
 7268POPC   C3A38009  12.899  43.100   7.950
 7268POPC   C4A38010  12.821  43.124   7.650
 7268POPC   C1B38011  12.833  43.313   8.550
 7268POPC   C2B38012  12.792  43.321   8.250
 7268POPC   C3B38013  12.809  43.375   7.950
 7268POPC   C4B38014  12.829  43.379   7.650
 7269POPC   NC338015   6.669  36.874   9.450
 7269POPC   PO438016   6.672  36.897   9.150
 7269POPC   GL138017   6.622  36.888   8.850
 7269POPC   GL238018   6.761  36.828   8.850
 7269POPC   C1A38019   6.667  36.903   8.550
 7269POPC   D2A38020   6.630  36.902   8.250
 7269POPC   C3A38021   6.602  36.898   7.950
 7269POPC   C4A38022   6.678  36.886   7.650
 7269POPC   C1B38023   6.840  36.714   8.550
 7269POPC   C2B38024   6.849  36.769   8.250
 7269POPC   C3B38025   6.869  36.746   7.950
 7269POPC   C4B38026   6.827  36.743   7.650
 7270POPC   NC338027  22.144  24.520   9.450
 7270POPC   PO438028  22.117  24.482   9.150
 7270POPC   GL138029  22.168  24.515   8.850
 7270POPC   GL238030  22.153  24.408   8.850
 7270POPC   C1A38031  22.144  24.447   8.550
 7270POPC   D2A38032  22.196  24.501   8.250
 7270POPC   C3A38033  22.159  24.532   7.950
 7270POPC   C4A38034  22.197  24.444   7.650
 7270POPC   C1B38035  22.152  24.201   8.550
 7270POPC   C2B38036  22.111  24.230   8.250
 7270POPC   C3B38037  22.124  24.254   7.950
 7270POPC   C4B38038  22.071  24.202   7.650
 7271POPC   NC338039  44.654  43.881   9.450
 7271POPC   PO438040  44.700  43.838   9.150
 7271POPC   GL138041  44.680  43.871   8.850
 7271POPC   GL238042  44.578  43.722   8.850
 7271POPC   C1A38043  44.702  43.876   8.550
 7271POPC   D2A38044  44.656  43.870   8.250
 7271POPC   C3A38045  44.687  43.921   7.950
 7271POPC   C4A38046  44.693  43.905   7.650
 7271POPC   C1B38047  44.546  43.658   8.550
 7271POPC   C2B38048  44.560  43.647   8.250
 7271POPC   C3B38049  44.559  43.657   7.950
 7271POPC   C4B38050  44.620  43.695   7.650
 7272POPC   NC338051   1.992  26.827   9.450
 7272POPC   PO438052   1.970  26.850   9.150
 7272POPC   GL138053   1.994  26.815   8.850
 7272POPC   GL238054   2.076  26.780   8.850
 7272POPC   C1A38055   1.985  26.828   8.550
 7272POPC   D2A38056   1.957  26.796   8.250
 7272POPC   C3A38057   1.967  26.854   7.950
 7272POPC   C4A38058   1.956  26.863   7.650
 7272POPC   C1B38059   2.265  26.782   8.550
 7272POPC   C2B38060   2.203  26.793   8.250
 7272POPC   C3B38061   2.224  26.801   7.950
 7272POPC   C4B38062   2.263  26.817   7.650
 7273POPC   NC338063   7.389  33.820   9.450
 7273POPC   PO438064   7.385  33.844   9.150
 7273POPC   GL138065   7.409  33.780   8.850
 7273POPC   GL238066   7.454  33.909   8.850
 7273POPC   C1A38067   7.383  33.806   8.550
 7273POPC   D2A38068   7.372  33.846   8.250
 7273POPC   C3A38069   7.432  33.782   7.950
 7273POPC   C4A38070   7.434  33.849   7.650
 7273POPC   C1B38071   7.520  34.001   8.550
 7273POPC   C2B38072   7.461  34.022   8.250
 7273POPC   C3B38073   7.465  34.013   7.950
 7273POPC   C4B38074   7.477  34.076   7.650
 7274POPC   NC338075  35.346  23.696   9.450
 7274POPC   PO438076  35.347  23.746   9.150
 7274POPC   GL138077  35.319  23.737   8.850
 7274POPC   GL238078  35.288  23.693   8.850
 7274POPC   C1A38079  35.382  23.748   8.550
 7274POPC   D2A38080  35.346  23.708   8.250
 7274POPC   C3A38081  35.401  23.705   7.950
 7274POPC   C4A38082  35.383  23.676   7.650
 7274POPC   C1B38083  35.159  23.639   8.550
 7274POPC   C2B38084  35.119  23.568   8.250
 7274POPC   C3B38085  35.134  23.545   7.950
 7274POPC   C4B38086  35.151  23.561   7.650
 7275POPC   NC338087  24.467   4.341   9.450
 7275POPC   PO438088  24.453   4.344   9.150
 7275POPC   GL138089  24.490   4.295   8.850
 7275POPC   GL238090  24.600   4.335   8.850
 7275POPC   C1A38091  24.464   4.315   8.550
 7275POPC   D2A38092  24.445   4.290   8.250
 7275POPC   C3A38093  24.444   4.299   7.950
 7275POPC   C4A38094  24.479   4.297   7.650
 7275POPC   C1B38095  24.714   4.467   8.550
 7275POPC   C2B38096  24.728   4.486   8.250
 7275POPC   C3B38097  24.742   4.467   7.950
 7275POPC   C4B38098  24.717   4.459   7.650
 7276POPC   NC338099  11.261   9.727   9.450
 7276POPC   PO438100  11.299   9.773   9.150
 7276POPC   GL138101  11.313   9.756   8.850
 7276POPC   GL238102  11.455   9.767   8.850
 7276POPC   C1A38103  11.288   9.725   8.550
 7276POPC   D2A38104  11.261   9.708   8.250
 7276POPC   C3A38105  11.293   9.794   7.950
 7276POPC   C4A38106  11.331   9.710   7.650
 7276POPC   C1B38107  11.553   9.765   8.550
 7276POPC   C2B38108  11.575   9.794   8.250
 7276POPC   C3B38109  11.553   9.709   7.950
 7276POPC   C4B38110  11.595   9.794   7.650
 7277POPC   NC338111   3.510  17.511   9.450
 7277POPC   PO438112   3.523  17.520   9.150
 7277POPC   GL138113   3.563  17.516   8.850
 7277POPC   GL238114   3.456  17.475   8.850
 7277POPC   C1A38115   3.566  17.535   8.550
 7277POPC   D2A38116   3.502  17.466   8.250
 7277POPC   C3A38117   3.587  17.527   7.950
 7277POPC   C4A38118   3.510  17.516   7.650
 7277POPC   C1B38119   3.349  17.414   8.550
 7277POPC   C2B38120   3.329  17.439   8.250
 7277POPC   C3B38121   3.344  17.439   7.950
 7277POPC   C4B38122   3.291  17.426   7.650
 7278POPC   NC338123  30.672  24.465   9.450
 7278POPC   PO438124  30.677  24.447   9.150
 7278POPC   GL138125  30.734  24.459   8.850
 7278POPC   GL238126  30.604  24.395   8.850
 7278POPC   C1A38127  30.671  24.529   8.550
 7278POPC   D2A38128  30.680  24.519   8.250
 7278POPC   C3A38129  30.732  24.523   7.950
 7278POPC   C4A38130  30.705  24.449   7.650
 7278POPC   C1B38131  30.490  24.395   8.550
 7278POPC   C2B38132  30.506  24.409   8.250
 7278POPC   C3B38133  30.503  24.417   7.950
 7278POPC   C4B38134  30.422  24.410   7.650
 7279POPC   NC338135  34.613  20.659   9.450
 7279POPC   PO438136  34.575  20.591   9.150
 7279POPC   GL138137  34.570  20.652   8.850
 7279POPC   GL238138  34.593  20.533   8.850
 7279POPC   C1A38139  34.552  20.566   8.550
 7279POPC   D2A38140  34.554  20.594   8.250
 7279POPC   C3A38141  34.528  20.639   7.950
 7279POPC   C4A38142  34.557  20.653   7.650
 7279POPC   C1B38143  34.571  20.342   8.550
 7279POPC   C2B38144  34.600  20.394   8.250
 7279POPC   C3B38145  34.562  20.338   7.950
 7279POPC   C4B38146  34.573  20.394   7.650
 7280POPC   NC338147   7.429  44.618   9.450
 7280POPC   PO438148   7.425  44.664   9.150
 7280POPC   GL138149   7.386  44.640   8.850
 7280POPC   GL238150   7.379  44.587   8.850
 7280POPC   C1A38151   7.427  44.622   8.550
 7280POPC   D2A38152   7.378  44.621   8.250
 7280POPC   C3A38153   7.383  44.707   7.950
 7280POPC   C4A38154   7.413  44.673   7.650
 7280POPC   C1B38155   7.357  44.426   8.550
 7280POPC   C2B38156   7.339  44.405   8.250
 7280POPC   C3B38157   7.360  44.386   7.950
 7280POPC   C4B38158   7.341  44.425   7.650
 7281POPC   NC338159  38.418  21.417   9.450
 7281POPC   PO438160  38.466  21.414   9.150
 7281POPC   GL138161  38.481  21.405   8.850
 7281POPC   GL238162  38.548  21.317   8.850
 7281POPC   C1A38163  38.501  21.354   8.550
 7281POPC   D2A38164  38.466  21.354   8.250
 7281POPC   C3A38165  38.435  21.425   7.950
 7281POPC   C4A38166  38.432  21.400   7.650
 7281POPC   C1B38167  38.629  21.153   8.550
 7281POPC   C2B38168  38.591  21.177   8.250
 7281POPC   C3B38169  38.580  21.152   7.950
 7281POPC   C4B38170  38.612  21.165   7.650
 7282POPC   NC338171   6.621  32.979   9.450
 7282POPC   PO438172   6.658  32.984   9.150
 7282POPC   GL138173   6.637  32.998   8.850
 7282POPC   GL238174   6.513  32.961   8.850
 7282POPC   C1A38175   6.605  32.978   8.550
 7282POPC   D2A38176   6.635  32.982   8.250
 7282POPC   C3A38177   6.628  32.999   7.950
 7282POPC   C4A38178   6.666  33.041   7.650
 7282POPC   C1B38179   6.433  32.927   8.550
 7282POPC   C2B38180   6.384  32.889   8.250
 7282POPC   C3B38181   6.463  32.976   7.950
 7282POPC   C4B38182   6.408  32.911   7.650
 7283POPC   NC338183   8.973  30.711   9.450
 7283POPC   PO438184   8.957  30.734   9.150
 7283POPC   GL138185   8.980  30.657   8.850
 7283POPC   GL238186   8.964  30.549   8.850
 7283POPC   C1A38187   8.969  30.737   8.550
 7283POPC   D2A38188   9.009  30.669   8.250
 7283POPC   C3A38189   9.015  30.686   7.950
 7283POPC   C4A38190   8.996  30.707   7.650
 7283POPC   C1B38191   8.976  30.458   8.550
 7283POPC   C2B38192   8.934  30.397   8.250
 7283POPC   C3B38193   9.004  30.419   7.950
 7283POPC   C4B38194   8.998  30.398   7.650
 7284POPC   NC338195  22.893  20.641   9.450
 7284POPC   PO438196  22.956  20.617   9.150
 7284POPC   GL138197  22.982  20.603   8.850
 7284POPC   GL238198  23.047  20.582   8.850
 7284POPC   C1A38199  22.969  20.660   8.550
 7284POPC   D2A38200  22.899  20.563   8.250
 7284POPC   C3A38201  22.927  20.608   7.950
 7284POPC   C4A38202  22.926  20.625   7.650
 7284POPC   C1B38203  23.158  20.482   8.550
 7284POPC   C2B38204  23.153  20.455   8.250
 7284POPC   C3B38205  23.184  20.517   7.950
 7284POPC   C4B38206  23.102  20.526   7.650
 7285POPC   NC338207  43.087  12.098   9.450
 7285POPC   PO438208  43.098  12.086   9.150
 7285POPC   GL138209  43.132  12.108   8.850
 7285POPC   GL238210  43.229  12.182   8.850
 7285POPC   C1A38211  43.159  12.057   8.550
 7285POPC   D2A38212  43.093  12.056   8.250
 7285POPC   C3A38213  43.142  12.101   7.950
 7285POPC   C4A38214  43.141  12.109   7.650
 7285POPC   C1B38215  43.243  12.238   8.550
 7285POPC   C2B38216  43.299  12.325   8.250
 7285POPC   C3B38217  43.244  12.321   7.950
 7285POPC   C4B38218  43.264  12.301   7.650
 7286POPC   NC338219  44.654   3.581   9.450
 7286POPC   PO438220  44.653   3.505   9.150
 7286POPC   GL138221  44.632   3.498   8.850
 7286POPC   GL238222  44.713   3.682   8.850
 7286POPC   C1A38223  44.710   3.590   8.550
 7286POPC   D2A38224  44.664   3.519   8.250
 7286POPC   C3A38225  44.633   3.574   7.950
 7286POPC   C4A38226  44.691   3.569   7.650
 7286POPC   C1B38227  44.724   3.768   8.550
 7286POPC   C2B38228  44.702   3.822   8.250
 7286POPC   C3B38229  44.763   3.826   7.950
 7286POPC   C4B38230  44.711   3.742   7.650
 7287POPC   NC338231  30.650   9.767   9.450
 7287POPC   PO438232  30.710   9.757   9.150
 7287POPC   GL138233  30.732   9.794   8.850
 7287POPC   GL238234  30.655   9.670   8.850
 7287POPC   C1A38235  30.706   9.718   8.550
 7287POPC   D2A38236  30.687   9.765   8.250
 7287POPC   C3A38237  30.711   9.707   7.950
 7287POPC   C4A38238  30.705   9.723   7.650
 7287POPC   C1B38239  30.530   9.537   8.550
 7287POPC   C2B38240  30.600   9.520   8.250
 7287POPC   C3B38241  30.554   9.487   7.950
 7287POPC   C4B38242  30.526   9.515   7.650
 7288POPC   NC338243  35.401  29.890   9.450
 7288POPC   PO438244  35.330  29.914   9.150
 7288POPC   GL138245  35.343  29.959   8.850
 7288POPC   GL238246  35.215  29.957   8.850
 7288POPC   C1A38247  35.325  29.871   8.550
 7288POPC   D2A38248  35.348  29.891   8.250
 7288POPC   C3A38249  35.341  29.907   7.950
 7288POPC   C4A38250  35.316  29.890   7.650
 7288POPC   C1B38251  35.123  29.950   8.550
 7288POPC   C2B38252  35.078  29.914   8.250
 7288POPC   C3B38253  35.095  29.989   7.950
 7288POPC   C4B38254  35.079  29.923   7.650
 7289POPC   NC338255  29.184  43.086   9.450
 7289POPC   PO438256  29.133  43.127   9.150
 7289POPC   GL138257  29.131  43.123   8.850
 7289POPC   GL238258  28.994  43.094   8.850
 7289POPC   C1A38259  29.103  43.095   8.550
 7289POPC   D2A38260  29.155  43.148   8.250
 7289POPC   C3A38261  29.192  43.091   7.950
 7289POPC   C4A38262  29.188  43.094   7.650
 7289POPC   C1B38263  28.909  43.127   8.550
 7289POPC   C2B38264  28.851  43.099   8.250
 7289POPC   C3B38265  28.920  43.091   7.950
 7289POPC   C4B38266  28.900  43.053   7.650
 7290POPC   NC338267  40.011  30.647   9.450
 7290POPC   PO438268  39.988  30.724   9.150
 7290POPC   GL138269  40.039  30.697   8.850
 7290POPC   GL238270  39.868  30.725   8.850
 7290POPC   C1A38271  39.970  30.673   8.550
 7290POPC   D2A38272  39.997  30.682   8.250
 7290POPC   C3A38273  39.979  30.723   7.950
 7290POPC   C4A38274  40.035  30.702   7.650
 7290POPC   C1B38275  39.786  30.822   8.550
 7290POPC   C2B38276  39.780  30.835   8.250
 7290POPC   C3B38277  39.735  30.776   7.950
 7290POPC   C4B38278  39.735  30.751   7.650
 7291POPC   NC338279  10.492  37.678   9.450
 7291POPC   PO438280  10.510  37.645   9.150
 7291POPC   GL138281  10.504  37.711   8.850
 7291POPC   GL238282  10.569  37.570   8.850
 7291POPC   C1A38283  10.518  37.676   8.550
 7291POPC   D2A38284  10.491  37.684   8.250
 7291POPC   C3A38285  10.541  37.649   7.950
 7291POPC   C4A38286  10.542  37.667   7.650
 7291POPC   C1B38287  10.639  37.471   8.550
 7291POPC   C2B38288  10.641  37.418   8.250
 7291POPC   C3B38289  10.649  37.492   7.950
 7291POPC   C4B38290  10.617  37.422   7.650
 7292POPC   NC338291   2.813  20.586   9.450
 7292POPC   PO438292   2.785  20.655   9.150
 7292POPC   GL138293   2.776  20.605   8.850
 7292POPC   GL238294   2.794  20.443   8.850
 7292POPC   C1A38295   2.733  20.564   8.550
 7292POPC   D2A38296   2.780  20.581   8.250
 7292POPC   C3A38297   2.794  20.616   7.950
 7292POPC   C4A38298   2.749  20.604   7.650
 7292POPC   C1B38299   2.781  20.313   8.550
 7292POPC   C2B38300   2.794  20.326   8.250
 7292POPC   C3B38301   2.788  20.407   7.950
 7292POPC   C4B38302   2.761  20.367   7.650
 7293POPC   NC338303   5.123  33.832   9.450
 7293POPC   PO438304   5.128  33.783   9.150
 7293POPC   GL138305   5.079  33.804   8.850
 7293POPC   GL238306   5.186  33.842   8.850
 7293POPC   C1A38307   5.055  33.756   8.550
 7293POPC   D2A38308   5.096  33.829   8.250
 7293POPC   C3A38309   5.068  33.785   7.950
 7293POPC   C4A38310   5.107  33.784   7.650
 7293POPC   C1B38311   5.310  33.952   8.550
 7293POPC   C2B38312   5.313  33.964   8.250
 7293POPC   C3B38313   5.250  33.968   7.950
 7293POPC   C4B38314   5.224  34.018   7.650
 7294POPC   NC338315  12.901   9.764   9.450
 7294POPC   PO438316  12.806   9.785   9.150
 7294POPC   GL138317  12.820   9.748   8.850
 7294POPC   GL238318  13.000   9.743   8.850
 7294POPC   C1A38319  12.828   9.716   8.550
 7294POPC   D2A38320  12.862   9.721   8.250
 7294POPC   C3A38321  12.830   9.776   7.950
 7294POPC   C4A38322  12.862   9.726   7.650
 7294POPC   C1B38323  13.066   9.780   8.550
 7294POPC   C2B38324  13.079   9.716   8.250
 7294POPC   C3B38325  13.098   9.685   7.950
 7294POPC   C4B38326  13.101   9.694   7.650
 7295POPC   NC338327   8.204  32.242   9.450
 7295POPC   PO438328   8.163  32.277   9.150
 7295POPC   GL138329   8.157  32.199   8.850
 7295POPC   GL238330   8.096  32.341   8.850
 7295POPC   C1A38331   8.230  32.221   8.550
 7295POPC   D2A38332   8.232  32.253   8.250
 7295POPC   C3A38333   8.185  32.245   7.950
 7295POPC   C4A38334   8.180  32.227   7.650
 7295POPC   C1B38335   8.073  32.482   8.550
 7295POPC   C2B38336   8.045  32.507   8.250
 7295POPC   C3B38337   8.089  32.419   7.950
 7295POPC   C4B38338   8.061  32.421   7.650
 7296POPC   NC338339  32.979  22.163   9.450
 7296POPC   PO438340  32.978  22.113   9.150
 7296POPC   GL138341  33.062  22.148   8.850
 7296POPC   GL238342  33.141  22.206   8.850
 7296POPC   C1A38343  32.977  22.174   8.550
 7296POPC   D2A38344  33.060  22.206   8.250
 7296POPC   C3A38345  33.036  22.127   7.950
 7296POPC   C4A38346  33.011  22.204   7.650
 7296POPC   C1B38347  33.248  22.214   8.550
 7296POPC   C2B38348  33.266  22.128   8.250
 7296POPC   C3B38349  33.287  22.134   7.950
 7296POPC   C4B38350  33.324  22.158   7.650
 7297POPC   NC338351  13.668  22.175   9.450
 7297POPC   PO438352  13.617  22.128   9.150
 7297POPC   GL138353  13.670  22.120   8.850
 7297POPC   GL238354  13.705  22.011   8.850
 7297POPC   C1A38355  13.595  22.166   8.550
 7297POPC   D2A38356  13.636  22.208   8.250
 7297POPC   C3A38357  13.600  22.173   7.950
 7297POPC   C4A38358  13.672  22.196   7.650
 7297POPC   C1B38359  13.685  21.877   8.550
 7297POPC   C2B38360  13.668  21.901   8.250
 7297POPC   C3B38361  13.686  21.906   7.950
 7297POPC   C4B38362  13.720  21.943   7.650
 7298POPC   NC338363   5.101   5.129   9.450
 7298POPC   PO438364   5.065   5.129   9.150
 7298POPC   GL138365   5.133   5.061   8.850
 7298POPC   GL238366   5.015   4.946   8.850
 7298POPC   C1A38367   5.136   5.130   8.550
 7298POPC   D2A38368   5.127   5.087   8.250
 7298POPC   C3A38369   5.135   5.096   7.950
 7298POPC   C4A38370   5.104   5.050   7.650
 7298POPC   C1B38371   5.014   4.872   8.550
 7298POPC   C2B38372   5.046   4.820   8.250
 7298POPC   C3B38373   5.027   4.854   7.950
 7298POPC   C4B38374   4.952   4.825   7.650
 7299POPC   NC338375  10.574  22.938   9.450
 7299POPC   PO438376  10.494  22.949   9.150
 7299POPC   GL138377  10.543  22.904   8.850
 7299POPC   GL238378  10.397  23.010   8.850
 7299POPC   C1A38379  10.538  22.985   8.550
 7299POPC   D2A38380  10.564  22.899   8.250
 7299POPC   C3A38381  10.523  22.925   7.950
 7299POPC   C4A38382  10.503  22.912   7.650
 7299POPC   C1B38383  10.276  23.058   8.550
 7299POPC   C2B38384  10.292  23.000   8.250
 7299POPC   C3B38385  10.257  23.058   7.950
 7299POPC   C4B38386  10.273  22.974   7.650
 7300POPC   NC338387  12.088   8.215   9.450
 7300POPC   PO438388  12.054   8.154   9.150
 7300POPC   GL138389  12.056   8.200   8.850
 7300POPC   GL238390  12.012   8.061   8.850
 7300POPC   C1A38391  12.077   8.232   8.550
 7300POPC   D2A38392  12.027   8.215   8.250
 7300POPC   C3A38393  12.032   8.246   7.950
 7300POPC   C4A38394  12.089   8.226   7.650
 7300POPC   C1B38395  11.976   7.944   8.550
 7300POPC   C2B38396  11.987   7.982   8.250
 7300POPC   C3B38397  12.024   7.997   7.950
 7300POPC   C4B38398  12.055   7.945   7.650
 7301POPC   NC338399   4.316  34.548   9.450
 7301POPC   PO438400   4.321  34.598   9.150
 7301POPC   GL138401   4.304  34.586   8.850
 7301POPC   GL238402   4.271  34.486   8.850
 7301POPC   C1A38403   4.361  34.545   8.550
 7301POPC   D2A38404   4.271  34.606   8.250
 7301POPC   C3A38405   4.337  34.596   7.950
 7301POPC   C4A38406   4.359  34.557   7.650
 7301POPC   C1B38407   4.195  34.373   8.550
 7301POPC   C2B38408   4.163  34.360   8.250
 7301POPC   C3B38409   4.175  34.363   7.950
 7301POPC   C4B38410   4.180  34.365   7.650
 7302POPC   NC338411   1.985   0.445   9.450
 7302POPC   PO438412   1.986   0.392   9.150
 7302POPC   GL138413   2.025   0.430   8.850
 7302POPC   GL238414   2.027   0.379   8.850
 7302POPC   C1A38415   2.002   0.456   8.550
 7302POPC   D2A38416   2.023   0.408   8.250
 7302POPC   C3A38417   1.977   0.475   7.950
 7302POPC   C4A38418   2.027   0.451   7.650
 7302POPC   C1B38419   2.129   0.271   8.550
 7302POPC   C2B38420   2.163   0.269   8.250
 7302POPC   C3B38421   2.115   0.241   7.950
 7302POPC   C4B38422   2.157   0.267   7.650
 7303POPC   NC338423   8.196   1.220   9.450
 7303POPC   PO438424   8.155   1.215   9.150
 7303POPC   GL138425   8.178   1.257   8.850
 7303POPC   GL238426   8.163   1.349   8.850
 7303POPC   C1A38427   8.226   1.238   8.550
 7303POPC   D2A38428   8.224   1.244   8.250
 7303POPC   C3A38429   8.211   1.213   7.950
 7303POPC   C4A38430   8.198   1.191   7.650
 7303POPC   C1B38431   8.167   1.470   8.550
 7303POPC   C2B38432   8.167   1.487   8.250
 7303POPC   C3B38433   8.175   1.484   7.950
 7303POPC   C4B38434   8.167   1.430   7.650
 7304POPC   NC338435  18.324  20.571   9.450
 7304POPC   PO438436  18.255  20.633   9.150
 7304POPC   GL138437  18.322  20.625   8.850
 7304POPC   GL238438  18.138  20.669   8.850
 7304POPC   C1A38439  18.311  20.641   8.550
 7304POPC   D2A38440  18.254  20.607   8.250
 7304POPC   C3A38441  18.235  20.615   7.950
 7304POPC   C4A38442  18.250  20.638   7.650
 7304POPC   C1B38443  18.016  20.713   8.550
 7304POPC   C2B38444  18.088  20.728   8.250
 7304POPC   C3B38445  18.052  20.741   7.950
 7304POPC   C4B38446  18.095  20.692   7.650
 7305POPC   NC338447  40.825  14.366   9.450
 7305POPC   PO438448  40.782  14.447   9.150
 7305POPC   GL138449  40.795  14.427   8.850
 7305POPC   GL238450  40.731  14.302   8.850
 7305POPC   C1A38451  40.807  14.390   8.550
 7305POPC   D2A38452  40.797  14.432   8.250
 7305POPC   C3A38453  40.826  14.367   7.950
 7305POPC   C4A38454  40.733  14.357   7.650
 7305POPC   C1B38455  40.778  14.115   8.550
 7305POPC   C2B38456  40.770  14.185   8.250
 7305POPC   C3B38457  40.777  14.189   7.950
 7305POPC   C4B38458  40.782  14.186   7.650
 7306POPC   NC338459  26.801  31.445   9.450
 7306POPC   PO438460  26.809  31.505   9.150
 7306POPC   GL138461  26.814  31.503   8.850
 7306POPC   GL238462  26.882  31.585   8.850
 7306POPC   C1A38463  26.787  31.433   8.550
 7306POPC   D2A38464  26.836  31.468   8.250
 7306POPC   C3A38465  26.843  31.520   7.950
 7306POPC   C4A38466  26.866  31.433   7.650
 7306POPC   C1B38467  26.986  31.625   8.550
 7306POPC   C2B38468  26.953  31.650   8.250
 7306POPC   C3B38469  26.931  31.651   7.950
 7306POPC   C4B38470  27.031  31.612   7.650
 7307POPC   NC338471   1.970  29.878   9.450
 7307POPC   PO438472   1.949  29.907   9.150
 7307POPC   GL138473   2.005  29.915   8.850
 7307POPC   GL238474   1.912  30.011   8.850
 7307POPC   C1A38475   1.949  29.944   8.550
 7307POPC   D2A38476   2.034  29.876   8.250
 7307POPC   C3A38477   1.973  29.932   7.950
 7307POPC   C4A38478   1.949  29.903   7.650
 7307POPC   C1B38479   1.784  30.140   8.550
 7307POPC   C2B38480   1.791  30.071   8.250
 7307POPC   C3B38481   1.841  30.111   7.950
 7307POPC   C4B38482   1.818  30.094   7.650
 7308POPC   NC338483  10.496  23.757   9.450
 7308POPC   PO438484  10.506  23.677   9.150
 7308POPC   GL138485  10.569  23.755   8.850
 7308POPC   GL238486  10.379  23.752   8.850
 7308POPC   C1A38487  10.574  23.680   8.550
 7308POPC   D2A38488  10.494  23.723   8.250
 7308POPC   C3A38489  10.523  23.704   7.950
 7308POPC   C4A38490  10.539  23.684   7.650
 7308POPC   C1B38491  10.270  23.772   8.550
 7308POPC   C2B38492  10.330  23.785   8.250
 7308POPC   C3B38493  10.247  23.827   7.950
 7308POPC   C4B38494  10.287  23.799   7.650
 7309POPC   NC338495   3.517   1.183   9.450
 7309POPC   PO438496   3.549   1.242   9.150
 7309POPC   GL138497   3.577   1.167   8.850
 7309POPC   GL238498   3.388   1.309   8.850
 7309POPC   C1A38499   3.523   1.257   8.550
 7309POPC   D2A38500   3.536   1.225   8.250
 7309POPC   C3A38501   3.509   1.239   7.950
 7309POPC   C4A38502   3.502   1.263   7.650
 7309POPC   C1B38503   3.360   1.351   8.550
 7309POPC   C2B38504   3.303   1.343   8.250
 7309POPC   C3B38505   3.335   1.391   7.950
 7309POPC   C4B38506   3.297   1.323   7.650
 7310POPC   NC338507  11.271  29.900   9.450
 7310POPC   PO438508  11.265  29.892   9.150
 7310POPC   GL138509  11.309  29.897   8.850
 7310POPC   GL238510  11.204  29.879   8.850
 7310POPC   C1A38511  11.328  29.923   8.550
 7310POPC   D2A38512  11.345  29.886   8.250
 7310POPC   C3A38513  11.302  29.931   7.950
 7310POPC   C4A38514  11.297  29.893   7.650
 7310POPC   C1B38515  11.013  29.943   8.550
 7310POPC   C2B38516  11.016  29.928   8.250
 7310POPC   C3B38517  11.079  29.945   7.950
 7310POPC   C4B38518  11.089  29.869   7.650
 7311POPC   NC338519  37.713  26.790   9.450
 7311POPC   PO438520  37.653  26.794   9.150
 7311POPC   GL138521  37.643  26.838   8.850
 7311POPC   GL238522  37.659  26.712   8.850
 7311POPC   C1A38523  37.696  26.832   8.550
 7311POPC   D2A38524  37.715  26.845   8.250
 7311POPC   C3A38525  37.638  26.839   7.950
 7311POPC   C4A38526  37.679  26.852   7.650
 7311POPC   C1B38527  37.575  26.546   8.550
 7311POPC   C2B38528  37.534  26.627   8.250
 7311POPC   C3B38529  37.610  26.550   7.950
 7311POPC   C4B38530  37.616  26.636   7.650
 7312POPC   NC338531  33.027  33.768   9.450
 7312POPC   PO438532  33.008  33.802   9.150
 7312POPC   GL138533  32.987  33.830   8.850
 7312POPC   GL238534  33.138  33.824   8.850
 7312POPC   C1A38535  32.974  33.755   8.550
 7312POPC   D2A38536  33.004  33.817   8.250
 7312POPC   C3A38537  33.064  33.754   7.950
 7312POPC   C4A38538  33.053  33.806   7.650
 7312POPC   C1B38539  33.263  33.843   8.550
 7312POPC   C2B38540  33.231  33.930   8.250
 7312POPC   C3B38541  33.264  33.867   7.950
 7312POPC   C4B38542  33.303  33.905   7.650
 7313POPC   NC338543  15.992   2.021   9.450
 7313POPC   PO438544  15.906   1.955   9.150
 7313POPC   GL138545  15.995   2.040   8.850
 7313POPC   GL238546  15.981   1.864   8.850
 7313POPC   C1A38547  15.979   1.983   8.550
 7313POPC   D2A38548  15.907   2.019   8.250
 7313POPC   C3A38549  15.980   1.980   7.950
 7313POPC   C4A38550  15.915   1.959   7.650
 7313POPC   C1B38551  16.026   1.774   8.550
 7313POPC   C2B38552  16.091   1.727   8.250
 7313POPC   C3B38553  16.043   1.760   7.950
 7313POPC   C4B38554  16.077   1.770   7.650
 7314POPC   NC338555  12.090  30.737   9.450
 7314POPC   PO438556  12.118  30.651   9.150
 7314POPC   GL138557  12.055  30.720   8.850
 7314POPC   GL238558  12.243  30.674   8.850
 7314POPC   C1A38559  12.065  30.659   8.550
 7314POPC   D2A38560  12.027  30.665   8.250
 7314POPC   C3A38561  12.110  30.736   7.950
 7314POPC   C4A38562  12.061  30.685   7.650
 7314POPC   C1B38563  12.357  30.723   8.550
 7314POPC   C2B38564  12.327  30.651   8.250
 7314POPC   C3B38565  12.339  30.671   7.950
 7314POPC   C4B38566  12.366  30.671   7.650
 7315POPC   NC338567  21.433  32.975   9.450
 7315POPC   PO438568  21.356  33.066   9.150
 7315POPC   GL138569  21.349  33.013   8.850
 7315POPC   GL238570  21.362  33.120   8.850
 7315POPC   C1A38571  21.367  33.068   8.550
 7315POPC   D2A38572  21.357  32.994   8.250
 7315POPC   C3A38573  21.377  33.067   7.950
 7315POPC   C4A38574  21.431  33.012   7.650
 7315POPC   C1B38575  21.364  33.268   8.550
 7315POPC   C2B38576  21.351  33.231   8.250
 7315POPC   C3B38577  21.418  33.247   7.950
 7315POPC   C4B38578  21.361  33.243   7.650
 7316POPC   NC338579  19.011  36.856   9.450
 7316POPC   PO438580  19.105  36.875   9.150
 7316POPC   GL138581  19.043  36.889   8.850
 7316POPC   GL238582  18.922  36.851   8.850
 7316POPC   C1A38583  19.024  36.917   8.550
 7316POPC   D2A38584  19.088  36.865   8.250
 7316POPC   C3A38585  19.080  36.933   7.950
 7316POPC   C4A38586  19.062  36.858   7.650
 7316POPC   C1B38587  18.839  36.801   8.550
 7316POPC   C2B38588  18.805  36.824   8.250
 7316POPC   C3B38589  18.851  36.764   7.950
 7316POPC   C4B38590  18.857  36.749   7.650
 7317POPC   NC338591  33.812   0.487   9.450
 7317POPC   PO438592  33.831   0.471   9.150
 7317POPC   GL138593  33.830   0.456   8.850
 7317POPC   GL238594  33.711   0.453   8.850
 7317POPC   C1A38595  33.821   0.456   8.550
 7317POPC   D2A38596  33.806   0.481   8.250
 7317POPC   C3A38597  33.835   0.446   7.950
 7317POPC   C4A38598  33.785   0.481   7.650
 7317POPC   C1B38599  33.502   0.492   8.550
 7317POPC   C2B38600  33.565   0.418   8.250
 7317POPC   C3B38601  33.524   0.427   7.950
 7317POPC   C4B38602  33.518   0.466   7.650
 7318POPC   NC338603  21.368  25.308   9.450
 7318POPC   PO438604  21.366  25.262   9.150
 7318POPC   GL138605  21.404  25.258   8.850
 7318POPC   GL238606  21.303  25.119   8.850
 7318POPC   C1A38607  21.373  25.256   8.550
 7318POPC   D2A38608  21.338  25.260   8.250
 7318POPC   C3A38609  21.357  25.278   7.950
 7318POPC   C4A38610  21.342  25.219   7.650
 7318POPC   C1B38611  21.228  25.016   8.550
 7318POPC   C2B38612  21.222  25.020   8.250
 7318POPC   C3B38613  21.251  25.024   7.950
 7318POPC   C4B38614  21.213  25.028   7.650
 7319POPC   NC338615  11.260  19.030   9.450
 7319POPC   PO438616  11.335  19.053   9.150
 7319POPC   GL138617  11.279  19.105   8.850
 7319POPC   GL238618  11.223  19.004   8.850
 7319POPC   C1A38619  11.313  19.054   8.550
 7319POPC   D2A38620  11.317  19.039   8.250
 7319POPC   C3A38621  11.347  19.075   7.950
 7319POPC   C4A38622  11.318  19.080   7.650
 7319POPC   C1B38623  11.096  18.918   8.550
 7319POPC   C2B38624  11.059  18.956   8.250
 7319POPC   C3B38625  11.113  18.951   7.950
 7319POPC   C4B38626  11.047  18.967   7.650
 7320POPC   NC338627  31.436  22.928   9.450
 7320POPC   PO438628  31.508  22.937   9.150
 7320POPC   GL138629  31.434  22.929   8.850
 7320POPC   GL238630  31.469  23.106   8.850
 7320POPC   C1A38631  31.496  22.976   8.550
 7320POPC   D2A38632  31.500  22.951   8.250
 7320POPC   C3A38633  31.443  22.917   7.950
 7320POPC   C4A38634  31.506  22.893   7.650
 7320POPC   C1B38635  31.462  23.170   8.550
 7320POPC   C2B38636  31.470  23.175   8.250
 7320POPC   C3B38637  31.375  23.134   7.950
 7320POPC   C4B38638  31.378  23.147   7.650
 7321POPC   NC338639  15.908  20.565   9.450
 7321POPC   PO438640  15.964  20.591   9.150
 7321POPC   GL138641  15.918  20.645   8.850
 7321POPC   GL238642  15.838  20.637   8.850
 7321POPC   C1A38643  15.992  20.629   8.550
 7321POPC   D2A38644  15.958  20.620   8.250
 7321POPC   C3A38645  15.978  20.561   7.950
 7321POPC   C4A38646  15.940  20.627   7.650
 7321POPC   C1B38647  15.707  20.724   8.550
 7321POPC   C2B38648  15.746  20.783   8.250
 7321POPC   C3B38649  15.719  20.739   7.950
 7321POPC   C4B38650  15.711  20.797   7.650
 7322POPC   NC338651  10.532  33.007   9.450
 7322POPC   PO438652  10.528  33.059   9.150
 7322POPC   GL138653  10.559  33.014   8.850
 7322POPC   GL238654  10.682  33.026   8.850
 7322POPC   C1A38655  10.498  33.059   8.550
 7322POPC   D2A38656  10.537  33.029   8.250
 7322POPC   C3A38657  10.495  33.049   7.950
 7322POPC   C4A38658  10.572  32.993   7.650
 7322POPC   C1B38659  10.724  33.036   8.550
 7322POPC   C2B38660  10.816  33.044   8.250
 7322POPC   C3B38661  10.767  32.998   7.950
 7322POPC   C4B38662  10.788  33.023   7.650
 7323POPC   NC338663  30.673   6.634   9.450
 7323POPC   PO438664  30.724   6.628   9.150
 7323POPC   GL138665  30.733   6.672   8.850
 7323POPC   GL238666  30.614   6.494   8.850
 7323POPC   C1A38667  30.653   6.655   8.550
 7323POPC   D2A38668  30.706   6.691   8.250
 7323POPC   C3A38669  30.696   6.682   7.950
 7323POPC   C4A38670  30.672   6.609   7.650
 7323POPC   C1B38671  30.611   6.403   8.550
 7323POPC   C2B38672  30.603   6.398   8.250
 7323POPC   C3B38673  30.554   6.376   7.950
 7323POPC   C4B38674  30.608   6.439   7.650
 7324POPC   NC338675  12.836  44.613   9.450
 7324POPC   PO438676  12.851  44.616   9.150
 7324POPC   GL138677  12.813  44.682   8.850
 7324POPC   GL238678  13.013  44.638   8.850
 7324POPC   C1A38679  12.815  44.675   8.550
 7324POPC   D2A38680  12.859  44.658   8.250
 7324POPC   C3A38681  12.808  44.613   7.950
 7324POPC   C4A38682  12.811  44.694   7.650
 7324POPC   C1B38683  13.147  44.724   8.550
 7324POPC   C2B38684  13.109  44.641   8.250
 7324POPC   C3B38685  13.062  44.681   7.950
 7324POPC   C4B38686  13.069  44.652   7.650
 7325POPC   NC338687  35.356  25.312   9.450
 7325POPC   PO438688  35.394  25.233   9.150
 7325POPC   GL138689  35.319  25.226   8.850
 7325POPC   GL238690  35.207  25.271   8.850
 7325POPC   C1A38691  35.337  25.242   8.550
 7325POPC   D2A38692  35.317  25.219   8.250
 7325POPC   C3A38693  35.304  25.236   7.950
 7325POPC   C4A38694  35.329  25.280   7.650
 7325POPC   C1B38695  35.108  25.362   8.550
 7325POPC   C2B38696  35.073  25.336   8.250
 7325POPC   C3B38697  35.142  25.330   7.950
 7325POPC   C4B38698  35.132  25.302   7.650
 7326POPC   NC338699  19.036  18.238   9.450
 7326POPC   PO438700  19.009  18.301   9.150
 7326POPC   GL138701  19.056  18.302   8.850
 7326POPC   GL238702  18.965  18.208   8.850
 7326POPC   C1A38703  19.100  18.319   8.550
 7326POPC   D2A38704  19.061  18.312   8.250
 7326POPC   C3A38705  19.021  18.256   7.950
 7326POPC   C4A38706  19.096  18.274   7.650
 7326POPC   C1B38707  18.906  18.123   8.550
 7326POPC   C2B38708  18.936  18.039   8.250
 7326POPC   C3B38709  18.953  18.110   7.950
 7326POPC   C4B38710  18.953  18.076   7.650
 7327POPC   NC338711  17.499  41.571   9.450
 7327POPC   PO438712  17.510  41.532   9.150
 7327POPC   GL138713  17.477  41.547   8.850
 7327POPC   GL238714  17.597  41.612   8.850
 7327POPC   C1A38715  17.549  41.571   8.550
 7327POPC   D2A38716  17.471  41.573   8.250
 7327POPC   C3A38717  17.505  41.598   7.950
 7327POPC   C4A38718  17.512  41.594   7.650
 7327POPC   C1B38719  17.681  41.742   8.550
 7327POPC   C2B38720  17.642  41.714   8.250
 7327POPC   C3B38721  17.682  41.795   7.950
 7327POPC   C4B38722  17.631  41.728   7.650
 7328POPC   NC338723  12.040  28.385   9.450
 7328POPC   PO438724  12.111  28.323   9.150
 7328POPC   GL138725  12.091  28.348   8.850
 7328POPC   GL238726  12.227  28.373   8.850
 7328POPC   C1A38727  12.073  28.360   8.550
 7328POPC   D2A38728  12.085  28.373   8.250
 7328POPC   C3A38729  12.089  28.358   7.950
 7328POPC   C4A38730  12.081  28.388   7.650
 7328POPC   C1B38731  12.284  28.447   8.550
 7328POPC   C2B38732  12.307  28.489   8.250
 7328POPC   C3B38733  12.312  28.509   7.950
 7328POPC   C4B38734  12.353  28.439   7.650
 7329POPC   NC338735  30.659  12.114   9.450
 7329POPC   PO438736  30.728  12.085   9.150
 7329POPC   GL138737  30.691  12.079   8.850
 7329POPC   GL238738  30.827  12.127   8.850
 7329POPC   C1A38739  30.657  12.089   8.550
 7329POPC   D2A38740  30.730  12.035   8.250
 7329POPC   C3A38741  30.695  12.087   7.950
 7329POPC   C4A38742  30.684  12.051   7.650
 7329POPC   C1B38743  30.950  12.204   8.550
 7329POPC   C2B38744  30.876  12.190   8.250
 7329POPC   C3B38745  30.879  12.241   7.950
 7329POPC   C4B38746  30.914  12.243   7.650
 7330POPC   NC338747   3.581  29.102   9.450
 7330POPC   PO438748   3.562  29.175   9.150
 7330POPC   GL138749   3.515  29.110   8.850
 7330POPC   GL238750   3.607  29.245   8.850
 7330POPC   C1A38751   3.579  29.103   8.550
 7330POPC   D2A38752   3.541  29.179   8.250
 7330POPC   C3A38753   3.537  29.170   7.950
 7330POPC   C4A38754   3.532  29.156   7.650
 7330POPC   C1B38755   3.598  29.434   8.550
 7330POPC   C2B38756   3.583  29.405   8.250
 7330POPC   C3B38757   3.534  29.369   7.950
 7330POPC   C4B38758   3.534  29.390   7.650
 7331POPC   NC338759  36.896  10.530   9.450
 7331POPC   PO438760  36.864  10.525   9.150
 7331POPC   GL138761  36.930  10.565   8.850
 7331POPC   GL238762  36.759  10.629   8.850
 7331POPC   C1A38763  36.902  10.529   8.550
 7331POPC   D2A38764  36.857  10.517   8.250
 7331POPC   C3A38765  36.874  10.512   7.950
 7331POPC   C4A38766  36.953  10.546   7.650
 7331POPC   C1B38767  36.687  10.617   8.550
 7331POPC   C2B38768  36.672  10.673   8.250
 7331POPC   C3B38769  36.634  10.673   7.950
 7331POPC   C4B38770  36.651  10.610   7.650
 7332POPC   NC338771  31.427  29.131   9.450
 7332POPC   PO438772  31.479  29.105   9.150
 7332POPC   GL138773  31.493  29.184   8.850
 7332POPC   GL238774  31.458  29.286   8.850
 7332POPC   C1A38775  31.505  29.143   8.550
 7332POPC   D2A38776  31.449  29.176   8.250
 7332POPC   C3A38777  31.465  29.174   7.950
 7332POPC   C4A38778  31.465  29.143   7.650
 7332POPC   C1B38779  31.426  29.380   8.550
 7332POPC   C2B38780  31.390  29.405   8.250
 7332POPC   C3B38781  31.422  29.425   7.950
 7332POPC   C4B38782  31.405  29.408   7.650
 7333POPC   NC338783  31.469  17.538   9.450
 7333POPC   PO438784  31.474  17.500   9.150
 7333POPC   GL138785  31.447  17.554   8.850
 7333POPC   GL238786  31.404  17.470   8.850
 7333POPC   C1A38787  31.517  17.548   8.550
 7333POPC   D2A38788  31.520  17.471   8.250
 7333POPC   C3A38789  31.457  17.506   7.950
 7333POPC   C4A38790  31.461  17.458   7.650
 7333POPC   C1B38791  31.292  17.407   8.550
 7333POPC   C2B38792  31.214  17.368   8.250
 7333POPC   C3B38793  31.208  17.414   7.950
 7333POPC   C4B38794  31.300  17.391   7.650
 7334POPC   NC338795  36.088  17.458   9.450
 7334POPC   PO438796  36.136  17.462   9.150
 7334POPC   GL138797  36.087  17.498   8.850
 7334POPC   GL238798  36.131  17.609   8.850
 7334POPC   C1A38799  36.102  17.489   8.550
 7334POPC   D2A38800  36.092  17.482   8.250
 7334POPC   C3A38801  36.099  17.479   7.950
 7334POPC   C4A38802  36.152  17.544   7.650
 7334POPC   C1B38803  36.188  17.756   8.550
 7334POPC   C2B38804  36.224  17.781   8.250
 7334POPC   C3B38805  36.258  17.700   7.950
 7334POPC   C4B38806  36.229  17.727   7.650
 7335POPC   NC338807  18.298  24.485   9.450
 7335POPC   PO438808  18.245  24.472   9.150
 7335POPC   GL138809  18.269  24.482   8.850
 7335POPC   GL238810  18.234  24.561   8.850
 7335POPC   C1A38811  18.253  24.506   8.550
 7335POPC   D2A38812  18.292  24.496   8.250
 7335POPC   C3A38813  18.238  24.485   7.950
 7335POPC   C4A38814  18.261  24.460   7.650
 7335POPC   C1B38815  18.189  24.668   8.550
 7335POPC   C2B38816  18.159  24.664   8.250
 7335POPC   C3B38817  18.188  24.731   7.950
 7335POPC   C4B38818  18.193  24.744   7.650
 7336POPC   NC338819  11.289  25.303   9.450
 7336POPC   PO438820  11.272  25.282   9.150
 7336POPC   GL138821  11.335  25.311   8.850
 7336POPC   GL238822  11.207  25.353   8.850
 7336POPC   C1A38823  11.282  25.304   8.550
 7336POPC   D2A38824  11.323  25.306   8.250
 7336POPC   C3A38825  11.340  25.276   7.950
 7336POPC   C4A38826  11.337  25.282   7.650
 7336POPC   C1B38827  11.164  25.525   8.550
 7336POPC   C2B38828  11.169  25.513   8.250
 7336POPC   C3B38829  11.164  25.467   7.950
 7336POPC   C4B38830  11.188  25.457   7.650
 7337POPC   NC338831  33.031  22.982   9.450
 7337POPC   PO438832  33.061  22.905   9.150
 7337POPC   GL138833  32.988  22.980   8.850
 7337POPC   GL238834  33.112  22.941   8.850
 7337POPC   C1A38835  33.016  22.906   8.550
 7337POPC   D2A38836  33.004  22.894   8.250
 7337POPC   C3A38837  32.984  22.904   7.950
 7337POPC   C4A38838  32.987  22.911   7.650
 7337POPC   C1B38839  33.250  22.900   8.550
 7337POPC   C2B38840  33.310  22.848   8.250
 7337POPC   C3B38841  33.273  22.892   7.950
 7337POPC   C4B38842  33.287  22.835   7.650
 7338POPC   NC338843  15.917   7.392   9.450
 7338POPC   PO438844  15.909   7.418   9.150
 7338POPC   GL138845  15.945   7.434   8.850
 7338POPC   GL238846  15.788   7.346   8.850
 7338POPC   C1A38847  15.932   7.468   8.550
 7338POPC   D2A38848  15.967   7.380   8.250
 7338POPC   C3A38849  15.999   7.454   7.950
 7338POPC   C4A38850  15.913   7.376   7.650
 7338POPC   C1B38851  15.733   7.386   8.550
 7338POPC   C2B38852  15.758   7.382   8.250
 7338POPC   C3B38853  15.673   7.381   7.950
 7338POPC   C4B38854  15.717   7.397   7.650
 7339POPC   NC338855  31.426  36.877   9.450
 7339POPC   PO438856  31.476  36.878   9.150
 7339POPC   GL138857  31.509  36.917   8.850
 7339POPC   GL238858  31.561  36.868   8.850
 7339POPC   C1A38859  31.469  36.928   8.550
 7339POPC   D2A38860  31.425  36.943   8.250
 7339POPC   C3A38861  31.470  36.906   7.950
 7339POPC   C4A38862  31.466  36.936   7.650
 7339POPC   C1B38863  31.758  36.870   8.550
 7339POPC   C2B38864  31.693  36.893   8.250
 7339POPC   C3B38865  31.744  36.909   7.950
 7339POPC   C4B38866  31.734  36.908   7.650
 7340POPC   NC338867  36.949   9.718   9.450
 7340POPC   PO438868  36.861   9.721   9.150
 7340POPC   GL138869  36.874   9.767   8.850
 7340POPC   GL238870  36.848   9.626   8.850
 7340POPC   C1A38871  36.905   9.793   8.550
 7340POPC   D2A38872  36.883   9.763   8.250
 7340POPC   C3A38873  36.897   9.784   7.950
 7340POPC   C4A38874  36.871   9.757   7.650
 7340POPC   C1B38875  36.766   9.543   8.550
 7340POPC   C2B38876  36.774   9.507   8.250
 7340POPC   C3B38877  36.829   9.484   7.950
 7340POPC   C4B38878  36.828   9.514   7.650
 7341POPC   NC338879  13.597  41.574   9.450
 7341POPC   PO438880  13.632  41.536   9.150
 7341POPC   GL138881  13.669  41.525   8.850
 7341POPC   GL238882  13.769  41.582   8.850
 7341POPC   C1A38883  13.664  41.590   8.550
 7341POPC   D2A38884  13.633  41.586   8.250
 7341POPC   C3A38885  13.621  41.568   7.950
 7341POPC   C4A38886  13.677  41.568   7.650
 7341POPC   C1B38887  13.828  41.617   8.550
 7341POPC   C2B38888  13.851  41.617   8.250
 7341POPC   C3B38889  13.895  41.597   7.950
 7341POPC   C4B38890  13.825  41.610   7.650
 7342POPC   NC338891  16.715   1.949   9.450
 7342POPC   PO438892  16.711   2.012   9.150
 7342POPC   GL138893  16.695   1.982   8.850
 7342POPC   GL238894  16.647   1.957   8.850
 7342POPC   C1A38895  16.706   2.031   8.550
 7342POPC   D2A38896  16.725   1.968   8.250
 7342POPC   C3A38897  16.716   1.969   7.950
 7342POPC   C4A38898  16.720   1.967   7.650
 7342POPC   C1B38899  16.532   1.934   8.550
 7342POPC   C2B38900  16.546   1.951   8.250
 7342POPC   C3B38901  16.502   1.867   7.950
 7342POPC   C4B38902  16.501   1.926   7.650
 7343POPC   NC338903  31.482  31.458   9.450
 7343POPC   PO438904  31.460  31.486   9.150
 7343POPC   GL138905  31.439  31.507   8.850
 7343POPC   GL238906  31.397  31.527   8.850
 7343POPC   C1A38907  31.478  31.423   8.550
 7343POPC   D2A38908  31.481  31.425   8.250
 7343POPC   C3A38909  31.474  31.474   7.950
 7343POPC   C4A38910  31.423  31.450   7.650
 7343POPC   C1B38911  31.303  31.649   8.550
 7343POPC   C2B38912  31.225  31.603   8.250
 7343POPC   C3B38913  31.297  31.630   7.950
 7343POPC   C4B38914  31.266  31.574   7.650
 7344POPC   NC338915   1.199  18.276   9.450
 7344POPC   PO438916   1.192  18.302   9.150
 7344POPC   GL138917   1.230  18.252   8.850
 7344POPC   GL238918   1.241  18.198   8.850
 7344POPC   C1A38919   1.214  18.288   8.550
 7344POPC   D2A38920   1.183  18.256   8.250
 7344POPC   C3A38921   1.200  18.293   7.950
 7344POPC   C4A38922   1.240  18.316   7.650
 7344POPC   C1B38923   1.248  17.987   8.550
 7344POPC   C2B38924   1.197  18.028   8.250
 7344POPC   C3B38925   1.196  18.062   7.950
 7344POPC   C4B38926   1.248  18.022   7.650
 7345POPC   NC338927  29.915  31.489   9.450
 7345POPC   PO438928  29.940  31.497   9.150
 7345POPC   GL138929  29.936  31.496   8.850
 7345POPC   GL238930  29.907  31.546   8.850
 7345POPC   C1A38931  29.968  31.482   8.550
 7345POPC   D2A38932  29.964  31.423   8.250
 7345POPC   C3A38933  29.911  31.475   7.950
 7345POPC   C4A38934  29.873  31.463   7.650
 7345POPC   C1B38935  29.901  31.729   8.550
 7345POPC   C2B38936  29.866  31.710   8.250
 7345POPC   C3B38937  29.912  31.760   7.950
 7345POPC   C4B38938  29.870  31.673   7.650
 7346POPC   NC338939  41.534   2.763   9.450
 7346POPC   PO438940  41.607   2.718   9.150
 7346POPC   GL138941  41.535   2.750   8.850
 7346POPC   GL238942  41.559   2.876   8.850
 7346POPC   C1A38943  41.595   2.733   8.550
 7346POPC   D2A38944  41.606   2.766   8.250
 7346POPC   C3A38945  41.530   2.811   7.950
 7346POPC   C4A38946  41.596   2.809   7.650
 7346POPC   C1B38947  41.608   3.001   8.550
 7346POPC   C2B38948  41.654   2.995   8.250
 7346POPC   C3B38949  41.614   2.999   7.950
 7346POPC   C4B38950  41.643   3.010   7.650
 7347POPC   NC338951  21.404   8.972   9.450
 7347POPC   PO438952  21.392   9.004   9.150
 7347POPC   GL138953  21.387   8.958   8.850
 7347POPC   GL238954  21.491   8.915   8.850
 7347POPC   C1A38955  21.373   8.987   8.550
 7347POPC   D2A38956  21.344   8.945   8.250
 7347POPC   C3A38957  21.350   9.002   7.950
 7347POPC   C4A38958  21.394   8.963   7.650
 7347POPC   C1B38959  21.546   8.879   8.550
 7347POPC   C2B38960  21.565   8.841   8.250
 7347POPC   C3B38961  21.559   8.870   7.950
 7347POPC   C4B38962  21.598   8.790   7.650
 7348POPC   NC338963  13.649  37.668   9.450
 7348POPC   PO438964  13.588  37.695   9.150
 7348POPC   GL138965  13.649  37.712   8.850
 7348POPC   GL238966  13.464  37.721   8.850
 7348POPC   C1A38967  13.663  37.641   8.550
 7348POPC   D2A38968  13.610  37.727   8.250
 7348POPC   C3A38969  13.600  37.653   7.950
 7348POPC   C4A38970  13.595  37.664   7.650
 7348POPC   C1B38971  13.440  37.817   8.550
 7348POPC   C2B38972  13.389  37.796   8.250
 7348POPC   C3B38973  13.439  37.815   7.950
 7348POPC   C4B38974  13.354  37.771   7.650
 7349POPC   NC338975  43.913  16.004   9.450
 7349POPC   PO438976  43.893  15.941   9.150
 7349POPC   GL138977  43.868  15.920   8.850
 7349POPC   GL238978  43.966  16.073   8.850
 7349POPC   C1A38979  43.879  15.978   8.550
 7349POPC   D2A38980  43.882  15.955   8.250
 7349POPC   C3A38981  43.872  15.938   7.950
 7349POPC   C4A38982  43.909  15.946   7.650
 7349POPC   C1B38983  44.091  16.126   8.550
 7349POPC   C2B38984  44.021  16.110   8.250
 7349POPC   C3B38985  44.094  16.158   7.950
 7349POPC   C4B38986  44.032  16.170   7.650
 7350POPC   NC338987  10.549   1.238   9.450
 7350POPC   PO438988  10.554   1.200   9.150
 7350POPC   GL138989  10.543   1.226   8.850
 7350POPC   GL238990  10.367   1.216   8.850
 7350POPC   C1A38991  10.537   1.220   8.550
 7350POPC   D2A38992  10.574   1.166   8.250
 7350POPC   C3A38993  10.535   1.174   7.950
 7350POPC   C4A38994  10.515   1.170   7.650
 7350POPC   C1B38995  10.309   1.211   8.550
 7350POPC   C2B38996  10.321   1.185   8.250
 7350POPC   C3B38997  10.287   1.197   7.950
 7350POPC   C4B38998  10.273   1.201   7.650
 7351POPC   NC338999  11.283  32.249   9.450
 7351POPC   PO439000  11.317  32.255   9.150
 7351POPC   GL139001  11.274  32.297   8.850
 7351POPC   GL239002  11.143  32.305   8.850
 7351POPC   C1A39003  11.269  32.232   8.550
 7351POPC   D2A39004  11.330  32.261   8.250
 7351POPC   C3A39005  11.277  32.275   7.950
 7351POPC   C4A39006  11.311  32.282   7.650
 7351POPC   C1B39007  11.107  32.307   8.550
 7351POPC   C2B39008  11.108  32.334   8.250
 7351POPC   C3B39009  11.104  32.362   7.950
 7351POPC   C4B39010  11.108  32.324   7.650
 7352POPC   NC339011   7.397  40.784   9.450
 7352POPC   PO439012   7.392  40.774   9.150
 7352POPC   GL139013   7.401  40.768   8.850
 7352POPC   GL239014   7.355  40.660   8.850
 7352POPC   C1A39015   7.450  40.781   8.550
 7352POPC   D2A39016   7.373  40.762   8.250
 7352POPC   C3A39017   7.412  40.766   7.950
 7352POPC   C4A39018   7.403  40.795   7.650
 7352POPC   C1B39019   7.366  40.588   8.550
 7352POPC   C2B39020   7.313  40.541   8.250
 7352POPC   C3B39021   7.366  40.538   7.950
 7352POPC   C4B39022   7.363  40.529   7.650
 7353POPC   NC339023  30.662  19.863   5.550
 7353POPC   PO439024  30.674  19.826   5.850
 7353POPC   GL139025  30.678  19.866   6.150
 7353POPC   GL239026  30.827  19.929   6.150
 7353POPC   C1A39027  30.666  19.840   6.450
 7353POPC   D2A39028  30.745  19.843   6.750
 7353POPC   C3A39029  30.681  19.820   7.050
 7353POPC   C4A39030  30.651  19.841   7.350
 7353POPC   C1B39031  30.866  19.924   6.450
 7353POPC   C2B39032  30.908  19.957   6.750
 7353POPC   C3B39033  30.953  19.991   7.050
 7353POPC   C4B39034  30.892  19.961   7.350
 7354POPC   NC339035  19.844  19.848   5.550
 7354POPC   PO439036  19.788  19.863   5.850
 7354POPC   GL139037  19.810  19.852   6.150
 7354POPC   GL239038  19.891  19.916   6.150
 7354POPC   C1A39039  19.809  19.863   6.450
 7354POPC   D2A39040  19.787  19.865   6.750
 7354POPC   C3A39041  19.819  19.876   7.050
 7354POPC   C4A39042  19.806  19.806   7.350
 7354POPC   C1B39043  19.892  20.098   6.450
 7354POPC   C2B39044  19.893  20.027   6.750
 7354POPC   C3B39045  19.896  20.060   7.050
 7354POPC   C4B39046  19.880  20.096   7.350
 7355POPC   NC339047  30.731  27.548   5.550
 7355POPC   PO439048  30.682  27.611   5.850
 7355POPC   GL139049  30.660  27.554   6.150
 7355POPC   GL239050  30.672  27.677   6.150
 7355POPC   C1A39051  30.741  27.633   6.450
 7355POPC   D2A39052  30.652  27.639   6.750
 7355POPC   C3A39053  30.717  27.638   7.050
 7355POPC   C4A39054  30.664  27.619   7.350
 7355POPC   C1B39055  30.609  27.839   6.450
 7355POPC   C2B39056  30.523  27.769   6.750
 7355POPC   C3B39057  30.589  27.848   7.050
 7355POPC   C4B39058  30.589  27.822   7.350
 7356POPC   NC339059  35.338  26.846   5.550
 7356POPC   PO439060  35.302  26.801   5.850
 7356POPC   GL139061  35.345  26.859   6.150
 7356POPC   GL239062  35.322  26.667   6.150
 7356POPC   C1A39063  35.392  26.864   6.450
 7356POPC   D2A39064  35.402  26.865   6.750
 7356POPC   C3A39065  35.366  26.820   7.050
 7356POPC   C4A39066  35.304  26.787   7.350
 7356POPC   C1B39067  35.260  26.614   6.450
 7356POPC   C2B39068  35.278  26.552   6.750
 7356POPC   C3B39069  35.264  26.579   7.050
 7356POPC   C4B39070  35.297  26.553   7.350
 7357POPC   NC339071   1.237  40.003   5.550
 7357POPC   PO439072   1.203  39.991   5.850
 7357POPC   GL139073   1.227  40.038   6.150
 7357POPC   GL239074   1.076  39.992   6.150
 7357POPC   C1A39075   1.219  39.970   6.450
 7357POPC   D2A39076   1.216  39.993   6.750
 7357POPC   C3A39077   1.206  39.963   7.050
 7357POPC   C4A39078   1.223  40.036   7.350
 7357POPC   C1B39079   0.935  39.951   6.450
 7357POPC   C2B39080   0.987  39.982   6.750
 7357POPC   C3B39081   0.947  39.937   7.050
 7357POPC   C4B39082   0.947  39.926   7.350
 7358POPC   NC339083  22.170   4.354   5.550
 7358POPC   PO439084  22.164   4.348   5.850
 7358POPC   GL139085  22.196   4.365   6.150
 7358POPC   GL239086  22.255   4.191   6.150
 7358POPC   C1A39087  22.175   4.322   6.450
 7358POPC   D2A39088  22.199   4.287   6.750
 7358POPC   C3A39089  22.148   4.325   7.050
 7358POPC   C4A39090  22.207   4.326   7.350
 7358POPC   C1B39091  22.342   4.111   6.450
 7358POPC   C2B39092  22.374   4.140   6.750
 7358POPC   C3B39093  22.356   4.138   7.050
 7358POPC   C4B39094  22.377   4.150   7.350
 7359POPC   NC339095  22.919  17.507   5.550
 7359POPC   PO439096  22.951  17.486   5.850
 7359POPC   GL139097  22.905  17.461   6.150
 7359POPC   GL239098  23.038  17.543   6.150
 7359POPC   C1A39099  22.944  17.462   6.450
 7359POPC   D2A39100  22.953  17.471   6.750
 7359POPC   C3A39101  22.952  17.539   7.050
 7359POPC   C4A39102  22.904  17.497   7.350
 7359POPC   C1B39103  23.167  17.711   6.450
 7359POPC   C2B39104  23.108  17.702   6.750
 7359POPC   C3B39105  23.102  17.643   7.050
 7359POPC   C4B39106  23.151  17.686   7.350
 7360POPC   NC339107  14.400   1.185   5.550
 7360POPC   PO439108  14.354   1.240   5.850
 7360POPC   GL139109  14.410   1.228   6.150
 7360POPC   GL239110  14.409   1.311   6.150
 7360POPC   C1A39111  14.393   1.186   6.450
 7360POPC   D2A39112  14.444   1.199   6.750
 7360POPC   C3A39113  14.387   1.232   7.050
 7360POPC   C4A39114  14.399   1.222   7.350
 7360POPC   C1B39115  14.447   1.480   6.450
 7360POPC   C2B39116  14.463   1.495   6.750
 7360POPC   C3B39117  14.469   1.456   7.050
 7360POPC   C4B39118  14.392   1.484   7.350
 7361POPC   NC339119   1.971  33.839   5.550
 7361POPC   PO439120   1.954  33.843   5.850
 7361POPC   GL139121   1.968  33.828   6.150
 7361POPC   GL239122   1.867  33.895   6.150
 7361POPC   C1A39123   2.009  33.789   6.450
 7361POPC   D2A39124   2.012  33.811   6.750
 7361POPC   C3A39125   1.992  33.841   7.050
 7361POPC   C4A39126   1.987  33.822   7.350
 7361POPC   C1B39127   1.753  33.953   6.450
 7361POPC   C2B39128   1.771  33.949   6.750
 7361POPC   C3B39129   1.740  33.946   7.050
 7361POPC   C4B39130   1.792  33.954   7.350
 7362POPC   NC339131   5.120  34.601   5.550
 7362POPC   PO439132   5.067  34.626   5.850
 7362POPC   GL139133   5.128  34.623   6.150
 7362POPC   GL239134   5.167  34.508   6.150
 7362POPC   C1A39135   5.071  34.568   6.450
 7362POPC   D2A39136   5.121  34.599   6.750
 7362POPC   C3A39137   5.137  34.551   7.050
 7362POPC   C4A39138   5.092  34.565   7.350
 7362POPC   C1B39139   5.347  34.466   6.450
 7362POPC   C2B39140   5.376  34.463   6.750
 7362POPC   C3B39141   5.363  34.491   7.050
 7362POPC   C4B39142   5.334  34.546   7.350
 7363POPC   NC339143  36.949  28.384   5.550
 7363POPC   PO439144  36.910  28.377   5.850
 7363POPC   GL139145  36.918  28.319   6.150
 7363POPC   GL239146  36.758  28.298   6.150
 7363POPC   C1A39147  36.911  28.407   6.450
 7363POPC   D2A39148  36.932  28.405   6.750
 7363POPC   C3A39149  36.881  28.343   7.050
 7363POPC   C4A39150  36.912  28.338   7.350
 7363POPC   C1B39151  36.687  28.273   6.450
 7363POPC   C2B39152  36.714  28.292   6.750
 7363POPC   C3B39153  36.680  28.244   7.050
 7363POPC   C4B39154  36.705  28.278   7.350
 7364POPC   NC339155   2.814  13.629   5.550
 7364POPC   PO439156   2.797  13.592   5.850
 7364POPC   GL139157   2.782  13.637   6.150
 7364POPC   GL239158   2.906  13.654   6.150
 7364POPC   C1A39159   2.721  13.583   6.450
 7364POPC   D2A39160   2.765  13.604   6.750
 7364POPC   C3A39161   2.723  13.624   7.050
 7364POPC   C4A39162   2.809  13.615   7.350
 7364POPC   C1B39163   2.989  13.633   6.450
 7364POPC   C2B39164   3.064  13.620   6.750
 7364POPC   C3B39165   3.020  13.685   7.050
 7364POPC   C4B39166   2.971  13.680   7.350
 7365POPC   NC339167  18.241  36.884   5.550
 7365POPC   PO439168  18.252  36.869   5.850
 7365POPC   GL139169  18.237  36.943   6.150
 7365POPC   GL239170  18.153  36.997   6.150
 7365POPC   C1A39171  18.291  36.920   6.450
 7365POPC   D2A39172  18.235  36.935   6.750
 7365POPC   C3A39173  18.312  36.900   7.050
 7365POPC   C4A39174  18.268  36.889   7.350
 7365POPC   C1B39175  18.116  37.053   6.450
 7365POPC   C2B39176  18.096  37.039   6.750
 7365POPC   C3B39177  18.099  37.040   7.050
 7365POPC   C4B39178  18.145  37.059   7.350
 7366POPC   NC339179  15.216  17.467   5.550
 7366POPC   PO439180  15.154  17.502   5.850
 7366POPC   GL139181  15.182  17.533   6.150
 7366POPC   GL239182  15.136  17.609   6.150
 7366POPC   C1A39183  15.194  17.504   6.450
 7366POPC   D2A39184  15.223  17.462   6.750
 7366POPC   C3A39185  15.200  17.472   7.050
 7366POPC   C4A39186  15.138  17.473   7.350
 7366POPC   C1B39187  15.121  17.784   6.450
 7366POPC   C2B39188  15.087  17.750   6.750
 7366POPC   C3B39189  15.156  17.749   7.050
 7366POPC   C4B39190  15.073  17.758   7.350
 7367POPC   NC339191  38.455  11.274   5.550
 7367POPC   PO439192  38.455  11.341   5.850
 7367POPC   GL139193  38.410  11.266   6.150
 7367POPC   GL239194  38.581  11.184   6.150
 7367POPC   C1A39195  38.432  11.284   6.450
 7367POPC   D2A39196  38.498  11.255   6.750
 7367POPC   C3A39197  38.419  11.255   7.050
 7367POPC   C4A39198  38.467  11.348   7.350
 7367POPC   C1B39199  38.655  11.142   6.450
 7367POPC   C2B39200  38.701  11.166   6.750
 7367POPC   C3B39201  38.685  11.138   7.050
 7367POPC   C4B39202  38.651  11.145   7.350
 7368POPC   NC339203  17.497   5.094   5.550
 7368POPC   PO439204  17.550   5.093   5.850
 7368POPC   GL139205  17.490   5.089   6.150
 7368POPC   GL239206  17.511   5.215   6.150
 7368POPC   C1A39207  17.498   5.085   6.450
 7368POPC   D2A39208  17.512   5.105   6.750
 7368POPC   C3A39209  17.497   5.139   7.050
 7368POPC   C4A39210  17.485   5.059   7.350
 7368POPC   C1B39211  17.577   5.356   6.450
 7368POPC   C2B39212  17.604   5.326   6.750
 7368POPC   C3B39213  17.533   5.308   7.050
 7368POPC   C4B39214  17.574   5.370   7.350
 7369POPC   NC339215  26.794  38.441   5.550
 7369POPC   PO439216  26.819  38.476   5.850
 7369POPC   GL139217  26.829  38.428   6.150
 7369POPC   GL239218  26.724  38.593   6.150
 7369POPC   C1A39219  26.770  38.455   6.450
 7369POPC   D2A39220  26.797  38.467   6.750
 7369POPC   C3A39221  26.810  38.484   7.050
 7369POPC   C4A39222  26.824  38.469   7.350
 7369POPC   C1B39223  26.717  38.700   6.450
 7369POPC   C2B39224  26.746  38.693   6.750
 7369POPC   C3B39225  26.761  38.710   7.050
 7369POPC   C4B39226  26.679  38.707   7.350
 7370POPC   NC339227  13.660  12.048   5.550
 7370POPC   PO439228  13.640  12.060   5.850
 7370POPC   GL139229  13.579  12.115   6.150
 7370POPC   GL239230  13.735  12.025   6.150
 7370POPC   C1A39231  13.612  12.099   6.450
 7370POPC   D2A39232  13.607  12.097   6.750
 7370POPC   C3A39233  13.588  12.061   7.050
 7370POPC   C4A39234  13.587  12.036   7.350
 7370POPC   C1B39235  13.804  11.879   6.450
 7370POPC   C2B39236  13.782  11.877   6.750
 7370POPC   C3B39237  13.802  11.875   7.050
 7370POPC   C4B39238  13.827  11.919   7.350
 7371POPC   NC339239  12.055   5.105   5.550
 7371POPC   PO439240  12.038   5.100   5.850
 7371POPC   GL139241  12.087   5.092   6.150
 7371POPC   GL239242  12.093   5.206   6.150
 7371POPC   C1A39243  12.101   5.090   6.450
 7371POPC   D2A39244  12.101   5.070   6.750
 7371POPC   C3A39245  12.121   5.121   7.050
 7371POPC   C4A39246  12.120   5.052   7.350
 7371POPC   C1B39247  12.220   5.296   6.450
 7371POPC   C2B39248  12.217   5.340   6.750
 7371POPC   C3B39249  12.166   5.300   7.050
 7371POPC   C4B39250  12.224   5.269   7.350
 7372POPC   NC339251  11.267  28.368   5.550
 7372POPC   PO439252  11.286  28.336   5.850
 7372POPC   GL139253  11.325  28.394   6.150
 7372POPC   GL239254  11.239  28.516   6.150
 7372POPC   C1A39255  11.297  28.344   6.450
 7372POPC   D2A39256  11.312  28.395   6.750
 7372POPC   C3A39257  11.287  28.366   7.050
 7372POPC   C4A39258  11.320  28.338   7.350
 7372POPC   C1B39259  11.186  28.574   6.450
 7372POPC   C2B39260  11.160  28.631   6.750
 7372POPC   C3B39261  11.210  28.601   7.050
 7372POPC   C4B39262  11.208  28.596   7.350
 7373POPC   NC339263   0.395  44.617   5.550
 7373POPC   PO439264   0.444  44.670   5.850
 7373POPC   GL139265   0.466  44.683   6.150
 7373POPC   GL239266   0.569  44.603   6.150
 7373POPC   C1A39267   0.464  44.666   6.450
 7373POPC   D2A39268   0.484  44.709   6.750
 7373POPC   C3A39269   0.432  44.641   7.050
 7373POPC   C4A39270   0.428  44.675   7.350
 7373POPC   C1B39271   0.649  44.465   6.450
 7373POPC   C2B39272   0.586  44.439   6.750
 7373POPC   C3B39273   0.656  44.479   7.050
 7373POPC   C4B39274   0.629  44.468   7.350
 7374POPC   NC339275  15.161  24.466   5.550
 7374POPC   PO439276  15.139  24.516   5.850
 7374POPC   GL139277  15.206  24.473   6.150
 7374POPC   GL239278  15.090  24.538   6.150
 7374POPC   C1A39279  15.132  24.465   6.450
 7374POPC   D2A39280  15.205  24.445   6.750
 7374POPC   C3A39281  15.157  24.519   7.050
 7374POPC   C4A39282  15.177  24.523   7.350
 7374POPC   C1B39283  14.900  24.461   6.450
 7374POPC   C2B39284  14.883  24.543   6.750
 7374POPC   C3B39285  14.944  24.540   7.050
 7374POPC   C4B39286  14.901  24.508   7.350
 7375POPC   NC339287  22.196  10.475   5.550
 7375POPC   PO439288  22.116  10.564   5.850
 7375POPC   GL139289  22.173  10.503   6.150
 7375POPC   GL239290  22.303  10.608   6.150
 7375POPC   C1A39291  22.204  10.503   6.450
 7375POPC   D2A39292  22.191  10.481   6.750
 7375POPC   C3A39293  22.207  10.516   7.050
 7375POPC   C4A39294  22.196  10.509   7.350
 7375POPC   C1B39295  22.442  10.562   6.450
 7375POPC   C2B39296  22.383  10.580   6.750
 7375POPC   C3B39297  22.440  10.598   7.050
 7375POPC   C4B39298  22.354  10.631   7.350
 7376POPC   NC339299  31.460   2.017   5.550
 7376POPC   PO439300  31.454   2.007   5.850
 7376POPC   GL139301  31.445   1.950   6.150
 7376POPC   GL239302  31.375   2.097   6.150
 7376POPC   C1A39303  31.496   1.981   6.450
 7376POPC   D2A39304  31.429   1.953   6.750
 7376POPC   C3A39305  31.507   1.997   7.050
 7376POPC   C4A39306  31.514   2.004   7.350
 7376POPC   C1B39307  31.226   2.120   6.450
 7376POPC   C2B39308  31.221   2.102   6.750
 7376POPC   C3B39309  31.210   2.076   7.050
 7376POPC   C4B39310  31.260   2.147   7.350
 7377POPC   NC339311  43.081  26.012   5.550
 7377POPC   PO439312  43.131  26.015   5.850
 7377POPC   GL139313  43.070  26.001   6.150
 7377POPC   GL239314  43.077  25.904   6.150
 7377POPC   C1A39315  43.074  26.069   6.450
 7377POPC   D2A39316  43.070  26.000   6.750
 7377POPC   C3A39317  43.131  26.077   7.050
 7377POPC   C4A39318  43.154  26.081   7.350
 7377POPC   C1B39319  43.106  25.826   6.450
 7377POPC   C2B39320  43.068  25.747   6.750
 7377POPC   C3B39321  43.083  25.765   7.050
 7377POPC   C4B39322  43.050  25.804   7.350
 7378POPC   NC339323   2.815  36.873   5.550
 7378POPC   PO439324   2.787  36.860   5.850
 7378POPC   GL139325   2.727  36.923   6.150
 7378POPC   GL239326   2.721  37.015   6.150
 7378POPC   C1A39327   2.734  36.890   6.450
 7378POPC   D2A39328   2.734  36.858   6.750
 7378POPC   C3A39329   2.722  36.926   7.050
 7378POPC   C4A39330   2.778  36.901   7.350
 7378POPC   C1B39331   2.696  37.101   6.450
 7378POPC   C2B39332   2.699  37.100   6.750
 7378POPC   C3B39333   2.739  37.101   7.050
 7378POPC   C4B39334   2.732  37.161   7.350
 7379POPC   NC339335  38.425  36.162   5.550
 7379POPC   PO439336  38.448  36.118   5.850
 7379POPC   GL139337  38.453  36.152   6.150
 7379POPC   GL239338  38.415  36.002   6.150
 7379POPC   C1A39339  38.431  36.139   6.450
 7379POPC   D2A39340  38.406  36.091   6.750
 7379POPC   C3A39341  38.439  36.153   7.050
 7379POPC   C4A39342  38.439  36.156   7.350
 7379POPC   C1B39343  38.268  35.895   6.450
 7379POPC   C2B39344  38.306  35.920   6.750
 7379POPC   C3B39345  38.270  35.956   7.050
 7379POPC   C4B39346  38.348  35.962   7.350
 7380POPC   NC339347  31.483  26.796   5.550
 7380POPC   PO439348  31.502  26.841   5.850
 7380POPC   GL139349  31.515  26.805   6.150
 7380POPC   GL239350  31.498  26.732   6.150
 7380POPC   C1A39351  31.497  26.817   6.450
 7380POPC   D2A39352  31.458  26.866   6.750
 7380POPC   C3A39353  31.434  26.786   7.050
 7380POPC   C4A39354  31.519  26.828   7.350
 7380POPC   C1B39355  31.639  26.578   6.450
 7380POPC   C2B39356  31.598  26.598   6.750
 7380POPC   C3B39357  31.554  26.612   7.050
 7380POPC   C4B39358  31.624  26.605   7.350
 7381POPC   NC339359  29.880  24.537   5.550
 7381POPC   PO439360  29.944  24.518   5.850
 7381POPC   GL139361  29.912  24.497   6.150
 7381POPC   GL239362  29.978  24.519   6.150
 7381POPC   C1A39363  29.914  24.494   6.450
 7381POPC   D2A39364  29.872  24.460   6.750
 7381POPC   C3A39365  29.908  24.492   7.050
 7381POPC   C4A39366  29.928  24.452   7.350
 7381POPC   C1B39367  30.101  24.605   6.450
 7381POPC   C2B39368  30.070  24.598   6.750
 7381POPC   C3B39369  30.161  24.690   7.050
 7381POPC   C4B39370  30.136  24.681   7.350
 7382POPC   NC339371  17.543  29.176   5.550
 7382POPC   PO439372  17.464  29.165   5.850
 7382POPC   GL139373  17.508  29.186   6.150
 7382POPC   GL239374  17.433  29.149   6.150
 7382POPC   C1A39375  17.535  29.156   6.450
 7382POPC   D2A39376  17.516  29.111   6.750
 7382POPC   C3A39377  17.543  29.142   7.050
 7382POPC   C4A39378  17.493  29.119   7.350
 7382POPC   C1B39379  17.291  29.278   6.450
 7382POPC   C2B39380  17.300  29.237   6.750
 7382POPC   C3B39381  17.262  29.247   7.050
 7382POPC   C4B39382  17.301  29.188   7.350
 7383POPC   NC339383  43.077  29.115   5.550
 7383POPC   PO439384  43.138  29.186   5.850
 7383POPC   GL139385  43.150  29.150   6.150
 7383POPC   GL239386  43.026  29.136   6.150
 7383POPC   C1A39387  43.156  29.139   6.450
 7383POPC   D2A39388  43.096  29.190   6.750
 7383POPC   C3A39389  43.115  29.134   7.050
 7383POPC   C4A39390  43.134  29.124   7.350
 7383POPC   C1B39391  42.906  29.079   6.450
 7383POPC   C2B39392  42.853  29.118   6.750
 7383POPC   C3B39393  42.827  29.102   7.050
 7383POPC   C4B39394  42.900  29.086   7.350
 7384POPC   NC339395   1.252  15.184   5.550
 7384POPC   PO439396   1.217  15.133   5.850
 7384POPC   GL139397   1.243  15.149   6.150
 7384POPC   GL239398   1.116  15.114   6.150
 7384POPC   C1A39399   1.242  15.159   6.450
 7384POPC   D2A39400   1.228  15.225   6.750
 7384POPC   C3A39401   1.236  15.169   7.050
 7384POPC   C4A39402   1.177  15.147   7.350
 7384POPC   C1B39403   0.999  15.089   6.450
 7384POPC   C2B39404   0.961  15.050   6.750
 7384POPC   C3B39405   0.985  15.054   7.050
 7384POPC   C4B39406   0.966  15.086   7.350
 7385POPC   NC339407  41.562  18.257   5.550
 7385POPC   PO439408  41.597  18.251   5.850
 7385POPC   GL139409  41.600  18.257   6.150
 7385POPC   GL239410  41.580  18.147   6.150
 7385POPC   C1A39411  41.536  18.298   6.450
 7385POPC   D2A39412  41.523  18.239   6.750
 7385POPC   C3A39413  41.558  18.240   7.050
 7385POPC   C4A39414  41.520  18.295   7.350
 7385POPC   C1B39415  41.516  18.041   6.450
 7385POPC   C2B39416  41.585  17.994   6.750
 7385POPC   C3B39417  41.523  18.044   7.050
 7385POPC   C4B39418  41.561  18.006   7.350
 7386POPC   NC339419  29.947  33.045   5.550
 7386POPC   PO439420  29.966  33.008   5.850
 7386POPC   GL139421  29.944  33.009   6.150
 7386POPC   GL239422  29.780  33.001   6.150
 7386POPC   C1A39423  29.899  33.033   6.450
 7386POPC   D2A39424  29.940  32.999   6.750
 7386POPC   C3A39425  29.961  33.019   7.050
 7386POPC   C4A39426  29.937  33.035   7.350
 7386POPC   C1B39427  29.643  33.007   6.450
 7386POPC   C2B39428  29.632  33.022   6.750
 7386POPC   C3B39429  29.688  33.002   7.050
 7386POPC   C4B39430  29.657  33.027   7.350
 7387POPC   NC339431   5.912  33.069   5.550
 7387POPC   PO439432   5.823  33.036   5.850
 7387POPC   GL139433   5.906  33.028   6.150
 7387POPC   GL239434   6.021  33.016   6.150
 7387POPC   C1A39435   5.836  33.052   6.450
 7387POPC   D2A39436   5.829  33.018   6.750
 7387POPC   C3A39437   5.876  33.003   7.050
 7387POPC   C4A39438   5.857  32.990   7.350
 7387POPC   C1B39439   6.147  33.090   6.450
 7387POPC   C2B39440   6.146  33.085   6.750
 7387POPC   C3B39441   6.138  33.125   7.050
 7387POPC   C4B39442   6.120  33.099   7.350
 7388POPC   NC339443  12.873  33.836   5.550
 7388POPC   PO439444  12.876  33.791   5.850
 7388POPC   GL139445  12.820  33.849   6.150
 7388POPC   GL239446  12.934  33.832   6.150
 7388POPC   C1A39447  12.900  33.752   6.450
 7388POPC   D2A39448  12.861  33.773   6.750
 7388POPC   C3A39449  12.808  33.761   7.050
 7388POPC   C4A39450  12.876  33.803   7.350
 7388POPC   C1B39451  13.116  33.759   6.450
 7388POPC   C2B39452  13.134  33.852   6.750
 7388POPC   C3B39453  13.129  33.833   7.050
 7388POPC   C4B39454  13.137  33.808   7.350
 7389POPC   NC339455  36.857   1.227   5.550
 7389POPC   PO439456  36.925   1.185   5.850
 7389POPC   GL139457  36.872   1.261   6.150
 7389POPC   GL239458  36.793   1.198   6.150
 7389POPC   C1A39459  36.879   1.234   6.450
 7389POPC   D2A39460  36.889   1.197   6.750
 7389POPC   C3A39461  36.901   1.249   7.050
 7389POPC   C4A39462  36.930   1.176   7.350
 7389POPC   C1B39463  36.657   1.185   6.450
 7389POPC   C2B39464  36.645   1.194   6.750
 7389POPC   C3B39465  36.627   1.202   7.050
 7389POPC   C4B39466  36.658   1.172   7.350
 7390POPC   NC339467   8.953   8.240   5.550
 7390POPC   PO439468   8.997   8.181   5.850
 7390POPC   GL139469   9.017   8.168   6.150
 7390POPC   GL239470   9.065   8.262   6.150
 7390POPC   C1A39471   8.992   8.205   6.450
 7390POPC   D2A39472   8.936   8.233   6.750
 7390POPC   C3A39473   8.995   8.192   7.050
 7390POPC   C4A39474   9.005   8.216   7.350
 7390POPC   C1B39475   9.209   8.311   6.450
 7390POPC   C2B39476   9.237   8.277   6.750
 7390POPC   C3B39477   9.225   8.246   7.050
 7390POPC   C4B39478   9.172   8.312   7.350
 7391POPC   NC339479  26.036  32.288   5.550
 7391POPC   PO439480  26.004  32.277   5.850
 7391POPC   GL139481  26.041  32.228   6.150
 7391POPC   GL239482  25.961  32.214   6.150
 7391POPC   C1A39483  26.082  32.241   6.450
 7391POPC   D2A39484  26.016  32.262   6.750
 7391POPC   C3A39485  26.067  32.217   7.050
 7391POPC   C4A39486  26.033  32.266   7.350
 7391POPC   C1B39487  25.857  32.114   6.450
 7391POPC   C2B39488  25.838  32.130   6.750
 7391POPC   C3B39489  25.849  32.091   7.050
 7391POPC   C4B39490  25.822  32.125   7.350
 7392POPC   NC339491   1.215   6.607   5.550
 7392POPC   PO439492   1.222   6.673   5.850
 7392POPC   GL139493   1.223   6.658   6.150
 7392POPC   GL239494   1.180   6.769   6.150
 7392POPC   C1A39495   1.256   6.608   6.450
 7392POPC   D2A39496   1.213   6.658   6.750
 7392POPC   C3A39497   1.238   6.679   7.050
 7392POPC   C4A39498   1.200   6.674   7.350
 7392POPC   C1B39499   1.033   6.815   6.450
 7392POPC   C2B39500   1.081   6.885   6.750
 7392POPC   C3B39501   1.077   6.856   7.050
 7392POPC   C4B39502   1.063   6.884   7.350
 7393POPC   NC339503  42.285  40.807   5.550
 7393POPC   PO439504  42.330  40.784   5.850
 7393POPC   GL139505  42.326  40.736   6.150
 7393POPC   GL239506  42.447  40.778   6.150
 7393POPC   C1A39507  42.363  40.745   6.450
 7393POPC   D2A39508  42.306  40.785   6.750
 7393POPC   C3A39509  42.330  40.753   7.050
 7393POPC   C4A39510  42.354  40.765   7.350
 7393POPC   C1B39511  42.559  40.707   6.450
 7393POPC   C2B39512  42.560  40.752   6.750
 7393POPC   C3B39513  42.573  40.723   7.050
 7393POPC   C4B39514  42.561  40.740   7.350
 7394POPC   NC339515  23.677   8.204   5.550
 7394POPC   PO439516  23.687   8.164   5.850
 7394POPC   GL139517  23.687   8.176   6.150
 7394POPC   GL239518  23.611   8.089   6.150
 7394POPC   C1A39519  23.685   8.208   6.450
 7394POPC   D2A39520  23.717   8.241   6.750
 7394POPC   C3A39521  23.709   8.226   7.050
 7394POPC   C4A39522  23.723   8.220   7.350
 7394POPC   C1B39523  23.515   8.095   6.450
 7394POPC   C2B39524  23.488   8.103   6.750
 7394POPC   C3B39525  23.545   8.024   7.050
 7394POPC   C4B39526  23.498   8.079   7.350
 7395POPC   NC339527  22.183  14.373   5.550
 7395POPC   PO439528  22.141  14.451   5.850
 7395POPC   GL139529  22.123  14.405   6.150
 7395POPC   GL239530  22.186  14.310   6.150
 7395POPC   C1A39531  22.186  14.452   6.450
 7395POPC   D2A39532  22.198  14.376   6.750
 7395POPC   C3A39533  22.113  14.414   7.050
 7395POPC   C4A39534  22.163  14.382   7.350
 7395POPC   C1B39535  22.165  14.163   6.450
 7395POPC   C2B39536  22.191  14.172   6.750
 7395POPC   C3B39537  22.167  14.126   7.050
 7395POPC   C4B39538  22.236  14.159   7.350
 7396POPC   NC339539  22.144  33.056   5.550
 7396POPC   PO439540  22.168  32.983   5.850
 7396POPC   GL139541  22.191  33.060   6.150
 7396POPC   GL239542  22.253  32.937   6.150
 7396POPC   C1A39543  22.137  33.027   6.450
 7396POPC   D2A39544  22.116  33.032   6.750
 7396POPC   C3A39545  22.149  32.996   7.050
 7396POPC   C4A39546  22.139  33.013   7.350
 7396POPC   C1B39547  22.410  32.894   6.450
 7396POPC   C2B39548  22.388  32.961   6.750
 7396POPC   C3B39549  22.383  32.962   7.050
 7396POPC   C4B39550  22.383  32.958   7.350
 7397POPC   NC339551   3.580  36.857   5.550
 7397POPC   PO439552   3.544  36.874   5.850
 7397POPC   GL139553   3.526  36.938   6.150
 7397POPC   GL239554   3.670  36.807   6.150
 7397POPC   C1A39555   3.528  36.901   6.450
 7397POPC   D2A39556   3.537  36.924   6.750
 7397POPC   C3A39557   3.494  36.925   7.050
 7397POPC   C4A39558   3.590  36.914   7.350
 7397POPC   C1B39559   3.698  36.730   6.450
 7397POPC   C2B39560   3.768  36.762   6.750
 7397POPC   C3B39561   3.733  36.713   7.050
 7397POPC   C4B39562   3.702  36.713   7.350
 7398POPC   NC339563  38.435  37.642   5.550
 7398POPC   PO439564  38.467  37.716   5.850
 7398POPC   GL139565  38.481  37.688   6.150
 7398POPC   GL239566  38.337  37.702   6.150
 7398POPC   C1A39567  38.429  37.724   6.450
 7398POPC   D2A39568  38.492  37.708   6.750
 7398POPC   C3A39569  38.470  37.647   7.050
 7398POPC   C4A39570  38.419  37.670   7.350
 7398POPC   C1B39571  38.165  37.597   6.450
 7398POPC   C2B39572  38.238  37.592   6.750
 7398POPC   C3B39573  38.218  37.606   7.050
 7398POPC   C4B39574  38.236  37.617   7.350
 7399POPC   NC339575  26.773   5.137   5.550
 7399POPC   PO439576  26.778   5.107   5.850
 7399POPC   GL139577  26.843   5.127   6.150
 7399POPC   GL239578  26.942   5.236   6.150
 7399POPC   C1A39579  26.849   5.097   6.450
 7399POPC   D2A39580  26.822   5.115   6.750
 7399POPC   C3A39581  26.866   5.046   7.050
 7399POPC   C4A39582  26.808   5.098   7.350
 7399POPC   C1B39583  27.001   5.319   6.450
 7399POPC   C2B39584  26.978   5.295   6.750
 7399POPC   C3B39585  26.967   5.304   7.050
 7399POPC   C4B39586  27.014   5.241   7.350
 7400POPC   NC339587  42.303   1.192   5.550
 7400POPC   PO439588  42.320   1.244   5.850
 7400POPC   GL139589  42.324   1.206   6.150
 7400POPC   GL239590  42.453   1.115   6.150
 7400POPC   C1A39591  42.337   1.192   6.450
 7400POPC   D2A39592  42.374   1.221   6.750
 7400POPC   C3A39593  42.292   1.192   7.050
 7400POPC   C4A39594  42.346   1.263   7.350
 7400POPC   C1B39595  42.533   1.045   6.450
 7400POPC   C2B39596  42.476   1.056   6.750
 7400POPC   C3B39597  42.536   1.021   7.050
 7400POPC   C4B39598  42.514   1.004   7.350
 7401POPC   NC339599  21.419  30.694   5.550
 7401POPC   PO439600  21.377  30.675   5.850
 7401POPC   GL139601  21.410  30.662   6.150
 7401POPC   GL239602  21.219  30.685   6.150
 7401POPC   C1A39603  21.359  30.693   6.450
 7401POPC   D2A39604  21.367  30.710   6.750
 7401POPC   C3A39605  21.366  30.674   7.050
 7401POPC   C4A39606  21.422  30.677   7.350
 7401POPC   C1B39607  21.107  30.597   6.450
 7401POPC   C2B39608  21.110  30.602   6.750
 7401POPC   C3B39609  21.137  30.615   7.050
 7401POPC   C4B39610  21.159  30.605   7.350
 7402POPC   NC339611  29.927  33.849   5.550
 7402POPC   PO439612  29.942  33.762   5.850
 7402POPC   GL139613  29.893  33.765   6.150
 7402POPC   GL239614  29.895  33.902   6.150
 7402POPC   C1A39615  29.907  33.843   6.450
 7402POPC   D2A39616  29.959  33.826   6.750
 7402POPC   C3A39617  29.895  33.825   7.050
 7402POPC   C4A39618  29.889  33.759   7.350
 7402POPC   C1B39619  29.810  33.996   6.450
 7402POPC   C2B39620  29.803  33.980   6.750
 7402POPC   C3B39621  29.810  34.043   7.050
 7402POPC   C4B39622  29.768  33.973   7.350
 7403POPC   NC339623  12.120  27.636   5.550
 7403POPC   PO439624  12.117  27.603   5.850
 7403POPC   GL139625  12.085  27.616   6.150
 7403POPC   GL239626  11.949  27.702   6.150
 7403POPC   C1A39627  12.049  27.567   6.450
 7403POPC   D2A39628  12.038  27.623   6.750
 7403POPC   C3A39629  12.114  27.560   7.050
 7403POPC   C4A39630  12.055  27.641   7.350
 7403POPC   C1B39631  11.828  27.707   6.450
 7403POPC   C2B39632  11.856  27.708   6.750
 7403POPC   C3B39633  11.915  27.744   7.050
 7403POPC   C4B39634  11.876  27.700   7.350
 7404POPC   NC339635  12.066  44.641   5.550
 7404POPC   PO439636  12.046  44.687   5.850
 7404POPC   GL139637  12.061  44.691   6.150
 7404POPC   GL239638  11.934  44.736   6.150
 7404POPC   C1A39639  12.115  44.672   6.450
 7404POPC   D2A39640  12.103  44.642   6.750
 7404POPC   C3A39641  12.041  44.698   7.050
 7404POPC   C4A39642  12.083  44.701   7.350
 7404POPC   C1B39643  11.907  44.804   6.450
 7404POPC   C2B39644  11.914  44.863   6.750
 7404POPC   C3B39645  11.857  44.845   7.050
 7404POPC   C4B39646  11.851  44.843   7.350
 7405POPC   NC339647   0.401   8.938   5.550
 7405POPC   PO439648   0.450   8.975   5.850
 7405POPC   GL139649   0.484   8.983   6.150
 7405POPC   GL239650   0.368   9.128   6.150
 7405POPC   C1A39651   0.429   9.002   6.450
 7405POPC   D2A39652   0.396   8.970   6.750
 7405POPC   C3A39653   0.440   8.951   7.050
 7405POPC   C4A39654   0.405   8.948   7.350
 7405POPC   C1B39655   0.354   9.219   6.450
 7405POPC   C2B39656   0.276   9.156   6.750
 7405POPC   C3B39657   0.299   9.211   7.050
 7405POPC   C4B39658   0.322   9.192   7.350
 7406POPC   NC339659  26.008  41.546   5.550
 7406POPC   PO439660  26.039  41.556   5.850
 7406POPC   GL139661  26.028  41.521   6.150
 7406POPC   GL239662  26.143  41.515   6.150
 7406POPC   C1A39663  26.029  41.558   6.450
 7406POPC   D2A39664  26.062  41.516   6.750
 7406POPC   C3A39665  26.057  41.520   7.050
 7406POPC   C4A39666  26.049  41.564   7.350
 7406POPC   C1B39667  26.175  41.337   6.450
 7406POPC   C2B39668  26.230  41.384   6.750
 7406POPC   C3B39669  26.245  41.413   7.050
 7406POPC   C4B39670  26.178  41.340   7.350
 7407POPC   NC339671  29.957  13.647   5.550
 7407POPC   PO439672  29.891  13.647   5.850
 7407POPC   GL139673  29.924  13.651   6.150
 7407POPC   GL239674  29.971  13.663   6.150
 7407POPC   C1A39675  29.963  13.669   6.450
 7407POPC   D2A39676  29.940  13.630   6.750
 7407POPC   C3A39677  29.935  13.667   7.050
 7407POPC   C4A39678  29.875  13.637   7.350
 7407POPC   C1B39679  30.115  13.769   6.450
 7407POPC   C2B39680  30.119  13.807   6.750
 7407POPC   C3B39681  30.078  13.739   7.050
 7407POPC   C4B39682  30.157  13.754   7.350
 7408POPC   NC339683   1.181  38.491   5.550
 7408POPC   PO439684   1.171  38.453   5.850
 7408POPC   GL139685   1.214  38.495   6.150
 7408POPC   GL239686   1.322  38.401   6.150
 7408POPC   C1A39687   1.164  38.464   6.450
 7408POPC   D2A39688   1.192  38.437   6.750
 7408POPC   C3A39689   1.210  38.419   7.050
 7408POPC   C4A39690   1.229  38.437   7.350
 7408POPC   C1B39691   1.472  38.428   6.450
 7408POPC   C2B39692   1.453  38.419   6.750
 7408POPC   C3B39693   1.475  38.374   7.050
 7408POPC   C4B39694   1.423  38.387   7.350
 7409POPC   NC339695  40.825   9.767   5.550
 7409POPC   PO439696  40.790   9.767   5.850
 7409POPC   GL139697  40.820   9.741   6.150
 7409POPC   GL239698  40.706   9.818   6.150
 7409POPC   C1A39699  40.779   9.748   6.450
 7409POPC   D2A39700  40.778   9.755   6.750
 7409POPC   C3A39701  40.768   9.765   7.050
 7409POPC   C4A39702  40.830   9.711   7.350
 7409POPC   C1B39703  40.556   9.807   6.450
 7409POPC   C2B39704  40.490   9.798   6.750
 7409POPC   C3B39705  40.551   9.837   7.050
 7409POPC   C4B39706  40.572   9.822   7.350
 7410POPC   NC339707  43.076  28.354   5.550
 7410POPC   PO439708  43.127  28.387   5.850
 7410POPC   GL139709  43.133  28.363   6.150
 7410POPC   GL239710  43.174  28.402   6.150
 7410POPC   C1A39711  43.122  28.418   6.450
 7410POPC   D2A39712  43.071  28.403   6.750
 7410POPC   C3A39713  43.063  28.401   7.050
 7410POPC   C4A39714  43.158  28.382   7.350
 7410POPC   C1B39715  43.361  28.538   6.450
 7410POPC   C2B39716  43.297  28.477   6.750
 7410POPC   C3B39717  43.277  28.493   7.050
 7410POPC   C4B39718  43.267  28.493   7.350
 7411POPC   NC339719  14.444  24.484   5.550
 7411POPC   PO439720  14.370  24.487   5.850
 7411POPC   GL139721  14.388  24.514   6.150
 7411POPC   GL239722  14.528  24.559   6.150
 7411POPC   C1A39723  14.417  24.495   6.450
 7411POPC   D2A39724  14.405  24.442   6.750
 7411POPC   C3A39725  14.421  24.539   7.050
 7411POPC   C4A39726  14.376  24.525   7.350
 7411POPC   C1B39727  14.684  24.525   6.450
 7411POPC   C2B39728  14.596  24.546   6.750
 7411POPC   C3B39729  14.621  24.570   7.050
 7411POPC   C4B39730  14.627  24.573   7.350
 7412POPC   NC339731  32.986   1.221   5.550
 7412POPC   PO439732  33.041   1.191   5.850
 7412POPC   GL139733  33.056   1.213   6.150
 7412POPC   GL239734  32.943   1.256   6.150
 7412POPC   C1A39735  33.040   1.234   6.450
 7412POPC   D2A39736  32.988   1.180   6.750
 7412POPC   C3A39737  33.032   1.228   7.050
 7412POPC   C4A39738  33.073   1.255   7.350
 7412POPC   C1B39739  32.847   1.401   6.450
 7412POPC   C2B39740  32.857   1.429   6.750
 7412POPC   C3B39741  32.814   1.356   7.050
 7412POPC   C4B39742  32.834   1.348   7.350
 7413POPC   NC339743  29.923  28.329   5.550
 7413POPC   PO439744  29.873  28.359   5.850
 7413POPC   GL139745  29.964  28.323   6.150
 7413POPC   GL239746  29.783  28.288   6.150
 7413POPC   C1A39747  29.877  28.342   6.450
 7413POPC   D2A39748  29.925  28.402   6.750
 7413POPC   C3A39749  29.909  28.399   7.050
 7413POPC   C4A39750  29.919  28.408   7.350
 7413POPC   C1B39751  29.668  28.247   6.450
 7413POPC   C2B39752  29.656  28.280   6.750
 7413POPC   C3B39753  29.716  28.222   7.050
 7413POPC   C4B39754  29.648  28.284   7.350
 7414POPC   NC339755  15.967  29.122   5.550
 7414POPC   PO439756  15.915  29.193   5.850
 7414POPC   GL139757  15.909  29.174   6.150
 7414POPC   GL239758  16.018  29.240   6.150
 7414POPC   C1A39759  15.983  29.126   6.450
 7414POPC   D2A39760  15.975  29.195   6.750
 7414POPC   C3A39761  15.920  29.172   7.050
 7414POPC   C4A39762  15.971  29.155   7.350
 7414POPC   C1B39763  16.127  29.348   6.450
 7414POPC   C2B39764  16.140  29.376   6.750
 7414POPC   C3B39765  16.131  29.368   7.050
 7414POPC   C4B39766  16.090  29.338   7.350
 7415POPC   NC339767   4.341  44.670   5.550
 7415POPC   PO439768   4.337  44.684   5.850
 7415POPC   GL139769   4.288  44.639   6.150
 7415POPC   GL239770   4.346  44.540   6.150
 7415POPC   C1A39771   4.317  44.696   6.450
 7415POPC   D2A39772   4.310  44.664   6.750
 7415POPC   C3A39773   4.305  44.639   7.050
 7415POPC   C4A39774   4.329  44.710   7.350
 7415POPC   C1B39775   4.254  44.388   6.450
 7415POPC   C2B39776   4.261  44.412   6.750
 7415POPC   C3B39777   4.255  44.452   7.050
 7415POPC   C4B39778   4.266  44.391   7.350
 7416POPC   NC339779   6.621  29.178   5.550
 7416POPC   PO439780   6.662  29.191   5.850
 7416POPC   GL139781   6.597  29.108   6.150
 7416POPC   GL239782   6.732  29.121   6.150
 7416POPC   C1A39783   6.684  29.102   6.450
 7416POPC   D2A39784   6.621  29.194   6.750
 7416POPC   C3A39785   6.653  29.149   7.050
 7416POPC   C4A39786   6.612  29.133   7.350
 7416POPC   C1B39787   6.823  29.000   6.450
 7416POPC   C2B39788   6.880  28.968   6.750
 7416POPC   C3B39789   6.855  29.033   7.050
 7416POPC   C4B39790   6.875  29.055   7.350
 7417POPC   NC339791  34.570   2.024   5.550
 7417POPC   PO439792  34.550   2.022   5.850
 7417POPC   GL139793  34.592   2.036   6.150
 7417POPC   GL239794  34.442   2.016   6.150
 7417POPC   C1A39795  34.607   1.993   6.450
 7417POPC   D2A39796  34.617   1.971   6.750
 7417POPC   C3A39797  34.624   2.030   7.050
 7417POPC   C4A39798  34.572   1.996   7.350
 7417POPC   C1B39799  34.328   2.113   6.450
 7417POPC   C2B39800  34.308   2.051   6.750
 7417POPC   C3B39801  34.302   2.091   7.050
 7417POPC   C4B39802  34.313   2.057   7.350
 7418POPC   NC339803  11.311  33.772   5.550
 7418POPC   PO439804  11.254  33.844   5.850
 7418POPC   GL139805  11.297  33.837   6.150
 7418POPC   GL239806  11.271  33.664   6.150
 7418POPC   C1A39807  11.345  33.762   6.450
 7418POPC   D2A39808  11.307  33.840   6.750
 7418POPC   C3A39809  11.318  33.834   7.050
 7418POPC   C4A39810  11.309  33.750   7.350
 7418POPC   C1B39811  11.095  33.634   6.450
 7418POPC   C2B39812  11.135  33.618   6.750
 7418POPC   C3B39813  11.151  33.640   7.050
 7418POPC   C4B39814  11.131  33.584   7.350
 7419POPC   NC339815  22.181  12.090   5.550
 7419POPC   PO439816  22.184  12.039   5.850
 7419POPC   GL139817  22.125  12.108   6.150
 7419POPC   GL239818  22.245  12.114   6.150
 7419POPC   C1A39819  22.129  12.058   6.450
 7419POPC   D2A39820  22.161  12.027   6.750
 7419POPC   C3A39821  22.152  12.074   7.050
 7419POPC   C4A39822  22.171  12.071   7.350
 7419POPC   C1B39823  22.369  12.259   6.450
 7419POPC   C2B39824  22.407  12.211   6.750
 7419POPC   C3B39825  22.405  12.219   7.050
 7419POPC   C4B39826  22.385  12.275   7.350
 7420POPC   NC339827   8.986  32.987   5.550
 7420POPC   PO439828   8.939  33.013   5.850
 7420POPC   GL139829   9.011  33.034   6.150
 7420POPC   GL239830   9.064  33.113   6.150
 7420POPC   C1A39831   9.000  32.978   6.450
 7420POPC   D2A39832   8.961  33.061   6.750
 7420POPC   C3A39833   8.958  33.036   7.050
 7420POPC   C4A39834   8.979  32.985   7.350
 7420POPC   C1B39835   9.190  33.236   6.450
 7420POPC   C2B39836   9.124  33.159   6.750
 7420POPC   C3B39837   9.130  33.223   7.050
 7420POPC   C4B39838   9.198  33.152   7.350
 7421POPC   NC339839   8.924  15.144   5.550
 7421POPC   PO439840   8.952  15.177   5.850
 7421POPC   GL139841   8.939  15.189   6.150
 7421POPC   GL239842   9.024  15.028   6.150
 7421POPC   C1A39843   8.959  15.173   6.450
 7421POPC   D2A39844   8.948  15.134   6.750
 7421POPC   C3A39845   8.984  15.167   7.050
 7421POPC   C4A39846   8.925  15.212   7.350
 7421POPC   C1B39847   9.046  14.897   6.450
 7421POPC   C2B39848   9.017  14.955   6.750
 7421POPC   C3B39849   9.035  14.965   7.050
 7421POPC   C4B39850   9.051  14.886   7.350
 7422POPC   NC339851  39.247  27.556   5.550
 7422POPC   PO439852  39.256  27.585   5.850
 7422POPC   GL139853  39.238  27.573   6.150
 7422POPC   GL239854  39.240  27.516   6.150
 7422POPC   C1A39855  39.181  27.622   6.450
 7422POPC   D2A39856  39.194  27.599   6.750
 7422POPC   C3A39857  39.270  27.622   7.050
 7422POPC   C4A39858  39.213  27.603   7.350
 7422POPC   C1B39859  39.356  27.355   6.450
 7422POPC   C2B39860  39.299  27.350   6.750
 7422POPC   C3B39861  39.359  27.393   7.050
 7422POPC   C4B39862  39.360  27.391   7.350
 7423POPC   NC339863   0.403  43.926   5.550
 7423POPC   PO439864   0.435  43.930   5.850
 7423POPC   GL139865   0.446  43.920   6.150
 7423POPC   GL239866   0.319  43.941   6.150
 7423POPC   C1A39867   0.446  43.872   6.450
 7423POPC   D2A39868   0.486  43.886   6.750
 7423POPC   C3A39869   0.457  43.922   7.050
 7423POPC   C4A39870   0.406  43.859   7.350
 7423POPC   C1B39871   0.269  44.126   6.450
 7423POPC   C2B39872   0.322  44.132   6.750
 7423POPC   C3B39873   0.333  44.059   7.050
 7423POPC   C4B39874   0.261  44.111   7.350
 7424POPC   NC339875  33.753  42.342   5.550
 7424POPC   PO439876  33.811  42.377   5.850
 7424POPC   GL139877  33.838  42.346   6.150
 7424POPC   GL239878  33.848  42.193   6.150
 7424POPC   C1A39879  33.843  42.366   6.450
 7424POPC   D2A39880  33.775  42.320   6.750
 7424POPC   C3A39881  33.784  42.376   7.050
 7424POPC   C4A39882  33.770  42.377   7.350
 7424POPC   C1B39883  33.961  42.133   6.450
 7424POPC   C2B39884  33.950  42.165   6.750
 7424POPC   C3B39885  33.972  42.138   7.050
 7424POPC   C4B39886  33.967  42.124   7.350
 7425POPC   NC339887  28.364  44.710   5.550
 7425POPC   PO439888  28.376  44.665   5.850
 7425POPC   GL139889  28.341  44.663   6.150
 7425POPC   GL239890  28.375  44.488   6.150
 7425POPC   C1A39891  28.400  44.650   6.450
 7425POPC   D2A39892  28.411  44.636   6.750
 7425POPC   C3A39893  28.364  44.652   7.050
 7425POPC   C4A39894  28.338  44.694   7.350
 7425POPC   C1B39895  28.348  44.425   6.450
 7425POPC   C2B39896  28.384  44.455   6.750
 7425POPC   C3B39897  28.395  44.384   7.050
 7425POPC   C4B39898  28.367  44.390   7.350
 7426POPC   NC339899  30.676  37.671   5.550
 7426POPC   PO439900  30.648  37.726   5.850
 7426POPC   GL139901  30.740  37.682   6.150
 7426POPC   GL239902  30.718  37.527   6.150
 7426POPC   C1A39903  30.650  37.649   6.450
 7426POPC   D2A39904  30.673  37.644   6.750
 7426POPC   C3A39905  30.723  37.690   7.050
 7426POPC   C4A39906  30.740  37.658   7.350
 7426POPC   C1B39907  30.672  37.465   6.450
 7426POPC   C2B39908  30.725  37.422   6.750
 7426POPC   C3B39909  30.645  37.407   7.050
 7426POPC   C4B39910  30.700  37.452   7.350
 7427POPC   NC339911  43.853  29.153   5.550
 7427POPC   PO439912  43.932  29.170   5.850
 7427POPC   GL139913  43.888  29.148   6.150
 7427POPC   GL239914  43.884  29.003   6.150
 7427POPC   C1A39915  43.849  29.131   6.450
 7427POPC   D2A39916  43.893  29.095   6.750
 7427POPC   C3A39917  43.931  29.138   7.050
 7427POPC   C4A39918  43.934  29.181   7.350
 7427POPC   C1B39919  43.813  28.861   6.450
 7427POPC   C2B39920  43.901  28.867   6.750
 7427POPC   C3B39921  43.843  28.915   7.050
 7427POPC   C4B39922  43.844  28.932   7.350
 7428POPC   NC339923   9.008  29.927   5.550
 7428POPC   PO439924   8.946  29.914   5.850
 7428POPC   GL139925   8.980  29.897   6.150
 7428POPC   GL239926   9.076  29.860   6.150
 7428POPC   C1A39927   8.975  29.916   6.450
 7428POPC   D2A39928   8.990  29.946   6.750
 7428POPC   C3A39929   9.004  29.912   7.050
 7428POPC   C4A39930   8.987  29.887   7.350
 7428POPC   C1B39931   9.111  29.745   6.450
 7428POPC   C2B39932   9.119  29.728   6.750
 7428POPC   C3B39933   9.181  29.719   7.050
 7428POPC   C4B39934   9.113  29.732   7.350
 7429POPC   NC339935  11.327   6.654   5.550
 7429POPC   PO439936  11.336   6.673   5.850
 7429POPC   GL139937  11.271   6.626   6.150
 7429POPC   GL239938  11.163   6.610   6.150
 7429POPC   C1A39939  11.347   6.631   6.450
 7429POPC   D2A39940  11.287   6.613   6.750
 7429POPC   C3A39941  11.270   6.671   7.050
 7429POPC   C4A39942  11.347   6.644   7.350
 7429POPC   C1B39943  11.116   6.549   6.450
 7429POPC   C2B39944  11.056   6.569   6.750
 7429POPC   C3B39945  11.033   6.516   7.050
 7429POPC   C4B39946  11.118   6.538   7.350
 7430POPC   NC339947  26.858  24.493   5.550
 7430POPC   PO439948  26.807  24.501   5.850
 7430POPC   GL139949  26.863  24.444   6.150
 7430POPC   GL239950  26.938  24.585   6.150
 7430POPC   C1A39951  26.853  24.526   6.450
 7430POPC   D2A39952  26.834  24.448   6.750
 7430POPC   C3A39953  26.790  24.537   7.050
 7430POPC   C4A39954  26.840  24.525   7.350
 7430POPC   C1B39955  27.008  24.652   6.450
 7430POPC   C2B39956  26.968  24.652   6.750
 7430POPC   C3B39957  27.021  24.690   7.050
 7430POPC   C4B39958  27.024  24.689   7.350
 7431POPC   NC339959  22.941   1.199   5.550
 7431POPC   PO439960  22.972   1.245   5.850
 7431POPC   GL139961  22.947   1.230   6.150
 7431POPC   GL239962  22.882   1.090   6.150
 7431POPC   C1A39963  22.951   1.238   6.450
 7431POPC   D2A39964  22.948   1.169   6.750
 7431POPC   C3A39965  22.962   1.208   7.050
 7431POPC   C4A39966  22.889   1.183   7.350
 7431POPC   C1B39967  22.873   0.990   6.450
 7431POPC   C2B39968  22.857   0.925   6.750
 7431POPC   C3B39969  22.822   1.016   7.050
 7431POPC   C4B39970  22.831   0.968   7.350
 7432POPC   NC339971  17.505  23.704   5.550
 7432POPC   PO439972  17.509  23.732   5.850
 7432POPC   GL139973  17.488  23.676   6.150
 7432POPC   GL239974  17.619  23.801   6.150
 7432POPC   C1A39975  17.551  23.670   6.450
 7432POPC   D2A39976  17.502  23.729   6.750
 7432POPC   C3A39977  17.532  23.683   7.050
 7432POPC   C4A39978  17.461  23.686   7.350
 7432POPC   C1B39979  17.689  23.873   6.450
 7432POPC   C2B39980  17.657  23.861   6.750
 7432POPC   C3B39981  17.725  23.880   7.050
 7432POPC   C4B39982  17.739  23.919   7.350
 7433POPC   NC339983  38.497   1.259   5.550
 7433POPC   PO439984  38.422   1.205   5.850
 7433POPC   GL139985  38.470   1.259   6.150
 7433POPC   GL239986  38.519   1.165   6.150
 7433POPC   C1A39987  38.496   1.211   6.450
 7433POPC   D2A39988  38.439   1.189   6.750
 7433POPC   C3A39989  38.429   1.254   7.050
 7433POPC   C4A39990  38.490   1.210   7.350
 7433POPC   C1B39991  38.684   1.089   6.450
 7433POPC   C2B39992  38.683   1.079   6.750
 7433POPC   C3B39993  38.628   1.095   7.050
 7433POPC   C4B39994  38.646   1.055   7.350
 7434POPC   NC339995   0.401   5.906   5.550
 7434POPC   PO439996   0.423   5.835   5.850
 7434POPC   GL139997   0.450   5.872   6.150
 7434POPC   GL239998   0.466   5.811   6.150
 7434POPC   C1A39999   0.448   5.844   6.450
 7434POPC   D2A40000   0.461   5.829   6.750
 7434POPC   C3A40001   0.391   5.909   7.050
 7434POPC   C4A40002   0.454   5.917   7.350
 7434POPC   C1B40003   0.583   5.640   6.450
 7434POPC   C2B40004   0.579   5.704   6.750
 7434POPC   C3B40005   0.576   5.654   7.050
 7434POPC   C4B40006   0.597   5.695   7.350
 7435POPC   NC340007   0.456  28.352   5.550
 7435POPC   PO440008   0.469  28.335   5.850
 7435POPC   GL140009   0.446  28.390   6.150
 7435POPC   GL240010   0.550  28.269   6.150
 7435POPC   C1A40011   0.425  28.376   6.450
 7435POPC   D2A40012   0.397  28.384   6.750
 7435POPC   C3A40013   0.401  28.352   7.050
 7435POPC   C4A40014   0.415  28.369   7.350
 7435POPC   C1B40015   0.604  28.207   6.450
 7435POPC   C2B40016   0.648  28.239   6.750
 7435POPC   C3B40017   0.684  28.260   7.050
 7435POPC   C4B40018   0.605  28.246   7.350
 7436POPC   NC340019   2.751  43.855   5.550
 7436POPC   PO440020   2.737  43.892   5.850
 7436POPC   GL140021   2.798  43.864   6.150
 7436POPC   GL240022   2.742  44.026   6.150
 7436POPC   C1A40023   2.795  43.882   6.450
 7436POPC   D2A40024   2.811  43.893   6.750
 7436POPC   C3A40025   2.799  43.845   7.050
 7436POPC   C4A40026   2.753  43.907   7.350
 7436POPC   C1B40027   2.668  44.104   6.450
 7436POPC   C2B40028   2.628  44.121   6.750
 7436POPC   C3B40029   2.629  44.104   7.050
 7436POPC   C4B40030   2.593  44.050   7.350
 7437POPC   NC340031  36.131  28.415   5.550
 7437POPC   PO440032  36.124  28.409   5.850
 7437POPC   GL140033  36.123  28.340   6.150
 7437POPC   GL240034  36.146  28.255   6.150
 7437POPC   C1A40035  36.083  28.331   6.450
 7437POPC   D2A40036  36.148  28.330   6.750
 7437POPC   C3A40037  36.137  28.382   7.050
 7437POPC   C4A40038  36.087  28.372   7.350
 7437POPC   C1B40039  36.094  28.080   6.450
 7437POPC   C2B40040  36.154  28.071   6.750
 7437POPC   C3B40041  36.088  28.151   7.050
 7437POPC   C4B40042  36.154  28.117   7.350
 7438POPC   NC340043  29.887  15.199   5.550
 7438POPC   PO440044  29.878  15.213   5.850
 7438POPC   GL140045  29.934  15.208   6.150
 7438POPC   GL240046  29.769  15.193   6.150
 7438POPC   C1A40047  29.883  15.152   6.450
 7438POPC   D2A40048  29.966  15.200   6.750
 7438POPC   C3A40049  29.965  15.227   7.050
 7438POPC   C4A40050  29.894  15.189   7.350
 7438POPC   C1B40051  29.699  15.299   6.450
 7438POPC   C2B40052  29.698  15.249   6.750
 7438POPC   C3B40053  29.638  15.214   7.050
 7438POPC   C4B40054  29.694  15.213   7.350
 7439POPC   NC340055  30.701  41.579   5.550
 7439POPC   PO440056  30.678  41.602   5.850
 7439POPC   GL140057  30.670  41.563   6.150
 7439POPC   GL240058  30.745  41.702   6.150
 7439POPC   C1A40059  30.746  41.530   6.450
 7439POPC   D2A40060  30.670  41.561   6.750
 7439POPC   C3A40061  30.675  41.579   7.050
 7439POPC   C4A40062  30.680  41.602   7.350
 7439POPC   C1B40063  30.811  41.776   6.450
 7439POPC   C2B40064  30.732  41.844   6.750
 7439POPC   C3B40065  30.789  41.766   7.050
 7439POPC   C4B40066  30.774  41.756   7.350
 7440POPC   NC340067  12.048  28.342   5.550
 7440POPC   PO440068  12.079  28.336   5.850
 7440POPC   GL140069  12.058  28.356   6.150
 7440POPC   GL240070  11.992  28.430   6.150
 7440POPC   C1A40071  12.039  28.403   6.450
 7440POPC   D2A40072  12.076  28.366   6.750
 7440POPC   C3A40073  12.076  28.400   7.050
 7440POPC   C4A40074  12.096  28.328   7.350
 7440POPC   C1B40075  11.800  28.376   6.450
 7440POPC   C2B40076  11.843  28.436   6.750
 7440POPC   C3B40077  11.877  28.381   7.050
 7440POPC   C4B40078  11.817  28.433   7.350
 7441POPC   NC340079   5.068  17.496   5.550
 7441POPC   PO440080   5.070  17.484   5.850
 7441POPC   GL140081   5.120  17.547   6.150
 7441POPC   GL240082   5.157  17.609   6.150
 7441POPC   C1A40083   5.108  17.530   6.450
 7441POPC   D2A40084   5.081  17.534   6.750
 7441POPC   C3A40085   5.097  17.497   7.050
 7441POPC   C4A40086   5.084  17.517   7.350
 7441POPC   C1B40087   5.148  17.710   6.450
 7441POPC   C2B40088   5.202  17.736   6.750
 7441POPC   C3B40089   5.176  17.750   7.050
 7441POPC   C4B40090   5.229  17.763   7.350
 7442POPC   NC340091  37.656  29.126   5.550
 7442POPC   PO440092  37.682  29.144   5.850
 7442POPC   GL140093  37.668  29.166   6.150
 7442POPC   GL240094  37.805  29.254   6.150
 7442POPC   C1A40095  37.689  29.174   6.450
 7442POPC   D2A40096  37.723  29.185   6.750
 7442POPC   C3A40097  37.698  29.160   7.050
 7442POPC   C4A40098  37.662  29.194   7.350
 7442POPC   C1B40099  37.784  29.343   6.450
 7442POPC   C2B40100  37.872  29.357   6.750
 7442POPC   C3B40101  37.863  29.373   7.050
 7442POPC   C4B40102  37.845  29.326   7.350
 7443POPC   NC340103  15.939  30.685   5.550
 7443POPC   PO440104  15.981  30.714   5.850
 7443POPC   GL140105  15.925  30.655   6.150
 7443POPC   GL240106  16.060  30.830   6.150
 7443POPC   C1A40107  15.953  30.688   6.450
 7443POPC   D2A40108  15.930  30.709   6.750
 7443POPC   C3A40109  15.925  30.741   7.050
 7443POPC   C4A40110  15.911  30.669   7.350
 7443POPC   C1B40111  16.074  30.879   6.450
 7443POPC   C2B40112  16.102  30.897   6.750
 7443POPC   C3B40113  16.104  30.938   7.050
 7443POPC   C4B40114  16.136  30.888   7.350
 7444POPC   NC340115  32.234  31.478   5.550
 7444POPC   PO440116  32.202  31.476   5.850
 7444POPC   GL140117  32.228  31.513   6.150
 7444POPC   GL240118  32.094  31.463   6.150
 7444POPC   C1A40119  32.220  31.518   6.450
 7444POPC   D2A40120  32.259  31.497   6.750
 7444POPC   C3A40121  32.248  31.457   7.050
 7444POPC   C4A40122  32.288  31.457   7.350
 7444POPC   C1B40123  31.986  31.485   6.450
 7444POPC   C2B40124  32.005  31.439   6.750
 7444POPC   C3B40125  31.960  31.477   7.050
 7444POPC   C4B40126  31.997  31.412   7.350
 7445POPC   NC340127  22.890  44.669   5.550
 7445POPC   PO440128  22.972  44.709   5.850
 7445POPC   GL140129  22.984  44.613   6.150
 7445POPC   GL240130  22.933  44.528   6.150
 7445POPC   C1A40131  22.901  44.696   6.450
 7445POPC   D2A40132  22.903  44.649   6.750
 7445POPC   C3A40133  22.922  44.651   7.050
 7445POPC   C4A40134  22.961  44.666   7.350
 7445POPC   C1B40135  22.821  44.439   6.450
 7445POPC   C2B40136  22.887  44.420   6.750
 7445POPC   C3B40137  22.840  44.384   7.050
 7445POPC   C4B40138  22.816  44.455   7.350
 7446POPC   NC340139  39.230  17.532   5.550
 7446POPC   PO440140  39.210  17.483   5.850
 7446POPC   GL140141  39.255  17.464   6.150
 7446POPC   GL240142  39.283  17.370   6.150
 7446POPC   C1A40143  39.277  17.503   6.450
 7446POPC   D2A40144  39.191  17.491   6.750
 7446POPC   C3A40145  39.239  17.478   7.050
 7446POPC   C4A40146  39.264  17.506   7.350
 7446POPC   C1B40147  39.308  17.257   6.450
 7446POPC   C2B40148  39.346  17.250   6.750
 7446POPC   C3B40149  39.351  17.227   7.050
 7446POPC   C4B40150  39.298  17.274   7.350
 7447POPC   NC340151  31.457  21.346   5.550
 7447POPC   PO440152  31.467  21.372   5.850
 7447POPC   GL140153  31.518  21.378   6.150
 7447POPC   GL240154  31.393  21.274   6.150
 7447POPC   C1A40155  31.506  21.417   6.450
 7447POPC   D2A40156  31.477  21.407   6.750
 7447POPC   C3A40157  31.504  21.430   7.050
 7447POPC   C4A40158  31.516  21.401   7.350
 7447POPC   C1B40159  31.230  21.220   6.450
 7447POPC   C2B40160  31.291  21.286   6.750
 7447POPC   C3B40161  31.300  21.280   7.050
 7447POPC   C4B40162  31.248  21.298   7.350
 7448POPC   NC340163  15.970  43.922   5.550
 7448POPC   PO440164  15.914  43.855   5.850
 7448POPC   GL140165  15.925  43.887   6.150
 7448POPC   GL240166  16.084  43.831   6.150
 7448POPC   C1A40167  15.936  43.888   6.450
 7448POPC   D2A40168  15.941  43.892   6.750
 7448POPC   C3A40169  15.945  43.906   7.050
 7448POPC   C4A40170  15.992  43.932   7.350
 7448POPC   C1B40171  16.141  43.767   6.450
 7448POPC   C2B40172  16.161  43.723   6.750
 7448POPC   C3B40173  16.130  43.700   7.050
 7448POPC   C4B40174  16.130  43.750   7.350
 7449POPC   NC340175  26.797  31.502   5.550
 7449POPC   PO440176  26.862  31.513   5.850
 7449POPC   GL140177  26.804  31.435   6.150
 7449POPC   GL240178  26.739  31.460   6.150
 7449POPC   C1A40179  26.794  31.507   6.450
 7449POPC   D2A40180  26.780  31.440   6.750
 7449POPC   C3A40181  26.828  31.438   7.050
 7449POPC   C4A40182  26.768  31.432   7.350
 7449POPC   C1B40183  26.606  31.442   6.450
 7449POPC   C2B40184  26.592  31.391   6.750
 7449POPC   C3B40185  26.544  31.358   7.050
 7449POPC   C4B40186  26.626  31.406   7.350
 7450POPC   NC340187  25.262  26.076   5.550
 7450POPC   PO440188  25.223  25.993   5.850
 7450POPC   GL140189  25.313  25.993   6.150
 7450POPC   GL240190  25.387  26.150   6.150
 7450POPC   C1A40191  25.252  26.049   6.450
 7450POPC   D2A40192  25.272  26.015   6.750
 7450POPC   C3A40193  25.264  26.021   7.050
 7450POPC   C4A40194  25.232  26.088   7.350
 7450POPC   C1B40195  25.478  26.144   6.450
 7450POPC   C2B40196  25.498  26.154   6.750
 7450POPC   C3B40197  25.483  26.223   7.050
 7450POPC   C4B40198  25.448  26.231   7.350
 7451POPC   NC340199  38.504  17.537   5.550
 7451POPC   PO440200  38.419  17.469   5.850
 7451POPC   GL140201  38.462  17.513   6.150
 7451POPC   GL240202  38.519  17.367   6.150
 7451POPC   C1A40203  38.498  17.484   6.450
 7451POPC   D2A40204  38.485  17.465   6.750
 7451POPC   C3A40205  38.460  17.474   7.050
 7451POPC   C4A40206  38.433  17.532   7.350
 7451POPC   C1B40207  38.532  17.299   6.450
 7451POPC   C2B40208  38.512  17.249   6.750
 7451POPC   C3B40209  38.565  17.246   7.050
 7451POPC   C4B40210  38.489  17.282   7.350
 7452POPC   NC340211  33.844  28.335   5.550
 7452POPC   PO440212  33.814  28.390   5.850
 7452POPC   GL140213  33.838  28.416   6.150
 7452POPC   GL240214  33.927  28.390   6.150
 7452POPC   C1A40215  33.814  28.335   6.450
 7452POPC   D2A40216  33.810  28.388   6.750
 7452POPC   C3A40217  33.777  28.374   7.050
 7452POPC   C4A40218  33.780  28.409   7.350
 7452POPC   C1B40219  34.059  28.380   6.450
 7452POPC   C2B40220  34.038  28.387   6.750
 7452POPC   C3B40221  34.077  28.380   7.050
 7452POPC   C4B40222  34.053  28.362   7.350
 7453POPC   NC340223  11.340  33.020   5.550
 7453POPC   PO440224  11.321  32.987   5.850
 7453POPC   GL140225  11.311  32.983   6.150
 7453POPC   GL240226  11.196  33.011   6.150
 7453POPC   C1A40227  11.340  33.010   6.450
 7453POPC   D2A40228  11.312  33.001   6.750
 7453POPC   C3A40229  11.266  32.983   7.050
 7453POPC   C4A40230  11.289  33.016   7.350
 7453POPC   C1B40231  11.113  32.966   6.450
 7453POPC   C2B40232  11.063  32.969   6.750
 7453POPC   C3B40233  11.035  32.918   7.050
 7453POPC   C4B40234  11.105  32.911   7.350
 7454POPC   NC340235  17.479  28.327   5.550
 7454POPC   PO440236  17.492  28.343   5.850
 7454POPC   GL140237  17.484  28.381   6.150
 7454POPC   GL240238  17.476  28.235   6.150
 7454POPC   C1A40239  17.547  28.363   6.450
 7454POPC   D2A40240  17.471  28.357   6.750
 7454POPC   C3A40241  17.485  28.327   7.050
 7454POPC   C4A40242  17.502  28.414   7.350
 7454POPC   C1B40243  17.489  28.127   6.450
 7454POPC   C2B40244  17.485  28.161   6.750
 7454POPC   C3B40245  17.488  28.071   7.050
 7454POPC   C4B40246  17.489  28.161   7.350
 7455POPC   NC340247   9.772  36.863   5.550
 7455POPC   PO440248   9.720  36.948   5.850
 7455POPC   GL140249   9.714  36.890   6.150
 7455POPC   GL240250   9.655  36.911   6.150
 7455POPC   C1A40251   9.712  36.913   6.450
 7455POPC   D2A40252   9.778  36.896   6.750
 7455POPC   C3A40253   9.765  36.863   7.050
 7455POPC   C4A40254   9.783  36.911   7.350
 7455POPC   C1B40255   9.563  37.028   6.450
 7455POPC   C2B40256   9.473  37.045   6.750
 7455POPC   C3B40257   9.476  37.044   7.050
 7455POPC   C4B40258   9.514  37.018   7.350
 7456POPC   NC340259  44.691   9.017   5.550
 7456POPC   PO440260  44.695   9.019   5.850
 7456POPC   GL140261  44.669   8.970   6.150
 7456POPC   GL240262  44.739   9.098   6.150
 7456POPC   C1A40263  44.620   9.006   6.450
 7456POPC   D2A40264  44.659   8.944   6.750
 7456POPC   C3A40265  44.682   8.924   7.050
 7456POPC   C4A40266  44.676   8.992   7.350
 7456POPC   C1B40267  44.793   9.145   6.450
 7456POPC   C2B40268  44.856   9.160   6.750
 7456POPC   C3B40269  44.825   9.186   7.050
 7456POPC   C4B40270  44.851   9.199   7.350
 7457POPC   NC340271   5.906  43.132   5.550
 7457POPC   PO440272   5.832  43.128   5.850
 7457POPC   GL140273   5.912  43.151   6.150
 7457POPC   GL240274   5.736  43.184   6.150
 7457POPC   C1A40275   5.844  43.091   6.450
 7457POPC   D2A40276   5.882  43.066   6.750
 7457POPC   C3A40277   5.847  43.097   7.050
 7457POPC   C4A40278   5.867  43.079   7.350
 7457POPC   C1B40279   5.588  43.207   6.450
 7457POPC   C2B40280   5.644  43.225   6.750
 7457POPC   C3B40281   5.604  43.239   7.050
 7457POPC   C4B40282   5.654  43.152   7.350
 7458POPC   NC340283  27.550  21.386   5.550
 7458POPC   PO440284  27.603  21.415   5.850
 7458POPC   GL140285  27.621  21.376   6.150
 7458POPC   GL240286  27.694  21.391   6.150
 7458POPC   C1A40287  27.586  21.429   6.450
 7458POPC   D2A40288  27.620  21.371   6.750
 7458POPC   C3A40289  27.580  21.358   7.050
 7458POPC   C4A40290  27.569  21.344   7.350
 7458POPC   C1B40291  27.871  21.314   6.450
 7458POPC   C2B40292  27.791  21.272   6.750
 7458POPC   C3B40293  27.808  21.249   7.050
 7458POPC   C4B40294  27.838  21.294   7.350
 7459POPC   NC340295  25.223  33.062   5.550
 7459POPC   PO440296  25.310  32.990   5.850
 7459POPC   GL140297  25.225  32.990   6.150
 7459POPC   GL240298  25.393  32.988   6.150
 7459POPC   C1A40299  25.294  32.990   6.450
 7459POPC   D2A40300  25.217  33.024   6.750
 7459POPC   C3A40301  25.274  33.041   7.050
 7459POPC   C4A40302  25.287  33.013   7.350
 7459POPC   C1B40303  25.475  32.927   6.450
 7459POPC   C2B40304  25.484  32.934   6.750
 7459POPC   C3B40305  25.446  32.860   7.050
 7459POPC   C4B40306  25.524  32.862   7.350
 7460POPC   NC340307  40.744  31.482   5.550
 7460POPC   PO440308  40.736  31.482   5.850
 7460POPC   GL140309  40.786  31.496   6.150
 7460POPC   GL240310  40.762  31.344   6.150
 7460POPC   C1A40311  40.750  31.454   6.450
 7460POPC   D2A40312  40.819  31.441   6.750
 7460POPC   C3A40313  40.804  31.456   7.050
 7460POPC   C4A40314  40.744  31.451   7.350
 7460POPC   C1B40315  40.690  31.304   6.450
 7460POPC   C2B40316  40.637  31.299   6.750
 7460POPC   C3B40317  40.676  31.267   7.050
 7460POPC   C4B40318  40.653  31.223   7.350
 7461POPC   NC340319   4.339  42.357   5.550
 7461POPC   PO440320   4.344  42.355   5.850
 7461POPC   GL140321   4.324  42.354   6.150
 7461POPC   GL240322   4.209  42.452   6.150
 7461POPC   C1A40323   4.298  42.373   6.450
 7461POPC   D2A40324   4.279  42.375   6.750
 7461POPC   C3A40325   4.353  42.320   7.050
 7461POPC   C4A40326   4.308  42.382   7.350
 7461POPC   C1B40327   4.109  42.498   6.450
 7461POPC   C2B40328   4.152  42.490   6.750
 7461POPC   C3B40329   4.109  42.427   7.050
 7461POPC   C4B40330   4.119  42.503   7.350
 7462POPC   NC340331  25.306  43.908   5.550
 7462POPC   PO440332  25.228  43.912   5.850
 7462POPC   GL140333  25.298  43.881   6.150
 7462POPC   GL240334  25.399  43.970   6.150
 7462POPC   C1A40335  25.232  43.890   6.450
 7462POPC   D2A40336  25.287  43.875   6.750
 7462POPC   C3A40337  25.238  43.867   7.050
 7462POPC   C4A40338  25.288  43.857   7.350
 7462POPC   C1B40339  25.467  44.033   6.450
 7462POPC   C2B40340  25.439  44.027   6.750
 7462POPC   C3B40341  25.410  44.094   7.050
 7462POPC   C4B40342  25.400  44.068   7.350
 7463POPC   NC340343  24.488  43.875   5.550
 7463POPC   PO440344  24.462  43.911   5.850
 7463POPC   GL140345  24.538  43.837   6.150
 7463POPC   GL240346  24.544  43.817   6.150
 7463POPC   C1A40347  24.488  43.886   6.450
 7463POPC   D2A40348  24.455  43.864   6.750
 7463POPC   C3A40349  24.442  43.906   7.050
 7463POPC   C4A40350  24.503  43.847   7.350
 7463POPC   C1B40351  24.592  43.661   6.450
 7463POPC   C2B40352  24.566  43.680   6.750
 7463POPC   C3B40353  24.601  43.647   7.050
 7463POPC   C4B40354  24.648  43.699   7.350
 7464POPC   NC340355  13.612  24.532   5.550
 7464POPC   PO440356  13.599  24.511   5.850
 7464POPC   GL140357  13.659  24.466   6.150
 7464POPC   GL240358  13.715  24.589   6.150
 7464POPC   C1A40359  13.594  24.478   6.450
 7464POPC   D2A40360  13.601  24.480   6.750
 7464POPC   C3A40361  13.659  24.496   7.050
 7464POPC   C4A40362  13.609  24.470   7.350
 7464POPC   C1B40363  13.792  24.605   6.450
 7464POPC   C2B40364  13.819  24.678   6.750
 7464POPC   C3B40365  13.857  24.594   7.050
 7464POPC   C4B40366  13.816  24.626   7.350
 7465POPC   NC340367  23.690  36.111   5.550
 7465POPC   PO440368  23.708  36.100   5.850
 7465POPC   GL140369  23.728  36.123   6.150
 7465POPC   GL240370  23.661  36.213   6.150
 7465POPC   C1A40371  23.690  36.140   6.450
 7465POPC   D2A40372  23.689  36.098   6.750
 7465POPC   C3A40373  23.733  36.078   7.050
 7465POPC   C4A40374  23.724  36.116   7.350
 7465POPC   C1B40375  23.500  36.272   6.450
 7465POPC   C2B40376  23.522  36.324   6.750
 7465POPC   C3B40377  23.540  36.295   7.050
 7465POPC   C4B40378  23.560  36.361   7.350
 7466POPC   NC340379  11.312  26.013   5.550
 7466POPC   PO440380  11.327  25.998   5.850
 7466POPC   GL140381  11.281  25.996   6.150
 7466POPC   GL240382  11.239  25.936   6.150
 7466POPC   C1A40383  11.286  26.073   6.450
 7466POPC   D2A40384  11.327  26.011   6.750
 7466POPC   C3A40385  11.345  26.090   7.050
 7466POPC   C4A40386  11.328  26.017   7.350
 7466POPC   C1B40387  11.059  25.878   6.450
 7466POPC   C2B40388  11.060  25.967   6.750
 7466POPC   C3B40389  11.031  25.909   7.050
 7466POPC   C4B40390  11.109  25.923   7.350
 7467POPC   NC340391  33.765  26.052   5.550
 7467POPC   PO440392  33.847  26.070   5.850
 7467POPC   GL140393  33.759  25.997   6.150
 7467POPC   GL240394  33.894  25.953   6.150
 7467POPC   C1A40395  33.766  26.030   6.450
 7467POPC   D2A40396  33.827  25.994   6.750
 7467POPC   C3A40397  33.785  26.056   7.050
 7467POPC   C4A40398  33.798  26.084   7.350
 7467POPC   C1B40399  33.972  25.837   6.450
 7467POPC   C2B40400  33.928  25.806   6.750
 7467POPC   C3B40401  33.925  25.817   7.050
 7467POPC   C4B40402  33.976  25.810   7.350
 7468POPC   NC340403   0.455  39.976   5.550
 7468POPC   PO440404   0.434  39.989   5.850
 7468POPC   GL140405   0.390  40.012   6.150
 7468POPC   GL240406   0.336  39.944   6.150
 7468POPC   C1A40407   0.406  40.042   6.450
 7468POPC   D2A40408   0.396  40.047   6.750
 7468POPC   C3A40409   0.443  40.048   7.050
 7468POPC   C4A40410   0.446  39.993   7.350
 7468POPC   C1B40411   0.184  39.907   6.450
 7468POPC   C2B40412   0.217  39.937   6.750
 7468POPC   C3B40413   0.206  39.872   7.050
 7468POPC   C4B40414   0.202  39.944   7.350
 7469POPC   NC340415  39.961   8.942   5.550
 7469POPC   PO440416  40.002   8.952   5.850
 7469POPC   GL140417  40.045   8.980   6.150
 7469POPC   GL240418  40.144   8.904   6.150
 7469POPC   C1A40419  40.010   8.984   6.450
 7469POPC   D2A40420  39.965   9.005   6.750
 7469POPC   C3A40421  39.977   9.010   7.050
 7469POPC   C4A40422  39.997   8.965   7.350
 7469POPC   C1B40423  40.207   8.792   6.450
 7469POPC   C2B40424  40.160   8.809   6.750
 7469POPC   C3B40425  40.218   8.788   7.050
 7469POPC   C4B40426  40.195   8.788   7.350
 7470POPC   NC340427  14.384  27.629   5.550
 7470POPC   PO440428  14.384  27.553   5.850
 7470POPC   GL140429  14.430  27.587   6.150
 7470POPC   GL240430  14.321  27.614   6.150
 7470POPC   C1A40431  14.399  27.596   6.450
 7470POPC   D2A40432  14.420  27.558   6.750
 7470POPC   C3A40433  14.432  27.614   7.050
 7470POPC   C4A40434  14.428  27.555   7.350
 7470POPC   C1B40435  14.130  27.724   6.450
 7470POPC   C2B40436  14.145  27.710   6.750
 7470POPC   C3B40437  14.223  27.735   7.050
 7470POPC   C4B40438  14.205  27.702   7.350
 7471POPC   NC340439   5.110  18.308   5.550
 7471POPC   PO440440   5.073  18.329   5.850
 7471POPC   GL140441   5.128  18.285   6.150
 7471POPC   GL240442   4.987  18.155   6.150
 7471POPC   C1A40443   5.101  18.280   6.450
 7471POPC   D2A40444   5.104  18.316   6.750
 7471POPC   C3A40445   5.097  18.303   7.050
 7471POPC   C4A40446   5.052  18.243   7.350
 7471POPC   C1B40447   4.993  18.100   6.450
 7471POPC   C2B40448   4.988  18.075   6.750
 7471POPC   C3B40449   4.943  18.117   7.050
 7471POPC   C4B40450   4.950  18.081   7.350
 7472POPC   NC340451  30.690  20.590   5.550
 7472POPC   PO440452  30.684  20.579   5.850
 7472POPC   GL140453  30.730  20.625   6.150
 7472POPC   GL240454  30.606  20.502   6.150
 7472POPC   C1A40455  30.707  20.639   6.450
 7472POPC   D2A40456  30.663  20.594   6.750
 7472POPC   C3A40457  30.696  20.561   7.050
 7472POPC   C4A40458  30.700  20.647   7.350
 7472POPC   C1B40459  30.548  20.417   6.450
 7472POPC   C2B40460  30.535  20.363   6.750
 7472POPC   C3B40461  30.546  20.365   7.050
 7472POPC   C4B40462  30.569  20.416   7.350
 7473POPC   NC340463  21.409   5.840   5.550
 7473POPC   PO440464  21.424   5.846   5.850
 7473POPC   GL140465  21.406   5.876   6.150
 7473POPC   GL240466  21.411   6.018   6.150
 7473POPC   C1A40467  21.378   5.828   6.450
 7473POPC   D2A40468  21.367   5.916   6.750
 7473POPC   C3A40469  21.388   5.895   7.050
 7473POPC   C4A40470  21.434   5.901   7.350
 7473POPC   C1B40471  21.380   6.144   6.450
 7473POPC   C2B40472  21.384   6.133   6.750
 7473POPC   C3B40473  21.361   6.082   7.050
 7473POPC   C4B40474  21.360   6.072   7.350
 7474POPC   NC340475   8.937  39.993   5.550
 7474POPC   PO440476   8.930  39.963   5.850
 7474POPC   GL140477   9.003  40.045   6.150
 7474POPC   GL240478   8.876  40.045   6.150
 7474POPC   C1A40479   8.938  39.971   6.450
 7474POPC   D2A40480   9.005  40.043   6.750
 7474POPC   C3A40481   9.014  39.982   7.050
 7474POPC   C4A40482   8.936  40.002   7.350
 7474POPC   C1B40483   8.719  39.948   6.450
 7474POPC   C2B40484   8.741  39.949   6.750
 7474POPC   C3B40485   8.687  40.038   7.050
 7474POPC   C4B40486   8.752  40.043   7.350
 7475POPC   NC340487  11.279  36.082   5.550
 7475POPC   PO440488  11.339  36.086   5.850
 7475POPC   GL140489  11.270  36.079   6.150
 7475POPC   GL240490  11.310  36.206   6.150
 7475POPC   C1A40491  11.302  36.125   6.450
 7475POPC   D2A40492  11.304  36.090   6.750
 7475POPC   C3A40493  11.302  36.100   7.050
 7475POPC   C4A40494  11.313  36.091   7.350
 7475POPC   C1B40495  11.395  36.330   6.450
 7475POPC   C2B40496  11.362  36.329   6.750
 7475POPC   C3B40497  11.322  36.406   7.050
 7475POPC   C4B40498  11.350  36.410   7.350
 7476POPC   NC340499  43.144  40.030   5.550
 7476POPC   PO440500  43.129  40.024   5.850
 7476POPC   GL140501  43.103  39.981   6.150
 7476POPC   GL240502  43.127  39.861   6.150
 7476POPC   C1A40503  43.147  40.022   6.450
 7476POPC   D2A40504  43.093  39.981   6.750
 7476POPC   C3A40505  43.063  39.965   7.050
 7476POPC   C4A40506  43.128  40.016   7.350
 7476POPC   C1B40507  43.166  39.798   6.450
 7476POPC   C2B40508  43.227  39.786   6.750
 7476POPC   C3B40509  43.156  39.740   7.050
 7476POPC   C4B40510  43.190  39.816   7.350
 7477POPC   NC340511  36.144  22.892   5.550
 7477POPC   PO440512  36.102  22.951   5.850
 7477POPC   GL140513  36.132  22.936   6.150
 7477POPC   GL240514  36.203  23.005   6.150
 7477POPC   C1A40515  36.118  22.971   6.450
 7477POPC   D2A40516  36.127  22.938   6.750
 7477POPC   C3A40517  36.102  22.906   7.050
 7477POPC   C4A40518  36.123  22.981   7.350
 7477POPC   C1B40519  36.395  22.990   6.450
 7477POPC   C2B40520  36.396  22.970   6.750
 7477POPC   C3B40521  36.340  22.950   7.050
 7477POPC   C4B40522  36.399  22.976   7.350
 7478POPC   NC340523  33.014  44.680   5.550
 7478POPC   PO440524  33.062  44.666   5.850
 7478POPC   GL140525  33.011  44.698   6.150
 7478POPC   GL240526  32.917  44.668   6.150
 7478POPC   C1A40527  33.046  44.712   6.450
 7478POPC   D2A40528  33.048  44.620   6.750
 7478POPC   C3A40529  33.056  44.619   7.050
 7478POPC   C4A40530  33.019  44.707   7.350
 7478POPC   C1B40531  32.832  44.811   6.450
 7478POPC   C2B40532  32.762  44.748   6.750
 7478POPC   C3B40533  32.797  44.772   7.050
 7478POPC   C4B40534  32.828  44.801   7.350
 7479POPC   NC340535  32.205  11.349   5.550
 7479POPC   PO440536  32.226  11.302   5.850
 7479POPC   GL140537  32.229  11.268   6.150
 7479POPC   GL240538  32.125  11.316   6.150
 7479POPC   C1A40539  32.241  11.317   6.450
 7479POPC   D2A40540  32.297  11.348   6.750
 7479POPC   C3A40541  32.284  11.250   7.050
 7479POPC   C4A40542  32.286  11.253   7.350
 7479POPC   C1B40543  31.986  11.338   6.450
 7479POPC   C2B40544  32.031  11.317   6.750
 7479POPC   C3B40545  31.991  11.358   7.050
 7479POPC   C4B40546  31.998  11.325   7.350
 7480POPC   NC340547   1.996  39.234   5.550
 7480POPC   PO440548   1.952  39.189   5.850
 7480POPC   GL140549   1.983  39.192   6.150
 7480POPC   GL240550   1.867  39.235   6.150
 7480POPC   C1A40551   2.007  39.205   6.450
 7480POPC   D2A40552   1.964  39.240   6.750
 7480POPC   C3A40553   2.001  39.248   7.050
 7480POPC   C4A40554   1.967  39.202   7.350
 7480POPC   C1B40555   1.745  39.235   6.450
 7480POPC   C2B40556   1.710  39.226   6.750
 7480POPC   C3B40557   1.700  39.301   7.050
 7480POPC   C4B40558   1.757  39.308   7.350
 7481POPC   NC340559   7.376  24.445   5.550
 7481POPC   PO440560   7.405  24.537   5.850
 7481POPC   GL140561   7.455  24.486   6.150
 7481POPC   GL240562   7.590  24.491   6.150
 7481POPC   C1A40563   7.392  24.537   6.450
 7481POPC   D2A40564   7.374  24.477   6.750
 7481POPC   C3A40565   7.401  24.461   7.050
 7481POPC   C4A40566   7.405  24.534   7.350
 7481POPC   C1B40567   7.706  24.427   6.450
 7481POPC   C2B40568   7.678  24.490   6.750
 7481POPC   C3B40569   7.680  24.421   7.050
 7481POPC   C4B40570   7.628  24.493   7.350
 7482POPC   NC340571   1.192   5.851   5.550
 7482POPC   PO440572   1.215   5.855   5.850
 7482POPC   GL140573   1.190   5.825   6.150
 7482POPC   GL240574   1.144   5.991   6.150
 7482POPC   C1A40575   1.205   5.853   6.450
 7482POPC   D2A40576   1.188   5.845   6.750
 7482POPC   C3A40577   1.223   5.845   7.050
 7482POPC   C4A40578   1.247   5.904   7.350
 7482POPC   C1B40579   1.045   6.038   6.450
 7482POPC   C2B40580   1.021   6.036   6.750
 7482POPC   C3B40581   1.006   6.005   7.050
 7482POPC   C4B40582   0.988   6.074   7.350
 7483POPC   NC340583  44.683  15.162   5.550
 7483POPC   PO440584  44.697  15.228   5.850
 7483POPC   GL140585  44.651  15.153   6.150
 7483POPC   GL240586  44.550  15.227   6.150
 7483POPC   C1A40587  44.685  15.219   6.450
 7483POPC   D2A40588  44.660  15.146   6.750
 7483POPC   C3A40589  44.630  15.173   7.050
 7483POPC   C4A40590  44.667  15.207   7.350
 7483POPC   C1B40591  44.420  15.132   6.450
 7483POPC   C2B40592  44.381  15.145   6.750
 7483POPC   C3B40593  44.403  15.179   7.050
 7483POPC   C4B40594  44.455  15.223   7.350
 7484POPC   NC340595  44.701  32.997   5.550
 7484POPC   PO440596  44.656  33.071   5.850
 7484POPC   GL140597  44.614  33.017   6.150
 7484POPC   GL240598  44.602  32.974   6.150
 7484POPC   C1A40599  44.695  33.034   6.450
 7484POPC   D2A40600  44.622  33.047   6.750
 7484POPC   C3A40601  44.643  33.017   7.050
 7484POPC   C4A40602  44.704  33.030   7.350
 7484POPC   C1B40603  44.428  32.896   6.450
 7484POPC   C2B40604  44.497  32.863   6.750
 7484POPC   C3B40605  44.439  32.859   7.050
 7484POPC   C4B40606  44.438  32.863   7.350
 7485POPC   NC340607   3.512   9.009   5.550
 7485POPC   PO440608   3.499   8.949   5.850
 7485POPC   GL140609   3.503   9.006   6.150
 7485POPC   GL240610   3.368   8.981   6.150
 7485POPC   C1A40611   3.573   9.002   6.450
 7485POPC   D2A40612   3.569   9.018   6.750
 7485POPC   C3A40613   3.538   8.933   7.050
 7485POPC   C4A40614   3.563   8.963   7.350
 7485POPC   C1B40615   3.327   8.902   6.450
 7485POPC   C2B40616   3.321   8.901   6.750
 7485POPC   C3B40617   3.258   8.911   7.050
 7485POPC   C4B40618   3.278   8.963   7.350
 7486POPC   NC340619  25.315  17.476   5.550
 7486POPC   PO440620  25.233  17.498   5.850
 7486POPC   GL140621  25.220  17.518   6.150
 7486POPC   GL240622  25.409  17.547   6.150
 7486POPC   C1A40623  25.280  17.551   6.450
 7486POPC   D2A40624  25.253  17.483   6.750
 7486POPC   C3A40625  25.293  17.553   7.050
 7486POPC   C4A40626  25.237  17.478   7.350
 7486POPC   C1B40627  25.552  17.563   6.450
 7486POPC   C2B40628  25.487  17.610   6.750
 7486POPC   C3B40629  25.530  17.585   7.050
 7486POPC   C4B40630  25.519  17.541   7.350
 7487POPC   NC340631  30.659  15.179   5.550
 7487POPC   PO440632  30.657  15.139   5.850
 7487POPC   GL140633  30.739  15.179   6.150
 7487POPC   GL240634  30.609  15.281   6.150
 7487POPC   C1A40635  30.648  15.148   6.450
 7487POPC   D2A40636  30.676  15.163   6.750
 7487POPC   C3A40637  30.678  15.176   7.050
 7487POPC   C4A40638  30.709  15.214   7.350
 7487POPC   C1B40639  30.547  15.345   6.450
 7487POPC   C2B40640  30.487  15.334   6.750
 7487POPC   C3B40641  30.543  15.333   7.050
 7487POPC   C4B40642  30.498  15.381   7.350
 7488POPC   NC340643   5.082  32.215   5.550
 7488POPC   PO440644   5.109  32.246   5.850
 7488POPC   GL140645   5.062  32.290   6.150
 7488POPC   GL240646   5.078  32.335   6.150
 7488POPC   C1A40647   5.079  32.264   6.450
 7488POPC   D2A40648   5.045  32.228   6.750
 7488POPC   C3A40649   5.142  32.264   7.050
 7488POPC   C4A40650   5.106  32.269   7.350
 7488POPC   C1B40651   5.106  32.530   6.450
 7488POPC   C2B40652   5.041  32.467   6.750
 7488POPC   C3B40653   5.080  32.490   7.050
 7488POPC   C4B40654   5.028  32.519   7.350
 7489POPC   NC340655  28.320  33.795   5.550
 7489POPC   PO440656  28.398  33.762   5.850
 7489POPC   GL140657  28.322  33.834   6.150
 7489POPC   GL240658  28.449  33.762   6.150
 7489POPC   C1A40659  28.362  33.807   6.450
 7489POPC   D2A40660  28.403  33.802   6.750
 7489POPC   C3A40661  28.373  33.848   7.050
 7489POPC   C4A40662  28.341  33.844   7.350
 7489POPC   C1B40663  28.624  33.804   6.450
 7489POPC   C2B40664  28.633  33.777   6.750
 7489POPC   C3B40665  28.624  33.797   7.050
 7489POPC   C4B40666  28.587  33.793   7.350
 7490POPC   NC340667  26.867  19.871   5.550
 7490POPC   PO440668  26.817  19.829   5.850
 7490POPC   GL140669  26.850  19.796   6.150
 7490POPC   GL240670  26.898  19.691   6.150
 7490POPC   C1A40671  26.859  19.820   6.450
 7490POPC   D2A40672  26.781  19.814   6.750
 7490POPC   C3A40673  26.793  19.798   7.050
 7490POPC   C4A40674  26.854  19.838   7.350
 7490POPC   C1B40675  26.936  19.654   6.450
 7490POPC   C2B40676  26.905  19.589   6.750
 7490POPC   C3B40677  26.977  19.569   7.050
 7490POPC   C4B40678  26.975  19.620   7.350
 7491POPC   NC340679  31.433  34.621   5.550
 7491POPC   PO440680  31.436  34.543   5.850
 7491POPC   GL140681  31.454  34.560   6.150
 7491POPC   GL240682  31.321  34.614   6.150
 7491POPC   C1A40683  31.509  34.623   6.450
 7491POPC   D2A40684  31.481  34.532   6.750
 7491POPC   C3A40685  31.450  34.596   7.050
 7491POPC   C4A40686  31.511  34.538   7.350
 7491POPC   C1B40687  31.192  34.567   6.450
 7491POPC   C2B40688  31.224  34.560   6.750
 7491POPC   C3B40689  31.237  34.589   7.050
 7491POPC   C4B40690  31.221  34.525   7.350
 7492POPC   NC340691  33.056  30.721   5.550
 7492POPC   PO440692  33.073  30.717   5.850
 7492POPC   GL140693  33.000  30.656   6.150
 7492POPC   GL240694  33.114  30.777   6.150
 7492POPC   C1A40695  33.069  30.699   6.450
 7492POPC   D2A40696  33.071  30.706   6.750
 7492POPC   C3A40697  33.025  30.737   7.050
 7492POPC   C4A40698  33.064  30.730   7.350
 7492POPC   C1B40699  33.246  30.756   6.450
 7492POPC   C2B40700  33.296  30.730   6.750
 7492POPC   C3B40701  33.227  30.718   7.050
 7492POPC   C4B40702  33.304  30.779   7.350
 7493POPC   NC340703  40.051  14.398   5.550
 7493POPC   PO440704  40.011  14.393   5.850
 7493POPC   GL140705  40.010  14.447   6.150
 7493POPC   GL240706  40.102  14.538   6.150
 7493POPC   C1A40707  40.042  14.392   6.450
 7493POPC   D2A40708  40.040  14.369   6.750
 7493POPC   C3A40709  40.006  14.430   7.050
 7493POPC   C4A40710  40.011  14.393   7.350
 7493POPC   C1B40711  40.190  14.635   6.450
 7493POPC   C2B40712  40.144  14.605   6.750
 7493POPC   C3B40713  40.110  14.613   7.050
 7493POPC   C4B40714  40.095  14.572   7.350
 7494POPC   NC340715  29.098  36.902   5.550
 7494POPC   PO440716  29.152  36.915   5.850
 7494POPC   GL140717  29.104  36.914   6.150
 7494POPC   GL240718  29.042  36.874   6.150
 7494POPC   C1A40719  29.115  36.953   6.450
 7494POPC   D2A40720  29.119  36.901   6.750
 7494POPC   C3A40721  29.132  36.880   7.050
 7494POPC   C4A40722  29.164  36.947   7.350
 7494POPC   C1B40723  28.942  36.755   6.450
 7494POPC   C2B40724  28.967  36.779   6.750
 7494POPC   C3B40725  28.906  36.786   7.050
 7494POPC   C4B40726  28.927  36.800   7.350
 7495POPC   NC340727  25.286  40.833   5.550
 7495POPC   PO440728  25.274  40.791   5.850
 7495POPC   GL140729  25.230  40.810   6.150
 7495POPC   GL240730  25.250  40.634   6.150
 7495POPC   C1A40731  25.232  40.748   6.450
 7495POPC   D2A40732  25.256  40.770   6.750
 7495POPC   C3A40733  25.241  40.750   7.050
 7495POPC   C4A40734  25.238  40.781   7.350
 7495POPC   C1B40735  25.274  40.579   6.450
 7495POPC   C2B40736  25.287  40.523   6.750
 7495POPC   C3B40737  25.244  40.524   7.050
 7495POPC   C4B40738  25.225  40.505   7.350
 7496POPC   NC340739  28.380  30.667   5.550
 7496POPC   PO440740  28.333  30.714   5.850
 7496POPC   GL140741  28.411  30.659   6.150
 7496POPC   GL240742  28.292  30.724   6.150
 7496POPC   C1A40743  28.334  30.703   6.450
 7496POPC   D2A40744  28.329  30.648   6.750
 7496POPC   C3A40745  28.405  30.659   7.050
 7496POPC   C4A40746  28.320  30.708   7.350
 7496POPC   C1B40747  28.119  30.810   6.450
 7496POPC   C2B40748  28.132  30.832   6.750
 7496POPC   C3B40749  28.135  30.829   7.050
 7496POPC   C4B40750  28.200  30.851   7.350
 7497POPC   NC340751  14.418  16.707   5.550
 7497POPC   PO440752  14.364  16.694   5.850
 7497POPC   GL140753  14.407  16.762   6.150
 7497POPC   GL240754  14.483  16.640   6.150
 7497POPC   C1A40755  14.431  16.764   6.450
 7497POPC   D2A40756  14.393  16.718   6.750
 7497POPC   C3A40757  14.359  16.749   7.050
 7497POPC   C4A40758  14.356  16.733   7.350
 7497POPC   C1B40759  14.533  16.497   6.450
 7497POPC   C2B40760  14.520  16.514   6.750
 7497POPC   C3B40761  14.581  16.491   7.050
 7497POPC   C4B40762  14.542  16.569   7.350
 7498POPC   NC340763  32.272  27.576   5.550
 7498POPC   PO440764  32.288  27.583   5.850
 7498POPC   GL140765  32.252  27.556   6.150
 7498POPC   GL240766  32.095  27.495   6.150
 7498POPC   C1A40767  32.242  27.572   6.450
 7498POPC   D2A40768  32.219  27.618   6.750
 7498POPC   C3A40769  32.217  27.594   7.050
 7498POPC   C4A40770  32.222  27.631   7.350
 7498POPC   C1B40771  32.036  27.433   6.450
 7498POPC   C2B40772  32.043  27.429   6.750
 7498POPC   C3B40773  32.019  27.501   7.050
 7498POPC   C4B40774  32.073  27.490   7.350
 7499POPC   NC340775   1.221  14.411   5.550
 7499POPC   PO440776   1.182  14.382   5.850
 7499POPC   GL140777   1.194  14.393   6.150
 7499POPC   GL240778   1.099  14.490   6.150
 7499POPC   C1A40779   1.207  14.432   6.450
 7499POPC   D2A40780   1.201  14.428   6.750
 7499POPC   C3A40781   1.209  14.396   7.050
 7499POPC   C4A40782   1.173  14.433   7.350
 7499POPC   C1B40783   0.995  14.538   6.450
 7499POPC   C2B40784   0.958  14.500   6.750
 7499POPC   C3B40785   1.001  14.524   7.050
 7499POPC   C4B40786   1.021  14.505   7.350
 7500POPC   NC340787   8.224   8.211   5.550
 7500POPC   PO440788   8.186   8.172   5.850
 7500POPC   GL140789   8.192   8.201   6.150
 7500POPC   GL240790   8.190   8.357   6.150
 7500POPC   C1A40791   8.153   8.238   6.450
 7500POPC   D2A40792   8.211   8.209   6.750
 7500POPC   C3A40793   8.237   8.197   7.050
 7500POPC   C4A40794   8.219   8.208   7.350
 7500POPC   C1B40795   8.173   8.473   6.450
 7500POPC   C2B40796   8.174   8.443   6.750
 7500POPC   C3B40797   8.139   8.466   7.050
 7500POPC   C4B40798   8.208   8.446   7.350
 7501POPC   NC340799   0.460  27.610   5.550
 7501POPC   PO440800   0.407  27.579   5.850
 7501POPC   GL140801   0.486  27.594   6.150
 7501POPC   GL240802   0.543  27.627   6.150
 7501POPC   C1A40803   0.418  27.569   6.450
 7501POPC   D2A40804   0.428  27.553   6.750
 7501POPC   C3A40805   0.457  27.595   7.050
 7501POPC   C4A40806   0.479  27.600   7.350
 7501POPC   C1B40807   0.659  27.628   6.450
 7501POPC   C2B40808   0.689  27.571   6.750
 7501POPC   C3B40809   0.704  27.565   7.050
 7501POPC   C4B40810   0.699  27.630   7.350
 7502POPC   NC340811  36.906  40.782   5.550
 7502POPC   PO440812  36.919  40.813   5.850
 7502POPC   GL140813  36.947  40.796   6.150
 7502POPC   GL240814  36.923  40.887   6.150
 7502POPC   C1A40815  36.904  40.830   6.450
 7502POPC   D2A40816  36.857  40.790   6.750
 7502POPC   C3A40817  36.903  40.756   7.050
 7502POPC   C4A40818  36.952  40.785   7.350
 7502POPC   C1B40819  36.830  41.038   6.450
 7502POPC   C2B40820  36.872  40.997   6.750
 7502POPC   C3B40821  36.851  41.002   7.050
 7502POPC   C4B40822  36.808  41.022   7.350
 7503POPC   NC340823   0.391  22.890   5.550
 7503POPC   PO440824   0.409  22.912   5.850
 7503POPC   GL140825   0.432  22.979   6.150
 7503POPC   GL240826   0.358  22.866   6.150
 7503POPC   C1A40827   0.481  22.889   6.450
 7503POPC   D2A40828   0.440  22.915   6.750
 7503POPC   C3A40829   0.475  22.971   7.050
 7503POPC   C4A40830   0.480  22.898   7.350
 7503POPC   C1B40831   0.284  22.791   6.450
 7503POPC   C2B40832   0.232  22.744   6.750
 7503POPC   C3B40833   0.243  22.742   7.050
 7503POPC   C4B40834   0.256  22.711   7.350
 7504POPC   NC340835  24.464  17.463   5.550
 7504POPC   PO440836  24.504  17.482   5.850
 7504POPC   GL140837  24.498  17.463   6.150
 7504POPC   GL240838  24.495  17.404   6.150
 7504POPC   C1A40839  24.475  17.473   6.450
 7504POPC   D2A40840  24.524  17.495   6.750
 7504POPC   C3A40841  24.461  17.490   7.050
 7504POPC   C4A40842  24.504  17.537   7.350
 7504POPC   C1B40843  24.500  17.230   6.450
 7504POPC   C2B40844  24.479  17.227   6.750
 7504POPC   C3B40845  24.500  17.298   7.050
 7504POPC   C4B40846  24.517  17.251   7.350
 7505POPC   NC340847  31.454  32.282   5.550
 7505POPC   PO440848  31.510  32.266   5.850
 7505POPC   GL140849  31.467  32.218   6.150
 7505POPC   GL240850  31.548  32.178   6.150
 7505POPC   C1A40851  31.431  32.293   6.450
 7505POPC   D2A40852  31.427  32.214   6.750
 7505POPC   C3A40853  31.474  32.244   7.050
 7505POPC   C4A40854  31.425  32.245   7.350
 7505POPC   C1B40855  31.654  32.045   6.450
 7505POPC   C2B40856  31.646  32.031   6.750
 7505POPC   C3B40857  31.598  32.053   7.050
 7505POPC   C4B40858  31.667  32.083   7.350
 7506POPC   NC340859  15.985  26.053   5.550
 7506POPC   PO440860  15.969  26.066   5.850
 7506POPC   GL140861  15.998  26.008   6.150
 7506POPC   GL240862  15.905  25.878   6.150
 7506POPC   C1A40863  15.932  26.028   6.450
 7506POPC   D2A40864  15.986  26.085   6.750
 7506POPC   C3A40865  15.951  26.018   7.050
 7506POPC   C4A40866  15.927  26.048   7.350
 7506POPC   C1B40867  15.875  25.791   6.450
 7506POPC   C2B40868  15.933  25.841   6.750
 7506POPC   C3B40869  15.867  25.753   7.050
 7506POPC   C4B40870  15.899  25.793   7.350
 7507POPC   NC340871  33.043   7.377   5.550
 7507POPC   PO440872  33.065   7.421   5.850
 7507POPC   GL140873  33.055   7.393   6.150
 7507POPC   GL240874  32.971   7.303   6.150
 7507POPC   C1A40875  33.023   7.403   6.450
 7507POPC   D2A40876  32.992   7.406   6.750
 7507POPC   C3A40877  33.045   7.388   7.050
 7507POPC   C4A40878  32.991   7.381   7.350
 7507POPC   C1B40879  32.838   7.223   6.450
 7507POPC   C2B40880  32.850   7.266   6.750
 7507POPC   C3B40881  32.858   7.247   7.050
 7507POPC   C4B40882  32.775   7.241   7.350
 7508POPC   NC340883  36.116   9.797   5.550
 7508POPC   PO440884  36.115   9.719   5.850
 7508POPC   GL140885  36.167   9.783   6.150
 7508POPC   GL240886  36.261   9.888   6.150
 7508POPC   C1A40887  36.150   9.739   6.450
 7508POPC   D2A40888  36.124   9.790   6.750
 7508POPC   C3A40889  36.097   9.740   7.050
 7508POPC   C4A40890  36.139   9.783   7.350
 7508POPC   C1B40891  36.286   9.904   6.450
 7508POPC   C2B40892  36.318   9.972   6.750
 7508POPC   C3B40893  36.321   9.948   7.050
 7508POPC   C4B40894  36.305   9.938   7.350
 7509POPC   NC340895  13.649  39.247   5.550
 7509POPC   PO440896  13.582  39.248   5.850
 7509POPC   GL140897  13.591  39.200   6.150
 7509POPC   GL240898  13.713  39.266   6.150
 7509POPC   C1A40899  13.660  39.212   6.450
 7509POPC   D2A40900  13.594  39.219   6.750
 7509POPC   C3A40901  13.654  39.259   7.050
 7509POPC   C4A40902  13.589  39.226   7.350
 7509POPC   C1B40903  13.842  39.212   6.450
 7509POPC   C2B40904  13.910  39.192   6.750
 7509POPC   C3B40905  13.850  39.251   7.050
 7509POPC   C4B40906  13.854  39.258   7.350
 7510POPC   NC340907  24.536  12.860   5.550
 7510POPC   PO440908  24.484  12.810   5.850
 7510POPC   GL140909  24.473  12.857   6.150
 7510POPC   GL240910  24.393  12.774   6.150
 7510POPC   C1A40911  24.524  12.846   6.450
 7510POPC   D2A40912  24.475  12.828   6.750
 7510POPC   C3A40913  24.482  12.858   7.050
 7510POPC   C4A40914  24.451  12.892   7.350
 7510POPC   C1B40915  24.292  12.701   6.450
 7510POPC   C2B40916  24.265  12.750   6.750
 7510POPC   C3B40917  24.226  12.751   7.050
 7510POPC   C4B40918  24.237  12.715   7.350
 7511POPC   NC340919  13.579  23.737   5.550
 7511POPC   PO440920  13.656  23.692   5.850
 7511POPC   GL140921  13.603  23.711   6.150
 7511POPC   GL240922  13.651  23.606   6.150
 7511POPC   C1A40923  13.613  23.710   6.450
 7511POPC   D2A40924  13.584  23.731   6.750
 7511POPC   C3A40925  13.660  23.736   7.050
 7511POPC   C4A40926  13.662  23.701   7.350
 7511POPC   C1B40927  13.655  23.490   6.450
 7511POPC   C2B40928  13.647  23.452   6.750
 7511POPC   C3B40929  13.636  23.443   7.050
 7511POPC   C4B40930  13.563  23.451   7.350
 7512POPC   NC340931  12.890   8.224   5.550
 7512POPC   PO440932  12.870   8.165   5.850
 7512POPC   GL140933  12.825   8.183   6.150
 7512POPC   GL240934  12.959   8.264   6.150
 7512POPC   C1A40935  12.811   8.244   6.450
 7512POPC   D2A40936  12.852   8.235   6.750
 7512POPC   C3A40937  12.876   8.196   7.050
 7512POPC   C4A40938  12.899   8.160   7.350
 7512POPC   C1B40939  13.096   8.309   6.450
 7512POPC   C2B40940  13.070   8.353   6.750
 7512POPC   C3B40941  13.125   8.312   7.050
 7512POPC   C4B40942  13.040   8.290   7.350
 7513POPC   NC340943  12.853  16.772   5.550
 7513POPC   PO440944  12.859  16.698   5.850
 7513POPC   GL140945  12.901  16.725   6.150
 7513POPC   GL240946  12.978  16.779   6.150
 7513POPC   C1A40947  12.827  16.769   6.450
 7513POPC   D2A40948  12.833  16.698   6.750
 7513POPC   C3A40949  12.824  16.727   7.050
 7513POPC   C4A40950  12.900  16.687   7.350
 7513POPC   C1B40951  13.143  16.755   6.450
 7513POPC   C2B40952  13.086  16.763   6.750
 7513POPC   C3B40953  13.104  16.754   7.050
 7513POPC   C4B40954  13.058  16.785   7.350
 7514POPC   NC340955  15.179  12.822   5.550
 7514POPC   PO440956  15.131  12.837   5.850
 7514POPC   GL140957  15.160  12.826   6.150
 7514POPC   GL240958  15.030  12.784   6.150
 7514POPC   C1A40959  15.183  12.888   6.450
 7514POPC   D2A40960  15.185  12.877   6.750
 7514POPC   C3A40961  15.215  12.815   7.050
 7514POPC   C4A40962  15.215  12.844   7.350
 7514POPC   C1B40963  14.972  12.765   6.450
 7514POPC   C2B40964  14.927  12.759   6.750
 7514POPC   C3B40965  14.963  12.788   7.050
 7514POPC   C4B40966  14.995  12.741   7.350
 7515POPC   NC340967  26.082  14.440   5.550
 7515POPC   PO440968  26.067  14.365   5.850
 7515POPC   GL140969  26.071  14.412   6.150
 7515POPC   GL240970  25.938  14.460   6.150
 7515POPC   C1A40971  26.011  14.420   6.450
 7515POPC   D2A40972  26.068  14.453   6.750
 7515POPC   C3A40973  26.045  14.380   7.050
 7515POPC   C4A40974  26.001  14.393   7.350
 7515POPC   C1B40975  25.784  14.498   6.450
 7515POPC   C2B40976  25.800  14.505   6.750
 7515POPC   C3B40977  25.863  14.550   7.050
 7515POPC   C4B40978  25.786  14.542   7.350
 7516POPC   NC340979  10.481   1.187   5.550
 7516POPC   PO440980  10.494   1.221   5.850
 7516POPC   GL140981  10.571   1.257   6.150
 7516POPC   GL240982  10.579   1.116   6.150
 7516POPC   C1A40983  10.559   1.196   6.450
 7516POPC   D2A40984  10.573   1.243   6.750
 7516POPC   C3A40985  10.557   1.176   7.050
 7516POPC   C4A40986  10.487   1.246   7.350
 7516POPC   C1B40987  10.620   0.988   6.450
 7516POPC   C2B40988  10.626   0.985   6.750
 7516POPC   C3B40989  10.650   0.993   7.050
 7516POPC   C4B40990  10.677   0.994   7.350
 7517POPC   NC340991  11.314  23.672   5.550
 7517POPC   PO440992  11.289  23.703   5.850
 7517POPC   GL140993  11.317  23.756   6.150
 7517POPC   GL240994  11.223  23.665   6.150
 7517POPC   C1A40995  11.250  23.699   6.450
 7517POPC   D2A40996  11.347  23.714   6.750
 7517POPC   C3A40997  11.262  23.670   7.050
 7517POPC   C4A40998  11.262  23.714   7.350
 7517POPC   C1B40999  11.088  23.612   6.450
 7517POPC   C2B41000  11.042  23.669   6.750
 7517POPC   C3B41001  11.080  23.645   7.050
 7517POPC   C4B41002  11.060  23.638   7.350
 7518POPC   NC341003  21.337  12.821   5.550
 7518POPC   PO441004  21.412  12.850   5.850
 7518POPC   GL141005  21.355  12.828   6.150
 7518POPC   GL241006  21.290  12.919   6.150
 7518POPC   C1A41007  21.417  12.866   6.450
 7518POPC   D2A41008  21.402  12.811   6.750
 7518POPC   C3A41009  21.376  12.811   7.050
 7518POPC   C4A41010  21.351  12.873   7.350
 7518POPC   C1B41011  21.186  12.950   6.450
 7518POPC   C2B41012  21.151  13.008   6.750
 7518POPC   C3B41013  21.134  13.005   7.050
 7518POPC   C4B41014  21.150  13.008   7.350
 7519POPC   NC341015  16.709  17.466   5.550
 7519POPC   PO441016  16.756  17.488   5.850
 7519POPC   GL141017  16.749  17.482   6.150
 7519POPC   GL241018  16.772  17.634   6.150
 7519POPC   C1A41019  16.728  17.517   6.450
 7519POPC   D2A41020  16.740  17.507   6.750
 7519POPC   C3A41021  16.703  17.512   7.050
 7519POPC   C4A41022  16.713  17.549   7.350
 7519POPC   C1B41023  16.859  17.712   6.450
 7519POPC   C2B41024  16.917  17.663   6.750
 7519POPC   C3B41025  16.899  17.694   7.050
 7519POPC   C4B41026  16.841  17.745   7.350
 7520POPC   NC341027  43.077  30.747   5.550
 7520POPC   PO441028  43.107  30.744   5.850
 7520POPC   GL141029  43.086  30.654   6.150
 7520POPC   GL241030  42.945  30.614   6.150
 7520POPC   C1A41031  43.115  30.674   6.450
 7520POPC   D2A41032  43.144  30.670   6.750
 7520POPC   C3A41033  43.141  30.685   7.050
 7520POPC   C4A41034  43.085  30.723   7.350
 7520POPC   C1B41035  42.914  30.616   6.450
 7520POPC   C2B41036  42.893  30.630   6.750
 7520POPC   C3B41037  42.859  30.644   7.050
 7520POPC   C4B41038  42.880  30.594   7.350
 7521POPC   NC341039   5.878  22.189   5.550
 7521POPC   PO441040   5.842  22.139   5.850
 7521POPC   GL141041   5.915  22.196   6.150
 7521POPC   GL241042   5.970  22.267   6.150
 7521POPC   C1A41043   5.894  22.186   6.450
 7521POPC   D2A41044   5.873  22.197   6.750
 7521POPC   C3A41045   5.819  22.133   7.050
 7521POPC   C4A41046   5.872  22.195   7.350
 7521POPC   C1B41047   6.097  22.298   6.450
 7521POPC   C2B41048   6.115  22.322   6.750
 7521POPC   C3B41049   6.081  22.320   7.050
 7521POPC   C4B41050   6.074  22.323   7.350
 7522POPC   NC341051  29.103  20.605   5.550
 7522POPC   PO441052  29.100  20.561   5.850
 7522POPC   GL141053  29.125  20.571   6.150
 7522POPC   GL241054  29.195  20.483   6.150
 7522POPC   C1A41055  29.130  20.625   6.450
 7522POPC   D2A41056  29.193  20.607   6.750
 7522POPC   C3A41057  29.172  20.601   7.050
 7522POPC   C4A41058  29.129  20.649   7.350
 7522POPC   C1B41059  29.304  20.386   6.450
 7522POPC   C2B41060  29.270  20.454   6.750
 7522POPC   C3B41061  29.341  20.442   7.050
 7522POPC   C4B41062  29.278  20.440   7.350
 7523POPC   NC341063  13.587  28.334   5.550
 7523POPC   PO441064  13.650  28.342   5.850
 7523POPC   GL141065  13.607  28.367   6.150
 7523POPC   GL241066  13.570  28.212   6.150
 7523POPC   C1A41067  13.612  28.387   6.450
 7523POPC   D2A41068  13.666  28.336   6.750
 7523POPC   C3A41069  13.619  28.358   7.050
 7523POPC   C4A41070  13.601  28.346   7.350
 7523POPC   C1B41071  13.557  28.091   6.450
 7523POPC   C2B41072  13.539  28.105   6.750
 7523POPC   C3B41073  13.525  28.109   7.050
 7523POPC   C4B41074  13.533  28.113   7.350
 7524POPC   NC341075  40.000  13.672   5.550
 7524POPC   PO441076  40.029  13.662   5.850
 7524POPC   GL141077  40.015  13.643   6.150
 7524POPC   GL241078  39.977  13.507   6.150
 7524POPC   C1A41079  40.044  13.650   6.450
 7524POPC   D2A41080  40.057  13.667   6.750
 7524POPC   C3A41081  40.012  13.671   7.050
 7524POPC   C4A41082  40.047  13.592   7.350
 7524POPC   C1B41083  39.834  13.383   6.450
 7524POPC   C2B41084  39.856  13.421   6.750
 7524POPC   C3B41085  39.896  13.404   7.050
 7524POPC   C4B41086  39.887  13.379   7.350
 7525POPC   NC341087  40.798  14.424   5.550
 7525POPC   PO441088  40.832  14.413   5.850
 7525POPC   GL141089  40.822  14.448   6.150
 7525POPC   GL241090  40.690  14.543   6.150
 7525POPC   C1A41091  40.776  14.444   6.450
 7525POPC   D2A41092  40.781  14.434   6.750
 7525POPC   C3A41093  40.783  14.437   7.050
 7525POPC   C4A41094  40.831  14.405   7.350
 7525POPC   C1B41095  40.608  14.604   6.450
 7525POPC   C2B41096  40.624  14.573   6.750
 7525POPC   C3B41097  40.633  14.588   7.050
 7525POPC   C4B41098  40.631  14.610   7.350
 7526POPC   NC341099  17.501  26.015   5.550
 7526POPC   PO441100  17.532  26.057   5.850
 7526POPC   GL141101  17.460  26.014   6.150
 7526POPC   GL241102  17.608  26.188   6.150
 7526POPC   C1A41103  17.530  25.993   6.450
 7526POPC   D2A41104  17.518  26.046   6.750
 7526POPC   C3A41105  17.550  26.080   7.050
 7526POPC   C4A41106  17.474  26.027   7.350
 7526POPC   C1B41107  17.663  26.311   6.450
 7526POPC   C2B41108  17.615  26.255   6.750
 7526POPC   C3B41109  17.639  26.262   7.050
 7526POPC   C4B41110  17.669  26.228   7.350
 7527POPC   NC341111  32.296  24.502   5.550
 7527POPC   PO441112  32.225  24.496   5.850
 7527POPC   GL141113  32.283  24.521   6.150
 7527POPC   GL241114  32.244  24.364   6.150
 7527POPC   C1A41115  32.271  24.505   6.450
 7527POPC   D2A41116  32.260  24.522   6.750
 7527POPC   C3A41117  32.253  24.521   7.050
 7527POPC   C4A41118  32.253  24.484   7.350
 7527POPC   C1B41119  32.342  24.287   6.450
 7527POPC   C2B41120  32.315  24.266   6.750
 7527POPC   C3B41121  32.304  24.285   7.050
 7527POPC   C4B41122  32.300  24.217   7.350
 7528POPC   NC341123  15.948   8.991   5.550
 7528POPC   PO441124  15.953   8.974   5.850
 7528POPC   GL141125  15.965   8.950   6.150
 7528POPC   GL241126  16.004   8.853   6.150
 7528POPC   C1A41127  15.972   8.924   6.450
 7528POPC   D2A41128  15.954   8.931   6.750
 7528POPC   C3A41129  15.993   9.016   7.050
 7528POPC   C4A41130  15.969   8.969   7.350
 7528POPC   C1B41131  16.116   8.783   6.450
 7528POPC   C2B41132  16.128   8.780   6.750
 7528POPC   C3B41133  16.083   8.738   7.050
 7528POPC   C4B41134  16.085   8.706   7.350
 7529POPC   NC341135  40.008  16.682   5.550
 7529POPC   PO441136  39.959  16.696   5.850
 7529POPC   GL141137  39.986  16.719   6.150
 7529POPC   GL241138  40.012  16.845   6.150
 7529POPC   C1A41139  40.009  16.692   6.450
 7529POPC   D2A41140  39.969  16.734   6.750
 7529POPC   C3A41141  40.041  16.698   7.050
 7529POPC   C4A41142  40.037  16.737   7.350
 7529POPC   C1B41143  39.927  16.994   6.450
 7529POPC   C2B41144  39.958  16.982   6.750
 7529POPC   C3B41145  39.997  16.988   7.050
 7529POPC   C4B41146  39.947  16.995   7.350
 7530POPC   NC341147  15.990  21.413   5.550
 7530POPC   PO441148  15.915  21.391   5.850
 7530POPC   GL141149  15.946  21.351   6.150
 7530POPC   GL241150  16.075  21.439   6.150
 7530POPC   C1A41151  15.980  21.348   6.450
 7530POPC   D2A41152  15.994  21.407   6.750
 7530POPC   C3A41153  15.961  21.415   7.050
 7530POPC   C4A41154  15.950  21.425   7.350
 7530POPC   C1B41155  16.222  21.449   6.450
 7530POPC   C2B41156  16.237  21.451   6.750
 7530POPC   C3B41157  16.241  21.414   7.050
 7530POPC   C4B41158  16.217  21.442   7.350
 7531POPC   NC341159  18.240  43.888   5.550
 7531POPC   PO441160  18.298  43.869   5.850
 7531POPC   GL141161  18.329  43.895   6.150
 7531POPC   GL241162  18.217  43.780   6.150
 7531POPC   C1A41163  18.299  43.845   6.450
 7531POPC   D2A41164  18.288  43.866   6.750
 7531POPC   C3A41165  18.330  43.891   7.050
 7531POPC   C4A41166  18.331  43.874   7.350
 7531POPC   C1B41167  18.255  43.653   6.450
 7531POPC   C2B41168  18.208  43.593   6.750
 7531POPC   C3B41169  18.255  43.684   7.050
 7531POPC   C4B41170  18.198  43.639   7.350
 7532POPC   NC341171  25.252  22.893   5.550
 7532POPC   PO441172  25.226  22.941   5.850
 7532POPC   GL141173  25.307  22.935   6.150
 7532POPC   GL241174  25.104  22.928   6.150
 7532POPC   C1A41175  25.246  22.958   6.450
 7532POPC   D2A41176  25.241  22.960   6.750
 7532POPC   C3A41177  25.244  22.921   7.050
 7532POPC   C4A41178  25.271  22.936   7.350
 7532POPC   C1B41179  24.982  22.938   6.450
 7532POPC   C2B41180  24.998  22.890   6.750
 7532POPC   C3B41181  25.019  22.877   7.050
 7532POPC   C4B41182  25.064  22.939   7.350
 7533POPC   NC341183  24.504  37.681   5.550
 7533POPC   PO441184  24.505  37.677   5.850
 7533POPC   GL141185  24.517  37.642   6.150
 7533POPC   GL241186  24.385  37.601   6.150
 7533POPC   C1A41187  24.489  37.694   6.450
 7533POPC   D2A41188  24.517  37.721   6.750
 7533POPC   C3A41189  24.479  37.655   7.050
 7533POPC   C4A41190  24.452  37.720   7.350
 7533POPC   C1B41191  24.290  37.608   6.450
 7533POPC   C2B41192  24.290  37.567   6.750
 7533POPC   C3B41193  24.244  37.603   7.050
 7533POPC   C4B41194  24.267  37.598   7.350
 7534POPC   NC341195   5.884  30.647   5.550
 7534POPC   PO441196   5.895  30.718   5.850
 7534POPC   GL141197   5.880  30.695   6.150
 7534POPC   GL241198   5.741  30.775   6.150
 7534POPC   C1A41199   5.916  30.654   6.450
 7534POPC   D2A41200   5.880  30.692   6.750
 7534POPC   C3A41201   5.849  30.717   7.050
 7534POPC   C4A41202   5.856  30.663   7.350
 7534POPC   C1B41203   5.677  30.873   6.450
 7534POPC   C2B41204   5.633  30.833   6.750
 7534POPC   C3B41205   5.630  30.789   7.050
 7534POPC   C4B41206   5.677  30.844   7.350
 7535POPC   NC341207  18.305  17.478   5.550
 7535POPC   PO441208  18.312  17.535   5.850
 7535POPC   GL141209  18.327  17.530   6.150
 7535POPC   GL241210  18.450  17.510   6.150
 7535POPC   C1A41211  18.286  17.491   6.450
 7535POPC   D2A41212  18.290  17.522   6.750
 7535POPC   C3A41213  18.285  17.546   7.050
 7535POPC   C4A41214  18.324  17.469   7.350
 7535POPC   C1B41215  18.575  17.467   6.450
 7535POPC   C2B41216  18.560  17.479   6.750
 7535POPC   C3B41217  18.556  17.459   7.050
 7535POPC   C4B41218  18.491  17.472   7.350
 7536POPC   NC341219  33.043  26.861   5.550
 7536POPC   PO441220  33.019  26.768   5.850
 7536POPC   GL141221  33.020  26.859   6.150
 7536POPC   GL241222  33.170  26.768   6.150
 7536POPC   C1A41223  33.055  26.820   6.450
 7536POPC   D2A41224  33.015  26.807   6.750
 7536POPC   C3A41225  33.034  26.779   7.050
 7536POPC   C4A41226  33.042  26.827   7.350
 7536POPC   C1B41227  33.272  26.733   6.450
 7536POPC   C2B41228  33.244  26.718   6.750
 7536POPC   C3B41229  33.212  26.692   7.050
 7536POPC   C4B41230  33.283  26.677   7.350
 7537POPC   NC341231   0.410  15.934   5.550
 7537POPC   PO441232   0.422  15.961   5.850
 7537POPC   GL141233   0.419  15.951   6.150
 7537POPC   GL241234   0.556  15.985   6.150
 7537POPC   C1A41235   0.402  15.945   6.450
 7537POPC   D2A41236   0.443  15.946   6.750
 7537POPC   C3A41237   0.441  15.921   7.050
 7537POPC   C4A41238   0.461  15.952   7.350
 7537POPC   C1B41239   0.685  16.125   6.450
 7537POPC   C2B41240   0.654  16.103   6.750
 7537POPC   C3B41241   0.645  16.098   7.050
 7537POPC   C4B41242   0.703  16.120   7.350
 7538POPC   NC341243  18.321   9.785   5.550
 7538POPC   PO441244  18.276   9.778   5.850
 7538POPC   GL141245  18.305   9.727   6.150
 7538POPC   GL241246  18.205   9.650   6.150
 7538POPC   C1A41247  18.297   9.777   6.450
 7538POPC   D2A41248  18.329   9.793   6.750
 7538POPC   C3A41249  18.332   9.703   7.050
 7538POPC   C4A41250  18.309   9.781   7.350
 7538POPC   C1B41251  18.122   9.498   6.450
 7538POPC   C2B41252  18.121   9.524   6.750
 7538POPC   C3B41253  18.108   9.537   7.050
 7538POPC   C4B41254  18.119   9.532   7.350
 7539POPC   NC341255  21.416   8.188   5.550
 7539POPC   PO441256  21.399   8.199   5.850
 7539POPC   GL141257  21.385   8.246   6.150
 7539POPC   GL241258  21.464   8.190   6.150
 7539POPC   C1A41259  21.391   8.206   6.450
 7539POPC   D2A41260  21.361   8.169   6.750
 7539POPC   C3A41261  21.397   8.195   7.050
 7539POPC   C4A41262  21.402   8.192   7.350
 7539POPC   C1B41263  21.652   8.222   6.450
 7539POPC   C2B41264  21.622   8.191   6.750
 7539POPC   C3B41265  21.657   8.237   7.050
 7539POPC   C4B41266  21.654   8.219   7.350
 7540POPC   NC341267  19.105  44.675   5.550
 7540POPC   PO441268  19.105  44.653   5.850
 7540POPC   GL141269  19.043  44.658   6.150
 7540POPC   GL241270  19.141  44.721   6.150
 7540POPC   C1A41271  19.085  44.656   6.450
 7540POPC   D2A41272  19.065  44.677   6.750
 7540POPC   C3A41273  19.045  44.634   7.050
 7540POPC   C4A41274  19.101  44.630   7.350
 7540POPC   C1B41275  19.303  44.715   6.450
 7540POPC   C2B41276  19.254  44.758   6.750
 7540POPC   C3B41277  19.274  44.780   7.050
 7540POPC   C4B41278  19.250  44.750   7.350
 7541POPC   NC341279   5.887  26.010   5.550
 7541POPC   PO441280   5.877  26.043   5.850
 7541POPC   GL141281   5.844  26.049   6.150
 7541POPC   GL241282   6.002  25.970   6.150
 7541POPC   C1A41283   5.821  26.070   6.450
 7541POPC   D2A41284   5.899  26.009   6.750
 7541POPC   C3A41285   5.915  26.084   7.050
 7541POPC   C4A41286   5.897  26.069   7.350
 7541POPC   C1B41287   6.076  25.865   6.450
 7541POPC   C2B41288   6.027  25.926   6.750
 7541POPC   C3B41289   6.051  25.913   7.050
 7541POPC   C4B41290   6.081  25.897   7.350
 7542POPC   NC341291   8.997   1.959   5.550
 7542POPC   PO441292   8.999   1.940   5.850
 7542POPC   GL141293   8.931   2.013   6.150
 7542POPC   GL241294   8.941   2.127   6.150
 7542POPC   C1A41295   8.983   1.998   6.450
 7542POPC   D2A41296   9.012   1.974   6.750
 7542POPC   C3A41297   8.994   1.988   7.050
 7542POPC   C4A41298   8.965   1.945   7.350
 7542POPC   C1B41299   8.891   2.270   6.450
 7542POPC   C2B41300   8.925   2.226   6.750
 7542POPC   C3B41301   8.860   2.211   7.050
 7542POPC   C4B41302   8.890   2.249   7.350
 7543POPC   NC341303  36.091  26.054   5.550
 7543POPC   PO441304  36.142  26.002   5.850
 7543POPC   GL141305  36.161  26.065   6.150
 7543POPC   GL241306  36.237  25.998   6.150
 7543POPC   C1A41307  36.160  26.036   6.450
 7543POPC   D2A41308  36.084  26.006   6.750
 7543POPC   C3A41309  36.176  26.090   7.050
 7543POPC   C4A41310  36.107  26.091   7.350
 7543POPC   C1B41311  36.308  25.910   6.450
 7543POPC   C2B41312  36.319  25.912   6.750
 7543POPC   C3B41313  36.332  25.906   7.050
 7543POPC   C4B41314  36.350  25.903   7.350
 7544POPC   NC341315  44.694   5.109   5.550
 7544POPC   PO441316  44.628   5.125   5.850
 7544POPC   GL141317  44.672   5.121   6.150
 7544POPC   GL241318  44.514   5.046   6.150
 7544POPC   C1A41319  44.651   5.056   6.450
 7544POPC   D2A41320  44.643   5.075   6.750
 7544POPC   C3A41321  44.680   5.115   7.050
 7544POPC   C4A41322  44.646   5.081   7.350
 7544POPC   C1B41323  44.442   4.954   6.450
 7544POPC   C2B41324  44.466   4.938   6.750
 7544POPC   C3B41325  44.433   4.959   7.050
 7544POPC   C4B41326  44.435   4.927   7.350
 7545POPC   NC341327  19.825   7.467   5.550
 7545POPC   PO441328  19.818   7.451   5.850
 7545POPC   GL141329  19.876   7.385   6.150
 7545POPC   GL241330  19.889   7.285   6.150
 7545POPC   C1A41331  19.835   7.435   6.450
 7545POPC   D2A41332  19.794   7.467   6.750
 7545POPC   C3A41333  19.874   7.425   7.050
 7545POPC   C4A41334  19.875   7.462   7.350
 7545POPC   C1B41335  19.923   7.218   6.450
 7545POPC   C2B41336  19.867   7.203   6.750
 7545POPC   C3B41337  19.856   7.162   7.050
 7545POPC   C4B41338  19.908   7.213   7.350
 7546POPC   NC341339   5.822  15.229   5.550
 7546POPC   PO441340   5.852  15.145   5.850
 7546POPC   GL141341   5.890  15.152   6.150
 7546POPC   GL241342   5.946  15.335   6.150
 7546POPC   C1A41343   5.869  15.151   6.450
 7546POPC   D2A41344   5.876  15.209   6.750
 7546POPC   C3A41345   5.880  15.212   7.050
 7546POPC   C4A41346   5.878  15.182   7.350
 7546POPC   C1B41347   5.920  15.428   6.450
 7546POPC   C2B41348   5.956  15.436   6.750
 7546POPC   C3B41349   5.980  15.440   7.050
 7546POPC   C4B41350   5.944  15.369   7.350
 7547POPC   NC341351  19.102  24.483   5.550
 7547POPC   PO441352  19.106  24.516   5.850
 7547POPC   GL141353  19.055  24.493   6.150
 7547POPC   GL241354  19.189  24.545   6.150
 7547POPC   C1A41355  19.039  24.444   6.450
 7547POPC   D2A41356  19.077  24.494   6.750
 7547POPC   C3A41357  19.054  24.537   7.050
 7547POPC   C4A41358  19.028  24.505   7.350
 7547POPC   C1B41359  19.281  24.553   6.450
 7547POPC   C2B41360  19.284  24.559   6.750
 7547POPC   C3B41361  19.296  24.561   7.050
 7547POPC   C4B41362  19.324  24.474   7.350
 7548POPC   NC341363  16.737  10.569   5.550
 7548POPC   PO441364  16.775  10.523   5.850
 7548POPC   GL141365  16.731  10.513   6.150
 7548POPC   GL241366  16.806  10.530   6.150
 7548POPC   C1A41367  16.744  10.486   6.450
 7548POPC   D2A41368  16.687  10.554   6.750
 7548POPC   C3A41369  16.748  10.553   7.050
 7548POPC   C4A41370  16.694  10.534   7.350
 7548POPC   C1B41371  16.989  10.558   6.450
 7548POPC   C2B41372  17.014  10.607   6.750
 7548POPC   C3B41373  16.995  10.543   7.050
 7548POPC   C4B41374  17.026  10.574   7.350
 7549POPC   NC341375  15.170  10.558   5.550
 7549POPC   PO441376  15.142  10.560   5.850
 7549POPC   GL141377  15.185  10.533   6.150
 7549POPC   GL241378  15.105  10.400   6.150
 7549POPC   C1A41379  15.174  10.499   6.450
 7549POPC   D2A41380  15.162  10.480   6.750
 7549POPC   C3A41381  15.193  10.535   7.050
 7549POPC   C4A41382  15.185  10.545   7.350
 7549POPC   C1B41383  15.138  10.295   6.450
 7549POPC   C2B41384  15.075  10.249   6.750
 7549POPC   C3B41385  15.056  10.333   7.050
 7549POPC   C4B41386  15.065  10.265   7.350
 7550POPC   NC341387   5.825  16.719   5.550
 7550POPC   PO441388   5.895  16.726   5.850
 7550POPC   GL141389   5.894  16.705   6.150
 7550POPC   GL241390   5.960  16.806   6.150
 7550POPC   C1A41391   5.842  16.705   6.450
 7550POPC   D2A41392   5.919  16.703   6.750
 7550POPC   C3A41393   5.829  16.694   7.050
 7550POPC   C4A41394   5.886  16.693   7.350
 7550POPC   C1B41395   6.138  16.782   6.450
 7550POPC   C2B41396   6.114  16.786   6.750
 7550POPC   C3B41397   6.113  16.771   7.050
 7550POPC   C4B41398   6.136  16.832   7.350
 7551POPC   NC341399  31.493  40.816   5.550
 7551POPC   PO441400  31.515  40.797   5.850
 7551POPC   GL141401  31.425  40.756   6.150
 7551POPC   GL241402  31.502  40.927   6.150
 7551POPC   C1A41403  31.495  40.753   6.450
 7551POPC   D2A41404  31.477  40.777   6.750
 7551POPC   C3A41405  31.481  40.800   7.050
 7551POPC   C4A41406  31.477  40.829   7.350
 7551POPC   C1B41407  31.639  41.018   6.450
 7551POPC   C2B41408  31.589  41.029   6.750
 7551POPC   C3B41409  31.646  41.020   7.050
 7551POPC   C4B41410  31.606  40.958   7.350
 7552POPC   NC341411  29.166  36.147   5.550
 7552POPC   PO441412  29.151  36.118   5.850
 7552POPC   GL141413  29.166  36.121   6.150
 7552POPC   GL241414  29.031  36.165   6.150
 7552POPC   C1A41415  29.130  36.096   6.450
 7552POPC   D2A41416  29.152  36.149   6.750
 7552POPC   C3A41417  29.095  36.105   7.050
 7552POPC   C4A41418  29.154  36.123   7.350
 7552POPC   C1B41419  28.900  36.160   6.450
 7552POPC   C2B41420  28.858  36.109   6.750
 7552POPC   C3B41421  28.906  36.109   7.050
 7552POPC   C4B41422  28.849  36.109   7.350
 7553POPC   NC341423  10.554   5.110   5.550
 7553POPC   PO441424  10.505   5.111   5.850
 7553POPC   GL141425  10.510   5.103   6.150
 7553POPC   GL241426  10.602   5.101   6.150
 7553POPC   C1A41427  10.516   5.107   6.450
 7553POPC   D2A41428  10.495   5.112   6.750
 7553POPC   C3A41429  10.485   5.118   7.050
 7553POPC   C4A41430  10.489   5.103   7.350
 7553POPC   C1B41431  10.754   5.211   6.450
 7553POPC   C2B41432  10.709   5.235   6.750
 7553POPC   C3B41433  10.778   5.190   7.050
 7553POPC   C4B41434  10.707   5.178   7.350
 7554POPC   NC341435   5.075   0.484   5.550
 7554POPC   PO441436   5.139   0.412   5.850
 7554POPC   GL141437   5.085   0.425   6.150
 7554POPC   GL241438   5.133   0.516   6.150
 7554POPC   C1A41439   5.089   0.429   6.450
 7554POPC   D2A41440   5.132   0.423   6.750
 7554POPC   C3A41441   5.069   0.469   7.050
 7554POPC   C4A41442   5.044   0.481   7.350
 7554POPC   C1B41443   5.182   0.678   6.450
 7554POPC   C2B41444   5.185   0.653   6.750
 7554POPC   C3B41445   5.189   0.679   7.050
 7554POPC   C4B41446   5.139   0.685   7.350
 7555POPC   NC341447  35.324  25.260   5.550
 7555POPC   PO441448  35.390  25.277   5.850
 7555POPC   GL141449  35.386  25.254   6.150
 7555POPC   GL241450  35.317  25.382   6.150
 7555POPC   C1A41451  35.334  25.275   6.450
 7555POPC   D2A41452  35.307  25.225   6.750
 7555POPC   C3A41453  35.314  25.244   7.050
 7555POPC   C4A41454  35.311  25.221   7.350
 7555POPC   C1B41455  35.189  25.443   6.450
 7555POPC   C2B41456  35.221  25.455   6.750
 7555POPC   C3B41457  35.210  25.491   7.050
 7555POPC   C4B41458  35.227  25.491   7.350
 7556POPC   NC341459  36.953  19.866   5.550
 7556POPC   PO441460  36.905  19.837   5.850
 7556POPC   GL141461  36.885  19.831   6.150
 7556POPC   GL241462  36.742  19.865   6.150
 7556POPC   C1A41463  36.928  19.816   6.450
 7556POPC   D2A41464  36.903  19.859   6.750
 7556POPC   C3A41465  36.885  19.793   7.050
 7556POPC   C4A41466  36.871  19.838   7.350
 7556POPC   C1B41467  36.663  19.845   6.450
 7556POPC   C2B41468  36.677  19.836   6.750
 7556POPC   C3B41469  36.646  19.790   7.050
 7556POPC   C4B41470  36.690  19.859   7.350
 7557POPC   NC341471  38.489  32.219   5.550
 7557POPC   PO441472  38.498  32.288   5.850
 7557POPC   GL141473  38.452  32.256   6.150
 7557POPC   GL241474  38.298  32.242   6.150
 7557POPC   C1A41475  38.493  32.257   6.450
 7557POPC   D2A41476  38.461  32.276   6.750
 7557POPC   C3A41477  38.499  32.235   7.050
 7557POPC   C4A41478  38.500  32.236   7.350
 7557POPC   C1B41479  38.231  32.284   6.450
 7557POPC   C2B41480  38.204  32.282   6.750
 7557POPC   C3B41481  38.214  32.241   7.050
 7557POPC   C4B41482  38.182  32.249   7.350
 7558POPC   NC341483  42.354   3.591   5.550
 7558POPC   PO441484  42.309   3.525   5.850
 7558POPC   GL141485  42.343   3.515   6.150
 7558POPC   GL241486  42.206   3.437   6.150
 7558POPC   C1A41487  42.297   3.511   6.450
 7558POPC   D2A41488  42.354   3.549   6.750
 7558POPC   C3A41489  42.383   3.509   7.050
 7558POPC   C4A41490  42.317   3.492   7.350
 7558POPC   C1B41491  42.168   3.359   6.450
 7558POPC   C2B41492  42.136   3.369   6.750
 7558POPC   C3B41493  42.196   3.397   7.050
 7558POPC   C4B41494  42.218   3.369   7.350
 7559POPC   NC341495  31.448   7.394   5.550
 7559POPC   PO441496  31.450   7.400   5.850
 7559POPC   GL141497  31.446   7.400   6.150
 7559POPC   GL241498  31.564   7.489   6.150
 7559POPC   C1A41499  31.434   7.385   6.450
 7559POPC   D2A41500  31.452   7.398   6.750
 7559POPC   C3A41501  31.430   7.384   7.050
 7559POPC   C4A41502  31.473   7.433   7.350
 7559POPC   C1B41503  31.654   7.597   6.450
 7559POPC   C2B41504  31.657   7.613   6.750
 7559POPC   C3B41505  31.624   7.624   7.050
 7559POPC   C4B41506  31.590   7.647   7.350
 7560POPC   NC341507  32.204  19.042   5.550
 7560POPC   PO441508  32.270  19.070   5.850
 7560POPC   GL141509  32.265  19.096   6.150
 7560POPC   GL241510  32.251  18.946   6.150
 7560POPC   C1A41511  32.200  19.108   6.450
 7560POPC   D2A41512  32.207  19.044   6.750
 7560POPC   C3A41513  32.273  19.056   7.050
 7560POPC   C4A41514  32.243  19.095   7.350
 7560POPC   C1B41515  32.308  18.793   6.450
 7560POPC   C2B41516  32.330  18.818   6.750
 7560POPC   C3B41517  32.327  18.837   7.050
 7560POPC   C4B41518  32.264  18.856   7.350
 7561POPC   NC341519   3.553  41.606   5.550
 7561POPC   PO441520   3.520  41.534   5.850
 7561POPC   GL141521   3.528  41.543   6.150
 7561POPC   GL241522   3.398  41.569   6.150
 7561POPC   C1A41523   3.574  41.520   6.450
 7561POPC   D2A41524   3.548  41.542   6.750
 7561POPC   C3A41525   3.553  41.536   7.050
 7561POPC   C4A41526   3.541  41.556   7.350
 7561POPC   C1B41527   3.266  41.561   6.450
 7561POPC   C2B41528   3.308  41.565   6.750
 7561POPC   C3B41529   3.266  41.590   7.050
 7561POPC   C4B41530   3.287  41.527   7.350
 7562POPC   NC341531  21.418  14.442   5.550
 7562POPC   PO441532  21.381  14.404   5.850
 7562POPC   GL141533  21.381  14.359   6.150
 7562POPC   GL241534  21.288  14.464   6.150
 7562POPC   C1A41535  21.390  14.407   6.450
 7562POPC   D2A41536  21.426  14.360   6.750
 7562POPC   C3A41537  21.364  14.422   7.050
 7562POPC   C4A41538  21.434  14.449   7.350
 7562POPC   C1B41539  21.189  14.606   6.450
 7562POPC   C2B41540  21.190  14.606   6.750
 7562POPC   C3B41541  21.177  14.551   7.050
 7562POPC   C4B41542  21.268  14.643   7.350
 7563POPC   NC341543  38.459   8.993   5.550
 7563POPC   PO441544  38.486   8.975   5.850
 7563POPC   GL141545  38.436   8.935   6.150
 7563POPC   GL241546  38.512   9.023   6.150
 7563POPC   C1A41547  38.497   8.941   6.450
 7563POPC   D2A41548  38.441   8.962   6.750
 7563POPC   C3A41549  38.425   9.021   7.050
 7563POPC   C4A41550  38.475   8.959   7.350
 7563POPC   C1B41551  38.661   9.128   6.450
 7563POPC   C2B41552  38.674   9.166   6.750
 7563POPC   C3B41553  38.611   9.147   7.050
 7563POPC   C4B41554  38.612   9.153   7.350
 7564POPC   NC341555  25.240  21.419   5.550
 7564POPC   PO441556  25.264  21.376   5.850
 7564POPC   GL141557  25.291  21.336   6.150
 7564POPC   GL241558  25.250  21.515   6.150
 7564POPC   C1A41559  25.271  21.390   6.450
 7564POPC   D2A41560  25.309  21.365   6.750
 7564POPC   C3A41561  25.257  21.422   7.050
 7564POPC   C4A41562  25.258  21.371   7.350
 7564POPC   C1B41563  25.109  21.571   6.450
 7564POPC   C2B41564  25.152  21.614   6.750
 7564POPC   C3B41565  25.166  21.563   7.050
 7564POPC   C4B41566  25.166  21.588   7.350
 7565POPC   NC341567  24.449  21.343   5.550
 7565POPC   PO441568  24.454  21.430   5.850
 7565POPC   GL141569  24.462  21.352   6.150
 7565POPC   GL241570  24.647  21.351   6.150
 7565POPC   C1A41571  24.535  21.358   6.450
 7565POPC   D2A41572  24.520  21.366   6.750
 7565POPC   C3A41573  24.458  21.352   7.050
 7565POPC   C4A41574  24.479  21.368   7.350
 7565POPC   C1B41575  24.690  21.420   6.450
 7565POPC   C2B41576  24.736  21.363   6.750
 7565POPC   C3B41577  24.763  21.420   7.050
 7565POPC   C4B41578  24.721  21.406   7.350
 7566POPC   NC341579  11.301  25.298   5.550
 7566POPC   PO441580  11.300  25.267   5.850
 7566POPC   GL141581  11.336  25.242   6.150
 7566POPC   GL241582  11.301  25.397   6.150
 7566POPC   C1A41583  11.304  25.310   6.450
 7566POPC   D2A41584  11.350  25.265   6.750
 7566POPC   C3A41585  11.335  25.221   7.050
 7566POPC   C4A41586  11.313  25.224   7.350
 7566POPC   C1B41587  11.256  25.482   6.450
 7566POPC   C2B41588  11.217  25.480   6.750
 7566POPC   C3B41589  11.258  25.532   7.050
 7566POPC   C4B41590  11.218  25.530   7.350
 7567POPC   NC341591  25.239  35.368   5.550
 7567POPC   PO441592  25.305  35.313   5.850
 7567POPC   GL141593  25.227  35.317   6.150
 7567POPC   GL241594  25.341  35.299   6.150
 7567POPC   C1A41595  25.256  35.349   6.450
 7567POPC   D2A41596  25.296  35.346   6.750
 7567POPC   C3A41597  25.218  35.381   7.050
 7567POPC   C4A41598  25.243  35.392   7.350
 7567POPC   C1B41599  25.511  35.174   6.450
 7567POPC   C2B41600  25.526  35.181   6.750
 7567POPC   C3B41601  25.508  35.206   7.050
 7567POPC   C4B41602  25.468  35.197   7.350
 7568POPC   NC341603  25.295  43.093   5.550
 7568POPC   PO441604  25.242  43.122   5.850
 7568POPC   GL141605  25.282  43.072   6.150
 7568POPC   GL241606  25.383  43.132   6.150
 7568POPC   C1A41607  25.266  43.065   6.450
 7568POPC   D2A41608  25.241  43.147   6.750
 7568POPC   C3A41609  25.263  43.093   7.050
 7568POPC   C4A41610  25.303  43.152   7.350
 7568POPC   C1B41611  25.521  43.052   6.450
 7568POPC   C2B41612  25.495  43.038   6.750
 7568POPC   C3B41613  25.488  43.041   7.050
 7568POPC   C4B41614  25.547  43.097   7.350
 7569POPC   NC341615  22.910  23.723   5.550
 7569POPC   PO441616  22.924  23.680   5.850
 7569POPC   GL141617  22.960  23.706   6.150
 7569POPC   GL241618  22.818  23.623   6.150
 7569POPC   C1A41619  22.987  23.702   6.450
 7569POPC   D2A41620  22.915  23.755   6.750
 7569POPC   C3A41621  22.901  23.717   7.050
 7569POPC   C4A41622  22.914  23.755   7.350
 7569POPC   C1B41623  22.732  23.599   6.450
 7569POPC   C2B41624  22.716  23.529   6.750
 7569POPC   C3B41625  22.685  23.579   7.050
 7569POPC   C4B41626  22.737  23.530   7.350
 7570POPC   NC341627   6.634  25.247   5.550
 7570POPC   PO441628   6.604  25.246   5.850
 7570POPC   GL141629   6.660  25.221   6.150
 7570POPC   GL241630   6.633  25.418   6.150
 7570POPC   C1A41631   6.665  25.220   6.450
 7570POPC   D2A41632   6.632  25.307   6.750
 7570POPC   C3A41633   6.666  25.314   7.050
 7570POPC   C4A41634   6.627  25.238   7.350
 7570POPC   C1B41635   6.710  25.545   6.450
 7570POPC   C2B41636   6.625  25.504   6.750
 7570POPC   C3B41637   6.680  25.549   7.050
 7570POPC   C4B41638   6.633  25.472   7.350
 7571POPC   NC341639  15.132  12.051   5.550
 7571POPC   PO441640  15.151  12.072   5.850
 7571POPC   GL141641  15.135  12.121   6.150
 7571POPC   GL241642  15.248  11.981   6.150
 7571POPC   C1A41643  15.186  12.108   6.450
 7571POPC   D2A41644  15.153  12.053   6.750
 7571POPC   C3A41645  15.227  12.069   7.050
 7571POPC   C4A41646  15.166  12.026   7.350
 7571POPC   C1B41647  15.363  11.840   6.450
 7571POPC   C2B41648  15.340  11.864   6.750
 7571POPC   C3B41649  15.320  11.836   7.050
 7571POPC   C4B41650  15.316  11.901   7.350
 7572POPC   NC341651  36.132  32.293   5.550
 7572POPC   PO441652  36.099  32.275   5.850
 7572POPC   GL141653  36.152  32.297   6.150
 7572POPC   GL241654  36.087  32.310   6.150
 7572POPC   C1A41655  36.093  32.199   6.450
 7572POPC   D2A41656  36.080  32.246   6.750
 7572POPC   C3A41657  36.098  32.205   7.050
 7572POPC   C4A41658  36.080  32.200   7.350
 7572POPC   C1B41659  36.042  32.473   6.450
 7572POPC   C2B41660  35.981  32.484   6.750
 7572POPC   C3B41661  36.060  32.495   7.050
 7572POPC   C4B41662  35.971  32.466   7.350
 7573POPC   NC341663  19.788  32.276   5.550
 7573POPC   PO441664  19.834  32.228   5.850
 7573POPC   GL141665  19.816  32.245   6.150
 7573POPC   GL241666  19.787  32.320   6.150
 7573POPC   C1A41667  19.807  32.290   6.450
 7573POPC   D2A41668  19.813  32.254   6.750
 7573POPC   C3A41669  19.819  32.263   7.050
 7573POPC   C4A41670  19.820  32.244   7.350
 7573POPC   C1B41671  19.677  32.442   6.450
 7573POPC   C2B41672  19.621  32.417   6.750
 7573POPC   C3B41673  19.629  32.379   7.050
 7573POPC   C4B41674  19.686  32.368   7.350
 7574POPC   NC341675   7.401  31.430   5.550
 7574POPC   PO441676   7.424  31.487   5.850
 7574POPC   GL141677   7.461  31.480   6.150
 7574POPC   GL241678   7.408  31.400   6.150
 7574POPC   C1A41679   7.424  31.473   6.450
 7574POPC   D2A41680   7.449  31.467   6.750
 7574POPC   C3A41681   7.415  31.492   7.050
 7574POPC   C4A41682   7.459  31.460   7.350
 7574POPC   C1B41683   7.462  31.270   6.450
 7574POPC   C2B41684   7.524  31.222   6.750
 7574POPC   C3B41685   7.530  31.233   7.050
 7574POPC   C4B41686   7.450  31.272   7.350
 7575POPC   NC341687  18.291   4.297   5.550
 7575POPC   PO441688  18.244   4.348   5.850
 7575POPC   GL141689  18.264   4.337   6.150
 7575POPC   GL241690  18.245   4.403   6.150
 7575POPC   C1A41691  18.276   4.312   6.450
 7575POPC   D2A41692  18.270   4.317   6.750
 7575POPC   C3A41693  18.238   4.348   7.050
 7575POPC   C4A41694  18.282   4.275   7.350
 7575POPC   C1B41695  18.259   4.543   6.450
 7575POPC   C2B41696  18.256   4.577   6.750
 7575POPC   C3B41697  18.255   4.583   7.050
 7575POPC   C4B41698  18.316   4.549   7.350
 7576POPC   NC341699   2.759  36.141   5.550
 7576POPC   PO441700   2.811  36.154   5.850
 7576POPC   GL141701   2.748  36.103   6.150
 7576POPC   GL241702   2.801  36.017   6.150
 7576POPC   C1A41703   2.752  36.147   6.450
 7576POPC   D2A41704   2.733  36.131   6.750
 7576POPC   C3A41705   2.786  36.083   7.050
 7576POPC   C4A41706   2.740  36.135   7.350
 7576POPC   C1B41707   2.820  35.845   6.450
 7576POPC   C2B41708   2.885  35.898   6.750
 7576POPC   C3B41709   2.800  35.937   7.050
 7576POPC   C4B41710   2.888  35.872   7.350
 7577POPC   NC341711  44.707  42.360   5.550
 7577POPC   PO441712  44.706  42.382   5.850
 7577POPC   GL141713  44.670  42.368   6.150
 7577POPC   GL241714  44.706  42.415   6.150
 7577POPC   C1A41715  44.697  42.342   6.450
 7577POPC   D2A41716  44.669  42.309   6.750
 7577POPC   C3A41717  44.703  42.364   7.050
 7577POPC   C4A41718  44.695  42.303   7.350
 7577POPC   C1B41719  44.826  42.574   6.450
 7577POPC   C2B41720  44.836  42.575   6.750
 7577POPC   C3B41721  44.842  42.528   7.050
 7577POPC   C4B41722  44.788  42.534   7.350
 7578POPC   NC341723  14.428  37.700   5.550
 7578POPC   PO441724  14.400  37.665   5.850
 7578POPC   GL141725  14.394  37.658   6.150
 7578POPC   GL241726  14.492  37.718   6.150
 7578POPC   C1A41727  14.397  37.660   6.450
 7578POPC   D2A41728  14.414  37.704   6.750
 7578POPC   C3A41729  14.401  37.692   7.050
 7578POPC   C4A41730  14.441  37.675   7.350
 7578POPC   C1B41731  14.641  37.642   6.450
 7578POPC   C2B41732  14.664  37.689   6.750
 7578POPC   C3B41733  14.682  37.714   7.050
 7578POPC   C4B41734  14.660  37.721   7.350
 7579POPC   NC341735  43.104  29.904   5.550
 7579POPC   PO441736  43.135  29.965   5.850
 7579POPC   GL141737  43.106  29.880   6.150
 7579POPC   GL241738  43.084  29.802   6.150
 7579POPC   C1A41739  43.061  29.970   6.450
 7579POPC   D2A41740  43.148  29.951   6.750
 7579POPC   C3A41741  43.135  29.941   7.050
 7579POPC   C4A41742  43.075  29.955   7.350
 7579POPC   C1B41743  43.157  29.639   6.450
 7579POPC   C2B41744  43.158  29.659   6.750
 7579POPC   C3B41745  43.131  29.701   7.050
 7579POPC   C4B41746  43.129  29.703   7.350
 7580POPC   NC341747   9.701  22.191   5.550
 7580POPC   PO441748   9.715  22.179   5.850
 7580POPC   GL141749   9.747  22.184   6.150
 7580POPC   GL241750   9.795  22.049   6.150
 7580POPC   C1A41751   9.726  22.118   6.450
 7580POPC   D2A41752   9.765  22.135   6.750
 7580POPC   C3A41753   9.712  22.142   7.050
 7580POPC   C4A41754   9.767  22.145   7.350
 7580POPC   C1B41755   9.900  21.956   6.450
 7580POPC   C2B41756   9.918  21.972   6.750
 7580POPC   C3B41757   9.942  21.979   7.050
 7580POPC   C4B41758   9.888  21.995   7.350
 7581POPC   NC341759   6.598  16.705   5.550
 7581POPC   PO441760   6.602  16.717   5.850
 7581POPC   GL141761   6.664  16.728   6.150
 7581POPC   GL241762   6.649  16.589   6.150
 7581POPC   C1A41763   6.638  16.684   6.450
 7581POPC   D2A41764   6.695  16.715   6.750
 7581POPC   C3A41765   6.670  16.777   7.050
 7581POPC   C4A41766   6.673  16.741   7.350
 7581POPC   C1B41767   6.640  16.506   6.450
 7581POPC   C2B41768   6.622  16.445   6.750
 7581POPC   C3B41769   6.624  16.434   7.050
 7581POPC   C4B41770   6.629  16.507   7.350
 7582POPC   NC341771   4.334  40.801   5.550
 7582POPC   PO441772   4.328  40.830   5.850
 7582POPC   GL141773   4.333  40.765   6.150
 7582POPC   GL241774   4.237  40.840   6.150
 7582POPC   C1A41775   4.323  40.803   6.450
 7582POPC   D2A41776   4.342  40.751   6.750
 7582POPC   C3A41777   4.298  40.754   7.050
 7582POPC   C4A41778   4.348  40.775   7.350
 7582POPC   C1B41779   4.112  40.854   6.450
 7582POPC   C2B41780   4.060  40.821   6.750
 7582POPC   C3B41781   4.129  40.880   7.050
 7582POPC   C4B41782   4.122  40.884   7.350
 7583POPC   NC341783  18.257  25.280   5.550
 7583POPC   PO441784  18.306  25.302   5.850
 7583POPC   GL141785  18.253  25.314   6.150
 7583POPC   GL241786  18.246  25.347   6.150
 7583POPC   C1A41787  18.268  25.257   6.450
 7583POPC   D2A41788  18.326  25.297   6.750
 7583POPC   C3A41789  18.280  25.297   7.050
 7583POPC   C4A41790  18.257  25.223   7.350
 7583POPC   C1B41791  18.135  25.481   6.450
 7583POPC   C2B41792  18.105  25.447   6.750
 7583POPC   C3B41793  18.087  25.484   7.050
 7583POPC   C4B41794  18.140  25.489   7.350
 7584POPC   NC341795   5.825  36.879   5.550
 7584POPC   PO441796   5.844  36.883   5.850
 7584POPC   GL141797   5.855  36.885   6.150
 7584POPC   GL241798   5.849  36.821   6.150
 7584POPC   C1A41799   5.823  36.908   6.450
 7584POPC   D2A41800   5.917  36.901   6.750
 7584POPC   C3A41801   5.820  36.934   7.050
 7584POPC   C4A41802   5.880  36.923   7.350
 7584POPC   C1B41803   5.792  36.702   6.450
 7584POPC   C2B41804   5.784  36.651   6.750
 7584POPC   C3B41805   5.762  36.718   7.050
 7584POPC   C4B41806   5.770  36.704   7.350
 7585POPC   NC341807  24.523  16.692   5.550
 7585POPC   PO441808  24.462  16.721   5.850
 7585POPC   GL141809  24.482  16.723   6.150
 7585POPC   GL241810  24.552  16.855   6.150
 7585POPC   C1A41811  24.521  16.757   6.450
 7585POPC   D2A41812  24.518  16.738   6.750
 7585POPC   C3A41813  24.512  16.770   7.050
 7585POPC   C4A41814  24.536  16.732   7.350
 7585POPC   C1B41815  24.722  16.836   6.450
 7585POPC   C2B41816  24.679  16.913   6.750
 7585POPC   C3B41817  24.710  16.841   7.050
 7585POPC   C4B41818  24.715  16.893   7.350
 7586POPC   NC341819  40.829  12.073   5.550
 7586POPC   PO441820  40.735  12.066   5.850
 7586POPC   GL141821  40.830  12.075   6.150
 7586POPC   GL241822  40.655  12.052   6.150
 7586POPC   C1A41823  40.743  12.031   6.450
 7586POPC   D2A41824  40.798  12.063   6.750
 7586POPC   C3A41825  40.742  12.041   7.050
 7586POPC   C4A41826  40.756  12.081   7.350
 7586POPC   C1B41827  40.486  12.116   6.450
 7586POPC   C2B41828  40.496  12.069   6.750
 7586POPC   C3B41829  40.580  12.134   7.050
 7586POPC   C4B41830  40.491  12.123   7.350
 7587POPC   NC341831  26.013  12.095   5.550
 7587POPC   PO441832  26.023  12.055   5.850
 7587POPC   GL141833  26.055  12.077   6.150
 7587POPC   GL241834  26.135  12.192   6.150
 7587POPC   C1A41835  25.996  12.027   6.450
 7587POPC   D2A41836  26.085  12.051   6.750
 7587POPC   C3A41837  26.082  12.081   7.050
 7587POPC   C4A41838  26.047  12.052   7.350
 7587POPC   C1B41839  26.154  12.333   6.450
 7587POPC   C2B41840  26.174  12.265   6.750
 7587POPC   C3B41841  26.188  12.315   7.050
 7587POPC   C4B41842  26.216  12.284   7.350
 7588POPC   NC341843  42.307  15.935   5.550
 7588POPC   PO441844  42.360  15.945   5.850
 7588POPC   GL141845  42.288  15.943   6.150
 7588POPC   GL241846  42.385  15.808   6.150
 7588POPC   C1A41847  42.343  15.939   6.450
 7588POPC   D2A41848  42.382  15.993   6.750
 7588POPC   C3A41849  42.311  16.003   7.050
 7588POPC   C4A41850  42.293  16.001   7.350
 7588POPC   C1B41851  42.376  15.677   6.450
 7588POPC   C2B41852  42.314  15.725   6.750
 7588POPC   C3B41853  42.382  15.694   7.050
 7588POPC   C4B41854  42.325  15.657   7.350
 7589POPC   NC341855  15.173  40.752   5.550
 7589POPC   PO441856  15.135  40.811   5.850
 7589POPC   GL141857  15.209  40.825   6.150
 7589POPC   GL241858  15.087  40.703   6.150
 7589POPC   C1A41859  15.148  40.736   6.450
 7589POPC   D2A41860  15.130  40.811   6.750
 7589POPC   C3A41861  15.196  40.812   7.050
 7589POPC   C4A41862  15.168  40.787   7.350
 7589POPC   C1B41863  15.061  40.569   6.450
 7589POPC   C2B41864  15.023  40.519   6.750
 7589POPC   C3B41865  15.109  40.566   7.050
 7589POPC   C4B41866  15.107  40.588   7.350
 7590POPC   NC341867   5.900  23.717   5.550
 7590POPC   PO441868   5.917  23.705   5.850
 7590POPC   GL141869   5.840  23.721   6.150
 7590POPC   GL241870   5.936  23.648   6.150
 7590POPC   C1A41871   5.915  23.714   6.450
 7590POPC   D2A41872   5.850  23.743   6.750
 7590POPC   C3A41873   5.889  23.674   7.050
 7590POPC   C4A41874   5.867  23.731   7.350
 7590POPC   C1B41875   6.047  23.549   6.450
 7590POPC   C2B41876   6.087  23.580   6.750
 7590POPC   C3B41877   6.050  23.583   7.050
 7590POPC   C4B41878   6.033  23.499   7.350
 7591POPC   NC341879  40.779  28.362   5.550
 7591POPC   PO441880  40.806  28.409   5.850
 7591POPC   GL141881  40.776  28.401   6.150
 7591POPC   GL241882  40.884  28.313   6.150
 7591POPC   C1A41883  40.784  28.401   6.450
 7591POPC   D2A41884  40.771  28.388   6.750
 7591POPC   C3A41885  40.810  28.374   7.050
 7591POPC   C4A41886  40.793  28.408   7.350
 7591POPC   C1B41887  40.970  28.129   6.450
 7591POPC   C2B41888  40.920  28.146   6.750
 7591POPC   C3B41889  40.903  28.172   7.050
 7591POPC   C4B41890  40.906  28.212   7.350
 7592POPC   NC341891  43.126   9.742   5.550
 7592POPC   PO441892  43.119   9.730   5.850
 7592POPC   GL141893  43.102   9.713   6.150
 7592POPC   GL241894  43.042   9.679   6.150
 7592POPC   C1A41895  43.157   9.772   6.450
 7592POPC   D2A41896  43.085   9.750   6.750
 7592POPC   C3A41897  43.070   9.701   7.050
 7592POPC   C4A41898  43.135   9.711   7.350
 7592POPC   C1B41899  42.928   9.647   6.450
 7592POPC   C2B41900  42.905   9.612   6.750
 7592POPC   C3B41901  42.904   9.689   7.050
 7592POPC   C4B41902  42.927   9.599   7.350
 7593POPC   NC341903  35.312  33.008   5.550
 7593POPC   PO441904  35.344  33.073   5.850
 7593POPC   GL141905  35.307  33.037   6.150
 7593POPC   GL241906  35.202  33.048   6.150
 7593POPC   C1A41907  35.359  33.036   6.450
 7593POPC   D2A41908  35.335  33.005   6.750
 7593POPC   C3A41909  35.391  32.985   7.050
 7593POPC   C4A41910  35.332  33.042   7.350
 7593POPC   C1B41911  35.100  33.070   6.450
 7593POPC   C2B41912  35.073  33.060   6.750
 7593POPC   C3B41913  35.128  33.034   7.050
 7593POPC   C4B41914  35.080  32.978   7.350
 7594POPC   NC341915   9.018  26.088   5.550
 7594POPC   PO441916   8.954  26.007   5.850
 7594POPC   GL141917   9.000  26.065   6.150
 7594POPC   GL241918   8.914  26.106   6.150
 7594POPC   C1A41919   8.973  26.000   6.450
 7594POPC   D2A41920   8.995  26.014   6.750
 7594POPC   C3A41921   8.957  26.049   7.050
 7594POPC   C4A41922   9.004  25.992   7.350
 7594POPC   C1B41923   8.764  26.221   6.450
 7594POPC   C2B41924   8.771  26.187   6.750
 7594POPC   C3B41925   8.736  26.186   7.050
 7594POPC   C4B41926   8.726  26.190   7.350
 7595POPC   NC341927  32.231  12.054   5.550
 7595POPC   PO441928  32.268  12.077   5.850
 7595POPC   GL141929  32.256  12.084   6.150
 7595POPC   GL241930  32.247  11.993   6.150
 7595POPC   C1A41931  32.295  12.037   6.450
 7595POPC   D2A41932  32.250  12.113   6.750
 7595POPC   C3A41933  32.233  12.029   7.050
 7595POPC   C4A41934  32.201  12.029   7.350
 7595POPC   C1B41935  32.348  11.837   6.450
 7595POPC   C2B41936  32.324  11.861   6.750
 7595POPC   C3B41937  32.327  11.815   7.050
 7595POPC   C4B41938  32.310  11.816   7.350
 7596POPC   NC341939   5.852  18.328   5.550
 7596POPC   PO441940   5.907  18.332   5.850
 7596POPC   GL141941   5.913  18.272   6.150
 7596POPC   GL241942   5.944  18.383   6.150
 7596POPC   C1A41943   5.869  18.325   6.450
 7596POPC   D2A41944   5.874  18.276   6.750
 7596POPC   C3A41945   5.842  18.241   7.050
 7596POPC   C4A41946   5.842  18.307   7.350
 7596POPC   C1B41947   6.029  18.505   6.450
 7596POPC   C2B41948   6.045  18.439   6.750
 7596POPC   C3B41949   6.008  18.434   7.050
 7596POPC   C4B41950   5.990  18.489   7.350
 7597POPC   NC341951   7.450  15.930   5.550
 7597POPC   PO441952   7.452  15.989   5.850
 7597POPC   GL141953   7.389  15.984   6.150
 7597POPC   GL241954   7.447  16.041   6.150
 7597POPC   C1A41955   7.408  15.946   6.450
 7597POPC   D2A41956   7.448  15.930   6.750
 7597POPC   C3A41957   7.443  15.962   7.050
 7597POPC   C4A41958   7.465  15.920   7.350
 7597POPC   C1B41959   7.439  16.200   6.450
 7597POPC   C2B41960   7.502  16.209   6.750
 7597POPC   C3B41961   7.420  16.224   7.050
 7597POPC   C4B41962   7.410  16.211   7.350
 7598POPC   NC341963   4.342   7.413   5.550
 7598POPC   PO441964   4.342   7.441   5.850
 7598POPC   GL141965   4.321   7.462   6.150
 7598POPC   GL241966   4.392   7.514   6.150
 7598POPC   C1A41967   4.339   7.424   6.450
 7598POPC   D2A41968   4.351   7.371   6.750
 7598POPC   C3A41969   4.284   7.441   7.050
 7598POPC   C4A41970   4.362   7.380   7.350
 7598POPC   C1B41971   4.385   7.666   6.450
 7598POPC   C2B41972   4.422   7.622   6.750
 7598POPC   C3B41973   4.435   7.623   7.050
 7598POPC   C4B41974   4.359   7.630   7.350
 7599POPC   NC341975  24.537  41.554   5.550
 7599POPC   PO441976  24.535  41.510   5.850
 7599POPC   GL141977  24.477  41.546   6.150
 7599POPC   GL241978  24.351  41.498   6.150
 7599POPC   C1A41979  24.460  41.564   6.450
 7599POPC   D2A41980  24.489  41.590   6.750
 7599POPC   C3A41981  24.530  41.569   7.050
 7599POPC   C4A41982  24.508  41.585   7.350
 7599POPC   C1B41983  24.279  41.494   6.450
 7599POPC   C2B41984  24.282  41.477   6.750
 7599POPC   C3B41985  24.216  41.493   7.050
 7599POPC   C4B41986  24.213  41.486   7.350
 7600POPC   NC341987  22.934  13.588   5.550
 7600POPC   PO441988  22.910  13.643   5.850
 7600POPC   GL141989  22.956  13.618   6.150
 7600POPC   GL241990  22.912  13.791   6.150
 7600POPC   C1A41991  22.897  13.602   6.450
 7600POPC   D2A41992  22.956  13.583   6.750
 7600POPC   C3A41993  22.913  13.580   7.050
 7600POPC   C4A41994  22.979  13.655   7.350
 7600POPC   C1B41995  22.959  13.893   6.450
 7600POPC   C2B41996  22.977  13.877   6.750
 7600POPC   C3B41997  22.937  13.920   7.050
 7600POPC   C4B41998  23.000  13.913   7.350
 7601POPC   NC341999  31.431  33.017   5.550
 7601POPC   PO442000  31.492  33.035   5.850
 7601POPC   GL142001  31.494  33.054   6.150
 7601POPC   GL242002  31.315  32.958   6.150
 7601POPC   C1A42003  31.443  33.044   6.450
 7601POPC   D2A42004  31.451  32.976   6.750
 7601POPC   C3A42005  31.431  33.021   7.050
 7601POPC   C4A42006  31.519  33.002   7.350
 7601POPC   C1B42007  31.251  32.911   6.450
 7601POPC   C2B42008  31.270  32.939   6.750
 7601POPC   C3B42009  31.242  32.868   7.050
 7601POPC   C4B42010  31.219  32.866   7.350
 7602POPC   NC342011  38.460  14.416   5.550
 7602POPC   PO442012  38.436  14.424   5.850
 7602POPC   GL142013  38.457  14.446   6.150
 7602POPC   GL242014  38.588  14.299   6.150
 7602POPC   C1A42015  38.453  14.423   6.450
 7602POPC   D2A42016  38.449  14.430   6.750
 7602POPC   C3A42017  38.496  14.381   7.050
 7602POPC   C4A42018  38.427  14.373   7.350
 7602POPC   C1B42019  38.616  14.245   6.450
 7602POPC   C2B42020  38.633  14.207   6.750
 7602POPC   C3B42021  38.609  14.215   7.050
 7602POPC   C4B42022  38.610  14.233   7.350
 7603POPC   NC342023   8.979  37.697   5.550
 7603POPC   PO442024   8.963  37.645   5.850
 7603POPC   GL142025   9.006  37.720   6.150
 7603POPC   GL242026   9.020  37.810   6.150
 7603POPC   C1A42027   8.987  37.687   6.450
 7603POPC   D2A42028   8.947  37.718   6.750
 7603POPC   C3A42029   9.016  37.661   7.050
 7603POPC   C4A42030   8.942  37.663   7.350
 7603POPC   C1B42031   9.059  37.895   6.450
 7603POPC   C2B42032   9.086  37.924   6.750
 7603POPC   C3B42033   9.030  37.891   7.050
 7603POPC   C4B42034   9.061  37.888   7.350
 7604POPC   NC342035  43.873  30.737   5.550
 7604POPC   PO442036  43.872  30.723   5.850
 7604POPC   GL142037  43.913  30.693   6.150
 7604POPC   GL242038  43.744  30.723   6.150
 7604POPC   C1A42039  43.856  30.723   6.450
 7604POPC   D2A42040  43.930  30.669   6.750
 7604POPC   C3A42041  43.838  30.708   7.050
 7604POPC   C4A42042  43.844  30.736   7.350
 7604POPC   C1B42043  43.608  30.769   6.450
 7604POPC   C2B42044  43.627  30.802   6.750
 7604POPC   C3B42045  43.663  30.778   7.050
 7604POPC   C4B42046  43.688  30.738   7.350
 7605POPC   NC342047  14.356  17.534   5.550
 7605POPC   PO442048  14.406  17.525   5.850
 7605POPC   GL142049  14.358  17.514   6.150
 7605POPC   GL242050  14.416  17.661   6.150
 7605POPC   C1A42051  14.451  17.482   6.450
 7605POPC   D2A42052  14.430  17.500   6.750
 7605POPC   C3A42053  14.429  17.478   7.050
 7605POPC   C4A42054  14.401  17.523   7.350
 7605POPC   C1B42055  14.465  17.746   6.450
 7605POPC   C2B42056  14.395  17.734   6.750
 7605POPC   C3B42057  14.439  17.764   7.050
 7605POPC   C4B42058  14.381  17.749   7.350
 7606POPC   NC342059  28.381  22.113   5.550
 7606POPC   PO442060  28.413  22.194   5.850
 7606POPC   GL142061  28.358  22.211   6.150
 7606POPC   GL242062  28.509  22.184   6.150
 7606POPC   C1A42063  28.337  22.132   6.450
 7606POPC   D2A42064  28.390  22.172   6.750
 7606POPC   C3A42065  28.324  22.147   7.050
 7606POPC   C4A42066  28.395  22.194   7.350
 7606POPC   C1B42067  28.599  22.208   6.450
 7606POPC   C2B42068  28.601  22.187   6.750
 7606POPC   C3B42069  28.650  22.249   7.050
 7606POPC   C4B42070  28.586  22.217   7.350
 7607POPC   NC342071  18.277  33.770   5.550
 7607POPC   PO442072  18.330  33.784   5.850
 7607POPC   GL142073  18.278  33.823   6.150
 7607POPC   GL242074  18.180  33.661   6.150
 7607POPC   C1A42075  18.301  33.847   6.450
 7607POPC   D2A42076  18.331  33.824   6.750
 7607POPC   C3A42077  18.250  33.793   7.050
 7607POPC   C4A42078  18.297  33.843   7.350
 7607POPC   C1B42079  18.169  33.579   6.450
 7607POPC   C2B42080  18.153  33.607   6.750
 7607POPC   C3B42081  18.139  33.578   7.050
 7607POPC   C4B42082  18.118  33.590   7.350
 7608POPC   NC342083   2.005  29.879   5.550
 7608POPC   PO442084   1.986  29.874   5.850
 7608POPC   GL142085   2.018  29.947   6.150
 7608POPC   GL242086   1.884  29.828   6.150
 7608POPC   C1A42087   1.998  29.900   6.450
 7608POPC   D2A42088   1.946  29.884   6.750
 7608POPC   C3A42089   1.980  29.899   7.050
 7608POPC   C4A42090   2.032  29.892   7.350
 7608POPC   C1B42091   1.778  29.796   6.450
 7608POPC   C2B42092   1.764  29.774   6.750
 7608POPC   C3B42093   1.737  29.758   7.050
 7608POPC   C4B42094   1.727  29.829   7.350
 7609POPC   NC342095  29.173  14.358   5.550
 7609POPC   PO442096  29.162  14.390   5.850
 7609POPC   GL142097  29.101  14.404   6.150
 7609POPC   GL242098  29.089  14.302   6.150
 7609POPC   C1A42099  29.167  14.384   6.450
 7609POPC   D2A42100  29.163  14.431   6.750
 7609POPC   C3A42101  29.101  14.370   7.050
 7609POPC   C4A42102  29.145  14.410   7.350
 7609POPC   C1B42103  29.148  14.192   6.450
 7609POPC   C2B42104  29.094  14.125   6.750
 7609POPC   C3B42105  29.075  14.192   7.050
 7609POPC   C4B42106  29.157  14.181   7.350
 7610POPC   NC342107  31.459  24.531   5.550
 7610POPC   PO442108  31.482  24.528   5.850
 7610POPC   GL142109  31.497  24.525   6.150
 7610POPC   GL242110  31.311  24.466   6.150
 7610POPC   C1A42111  31.519  24.506   6.450
 7610POPC   D2A42112  31.503  24.481   6.750
 7610POPC   C3A42113  31.448  24.539   7.050
 7610POPC   C4A42114  31.507  24.461   7.350
 7610POPC   C1B42115  31.276  24.458   6.450
 7610POPC   C2B42116  31.252  24.430   6.750
 7610POPC   C3B42117  31.256  24.433   7.050
 7610POPC   C4B42118  31.193  24.384   7.350
 7611POPC   NC342119  37.666  26.000   5.550
 7611POPC   PO442120  37.715  26.089   5.850
 7611POPC   GL142121  37.635  26.088   6.150
 7611POPC   GL242122  37.537  26.036   6.150
 7611POPC   C1A42123  37.652  26.002   6.450
 7611POPC   D2A42124  37.717  25.996   6.750
 7611POPC   C3A42125  37.649  26.014   7.050
 7611POPC   C4A42126  37.667  26.046   7.350
 7611POPC   C1B42127  37.399  26.156   6.450
 7611POPC   C2B42128  37.411  26.136   6.750
 7611POPC   C3B42129  37.430  26.121   7.050
 7611POPC   C4B42130  37.448  26.117   7.350
 7612POPC   NC342131  29.145  12.052   5.550
 7612POPC   PO442132  29.134  12.032   5.850
 7612POPC   GL142133  29.136  12.112   6.150
 7612POPC   GL242134  29.292  12.124   6.150
 7612POPC   C1A42135  29.155  12.126   6.450
 7612POPC   D2A42136  29.195  12.069   6.750
 7612POPC   C3A42137  29.190  12.069   7.050
 7612POPC   C4A42138  29.171  12.101   7.350
 7612POPC   C1B42139  29.366  12.162   6.450
 7612POPC   C2B42140  29.390  12.170   6.750
 7612POPC   C3B42141  29.368  12.184   7.050
 7612POPC   C4B42142  29.339  12.142   7.350
 7613POPC   NC342143  37.691  10.517   5.550
 7613POPC   PO442144  37.686  10.511   5.850
 7613POPC   GL142145  37.722  10.516   6.150
 7613POPC   GL242146  37.746  10.382   6.150
 7613POPC   C1A42147  37.725  10.549   6.450
 7613POPC   D2A42148  37.698  10.482   6.750
 7613POPC   C3A42149  37.709  10.547   7.050
 7613POPC   C4A42150  37.631  10.503   7.350
 7613POPC   C1B42151  37.748  10.276   6.450
 7613POPC   C2B42152  37.743  10.309   6.750
 7613POPC   C3B42153  37.782  10.282   7.050
 7613POPC   C4B42154  37.766  10.278   7.350
 7614POPC   NC342155  44.647  44.620   5.550
 7614POPC   PO442156  44.637  44.688   5.850
 7614POPC   GL142157  44.629  44.673   6.150
 7614POPC   GL242158  44.699  44.516   6.150
 7614POPC   C1A42159  44.679  44.644   6.450
 7614POPC   D2A42160  44.630  44.668   6.750
 7614POPC   C3A42161  44.670  44.676   7.050
 7614POPC   C4A42162  44.708  44.690   7.350
 7614POPC   C1B42163  44.699  44.403   6.450
 7614POPC   C2B42164  44.775  44.446   6.750
 7614POPC   C3B42165  44.729  44.404   7.050
 7614POPC   C4B42166  44.698  44.415   7.350
 7615POPC   NC342167   0.487  25.275   5.550
 7615POPC   PO442168   0.413  25.275   5.850
 7615POPC   GL142169   0.435  25.239   6.150
 7615POPC   GL242170   0.342  25.283   6.150
 7615POPC   C1A42171   0.478  25.260   6.450
 7615POPC   D2A42172   0.466  25.288   6.750
 7615POPC   C3A42173   0.432  25.293   7.050
 7615POPC   C4A42174   0.465  25.300   7.350
 7615POPC   C1B42175   0.181  25.352   6.450
 7615POPC   C2B42176   0.191  25.316   6.750
 7615POPC   C3B42177   0.169  25.256   7.050
 7615POPC   C4B42178   0.231  25.286   7.350
 7616POPC   NC342179  17.503  35.381   5.550
 7616POPC   PO442180  17.547  35.313   5.850
 7616POPC   GL142181  17.466  35.342   6.150
 7616POPC   GL242182  17.661  35.393   6.150
 7616POPC   C1A42183  17.524  35.331   6.450
 7616POPC   D2A42184  17.529  35.326   6.750
 7616POPC   C3A42185  17.526  35.380   7.050
 7616POPC   C4A42186  17.485  35.302   7.350
 7616POPC   C1B42187  17.790  35.416   6.450
 7616POPC   C2B42188  17.786  35.411   6.750
 7616POPC   C3B42189  17.768  35.392   7.050
 7616POPC   C4B42190  17.789  35.411   7.350
 7617POPC   NC342191  39.986  29.180   5.550
 7617POPC   PO442192  39.966  29.102   5.850
 7617POPC   GL142193  39.974  29.163   6.150
 7617POPC   GL242194  40.055  29.284   6.150
 7617POPC   C1A42195  40.015  29.127   6.450
 7617POPC   D2A42196  40.037  29.141   6.750
 7617POPC   C3A42197  39.986  29.163   7.050
 7617POPC   C4A42198  40.038  29.187   7.350
 7617POPC   C1B42199  40.029  29.390   6.450
 7617POPC   C2B42200  39.981  29.414   6.750
 7617POPC   C3B42201  40.045  29.363   7.050
 7617POPC   C4B42202  40.008  29.438   7.350
 7618POPC   NC342203  25.252  38.456   5.550
 7618POPC   PO442204  25.263  38.444   5.850
 7618POPC   GL142205  25.297  38.499   6.150
 7618POPC   GL242206  25.253  38.293   6.150
 7618POPC   C1A42207  25.221  38.470   6.450
 7618POPC   D2A42208  25.287  38.475   6.750
 7618POPC   C3A42209  25.253  38.450   7.050
 7618POPC   C4A42210  25.301  38.491   7.350
 7618POPC   C1B42211  25.153  38.255   6.450
 7618POPC   C2B42212  25.144  38.265   6.750
 7618POPC   C3B42213  25.183  38.238   7.050
 7618POPC   C4B42214  25.128  38.188   7.350
 7619POPC   NC342215  32.291  43.922   5.550
 7619POPC   PO442216  32.237  43.874   5.850
 7619POPC   GL142217  32.270  43.859   6.150
 7619POPC   GL242218  32.209  43.780   6.150
 7619POPC   C1A42219  32.230  43.888   6.450
 7619POPC   D2A42220  32.288  43.902   6.750
 7619POPC   C3A42221  32.223  43.889   7.050
 7619POPC   C4A42222  32.279  43.842   7.350
 7619POPC   C1B42223  32.048  43.700   6.450
 7619POPC   C2B42224  32.068  43.741   6.750
 7619POPC   C3B42225  32.133  43.649   7.050
 7619POPC   C4B42226  32.133  43.711   7.350
 7620POPC   NC342227  22.170  25.269   5.550
 7620POPC   PO442228  22.172  25.315   5.850
 7620POPC   GL142229  22.120  25.272   6.150
 7620POPC   GL242230  22.258  25.206   6.150
 7620POPC   C1A42231  22.132  25.302   6.450
 7620POPC   D2A42232  22.184  25.216   6.750
 7620POPC   C3A42233  22.120  25.232   7.050
 7620POPC   C4A42234  22.176  25.229   7.350
 7620POPC   C1B42235  22.447  25.214   6.450
 7620POPC   C2B42236  22.418  25.255   6.750
 7620POPC   C3B42237  22.379  25.224   7.050
 7620POPC   C4B42238  22.432  25.212   7.350
 7621POPC   NC342239  24.537   6.664   5.550
 7621POPC   PO442240  24.489   6.597   5.850
 7621POPC   GL142241  24.497   6.681   6.150
 7621POPC   GL242242  24.366   6.676   6.150
 7621POPC   C1A42243  24.459   6.623   6.450
 7621POPC   D2A42244  24.502   6.673   6.750
 7621POPC   C3A42245  24.496   6.632   7.050
 7621POPC   C4A42246  24.487   6.678   7.350
 7621POPC   C1B42247  24.295   6.723   6.450
 7621POPC   C2B42248  24.267   6.745   6.750
 7621POPC   C3B42249  24.281   6.767   7.050
 7621POPC   C4B42250  24.234   6.739   7.350
 7622POPC   NC342251  32.266  22.153   5.550
 7622POPC   PO442252  32.292  22.149   5.850
 7622POPC   GL142253  32.247  22.193   6.150
 7622POPC   GL242254  32.084  22.158   6.150
 7622POPC   C1A42255  32.279  22.115   6.450
 7622POPC   D2A42256  32.203  22.167   6.750
 7622POPC   C3A42257  32.258  22.177   7.050
 7622POPC   C4A42258  32.238  22.118   7.350
 7622POPC   C1B42259  32.036  22.086   6.450
 7622POPC   C2B42260  32.023  22.140   6.750
 7622POPC   C3B42261  31.974  22.169   7.050
 7622POPC   C4B42262  31.997  22.087   7.350
 7623POPC   NC342263   8.205   3.548   5.550
 7623POPC   PO442264   8.243   3.536   5.850
 7623POPC   GL142265   8.204   3.579   6.150
 7623POPC   GL242266   8.297   3.483   6.150
 7623POPC   C1A42267   8.208   3.493   6.450
 7623POPC   D2A42268   8.187   3.510   6.750
 7623POPC   C3A42269   8.175   3.550   7.050
 7623POPC   C4A42270   8.246   3.504   7.350
 7623POPC   C1B42271   8.429   3.539   6.450
 7623POPC   C2B42272   8.397   3.554   6.750
 7623POPC   C3B42273   8.425   3.534   7.050
 7623POPC   C4B42274   8.422   3.473   7.350
 7624POPC   NC342275  30.718   1.999   5.550
 7624POPC   PO442276  30.675   1.960   5.850
 7624POPC   GL142277  30.648   1.985   6.150
 7624POPC   GL242278  30.602   2.058   6.150
 7624POPC   C1A42279  30.688   1.956   6.450
 7624POPC   D2A42280  30.666   2.033   6.750
 7624POPC   C3A42281  30.669   2.006   7.050
 7624POPC   C4A42282  30.658   1.956   7.350
 7624POPC   C1B42283  30.460   2.112   6.450
 7624POPC   C2B42284  30.479   2.072   6.750
 7624POPC   C3B42285  30.479   2.112   7.050
 7624POPC   C4B42286  30.514   2.060   7.350
 7625POPC   NC342287  28.409  25.257   5.550
 7625POPC   PO442288  28.319  25.305   5.850
 7625POPC   GL142289  28.408  25.245   6.150
 7625POPC   GL242290  28.289  25.290   6.150
 7625POPC   C1A42291  28.417  25.274   6.450
 7625POPC   D2A42292  28.368  25.289   6.750
 7625POPC   C3A42293  28.349  25.235   7.050
 7625POPC   C4A42294  28.415  25.289   7.350
 7625POPC   C1B42295  28.135  25.274   6.450
 7625POPC   C2B42296  28.150  25.303   6.750
 7625POPC   C3B42297  28.173  25.318   7.050
 7625POPC   C4B42298  28.136  25.350   7.350
 7626POPC   NC342299  22.202  16.738   5.550
 7626POPC   PO442300  22.157  16.771   5.850
 7626POPC   GL142301  22.162  16.687   6.150
 7626POPC   GL242302  22.215  16.870   6.150
 7626POPC   C1A42303  22.203  16.708   6.450
 7626POPC   D2A42304  22.204  16.704   6.750
 7626POPC   C3A42305  22.137  16.751   7.050
 7626POPC   C4A42306  22.191  16.733   7.350
 7626POPC   C1B42307  22.247  16.986   6.450
 7626POPC   C2B42308  22.250  16.953   6.750
 7626POPC   C3B42309  22.259  16.917   7.050
 7626POPC   C4B42310  22.300  16.974   7.350
 7627POPC   NC342311  20.586  24.441   5.550
 7627POPC   PO442312  20.561  24.496   5.850
 7627POPC   GL142313  20.646  24.533   6.150
 7627POPC   GL242314  20.572  24.579   6.150
 7627POPC   C1A42315  20.647  24.508   6.450
 7627POPC   D2A42316  20.633  24.506   6.750
 7627POPC   C3A42317  20.612  24.494   7.050
 7627POPC   C4A42318  20.638  24.530   7.350
 7627POPC   C1B42319  20.620  24.691   6.450
 7627POPC   C2B42320  20.648  24.751   6.750
 7627POPC   C3B42321  20.569  24.777   7.050
 7627POPC   C4B42322  20.565  24.693   7.350
 7628POPC   NC342323  33.836  41.574   5.550
 7628POPC   PO442324  33.772  41.523   5.850
 7628POPC   GL142325  33.837  41.573   6.150
 7628POPC   GL242326  33.762  41.464   6.150
 7628POPC   C1A42327  33.831  41.581   6.450
 7628POPC   D2A42328  33.772  41.576   6.750
 7628POPC   C3A42329  33.789  41.521   7.050
 7628POPC   C4A42330  33.789  41.514   7.350
 7628POPC   C1B42331  33.687  41.327   6.450
 7628POPC   C2B42332  33.730  41.329   6.750
 7628POPC   C3B42333  33.721  41.327   7.050
 7628POPC   C4B42334  33.726  41.334   7.350
 7629POPC   NC342335  17.552  21.378   5.550
 7629POPC   PO442336  17.490  21.347   5.850
 7629POPC   GL142337  17.500  21.366   6.150
 7629POPC   GL242338  17.388  21.452   6.150
 7629POPC   C1A42339  17.556  21.421   6.450
 7629POPC   D2A42340  17.514  21.407   6.750
 7629POPC   C3A42341  17.477  21.397   7.050
 7629POPC   C4A42342  17.503  21.355   7.350
 7629POPC   C1B42343  17.315  21.501   6.450
 7629POPC   C2B42344  17.352  21.516   6.750
 7629POPC   C3B42345  17.271  21.512   7.050
 7629POPC   C4B42346  17.357  21.527   7.350
 7630POPC   NC342347  20.597   5.840   5.550
 7630POPC   PO442348  20.614   5.873   5.850
 7630POPC   GL142349  20.597   5.840   6.150
 7630POPC   GL242350  20.697   5.766   6.150
 7630POPC   C1A42351  20.629   5.856   6.450
 7630POPC   D2A42352  20.564   5.873   6.750
 7630POPC   C3A42353  20.571   5.886   7.050
 7630POPC   C4A42354  20.623   5.869   7.350
 7630POPC   C1B42355  20.713   5.648   6.450
 7630POPC   C2B42356  20.719   5.664   6.750
 7630POPC   C3B42357  20.692   5.635   7.050
 7630POPC   C4B42358  20.708   5.645   7.350
 7631POPC   NC342359  29.874  12.106   5.550
 7631POPC   PO442360  29.939  12.079   5.850
 7631POPC   GL142361  29.925  12.056   6.150
 7631POPC   GL242362  29.939  11.955   6.150
 7631POPC   C1A42363  29.897  12.122   6.450
 7631POPC   D2A42364  29.896  12.046   6.750
 7631POPC   C3A42365  29.937  12.117   7.050
 7631POPC   C4A42366  29.908  12.067   7.350
 7631POPC   C1B42367  29.954  11.854   6.450
 7631POPC   C2B42368  29.959  11.844   6.750
 7631POPC   C3B42369  29.980  11.872   7.050
 7631POPC   C4B42370  30.012  11.822   7.350
 7632POPC   NC342371   2.755  44.668   5.550
 7632POPC   PO442372   2.786  44.658   5.850
 7632POPC   GL142373   2.747  44.692   6.150
 7632POPC   GL242374   2.853  44.737   6.150
 7632POPC   C1A42375   2.781  44.639   6.450
 7632POPC   D2A42376   2.790  44.645   6.750
 7632POPC   C3A42377   2.728  44.645   7.050
 7632POPC   C4A42378   2.761  44.680   7.350
 7632POPC   C1B42379   3.042  44.768   6.450
 7632POPC   C2B42380   3.032  44.766   6.750
 7632POPC   C3B42381   3.037  44.710   7.050
 7632POPC   C4B42382   2.949  44.763   7.350
 7633POPC   NC342383  16.776  32.268   5.550
 7633POPC   PO442384  16.699  32.235   5.850
 7633POPC   GL142385  16.708  32.254   6.150
 7633POPC   GL242386  16.688  32.138   6.150
 7633POPC   C1A42387  16.682  32.258   6.450
 7633POPC   D2A42388  16.741  32.215   6.750
 7633POPC   C3A42389  16.768  32.297   7.050
 7633POPC   C4A42390  16.742  32.243   7.350
 7633POPC   C1B42391  16.584  32.024   6.450
 7633POPC   C2B42392  16.577  32.061   6.750
 7633POPC   C3B42393  16.612  32.072   7.050
 7633POPC   C4B42394  16.589  32.027   7.350
 7634POPC   NC342395   1.173  16.702   5.550
 7634POPC   PO442396   1.263  16.703   5.850
 7634POPC   GL142397   1.208  16.733   6.150
 7634POPC   GL242398   1.191  16.867   6.150
 7634POPC   C1A42399   1.239  16.688   6.450
 7634POPC   D2A42400   1.194  16.706   6.750
 7634POPC   C3A42401   1.185  16.734   7.050
 7634POPC   C4A42402   1.225  16.759   7.350
 7634POPC   C1B42403   1.170  16.952   6.450
 7634POPC   C2B42404   1.208  16.985   6.750
 7634POPC   C3B42405   1.165  16.961   7.050
 7634POPC   C4B42406   1.157  17.022   7.350
 7635POPC   NC342407  36.923   5.889   5.550
 7635POPC   PO442408  36.912   5.853   5.850
 7635POPC   GL142409  36.924   5.872   6.150
 7635POPC   GL242410  36.994   5.824   6.150
 7635POPC   C1A42411  36.882   5.896   6.450
 7635POPC   D2A42412  36.891   5.874   6.750
 7635POPC   C3A42413  36.911   5.828   7.050
 7635POPC   C4A42414  36.874   5.871   7.350
 7635POPC   C1B42415  37.151   5.710   6.450
 7635POPC   C2B42416  37.140   5.754   6.750
 7635POPC   C3B42417  37.074   5.695   7.050
 7635POPC   C4B42418  37.069   5.684   7.350
 7636POPC   NC342419   1.964  41.562   5.550
 7636POPC   PO442420   1.958  41.533   5.850
 7636POPC   GL142421   2.036  41.555   6.150
 7636POPC   GL242422   1.867  41.482   6.150
 7636POPC   C1A42423   2.028  41.552   6.450
 7636POPC   D2A42424   1.964  41.577   6.750
 7636POPC   C3A42425   2.022  41.542   7.050
 7636POPC   C4A42426   1.948  41.606   7.350
 7636POPC   C1B42427   1.788  41.445   6.450
 7636POPC   C2B42428   1.790  41.444   6.750
 7636POPC   C3B42429   1.725  41.527   7.050
 7636POPC   C4B42430   1.789  41.465   7.350
 7637POPC   NC342431  43.862  29.873   5.550
 7637POPC   PO442432  43.884  29.930   5.850
 7637POPC   GL142433  43.928  29.970   6.150
 7637POPC   GL242434  43.964  29.960   6.150
 7637POPC   C1A42435  43.870  29.927   6.450
 7637POPC   D2A42436  43.891  29.961   6.750
 7637POPC   C3A42437  43.914  29.941   7.050
 7637POPC   C4A42438  43.874  29.937   7.350
 7637POPC   C1B42439  44.082  29.948   6.450
 7637POPC   C2B42440  44.175  29.958   6.750
 7637POPC   C3B42441  44.089  30.008   7.050
 7637POPC   C4B42442  44.145  29.999   7.350
 7638POPC   NC342443   9.797   1.198   5.550
 7638POPC   PO442444   9.731   1.212   5.850
 7638POPC   GL142445   9.705   1.236   6.150
 7638POPC   GL242446   9.688   1.078   6.150
 7638POPC   C1A42447   9.773   1.226   6.450
 7638POPC   D2A42448   9.792   1.198   6.750
 7638POPC   C3A42449   9.760   1.200   7.050
 7638POPC   C4A42450   9.760   1.241   7.350
 7638POPC   C1B42451   9.670   1.008   6.450
 7638POPC   C2B42452   9.655   0.965   6.750
 7638POPC   C3B42453   9.635   1.021   7.050
 7638POPC   C4B42454   9.616   0.956   7.350
 7639POPC   NC342455   1.228  24.530   5.550
 7639POPC   PO442456   1.262  24.454   5.850
 7639POPC   GL142457   1.189  24.535   6.150
 7639POPC   GL242458   1.188  24.644   6.150
 7639POPC   C1A42459   1.178  24.532   6.450
 7639POPC   D2A42460   1.197  24.475   6.750
 7639POPC   C3A42461   1.226  24.504   7.050
 7639POPC   C4A42462   1.239  24.460   7.350
 7639POPC   C1B42463   1.148  24.755   6.450
 7639POPC   C2B42464   1.114  24.747   6.750
 7639POPC   C3B42465   1.137  24.708   7.050
 7639POPC   C4B42466   1.156  24.766   7.350
 7640POPC   NC342467   6.621  42.347   5.550
 7640POPC   PO442468   6.596  42.308   5.850
 7640POPC   GL142469   6.659  42.289   6.150
 7640POPC   GL242470   6.549  42.449   6.150
 7640POPC   C1A42471   6.617  42.339   6.450
 7640POPC   D2A42472   6.604  42.307   6.750
 7640POPC   C3A42473   6.666  42.332   7.050
 7640POPC   C4A42474   6.606  42.294   7.350
 7640POPC   C1B42475   6.525  42.575   6.450
 7640POPC   C2B42476   6.564  42.572   6.750
 7640POPC   C3B42477   6.550  42.586   7.050
 7640POPC   C4B42478   6.543  42.559   7.350
 7641POPC   NC342479  21.373  12.074   5.550
 7641POPC   PO442480  21.429  12.078   5.850
 7641POPC   GL142481  21.423  12.109   6.150
 7641POPC   GL242482  21.478  11.997   6.150
 7641POPC   C1A42483  21.393  12.116   6.450
 7641POPC   D2A42484  21.338  12.079   6.750
 7641POPC   C3A42485  21.422  12.065   7.050
 7641POPC   C4A42486  21.405  12.028   7.350
 7641POPC   C1B42487  21.485  11.871   6.450
 7641POPC   C2B42488  21.432  11.845   6.750
 7641POPC   C3B42489  21.430  11.809   7.050
 7641POPC   C4B42490  21.423  11.811   7.350
 7642POPC   NC342491  14.377  39.965   5.550
 7642POPC   PO442492  14.439  39.964   5.850
 7642POPC   GL142493  14.365  40.020   6.150
 7642POPC   GL242494  14.423  40.127   6.150
 7642POPC   C1A42495  14.384  40.041   6.450
 7642POPC   D2A42496  14.444  39.999   6.750
 7642POPC   C3A42497  14.402  40.005   7.050
 7642POPC   C4A42498  14.390  39.964   7.350
 7642POPC   C1B42499  14.401  40.253   6.450
 7642POPC   C2B42500  14.353  40.260   6.750
 7642POPC   C3B42501  14.325  40.292   7.050
 7642POPC   C4B42502  14.311  40.292   7.350
 7643POPC   NC342503   3.529  27.621   5.550
 7643POPC   PO442504   3.497  27.588   5.850
 7643POPC   GL142505   3.533  27.607   6.150
 7643POPC   GL242506   3.541  27.670   6.150
 7643POPC   C1A42507   3.569  27.588   6.450
 7643POPC   D2A42508   3.583  27.602   6.750
 7643POPC   C3A42509   3.525  27.625   7.050
 7643POPC   C4A42510   3.500  27.558   7.350
 7643POPC   C1B42511   3.522  27.829   6.450
 7643POPC   C2B42512   3.506  27.848   6.750
 7643POPC   C3B42513   3.432  27.884   7.050
 7643POPC   C4B42514   3.437  27.846   7.350
 7644POPC   NC342515   5.860  35.329   5.550
 7644POPC   PO442516   5.838  35.322   5.850
 7644POPC   GL142517   5.843  35.375   6.150
 7644POPC   GL242518   5.958  35.351   6.150
 7644POPC   C1A42519   5.898  35.347   6.450
 7644POPC   D2A42520   5.848  35.376   6.750
 7644POPC   C3A42521   5.906  35.382   7.050
 7644POPC   C4A42522   5.902  35.380   7.350
 7644POPC   C1B42523   6.083  35.364   6.450
 7644POPC   C2B42524   6.124  35.277   6.750
 7644POPC   C3B42525   6.117  35.300   7.050
 7644POPC   C4B42526   6.162  35.280   7.350
 7645POPC   NC342527  16.714  26.085   5.550
 7645POPC   PO442528  16.700  26.064   5.850
 7645POPC   GL142529  16.688  26.045   6.150
 7645POPC   GL242530  16.659  26.158   6.150
 7645POPC   C1A42531  16.717  26.074   6.450
 7645POPC   D2A42532  16.763  26.067   6.750
 7645POPC   C3A42533  16.718  26.074   7.050
 7645POPC   C4A42534  16.767  25.993   7.350
 7645POPC   C1B42535  16.636  26.253   6.450
 7645POPC   C2B42536  16.604  26.259   6.750
 7645POPC   C3B42537  16.569  26.269   7.050
 7645POPC   C4B42538  16.608  26.257   7.350
 7646POPC   NC342539  16.696  11.321   5.550
 7646POPC   PO442540  16.690  11.299   5.850
 7646POPC   GL142541  16.730  11.324   6.150
 7646POPC   GL242542  16.658  11.381   6.150
 7646POPC   C1A42543  16.729  11.322   6.450
 7646POPC   D2A42544  16.681  11.277   6.750
 7646POPC   C3A42545  16.714  11.344   7.050
 7646POPC   C4A42546  16.745  11.253   7.350
 7646POPC   C1B42547  16.637  11.540   6.450
 7646POPC   C2B42548  16.614  11.502   6.750
 7646POPC   C3B42549  16.573  11.478   7.050
 7646POPC   C4B42550  16.601  11.530   7.350
 7647POPC   NC342551  25.296   1.165   5.550
 7647POPC   PO442552  25.280   1.260   5.850
 7647POPC   GL142553  25.289   1.192   6.150
 7647POPC   GL242554  25.249   1.358   6.150
 7647POPC   C1A42555  25.229   1.220   6.450
 7647POPC   D2A42556  25.241   1.191   6.750
 7647POPC   C3A42557  25.231   1.220   7.050
 7647POPC   C4A42558  25.285   1.252   7.350
 7647POPC   C1B42559  25.249   1.483   6.450
 7647POPC   C2B42560  25.219   1.433   6.750
 7647POPC   C3B42561  25.268   1.428   7.050
 7647POPC   C4B42562  25.281   1.500   7.350
 7648POPC   NC342563  28.415  19.092   5.550
 7648POPC   PO442564  28.342  19.048   5.850
 7648POPC   GL142565  28.407  19.080   6.150
 7648POPC   GL242566  28.378  18.943   6.150
 7648POPC   C1A42567  28.400  19.095   6.450
 7648POPC   D2A42568  28.328  19.035   6.750
 7648POPC   C3A42569  28.333  19.068   7.050
 7648POPC   C4A42570  28.348  19.052   7.350
 7648POPC   C1B42571  28.504  18.866   6.450
 7648POPC   C2B42572  28.480  18.839   6.750
 7648POPC   C3B42573  28.523  18.827   7.050
 7648POPC   C4B42574  28.504  18.844   7.350
 7649POPC   NC342575   2.016   4.287   5.550
 7649POPC   PO442576   1.965   4.323   5.850
 7649POPC   GL142577   1.953   4.322   6.150
 7649POPC   GL242578   1.926   4.159   6.150
 7649POPC   C1A42579   1.943   4.348   6.450
 7649POPC   D2A42580   1.943   4.320   6.750
 7649POPC   C3A42581   1.943   4.326   7.050
 7649POPC   C4A42582   2.031   4.340   7.350
 7649POPC   C1B42583   1.909   4.099   6.450
 7649POPC   C2B42584   1.893   4.104   6.750
 7649POPC   C3B42585   1.889   4.050   7.050
 7649POPC   C4B42586   1.903   4.039   7.350
 7650POPC   NC342587  17.498  32.241   5.550
 7650POPC   PO442588  17.491  32.255   5.850
 7650POPC   GL142589  17.491  32.286   6.150
 7650POPC   GL242590  17.612  32.208   6.150
 7650POPC   C1A42591  17.547  32.242   6.450
 7650POPC   D2A42592  17.507  32.238   6.750
 7650POPC   C3A42593  17.540  32.285   7.050
 7650POPC   C4A42594  17.532  32.229   7.350
 7650POPC   C1B42595  17.699  32.096   6.450
 7650POPC   C2B42596  17.716  32.110   6.750
 7650POPC   C3B42597  17.669  32.101   7.050
 7650POPC   C4B42598  17.765  32.152   7.350
 7651POPC   NC342599   4.329  13.669   5.550
 7651POPC   PO442600   4.305  13.598   5.850
 7651POPC   GL142601   4.287  13.624   6.150
 7651POPC   GL242602   4.230  13.516   6.150
 7651POPC   C1A42603   4.360  13.656   6.450
 7651POPC   D2A42604   4.357  13.620   6.750
 7651POPC   C3A42605   4.298  13.611   7.050
 7651POPC   C4A42606   4.354  13.585   7.350
 7651POPC   C1B42607   4.168  13.456   6.450
 7651POPC   C2B42608   4.099  13.508   6.750
 7651POPC   C3B42609   4.111  13.518   7.050
 7651POPC   C4B42610   4.079  13.497   7.350
 7652POPC   NC342611   1.945  14.405   5.550
 7652POPC   PO442612   2.034  14.438   5.850
 7652POPC   GL142613   2.003  14.441   6.150
 7652POPC   GL242614   2.018  14.543   6.150
 7652POPC   C1A42615   2.035  14.393   6.450
 7652POPC   D2A42616   2.032  14.374   6.750
 7652POPC   C3A42617   1.948  14.421   7.050
 7652POPC   C4A42618   1.989  14.417   7.350
 7652POPC   C1B42619   2.144  14.616   6.450
 7652POPC   C2B42620   2.111  14.555   6.750
 7652POPC   C3B42621   2.125  14.641   7.050
 7652POPC   C4B42622   2.100  14.570   7.350
 7653POPC   NC342623  27.607  38.454   5.550
 7653POPC   PO442624  27.611  38.492   5.850
 7653POPC   GL142625  27.609  38.412   6.150
 7653POPC   GL242626  27.656  38.411   6.150
 7653POPC   C1A42627  27.619  38.467   6.450
 7653POPC   D2A42628  27.583  38.505   6.750
 7653POPC   C3A42629  27.616  38.455   7.050
 7653POPC   C4A42630  27.564  38.457   7.350
 7653POPC   C1B42631  27.782  38.361   6.450
 7653POPC   C2B42632  27.777  38.290   6.750
 7653POPC   C3B42633  27.852  38.348   7.050
 7653POPC   C4B42634  27.762  38.347   7.350
 7654POPC   NC342635  24.510  14.401   5.550
 7654POPC   PO442636  24.535  14.403   5.850
 7654POPC   GL142637  24.476  14.408   6.150
 7654POPC   GL242638  24.359  14.314   6.150
 7654POPC   C1A42639  24.525  14.369   6.450
 7654POPC   D2A42640  24.448  14.365   6.750
 7654POPC   C3A42641  24.496  14.445   7.050
 7654POPC   C4A42642  24.449  14.438   7.350
 7654POPC   C1B42643  24.302  14.279   6.450
 7654POPC   C2B42644  24.306  14.278   6.750
 7654POPC   C3B42645  24.275  14.218   7.050
 7654POPC   C4B42646  24.242  14.304   7.350
 7655POPC   NC342647  14.422  14.396   5.550
 7655POPC   PO442648  14.449  14.410   5.850
 7655POPC   GL142649  14.400  14.366   6.150
 7655POPC   GL242650  14.426  14.525   6.150
 7655POPC   C1A42651  14.435  14.387   6.450
 7655POPC   D2A42652  14.384  14.418   6.750
 7655POPC   C3A42653  14.428  14.413   7.050
 7655POPC   C4A42654  14.427  14.420   7.350
 7655POPC   C1B42655  14.422  14.643   6.450
 7655POPC   C2B42656  14.457  14.610   6.750
 7655POPC   C3B42657  14.427  14.613   7.050
 7655POPC   C4B42658  14.434  14.648   7.350
 7656POPC   NC342659  16.700  22.170   5.550
 7656POPC   PO442660  16.742  22.199   5.850
 7656POPC   GL142661  16.718  22.202   6.150
 7656POPC   GL242662  16.715  22.011   6.150
 7656POPC   C1A42663  16.727  22.154   6.450
 7656POPC   D2A42664  16.726  22.178   6.750
 7656POPC   C3A42665  16.732  22.155   7.050
 7656POPC   C4A42666  16.751  22.180   7.350
 7656POPC   C1B42667  16.628  21.938   6.450
 7656POPC   C2B42668  16.652  21.885   6.750
 7656POPC   C3B42669  16.677  21.883   7.050
 7656POPC   C4B42670  16.604  21.955   7.350
 7657POPC   NC342671   8.182   4.336   5.550
 7657POPC   PO442672   8.178   4.352   5.850
 7657POPC   GL142673   8.203   4.313   6.150
 7657POPC   GL242674   8.078   4.323   6.150
 7657POPC   C1A42675   8.164   4.310   6.450
 7657POPC   D2A42676   8.152   4.277   6.750
 7657POPC   C3A42677   8.223   4.297   7.050
 7657POPC   C4A42678   8.212   4.348   7.350
 7657POPC   C1B42679   7.900   4.320   6.450
 7657POPC   C2B42680   7.962   4.364   6.750
 7657POPC   C3B42681   7.958   4.345   7.050
 7657POPC   C4B42682   7.960   4.373   7.350
 7658POPC   NC342683   1.253  31.445   5.550
 7658POPC   PO442684   1.241  31.425   5.850
 7658POPC   GL142685   1.187  31.494   6.150
 7658POPC   GL242686   1.129  31.356   6.150
 7658POPC   C1A42687   1.242  31.473   6.450
 7658POPC   D2A42688   1.172  31.456   6.750
 7658POPC   C3A42689   1.191  31.482   7.050
 7658POPC   C4A42690   1.183  31.506   7.350
 7658POPC   C1B42691   0.985  31.281   6.450
 7658POPC   C2B42692   0.994  31.318   6.750
 7658POPC   C3B42693   0.996  31.349   7.050
 7658POPC   C4B42694   0.993  31.335   7.350
 7659POPC   NC342695  23.741  43.111   5.550
 7659POPC   PO442696  23.671  43.096   5.850
 7659POPC   GL142697  23.664  43.112   6.150
 7659POPC   GL242698  23.734  43.187   6.150
 7659POPC   C1A42699  23.762  43.132   6.450
 7659POPC   D2A42700  23.735  43.132   6.750
 7659POPC   C3A42701  23.701  43.089   7.050
 7659POPC   C4A42702  23.737  43.073   7.350
 7659POPC   C1B42703  23.787  43.324   6.450
 7659POPC   C2B42704  23.808  43.353   6.750
 7659POPC   C3B42705  23.802  43.393   7.050
 7659POPC   C4B42706  23.768  43.332   7.350
 7660POPC   NC342707  12.103   0.454   5.550
 7660POPC   PO442708  12.065   0.411   5.850
 7660POPC   GL142709  12.125   0.477   6.150
 7660POPC   GL242710  12.127   0.580   6.150
 7660POPC   C1A42711  12.056   0.482   6.450
 7660POPC   D2A42712  12.068   0.461   6.750
 7660POPC   C3A42713  12.084   0.444   7.050
 7660POPC   C4A42714  12.027   0.469   7.350
 7660POPC   C1B42715  12.206   0.621   6.450
 7660POPC   C2B42716  12.268   0.597   6.750
 7660POPC   C3B42717  12.191   0.624   7.050
 7660POPC   C4B42718  12.253   0.665   7.350
 7661POPC   NC342719   4.317   3.521   5.550
 7661POPC   PO442720   4.273   3.582   5.850
 7661POPC   GL142721   4.355   3.498   6.150
 7661POPC   GL242722   4.335   3.627   6.150
 7661POPC   C1A42723   4.286   3.578   6.450
 7661POPC   D2A42724   4.340   3.494   6.750
 7661POPC   C3A42725   4.317   3.527   7.050
 7661POPC   C4A42726   4.297   3.582   7.350
 7661POPC   C1B42727   4.492   3.744   6.450
 7661POPC   C2B42728   4.487   3.777   6.750
 7661POPC   C3B42729   4.473   3.754   7.050
 7661POPC   C4B42730   4.491   3.720   7.350
 7662POPC   NC342731   8.191   1.954   5.550
 7662POPC   PO442732   8.179   2.029   5.850
 7662POPC   GL142733   8.156   2.017   6.150
 7662POPC   GL242734   8.141   2.101   6.150
 7662POPC   C1A42735   8.219   2.026   6.450
 7662POPC   D2A42736   8.165   2.033   6.750
 7662POPC   C3A42737   8.216   2.033   7.050
 7662POPC   C4A42738   8.223   1.949   7.350
 7662POPC   C1B42739   8.208   2.198   6.450
 7662POPC   C2B42740   8.125   2.228   6.750
 7662POPC   C3B42741   8.143   2.230   7.050
 7662POPC   C4B42742   8.157   2.269   7.350
 7663POPC   NC342743   3.546  34.536   5.550
 7663POPC   PO442744   3.532  34.532   5.850
 7663POPC   GL142745   3.544  34.602   6.150
 7663POPC   GL242746   3.582  34.455   6.150
 7663POPC   C1A42747   3.516  34.623   6.450
 7663POPC   D2A42748   3.513  34.614   6.750
 7663POPC   C3A42749   3.515  34.536   7.050
 7663POPC   C4A42750   3.549  34.620   7.350
 7663POPC   C1B42751   3.613  34.285   6.450
 7663POPC   C2B42752   3.608  34.294   6.750
 7663POPC   C3B42753   3.562  34.282   7.050
 7663POPC   C4B42754   3.602  34.359   7.350
 7664POPC   NC342755  20.586  29.876   5.550
 7664POPC   PO442756  20.646  29.873   5.850
 7664POPC   GL142757  20.632  29.900   6.150
 7664POPC   GL242758  20.504  29.892   6.150
 7664POPC   C1A42759  20.591  29.935   6.450
 7664POPC   D2A42760  20.656  29.884   6.750
 7664POPC   C3A42761  20.631  29.914   7.050
 7664POPC   C4A42762  20.608  29.904   7.350
 7664POPC   C1B42763  20.367  29.741   6.450
 7664POPC   C2B42764  20.408  29.754   6.750
 7664POPC   C3B42765  20.463  29.778   7.050
 7664POPC   C4B42766  20.453  29.764   7.350
 7665POPC   NC342767  20.584  25.278   5.550
 7665POPC   PO442768  20.640  25.258   5.850
 7665POPC   GL142769  20.641  25.312   6.150
 7665POPC   GL242770  20.761  25.357   6.150
 7665POPC   C1A42771  20.609  25.289   6.450
 7665POPC   D2A42772  20.622  25.306   6.750
 7665POPC   C3A42773  20.643  25.281   7.050
 7665POPC   C4A42774  20.630  25.262   7.350
 7665POPC   C1B42775  20.885  25.335   6.450
 7665POPC   C2B42776  20.848  25.337   6.750
 7665POPC   C3B42777  20.791  25.350   7.050
 7665POPC   C4B42778  20.864  25.413   7.350
 7666POPC   NC342779   5.841  26.801   5.550
 7666POPC   PO442780   5.870  26.795   5.850
 7666POPC   GL142781   5.856  26.821   6.150
 7666POPC   GL242782   5.786  26.726   6.150
 7666POPC   C1A42783   5.821  26.842   6.450
 7666POPC   D2A42784   5.828  26.827   6.750
 7666POPC   C3A42785   5.855  26.823   7.050
 7666POPC   C4A42786   5.896  26.770   7.350
 7666POPC   C1B42787   5.774  26.632   6.450
 7666POPC   C2B42788   5.756  26.646   6.750
 7666POPC   C3B42789   5.764  26.564   7.050
 7666POPC   C4B42790   5.771  26.590   7.350
 7667POPC   NC342791  31.432  35.317   5.550
 7667POPC   PO442792  31.472  35.368   5.850
 7667POPC   GL142793  31.478  35.313   6.150
 7667POPC   GL242794  31.484  35.255   6.150
 7667POPC   C1A42795  31.456  35.356   6.450
 7667POPC   D2A42796  31.510  35.365   6.750
 7667POPC   C3A42797  31.503  35.376   7.050
 7667POPC   C4A42798  31.431  35.384   7.350
 7667POPC   C1B42799  31.452  35.065   6.450
 7667POPC   C2B42800  31.458  35.131   6.750
 7667POPC   C3B42801  31.503  35.122   7.050
 7667POPC   C4B42802  31.450  35.133   7.350
 7668POPC   NC342803  22.913  12.870   5.550
 7668POPC   PO442804  22.964  12.831   5.850
 7668POPC   GL142805  22.950  12.868   6.150
 7668POPC   GL242806  22.796  12.909   6.150
 7668POPC   C1A42807  22.937  12.818   6.450
 7668POPC   D2A42808  22.960  12.850   6.750
 7668POPC   C3A42809  22.907  12.885   7.050
 7668POPC   C4A42810  22.960  12.847   7.350
 7668POPC   C1B42811  22.736  13.001   6.450
 7668POPC   C2B42812  22.709  12.970   6.750
 7668POPC   C3B42813  22.760  13.003   7.050
 7668POPC   C4B42814  22.703  13.019   7.350
 7669POPC   NC342815  22.888  26.782   5.550
 7669POPC   PO442816  22.914  26.867   5.850
 7669POPC   GL142817  22.913  26.844   6.150
 7669POPC   GL242818  23.104  26.799   6.150
 7669POPC   C1A42819  22.944  26.772   6.450
 7669POPC   D2A42820  22.890  26.798   6.750
 7669POPC   C3A42821  22.952  26.770   7.050
 7669POPC   C4A42822  22.894  26.785   7.350
 7669POPC   C1B42823  23.189  26.830   6.450
 7669POPC   C2B42824  23.172  26.817   6.750
 7669POPC   C3B42825  23.218  26.804   7.050
 7669POPC   C4B42826  23.146  26.821   7.350
 7670POPC   NC342827  19.037   2.765   5.550
 7670POPC   PO442828  19.027   2.781   5.850
 7670POPC   GL142829  19.055   2.721   6.150
 7670POPC   GL242830  19.216   2.808   6.150
 7670POPC   C1A42831  19.093   2.814   6.450
 7670POPC   D2A42832  19.055   2.735   6.750
 7670POPC   C3A42833  19.031   2.759   7.050
 7670POPC   C4A42834  19.046   2.737   7.350
 7670POPC   C1B42835  19.255   2.808   6.450
 7670POPC   C2B42836  19.315   2.858   6.750
 7670POPC   C3B42837  19.266   2.842   7.050
 7670POPC   C4B42838  19.291   2.771   7.350
 7671POPC   NC342839  35.332  41.557   5.550
 7671POPC   PO442840  35.302  41.554   5.850
 7671POPC   GL142841  35.343  41.558   6.150
 7671POPC   GL242842  35.480  41.580   6.150
 7671POPC   C1A42843  35.364  41.512   6.450
 7671POPC   D2A42844  35.357  41.596   6.750
 7671POPC   C3A42845  35.350  41.550   7.050
 7671POPC   C4A42846  35.394  41.514   7.350
 7671POPC   C1B42847  35.626  41.669   6.450
 7671POPC   C2B42848  35.553  41.683   6.750
 7671POPC   C3B42849  35.608  41.698   7.050
 7671POPC   C4B42850  35.572  41.626   7.350
 7672POPC   NC342851  22.979   3.587   5.550
 7672POPC   PO442852  22.929   3.503   5.850
 7672POPC   GL142853  22.975   3.553   6.150
 7672POPC   GL242854  22.982   3.452   6.150
 7672POPC   C1A42855  22.966   3.510   6.450
 7672POPC   D2A42856  22.946   3.543   6.750
 7672POPC   C3A42857  22.901   3.570   7.050
 7672POPC   C4A42858  22.963   3.528   7.350
 7672POPC   C1B42859  23.087   3.299   6.450
 7672POPC   C2B42860  23.060   3.298   6.750
 7672POPC   C3B42861  23.064   3.366   7.050
 7672POPC   C4B42862  23.013   3.277   7.350
 7673POPC   NC342863   6.604  26.004   5.550
 7673POPC   PO442864   6.645  26.067   5.850
 7673POPC   GL142865   6.634  26.048   6.150
 7673POPC   GL242866   6.583  25.993   6.150
 7673POPC   C1A42867   6.620  26.011   6.450
 7673POPC   D2A42868   6.666  26.050   6.750
 7673POPC   C3A42869   6.604  26.086   7.050
 7673POPC   C4A42870   6.675  26.075   7.350
 7673POPC   C1B42871   6.434  25.829   6.450
 7673POPC   C2B42872   6.527  25.850   6.750
 7673POPC   C3B42873   6.497  25.824   7.050
 7673POPC   C4B42874   6.481  25.813   7.350
 7674POPC   NC342875  19.874  36.118   5.550
 7674POPC   PO442876  19.849  36.130   5.850
 7674POPC   GL142877  19.848  36.131   6.150
 7674POPC   GL242878  19.906  36.043   6.150
 7674POPC   C1A42879  19.842  36.129   6.450
 7674POPC   D2A42880  19.860  36.125   6.750
 7674POPC   C3A42881  19.857  36.124   7.050
 7674POPC   C4A42882  19.828  36.086   7.350
 7674POPC   C1B42883  20.015  36.064   6.450
 7674POPC   C2B42884  20.065  36.013   6.750
 7674POPC   C3B42885  20.031  35.992   7.050
 7674POPC   C4B42886  20.034  36.014   7.350
 7675POPC   NC342887  10.480  25.270   5.550
 7675POPC   PO442888  10.494  25.245   5.850
 7675POPC   GL142889  10.496  25.265   6.150
 7675POPC   GL242890  10.408  25.213   6.150
 7675POPC   C1A42891  10.556  25.311   6.450
 7675POPC   D2A42892  10.531  25.283   6.750
 7675POPC   C3A42893  10.546  25.245   7.050
 7675POPC   C4A42894  10.519  25.290   7.350
 7675POPC   C1B42895  10.334  25.088   6.450
 7675POPC   C2B42896  10.336  25.175   6.750
 7675POPC   C3B42897  10.326  25.080   7.050
 7675POPC   C4B42898  10.352  25.104   7.350
 7676POPC   NC342899  33.037  31.473   5.550
 7676POPC   PO442900  32.986  31.504   5.850
 7676POPC   GL142901  33.025  31.510   6.150
 7676POPC   GL242902  33.006  31.566   6.150
 7676POPC   C1A42903  32.995  31.494   6.450
 7676POPC   D2A42904  32.996  31.474   6.750
 7676POPC   C3A42905  33.048  31.493   7.050
 7676POPC   C4A42906  33.008  31.513   7.350
 7676POPC   C1B42907  33.024  31.731   6.450
 7676POPC   C2B42908  33.019  31.736   6.750
 7676POPC   C3B42909  32.965  31.698   7.050
 7676POPC   C4B42910  32.970  31.730   7.350
 7677POPC   NC342911  36.139  37.701   5.550
 7677POPC   PO442912  36.078  37.640   5.850
 7677POPC   GL142913  36.091  37.725   6.150
 7677POPC   GL242914  36.135  37.812   6.150
 7677POPC   C1A42915  36.162  37.636   6.450
 7677POPC   D2A42916  36.151  37.640   6.750
 7677POPC   C3A42917  36.090  37.650   7.050
 7677POPC   C4A42918  36.136  37.652   7.350
 7677POPC   C1B42919  36.169  37.973   6.450
 7677POPC   C2B42920  36.118  37.901   6.750
 7677POPC   C3B42921  36.118  37.887   7.050
 7677POPC   C4B42922  36.160  37.883   7.350
 7678POPC   NC342923   1.189  20.625   5.550
 7678POPC   PO442924   1.188  20.616   5.850
 7678POPC   GL142925   1.166  20.636   6.150
 7678POPC   GL242926   1.301  20.614   6.150
 7678POPC   C1A42927   1.219  20.619   6.450
 7678POPC   D2A42928   1.207  20.622   6.750
 7678POPC   C3A42929   1.244  20.647   7.050
 7678POPC   C4A42930   1.195  20.582   7.350
 7678POPC   C1B42931   1.489  20.709   6.450
 7678POPC   C2B42932   1.457  20.736   6.750
 7678POPC   C3B42933   1.445  20.689   7.050
 7678POPC   C4B42934   1.402  20.719   7.350
 7679POPC   NC342935  10.487  37.691   5.550
 7679POPC   PO442936  10.500  37.689   5.850
 7679POPC   GL142937  10.539  37.698   6.150
 7679POPC   GL242938  10.475  37.611   6.150
 7679POPC   C1A42939  10.504  37.675   6.450
 7679POPC   D2A42940  10.523  37.717   6.750
 7679POPC   C3A42941  10.494  37.683   7.050
 7679POPC   C4A42942  10.574  37.660   7.350
 7679POPC   C1B42943  10.429  37.479   6.450
 7679POPC   C2B42944  10.430  37.474   6.750
 7679POPC   C3B42945  10.445  37.466   7.050
 7679POPC   C4B42946  10.414  37.479   7.350
 7680POPC   NC342947  19.861  27.635   5.550
 7680POPC   PO442948  19.817  27.599   5.850
 7680POPC   GL142949  19.792  27.574   6.150
 7680POPC   GL242950  19.875  27.425   6.150
 7680POPC   C1A42951  19.824  27.600   6.450
 7680POPC   D2A42952  19.837  27.593   6.750
 7680POPC   C3A42953  19.878  27.556   7.050
 7680POPC   C4A42954  19.863  27.607   7.350
 7680POPC   C1B42955  19.840  27.298   6.450
 7680POPC   C2B42956  19.821  27.361   6.750
 7680POPC   C3B42957  19.805  27.372   7.050
 7680POPC   C4B42958  19.847  27.309   7.350
 7681POPC   NC342959  17.540  44.710   5.550
 7681POPC   PO442960  17.541  44.637   5.850
 7681POPC   GL142961  17.499  44.700   6.150
 7681POPC   GL242962  17.472  44.809   6.150
 7681POPC   C1A42963  17.480  44.620   6.450
 7681POPC   D2A42964  17.553  44.670   6.750
 7681POPC   C3A42965  17.541  44.628   7.050
 7681POPC   C4A42966  17.491  44.642   7.350
 7681POPC   C1B42967  17.366  44.881   6.450
 7681POPC   C2B42968  17.426  44.855   6.750
 7681POPC   C3B42969  17.386  44.925   7.050
 7681POPC   C4B42970  17.376  44.878   7.350
 7682POPC   NC342971  32.979   9.758   5.550
 7682POPC   PO442972  33.017   9.768   5.850
 7682POPC   GL142973  33.012   9.793   6.150
 7682POPC   GL242974  33.035   9.644   6.150
 7682POPC   C1A42975  33.009   9.766   6.450
 7682POPC   D2A42976  33.062   9.728   6.750
 7682POPC   C3A42977  33.049   9.740   7.050
 7682POPC   C4A42978  33.036   9.750   7.350
 7682POPC   C1B42979  33.108   9.460   6.450
 7682POPC   C2B42980  33.016   9.510   6.750
 7682POPC   C3B42981  33.066   9.534   7.050
 7682POPC   C4B42982  33.029   9.517   7.350
 7683POPC   NC342983   8.235  15.220   5.550
 7683POPC   PO442984   8.218  15.213   5.850
 7683POPC   GL142985   8.198  15.139   6.150
 7683POPC   GL242986   8.220  15.346   6.150
 7683POPC   C1A42987   8.153  15.191   6.450
 7683POPC   D2A42988   8.193  15.182   6.750
 7683POPC   C3A42989   8.184  15.143   7.050
 7683POPC   C4A42990   8.231  15.149   7.350
 7683POPC   C1B42991   8.198  15.443   6.450
 7683POPC   C2B42992   8.213  15.413   6.750
 7683POPC   C3B42993   8.147  15.399   7.050
 7683POPC   C4B42994   8.135  15.471   7.350
 7684POPC   NC342995  12.099  22.114   5.550
 7684POPC   PO442996  12.095  22.168   5.850
 7684POPC   GL142997  12.044  22.137   6.150
 7684POPC   GL242998  12.073  22.042   6.150
 7684POPC   C1A42999  12.111  22.199   6.450
 7684POPC   D2A43000  12.103  22.207   6.750
 7684POPC   C3A43001  12.062  22.197   7.050
 7684POPC   C4A43002  12.085  22.158   7.350
 7684POPC   C1B43003  11.973  21.921   6.450
 7684POPC   C2B43004  11.941  21.966   6.750
 7684POPC   C3B43005  11.985  21.953   7.050
 7684POPC   C4B43006  11.951  21.881   7.350
 7685POPC   NC343007  37.708  12.855   5.550
 7685POPC   PO443008  37.674  12.836   5.850
 7685POPC   GL143009  37.718  12.807   6.150
 7685POPC   GL243010  37.597  12.719   6.150
 7685POPC   C1A43011  37.686  12.842   6.450
 7685POPC   D2A43012  37.715  12.876   6.750
 7685POPC   C3A43013  37.687  12.899   7.050
 7685POPC   C4A43014  37.689  12.895   7.350
 7685POPC   C1B43015  37.487  12.658   6.450
 7685POPC   C2B43016  37.566  12.631   6.750
 7685POPC   C3B43017  37.573  12.691   7.050
 7685POPC   C4B43018  37.584  12.665   7.350
 7686POPC   NC343019  19.033  40.744   5.550
 7686POPC   PO443020  19.098  40.819   5.850
 7686POPC   GL143021  19.074  40.817   6.150
 7686POPC   GL243022  18.996  40.866   6.150
 7686POPC   C1A43023  19.099  40.769   6.450
 7686POPC   D2A43024  19.081  40.740   6.750
 7686POPC   C3A43025  19.092  40.738   7.050
 7686POPC   C4A43026  19.083  40.758   7.350
 7686POPC   C1B43027  18.847  40.906   6.450
 7686POPC   C2B43028  18.827  40.867   6.750
 7686POPC   C3B43029  18.862  40.891   7.050
 7686POPC   C4B43030  18.895  40.876   7.350
 7687POPC   NC343031   6.649   5.129   5.550
 7687POPC   PO443032   6.616   5.057   5.850
 7687POPC   GL143033   6.600   5.087   6.150
 7687POPC   GL243034   6.637   4.950   6.150
 7687POPC   C1A43035   6.642   5.068   6.450
 7687POPC   D2A43036   6.624   5.113   6.750
 7687POPC   C3A43037   6.627   5.135   7.050
 7687POPC   C4A43038   6.655   5.058   7.350
 7687POPC   C1B43039   6.688   4.843   6.450
 7687POPC   C2B43040   6.699   4.813   6.750
 7687POPC   C3B43041   6.648   4.840   7.050
 7687POPC   C4B43042   6.651   4.803   7.350
 7688POPC   NC343043  13.641  43.908   5.550
 7688POPC   PO443044  13.672  43.840   5.850
 7688POPC   GL143045  13.606  43.922   6.150
 7688POPC   GL243046  13.763  43.891   6.150
 7688POPC   C1A43047  13.604  43.923   6.450
 7688POPC   D2A43048  13.592  43.869   6.750
 7688POPC   C3A43049  13.591  43.877   7.050
 7688POPC   C4A43050  13.660  43.912   7.350
 7688POPC   C1B43051  13.869  43.956   6.450
 7688POPC   C2B43052  13.893  43.927   6.750
 7688POPC   C3B43053  13.903  43.893   7.050
 7688POPC   C4B43054  13.922  43.914   7.350
 7689POPC   NC343055  43.884  19.028   5.550
 7689POPC   PO443056  43.876  19.103   5.850
 7689POPC   GL143057  43.843  19.091   6.150
 7689POPC   GL243058  43.791  19.012   6.150
 7689POPC   C1A43059  43.869  19.097   6.450
 7689POPC   D2A43060  43.841  19.017   6.750
 7689POPC   C3A43061  43.866  19.020   7.050
 7689POPC   C4A43062  43.889  19.027   7.350
 7689POPC   C1B43063  43.673  18.911   6.450
 7689POPC   C2B43064  43.665  18.878   6.750
 7689POPC   C3B43065  43.715  18.918   7.050
 7689POPC   C4B43066  43.673  18.923   7.350
 7690POPC   NC343067   9.011  18.260   5.550
 7690POPC   PO443068   8.930  18.327   5.850
 7690POPC   GL143069   9.003  18.271   6.150
 7690POPC   GL243070   9.073  18.441   6.150
 7690POPC   C1A43071   8.978  18.235   6.450
 7690POPC   D2A43072   9.012  18.305   6.750
 7690POPC   C3A43073   8.942  18.307   7.050
 7690POPC   C4A43074   8.931  18.268   7.350
 7690POPC   C1B43075   9.126  18.470   6.450
 7690POPC   C2B43076   9.099  18.525   6.750
 7690POPC   C3B43077   9.121  18.489   7.050
 7690POPC   C4B43078   9.068  18.498   7.350
 7691POPC   NC343079  20.596  10.546   5.550
 7691POPC   PO443080  20.600  10.513   5.850
 7691POPC   GL143081  20.660  10.574   6.150
 7691POPC   GL243082  20.728  10.602   6.150
 7691POPC   C1A43083  20.615  10.552   6.450
 7691POPC   D2A43084  20.577  10.530   6.750
 7691POPC   C3A43085  20.595  10.535   7.050
 7691POPC   C4A43086  20.645  10.506   7.350
 7691POPC   C1B43087  20.742  10.663   6.450
 7691POPC   C2B43088  20.776  10.688   6.750
 7691POPC   C3B43089  20.805  10.687   7.050
 7691POPC   C4B43090  20.783  10.680   7.350
 7692POPC   NC343091  40.804  29.940   5.550
 7692POPC   PO443092  40.801  29.954   5.850
 7692POPC   GL143093  40.809  29.925   6.150
 7692POPC   GL243094  40.703  29.932   6.150
 7692POPC   C1A43095  40.781  29.968   6.450
 7692POPC   D2A43096  40.820  29.872   6.750
 7692POPC   C3A43097  40.751  29.964   7.050
 7692POPC   C4A43098  40.774  29.909   7.350
 7692POPC   C1B43099  40.599  30.030   6.450
 7692POPC   C2B43100  40.583  29.999   6.750
 7692POPC   C3B43101  40.566  29.985   7.050
 7692POPC   C4B43102  40.543  30.002   7.350
 7693POPC   NC343103  16.685  42.312   5.550
 7693POPC   PO443104  16.735  42.321   5.850
 7693POPC   GL143105  16.745  42.305   6.150
 7693POPC   GL243106  16.811  42.455   6.150
 7693POPC   C1A43107  16.772  42.307   6.450
 7693POPC   D2A43108  16.689  42.358   6.750
 7693POPC   C3A43109  16.728  42.292   7.050
 7693POPC   C4A43110  16.742  42.309   7.350
 7693POPC   C1B43111  16.913  42.521   6.450
 7693POPC   C2B43112  16.947  42.495   6.750
 7693POPC   C3B43113  16.888  42.492   7.050
 7693POPC   C4B43114  16.870  42.491   7.350
 7694POPC   NC343115   2.768  19.010   5.550
 7694POPC   PO443116   2.719  19.016   5.850
 7694POPC   GL143117   2.780  19.074   6.150
 7694POPC   GL243118   2.679  19.139   6.150
 7694POPC   C1A43119   2.786  19.066   6.450
 7694POPC   D2A43120   2.722  19.091   6.750
 7694POPC   C3A43121   2.758  19.082   7.050
 7694POPC   C4A43122   2.812  19.029   7.350
 7694POPC   C1B43123   2.598  19.155   6.450
 7694POPC   C2B43124   2.517  19.198   6.750
 7694POPC   C3B43125   2.520  19.162   7.050
 7694POPC   C4B43126   2.523  19.220   7.350
 7695POPC   NC343127  36.904   0.474   5.550
 7695POPC   PO443128  36.902   0.458   5.850
 7695POPC   GL143129  36.859   0.402   6.150
 7695POPC   GL243130  36.897   0.362   6.150
 7695POPC   C1A43131  36.917   0.403   6.450
 7695POPC   D2A43132  36.913   0.454   6.750
 7695POPC   C3A43133  36.872   0.484   7.050
 7695POPC   C4A43134  36.913   0.449   7.350
 7695POPC   C1B43135  36.813   0.235   6.450
 7695POPC   C2B43136  36.837   0.217   6.750
 7695POPC   C3B43137  36.826   0.177   7.050
 7695POPC   C4B43138  36.805   0.223   7.350
 7696POPC   NC343139   8.194  34.584   5.550
 7696POPC   PO443140   8.178  34.567   5.850
 7696POPC   GL143141   8.148  34.547   6.150
 7696POPC   GL243142   8.124  34.488   6.150
 7696POPC   C1A43143   8.198  34.573   6.450
 7696POPC   D2A43144   8.237  34.623   6.750
 7696POPC   C3A43145   8.188  34.595   7.050
 7696POPC   C4A43146   8.199  34.558   7.350
 7696POPC   C1B43147   7.980  34.399   6.450
 7696POPC   C2B43148   7.936  34.483   6.750
 7696POPC   C3B43149   7.944  34.482   7.050
 7696POPC   C4B43150   7.941  34.430   7.350
 7697POPC   NC343151  42.288  27.610   5.550
 7697POPC   PO443152  42.356  27.642   5.850
 7697POPC   GL143153  42.364  27.600   6.150
 7697POPC   GL243154  42.398  27.510   6.150
 7697POPC   C1A43155  42.304  27.567   6.450
 7697POPC   D2A43156  42.333  27.568   6.750
 7697POPC   C3A43157  42.335  27.607   7.050
 7697POPC   C4A43158  42.295  27.546   7.350
 7697POPC   C1B43159  42.464  27.444   6.450
 7697POPC   C2B43160  42.484  27.431   6.750
 7697POPC   C3B43161  42.502  27.429   7.050
 7697POPC   C4B43162  42.470  27.439   7.350
 7698POPC   NC343163   1.260  36.932   5.550
 7698POPC   PO443164   1.210  36.875   5.850
 7698POPC   GL143165   1.253  36.856   6.150
 7698POPC   GL243166   1.339  36.977   6.150
 7698POPC   C1A43167   1.190  36.945   6.450
 7698POPC   D2A43168   1.257  36.943   6.750
 7698POPC   C3A43169   1.251  36.875   7.050
 7698POPC   C4A43170   1.207  36.945   7.350
 7698POPC   C1B43171   1.453  37.041   6.450
 7698POPC   C2B43172   1.362  37.112   6.750
 7698POPC   C3B43173   1.355  37.079   7.050
 7698POPC   C4B43174   1.408  37.026   7.350
 7699POPC   NC343175  10.547  20.574   5.550
 7699POPC   PO443176  10.518  20.599   5.850
 7699POPC   GL143177  10.493  20.609   6.150
 7699POPC   GL243178  10.482  20.513   6.150
 7699POPC   C1A43179  10.497  20.583   6.450
 7699POPC   D2A43180  10.484  20.587   6.750
 7699POPC   C3A43181  10.547  20.643   7.050
 7699POPC   C4A43182  10.501  20.566   7.350
 7699POPC   C1B43183  10.417  20.412   6.450
 7699POPC   C2B43184  10.399  20.409   6.750
 7699POPC   C3B43185  10.411  20.422   7.050
 7699POPC   C4B43186  10.431  20.400   7.350
 7700POPC   NC343187  12.046  15.997   5.550
 7700POPC   PO443188  12.053  15.956   5.850
 7700POPC   GL143189  12.032  15.961   6.150
 7700POPC   GL243190  12.038  16.032   6.150
 7700POPC   C1A43191  12.103  15.982   6.450
 7700POPC   D2A43192  12.074  15.963   6.750
 7700POPC   C3A43193  12.088  15.981   7.050
 7700POPC   C4A43194  12.113  15.919   7.350
 7700POPC   C1B43195  11.939  16.143   6.450
 7700POPC   C2B43196  11.968  16.158   6.750
 7700POPC   C3B43197  11.991  16.133   7.050
 7700POPC   C4B43198  11.985  16.215   7.350
 7701POPC   NC343199  41.590   8.169   5.550
 7701POPC   PO443200  41.570   8.151   5.850
 7701POPC   GL143201  41.575   8.148   6.150
 7701POPC   GL243202  41.482   8.327   6.150
 7701POPC   C1A43203  41.531   8.177   6.450
 7701POPC   D2A43204  41.574   8.186   6.750
 7701POPC   C3A43205  41.596   8.235   7.050
 7701POPC   C4A43206  41.512   8.153   7.350
 7701POPC   C1B43207  41.449   8.364   6.450
 7701POPC   C2B43208  41.390   8.367   6.750
 7701POPC   C3B43209  41.423   8.414   7.050
 7701POPC   C4B43210  41.376   8.420   7.350
 7702POPC   NC343211  35.325   2.730   5.550
 7702POPC   PO443212  35.317   2.812   5.850
 7702POPC   GL143213  35.370   2.719   6.150
 7702POPC   GL243214  35.236   2.783   6.150
 7702POPC   C1A43215  35.308   2.757   6.450
 7702POPC   D2A43216  35.354   2.791   6.750
 7702POPC   C3A43217  35.368   2.807   7.050
 7702POPC   C4A43218  35.353   2.758   7.350
 7702POPC   C1B43219  35.143   2.739   6.450
 7702POPC   C2B43220  35.065   2.684   6.750
 7702POPC   C3B43221  35.138   2.686   7.050
 7702POPC   C4B43222  35.153   2.745   7.350
 7703POPC   NC343223   7.413  16.708   5.550
 7703POPC   PO443224   7.450  16.699   5.850
 7703POPC   GL143225   7.441  16.707   6.150
 7703POPC   GL243226   7.331  16.696   6.150
 7703POPC   C1A43227   7.452  16.747   6.450
 7703POPC   D2A43228   7.422  16.769   6.750
 7703POPC   C3A43229   7.385  16.729   7.050
 7703POPC   C4A43230   7.381  16.710   7.350
 7703POPC   C1B43231   7.186  16.556   6.450
 7703POPC   C2B43232   7.248  16.653   6.750
 7703POPC   C3B43233   7.191  16.633   7.050
 7703POPC   C4B43234   7.225  16.586   7.350
 7704POPC   NC343235  32.250  34.568   5.550
 7704POPC   PO443236  32.241  34.530   5.850
 7704POPC   GL143237  32.221  34.583   6.150
 7704POPC   GL243238  32.270  34.749   6.150
 7704POPC   C1A43239  32.240  34.584   6.450
 7704POPC   D2A43240  32.240  34.615   6.750
 7704POPC   C3A43241  32.274  34.541   7.050
 7704POPC   C4A43242  32.270  34.572   7.350
 7704POPC   C1B43243  32.231  34.820   6.450
 7704POPC   C2B43244  32.288  34.855   6.750
 7704POPC   C3B43245  32.242  34.801   7.050
 7704POPC   C4B43246  32.233  34.817   7.350
 7705POPC   NC343247   3.552   7.380   5.550
 7705POPC   PO443248   3.568   7.459   5.850
 7705POPC   GL143249   3.543   7.380   6.150
 7705POPC   GL243250   3.683   7.311   6.150
 7705POPC   C1A43251   3.584   7.447   6.450
 7705POPC   D2A43252   3.530   7.414   6.750
 7705POPC   C3A43253   3.550   7.418   7.050
 7705POPC   C4A43254   3.498   7.407   7.350
 7705POPC   C1B43255   3.751   7.240   6.450
 7705POPC   C2B43256   3.707   7.305   6.750
 7705POPC   C3B43257   3.748   7.254   7.050
 7705POPC   C4B43258   3.768   7.275   7.350
 7706POPC   NC343259  36.881  35.345   5.550
 7706POPC   PO443260  36.912  35.355   5.850
 7706POPC   GL143261  36.895  35.388   6.150
 7706POPC   GL243262  36.800  35.415   6.150
 7706POPC   C1A43263  36.872  35.303   6.450
 7706POPC   D2A43264  36.932  35.313   6.750
 7706POPC   C3A43265  36.953  35.308   7.050
 7706POPC   C4A43266  36.878  35.372   7.350
 7706POPC   C1B43267  36.682  35.433   6.450
 7706POPC   C2B43268  36.630  35.415   6.750
 7706POPC   C3B43269  36.689  35.446   7.050
 7706POPC   C4B43270  36.624  35.474   7.350
 7707POPC   NC343271  44.636   1.211   5.550
 7707POPC   PO443272  44.648   1.224   5.850
 7707POPC   GL143273  44.665   1.181   6.150
 7707POPC   GL243274  44.497   1.244   6.150
 7707POPC   C1A43275  44.665   1.253   6.450
 7707POPC   D2A43276  44.679   1.210   6.750
 7707POPC   C3A43277  44.665   1.226   7.050
 7707POPC   C4A43278  44.629   1.170   7.350
 7707POPC   C1B43279  44.456   1.228   6.450
 7707POPC   C2B43280  44.439   1.223   6.750
 7707POPC   C3B43281  44.412   1.164   7.050
 7707POPC   C4B43282  44.409   1.162   7.350
 7708POPC   NC343283   1.213  43.087   5.550
 7708POPC   PO443284   1.224  43.073   5.850
 7708POPC   GL143285   1.240  43.092   6.150
 7708POPC   GL243286   1.373  43.041   6.150
 7708POPC   C1A43287   1.208  43.150   6.450
 7708POPC   D2A43288   1.226  43.120   6.750
 7708POPC   C3A43289   1.243  43.064   7.050
 7708POPC   C4A43290   1.235  43.103   7.350
 7708POPC   C1B43291   1.471  43.087   6.450
 7708POPC   C2B43292   1.441  43.101   6.750
 7708POPC   C3B43293   1.494  43.102   7.050
 7708POPC   C4B43294   1.496  43.048   7.350
 7709POPC   NC343295  30.706   1.238   5.550
 7709POPC   PO443296  30.694   1.211   5.850
 7709POPC   GL143297  30.677   1.211   6.150
 7709POPC   GL243298  30.702   1.361   6.150
 7709POPC   C1A43299  30.717   1.167   6.450
 7709POPC   D2A43300  30.720   1.248   6.750
 7709POPC   C3A43301  30.665   1.234   7.050
 7709POPC   C4A43302  30.685   1.217   7.350
 7709POPC   C1B43303  30.714   1.462   6.450
 7709POPC   C2B43304  30.770   1.478   6.750
 7709POPC   C3B43305  30.756   1.478   7.050
 7709POPC   C4B43306  30.752   1.471   7.350
 7710POPC   NC343307   0.409  14.380   5.550
 7710POPC   PO443308   0.396  14.357   5.850
 7710POPC   GL143309   0.389  14.395   6.150
 7710POPC   GL243310   0.408  14.263   6.150
 7710POPC   C1A43311   0.389  14.357   6.450
 7710POPC   D2A43312   0.466  14.356   6.750
 7710POPC   C3A43313   0.432  14.362   7.050
 7710POPC   C4A43314   0.417  14.397   7.350
 7710POPC   C1B43315   0.424  14.178   6.450
 7710POPC   C2B43316   0.426  14.154   6.750
 7710POPC   C3B43317   0.423  14.141   7.050
 7710POPC   C4B43318   0.357  14.149   7.350
 7711POPC   NC343319  17.523  37.633   5.550
 7711POPC   PO443320  17.469  37.672   5.850
 7711POPC   GL143321  17.499  37.651   6.150
 7711POPC   GL243322  17.570  37.739   6.150
 7711POPC   C1A43323  17.520  37.701   6.450
 7711POPC   D2A43324  17.548  37.663   6.750
 7711POPC   C3A43325  17.551  37.640   7.050
 7711POPC   C4A43326  17.508  37.651   7.350
 7711POPC   C1B43327  17.660  37.922   6.450
 7711POPC   C2B43328  17.639  37.848   6.750
 7711POPC   C3B43329  17.628  37.914   7.050
 7711POPC   C4B43330  17.683  37.880   7.350
 7712POPC   NC343331   4.347   9.701   5.550
 7712POPC   PO443332   4.367   9.798   5.850
 7712POPC   GL143333   4.282   9.749   6.150
 7712POPC   GL243334   4.416   9.775   6.150
 7712POPC   C1A43335   4.363   9.755   6.450
 7712POPC   D2A43336   4.273   9.736   6.750
 7712POPC   C3A43337   4.303   9.714   7.050
 7712POPC   C4A43338   4.313   9.734   7.350
 7712POPC   C1B43339   4.548   9.839   6.450
 7712POPC   C2B43340   4.533   9.812   6.750
 7712POPC   C3B43341   4.594   9.835   7.050
 7712POPC   C4B43342   4.567   9.871   7.350
 7713POPC   NC343343  33.793  29.894   5.550
 7713POPC   PO443344  33.845  29.954   5.850
 7713POPC   GL143345  33.809  29.905   6.150
 7713POPC   GL243346  33.767  30.052   6.150
 7713POPC   C1A43347  33.786  29.942   6.450
 7713POPC   D2A43348  33.820  29.935   6.750
 7713POPC   C3A43349  33.774  29.938   7.050
 7713POPC   C4A43350  33.805  29.932   7.350
 7713POPC   C1B43351  33.854  30.154   6.450
 7713POPC   C2B43352  33.771  30.155   6.750
 7713POPC   C3B43353  33.762  30.176   7.050
 7713POPC   C4B43354  33.784  30.157   7.350
 7714POPC   NC343355   5.836   8.932   5.550
 7714POPC   PO443356   5.837   8.963   5.850
 7714POPC   GL143357   5.836   9.007   6.150
 7714POPC   GL243358   5.818   8.827   6.150
 7714POPC   C1A43359   5.854   8.951   6.450
 7714POPC   D2A43360   5.913   8.932   6.750
 7714POPC   C3A43361   5.865   8.978   7.050
 7714POPC   C4A43362   5.829   9.017   7.350
 7714POPC   C1B43363   5.861   8.691   6.450
 7714POPC   C2B43364   5.771   8.705   6.750
 7714POPC   C3B43365   5.851   8.769   7.050
 7714POPC   C4B43366   5.802   8.706   7.350
 7715POPC   NC343367  29.191  18.243   5.550
 7715POPC   PO443368  29.128  18.303   5.850
 7715POPC   GL143369  29.129  18.254   6.150
 7715POPC   GL243370  29.188  18.405   6.150
 7715POPC   C1A43371  29.145  18.305   6.450
 7715POPC   D2A43372  29.155  18.244   6.750
 7715POPC   C3A43373  29.189  18.237   7.050
 7715POPC   C4A43374  29.145  18.311   7.350
 7715POPC   C1B43375  29.331  18.495   6.450
 7715POPC   C2B43376  29.310  18.432   6.750
 7715POPC   C3B43377  29.302  18.477   7.050
 7715POPC   C4B43378  29.351  18.474   7.350
 7716POPC   NC343379  27.618  22.171   5.550
 7716POPC   PO443380  27.634  22.188   5.850
 7716POPC   GL143381  27.607  22.151   6.150
 7716POPC   GL243382  27.716  22.092   6.150
 7716POPC   C1A43383  27.595  22.137   6.450
 7716POPC   D2A43384  27.642  22.169   6.750
 7716POPC   C3A43385  27.600  22.184   7.050
 7716POPC   C4A43386  27.585  22.169   7.350
 7716POPC   C1B43387  27.758  21.965   6.450
 7716POPC   C2B43388  27.814  22.022   6.750
 7716POPC   C3B43389  27.823  21.950   7.050
 7716POPC   C4B43390  27.770  21.960   7.350
 7717POPC   NC343391  35.315  36.917   5.550
 7717POPC   PO443392  35.345  36.891   5.850
 7717POPC   GL143393  35.319  36.924   6.150
 7717POPC   GL243394  35.372  36.808   6.150
 7717POPC   C1A43395  35.374  36.948   6.450
 7717POPC   D2A43396  35.385  36.905   6.750
 7717POPC   C3A43397  35.392  36.900   7.050
 7717POPC   C4A43398  35.392  36.857   7.350
 7717POPC   C1B43399  35.328  36.630   6.450
 7717POPC   C2B43400  35.313  36.619   6.750
 7717POPC   C3B43401  35.249  36.693   7.050
 7717POPC   C4B43402  35.325  36.657   7.350
 7718POPC   NC343403   3.578  18.268   5.550
 7718POPC   PO443404   3.497  18.290   5.850
 7718POPC   GL143405   3.572  18.262   6.150
 7718POPC   GL243406   3.647  18.320   6.150
 7718POPC   C1A43407   3.555  18.257   6.450
 7718POPC   D2A43408   3.531  18.330   6.750
 7718POPC   C3A43409   3.493  18.253   7.050
 7718POPC   C4A43410   3.496  18.294   7.350
 7718POPC   C1B43411   3.753  18.299   6.450
 7718POPC   C2B43412   3.798  18.248   6.750
 7718POPC   C3B43413   3.756  18.246   7.050
 7718POPC   C4B43414   3.793  18.272   7.350
 7719POPC   NC343415  23.672  33.840   5.550
 7719POPC   PO443416  23.736  33.771   5.850
 7719POPC   GL143417  23.665  33.848   6.150
 7719POPC   GL243418  23.778  33.711   6.150
 7719POPC   C1A43419  23.691  33.832   6.450
 7719POPC   D2A43420  23.689  33.847   6.750
 7719POPC   C3A43421  23.683  33.763   7.050
 7719POPC   C4A43422  23.669  33.797   7.350
 7719POPC   C1B43423  23.770  33.601   6.450
 7719POPC   C2B43424  23.757  33.593   6.750
 7719POPC   C3B43425  23.715  33.596   7.050
 7719POPC   C4B43426  23.792  33.594   7.350
 7720POPC   NC343427  29.184  39.215   5.550
 7720POPC   PO443428  29.135  39.218   5.850
 7720POPC   GL143429  29.152  39.192   6.150
 7720POPC   GL243430  29.156  39.057   6.150
 7720POPC   C1A43431  29.124  39.191   6.450
 7720POPC   D2A43432  29.104  39.273   6.750
 7720POPC   C3A43433  29.112  39.255   7.050
 7720POPC   C4A43434  29.183  39.260   7.350
 7720POPC   C1B43435  29.100  39.008   6.450
 7720POPC   C2B43436  29.075  38.970   6.750
 7720POPC   C3B43437  29.153  39.021   7.050
 7720POPC   C4B43438  29.117  39.007   7.350
 7721POPC   NC343439  27.560  29.968   5.550
 7721POPC   PO443440  27.597  29.885   5.850
 7721POPC   GL143441  27.577  29.969   6.150
 7721POPC   GL243442  27.526  29.796   6.150
 7721POPC   C1A43443  27.579  29.897   6.450
 7721POPC   D2A43444  27.608  29.883   6.750
 7721POPC   C3A43445  27.579  29.953   7.050
 7721POPC   C4A43446  27.631  29.912   7.350
 7721POPC   C1B43447  27.378  29.717   6.450
 7721POPC   C2B43448  27.402  29.697   6.750
 7721POPC   C3B43449  27.398  29.766   7.050
 7721POPC   C4B43450  27.380  29.753   7.350
 7722POPC   NC343451  33.787  19.106   5.550
 7722POPC   PO443452  33.762  19.067   5.850
 7722POPC   GL143453  33.798  19.030   6.150
 7722POPC   GL243454  33.811  19.144   6.150
 7722POPC   C1A43455  33.776  19.067   6.450
 7722POPC   D2A43456  33.836  19.065   6.750
 7722POPC   C3A43457  33.791  19.031   7.050
 7722POPC   C4A43458  33.826  19.054   7.350
 7722POPC   C1B43459  33.701  19.299   6.450
 7722POPC   C2B43460  33.734  19.269   6.750
 7722POPC   C3B43461  33.749  19.277   7.050
 7722POPC   C4B43462  33.786  19.322   7.350
 7723POPC   NC343463   3.509  30.662   5.550
 7723POPC   PO443464   3.571  30.689   5.850
 7723POPC   GL143465   3.494  30.729   6.150
 7723POPC   GL243466   3.646  30.604   6.150
 7723POPC   C1A43467   3.533  30.699   6.450
 7723POPC   D2A43468   3.499  30.697   6.750
 7723POPC   C3A43469   3.549  30.664   7.050
 7723POPC   C4A43470   3.535  30.696   7.350
 7723POPC   C1B43471   3.752  30.605   6.450
 7723POPC   C2B43472   3.749  30.562   6.750
 7723POPC   C3B43473   3.786  30.543   7.050
 7723POPC   C4B43474   3.771  30.599   7.350
 7724POPC   NC343475  29.164  44.639   5.550
 7724POPC   PO443476  29.129  44.668   5.850
 7724POPC   GL143477  29.144  44.662   6.150
 7724POPC   GL243478  29.288  44.707   6.150
 7724POPC   C1A43479  29.116  44.709   6.450
 7724POPC   D2A43480  29.145  44.639   6.750
 7724POPC   C3A43481  29.106  44.650   7.050
 7724POPC   C4A43482  29.113  44.694   7.350
 7724POPC   C1B43483  29.347  44.678   6.450
 7724POPC   C2B43484  29.389  44.688   6.750
 7724POPC   C3B43485  29.422  44.729   7.050
 7724POPC   C4B43486  29.425  44.739   7.350
 7725POPC   NC343487  39.246   3.514   5.550
 7725POPC   PO443488  39.210   3.539   5.850
 7725POPC   GL143489  39.275   3.549   6.150
 7725POPC   GL243490  39.154   3.616   6.150
 7725POPC   C1A43491  39.201   3.561   6.450
 7725POPC   D2A43492  39.234   3.581   6.750
 7725POPC   C3A43493  39.212   3.557   7.050
 7725POPC   C4A43494  39.258   3.494   7.350
 7725POPC   C1B43495  39.071   3.684   6.450
 7725POPC   C2B43496  39.050   3.675   6.750
 7725POPC   C3B43497  39.015   3.709   7.050
 7725POPC   C4B43498  39.041   3.653   7.350
 7726POPC   NC343499  39.254  10.541   5.550
 7726POPC   PO443500  39.219  10.497   5.850
 7726POPC   GL143501  39.272  10.526   6.150
 7726POPC   GL243502  39.165  10.448   6.150
 7726POPC   C1A43503  39.234  10.534   6.450
 7726POPC   D2A43504  39.194  10.540   6.750
 7726POPC   C3A43505  39.202  10.566   7.050
 7726POPC   C4A43506  39.224  10.552   7.350
 7726POPC   C1B43507  39.120  10.241   6.450
 7726POPC   C2B43508  39.120  10.256   6.750
 7726POPC   C3B43509  39.134  10.244   7.050
 7726POPC   C4B43510  39.167  10.279   7.350
 7727POPC   NC343511  12.830  22.900   5.550
 7727POPC   PO443512  12.861  22.979   5.850
 7727POPC   GL143513  12.891  22.983   6.150
 7727POPC   GL243514  12.997  23.000   6.150
 7727POPC   C1A43515  12.875  22.898   6.450
 7727POPC   D2A43516  12.899  22.978   6.750
 7727POPC   C3A43517  12.830  22.905   7.050
 7727POPC   C4A43518  12.828  22.959   7.350
 7727POPC   C1B43519  13.044  22.996   6.450
 7727POPC   C2B43520  13.090  23.042   6.750
 7727POPC   C3B43521  13.094  23.001   7.050
 7727POPC   C4B43522  13.041  23.011   7.350
 7728POPC   NC343523  31.479  28.344   5.550
 7728POPC   PO443524  31.465  28.358   5.850
 7728POPC   GL143525  31.479  28.405   6.150
 7728POPC   GL243526  31.563  28.465   6.150
 7728POPC   C1A43527  31.455  28.373   6.450
 7728POPC   D2A43528  31.459  28.390   6.750
 7728POPC   C3A43529  31.488  28.347   7.050
 7728POPC   C4A43530  31.463  28.331   7.350
 7728POPC   C1B43531  31.559  28.634   6.450
 7728POPC   C2B43532  31.591  28.570   6.750
 7728POPC   C3B43533  31.541  28.573   7.050
 7728POPC   C4B43534  31.555  28.615   7.350
 7729POPC   NC343535  10.558   8.997   5.550
 7729POPC   PO443536  10.574   8.970   5.850
 7729POPC   GL143537  10.542   8.967   6.150
 7729POPC   GL243538  10.591   9.039   6.150
 7729POPC   C1A43539  10.508   8.953   6.450
 7729POPC   D2A43540  10.537   8.975   6.750
 7729POPC   C3A43541  10.481   8.974   7.050
 7729POPC   C4A43542  10.561   8.965   7.350
 7729POPC   C1B43543  10.738   9.036   6.450
 7729POPC   C2B43544  10.803   9.073   6.750
 7729POPC   C3B43545  10.754   9.107   7.050
 7729POPC   C4B43546  10.770   9.049   7.350
 7730POPC   NC343547  35.357   8.194   5.550
 7730POPC   PO443548  35.324   8.246   5.850
 7730POPC   GL143549  35.349   8.223   6.150
 7730POPC   GL243550  35.296   8.088   6.150
 7730POPC   C1A43551  35.384   8.241   6.450
 7730POPC   D2A43552  35.319   8.205   6.750
 7730POPC   C3A43553  35.352   8.221   7.050
 7730POPC   C4A43554  35.391   8.147   7.350
 7730POPC   C1B43555  35.196   7.957   6.450
 7730POPC   C2B43556  35.265   7.952   6.750
 7730POPC   C3B43557  35.231   7.965   7.050
 7730POPC   C4B43558  35.261   7.985   7.350
 7731POPC   NC343559  13.592   9.772   5.550
 7731POPC   PO443560  13.621   9.779   5.850
 7731POPC   GL143561  13.603   9.714   6.150
 7731POPC   GL243562  13.577   9.880   6.150
 7731POPC   C1A43563  13.584   9.743   6.450
 7731POPC   D2A43564  13.615   9.755   6.750
 7731POPC   C3A43565  13.640   9.699   7.050
 7731POPC   C4A43566  13.621   9.745   7.350
 7731POPC   C1B43567  13.501   9.940   6.450
 7731POPC   C2B43568  13.498  10.022   6.750
 7731POPC   C3B43569  13.508   9.946   7.050
 7731POPC   C4B43570  13.505   9.956   7.350
 7732POPC   NC343571  20.599  22.206   5.550
 7732POPC   PO443572  20.575  22.159   5.850
 7732POPC   GL143573  20.596  22.206   6.150
 7732POPC   GL243574  20.628  22.036   6.150
 7732POPC   C1A43575  20.597  22.133   6.450
 7732POPC   D2A43576  20.614  22.147   6.750
 7732POPC   C3A43577  20.660  22.197   7.050
 7732POPC   C4A43578  20.620  22.210   7.350
 7732POPC   C1B43579  20.663  21.953   6.450
 7732POPC   C2B43580  20.685  21.937   6.750
 7732POPC   C3B43581  20.625  21.911   7.050
 7732POPC   C4B43582  20.688  21.955   7.350
 7733POPC   NC343583  16.697  12.122   5.550
 7733POPC   PO443584  16.743  12.090   5.850
 7733POPC   GL143585  16.691  12.068   6.150
 7733POPC   GL243586  16.710  12.150   6.150
 7733POPC   C1A43587  16.684  12.030   6.450
 7733POPC   D2A43588  16.749  12.107   6.750
 7733POPC   C3A43589  16.722  12.032   7.050
 7733POPC   C4A43590  16.684  12.079   7.350
 7733POPC   C1B43591  16.672  12.281   6.450
 7733POPC   C2B43592  16.669  12.298   6.750
 7733POPC   C3B43593  16.635  12.316   7.050
 7733POPC   C4B43594  16.672  12.322   7.350
 7734POPC   NC343595  32.232  23.762   5.550
 7734POPC   PO443596  32.298  23.751   5.850
 7734POPC   GL143597  32.201  23.703   6.150
 7734POPC   GL243598  32.209  23.796   6.150
 7734POPC   C1A43599  32.268  23.741   6.450
 7734POPC   D2A43600  32.249  23.736   6.750
 7734POPC   C3A43601  32.225  23.670   7.050
 7734POPC   C4A43602  32.280  23.724   7.350
 7734POPC   C1B43603  32.230  23.962   6.450
 7734POPC   C2B43604  32.247  23.950   6.750
 7734POPC   C3B43605  32.217  23.962   7.050
 7734POPC   C4B43606  32.200  23.948   7.350
 7735POPC   NC343607  29.150  25.289   5.550
 7735POPC   PO443608  29.176  25.248   5.850
 7735POPC   GL143609  29.185  25.258   6.150
 7735POPC   GL243610  29.119  25.155   6.150
 7735POPC   C1A43611  29.185  25.292   6.450
 7735POPC   D2A43612  29.181  25.313   6.750
 7735POPC   C3A43613  29.117  25.309   7.050
 7735POPC   C4A43614  29.130  25.218   7.350
 7735POPC   C1B43615  29.151  25.008   6.450
 7735POPC   C2B43616  29.158  25.050   6.750
 7735POPC   C3B43617  29.148  24.968   7.050
 7735POPC   C4B43618  29.187  25.039   7.350
 7736POPC   NC343619  15.217  27.578   5.550
 7736POPC   PO443620  15.142  27.642   5.850
 7736POPC   GL143621  15.185  27.552   6.150
 7736POPC   GL243622  15.041  27.549   6.150
 7736POPC   C1A43623  15.167  27.609   6.450
 7736POPC   D2A43624  15.199  27.615   6.750
 7736POPC   C3A43625  15.140  27.627   7.050
 7736POPC   C4A43626  15.224  27.577   7.350
 7736POPC   C1B43627  14.899  27.582   6.450
 7736POPC   C2B43628  14.903  27.561   6.750
 7736POPC   C3B43629  14.915  27.572   7.050
 7736POPC   C4B43630  14.966  27.545   7.350
 7737POPC   NC343631  37.677  35.355   5.550
 7737POPC   PO443632  37.663  35.366   5.850
 7737POPC   GL143633  37.678  35.390   6.150
 7737POPC   GL243634  37.709  35.204   6.150
 7737POPC   C1A43635  37.671  35.348   6.450
 7737POPC   D2A43636  37.711  35.365   6.750
 7737POPC   C3A43637  37.697  35.333   7.050
 7737POPC   C4A43638  37.695  35.381   7.350
 7737POPC   C1B43639  37.780  35.187   6.450
 7737POPC   C2B43640  37.832  35.125   6.750
 7737POPC   C3B43641  37.854  35.122   7.050
 7737POPC   C4B43642  37.837  35.106   7.350
 7738POPC   NC343643   9.757   8.154   5.550
 7738POPC   PO443644   9.700   8.161   5.850
 7738POPC   GL143645   9.736   8.220   6.150
 7738POPC   GL243646   9.714   8.044   6.150
 7738POPC   C1A43647   9.773   8.231   6.450
 7738POPC   D2A43648   9.719   8.246   6.750
 7738POPC   C3A43649   9.753   8.170   7.050
 7738POPC   C4A43650   9.706   8.235   7.350
 7738POPC   C1B43651   9.731   7.979   6.450
 7738POPC   C2B43652   9.810   7.946   6.750
 7738POPC   C3B43653   9.721   7.960   7.050
 7738POPC   C4B43654   9.803   7.941   7.350
 7739POPC   NC343655  43.890  16.775   5.550
 7739POPC   PO443656  43.933  16.775   5.850
 7739POPC   GL143657  43.928  16.719   6.150
 7739POPC   GL243658  43.939  16.867   6.150
 7739POPC   C1A43659  43.868  16.765   6.450
 7739POPC   D2A43660  43.883  16.707   6.750
 7739POPC   C3A43661  43.928  16.757   7.050
 7739POPC   C4A43662  43.836  16.745   7.350
 7739POPC   C1B43663  44.062  16.868   6.450
 7739POPC   C2B43664  44.103  16.902   6.750
 7739POPC   C3B43665  44.094  16.889   7.050
 7739POPC   C4B43666  44.068  16.917   7.350
 7740POPC   NC343667  41.541  28.404   5.550
 7740POPC   PO443668  41.547  28.343   5.850
 7740POPC   GL143669  41.533  28.342   6.150
 7740POPC   GL243670  41.551  28.468   6.150
 7740POPC   C1A43671  41.548  28.412   6.450
 7740POPC   D2A43672  41.522  28.395   6.750
 7740POPC   C3A43673  41.560  28.354   7.050
 7740POPC   C4A43674  41.604  28.365   7.350
 7740POPC   C1B43675  41.605  28.652   6.450
 7740POPC   C2B43676  41.616  28.613   6.750
 7740POPC   C3B43677  41.585  28.606   7.050
 7740POPC   C4B43678  41.571  28.661   7.350
 7741POPC   NC343679  19.039  33.004   5.550
 7741POPC   PO443680  19.094  33.060   5.850
 7741POPC   GL143681  19.024  32.988   6.150
 7741POPC   GL243682  18.910  33.001   6.150
 7741POPC   C1A43683  19.012  32.983   6.450
 7741POPC   D2A43684  19.035  32.977   6.750
 7741POPC   C3A43685  19.022  33.073   7.050
 7741POPC   C4A43686  19.080  33.072   7.350
 7741POPC   C1B43687  18.785  32.981   6.450
 7741POPC   C2B43688  18.796  33.007   6.750
 7741POPC   C3B43689  18.764  32.963   7.050
 7741POPC   C4B43690  18.773  32.976   7.350
 7742POPC   NC343691   1.985   5.832   5.550
 7742POPC   PO443692   1.989   5.850   5.850
 7742POPC   GL143693   1.946   5.918   6.150
 7742POPC   GL243694   1.945   5.789   6.150
 7742POPC   C1A43695   2.028   5.908   6.450
 7742POPC   D2A43696   2.013   5.906   6.750
 7742POPC   C3A43697   1.991   5.853   7.050
 7742POPC   C4A43698   1.982   5.871   7.350
 7742POPC   C1B43699   1.848   5.622   6.450
 7742POPC   C2B43700   1.852   5.699   6.750
 7742POPC   C3B43701   1.840   5.657   7.050
 7742POPC   C4B43702   1.832   5.653   7.350
 7743POPC   NC343703   9.796  39.210   5.550
 7743POPC   PO443704   9.772  39.250   5.850
 7743POPC   GL143705   9.788  39.201   6.150
 7743POPC   GL243706   9.658  39.172   6.150
 7743POPC   C1A43707   9.791  39.219   6.450
 7743POPC   D2A43708   9.732  39.226   6.750
 7743POPC   C3A43709   9.788  39.217   7.050
 7743POPC   C4A43710   9.724  39.192   7.350
 7743POPC   C1B43711   9.526  39.135   6.450
 7743POPC   C2B43712   9.544  39.139   6.750
 7743POPC   C3B43713   9.496  39.101   7.050
 7743POPC   C4B43714   9.538  39.069   7.350
 7744POPC   NC343715  12.030  43.083   5.550
 7744POPC   PO443716  12.104  43.095   5.850
 7744POPC   GL143717  12.033  43.103   6.150
 7744POPC   GL243718  12.132  42.983   6.150
 7744POPC   C1A43719  12.068  43.144   6.450
 7744POPC   D2A43720  12.111  43.141   6.750
 7744POPC   C3A43721  12.059  43.156   7.050
 7744POPC   C4A43722  12.063  43.067   7.350
 7744POPC   C1B43723  12.319  42.955   6.450
 7744POPC   C2B43724  12.306  42.997   6.750
 7744POPC   C3B43725  12.297  42.993   7.050
 7744POPC   C4B43726  12.307  42.995   7.350
 7745POPC   NC343727  36.871  39.218   5.550
 7745POPC   PO443728  36.905  39.219   5.850
 7745POPC   GL143729  36.879  39.204   6.150
 7745POPC   GL243730  36.917  39.331   6.150
 7745POPC   C1A43731  36.854  39.223   6.450
 7745POPC   D2A43732  36.857  39.260   6.750
 7745POPC   C3A43733  36.879  39.222   7.050
 7745POPC   C4A43734  36.880  39.235   7.350
 7745POPC   C1B43735  36.849  39.466   6.450
 7745POPC   C2B43736  36.877  39.435   6.750
 7745POPC   C3B43737  36.918  39.458   7.050
 7745POPC   C4B43738  36.881  39.498   7.350
 7746POPC   NC343739   3.533   1.198   5.550
 7746POPC   PO443740   3.535   1.166   5.850
 7746POPC   GL143741   3.517   1.190   6.150
 7746POPC   GL243742   3.546   1.368   6.150
 7746POPC   C1A43743   3.502   1.193   6.450
 7746POPC   D2A43744   3.497   1.239   6.750
 7746POPC   C3A43745   3.551   1.227   7.050
 7746POPC   C4A43746   3.581   1.220   7.350
 7746POPC   C1B43747   3.619   1.452   6.450
 7746POPC   C2B43748   3.618   1.413   6.750
 7746POPC   C3B43749   3.654   1.408   7.050
 7746POPC   C4B43750   3.622   1.481   7.350
 7747POPC   NC343751  29.103  17.526   5.550
 7747POPC   PO443752  29.150  17.552   5.850
 7747POPC   GL143753  29.129  17.479   6.150
 7747POPC   GL243754  29.163  17.405   6.150
 7747POPC   C1A43755  29.175  17.500   6.450
 7747POPC   D2A43756  29.136  17.553   6.750
 7747POPC   C3A43757  29.125  17.523   7.050
 7747POPC   C4A43758  29.182  17.476   7.350
 7747POPC   C1B43759  29.230  17.241   6.450
 7747POPC   C2B43760  29.228  17.310   6.750
 7747POPC   C3B43761  29.226  17.282   7.050
 7747POPC   C4B43762  29.269  17.249   7.350
 7748POPC   NC343763  39.244  30.741   5.550
 7748POPC   PO443764  39.244  30.724   5.850
 7748POPC   GL143765  39.221  30.702   6.150
 7748POPC   GL243766  39.370  30.780   6.150
 7748POPC   C1A43767  39.194  30.742   6.450
 7748POPC   D2A43768  39.271  30.687   6.750
 7748POPC   C3A43769  39.257  30.722   7.050
 7748POPC   C4A43770  39.195  30.718   7.350
 7748POPC   C1B43771  39.432  30.797   6.450
 7748POPC   C2B43772  39.453  30.744   6.750
 7748POPC   C3B43773  39.429  30.741   7.050
 7748POPC   C4B43774  39.435  30.814   7.350
 7749POPC   NC343775  39.962  32.240   5.550
 7749POPC   PO443776  40.053  32.295   5.850
 7749POPC   GL143777  40.050  32.232   6.150
 7749POPC   GL243778  39.985  32.360   6.150
 7749POPC   C1A43779  40.045  32.226   6.450
 7749POPC   D2A43780  40.023  32.220   6.750
 7749POPC   C3A43781  40.040  32.295   7.050
 7749POPC   C4A43782  40.054  32.270   7.350
 7749POPC   C1B43783  39.991  32.498   6.450
 7749POPC   C2B43784  39.985  32.492   6.750
 7749POPC   C3B43785  40.048  32.465   7.050
 7749POPC   C4B43786  40.008  32.540   7.350
 7750POPC   NC343787  18.238  10.485   5.550
 7750POPC   PO443788  18.251  10.550   5.850
 7750POPC   GL143789  18.316  10.477   6.150
 7750POPC   GL243790  18.446  10.574   6.150
 7750POPC   C1A43791  18.269  10.520   6.450
 7750POPC   D2A43792  18.261  10.554   6.750
 7750POPC   C3A43793  18.236  10.530   7.050
 7750POPC   C4A43794  18.296  10.561   7.350
 7750POPC   C1B43795  18.485  10.588   6.450
 7750POPC   C2B43796  18.486  10.595   6.750
 7750POPC   C3B43797  18.475  10.658   7.050
 7750POPC   C4B43798  18.521  10.661   7.350
 7751POPC   NC343799   1.963   9.741   5.550
 7751POPC   PO443800   1.991   9.712   5.850
 7751POPC   GL143801   2.019   9.768   6.150
 7751POPC   GL243802   2.077   9.666   6.150
 7751POPC   C1A43803   2.026   9.729   6.450
 7751POPC   D2A43804   1.984   9.775   6.750
 7751POPC   C3A43805   1.959   9.788   7.050
 7751POPC   C4A43806   2.014   9.793   7.350
 7751POPC   C1B43807   2.238   9.615   6.450
 7751POPC   C2B43808   2.244   9.589   6.750
 7751POPC   C3B43809   2.213   9.591   7.050
 7751POPC   C4B43810   2.165   9.582   7.350
 7752POPC   NC343811   9.724  38.473   5.550
 7752POPC   PO443812   9.718  38.451   5.850
 7752POPC   GL143813   9.770  38.461   6.150
 7752POPC   GL243814   9.868  38.442   6.150
 7752POPC   C1A43815   9.773  38.473   6.450
 7752POPC   D2A43816   9.780  38.421   6.750
 7752POPC   C3A43817   9.771  38.426   7.050
 7752POPC   C4A43818   9.789  38.409   7.350
 7752POPC   C1B43819  10.014  38.504   6.450
 7752POPC   C2B43820   9.964  38.499   6.750
 7752POPC   C3B43821  10.016  38.463   7.050
 7752POPC   C4B43822  10.015  38.506   7.350
 7753POPC   NC343823  13.621   1.184   5.550
 7753POPC   PO443824  13.633   1.189   5.850
 7753POPC   GL143825  13.613   1.227   6.150
 7753POPC   GL243826  13.517   1.295   6.150
 7753POPC   C1A43827  13.663   1.237   6.450
 7753POPC   D2A43828  13.603   1.220   6.750
 7753POPC   C3A43829  13.650   1.240   7.050
 7753POPC   C4A43830  13.666   1.264   7.350
 7753POPC   C1B43831  13.443   1.353   6.450
 7753POPC   C2B43832  13.431   1.344   6.750
 7753POPC   C3B43833  13.383   1.325   7.050
 7753POPC   C4B43834  13.418   1.311   7.350
 7754POPC   NC343835  29.918  26.087   5.550
 7754POPC   PO443836  29.899  26.016   5.850
 7754POPC   GL143837  29.958  26.019   6.150
 7754POPC   GL243838  29.869  25.919   6.150
 7754POPC   C1A43839  29.901  26.082   6.450
 7754POPC   D2A43840  29.921  26.061   6.750
 7754POPC   C3A43841  29.951  25.994   7.050
 7754POPC   C4A43842  29.928  25.999   7.350
 7754POPC   C1B43843  29.715  25.866   6.450
 7754POPC   C2B43844  29.716  25.829   6.750
 7754POPC   C3B43845  29.714  25.920   7.050
 7754POPC   C4B43846  29.706  25.881   7.350
 7755POPC   NC343847  26.770  29.110   5.550
 7755POPC   PO443848  26.779  29.144   5.850
 7755POPC   GL143849  26.803  29.155   6.150
 7755POPC   GL243850  26.874  29.221   6.150
 7755POPC   C1A43851  26.858  29.142   6.450
 7755POPC   D2A43852  26.841  29.107   6.750
 7755POPC   C3A43853  26.853  29.143   7.050
 7755POPC   C4A43854  26.784  29.139   7.350
 7755POPC   C1B43855  26.893  29.440   6.450
 7755POPC   C2B43856  26.880  29.384   6.750
 7755POPC   C3B43857  26.816  29.416   7.050
 7755POPC   C4B43858  26.891  29.421   7.350
 7756POPC   NC343859   2.003  35.359   5.550
 7756POPC   PO443860   1.943  35.340   5.850
 7756POPC   GL143861   2.036  35.379   6.150
 7756POPC   GL243862   2.158  35.388   6.150
 7756POPC   C1A43863   2.001  35.355   6.450
 7756POPC   D2A43864   2.004  35.328   6.750
 7756POPC   C3A43865   1.978  35.391   7.050
 7756POPC   C4A43866   1.973  35.323   7.350
 7756POPC   C1B43867   2.231  35.364   6.450
 7756POPC   C2B43868   2.269  35.355   6.750
 7756POPC   C3B43869   2.196  35.370   7.050
 7756POPC   C4B43870   2.265  35.355   7.350
 7757POPC   NC343871   4.348  14.396   5.550
 7757POPC   PO443872   4.336  14.419   5.850
 7757POPC   GL143873   4.285  14.414   6.150
 7757POPC   GL243874   4.402  14.382   6.150
 7757POPC   C1A43875   4.318  14.362   6.450
 7757POPC   D2A43876   4.281  14.441   6.750
 7757POPC   C3A43877   4.341  14.368   7.050
 7757POPC   C4A43878   4.308  14.393   7.350
 7757POPC   C1B43879   4.560  14.424   6.450
 7757POPC   C2B43880   4.590  14.433   6.750
 7757POPC   C3B43881   4.562  14.346   7.050
 7757POPC   C4B43882   4.567  14.412   7.350
 7758POPC   NC343883  36.136  14.410   5.550
 7758POPC   PO443884  36.147  14.389   5.850
 7758POPC   GL143885  36.139  14.381   6.150
 7758POPC   GL243886  36.067  14.371   6.150
 7758POPC   C1A43887  36.092  14.409   6.450
 7758POPC   D2A43888  36.109  14.371   6.750
 7758POPC   C3A43889  36.173  14.432   7.050
 7758POPC   C4A43890  36.106  14.453   7.350
 7758POPC   C1B43891  35.915  14.278   6.450
 7758POPC   C2B43892  35.928  14.330   6.750
 7758POPC   C3B43893  35.882  14.250   7.050
 7758POPC   C4B43894  35.859  14.265   7.350
 7759POPC   NC343895  38.496   6.624   5.550
 7759POPC   PO443896  38.497   6.669   5.850
 7759POPC   GL143897  38.432   6.601   6.150
 7759POPC   GL243898  38.348   6.604   6.150
 7759POPC   C1A43899  38.440   6.647   6.450
 7759POPC   D2A43900  38.432   6.667   6.750
 7759POPC   C3A43901  38.498   6.690   7.050
 7759POPC   C4A43902  38.465   6.655   7.350
 7759POPC   C1B43903  38.186   6.615   6.450
 7759POPC   C2B43904  38.206   6.623   6.750
 7759POPC   C3B43905  38.259   6.545   7.050
 7759POPC   C4B43906  38.202   6.586   7.350
 7760POPC   NC343907  39.233  29.919   5.550
 7760POPC   PO443908  39.268  29.964   5.850
 7760POPC   GL143909  39.201  29.904   6.150
 7760POPC   GL243910  39.238  29.802   6.150
 7760POPC   C1A43911  39.199  29.937   6.450
 7760POPC   D2A43912  39.270  29.963   6.750
 7760POPC   C3A43913  39.273  29.917   7.050
 7760POPC   C4A43914  39.278  29.930   7.350
 7760POPC   C1B43915  39.189  29.670   6.450
 7760POPC   C2B43916  39.125  29.670   6.750
 7760POPC   C3B43917  39.158  29.729   7.050
 7760POPC   C4B43918  39.138  29.658   7.350
 7761POPC   NC343919  40.733   5.879   5.550
 7761POPC   PO443920  40.772   5.839   5.850
 7761POPC   GL143921  40.832   5.883   6.150
 7761POPC   GL243922  40.684   5.728   6.150
 7761POPC   C1A43923  40.811   5.823   6.450
 7761POPC   D2A43924  40.733   5.904   6.750
 7761POPC   C3A43925  40.827   5.902   7.050
 7761POPC   C4A43926  40.756   5.838   7.350
 7761POPC   C1B43927  40.720   5.599   6.450
 7761POPC   C2B43928  40.661   5.651   6.750
 7761POPC   C3B43929  40.632   5.619   7.050
 7761POPC   C4B43930  40.640   5.602   7.350
 7762POPC   NC343931  13.675  26.009   5.550
 7762POPC   PO443932  13.653  26.004   5.850
 7762POPC   GL143933  13.631  26.001   6.150
 7762POPC   GL243934  13.768  26.064   6.150
 7762POPC   C1A43935  13.592  26.076   6.450
 7762POPC   D2A43936  13.672  25.999   6.750
 7762POPC   C3A43937  13.625  26.065   7.050
 7762POPC   C4A43938  13.613  26.013   7.350
 7762POPC   C1B43939  13.889  26.059   6.450
 7762POPC   C2B43940  13.860  26.122   6.750
 7762POPC   C3B43941  13.873  26.110   7.050
 7762POPC   C4B43942  13.852  26.072   7.350
 7763POPC   NC343943  40.736  12.838   5.550
 7763POPC   PO443944  40.783  12.845   5.850
 7763POPC   GL143945  40.794  12.867   6.150
 7763POPC   GL243946  40.709  12.714   6.150
 7763POPC   C1A43947  40.786  12.889   6.450
 7763POPC   D2A43948  40.790  12.834   6.750
 7763POPC   C3A43949  40.805  12.843   7.050
 7763POPC   C4A43950  40.740  12.882   7.350
 7763POPC   C1B43951  40.692  12.665   6.450
 7763POPC   C2B43952  40.622  12.609   6.750
 7763POPC   C3B43953  40.682  12.664   7.050
 7763POPC   C4B43954  40.660  12.666   7.350
 7764POPC   NC343955  24.512  12.041   5.550
 7764POPC   PO443956  24.493  12.066   5.850
 7764POPC   GL143957  24.465  12.097   6.150
 7764POPC   GL243958  24.569  12.202   6.150
 7764POPC   C1A43959  24.507  12.070   6.450
 7764POPC   D2A43960  24.511  12.116   6.750
 7764POPC   C3A43961  24.538  12.112   7.050
 7764POPC   C4A43962  24.523  12.072   7.350
 7764POPC   C1B43963  24.545  12.335   6.450
 7764POPC   C2B43964  24.539  12.268   6.750
 7764POPC   C3B43965  24.528  12.294   7.050
 7764POPC   C4B43966  24.574  12.358   7.350
 7765POPC   NC343967  33.016  36.917   5.550
 7765POPC   PO443968  32.986  36.900   5.850
 7765POPC   GL143969  33.057  36.886   6.150
 7765POPC   GL243970  32.939  36.936   6.150
 7765POPC   C1A43971  33.066  36.941   6.450
 7765POPC   D2A43972  33.056  36.874   6.750
 7765POPC   C3A43973  33.048  36.942   7.050
 7765POPC   C4A43974  32.985  36.896   7.350
 7765POPC   C1B43975  32.844  37.027   6.450
 7765POPC   C2B43976  32.813  37.011   6.750
 7765POPC   C3B43977  32.842  37.029   7.050
 7765POPC   C4B43978  32.849  37.014   7.350
 7766POPC   NC343979   8.149   8.928   5.550
 7766POPC   PO443980   8.206   8.946   5.850
 7766POPC   GL143981   8.203   8.926   6.150
 7766POPC   GL243982   8.191   8.891   6.150
 7766POPC   C1A43983   8.161   8.940   6.450
 7766POPC   D2A43984   8.244   8.925   6.750
 7766POPC   C3A43985   8.214   8.945   7.050
 7766POPC   C4A43986   8.233   9.005   7.350
 7766POPC   C1B43987   8.223   8.741   6.450
 7766POPC   C2B43988   8.194   8.676   6.750
 7766POPC   C3B43989   8.265   8.723   7.050
 7766POPC   C4B43990   8.221   8.716   7.350
 7767POPC   NC343991  18.236  30.729   5.550
 7767POPC   PO443992  18.329  30.741   5.850
 7767POPC   GL143993  18.247  30.709   6.150
 7767POPC   GL243994  18.312  30.868   6.150
 7767POPC   C1A43995  18.265  30.698   6.450
 7767POPC   D2A43996  18.249  30.662   6.750
 7767POPC   C3A43997  18.271  30.692   7.050
 7767POPC   C4A43998  18.256  30.719   7.350
 7767POPC   C1B43999  18.364  30.903   6.450
 7767POPC   C2B44000  18.280  30.932   6.750
 7767POPC   C3B44001  18.347  30.919   7.050
 7767POPC   C4B44002  18.278  30.984   7.350
 7768POPC   NC344003   8.216  26.770   5.550
 7768POPC   PO444004   8.195  26.865   5.850
 7768POPC   GL144005   8.179  26.835   6.150
 7768POPC   GL244006   8.155  26.968   6.150
 7768POPC   C1A44007   8.242  26.861   6.450
 7768POPC   D2A44008   8.208  26.858   6.750
 7768POPC   C3A44009   8.233  26.817   7.050
 7768POPC   C4A44010   8.154  26.778   7.350
 7768POPC   C1B44011   8.100  27.054   6.450
 7768POPC   C2B44012   8.148  27.045   6.750
 7768POPC   C3B44013   8.099  27.053   7.050
 7768POPC   C4B44014   8.142  27.071   7.350
 7769POPC   NC344015  26.032  19.009   5.550
 7769POPC   PO444016  26.068  19.031   5.850
 7769POPC   GL144017  26.004  19.091   6.150
 7769POPC   GL244018  25.893  19.066   6.150
 7769POPC   C1A44019  26.032  19.077   6.450
 7769POPC   D2A44020  25.993  19.084   6.750
 7769POPC   C3A44021  26.019  19.077   7.050
 7769POPC   C4A44022  26.058  19.083   7.350
 7769POPC   C1B44023  25.791  18.958   6.450
 7769POPC   C2B44024  25.842  19.022   6.750
 7769POPC   C3B44025  25.778  19.017   7.050
 7769POPC   C4B44026  25.820  18.991   7.350
 7770POPC   NC344027  37.687  26.782   5.550
 7770POPC   PO444028  37.696  26.833   5.850
 7770POPC   GL144029  37.653  26.860   6.150
 7770POPC   GL244030  37.588  26.694   6.150
 7770POPC   C1A44031  37.695  26.822   6.450
 7770POPC   D2A44032  37.696  26.811   6.750
 7770POPC   C3A44033  37.676  26.783   7.050
 7770POPC   C4A44034  37.681  26.783   7.350
 7770POPC   C1B44035  37.554  26.600   6.450
 7770POPC   C2B44036  37.549  26.591   6.750
 7770POPC   C3B44037  37.564  26.579   7.050
 7770POPC   C4B44038  37.475  26.588   7.350
 7771POPC   NC344039   0.397  15.134   5.550
 7771POPC   PO444040   0.409  15.206   5.850
 7771POPC   GL144041   0.402  15.184   6.150
 7771POPC   GL244042   0.296  15.161   6.150
 7771POPC   C1A44043   0.405  15.195   6.450
 7771POPC   D2A44044   0.396  15.214   6.750
 7771POPC   C3A44045   0.415  15.165   7.050
 7771POPC   C4A44046   0.443  15.154   7.350
 7771POPC   C1B44047   0.176  15.139   6.450
 7771POPC   C2B44048   0.229  15.120   6.750
 7771POPC   C3B44049   0.204  15.121   7.050
 7771POPC   C4B44050   0.215  15.147   7.350
 7772POPC   NC344051  31.452  17.460   5.550
 7772POPC   PO444052  31.519  17.521   5.850
 7772POPC   GL144053  31.481  17.535   6.150
 7772POPC   GL244054  31.629  17.544   6.150
 7772POPC   C1A44055  31.478  17.494   6.450
 7772POPC   D2A44056  31.522  17.460   6.750
 7772POPC   C3A44057  31.520  17.478   7.050
 7772POPC   C4A44058  31.499  17.476   7.350
 7772POPC   C1B44059  31.748  17.454   6.450
 7772POPC   C2B44060  31.707  17.444   6.750
 7772POPC   C3B44061  31.722  17.495   7.050
 7772POPC   C4B44062  31.701  17.450   7.350
 7773POPC   NC344063  25.225   5.866   5.550
 7773POPC   PO444064  25.239   5.879   5.850
 7773POPC   GL144065  25.258   5.871   6.150
 7773POPC   GL244066  25.386   5.745   6.150
 7773POPC   C1A44067  25.264   5.880   6.450
 7773POPC   D2A44068  25.241   5.868   6.750
 7773POPC   C3A44069  25.265   5.828   7.050
 7773POPC   C4A44070  25.274   5.899   7.350
 7773POPC   C1B44071  25.442   5.720   6.450
 7773POPC   C2B44072  25.493   5.713   6.750
 7773POPC   C3B44073  25.445   5.682   7.050
 7773POPC   C4B44074  25.426   5.674   7.350
 7774POPC   NC344075  32.996  41.553   5.550
 7774POPC   PO444076  33.011  41.605   5.850
 7774POPC   GL144077  33.064  41.520   6.150
 7774POPC   GL244078  32.944  41.622   6.150
 7774POPC   C1A44079  32.998  41.509   6.450
 7774POPC   D2A44080  33.000  41.585   6.750
 7774POPC   C3A44081  33.071  41.576   7.050
 7774POPC   C4A44082  32.986  41.600   7.350
 7774POPC   C1B44083  32.907  41.704   6.450
 7774POPC   C2B44084  32.828  41.704   6.750
 7774POPC   C3B44085  32.851  41.757   7.050
 7774POPC   C4B44086  32.838  41.735   7.350
 7775POPC   NC344087  38.440  13.645   5.550
 7775POPC   PO444088  38.439  13.591   5.850
 7775POPC   GL144089  38.425  13.589   6.150
 7775POPC   GL244090  38.412  13.727   6.150
 7775POPC   C1A44091  38.456  13.604   6.450
 7775POPC   D2A44092  38.486  13.629   6.750
 7775POPC   C3A44093  38.470  13.662   7.050
 7775POPC   C4A44094  38.487  13.669   7.350
 7775POPC   C1B44095  38.345  13.831   6.450
 7775POPC   C2B44096  38.382  13.904   6.750
 7775POPC   C3B44097  38.390  13.855   7.050
 7775POPC   C4B44098  38.431  13.840   7.350
 7776POPC   NC344099  40.794  10.512   5.550
 7776POPC   PO444100  40.765  10.550   5.850
 7776POPC   GL144101  40.817  10.534   6.150
 7776POPC   GL244102  40.760  10.371   6.150
 7776POPC   C1A44103  40.812  10.494   6.450
 7776POPC   D2A44104  40.832  10.517   6.750
 7776POPC   C3A44105  40.780  10.542   7.050
 7776POPC   C4A44106  40.782  10.490   7.350
 7776POPC   C1B44107  40.688  10.305   6.450
 7776POPC   C2B44108  40.696  10.280   6.750
 7776POPC   C3B44109  40.680  10.271   7.050
 7776POPC   C4B44110  40.619  10.343   7.350
 7777POPC   NC344111   9.713   9.724   5.550
 7777POPC   PO444112   9.758   9.720   5.850
 7777POPC   GL144113   9.700   9.740   6.150
 7777POPC   GL244114   9.699   9.617   6.150
 7777POPC   C1A44115   9.728   9.717   6.450
 7777POPC   D2A44116   9.717   9.747   6.750
 7777POPC   C3A44117   9.750   9.705   7.050
 7777POPC   C4A44118   9.705   9.790   7.350
 7777POPC   C1B44119   9.638   9.537   6.450
 7777POPC   C2B44120   9.616   9.542   6.750
 7777POPC   C3B44121   9.616   9.531   7.050
 7777POPC   C4B44122   9.643   9.509   7.350
 7778POPC   NC344123  16.764  19.796   5.550
 7778POPC   PO444124  16.779  19.802   5.850
 7778POPC   GL144125  16.718  19.860   6.150
 7778POPC   GL244126  16.789  19.690   6.150
 7778POPC   C1A44127  16.683  19.798   6.450
 7778POPC   D2A44128  16.754  19.798   6.750
 7778POPC   C3A44129  16.700  19.804   7.050
 7778POPC   C4A44130  16.766  19.878   7.350
 7778POPC   C1B44131  16.877  19.610   6.450
 7778POPC   C2B44132  16.849  19.598   6.750
 7778POPC   C3B44133  16.823  19.616   7.050
 7778POPC   C4B44134  16.893  19.569   7.350
 7779POPC   NC344135   5.125  20.640   5.550
 7779POPC   PO444136   5.067  20.562   5.850
 7779POPC   GL144137   5.075  20.609   6.150
 7779POPC   GL244138   5.076  20.679   6.150
 7779POPC   C1A44139   5.071  20.611   6.450
 7779POPC   D2A44140   5.050  20.616   6.750
 7779POPC   C3A44141   5.121  20.614   7.050
 7779POPC   C4A44142   5.076  20.586   7.350
 7779POPC   C1B44143   4.952  20.804   6.450
 7779POPC   C2B44144   5.005  20.842   6.750
 7779POPC   C3B44145   4.972  20.831   7.050
 7779POPC   C4B44146   4.977  20.865   7.350
 7780POPC   NC344147  33.023  35.343   5.550
 7780POPC   PO444148  33.031  35.330   5.850
 7780POPC   GL144149  33.041  35.367   6.150
 7780POPC   GL244150  32.878  35.398   6.150
 7780POPC   C1A44151  32.989  35.349   6.450
 7780POPC   D2A44152  33.014  35.366   6.750
 7780POPC   C3A44153  33.001  35.370   7.050
 7780POPC   C4A44154  32.980  35.320   7.350
 7780POPC   C1B44155  32.789  35.465   6.450
 7780POPC   C2B44156  32.780  35.406   6.750
 7780POPC   C3B44157  32.828  35.381   7.050
 7780POPC   C4B44158  32.806  35.426   7.350
 7781POPC   NC344159  19.867  36.865   5.550
 7781POPC   PO444160  19.800  36.900   5.850
 7781POPC   GL144161  19.802  36.919   6.150
 7781POPC   GL244162  19.758  36.882   6.150
 7781POPC   C1A44163  19.860  36.949   6.450
 7781POPC   D2A44164  19.882  36.855   6.750
 7781POPC   C3A44165  19.848  36.871   7.050
 7781POPC   C4A44166  19.878  36.873   7.350
 7781POPC   C1B44167  19.556  36.923   6.450
 7781POPC   C2B44168  19.617  36.960   6.750
 7781POPC   C3B44169  19.561  36.932   7.050
 7781POPC   C4B44170  19.566  36.930   7.350
 7782POPC   NC344171  28.380  22.971   5.550
 7782POPC   PO444172  28.356  22.894   5.850
 7782POPC   GL144173  28.397  22.931   6.150
 7782POPC   GL244174  28.331  23.064   6.150
 7782POPC   C1A44175  28.415  22.961   6.450
 7782POPC   D2A44176  28.408  22.933   6.750
 7782POPC   C3A44177  28.347  22.891   7.050
 7782POPC   C4A44178  28.340  22.986   7.350
 7782POPC   C1B44179  28.267  23.139   6.450
 7782POPC   C2B44180  28.270  23.139   6.750
 7782POPC   C3B44181  28.275  23.119   7.050
 7782POPC   C4B44182  28.246  23.149   7.350
 7783POPC   NC344183  35.317   0.399   5.550
 7783POPC   PO444184  35.313   0.473   5.850
 7783POPC   GL144185  35.380   0.453   6.150
 7783POPC   GL244186  35.410   0.374   6.150
 7783POPC   C1A44187  35.341   0.457   6.450
 7783POPC   D2A44188  35.309   0.417   6.750
 7783POPC   C3A44189  35.353   0.463   7.050
 7783POPC   C4A44190  35.338   0.448   7.350
 7783POPC   C1B44191  35.436   0.204   6.450
 7783POPC   C2B44192  35.468   0.234   6.750
 7783POPC   C3B44193  35.458   0.184   7.050
 7783POPC   C4B44194  35.443   0.179   7.350
 7784POPC   NC344195   1.978   1.228   5.550
 7784POPC   PO444196   1.983   1.259   5.850
 7784POPC   GL144197   1.975   1.251   6.150
 7784POPC   GL244198   1.856   1.305   6.150
 7784POPC   C1A44199   1.948   1.246   6.450
 7784POPC   D2A44200   2.017   1.206   6.750
 7784POPC   C3A44201   1.988   1.231   7.050
 7784POPC   C4A44202   2.009   1.258   7.350
 7784POPC   C1B44203   1.739   1.262   6.450
 7784POPC   C2B44204   1.727   1.272   6.750
 7784POPC   C3B44205   1.757   1.339   7.050
 7784POPC   C4B44206   1.801   1.307   7.350
 7785POPC   NC344207  37.694  21.421   5.550
 7785POPC   PO444208  37.699  21.371   5.850
 7785POPC   GL144209  37.673  21.345   6.150
 7785POPC   GL244210  37.755  21.272   6.150
 7785POPC   C1A44211  37.687  21.405   6.450
 7785POPC   D2A44212  37.684  21.370   6.750
 7785POPC   C3A44213  37.667  21.355   7.050
 7785POPC   C4A44214  37.663  21.371   7.350
 7785POPC   C1B44215  37.804  21.204   6.450
 7785POPC   C2B44216  37.792  21.165   6.750
 7785POPC   C3B44217  37.779  21.175   7.050
 7785POPC   C4B44218  37.818  21.122   7.350
 7786POPC   NC344219  12.855  19.849   5.550
 7786POPC   PO444220  12.839  19.863   5.850
 7786POPC   GL144221  12.901  19.871   6.150
 7786POPC   GL244222  12.774  19.756   6.150
 7786POPC   C1A44223  12.837  19.840   6.450
 7786POPC   D2A44224  12.812  19.859   6.750
 7786POPC   C3A44225  12.859  19.807   7.050
 7786POPC   C4A44226  12.822  19.788   7.350
 7786POPC   C1B44227  12.644  19.627   6.450
 7786POPC   C2B44228  12.707  19.612   6.750
 7786POPC   C3B44229  12.667  19.629   7.050
 7786POPC   C4B44230  12.644  19.672   7.350
 7787POPC   NC344231  19.869   0.409   5.550
 7787POPC   PO444232  19.838   0.470   5.850
 7787POPC   GL144233  19.870   0.441   6.150
 7787POPC   GL244234  19.855   0.274   6.150
 7787POPC   C1A44235  19.867   0.440   6.450
 7787POPC   D2A44236  19.843   0.456   6.750
 7787POPC   C3A44237  19.839   0.428   7.050
 7787POPC   C4A44238  19.805   0.393   7.350
 7787POPC   C1B44239  19.842   0.186   6.450
 7787POPC   C2B44240  19.855   0.171   6.750
 7787POPC   C3B44241  19.862   0.188   7.050
 7787POPC   C4B44242  19.904   0.222   7.350
 7788POPC   NC344243  17.517   8.225   5.550
 7788POPC   PO444244  17.514   8.198   5.850
 7788POPC   GL144245  17.477   8.196   6.150
 7788POPC   GL244246  17.629   8.210   6.150
 7788POPC   C1A44247  17.491   8.222   6.450
 7788POPC   D2A44248  17.537   8.213   6.750
 7788POPC   C3A44249  17.508   8.239   7.050
 7788POPC   C4A44250  17.528   8.240   7.350
 7788POPC   C1B44251  17.723   8.281   6.450
 7788POPC   C2B44252  17.780   8.299   6.750
 7788POPC   C3B44253  17.771   8.277   7.050
 7788POPC   C4B44254  17.716   8.325   7.350
 7789POPC   NC344255   3.545  23.758   5.550
 7789POPC   PO444256   3.498  23.748   5.850
 7789POPC   GL144257   3.548  23.720   6.150
 7789POPC   GL244258   3.399  23.714   6.150
 7789POPC   C1A44259   3.580  23.714   6.450
 7789POPC   D2A44260   3.570  23.665   6.750
 7789POPC   C3A44261   3.542  23.735   7.050
 7789POPC   C4A44262   3.521  23.745   7.350
 7789POPC   C1B44263   3.338  23.613   6.450
 7789POPC   C2B44264   3.312  23.656   6.750
 7789POPC   C3B44265   3.309  23.674   7.050
 7789POPC   C4B44266   3.332  23.685   7.350
 7790POPC   NC344267  34.616   4.298   5.550
 7790POPC   PO444268  34.527   4.342   5.850
 7790POPC   GL144269  34.547   4.302   6.150
 7790POPC   GL244270  34.489   4.198   6.150
 7790POPC   C1A44271  34.604   4.330   6.450
 7790POPC   D2A44272  34.551   4.301   6.750
 7790POPC   C3A44273  34.611   4.297   7.050
 7790POPC   C4A44274  34.617   4.333   7.350
 7790POPC   C1B44275  34.393   4.168   6.450
 7790POPC   C2B44276  34.319   4.144   6.750
 7790POPC   C3B44277  34.346   4.166   7.050
 7790POPC   C4B44278  34.365   4.225   7.350
 7791POPC   NC344279  10.511   2.005   5.550
 7791POPC   PO444280  10.501   1.985   5.850
 7791POPC   GL144281  10.559   1.943   6.150
 7791POPC   GL244282  10.387   1.909   6.150
 7791POPC   C1A44283  10.512   1.945   6.450
 7791POPC   D2A44284  10.508   1.991   6.750
 7791POPC   C3A44285  10.509   1.968   7.050
 7791POPC   C4A44286  10.513   2.029   7.350
 7791POPC   C1B44287  10.366   1.806   6.450
 7791POPC   C2B44288  10.355   1.774   6.750
 7791POPC   C3B44289  10.345   1.802   7.050
 7791POPC   C4B44290  10.349   1.829   7.350
 7792POPC   NC344291  19.844  33.060   5.550
 7792POPC   PO444292  19.826  33.007   5.850
 7792POPC   GL144293  19.818  33.064   6.150
 7792POPC   GL244294  19.748  32.967   6.150
 7792POPC   C1A44295  19.814  33.015   6.450
 7792POPC   D2A44296  19.801  33.072   6.750
 7792POPC   C3A44297  19.876  33.065   7.050
 7792POPC   C4A44298  19.825  33.033   7.350
 7792POPC   C1B44299  19.604  32.915   6.450
 7792POPC   C2B44300  19.565  32.996   6.750
 7792POPC   C3B44301  19.623  32.953   7.050
 7792POPC   C4B44302  19.628  33.006   7.350
 7793POPC   NC344303   1.250   8.218   5.550
 7793POPC   PO444304   1.184   8.148   5.850
 7793POPC   GL144305   1.201   8.206   6.150
 7793POPC   GL244306   1.206   8.073   6.150
 7793POPC   C1A44307   1.210   8.194   6.450
 7793POPC   D2A44308   1.183   8.192   6.750
 7793POPC   C3A44309   1.170   8.209   7.050
 7793POPC   C4A44310   1.200   8.173   7.350
 7793POPC   C1B44311   1.179   7.987   6.450
 7793POPC   C2B44312   1.135   7.935   6.750
 7793POPC   C3B44313   1.122   7.929   7.050
 7793POPC   C4B44314   1.117   7.963   7.350
 7794POPC   NC344315   9.703  34.571   5.550
 7794POPC   PO444316   9.778  34.600   5.850
 7794POPC   GL144317   9.789  34.528   6.150
 7794POPC   GL244318   9.784  34.700   6.150
 7794POPC   C1A44319   9.711  34.542   6.450
 7794POPC   D2A44320   9.791  34.546   6.750
 7794POPC   C3A44321   9.705  34.595   7.050
 7794POPC   C4A44322   9.788  34.607   7.350
 7794POPC   C1B44323   9.810  34.807   6.450
 7794POPC   C2B44324   9.810  34.841   6.750
 7794POPC   C3B44325   9.816  34.835   7.050
 7794POPC   C4B44326   9.828  34.812   7.350
 7795POPC   NC344327  33.837   3.499   5.550
 7795POPC   PO444328  33.839   3.584   5.850
 7795POPC   GL144329  33.756   3.535   6.150
 7795POPC   GL244330  33.864   3.578   6.150
 7795POPC   C1A44331  33.827   3.528   6.450
 7795POPC   D2A44332  33.789   3.572   6.750
 7795POPC   C3A44333  33.841   3.590   7.050
 7795POPC   C4A44334  33.769   3.545   7.350
 7795POPC   C1B44335  34.013   3.718   6.450
 7795POPC   C2B44336  34.008   3.720   6.750
 7795POPC   C3B44337  34.036   3.686   7.050
 7795POPC   C4B44338  34.047   3.633   7.350
 7796POPC   NC344339  33.832  22.173   5.550
 7796POPC   PO444340  33.767  22.125   5.850
 7796POPC   GL144341  33.758  22.201   6.150
 7796POPC   GL244342  33.920  22.228   6.150
 7796POPC   C1A44343  33.817  22.185   6.450
 7796POPC   D2A44344  33.800  22.134   6.750
 7796POPC   C3A44345  33.796  22.117   7.050
 7796POPC   C4A44346  33.814  22.164   7.350
 7796POPC   C1B44347  34.074  22.187   6.450
 7796POPC   C2B44348  34.066  22.159   6.750
 7796POPC   C3B44349  34.033  22.162   7.050
 7796POPC   C4B44350  33.998  22.163   7.350
 7797POPC   NC344351  18.300   2.755   5.550
 7797POPC   PO444352  18.264   2.792   5.850
 7797POPC   GL144353  18.323   2.805   6.150
 7797POPC   GL244354  18.223   2.843   6.150
 7797POPC   C1A44355  18.323   2.726   6.450
 7797POPC   D2A44356  18.292   2.806   6.750
 7797POPC   C3A44357  18.253   2.775   7.050
 7797POPC   C4A44358  18.266   2.735   7.350
 7797POPC   C1B44359  18.117   2.950   6.450
 7797POPC   C2B44360  18.166   2.982   6.750
 7797POPC   C3B44361  18.123   2.937   7.050
 7797POPC   C4B44362  18.153   2.953   7.350
 7798POPC   NC344363  33.026  28.385   5.550
 7798POPC   PO444364  33.028  28.400   5.850
 7798POPC   GL144365  33.061  28.330   6.150
 7798POPC   GL244366  33.065  28.228   6.150
 7798POPC   C1A44367  33.067  28.373   6.450
 7798POPC   D2A44368  33.041  28.386   6.750
 7798POPC   C3A44369  32.999  28.332   7.050
 7798POPC   C4A44370  33.036  28.363   7.350
 7798POPC   C1B44371  32.990  28.106   6.450
 7798POPC   C2B44372  33.005  28.100   6.750
 7798POPC   C3B44373  33.031  28.138   7.050
 7798POPC   C4B44374  33.008  28.073   7.350
 7799POPC   NC344375  43.914   0.422   5.550
 7799POPC   PO444376  43.896   0.427   5.850
 7799POPC   GL144377  43.870   0.487   6.150
 7799POPC   GL244378  44.032   0.374   6.150
 7799POPC   C1A44379  43.872   0.430   6.450
 7799POPC   D2A44380  43.898   0.439   6.750
 7799POPC   C3A44381  43.866   0.453   7.050
 7799POPC   C4A44382  43.922   0.431   7.350
 7799POPC   C1B44383  44.084   0.406   6.450
 7799POPC   C2B44384  44.126   0.353   6.750
 7799POPC   C3B44385  44.127   0.376   7.050
 7799POPC   C4B44386  44.101   0.388   7.350
 7800POPC   NC344387  30.691   0.465   5.550
 7800POPC   PO444388  30.720   0.404   5.850
 7800POPC   GL144389  30.692   0.390   6.150
 7800POPC   GL244390  30.782   0.480   6.150
 7800POPC   C1A44391  30.704   0.432   6.450
 7800POPC   D2A44392  30.724   0.452   6.750
 7800POPC   C3A44393  30.681   0.398   7.050
 7800POPC   C4A44394  30.745   0.466   7.350
 7800POPC   C1B44395  30.886   0.627   6.450
 7800POPC   C2B44396  30.904   0.559   6.750
 7800POPC   C3B44397  30.855   0.535   7.050
 7800POPC   C4B44398  30.931   0.537   7.350
 7801POPC   NC344399  33.004  18.292   5.550
 7801POPC   PO444400  32.999  18.312   5.850
 7801POPC   GL144401  33.009  18.255   6.150
 7801POPC   GL244402  32.898  18.326   6.150
 7801POPC   C1A44403  33.023  18.305   6.450
 7801POPC   D2A44404  33.047  18.305   6.750
 7801POPC   C3A44405  33.061  18.256   7.050
 7801POPC   C4A44406  32.991  18.315   7.350
 7801POPC   C1B44407  32.817  18.379   6.450
 7801POPC   C2B44408  32.839  18.407   6.750
 7801POPC   C3B44409  32.793  18.393   7.050
 7801POPC   C4B44410  32.839  18.380   7.350
 7802POPC   NC344411   2.792   5.907   5.550
 7802POPC   PO444412   2.739   5.875   5.850
 7802POPC   GL144413   2.733   5.878   6.150
 7802POPC   GL244414   2.700   5.906   6.150
 7802POPC   C1A44415   2.772   5.918   6.450
 7802POPC   D2A44416   2.742   5.876   6.750
 7802POPC   C3A44417   2.750   5.883   7.050
 7802POPC   C4A44418   2.793   5.880   7.350
 7802POPC   C1B44419   2.594   6.078   6.450
 7802POPC   C2B44420   2.550   6.009   6.750
 7802POPC   C3B44421   2.615   5.988   7.050
 7802POPC   C4B44422   2.557   6.086   7.350
 7803POPC   NC344423   2.019  37.688   5.550
 7803POPC   PO444424   1.969  37.686   5.850
 7803POPC   GL144425   1.944  37.713   6.150
 7803POPC   GL244426   1.999  37.804   6.150
 7803POPC   C1A44427   1.994  37.656   6.450
 7803POPC   D2A44428   1.970  37.651   6.750
 7803POPC   C3A44429   1.999  37.688   7.050
 7803POPC   C4A44430   2.030  37.716   7.350
 7803POPC   C1B44431   2.022  37.876   6.450
 7803POPC   C2B44432   2.022  37.894   6.750
 7803POPC   C3B44433   2.011  37.910   7.050
 7803POPC   C4B44434   2.073  37.929   7.350
 7804POPC   NC344435  24.506  35.386   5.550
 7804POPC   PO444436  24.529  35.348   5.850
 7804POPC   GL144437  24.477  35.378   6.150
 7804POPC   GL244438  24.500  35.278   6.150
 7804POPC   C1A44439  24.486  35.346   6.450
 7804POPC   D2A44440  24.441  35.397   6.750
 7804POPC   C3A44441  24.530  35.342   7.050
 7804POPC   C4A44442  24.458  35.339   7.350
 7804POPC   C1B44443  24.546  35.076   6.450
 7804POPC   C2B44444  24.557  35.131   6.750
 7804POPC   C3B44445  24.536  35.128   7.050
 7804POPC   C4B44446  24.543  35.092   7.350
 7805POPC   NC344447   4.277  38.482   5.550
 7805POPC   PO444448   4.323  38.449   5.850
 7805POPC   GL144449   4.307  38.478   6.150
 7805POPC   GL244450   4.432  38.383   6.150
 7805POPC   C1A44451   4.328  38.429   6.450
 7805POPC   D2A44452   4.364  38.410   6.750
 7805POPC   C3A44453   4.283  38.434   7.050
 7805POPC   C4A44454   4.276  38.501   7.350
 7805POPC   C1B44455   4.451  38.200   6.450
 7805POPC   C2B44456   4.409  38.228   6.750
 7805POPC   C3B44457   4.432  38.255   7.050
 7805POPC   C4B44458   4.429  38.228   7.350
 7806POPC   NC344459  34.595  19.802   5.550
 7806POPC   PO444460  34.585  19.812   5.850
 7806POPC   GL144461  34.622  19.785   6.150
 7806POPC   GL244462  34.462  19.821   6.150
 7806POPC   C1A44463  34.540  19.841   6.450
 7806POPC   D2A44464  34.606  19.804   6.750
 7806POPC   C3A44465  34.591  19.801   7.050
 7806POPC   C4A44466  34.597  19.801   7.350
 7806POPC   C1B44467  34.312  19.862   6.450
 7806POPC   C2B44468  34.354  19.896   6.750
 7806POPC   C3B44469  34.317  19.888   7.050
 7806POPC   C4B44470  34.312  19.844   7.350
 7807POPC   NC344471   1.972  44.629   5.550
 7807POPC   PO444472   1.943  44.653   5.850
 7807POPC   GL144473   1.994  44.625   6.150
 7807POPC   GL244474   1.884  44.643   6.150
 7807POPC   C1A44475   1.949  44.623   6.450
 7807POPC   D2A44476   2.004  44.668   6.750
 7807POPC   C3A44477   2.015  44.695   7.050
 7807POPC   C4A44478   2.009  44.712   7.350
 7807POPC   C1B44479   1.748  44.689   6.450
 7807POPC   C2B44480   1.748  44.680   6.750
 7807POPC   C3B44481   1.737  44.637   7.050
 7807POPC   C4B44482   1.783  44.723   7.350
 7808POPC   NC344483   9.011  19.862   5.550
 7808POPC   PO444484   8.965  19.866   5.850
 7808POPC   GL144485   8.984  19.829   6.150
 7808POPC   GL244486   9.106  19.737   6.150
 7808POPC   C1A44487   8.973  19.880   6.450
 7808POPC   D2A44488   9.015  19.859   6.750
 7808POPC   C3A44489   8.945  19.867   7.050
 7808POPC   C4A44490   8.935  19.871   7.350
 7808POPC   C1B44491   9.160  19.640   6.450
 7808POPC   C2B44492   9.143  19.609   6.750
 7808POPC   C3B44493   9.148  19.652   7.050
 7808POPC   C4B44494   9.131  19.629   7.350
 7809POPC   NC344495   7.470  26.007   5.550
 7809POPC   PO444496   7.419  26.045   5.850
 7809POPC   GL144497   7.417  26.066   6.150
 7809POPC   GL244498   7.553  25.962   6.150
 7809POPC   C1A44499   7.407  26.032   6.450
 7809POPC   D2A44500   7.411  26.076   6.750
 7809POPC   C3A44501   7.412  26.081   7.050
 7809POPC   C4A44502   7.410  26.002   7.350
 7809POPC   C1B44503   7.594  25.850   6.450
 7809POPC   C2B44504   7.612  25.915   6.750
 7809POPC   C3B44505   7.576  25.891   7.050
 7809POPC   C4B44506   7.634  25.883   7.350
 7810POPC   NC344507  26.075  36.875   5.550
 7810POPC   PO444508  26.019  36.876   5.850
 7810POPC   GL144509  26.033  36.886   6.150
 7810POPC   GL244510  25.983  36.736   6.150
 7810POPC   C1A44511  26.015  36.951   6.450
 7810POPC   D2A44512  26.054  36.914   6.750
 7810POPC   C3A44513  25.995  36.878   7.050
 7810POPC   C4A44514  26.040  36.860   7.350
 7810POPC   C1B44515  25.961  36.689   6.450
 7810POPC   C2B44516  25.987  36.707   6.750
 7810POPC   C3B44517  25.958  36.647   7.050
 7810POPC   C4B44518  26.029  36.621   7.350
 7811POPC   NC344519   4.320  43.921   5.550
 7811POPC   PO444520   4.315  43.868   5.850
 7811POPC   GL144521   4.359  43.920   6.150
 7811POPC   GL244522   4.225  43.984   6.150
 7811POPC   C1A44523   4.345  43.861   6.450
 7811POPC   D2A44524   4.353  43.897   6.750
 7811POPC   C3A44525   4.335  43.837   7.050
 7811POPC   C4A44526   4.345  43.924   7.350
 7811POPC   C1B44527   4.088  43.983   6.450
 7811POPC   C2B44528   4.125  43.964   6.750
 7811POPC   C3B44529   4.043  43.960   7.050
 7811POPC   C4B44530   4.095  43.946   7.350
 7812POPC   NC344531   6.635  43.139   5.550
 7812POPC   PO444532   6.596  43.102   5.850
 7812POPC   GL144533   6.605  43.133   6.150
 7812POPC   GL244534   6.753  43.214   6.150
 7812POPC   C1A44535   6.624  43.146   6.450
 7812POPC   D2A44536   6.642  43.070   6.750
 7812POPC   C3A44537   6.647  43.066   7.050
 7812POPC   C4A44538   6.621  43.106   7.350
 7812POPC   C1B44539   6.716  43.346   6.450
 7812POPC   C2B44540   6.780  43.348   6.750
 7812POPC   C3B44541   6.731  43.298   7.050
 7812POPC   C4B44542   6.777  43.302   7.350
 7813POPC   NC344543  38.452  34.546   5.550
 7813POPC   PO444544  38.489  34.603   5.850
 7813POPC   GL144545  38.447  34.567   6.150
 7813POPC   GL244546  38.419  34.675   6.150
 7813POPC   C1A44547  38.492  34.560   6.450
 7813POPC   D2A44548  38.459  34.527   6.750
 7813POPC   C3A44549  38.416  34.544   7.050
 7813POPC   C4A44550  38.450  34.545   7.350
 7813POPC   C1B44551  38.419  34.776   6.450
 7813POPC   C2B44552  38.348  34.840   6.750
 7813POPC   C3B44553  38.446  34.868   7.050
 7813POPC   C4B44554  38.385  34.845   7.350
 7814POPC   NC344555  14.412  43.863   5.550
 7814POPC   PO444556  14.432  43.918   5.850
 7814POPC   GL144557  14.362  43.849   6.150
 7814POPC   GL244558  14.420  44.045   6.150
 7814POPC   C1A44559  14.401  43.933   6.450
 7814POPC   D2A44560  14.398  43.883   6.750
 7814POPC   C3A44561  14.391  43.895   7.050
 7814POPC   C4A44562  14.422  43.866   7.350
 7814POPC   C1B44563  14.379  44.161   6.450
 7814POPC   C2B44564  14.420  44.184   6.750
 7814POPC   C3B44565  14.373  44.143   7.050
 7814POPC   C4B44566  14.373  44.099   7.350
 7815POPC   NC344567  36.124  24.449   5.550
 7815POPC   PO444568  36.090  24.477   5.850
 7815POPC   GL144569  36.114  24.471   6.150
 7815POPC   GL244570  36.118  24.587   6.150
 7815POPC   C1A44571  36.078  24.482   6.450
 7815POPC   D2A44572  36.099  24.518   6.750
 7815POPC   C3A44573  36.152  24.515   7.050
 7815POPC   C4A44574  36.108  24.507   7.350
 7815POPC   C1B44575  36.128  24.763   6.450
 7815POPC   C2B44576  36.084  24.709   6.750
 7815POPC   C3B44577  36.088  24.736   7.050
 7815POPC   C4B44578  36.085  24.759   7.350
 7816POPC   NC344579  43.914  12.083   5.550
 7816POPC   PO444580  43.845  12.061   5.850
 7816POPC   GL144581  43.845  12.062   6.150
 7816POPC   GL244582  43.884  12.005   6.150
 7816POPC   C1A44583  43.849  12.096   6.450
 7816POPC   D2A44584  43.911  12.119   6.750
 7816POPC   C3A44585  43.867  12.036   7.050
 7816POPC   C4A44586  43.936  12.095   7.350
 7816POPC   C1B44587  43.767  11.870   6.450
 7816POPC   C2B44588  43.762  11.832   6.750
 7816POPC   C3B44589  43.785  11.831   7.050
 7816POPC   C4B44590  43.837  11.807   7.350
 7817POPC   NC344591  43.090   1.223   5.550
 7817POPC   PO444592  43.128   1.230   5.850
 7817POPC   GL144593  43.147   1.250   6.150
 7817POPC   GL244594  42.992   1.140   6.150
 7817POPC   C1A44595  43.123   1.262   6.450
 7817POPC   D2A44596  43.113   1.167   6.750
 7817POPC   C3A44597  43.154   1.188   7.050
 7817POPC   C4A44598  43.129   1.261   7.350
 7817POPC   C1B44599  42.834   1.161   6.450
 7817POPC   C2B44600  42.846   1.143   6.750
 7817POPC   C3B44601  42.863   1.129   7.050
 7817POPC   C4B44602  42.923   1.171   7.350
 7818POPC   NC344603   1.989   8.924   5.550
 7818POPC   PO444604   1.973   8.943   5.850
 7818POPC   GL144605   1.991   8.994   6.150
 7818POPC   GL244606   2.071   8.848   6.150
 7818POPC   C1A44607   1.989   8.991   6.450
 7818POPC   D2A44608   1.940   9.005   6.750
 7818POPC   C3A44609   2.000   8.987   7.050
 7818POPC   C4A44610   2.024   8.929   7.350
 7818POPC   C1B44611   2.131   8.765   6.450
 7818POPC   C2B44612   2.083   8.759   6.750
 7818POPC   C3B44613   2.139   8.710   7.050
 7818POPC   C4B44614   2.053   8.743   7.350
 7819POPC   NC344615  43.918  39.183   5.550
 7819POPC   PO444616  43.850  39.206   5.850
 7819POPC   GL144617  43.884  39.279   6.150
 7819POPC   GL244618  43.889  39.128   6.150
 7819POPC   C1A44619  43.927  39.182   6.450
 7819POPC   D2A44620  43.904  39.228   6.750
 7819POPC   C3A44621  43.932  39.272   7.050
 7819POPC   C4A44622  43.861  39.246   7.350
 7819POPC   C1B44623  43.842  38.992   6.450
 7819POPC   C2B44624  43.828  38.981   6.750
 7819POPC   C3B44625  43.847  39.030   7.050
 7819POPC   C4B44626  43.828  39.026   7.350
 7820POPC   NC344627  43.872   7.414   5.550
 7820POPC   PO444628  43.841   7.382   5.850
 7820POPC   GL144629  43.895   7.461   6.150
 7820POPC   GL244630  44.020   7.418   6.150
 7820POPC   C1A44631  43.931   7.411   6.450
 7820POPC   D2A44632  43.916   7.436   6.750
 7820POPC   C3A44633  43.911   7.380   7.050
 7820POPC   C4A44634  43.885   7.452   7.350
 7820POPC   C1B44635  44.094   7.517   6.450
 7820POPC   C2B44636  44.129   7.475   6.750
 7820POPC   C3B44637  44.109   7.525   7.050
 7820POPC   C4B44638  44.107   7.483   7.350
 7821POPC   NC344639   3.533  10.506   5.550
 7821POPC   PO444640   3.514  10.486   5.850
 7821POPC   GL144641   3.518  10.477   6.150
 7821POPC   GL244642   3.541  10.668   6.150
 7821POPC   C1A44643   3.520  10.565   6.450
 7821POPC   D2A44644   3.535  10.500   6.750
 7821POPC   C3A44645   3.509  10.504   7.050
 7821POPC   C4A44646   3.556  10.574   7.350
 7821POPC   C1B44647   3.526  10.798   6.450
 7821POPC   C2B44648   3.523  10.726   6.750
 7821POPC   C3B44649   3.571  10.727   7.050
 7821POPC   C4B44650   3.570  10.787   7.350
 7822POPC   NC344651   4.313  22.930   5.550
 7822POPC   PO444652   4.302  22.943   5.850
 7822POPC   GL144653   4.301  22.914   6.150
 7822POPC   GL244654   4.194  22.883   6.150
 7822POPC   C1A44655   4.310  22.898   6.450
 7822POPC   D2A44656   4.315  22.961   6.750
 7822POPC   C3A44657   4.290  22.952   7.050
 7822POPC   C4A44658   4.336  22.893   7.350
 7822POPC   C1B44659   4.182  22.786   6.450
 7822POPC   C2B44660   4.143  22.774   6.750
 7822POPC   C3B44661   4.149  22.727   7.050
 7822POPC   C4B44662   4.122  22.796   7.350
 7823POPC   NC344663   8.961  43.857   5.550
 7823POPC   PO444664   8.947  43.916   5.850
 7823POPC   GL144665   9.012  43.851   6.150
 7823POPC   GL244666   8.854  43.818   6.150
 7823POPC   C1A44667   8.985  43.917   6.450
 7823POPC   D2A44668   8.926  43.895   6.750
 7823POPC   C3A44669   9.006  43.933   7.050
 7823POPC   C4A44670   8.940  43.900   7.350
 7823POPC   C1B44671   8.765  43.848   6.450
 7823POPC   C2B44672   8.686  43.796   6.750
 7823POPC   C3B44673   8.753  43.791   7.050
 7823POPC   C4B44674   8.726  43.850   7.350
 7824POPC   NC344675  11.328   2.778   5.550
 7824POPC   PO444676  11.299   2.772   5.850
 7824POPC   GL144677  11.349   2.791   6.150
 7824POPC   GL244678  11.364   2.880   6.150
 7824POPC   C1A44679  11.296   2.718   6.450
 7824POPC   D2A44680  11.271   2.779   6.750
 7824POPC   C3A44681  11.258   2.804   7.050
 7824POPC   C4A44682  11.284   2.748   7.350
 7824POPC   C1B44683  11.317   3.034   6.450
 7824POPC   C2B44684  11.326   2.990   6.750
 7824POPC   C3B44685  11.403   3.017   7.050
 7824POPC   C4B44686  11.384   3.007   7.350
 7825POPC   NC344687   1.994  22.132   5.550
 7825POPC   PO444688   2.008  22.134   5.850
 7825POPC   GL144689   2.025  22.129   6.150
 7825POPC   GL244690   2.066  22.218   6.150
 7825POPC   C1A44691   1.973  22.143   6.450
 7825POPC   D2A44692   2.028  22.192   6.750
 7825POPC   C3A44693   1.959  22.125   7.050
 7825POPC   C4A44694   1.987  22.205   7.350
 7825POPC   C1B44695   2.225  22.158   6.450
 7825POPC   C2B44696   2.262  22.191   6.750
 7825POPC   C3B44697   2.246  22.226   7.050
 7825POPC   C4B44698   2.277  22.216   7.350
 7826POPC   NC344699   1.175  42.374   5.550
 7826POPC   PO444700   1.248  42.293   5.850
 7826POPC   GL144701   1.201  42.297   6.150
 7826POPC   GL244702   1.116  42.343   6.150
 7826POPC   C1A44703   1.186  42.317   6.450
 7826POPC   D2A44704   1.203  42.368   6.750
 7826POPC   C3A44705   1.186  42.373   7.050
 7826POPC   C4A44706   1.183  42.308   7.350
 7826POPC   C1B44707   0.920  42.305   6.450
 7826POPC   C2B44708   0.918  42.337   6.750
 7826POPC   C3B44709   0.950  42.319   7.050
 7826POPC   C4B44710   0.987  42.295   7.350
 7827POPC   NC344711  26.862   5.859   5.550
 7827POPC   PO444712  26.820   5.847   5.850
 7827POPC   GL144713  26.827   5.874   6.150
 7827POPC   GL244714  26.924   5.814   6.150
 7827POPC   C1A44715  26.806   5.882   6.450
 7827POPC   D2A44716  26.837   5.833   6.750
 7827POPC   C3A44717  26.849   5.833   7.050
 7827POPC   C4A44718  26.813   5.890   7.350
 7827POPC   C1B44719  26.950   5.716   6.450
 7827POPC   C2B44720  27.002   5.692   6.750
 7827POPC   C3B44721  26.980   5.680   7.050
 7827POPC   C4B44722  26.999   5.644   7.350
 7828POPC   NC344723  16.712  43.854   5.550
 7828POPC   PO444724  16.728  43.896   5.850
 7828POPC   GL144725  16.770  43.895   6.150
 7828POPC   GL244726  16.781  43.754   6.150
 7828POPC   C1A44727  16.716  43.921   6.450
 7828POPC   D2A44728  16.754  43.913   6.750
 7828POPC   C3A44729  16.718  43.861   7.050
 7828POPC   C4A44730  16.714  43.895   7.350
 7828POPC   C1B44731  16.902  43.725   6.450
 7828POPC   C2B44732  16.878  43.713   6.750
 7828POPC   C3B44733  16.959  43.765   7.050
 7828POPC   C4B44734  16.907  43.731   7.350
 7829POPC   NC344735  33.830  18.287   5.550
 7829POPC   PO444736  33.773  18.333   5.850
 7829POPC   GL144737  33.776  18.286   6.150
 7829POPC   GL244738  33.665  18.247   6.150
 7829POPC   C1A44739  33.772  18.299   6.450
 7829POPC   D2A44740  33.768  18.263   6.750
 7829POPC   C3A44741  33.822  18.273   7.050
 7829POPC   C4A44742  33.792  18.269   7.350
 7829POPC   C1B44743  33.583  18.175   6.450
 7829POPC   C2B44744  33.601  18.250   6.750
 7829POPC   C3B44745  33.558  18.221   7.050
 7829POPC   C4B44746  33.559  18.172   7.350
 7830POPC   NC344747   0.482  33.815   5.550
 7830POPC   PO444748   0.446  33.779   5.850
 7830POPC   GL144749   0.429  33.810   6.150
 7830POPC   GL244750   0.343  33.675   6.150
 7830POPC   C1A44751   0.402  33.778   6.450
 7830POPC   D2A44752   0.464  33.791   6.750
 7830POPC   C3A44753   0.475  33.789   7.050
 7830POPC   C4A44754   0.435  33.830   7.350
 7830POPC   C1B44755   0.312  33.596   6.450
 7830POPC   C2B44756   0.307  33.550   6.750
 7830POPC   C3B44757   0.289  33.524   7.050
 7830POPC   C4B44758   0.370  33.532   7.350
 7831POPC   NC344759   5.859  40.029   5.550
 7831POPC   PO444760   5.826  39.987   5.850
 7831POPC   GL144761   5.866  40.035   6.150
 7831POPC   GL244762   5.736  40.059   6.150
 7831POPC   C1A44763   5.913  39.971   6.450
 7831POPC   D2A44764   5.903  40.014   6.750
 7831POPC   C3A44765   5.820  39.991   7.050
 7831POPC   C4A44766   5.851  40.004   7.350
 7831POPC   C1B44767   5.601  40.055   6.450
 7831POPC   C2B44768   5.662  40.058   6.750
 7831POPC   C3B44769   5.629  40.021   7.050
 7831POPC   C4B44770   5.667  40.052   7.350
 7832POPC   NC344771  26.821  35.367   5.550
 7832POPC   PO444772  26.838  35.360   5.850
 7832POPC   GL144773  26.814  35.350   6.150
 7832POPC   GL244774  26.699  35.387   6.150
 7832POPC   C1A44775  26.864  35.302   6.450
 7832POPC   D2A44776  26.839  35.397   6.750
 7832POPC   C3A44777  26.785  35.389   7.050
 7832POPC   C4A44778  26.863  35.394   7.350
 7832POPC   C1B44779  26.615  35.408   6.450
 7832POPC   C2B44780  26.601  35.457   6.750
 7832POPC   C3B44781  26.576  35.491   7.050
 7832POPC   C4B44782  26.582  35.455   7.350
 7833POPC   NC344783  41.519   0.402   5.550
 7833POPC   PO444784  41.608   0.484   5.850
 7833POPC   GL144785  41.553   0.439   6.150
 7833POPC   GL244786  41.527   0.519   6.150
 7833POPC   C1A44787  41.555   0.409   6.450
 7833POPC   D2A44788  41.510   0.405   6.750
 7833POPC   C3A44789  41.544   0.425   7.050
 7833POPC   C4A44790  41.590   0.437   7.350
 7833POPC   C1B44791  41.490   0.634   6.450
 7833POPC   C2B44792  41.443   0.693   6.750
 7833POPC   C3B44793  41.484   0.688   7.050
 7833POPC   C4B44794  41.497   0.667   7.350
 7834POPC   NC344795   0.438   2.765   5.550
 7834POPC   PO444796   0.403   2.735   5.850
 7834POPC   GL144797   0.405   2.749   6.150
 7834POPC   GL244798   0.394   2.681   6.150
 7834POPC   C1A44799   0.484   2.756   6.450
 7834POPC   D2A44800   0.467   2.815   6.750
 7834POPC   C3A44801   0.434   2.779   7.050
 7834POPC   C4A44802   0.418   2.753   7.350
 7834POPC   C1B44803   0.365   2.535   6.450
 7834POPC   C2B44804   0.317   2.560   6.750
 7834POPC   C3B44805   0.360   2.528   7.050
 7834POPC   C4B44806   0.316   2.564   7.350
 7835POPC   NC344807  44.637  39.218   5.550
 7835POPC   PO444808  44.640  39.216   5.850
 7835POPC   GL144809  44.708  39.246   6.150
 7835POPC   GL244810  44.632  39.298   6.150
 7835POPC   C1A44811  44.648  39.204   6.450
 7835POPC   D2A44812  44.696  39.224   6.750
 7835POPC   C3A44813  44.675  39.221   7.050
 7835POPC   C4A44814  44.650  39.211   7.350
 7835POPC   C1B44815  44.475  39.403   6.450
 7835POPC   C2B44816  44.554  39.427   6.750
 7835POPC   C3B44817  44.544  39.467   7.050
 7835POPC   C4B44818  44.528  39.428   7.350
 7836POPC   NC344819  26.856  12.877   5.550
 7836POPC   PO444820  26.863  12.877   5.850
 7836POPC   GL144821  26.783  12.804   6.150
 7836POPC   GL244822  26.734  12.968   6.150
 7836POPC   C1A44823  26.837  12.811   6.450
 7836POPC   D2A44824  26.835  12.890   6.750
 7836POPC   C3A44825  26.793  12.849   7.050
 7836POPC   C4A44826  26.801  12.815   7.350
 7836POPC   C1B44827  26.662  13.071   6.450
 7836POPC   C2B44828  26.718  13.013   6.750
 7836POPC   C3B44829  26.715  13.092   7.050
 7836POPC   C4B44830  26.703  13.093   7.350
 7837POPC   NC344831  36.891   5.069   5.550
 7837POPC   PO444832  36.859   5.075   5.850
 7837POPC   GL144833  36.952   5.124   6.150
 7837POPC   GL244834  36.989   5.072   6.150
 7837POPC   C1A44835  36.855   5.045   6.450
 7837POPC   D2A44836  36.909   5.063   6.750
 7837POPC   C3A44837  36.896   5.073   7.050
 7837POPC   C4A44838  36.899   5.081   7.350
 7837POPC   C1B44839  37.125   5.048   6.450
 7837POPC   C2B44840  37.183   5.102   6.750
 7837POPC   C3B44841  37.155   5.066   7.050
 7837POPC   C4B44842  37.171   5.112   7.350
 7838POPC   NC344843   8.166  27.619   5.550
 7838POPC   PO444844   8.173  27.624   5.850
 7838POPC   GL144845   8.229  27.590   6.150
 7838POPC   GL244846   8.315  27.712   6.150
 7838POPC   C1A44847   8.207  27.569   6.450
 7838POPC   D2A44848   8.160  27.589   6.750
 7838POPC   C3A44849   8.180  27.623   7.050
 7838POPC   C4A44850   8.243  27.579   7.350
 7838POPC   C1B44851   8.348  27.804   6.450
 7838POPC   C2B44852   8.358  27.738   6.750
 7838POPC   C3B44853   8.372  27.787   7.050
 7838POPC   C4B44854   8.405  27.744   7.350
 7839POPC   NC344855  15.977  18.299   5.550
 7839POPC   PO444856  15.915  18.274   5.850
 7839POPC   GL144857  15.906  18.295   6.150
 7839POPC   GL244858  15.945  18.176   6.150
 7839POPC   C1A44859  15.933  18.324   6.450
 7839POPC   D2A44860  15.914  18.302   6.750
 7839POPC   C3A44861  15.951  18.252   7.050
 7839POPC   C4A44862  16.000  18.271   7.350
 7839POPC   C1B44863  16.001  18.050   6.450
 7839POPC   C2B44864  16.063  18.091   6.750
 7839POPC   C3B44865  16.024  18.060   7.050
 7839POPC   C4B44866  16.057  18.024   7.350
 7840POPC   NC344867  36.137  11.264   5.550
 7840POPC   PO444868  36.167  11.286   5.850
 7840POPC   GL144869  36.172  11.260   6.150
 7840POPC   GL244870  35.989  11.358   6.150
 7840POPC   C1A44871  36.084  11.282   6.450
 7840POPC   D2A44872  36.160  11.322   6.750
 7840POPC   C3A44873  36.093  11.319   7.050
 7840POPC   C4A44874  36.080  11.283   7.350
 7840POPC   C1B44875  35.857  11.289   6.450
 7840POPC   C2B44876  35.850  11.333   6.750
 7840POPC   C3B44877  35.874  11.327   7.050
 7840POPC   C4B44878  35.837  11.323   7.350
 7841POPC   NC344879  42.317   8.153   5.550
 7841POPC   PO444880  42.327   8.208   5.850
 7841POPC   GL144881  42.299   8.235   6.150
 7841POPC   GL244882  42.371   8.066   6.150
 7841POPC   C1A44883  42.331   8.175   6.450
 7841POPC   D2A44884  42.343   8.230   6.750
 7841POPC   C3A44885  42.375   8.172   7.050
 7841POPC   C4A44886  42.361   8.246   7.350
 7841POPC   C1B44887  42.498   7.991   6.450
 7841POPC   C2B44888  42.519   8.002   6.750
 7841POPC   C3B44889  42.505   7.991   7.050
 7841POPC   C4B44890  42.527   7.984   7.350
 7842POPC   NC344891  22.198  32.232   5.550
 7842POPC   PO444892  22.155  32.265   5.850
 7842POPC   GL144893  22.176  32.271   6.150
 7842POPC   GL244894  22.006  32.189   6.150
 7842POPC   C1A44895  22.131  32.249   6.450
 7842POPC   D2A44896  22.128  32.286   6.750
 7842POPC   C3A44897  22.202  32.213   7.050
 7842POPC   C4A44898  22.210  32.216   7.350
 7842POPC   C1B44899  21.968  32.141   6.450
 7842POPC   C2B44900  21.890  32.117   6.750
 7842POPC   C3B44901  21.922  32.202   7.050
 7842POPC   C4B44902  21.894  32.155   7.350
 7843POPC   NC344903  44.712   5.842   5.550
 7843POPC   PO444904  44.697   5.855   5.850
 7843POPC   GL144905  44.670   5.910   6.150
 7843POPC   GL244906  44.510   5.810   6.150
 7843POPC   C1A44907  44.692   5.872   6.450
 7843POPC   D2A44908  44.696   5.884   6.750
 7843POPC   C3A44909  44.700   5.841   7.050
 7843POPC   C4A44910  44.634   5.874   7.350
 7843POPC   C1B44911  44.405   5.699   6.450
 7843POPC   C2B44912  44.455   5.745   6.750
 7843POPC   C3B44913  44.413   5.697   7.050
 7843POPC   C4B44914  44.452   5.697   7.350
 7844POPC   NC344915  21.400  11.298   5.550
 7844POPC   PO444916  21.398  11.298   5.850
 7844POPC   GL144917  21.435  11.280   6.150
 7844POPC   GL244918  21.469  11.349   6.150
 7844POPC   C1A44919  21.395  11.304   6.450
 7844POPC   D2A44920  21.338  11.293   6.750
 7844POPC   C3A44921  21.426  11.277   7.050
 7844POPC   C4A44922  21.359  11.328   7.350
 7844POPC   C1B44923  21.627  11.421   6.450
 7844POPC   C2B44924  21.608  11.404   6.750
 7844POPC   C3B44925  21.612  11.436   7.050
 7844POPC   C4B44926  21.576  11.455   7.350
 7845POPC   NC344927  19.037  29.110   5.550
 7845POPC   PO444928  19.074  29.127   5.850
 7845POPC   GL144929  19.015  29.180   6.150
 7845POPC   GL244930  19.200  29.154   6.150
 7845POPC   C1A44931  19.065  29.168   6.450
 7845POPC   D2A44932  19.081  29.128   6.750
 7845POPC   C3A44933  19.066  29.188   7.050
 7845POPC   C4A44934  19.087  29.145   7.350
 7845POPC   C1B44935  19.333  29.127   6.450
 7845POPC   C2B44936  19.266  29.188   6.750
 7845POPC   C3B44937  19.261  29.162   7.050
 7845POPC   C4B44938  19.270  29.143   7.350
 7846POPC   NC344939  41.560  11.303   5.550
 7846POPC   PO444940  41.573  11.254   5.850
 7846POPC   GL144941  41.588  11.335   6.150
 7846POPC   GL244942  41.592  11.406   6.150
 7846POPC   C1A44943  41.581  11.251   6.450
 7846POPC   D2A44944  41.513  11.303   6.750
 7846POPC   C3A44945  41.556  11.310   7.050
 7846POPC   C4A44946  41.600  11.312   7.350
 7846POPC   C1B44947  41.558  11.586   6.450
 7846POPC   C2B44948  41.539  11.534   6.750
 7846POPC   C3B44949  41.527  11.503   7.050
 7846POPC   C4B44950  41.587  11.588   7.350
 7847POPC   NC344951   4.300  17.495   5.550
 7847POPC   PO444952   4.350  17.517   5.850
 7847POPC   GL144953   4.347  17.472   6.150
 7847POPC   GL244954   4.376  17.362   6.150
 7847POPC   C1A44955   4.271  17.507   6.450
 7847POPC   D2A44956   4.351  17.475   6.750
 7847POPC   C3A44957   4.278  17.514   7.050
 7847POPC   C4A44958   4.268  17.552   7.350
 7847POPC   C1B44959   4.473  17.346   6.450
 7847POPC   C2B44960   4.483  17.284   6.750
 7847POPC   C3B44961   4.454  17.301   7.050
 7847POPC   C4B44962   4.484  17.347   7.350
 7848POPC   NC344963  29.135  16.771   5.550
 7848POPC   PO444964  29.100  16.725   5.850
 7848POPC   GL144965  29.140  16.707   6.150
 7848POPC   GL244966  29.076  16.772   6.150
 7848POPC   C1A44967  29.178  16.709   6.450
 7848POPC   D2A44968  29.169  16.705   6.750
 7848POPC   C3A44969  29.186  16.722   7.050
 7848POPC   C4A44970  29.159  16.732   7.350
 7848POPC   C1B44971  28.943  16.861   6.450
 7848POPC   C2B44972  28.958  16.822   6.750
 7848POPC   C3B44973  28.951  16.866   7.050
 7848POPC   C4B44974  28.942  16.833   7.350
 7849POPC   NC344975   8.961  44.674   5.550
 7849POPC   PO444976   8.975  44.665   5.850
 7849POPC   GL144977   9.014  44.666   6.150
 7849POPC   GL244978   8.968  44.594   6.150
 7849POPC   C1A44979   8.930  44.657   6.450
 7849POPC   D2A44980   8.959  44.705   6.750
 7849POPC   C3A44981   9.001  44.624   7.050
 7849POPC   C4A44982   9.002  44.612   7.350
 7849POPC   C1B44983   8.916  44.471   6.450
 7849POPC   C2B44984   8.872  44.419   6.750
 7849POPC   C3B44985   8.870  44.411   7.050
 7849POPC   C4B44986   8.847  44.428   7.350
 7850POPC   NC344987   6.654   4.269   5.550
 7850POPC   PO444988   6.685   4.330   5.850
 7850POPC   GL144989   6.648   4.358   6.150
 7850POPC   GL244990   6.633   4.204   6.150
 7850POPC   C1A44991   6.613   4.284   6.450
 7850POPC   D2A44992   6.673   4.330   6.750
 7850POPC   C3A44993   6.653   4.335   7.050
 7850POPC   C4A44994   6.627   4.343   7.350
 7850POPC   C1B44995   6.669   4.087   6.450
 7850POPC   C2B44996   6.602   4.057   6.750
 7850POPC   C3B44997   6.620   4.034   7.050
 7850POPC   C4B44998   6.684   4.027   7.350
 7851POPC   NC344999  10.545   0.423   5.550
 7851POPC   PO445000  10.558   0.440   5.850
 7851POPC   GL145001  10.515   0.400   6.150
 7851POPC   GL245002  10.511   0.557   6.150
 7851POPC   C1A45003  10.567   0.398   6.450
 7851POPC   D2A45004  10.523   0.397   6.750
 7851POPC   C3A45005  10.485   0.487   7.050
 7851POPC   C4A45006  10.540   0.415   7.350
 7851POPC   C1B45007  10.470   0.658   6.450
 7851POPC   C2B45008  10.443   0.687   6.750
 7851POPC   C3B45009  10.465   0.698   7.050
 7851POPC   C4B45010  10.447   0.655   7.350
 7852POPC   NC345011  15.187  26.064   5.550
 7852POPC   PO445012  15.140  26.016   5.850
 7852POPC   GL145013  15.133  26.071   6.150
 7852POPC   GL245014  15.178  26.205   6.150
 7852POPC   C1A45015  15.193  26.012   6.450
 7852POPC   D2A45016  15.168  26.083   6.750
 7852POPC   C3A45017  15.207  26.023   7.050
 7852POPC   C4A45018  15.178  26.026   7.350
 7852POPC   C1B45019  15.208  26.324   6.450
 7852POPC   C2B45020  15.223  26.286   6.750
 7852POPC   C3B45021  15.208  26.279   7.050
 7852POPC   C4B45022  15.282  26.319   7.350
 7853POPC   NC345023   4.286   4.361   5.550
 7853POPC   PO445024   4.337   4.306   5.850
 7853POPC   GL145025   4.290   4.291   6.150
 7853POPC   GL245026   4.181   4.343   6.150
 7853POPC   C1A45027   4.296   4.280   6.450
 7853POPC   D2A45028   4.312   4.268   6.750
 7853POPC   C3A45029   4.293   4.319   7.050
 7853POPC   C4A45030   4.281   4.271   7.350
 7853POPC   C1B45031   4.080   4.407   6.450
 7853POPC   C2B45032   4.045   4.442   6.750
 7853POPC   C3B45033   4.057   4.453   7.050
 7853POPC   C4B45034   4.067   4.410   7.350
 7854POPC   NC345035   8.993  43.132   5.550
 7854POPC   PO445036   8.956  43.082   5.850
 7854POPC   GL145037   8.978  43.072   6.150
 7854POPC   GL245038   8.878  43.149   6.150
 7854POPC   C1A45039   9.005  43.155   6.450
 7854POPC   D2A45040   8.955  43.102   6.750
 7854POPC   C3A45041   9.000  43.092   7.050
 7854POPC   C4A45042   8.944  43.150   7.350
 7854POPC   C1B45043   8.742  43.193   6.450
 7854POPC   C2B45044   8.710  43.224   6.750
 7854POPC   C3B45045   8.710  43.226   7.050
 7854POPC   C4B45046   8.761  43.284   7.350
 7855POPC   NC345047   2.786  25.996   5.550
 7855POPC   PO445048   2.763  26.050   5.850
 7855POPC   GL145049   2.733  25.999   6.150
 7855POPC   GL245050   2.786  25.907   6.150
 7855POPC   C1A45051   2.808  26.029   6.450
 7855POPC   D2A45052   2.801  26.001   6.750
 7855POPC   C3A45053   2.791  26.068   7.050
 7855POPC   C4A45054   2.752  26.081   7.350
 7855POPC   C1B45055   2.792  25.777   6.450
 7855POPC   C2B45056   2.775  25.752   6.750
 7855POPC   C3B45057   2.761  25.781   7.050
 7855POPC   C4B45058   2.724  25.750   7.350
 7856POPC   NC345059   8.238  39.233   5.550
 7856POPC   PO445060   8.188  39.222   5.850
 7856POPC   GL145061   8.165  39.189   6.150
 7856POPC   GL245062   8.304  39.334   6.150
 7856POPC   C1A45063   8.228  39.252   6.450
 7856POPC   D2A45064   8.165  39.265   6.750
 7856POPC   C3A45065   8.172  39.270   7.050
 7856POPC   C4A45066   8.232  39.277   7.350
 7856POPC   C1B45067   8.362  39.385   6.450
 7856POPC   C2B45068   8.360  39.388   6.750
 7856POPC   C3B45069   8.378  39.384   7.050
 7856POPC   C4B45070   8.442  39.387   7.350
 7857POPC   NC345071   0.437   3.526   5.550
 7857POPC   PO445072   0.475   3.547   5.850
 7857POPC   GL145073   0.415   3.580   6.150
 7857POPC   GL245074   0.516   3.477   6.150
 7857POPC   C1A45075   0.467   3.523   6.450
 7857POPC   D2A45076   0.436   3.542   6.750
 7857POPC   C3A45077   0.409   3.497   7.050
 7857POPC   C4A45078   0.403   3.550   7.350
 7857POPC   C1B45079   0.603   3.401   6.450
 7857POPC   C2B45080   0.636   3.354   6.750
 7857POPC   C3B45081   0.676   3.414   7.050
 7857POPC   C4B45082   0.672   3.424   7.350
 7858POPC   NC345083   5.111  15.221   5.550
 7858POPC   PO445084   5.125  15.163   5.850
 7858POPC   GL145085   5.113  15.182   6.150
 7858POPC   GL245086   5.010  15.288   6.150
 7858POPC   C1A45087   5.070  15.136   6.450
 7858POPC   D2A45088   5.054  15.208   6.750
 7858POPC   C3A45089   5.058  15.194   7.050
 7858POPC   C4A45090   5.095  15.202   7.350
 7858POPC   C1B45091   4.869  15.328   6.450
 7858POPC   C2B45092   4.872  15.340   6.750
 7858POPC   C3B45093   4.843  15.335   7.050
 7858POPC   C4B45094   4.866  15.318   7.350
 7859POPC   NC345095  41.544   7.403   5.550
 7859POPC   PO445096  41.584   7.389   5.850
 7859POPC   GL145097  41.568   7.423   6.150
 7859POPC   GL245098  41.454   7.483   6.150
 7859POPC   C1A45099  41.547   7.459   6.450
 7859POPC   D2A45100  41.554   7.406   6.750
 7859POPC   C3A45101  41.604   7.414   7.050
 7859POPC   C4A45102  41.564   7.434   7.350
 7859POPC   C1B45103  41.407   7.596   6.450
 7859POPC   C2B45104  41.404   7.621   6.750
 7859POPC   C3B45105  41.450   7.610   7.050
 7859POPC   C4B45106  41.481   7.600   7.350
 7860POPC   NC345107  33.036  38.417   5.550
 7860POPC   PO445108  33.006  38.436   5.850
 7860POPC   GL145109  33.048  38.420   6.150
 7860POPC   GL245110  33.076  38.557   6.150
 7860POPC   C1A45111  33.027  38.479   6.450
 7860POPC   D2A45112  33.031  38.481   6.750
 7860POPC   C3A45113  33.002  38.481   7.050
 7860POPC   C4A45114  32.977  38.409   7.350
 7860POPC   C1B45115  33.215  38.583   6.450
 7860POPC   C2B45116  33.222  38.671   6.750
 7860POPC   C3B45117  33.249  38.602   7.050
 7860POPC   C4B45118  33.174  38.603   7.350
 7861POPC   NC345119  23.723  18.284   5.550
 7861POPC   PO445120  23.683  18.273   5.850
 7861POPC   GL145121  23.761  18.283   6.150
 7861POPC   GL245122  23.742  18.155   6.150
 7861POPC   C1A45123  23.722  18.255   6.450
 7861POPC   D2A45124  23.731  18.247   6.750
 7861POPC   C3A45125  23.745  18.252   7.050
 7861POPC   C4A45126  23.703  18.270   7.350
 7861POPC   C1B45127  23.723  18.034   6.450
 7861POPC   C2B45128  23.667  18.039   6.750
 7861POPC   C3B45129  23.725  17.998   7.050
 7861POPC   C4B45130  23.647  18.059   7.350
 7862POPC   NC345131   2.809   6.635   5.550
 7862POPC   PO445132   2.720   6.665   5.850
 7862POPC   GL145133   2.720   6.600   6.150
 7862POPC   GL245134   2.728   6.759   6.150
 7862POPC   C1A45135   2.800   6.602   6.450
 7862POPC   D2A45136   2.778   6.605   6.750
 7862POPC   C3A45137   2.723   6.597   7.050
 7862POPC   C4A45138   2.795   6.613   7.350
 7862POPC   C1B45139   2.599   6.873   6.450
 7862POPC   C2B45140   2.679   6.883   6.750
 7862POPC   C3B45141   2.601   6.889   7.050
 7862POPC   C4B45142   2.682   6.845   7.350
 7863POPC   NC345143  44.661  43.850   5.550
 7863POPC   PO445144  44.643  43.847   5.850
 7863POPC   GL145145  44.640  43.924   6.150
 7863POPC   GL245146  44.654  44.025   6.150
 7863POPC   C1A45147  44.638  43.871   6.450
 7863POPC   D2A45148  44.682  43.896   6.750
 7863POPC   C3A45149  44.648  43.926   7.050
 7863POPC   C4A45150  44.653  43.932   7.350
 7863POPC   C1B45151  44.624  44.152   6.450
 7863POPC   C2B45152  44.635  44.108   6.750
 7863POPC   C3B45153  44.601  44.151   7.050
 7863POPC   C4B45154  44.575  44.165   7.350
 7864POPC   NC345155  26.804  22.120   5.550
 7864POPC   PO445156  26.819  22.198   5.850
 7864POPC   GL145157  26.849  22.151   6.150
 7864POPC   GL245158  26.656  22.154   6.150
 7864POPC   C1A45159  26.845  22.131   6.450
 7864POPC   D2A45160  26.781  22.120   6.750
 7864POPC   C3A45161  26.850  22.167   7.050
 7864POPC   C4A45162  26.825  22.208   7.350
 7864POPC   C1B45163  26.574  22.099   6.450
 7864POPC   C2B45164  26.521  22.150   6.750
 7864POPC   C3B45165  26.597  22.178   7.050
 7864POPC   C4B45166  26.561  22.149   7.350
 7865POPC   NC345167   9.765  20.617   5.550
 7865POPC   PO445168   9.791  20.573   5.850
 7865POPC   GL145169   9.728  20.581   6.150
 7865POPC   GL245170   9.752  20.692   6.150
 7865POPC   C1A45171   9.770  20.571   6.450
 7865POPC   D2A45172   9.781  20.576   6.750
 7865POPC   C3A45173   9.722  20.598   7.050
 7865POPC   C4A45174   9.782  20.645   7.350
 7865POPC   C1B45175   9.706  20.857   6.450
 7865POPC   C2B45176   9.726  20.845   6.750
 7865POPC   C3B45177   9.660  20.857   7.050
 7865POPC   C4B45178   9.726  20.903   7.350
 7866POPC   NC345179   6.604   0.440   5.550
 7866POPC   PO445180   6.641   0.485   5.850
 7866POPC   GL145181   6.684   0.480   6.150
 7866POPC   GL245182   6.658   0.521   6.150
 7866POPC   C1A45183   6.693   0.445   6.450
 7866POPC   D2A45184   6.670   0.446   6.750
 7866POPC   C3A45185   6.655   0.417   7.050
 7866POPC   C4A45186   6.661   0.425   7.350
 7866POPC   C1B45187   6.694   0.724   6.450
 7866POPC   C2B45188   6.711   0.686   6.750
 7866POPC   C3B45189   6.736   0.676   7.050
 7866POPC   C4B45190   6.720   0.647   7.350
 7867POPC   NC345191   1.254   1.236   5.550
 7867POPC   PO445192   1.178   1.197   5.850
 7867POPC   GL145193   1.183   1.257   6.150
 7867POPC   GL245194   1.105   1.245   6.150
 7867POPC   C1A45195   1.255   1.242   6.450
 7867POPC   D2A45196   1.190   1.166   6.750
 7867POPC   C3A45197   1.235   1.175   7.050
 7867POPC   C4A45198   1.228   1.183   7.350
 7867POPC   C1B45199   0.980   1.274   6.450
 7867POPC   C2B45200   0.985   1.264   6.750
 7867POPC   C3B45201   0.966   1.201   7.050
 7867POPC   C4B45202   0.982   1.266   7.350
 7868POPC   NC345203  34.603   1.199   5.550
 7868POPC   PO445204  34.532   1.195   5.850
 7868POPC   GL145205  34.592   1.243   6.150
 7868POPC   GL245206  34.572   1.330   6.150
 7868POPC   C1A45207  34.583   1.227   6.450
 7868POPC   D2A45208  34.549   1.199   6.750
 7868POPC   C3A45209  34.558   1.221   7.050
 7868POPC   C4A45210  34.541   1.181   7.350
 7868POPC   C1B45211  34.591   1.414   6.450
 7868POPC   C2B45212  34.563   1.416   6.750
 7868POPC   C3B45213  34.617   1.443   7.050
 7868POPC   C4B45214  34.576   1.424   7.350
 7869POPC   NC345215  44.631  33.780   5.550
 7869POPC   PO445216  44.626  33.843   5.850
 7869POPC   GL145217  44.672  33.755   6.150
 7869POPC   GL245218  44.558  33.831   6.150
 7869POPC   C1A45219  44.670  33.754   6.450
 7869POPC   D2A45220  44.711  33.773   6.750
 7869POPC   C3A45221  44.709  33.813   7.050
 7869POPC   C4A45222  44.637  33.787   7.350
 7869POPC   C1B45223  44.448  33.940   6.450
 7869POPC   C2B45224  44.398  33.961   6.750
 7869POPC   C3B45225  44.469  33.925   7.050
 7869POPC   C4B45226  44.416  33.941   7.350
 7870POPC   NC345227  35.399  22.928   5.550
 7870POPC   PO445228  35.331  22.979   5.850
 7870POPC   GL145229  35.321  22.960   6.150
 7870POPC   GL245230  35.376  23.073   6.150
 7870POPC   C1A45231  35.305  22.986   6.450
 7870POPC   D2A45232  35.368  22.963   6.750
 7870POPC   C3A45233  35.363  22.890   7.050
 7870POPC   C4A45234  35.379  22.907   7.350
 7870POPC   C1B45235  35.428  23.166   6.450
 7870POPC   C2B45236  35.392  23.216   6.750
 7870POPC   C3B45237  35.412  23.140   7.050
 7870POPC   C4B45238  35.460  23.151   7.350
 7871POPC   NC345239  39.996  18.269   5.550
 7871POPC   PO445240  40.043  18.263   5.850
 7871POPC   GL145241  40.003  18.241   6.150
 7871POPC   GL245242  40.150  18.250   6.150
 7871POPC   C1A45243  40.045  18.321   6.450
 7871POPC   D2A45244  39.964  18.299   6.750
 7871POPC   C3A45245  39.961  18.304   7.050
 7871POPC   C4A45246  40.020  18.299   7.350
 7871POPC   C1B45247  40.229  18.232   6.450
 7871POPC   C2B45248  40.264  18.240   6.750
 7871POPC   C3B45249  40.202  18.213   7.050
 7871POPC   C4B45250  40.267  18.217   7.350
 7872POPC   NC345251  34.593   5.824   5.550
 7872POPC   PO445252  34.589   5.834   5.850
 7872POPC   GL145253  34.592   5.905   6.150
 7872POPC   GL245254  34.454   5.946   6.150
 7872POPC   C1A45255  34.592   5.909   6.450
 7872POPC   D2A45256  34.600   5.874   6.750
 7872POPC   C3A45257  34.574   5.822   7.050
 7872POPC   C4A45258  34.592   5.878   7.350
 7872POPC   C1B45259  34.389   5.942   6.450
 7872POPC   C2B45260  34.368   5.953   6.750
 7872POPC   C3B45261  34.366   5.981   7.050
 7872POPC   C4B45262  34.304   5.933   7.350
 7873POPC   NC345263  38.437  28.347   5.550
 7873POPC   PO445264  38.479  28.331   5.850
 7873POPC   GL145265  38.448  28.334   6.150
 7873POPC   GL245266  38.387  28.379   6.150
 7873POPC   C1A45267  38.447  28.384   6.450
 7873POPC   D2A45268  38.504  28.345   6.750
 7873POPC   C3A45269  38.438  28.335   7.050
 7873POPC   C4A45270  38.483  28.322   7.350
 7873POPC   C1B45271  38.190  28.496   6.450
 7873POPC   C2B45272  38.189  28.430   6.750
 7873POPC   C3B45273  38.185  28.502   7.050
 7873POPC   C4B45274  38.238  28.480   7.350
 7874POPC   NC345275  34.535  26.012   5.550
 7874POPC   PO445276  34.588  26.063   5.850
 7874POPC   GL145277  34.537  26.049   6.150
 7874POPC   GL245278  34.488  25.921   6.150
 7874POPC   C1A45279  34.611  26.049   6.450
 7874POPC   D2A45280  34.552  26.039   6.750
 7874POPC   C3A45281  34.572  26.016   7.050
 7874POPC   C4A45282  34.620  25.994   7.350
 7874POPC   C1B45283  34.437  25.871   6.450
 7874POPC   C2B45284  34.360  25.845   6.750
 7874POPC   C3B45285  34.456  25.833   7.050
 7874POPC   C4B45286  34.413  25.856   7.350
 7875POPC   NC345287   3.568   0.431   5.550
 7875POPC   PO445288   3.507   0.392   5.850
 7875POPC   GL145289   3.526   0.446   6.150
 7875POPC   GL245290   3.623   0.370   6.150
 7875POPC   C1A45291   3.501   0.472   6.450
 7875POPC   D2A45292   3.514   0.457   6.750
 7875POPC   C3A45293   3.540   0.465   7.050
 7875POPC   C4A45294   3.545   0.477   7.350
 7875POPC   C1B45295   3.660   0.258   6.450
 7875POPC   C2B45296   3.630   0.174   6.750
 7875POPC   C3B45297   3.625   0.215   7.050
 7875POPC   C4B45298   3.638   0.223   7.350
 7876POPC   NC345299  44.647  25.302   5.550
 7876POPC   PO445300  44.657  25.257   5.850
 7876POPC   GL145301  44.656  25.294   6.150
 7876POPC   GL245302  44.574  25.179   6.150
 7876POPC   C1A45303  44.663  25.315   6.450
 7876POPC   D2A45304  44.701  25.254   6.750
 7876POPC   C3A45305  44.706  25.237   7.050
 7876POPC   C4A45306  44.657  25.241   7.350
 7876POPC   C1B45307  44.549  25.029   6.450
 7876POPC   C2B45308  44.617  25.067   6.750
 7876POPC   C3B45309  44.606  25.025   7.050
 7876POPC   C4B45310  44.569  25.027   7.350
 7877POPC   NC345311  33.761   2.726   5.550
 7877POPC   PO445312  33.776   2.775   5.850
 7877POPC   GL145313  33.753   2.793   6.150
 7877POPC   GL245314  33.911   2.643   6.150
 7877POPC   C1A45315  33.773   2.770   6.450
 7877POPC   D2A45316  33.832   2.800   6.750
 7877POPC   C3A45317  33.777   2.734   7.050
 7877POPC   C4A45318  33.780   2.783   7.350
 7877POPC   C1B45319  34.007   2.547   6.450
 7877POPC   C2B45320  33.952   2.619   6.750
 7877POPC   C3B45321  34.017   2.563   7.050
 7877POPC   C4B45322  34.008   2.555   7.350
 7878POPC   NC345323   3.586  28.390   5.550
 7878POPC   PO445324   3.538  28.407   5.850
 7878POPC   GL145325   3.567  28.410   6.150
 7878POPC   GL245326   3.377  28.317   6.150
 7878POPC   C1A45327   3.587  28.418   6.450
 7878POPC   D2A45328   3.509  28.382   6.750
 7878POPC   C3A45329   3.498  28.365   7.050
 7878POPC   C4A45330   3.576  28.392   7.350
 7878POPC   C1B45331   3.327  28.315   6.450
 7878POPC   C2B45332   3.305  28.341   6.750
 7878POPC   C3B45333   3.297  28.323   7.050
 7878POPC   C4B45334   3.309  28.303   7.350
 7879POPC   NC345335   9.000  32.279   5.550
 7879POPC   PO445336   8.987  32.201   5.850
 7879POPC   GL145337   8.974  32.256   6.150
 7879POPC   GL245338   9.079  32.128   6.150
 7879POPC   C1A45339   8.927  32.255   6.450
 7879POPC   D2A45340   8.927  32.261   6.750
 7879POPC   C3A45341   8.943  32.235   7.050
 7879POPC   C4A45342   8.962  32.249   7.350
 7879POPC   C1B45343   9.101  31.999   6.450
 7879POPC   C2B45344   9.073  31.999   6.750
 7879POPC   C3B45345   9.139  32.019   7.050
 7879POPC   C4B45346   9.063  32.009   7.350
 7880POPC   NC345347   3.530  36.128   5.550
 7880POPC   PO445348   3.496  36.135   5.850
 7880POPC   GL145349   3.540  36.105   6.150
 7880POPC   GL245350   3.700  36.089   6.150
 7880POPC   C1A45351   3.584  36.086   6.450
 7880POPC   D2A45352   3.526  36.080   6.750
 7880POPC   C3A45353   3.517  36.119   7.050
 7880POPC   C4A45354   3.512  36.147   7.350
 7880POPC   C1B45355   3.809  36.030   6.450
 7880POPC   C2B45356   3.789  35.963   6.750
 7880POPC   C3B45357   3.745  36.011   7.050
 7880POPC   C4B45358   3.762  36.026   7.350
 7881POPC   NC345359  32.978   8.237   5.550
 7881POPC   PO445360  33.005   8.169   5.850
 7881POPC   GL145361  33.040   8.231   6.150
 7881POPC   GL245362  32.916   8.255   6.150
 7881POPC   C1A45363  33.035   8.158   6.450
 7881POPC   D2A45364  33.043   8.226   6.750
 7881POPC   C3A45365  33.066   8.185   7.050
 7881POPC   C4A45366  33.061   8.192   7.350
 7881POPC   C1B45367  32.755   8.242   6.450
 7881POPC   C2B45368  32.823   8.291   6.750
 7881POPC   C3B45369  32.836   8.265   7.050
 7881POPC   C4B45370  32.743   8.244   7.350
 7882POPC   NC345371   7.445   5.887   5.550
 7882POPC   PO445372   7.394   5.824   5.850
 7882POPC   GL145373   7.409   5.888   6.150
 7882POPC   GL245374   7.541   5.760   6.150
 7882POPC   C1A45375   7.423   5.872   6.450
 7882POPC   D2A45376   7.445   5.907   6.750
 7882POPC   C3A45377   7.422   5.883   7.050
 7882POPC   C4A45378   7.452   5.832   7.350
 7882POPC   C1B45379   7.641   5.717   6.450
 7882POPC   C2B45380   7.642   5.734   6.750
 7882POPC   C3B45381   7.576   5.758   7.050
 7882POPC   C4B45382   7.638   5.766   7.350
 7883POPC   NC345383  26.784  17.552   5.550
 7883POPC   PO445384  26.776  17.499   5.850
 7883POPC   GL145385  26.785  17.513   6.150
 7883POPC   GL245386  26.821  17.648   6.150
 7883POPC   C1A45387  26.824  17.536   6.450
 7883POPC   D2A45388  26.824  17.502   6.750
 7883POPC   C3A45389  26.782  17.484   7.050
 7883POPC   C4A45390  26.849  17.557   7.350
 7883POPC   C1B45391  26.887  17.743   6.450
 7883POPC   C2B45392  26.879  17.782   6.750
 7883POPC   C3B45393  26.896  17.774   7.050
 7883POPC   C4B45394  26.915  17.739   7.350
 7884POPC   NC345395   2.748   8.148   5.550
 7884POPC   PO445396   2.724   8.154   5.850
 7884POPC   GL145397   2.722   8.240   6.150
 7884POPC   GL245398   2.875   8.099   6.150
 7884POPC   C1A45399   2.726   8.155   6.450
 7884POPC   D2A45400   2.794   8.211   6.750
 7884POPC   C3A45401   2.786   8.215   7.050
 7884POPC   C4A45402   2.737   8.197   7.350
 7884POPC   C1B45403   2.932   8.043   6.450
 7884POPC   C2B45404   3.014   8.078   6.750
 7884POPC   C3B45405   2.966   8.021   7.050
 7884POPC   C4B45406   2.996   8.012   7.350
 7885POPC   NC345407  27.641  26.867   5.550
 7885POPC   PO445408  27.555  26.769   5.850
 7885POPC   GL145409  27.555  26.812   6.150
 7885POPC   GL245410  27.506  26.704   6.150
 7885POPC   C1A45411  27.555  26.815   6.450
 7885POPC   D2A45412  27.566  26.816   6.750
 7885POPC   C3A45413  27.575  26.833   7.050
 7885POPC   C4A45414  27.561  26.780   7.350
 7885POPC   C1B45415  27.388  26.619   6.450
 7885POPC   C2B45416  27.423  26.686   6.750
 7885POPC   C3B45417  27.429  26.621   7.050
 7885POPC   C4B45418  27.413  26.680   7.350
 7886POPC   NC345419  25.251  32.283   5.550
 7886POPC   PO445420  25.228  32.295   5.850
 7886POPC   GL145421  25.313  32.280   6.150
 7886POPC   GL245422  25.289  32.313   6.150
 7886POPC   C1A45423  25.246  32.219   6.450
 7886POPC   D2A45424  25.217  32.298   6.750
 7886POPC   C3A45425  25.260  32.252   7.050
 7886POPC   C4A45426  25.248  32.271   7.350
 7886POPC   C1B45427  25.354  32.466   6.450
 7886POPC   C2B45428  25.440  32.464   6.750
 7886POPC   C3B45429  25.417  32.424   7.050
 7886POPC   C4B45430  25.401  32.501   7.350
 7887POPC   NC345431   8.950  19.086   5.550
 7887POPC   PO445432   8.989  19.022   5.850
 7887POPC   GL145433   8.937  19.070   6.150
 7887POPC   GL245434   8.849  19.133   6.150
 7887POPC   C1A45435   8.941  19.094   6.450
 7887POPC   D2A45436   8.985  19.062   6.750
 7887POPC   C3A45437   9.014  19.059   7.050
 7887POPC   C4A45438   9.005  19.080   7.350
 7887POPC   C1B45439   8.769  19.152   6.450
 7887POPC   C2B45440   8.682  19.145   6.750
 7887POPC   C3B45441   8.774  19.108   7.050
 7887POPC   C4B45442   8.771  19.145   7.350
 7888POPC   NC345443  36.857  27.593   5.550
 7888POPC   PO445444  36.917  27.606   5.850
 7888POPC   GL145445  36.861  27.610   6.150
 7888POPC   GL245446  36.852  27.432   6.150
 7888POPC   C1A45447  36.889  27.599   6.450
 7888POPC   D2A45448  36.899  27.568   6.750
 7888POPC   C3A45449  36.864  27.630   7.050
 7888POPC   C4A45450  36.884  27.614   7.350
 7888POPC   C1B45451  36.892  27.349   6.450
 7888POPC   C2B45452  36.934  27.379   6.750
 7888POPC   C3B45453  36.915  27.394   7.050
 7888POPC   C4B45454  36.876  27.350   7.350
 7889POPC   NC345455  14.429  34.541   5.550
 7889POPC   PO445456  14.444  34.566   5.850
 7889POPC   GL145457  14.365  34.580   6.150
 7889POPC   GL245458  14.506  34.501   6.150
 7889POPC   C1A45459  14.380  34.612   6.450
 7889POPC   D2A45460  14.412  34.594   6.750
 7889POPC   C3A45461  14.422  34.565   7.050
 7889POPC   C4A45462  14.434  34.605   7.350
 7889POPC   C1B45463  14.650  34.495   6.450
 7889POPC   C2B45464  14.597  34.505   6.750
 7889POPC   C3B45465  14.672  34.480   7.050
 7889POPC   C4B45466  14.588  34.496   7.350
 7890POPC   NC345467  21.350  43.103   5.550
 7890POPC   PO445468  21.348  43.102   5.850
 7890POPC   GL145469  21.372  43.100   6.150
 7890POPC   GL245470  21.418  43.184   6.150
 7890POPC   C1A45471  21.382  43.122   6.450
 7890POPC   D2A45472  21.341  43.136   6.750
 7890POPC   C3A45473  21.419  43.110   7.050
 7890POPC   C4A45474  21.350  43.079   7.350
 7890POPC   C1B45475  21.444  43.299   6.450
 7890POPC   C2B45476  21.507  43.292   6.750
 7890POPC   C3B45477  21.503  43.291   7.050
 7890POPC   C4B45478  21.468  43.295   7.350
 7891POPC   NC345479   5.088  26.084   5.550
 7891POPC   PO445480   5.115  26.076   5.850
 7891POPC   GL145481   5.065  25.999   6.150
 7891POPC   GL245482   4.964  26.104   6.150
 7891POPC   C1A45483   5.085  26.013   6.450
 7891POPC   D2A45484   5.065  26.008   6.750
 7891POPC   C3A45485   5.110  25.992   7.050
 7891POPC   C4A45486   5.101  26.049   7.350
 7891POPC   C1B45487   4.815  26.063   6.450
 7891POPC   C2B45488   4.884  26.141   6.750
 7891POPC   C3B45489   4.814  26.146   7.050
 7891POPC   C4B45490   4.806  26.142   7.350
 7892POPC   NC345491  14.435  29.932   5.550
 7892POPC   PO445492  14.391  29.966   5.850
 7892POPC   GL145493  14.400  29.872   6.150
 7892POPC   GL245494  14.482  29.999   6.150
 7892POPC   C1A45495  14.376  29.943   6.450
 7892POPC   D2A45496  14.450  29.943   6.750
 7892POPC   C3A45497  14.413  29.883   7.050
 7892POPC   C4A45498  14.392  29.955   7.350
 7892POPC   C1B45499  14.645  29.979   6.450
 7892POPC   C2B45500  14.657  30.020   6.750
 7892POPC   C3B45501  14.589  30.043   7.050
 7892POPC   C4B45502  14.653  30.003   7.350
 7893POPC   NC345503   2.743   1.208   5.550
 7893POPC   PO445504   2.743   1.238   5.850
 7893POPC   GL145505   2.805   1.259   6.150
 7893POPC   GL245506   2.783   1.314   6.150
 7893POPC   C1A45507   2.792   1.177   6.450
 7893POPC   D2A45508   2.777   1.169   6.750
 7893POPC   C3A45509   2.768   1.172   7.050
 7893POPC   C4A45510   2.795   1.186   7.350
 7893POPC   C1B45511   2.914   1.417   6.450
 7893POPC   C2B45512   2.913   1.399   6.750
 7893POPC   C3B45513   2.907   1.484   7.050
 7893POPC   C4B45514   2.868   1.418   7.350
 7894POPC   NC345515   8.972  26.790   5.550
 7894POPC   PO445516   9.021  26.812   5.850
 7894POPC   GL145517   9.019  26.818   6.150
 7894POPC   GL245518   9.051  26.746   6.150
 7894POPC   C1A45519   8.963  26.853   6.450
 7894POPC   D2A45520   8.969  26.823   6.750
 7894POPC   C3A45521   8.955  26.837   7.050
 7894POPC   C4A45522   8.998  26.841   7.350
 7894POPC   C1B45523   9.206  26.794   6.450
 7894POPC   C2B45524   9.178  26.711   6.750
 7894POPC   C3B45525   9.234  26.708   7.050
 7894POPC   C4B45526   9.241  26.716   7.350
 7895POPC   NC345527  15.971  35.372   5.550
 7895POPC   PO445528  15.920  35.348   5.850
 7895POPC   GL145529  15.954  35.398   6.150
 7895POPC   GL245530  16.063  35.268   6.150
 7895POPC   C1A45531  15.913  35.376   6.450
 7895POPC   D2A45532  15.967  35.323   6.750
 7895POPC   C3A45533  15.932  35.312   7.050
 7895POPC   C4A45534  15.987  35.340   7.350
 7895POPC   C1B45535  16.203  35.262   6.450
 7895POPC   C2B45536  16.207  35.255   6.750
 7895POPC   C3B45537  16.159  35.308   7.050
 7895POPC   C4B45538  16.213  35.305   7.350
 7896POPC   NC345539  16.004  44.690   5.550
 7896POPC   PO445540  15.916  44.660   5.850
 7896POPC   GL145541  15.964  44.696   6.150
 7896POPC   GL245542  15.876  44.776   6.150
 7896POPC   C1A45543  15.906  44.658   6.450
 7896POPC   D2A45544  16.002  44.634   6.750
 7896POPC   C3A45545  15.947  44.702   7.050
 7896POPC   C4A45546  15.956  44.624   7.350
 7896POPC   C1B45547  15.804  44.911   6.450
 7896POPC   C2B45548  15.828  44.924   6.750
 7896POPC   C3B45549  15.792  44.860   7.050
 7896POPC   C4B45550  15.846  44.884   7.350
 7897POPC   NC345551  29.878  10.478   5.550
 7897POPC   PO445552  29.963  10.548   5.850
 7897POPC   GL145553  29.949  10.475   6.150
 7897POPC   GL245554  30.027  10.638   6.150
 7897POPC   C1A45555  29.905  10.534   6.450
 7897POPC   D2A45556  29.933  10.496   6.750
 7897POPC   C3A45557  29.936  10.475   7.050
 7897POPC   C4A45558  29.936  10.565   7.350
 7897POPC   C1B45559  30.134  10.732   6.450
 7897POPC   C2B45560  30.130  10.714   6.750
 7897POPC   C3B45561  30.110  10.681   7.050
 7897POPC   C4B45562  30.067  10.635   7.350
 7898POPC   NC345563  29.938   7.408   5.550
 7898POPC   PO445564  29.882   7.409   5.850
 7898POPC   GL145565  29.912   7.391   6.150
 7898POPC   GL245566  30.080   7.406   6.150
 7898POPC   C1A45567  29.913   7.389   6.450
 7898POPC   D2A45568  29.900   7.414   6.750
 7898POPC   C3A45569  29.910   7.454   7.050
 7898POPC   C4A45570  29.937   7.377   7.350
 7898POPC   C1B45571  30.163   7.426   6.450
 7898POPC   C2B45572  30.140   7.383   6.750
 7898POPC   C3B45573  30.158   7.395   7.050
 7898POPC   C4B45574  30.150   7.429   7.350
 7899POPC   NC345575  44.647  35.314   5.550
 7899POPC   PO445576  44.648  35.370   5.850
 7899POPC   GL145577  44.647  35.399   6.150
 7899POPC   GL245578  44.742  35.428   6.150
 7899POPC   C1A45579  44.698  35.357   6.450
 7899POPC   D2A45580  44.681  35.369   6.750
 7899POPC   C3A45581  44.670  35.385   7.050
 7899POPC   C4A45582  44.621  35.337   7.350
 7899POPC   C1B45583  44.744  35.541   6.450
 7899POPC   C2B45584  44.746  35.614   6.750
 7899POPC   C3B45585  44.777  35.630   7.050
 7899POPC   C4B45586  44.744  35.571   7.350
 7900POPC   NC345587   1.245  41.608   5.550
 7900POPC   PO445588   1.215  41.531   5.850
 7900POPC   GL145589   1.234  41.592   6.150
 7900POPC   GL245590   1.094  41.662   6.150
 7900POPC   C1A45591   1.235  41.597   6.450
 7900POPC   D2A45592   1.261  41.526   6.750
 7900POPC   C3A45593   1.227  41.518   7.050
 7900POPC   C4A45594   1.201  41.525   7.350
 7900POPC   C1B45595   1.005  41.744   6.450
 7900POPC   C2B45596   1.006  41.731   6.750
 7900POPC   C3B45597   1.028  41.734   7.050
 7900POPC   C4B45598   0.984  41.687   7.350
 7901POPC   NC345599   2.742  11.320   5.550
 7901POPC   PO445600   2.805  11.292   5.850
 7901POPC   GL145601   2.807  11.300   6.150
 7901POPC   GL245602   2.644  11.369   6.150
 7901POPC   C1A45603   2.729  11.252   6.450
 7901POPC   D2A45604   2.733  11.340   6.750
 7901POPC   C3A45605   2.811  11.321   7.050
 7901POPC   C4A45606   2.760  11.324   7.350
 7901POPC   C1B45607   2.525  11.371   6.450
 7901POPC   C2B45608   2.519  11.337   6.750
 7901POPC   C3B45609   2.568  11.359   7.050
 7901POPC   C4B45610   2.566  11.381   7.350
 7902POPC   NC345611  38.463  21.362   5.550
 7902POPC   PO445612  38.488  21.358   5.850
 7902POPC   GL145613  38.444  21.436   6.150
 7902POPC   GL245614  38.389  21.480   6.150
 7902POPC   C1A45615  38.451  21.346   6.450
 7902POPC   D2A45616  38.425  21.338   6.750
 7902POPC   C3A45617  38.468  21.390   7.050
 7902POPC   C4A45618  38.494  21.386   7.350
 7902POPC   C1B45619  38.185  21.500   6.450
 7902POPC   C2B45620  38.251  21.495   6.750
 7902POPC   C3B45621  38.197  21.520   7.050
 7902POPC   C4B45622  38.277  21.489   7.350
 7903POPC   NC345623  28.349  42.318   5.550
 7903POPC   PO445624  28.368  42.367   5.850
 7903POPC   GL145625  28.388  42.319   6.150
 7903POPC   GL245626  28.268  42.314   6.150
 7903POPC   C1A45627  28.368  42.344   6.450
 7903POPC   D2A45628  28.414  42.359   6.750
 7903POPC   C3A45629  28.355  42.303   7.050
 7903POPC   C4A45630  28.337  42.377   7.350
 7903POPC   C1B45631  28.162  42.259   6.450
 7903POPC   C2B45632  28.108  42.310   6.750
 7903POPC   C3B45633  28.119  42.221   7.050
 7903POPC   C4B45634  28.159  42.285   7.350
 7904POPC   NC345635  30.718  22.945   5.550
 7904POPC   PO445636  30.723  22.900   5.850
 7904POPC   GL145637  30.726  22.939   6.150
 7904POPC   GL245638  30.773  22.955   6.150
 7904POPC   C1A45639  30.742  22.898   6.450
 7904POPC   D2A45640  30.651  22.984   6.750
 7904POPC   C3A45641  30.715  22.923   7.050
 7904POPC   C4A45642  30.725  22.973   7.350
 7904POPC   C1B45643  30.900  22.916   6.450
 7904POPC   C2B45644  30.949  22.917   6.750
 7904POPC   C3B45645  30.912  22.914   7.050
 7904POPC   C4B45646  30.940  22.864   7.350
 7905POPC   NC345647  16.740   8.967   5.550
 7905POPC   PO445648  16.754   8.938   5.850
 7905POPC   GL145649  16.682   8.989   6.150
 7905POPC   GL245650  16.774   9.043   6.150
 7905POPC   C1A45651  16.738   8.938   6.450
 7905POPC   D2A45652  16.735   8.988   6.750
 7905POPC   C3A45653  16.752   8.934   7.050
 7905POPC   C4A45654  16.780   8.952   7.350
 7905POPC   C1B45655  16.841   9.159   6.450
 7905POPC   C2B45656  16.782   9.160   6.750
 7905POPC   C3B45657  16.772   9.219   7.050
 7905POPC   C4B45658  16.854   9.161   7.350
 7906POPC   NC345659  36.112  32.995   5.550
 7906POPC   PO445660  36.127  33.040   5.850
 7906POPC   GL145661  36.109  33.042   6.150
 7906POPC   GL245662  36.240  33.028   6.150
 7906POPC   C1A45663  36.103  32.983   6.450
 7906POPC   D2A45664  36.082  32.982   6.750
 7906POPC   C3A45665  36.082  33.024   7.050
 7906POPC   C4A45666  36.078  33.017   7.350
 7906POPC   C1B45667  36.373  33.093   6.450
 7906POPC   C2B45668  36.342  33.066   6.750
 7906POPC   C3B45669  36.330  33.133   7.050
 7906POPC   C4B45670  36.344  33.092   7.350
 7907POPC   NC345671  11.281  35.369   5.550
 7907POPC   PO445672  11.280  35.388   5.850
 7907POPC   GL145673  11.288  35.365   6.150
 7907POPC   GL245674  11.338  35.217   6.150
 7907POPC   C1A45675  11.253  35.315   6.450
 7907POPC   D2A45676  11.309  35.352   6.750
 7907POPC   C3A45677  11.321  35.306   7.050
 7907POPC   C4A45678  11.322  35.317   7.350
 7907POPC   C1B45679  11.474  35.101   6.450
 7907POPC   C2B45680  11.478  35.122   6.750
 7907POPC   C3B45681  11.443  35.153   7.050
 7907POPC   C4B45682  11.447  35.136   7.350
 7908POPC   NC345683  33.811   6.667   5.550
 7908POPC   PO445684  33.816   6.668   5.850
 7908POPC   GL145685  33.752   6.614   6.150
 7908POPC   GL245686  33.846   6.551   6.150
 7908POPC   C1A45687  33.772   6.628   6.450
 7908POPC   D2A45688  33.780   6.602   6.750
 7908POPC   C3A45689  33.832   6.674   7.050
 7908POPC   C4A45690  33.769   6.641   7.350
 7908POPC   C1B45691  33.939   6.396   6.450
 7908POPC   C2B45692  33.885   6.440   6.750
 7908POPC   C3B45693  33.896   6.400   7.050
 7908POPC   C4B45694  33.905   6.411   7.350
 7909POPC   NC345695  27.624  39.996   5.550
 7909POPC   PO445696  27.639  40.011   5.850
 7909POPC   GL145697  27.584  40.040   6.150
 7909POPC   GL245698  27.734  39.908   6.150
 7909POPC   C1A45699  27.556  40.008   6.450
 7909POPC   D2A45700  27.599  40.007   6.750
 7909POPC   C3A45701  27.564  39.984   7.050
 7909POPC   C4A45702  27.608  40.021   7.350
 7909POPC   C1B45703  27.756  39.807   6.450
 7909POPC   C2B45704  27.744  39.866   6.750
 7909POPC   C3B45705  27.830  39.876   7.050
 7909POPC   C4B45706  27.824  39.804   7.350
 7910POPC   NC345707  30.734  29.124   5.550
 7910POPC   PO445708  30.647  29.157   5.850
 7910POPC   GL145709  30.664  29.109   6.150
 7910POPC   GL245710  30.569  29.127   6.150
 7910POPC   C1A45711  30.699  29.144   6.450
 7910POPC   D2A45712  30.736  29.187   6.750
 7910POPC   C3A45713  30.679  29.187   7.050
 7910POPC   C4A45714  30.696  29.184   7.350
 7910POPC   C1B45715  30.454  29.202   6.450
 7910POPC   C2B45716  30.434  29.212   6.750
 7910POPC   C3B45717  30.409  29.135   7.050
 7910POPC   C4B45718  30.486  29.136   7.350
 7911POPC   NC345719  33.810  30.683   5.550
 7911POPC   PO445720  33.799  30.653   5.850
 7911POPC   GL145721  33.813  30.671   6.150
 7911POPC   GL245722  33.735  30.807   6.150
 7911POPC   C1A45723  33.837  30.736   6.450
 7911POPC   D2A45724  33.790  30.656   6.750
 7911POPC   C3A45725  33.824  30.697   7.050
 7911POPC   C4A45726  33.843  30.707   7.350
 7911POPC   C1B45727  33.770  30.982   6.450
 7911POPC   C2B45728  33.788  30.907   6.750
 7911POPC   C3B45729  33.746  30.977   7.050
 7911POPC   C4B45730  33.750  30.920   7.350
 7912POPC   NC345731  19.798  11.252   5.550
 7912POPC   PO445732  19.805  11.331   5.850
 7912POPC   GL145733  19.859  11.310   6.150
 7912POPC   GL245734  19.771  11.447   6.150
 7912POPC   C1A45735  19.796  11.341   6.450
 7912POPC   D2A45736  19.883  11.297   6.750
 7912POPC   C3A45737  19.803  11.265   7.050
 7912POPC   C4A45738  19.787  11.279   7.350
 7912POPC   C1B45739  19.756  11.526   6.450
 7912POPC   C2B45740  19.739  11.548   6.750
 7912POPC   C3B45741  19.792  11.501   7.050
 7912POPC   C4B45742  19.767  11.546   7.350
 7913POPC   NC345743   5.055  31.487   5.550
 7913POPC   PO445744   5.055  31.447   5.850
 7913POPC   GL145745   5.141  31.454   6.150
 7913POPC   GL245746   5.069  31.639   6.150
 7913POPC   C1A45747   5.074  31.441   6.450
 7913POPC   D2A45748   5.102  31.496   6.750
 7913POPC   C3A45749   5.131  31.521   7.050
 7913POPC   C4A45750   5.046  31.438   7.350
 7913POPC   C1B45751   5.008  31.724   6.450
 7913POPC   C2B45752   4.967  31.664   6.750
 7913POPC   C3B45753   5.031  31.736   7.050
 7913POPC   C4B45754   5.037  31.719   7.350
 7914POPC   NC345755  25.993  42.367   5.550
 7914POPC   PO445756  26.060  42.358   5.850
 7914POPC   GL145757  26.019  42.349   6.150
 7914POPC   GL245758  25.913  42.333   6.150
 7914POPC   C1A45759  26.020  42.320   6.450
 7914POPC   D2A45760  26.043  42.371   6.750
 7914POPC   C3A45761  26.014  42.317   7.050
 7914POPC   C4A45762  26.063  42.341   7.350
 7914POPC   C1B45763  25.828  42.324   6.450
 7914POPC   C2B45764  25.798  42.287   6.750
 7914POPC   C3B45765  25.825  42.335   7.050
 7914POPC   C4B45766  25.769  42.331   7.350
 7915POPC   NC345767   4.300  19.071   5.550
 7915POPC   PO445768   4.333  19.057   5.850
 7915POPC   GL145769   4.281  19.082   6.150
 7915POPC   GL245770   4.449  19.094   6.150
 7915POPC   C1A45771   4.319  19.092   6.450
 7915POPC   D2A45772   4.273  19.052   6.750
 7915POPC   C3A45773   4.327  19.057   7.050
 7915POPC   C4A45774   4.341  19.097   7.350
 7915POPC   C1B45775   4.549  19.247   6.450
 7915POPC   C2B45776   4.466  19.248   6.750
 7915POPC   C3B45777   4.537  19.251   7.050
 7915POPC   C4B45778   4.515  19.231   7.350
 7916POPC   NC345779   0.462  22.121   5.550
 7916POPC   PO445780   0.458  22.132   5.850
 7916POPC   GL145781   0.471  22.187   6.150
 7916POPC   GL245782   0.420  22.238   6.150
 7916POPC   C1A45783   0.450  22.143   6.450
 7916POPC   D2A45784   0.438  22.161   6.750
 7916POPC   C3A45785   0.439  22.189   7.050
 7916POPC   C4A45786   0.396  22.200   7.350
 7916POPC   C1B45787   0.424  22.373   6.450
 7916POPC   C2B45788   0.444  22.404   6.750
 7916POPC   C3B45789   0.429  22.375   7.050
 7916POPC   C4B45790   0.448  22.429   7.350
 7917POPC   NC345791  39.183   2.777   5.550
 7917POPC   PO445792  39.192   2.780   5.850
 7917POPC   GL145793  39.191   2.784   6.150
 7917POPC   GL245794  39.191   2.616   6.150
 7917POPC   C1A45795  39.183   2.792   6.450
 7917POPC   D2A45796  39.276   2.764   6.750
 7917POPC   C3A45797  39.223   2.767   7.050
 7917POPC   C4A45798  39.209   2.776   7.350
 7917POPC   C1B45799  39.169   2.558   6.450
 7917POPC   C2B45800  39.156   2.515   6.750
 7917POPC   C3B45801  39.180   2.564   7.050
 7917POPC   C4B45802  39.174   2.538   7.350
 7918POPC   NC345803  29.930  38.478   5.550
 7918POPC   PO445804  29.890  38.484   5.850
 7918POPC   GL145805  29.891  38.478   6.150
 7918POPC   GL245806  29.890  38.554   6.150
 7918POPC   C1A45807  29.910  38.498   6.450
 7918POPC   D2A45808  29.963  38.504   6.750
 7918POPC   C3A45809  29.911  38.493   7.050
 7918POPC   C4A45810  29.898  38.439   7.350
 7918POPC   C1B45811  29.784  38.688   6.450
 7918POPC   C2B45812  29.785  38.647   6.750
 7918POPC   C3B45813  29.745  38.633   7.050
 7918POPC   C4B45814  29.740  38.665   7.350
 7919POPC   NC345815  33.845  31.484   5.550
 7919POPC   PO445816  33.845  31.450   5.850
 7919POPC   GL145817  33.774  31.442   6.150
 7919POPC   GL245818  33.790  31.318   6.150
 7919POPC   C1A45819  33.800  31.503   6.450
 7919POPC   D2A45820  33.775  31.484   6.750
 7919POPC   C3A45821  33.789  31.503   7.050
 7919POPC   C4A45822  33.818  31.502   7.350
 7919POPC   C1B45823  33.846  31.223   6.450
 7919POPC   C2B45824  33.817  31.274   6.750
 7919POPC   C3B45825  33.844  31.224   7.050
 7919POPC   C4B45826  33.839  31.214   7.350
 7920POPC   NC345827  26.030   5.863   5.550
 7920POPC   PO445828  26.026   5.839   5.850
 7920POPC   GL145829  26.078   5.885   6.150
 7920POPC   GL245830  26.109   5.763   6.150
 7920POPC   C1A45831  26.050   5.839   6.450
 7920POPC   D2A45832  26.027   5.824   6.750
 7920POPC   C3A45833  25.998   5.862   7.050
 7920POPC   C4A45834  26.012   5.871   7.350
 7920POPC   C1B45835  26.157   5.681   6.450
 7920POPC   C2B45836  26.139   5.670   6.750
 7920POPC   C3B45837  26.135   5.627   7.050
 7920POPC   C4B45838  26.206   5.613   7.350
 7921POPC   NC345839  10.534  43.913   5.550
 7921POPC   PO445840  10.568  43.862   5.850
 7921POPC   GL145841  10.506  43.853   6.150
 7921POPC   GL245842  10.371  43.895   6.150
 7921POPC   C1A45843  10.569  43.840   6.450
 7921POPC   D2A45844  10.571  43.861   6.750
 7921POPC   C3A45845  10.554  43.867   7.050
 7921POPC   C4A45846  10.519  43.846   7.350
 7921POPC   C1B45847  10.315  44.034   6.450
 7921POPC   C2B45848  10.255  43.937   6.750
 7921POPC   C3B45849  10.298  44.015   7.050
 7921POPC   C4B45850  10.275  44.033   7.350
 7922POPC   NC345851  41.516  14.425   5.550
 7922POPC   PO445852  41.524  14.437   5.850
 7922POPC   GL145853  41.527  14.446   6.150
 7922POPC   GL245854  41.421  14.381   6.150
 7922POPC   C1A45855  41.581  14.440   6.450
 7922POPC   D2A45856  41.583  14.364   6.750
 7922POPC   C3A45857  41.551  14.419   7.050
 7922POPC   C4A45858  41.599  14.405   7.350
 7922POPC   C1B45859  41.285  14.419   6.450
 7922POPC   C2B45860  41.317  14.375   6.750
 7922POPC   C3B45861  41.333  14.354   7.050
 7922POPC   C4B45862  41.302  14.427   7.350
 7923POPC   NC345863   5.100  44.703   5.550
 7923POPC   PO445864   5.116  44.677   5.850
 7923POPC   GL145865   5.140  44.646   6.150
 7923POPC   GL245866   5.017  44.697   6.150
 7923POPC   C1A45867   5.081  44.698   6.450
 7923POPC   D2A45868   5.099  44.632   6.750
 7923POPC   C3A45869   5.104  44.631   7.050
 7923POPC   C4A45870   5.117  44.634   7.350
 7923POPC   C1B45871   4.819  44.709   6.450
 7923POPC   C2B45872   4.897  44.794   6.750
 7923POPC   C3B45873   4.880  44.707   7.050
 7923POPC   C4B45874   4.899  44.729   7.350
 7924POPC   NC345875   2.742  14.360   5.550
 7924POPC   PO445876   2.754  14.411   5.850
 7924POPC   GL145877   2.721  14.434   6.150
 7924POPC   GL245878   2.888  14.472   6.150
 7924POPC   C1A45879   2.744  14.397   6.450
 7924POPC   D2A45880   2.815  14.443   6.750
 7924POPC   C3A45881   2.764  14.438   7.050
 7924POPC   C4A45882   2.751  14.424   7.350
 7924POPC   C1B45883   2.997  14.554   6.450
 7924POPC   C2B45884   2.922  14.586   6.750
 7924POPC   C3B45885   3.016  14.573   7.050
 7924POPC   C4B45886   3.012  14.585   7.350
 7925POPC   NC345887  41.585  26.825   5.550
 7925POPC   PO445888  41.525  26.826   5.850
 7925POPC   GL145889  41.527  26.838   6.150
 7925POPC   GL245890  41.436  26.931   6.150
 7925POPC   C1A45891  41.533  26.800   6.450
 7925POPC   D2A45892  41.512  26.774   6.750
 7925POPC   C3A45893  41.535  26.824   7.050
 7925POPC   C4A45894  41.591  26.853   7.350
 7925POPC   C1B45895  41.355  27.005   6.450
 7925POPC   C2B45896  41.413  27.002   6.750
 7925POPC   C3B45897  41.397  27.030   7.050
 7925POPC   C4B45898  41.323  27.027   7.350
 7926POPC   NC345899  44.665   0.469   5.550
 7926POPC   PO445900  44.664   0.461   5.850
 7926POPC   GL145901  44.665   0.473   6.150
 7926POPC   GL245902  44.560   0.535   6.150
 7926POPC   C1A45903  44.708   0.398   6.450
 7926POPC   D2A45904  44.711   0.421   6.750
 7926POPC   C3A45905  44.691   0.422   7.050
 7926POPC   C4A45906  44.621   0.431   7.350
 7926POPC   C1B45907  44.540   0.682   6.450
 7926POPC   C2B45908  44.488   0.606   6.750
 7926POPC   C3B45909  44.519   0.616   7.050
 7926POPC   C4B45910  44.520   0.602   7.350
 7927POPC   NC345911   5.133  19.875   5.550
 7927POPC   PO445912   5.096  19.792   5.850
 7927POPC   GL145913   5.078  19.795   6.150
 7927POPC   GL245914   5.145  19.760   6.150
 7927POPC   C1A45915   5.053  19.848   6.450
 7927POPC   D2A45916   5.085  19.817   6.750
 7927POPC   C3A45917   5.056  19.791   7.050
 7927POPC   C4A45918   5.112  19.816   7.350
 7927POPC   C1B45919   5.263  19.605   6.450
 7927POPC   C2B45920   5.239  19.608   6.750
 7927POPC   C3B45921   5.238  19.682   7.050
 7927POPC   C4B45922   5.236  19.651   7.350
 7928POPC   NC345923  24.475  15.925   5.550
 7928POPC   PO445924  24.450  15.935   5.850
 7928POPC   GL145925  24.448  15.998   6.150
 7928POPC   GL245926  24.490  15.792   6.150
 7928POPC   C1A45927  24.444  15.941   6.450
 7928POPC   D2A45928  24.449  15.984   6.750
 7928POPC   C3A45929  24.521  15.974   7.050
 7928POPC   C4A45930  24.508  15.936   7.350
 7928POPC   C1B45931  24.544  15.671   6.450
 7928POPC   C2B45932  24.541  15.686   6.750
 7928POPC   C3B45933  24.458  15.676   7.050
 7928POPC   C4B45934  24.483  15.691   7.350
 7929POPC   NC345935   5.062  26.843   5.550
 7929POPC   PO445936   5.100  26.774   5.850
 7929POPC   GL145937   5.074  26.771   6.150
 7929POPC   GL245938   4.942  26.781   6.150
 7929POPC   C1A45939   5.081  26.834   6.450
 7929POPC   D2A45940   5.120  26.781   6.750
 7929POPC   C3A45941   5.084  26.852   7.050
 7929POPC   C4A45942   5.109  26.813   7.350
 7929POPC   C1B45943   4.907  26.725   6.450
 7929POPC   C2B45944   4.866  26.705   6.750
 7929POPC   C3B45945   4.927  26.649   7.050
 7929POPC   C4B45946   4.857  26.628   7.350
 7930POPC   NC345947   3.527  39.996   5.550
 7930POPC   PO445948   3.498  39.991   5.850
 7930POPC   GL145949   3.502  39.977   6.150
 7930POPC   GL245950   3.594  40.149   6.150
 7930POPC   C1A45951   3.528  40.008   6.450
 7930POPC   D2A45952   3.581  40.024   6.750
 7930POPC   C3A45953   3.559  40.046   7.050
 7930POPC   C4A45954   3.529  39.973   7.350
 7930POPC   C1B45955   3.622  40.192   6.450
 7930POPC   C2B45956   3.625  40.239   6.750
 7930POPC   C3B45957   3.591  40.283   7.050
 7930POPC   C4B45958   3.594  40.200   7.350
 7931POPC   NC345959  30.652  12.029   5.550
 7931POPC   PO445960  30.707  12.117   5.850
 7931POPC   GL145961  30.687  12.072   6.150
 7931POPC   GL245962  30.658  11.992   6.150
 7931POPC   C1A45963  30.698  12.103   6.450
 7931POPC   D2A45964  30.672  12.098   6.750
 7931POPC   C3A45965  30.716  12.036   7.050
 7931POPC   C4A45966  30.669  12.078   7.350
 7931POPC   C1B45967  30.562  11.899   6.450
 7931POPC   C2B45968  30.518  11.875   6.750
 7931POPC   C3B45969  30.523  11.860   7.050
 7931POPC   C4B45970  30.479  11.880   7.350
 7932POPC   NC345971  11.295   1.250   5.550
 7932POPC   PO445972  11.309   1.225   5.850
 7932POPC   GL145973  11.305   1.259   6.150
 7932POPC   GL245974  11.270   1.098   6.150
 7932POPC   C1A45975  11.340   1.208   6.450
 7932POPC   D2A45976  11.342   1.194   6.750
 7932POPC   C3A45977  11.342   1.251   7.050
 7932POPC   C4A45978  11.274   1.206   7.350
 7932POPC   C1B45979  11.199   0.951   6.450
 7932POPC   C2B45980  11.239   0.936   6.750
 7932POPC   C3B45981  11.211   0.935   7.050
 7932POPC   C4B45982  11.178   0.986   7.350
 7933POPC   NC345983  12.818  36.126   5.550
 7933POPC   PO445984  12.867  36.095   5.850
 7933POPC   GL145985  12.848  36.095   6.150
 7933POPC   GL245986  12.937  36.237   6.150
 7933POPC   C1A45987  12.886  36.176   6.450
 7933POPC   D2A45988  12.878  36.106   6.750
 7933POPC   C3A45989  12.842  36.151   7.050
 7933POPC   C4A45990  12.811  36.102   7.350
 7933POPC   C1B45991  13.039  36.309   6.450
 7933POPC   C2B45992  13.024  36.306   6.750
 7933POPC   C3B45993  13.049  36.286   7.050
 7933POPC   C4B45994  13.073  36.315   7.350
 7934POPC   NC345995  13.614  13.662   5.550
 7934POPC   PO445996  13.618  13.664   5.850
 7934POPC   GL145997  13.625  13.623   6.150
 7934POPC   GL245998  13.712  13.585   6.150
 7934POPC   C1A45999  13.654  13.617   6.450
 7934POPC   D2A46000  13.604  13.650   6.750
 7934POPC   C3A46001  13.625  13.659   7.050
 7934POPC   C4A46002  13.596  13.665   7.350
 7934POPC   C1B46003  13.846  13.663   6.450
 7934POPC   C2B46004  13.859  13.643   6.750
 7934POPC   C3B46005  13.909  13.595   7.050
 7934POPC   C4B46006  13.843  13.627   7.350
 7935POPC   NC346007   7.433  41.583   5.550
 7935POPC   PO446008   7.402  41.554   5.850
 7935POPC   GL146009   7.469  41.576   6.150
 7935POPC   GL246010   7.499  41.488   6.150
 7935POPC   C1A46011   7.451  41.549   6.450
 7935POPC   D2A46012   7.428  41.543   6.750
 7935POPC   C3A46013   7.425  41.536   7.050
 7935POPC   C4A46014   7.412  41.539   7.350
 7935POPC   C1B46015   7.694  41.439   6.450
 7935POPC   C2B46016   7.686  41.472   6.750
 7935POPC   C3B46017   7.667  41.507   7.050
 7935POPC   C4B46018   7.665  41.493   7.350
 7936POPC   NC346019   5.819  24.462   5.550
 7936POPC   PO446020   5.913  24.509   5.850
 7936POPC   GL146021   5.825  24.472   6.150
 7936POPC   GL246022   5.785  24.608   6.150
 7936POPC   C1A46023   5.888  24.480   6.450
 7936POPC   D2A46024   5.888  24.441   6.750
 7936POPC   C3A46025   5.912  24.494   7.050
 7936POPC   C4A46026   5.878  24.515   7.350
 7936POPC   C1B46027   5.685  24.647   6.450
 7936POPC   C2B46028   5.723  24.638   6.750
 7936POPC   C3B46029   5.718  24.722   7.050
 7936POPC   C4B46030   5.724  24.631   7.350
 7937POPC   NC346031  16.780  33.014   5.550
 7937POPC   PO446032  16.695  33.053   5.850
 7937POPC   GL146033  16.695  33.008   6.150
 7937POPC   GL246034  16.822  33.065   6.150
 7937POPC   C1A46035  16.694  33.013   6.450
 7937POPC   D2A46036  16.726  33.059   6.750
 7937POPC   C3A46037  16.692  33.050   7.050
 7937POPC   C4A46038  16.698  33.007   7.350
 7937POPC   C1B46039  16.967  33.164   6.450
 7937POPC   C2B46040  16.913  33.165   6.750
 7937POPC   C3B46041  16.923  33.181   7.050
 7937POPC   C4B46042  16.956  33.160   7.350
 7938POPC   NC346043  15.920  26.849   5.550
 7938POPC   PO446044  15.991  26.769   5.850
 7938POPC   GL146045  15.997  26.818   6.150
 7938POPC   GL246046  16.089  26.915   6.150
 7938POPC   C1A46047  15.932  26.828   6.450
 7938POPC   D2A46048  15.913  26.822   6.750
 7938POPC   C3A46049  15.986  26.800   7.050
 7938POPC   C4A46050  15.917  26.801   7.350
 7938POPC   C1B46051  16.191  27.029   6.450
 7938POPC   C2B46052  16.130  26.996   6.750
 7938POPC   C3B46053  16.111  26.988   7.050
 7938POPC   C4B46054  16.131  26.937   7.350
 7939POPC   NC346055  12.871  41.578   5.550
 7939POPC   PO446056  12.891  41.541   5.850
 7939POPC   GL146057  12.892  41.591   6.150
 7939POPC   GL246058  12.911  41.475   6.150
 7939POPC   C1A46059  12.840  41.569   6.450
 7939POPC   D2A46060  12.859  41.563   6.750
 7939POPC   C3A46061  12.902  41.514   7.050
 7939POPC   C4A46062  12.814  41.606   7.350
 7939POPC   C1B46063  13.054  41.403   6.450
 7939POPC   C2B46064  13.044  41.359   6.750
 7939POPC   C3B46065  13.013  41.341   7.050
 7939POPC   C4B46066  13.022  41.419   7.350
 7940POPC   NC346067  38.501   5.081   5.550
 7940POPC   PO446068  38.460   5.064   5.850
 7940POPC   GL146069  38.480   5.137   6.150
 7940POPC   GL246070  38.506   5.191   6.150
 7940POPC   C1A46071  38.491   5.125   6.450
 7940POPC   D2A46072  38.431   5.049   6.750
 7940POPC   C3A46073  38.451   5.073   7.050
 7940POPC   C4A46074  38.434   5.109   7.350
 7940POPC   C1B46075  38.647   5.288   6.450
 7940POPC   C2B46076  38.628   5.261   6.750
 7940POPC   C3B46077  38.647   5.208   7.050
 7940POPC   C4B46078  38.670   5.296   7.350
 7941POPC   NC346079  24.452  42.294   5.550
 7941POPC   PO446080  24.537  42.373   5.850
 7941POPC   GL146081  24.499  42.321   6.150
 7941POPC   GL246082  24.442  42.170   6.150
 7941POPC   C1A46083  24.486  42.285   6.450
 7941POPC   D2A46084  24.502  42.367   6.750
 7941POPC   C3A46085  24.478  42.300   7.050
 7941POPC   C4A46086  24.478  42.308   7.350
 7941POPC   C1B46087  24.458  42.065   6.450
 7941POPC   C2B46088  24.450  42.103   6.750
 7941POPC   C3B46089  24.454  42.122   7.050
 7941POPC   C4B46090  24.486  42.104   7.350
 7942POPC   NC346091  25.264  25.258   5.550
 7942POPC   PO446092  25.271  25.296   5.850
 7942POPC   GL146093  25.241  25.270   6.150
 7942POPC   GL246094  25.367  25.280   6.150
 7942POPC   C1A46095  25.263  25.309   6.450
 7942POPC   D2A46096  25.219  25.247   6.750
 7942POPC   C3A46097  25.256  25.298   7.050
 7942POPC   C4A46098  25.296  25.277   7.350
 7942POPC   C1B46099  25.490  25.368   6.450
 7942POPC   C2B46100  25.456  25.403   6.750
 7942POPC   C3B46101  25.515  25.358   7.050
 7942POPC   C4B46102  25.487  25.377   7.350
 7943POPC   NC346103  29.872  39.266   5.550
 7943POPC   PO446104  29.941  39.271   5.850
 7943POPC   GL146105  29.944  39.227   6.150
 7943POPC   GL246106  29.843  39.276   6.150
 7943POPC   C1A46107  29.892  39.249   6.450
 7943POPC   D2A46108  29.932  39.181   6.750
 7943POPC   C3A46109  29.875  39.189   7.050
 7943POPC   C4A46110  29.928  39.203   7.350
 7943POPC   C1B46111  29.675  39.330   6.450
 7943POPC   C2B46112  29.746  39.398   6.750
 7943POPC   C3B46113  29.763  39.377   7.050
 7943POPC   C4B46114  29.750  39.393   7.350
 7944POPC   NC346115  42.354  18.279   5.550
 7944POPC   PO446116  42.353  18.259   5.850
 7944POPC   GL146117  42.355  18.249   6.150
 7944POPC   GL246118  42.225  18.267   6.150
 7944POPC   C1A46119  42.381  18.258   6.450
 7944POPC   D2A46120  42.344  18.251   6.750
 7944POPC   C3A46121  42.338  18.319   7.050
 7944POPC   C4A46122  42.321  18.302   7.350
 7944POPC   C1B46123  42.084  18.178   6.450
 7944POPC   C2B46124  42.085  18.143   6.750
 7944POPC   C3B46125  42.088  18.133   7.050
 7944POPC   C4B46126  42.074  18.133   7.350
 7945POPC   NC346127   8.221  17.511   5.550
 7945POPC   PO446128   8.214  17.536   5.850
 7945POPC   GL146129   8.239  17.557   6.150
 7945POPC   GL246130   8.326  17.607   6.150
 7945POPC   C1A46131   8.162  17.480   6.450
 7945POPC   D2A46132   8.216  17.538   6.750
 7945POPC   C3A46133   8.203  17.525   7.050
 7945POPC   C4A46134   8.186  17.499   7.350
 7945POPC   C1B46135   8.419  17.687   6.450
 7945POPC   C2B46136   8.404  17.606   6.750
 7945POPC   C3B46137   8.447  17.686   7.050
 7945POPC   C4B46138   8.364  17.636   7.350
 7946POPC   NC346139   5.075   2.006   5.550
 7946POPC   PO446140   5.127   1.965   5.850
 7946POPC   GL146141   5.105   1.951   6.150
 7946POPC   GL246142   5.137   1.912   6.150
 7946POPC   C1A46143   5.118   1.960   6.450
 7946POPC   D2A46144   5.089   1.996   6.750
 7946POPC   C3A46145   5.114   2.020   7.050
 7946POPC   C4A46146   5.111   1.965   7.350
 7946POPC   C1B46147   5.225   1.792   6.450
 7946POPC   C2B46148   5.195   1.814   6.750
 7946POPC   C3B46149   5.212   1.828   7.050
 7946POPC   C4B46150   5.233   1.824   7.350
 7947POPC   NC346151   1.962  19.861   5.550
 7947POPC   PO446152   1.978  19.847   5.850
 7947POPC   GL146153   1.942  19.820   6.150
 7947POPC   GL246154   1.981  19.692   6.150
 7947POPC   C1A46155   1.998  19.878   6.450
 7947POPC   D2A46156   1.952  19.856   6.750
 7947POPC   C3A46157   2.013  19.813   7.050
 7947POPC   C4A46158   2.011  19.880   7.350
 7947POPC   C1B46159   2.090  19.591   6.450
 7947POPC   C2B46160   2.113  19.553   6.750
 7947POPC   C3B46161   2.095  19.636   7.050
 7947POPC   C4B46162   2.068  19.554   7.350
 7948POPC   NC346163  27.543   1.223   5.550
 7948POPC   PO446164  27.634   1.245   5.850
 7948POPC   GL146165  27.642   1.184   6.150
 7948POPC   GL246166  27.554   1.334   6.150
 7948POPC   C1A46167  27.556   1.212   6.450
 7948POPC   D2A46168  27.640   1.231   6.750
 7948POPC   C3A46169  27.608   1.258   7.050
 7948POPC   C4A46170  27.563   1.244   7.350
 7948POPC   C1B46171  27.410   1.442   6.450
 7948POPC   C2B46172  27.409   1.397   6.750
 7948POPC   C3B46173  27.436   1.384   7.050
 7948POPC   C4B46174  27.455   1.413   7.350
 7949POPC   NC346175   1.969   8.192   5.550
 7949POPC   PO446176   2.030   8.215   5.850
 7949POPC   GL146177   1.978   8.188   6.150
 7949POPC   GL246178   1.968   8.049   6.150
 7949POPC   C1A46179   1.991   8.161   6.450
 7949POPC   D2A46180   2.022   8.236   6.750
 7949POPC   C3A46181   2.005   8.200   7.050
 7949POPC   C4A46182   1.978   8.227   7.350
 7949POPC   C1B46183   1.831   7.959   6.450
 7949POPC   C2B46184   1.860   7.944   6.750
 7949POPC   C3B46185   1.809   8.022   7.050
 7949POPC   C4B46186   1.817   8.024   7.350
 7950POPC   NC346187  38.447  25.257   5.550
 7950POPC   PO446188  38.477  25.289   5.850
 7950POPC   GL146189  38.478  25.279   6.150
 7950POPC   GL246190  38.546  25.303   6.150
 7950POPC   C1A46191  38.410  25.247   6.450
 7950POPC   D2A46192  38.484  25.287   6.750
 7950POPC   C3A46193  38.460  25.310   7.050
 7950POPC   C4A46194  38.416  25.235   7.350
 7950POPC   C1B46195  38.607  25.471   6.450
 7950POPC   C2B46196  38.660  25.432   6.750
 7950POPC   C3B46197  38.653  25.404   7.050
 7950POPC   C4B46198  38.597  25.419   7.350
 7951POPC   NC346199  39.207   4.321   5.550
 7951POPC   PO446200  39.209   4.331   5.850
 7951POPC   GL146201  39.256   4.290   6.150
 7951POPC   GL246202  39.277   4.378   6.150
 7951POPC   C1A46203  39.240   4.298   6.450
 7951POPC   D2A46204  39.245   4.345   6.750
 7951POPC   C3A46205  39.210   4.363   7.050
 7951POPC   C4A46206  39.267   4.355   7.350
 7951POPC   C1B46207  39.440   4.518   6.450
 7951POPC   C2B46208  39.436   4.454   6.750
 7951POPC   C3B46209  39.390   4.522   7.050
 7951POPC   C4B46210  39.365   4.541   7.350
 7952POPC   NC346211  31.452  44.633   5.550
 7952POPC   PO446212  31.500  44.704   5.850
 7952POPC   GL146213  31.515  44.674   6.150
 7952POPC   GL246214  31.542  44.684   6.150
 7952POPC   C1A46215  31.507  44.639   6.450
 7952POPC   D2A46216  31.460  44.649   6.750
 7952POPC   C3A46217  31.429  44.643   7.050
 7952POPC   C4A46218  31.491  44.635   7.350
 7952POPC   C1B46219  31.676  44.724   6.450
 7952POPC   C2B46220  31.662  44.798   6.750
 7952POPC   C3B46221  31.699  44.752   7.050
 7952POPC   C4B46222  31.718  44.738   7.350
 7953POPC   NC346223  13.627  22.955   5.550
 7953POPC   PO446224  13.627  22.920   5.850
 7953POPC   GL146225  13.591  22.932   6.150
 7953POPC   GL246226  13.725  22.872   6.150
 7953POPC   C1A46227  13.633  22.980   6.450
 7953POPC   D2A46228  13.640  22.961   6.750
 7953POPC   C3A46229  13.656  22.933   7.050
 7953POPC   C4A46230  13.642  22.961   7.350
 7953POPC   C1B46231  13.808  22.806   6.450
 7953POPC   C2B46232  13.767  22.800   6.750
 7953POPC   C3B46233  13.839  22.801   7.050
 7953POPC   C4B46234  13.779  22.798   7.350
 7954POPC   NC346235   8.995   6.603   5.550
 7954POPC   PO446236   9.015   6.600   5.850
 7954POPC   GL146237   9.001   6.684   6.150
 7954POPC   GL246238   9.100   6.675   6.150
 7954POPC   C1A46239   9.008   6.678   6.450
 7954POPC   D2A46240   8.978   6.644   6.750
 7954POPC   C3A46241   8.959   6.599   7.050
 7954POPC   C4A46242   8.960   6.612   7.350
 7954POPC   C1B46243   9.175   6.781   6.450
 7954POPC   C2B46244   9.127   6.747   6.750
 7954POPC   C3B46245   9.161   6.748   7.050
 7954POPC   C4B46246   9.126   6.823   7.350
 7955POPC   NC346247  31.470   3.493   5.550
 7955POPC   PO446248  31.423   3.506   5.850
 7955POPC   GL146249  31.522   3.580   6.150
 7955POPC   GL246250  31.551   3.578   6.150
 7955POPC   C1A46251  31.515   3.553   6.450
 7955POPC   D2A46252  31.521   3.514   6.750
 7955POPC   C3A46253  31.492   3.543   7.050
 7955POPC   C4A46254  31.517   3.584   7.350
 7955POPC   C1B46255  31.673   3.694   6.450
 7955POPC   C2B46256  31.676   3.669   6.750
 7955POPC   C3B46257  31.720   3.642   7.050
 7955POPC   C4B46258  31.710   3.688   7.350
 7956POPC   NC346259  32.234   2.798   5.550
 7956POPC   PO446260  32.290   2.804   5.850
 7956POPC   GL146261  32.249   2.810   6.150
 7956POPC   GL246262  32.317   2.655   6.150
 7956POPC   C1A46263  32.293   2.729   6.450
 7956POPC   D2A46264  32.202   2.753   6.750
 7956POPC   C3A46265  32.249   2.739   7.050
 7956POPC   C4A46266  32.280   2.724   7.350
 7956POPC   C1B46267  32.431   2.553   6.450
 7956POPC   C2B46268  32.450   2.562   6.750
 7956POPC   C3B46269  32.458   2.549   7.050
 7956POPC   C4B46270  32.372   2.560   7.350
 7957POPC   NC346271  21.393  18.303   5.550
 7957POPC   PO446272  21.382  18.262   5.850
 7957POPC   GL146273  21.384  18.291   6.150
 7957POPC   GL246274  21.257  18.365   6.150
 7957POPC   C1A46275  21.347  18.290   6.450
 7957POPC   D2A46276  21.400  18.263   6.750
 7957POPC   C3A46277  21.379  18.246   7.050
 7957POPC   C4A46278  21.349  18.279   7.350
 7957POPC   C1B46279  21.168  18.423   6.450
 7957POPC   C2B46280  21.193  18.431   6.750
 7957POPC   C3B46281  21.149  18.409   7.050
 7957POPC   C4B46282  21.221  18.401   7.350
 7958POPC   NC346283  32.221  21.361   5.550
 7958POPC   PO446284  32.281  21.337   5.850
 7958POPC   GL146285  32.221  21.368   6.150
 7958POPC   GL246286  32.213  21.470   6.150
 7958POPC   C1A46287  32.236  21.388   6.450
 7958POPC   D2A46288  32.247  21.353   6.750
 7958POPC   C3A46289  32.282  21.386   7.050
 7958POPC   C4A46290  32.260  21.389   7.350
 7958POPC   C1B46291  32.276  21.634   6.450
 7958POPC   C2B46292  32.268  21.623   6.750
 7958POPC   C3B46293  32.238  21.597   7.050
 7958POPC   C4B46294  32.204  21.625   7.350
 7959POPC   NC346295  28.407  12.117   5.550
 7959POPC   PO446296  28.343  12.083   5.850
 7959POPC   GL146297  28.381  12.059   6.150
 7959POPC   GL246298  28.303  11.954   6.150
 7959POPC   C1A46299  28.348  12.098   6.450
 7959POPC   D2A46300  28.378  12.092   6.750
 7959POPC   C3A46301  28.369  12.120   7.050
 7959POPC   C4A46302  28.367  12.042   7.350
 7959POPC   C1B46303  28.231  11.821   6.450
 7959POPC   C2B46304  28.237  11.890   6.750
 7959POPC   C3B46305  28.216  11.839   7.050
 7959POPC   C4B46306  28.231  11.889   7.350
 7960POPC   NC346307  18.236  39.263   5.550
 7960POPC   PO446308  18.301  39.220   5.850
 7960POPC   GL146309  18.258  39.257   6.150
 7960POPC   GL246310  18.207  39.215   6.150
 7960POPC   C1A46311  18.283  39.216   6.450
 7960POPC   D2A46312  18.274  39.264   6.750
 7960POPC   C3A46313  18.276  39.188   7.050
 7960POPC   C4A46314  18.246  39.251   7.350
 7960POPC   C1B46315  18.023  39.178   6.450
 7960POPC   C2B46316  18.010  39.157   6.750
 7960POPC   C3B46317  18.004  39.180   7.050
 7960POPC   C4B46318  18.051  39.199   7.350
 7961POPC   NC346319   0.460  20.629   5.550
 7961POPC   PO446320   0.417  20.623   5.850
 7961POPC   GL146321   0.393  20.586   6.150
 7961POPC   GL246322   0.395  20.494   6.150
 7961POPC   C1A46323   0.478  20.575   6.450
 7961POPC   D2A46324   0.415  20.591   6.750
 7961POPC   C3A46325   0.461  20.590   7.050
 7961POPC   C4A46326   0.441  20.630   7.350
 7961POPC   C1B46327   0.369  20.382   6.450
 7961POPC   C2B46328   0.311  20.431   6.750
 7961POPC   C3B46329   0.305  20.384   7.050
 7961POPC   C4B46330   0.371  20.404   7.350
 7962POPC   NC346331  19.076  27.575   5.550
 7962POPC   PO446332  19.082  27.566   5.850
 7962POPC   GL146333  19.091  27.643   6.150
 7962POPC   GL246334  18.944  27.606   6.150
 7962POPC   C1A46335  19.028  27.558   6.450
 7962POPC   D2A46336  19.076  27.611   6.750
 7962POPC   C3A46337  19.046  27.606   7.050
 7962POPC   C4A46338  19.013  27.620   7.350
 7962POPC   C1B46339  18.781  27.720   6.450
 7962POPC   C2B46340  18.830  27.727   6.750
 7962POPC   C3B46341  18.785  27.709   7.050
 7962POPC   C4B46342  18.813  27.660   7.350
 7963POPC   NC346343   0.438  37.703   5.550
 7963POPC   PO446344   0.454  37.630   5.850
 7963POPC   GL146345   0.446  37.650   6.150
 7963POPC   GL246346   0.332  37.768   6.150
 7963POPC   C1A46347   0.443  37.713   6.450
 7963POPC   D2A46348   0.454  37.715   6.750
 7963POPC   C3A46349   0.396  37.727   7.050
 7963POPC   C4A46350   0.464  37.681   7.350
 7963POPC   C1B46351   0.280  37.864   6.450
 7963POPC   C2B46352   0.209  37.825   6.750
 7963POPC   C3B46353   0.213  37.872   7.050
 7963POPC   C4B46354   0.280  37.807   7.350
 7964POPC   NC346355  18.301   3.575   5.550
 7964POPC   PO446356  18.301   3.518   5.850
 7964POPC   GL146357  18.270   3.589   6.150
 7964POPC   GL246358  18.286   3.380   6.150
 7964POPC   C1A46359  18.326   3.550   6.450
 7964POPC   D2A46360  18.247   3.582   6.750
 7964POPC   C3A46361  18.312   3.520   7.050
 7964POPC   C4A46362  18.247   3.563   7.350
 7964POPC   C1B46363  18.306   3.306   6.450
 7964POPC   C2B46364  18.295   3.298   6.750
 7964POPC   C3B46365  18.288   3.283   7.050
 7964POPC   C4B46366  18.283   3.328   7.350
 7965POPC   NC346367   1.216   9.795   5.550
 7965POPC   PO446368   1.228   9.795   5.850
 7965POPC   GL146369   1.263   9.726   6.150
 7965POPC   GL246370   1.141   9.655   6.150
 7965POPC   C1A46371   1.263   9.764   6.450
 7965POPC   D2A46372   1.220   9.722   6.750
 7965POPC   C3A46373   1.193   9.737   7.050
 7965POPC   C4A46374   1.256   9.702   7.350
 7965POPC   C1B46375   0.982   9.591   6.450
 7965POPC   C2B46376   1.007   9.593   6.750
 7965POPC   C3B46377   0.967   9.591   7.050
 7965POPC   C4B46378   0.981   9.621   7.350
 7966POPC   NC346379  19.087   0.471   5.550
 7966POPC   PO446380  19.104   0.465   5.850
 7966POPC   GL146381  19.107   0.395   6.150
 7966POPC   GL246382  18.905   0.512   6.150
 7966POPC   C1A46383  19.078   0.394   6.450
 7966POPC   D2A46384  19.077   0.480   6.750
 7966POPC   C3A46385  19.098   0.433   7.050
 7966POPC   C4A46386  19.042   0.477   7.350
 7966POPC   C1B46387  18.867   0.609   6.450
 7966POPC   C2B46388  18.838   0.559   6.750
 7966POPC   C3B46389  18.887   0.586   7.050
 7966POPC   C4B46390  18.812   0.609   7.350
 7967POPC   NC346391  19.813  22.956   5.550
 7967POPC   PO446392  19.879  22.968   5.850
 7967POPC   GL146393  19.801  22.954   6.150
 7967POPC   GL246394  19.877  22.802   6.150
 7967POPC   C1A46395  19.818  22.962   6.450
 7967POPC   D2A46396  19.835  22.922   6.750
 7967POPC   C3A46397  19.794  22.915   7.050
 7967POPC   C4A46398  19.798  22.974   7.350
 7967POPC   C1B46399  19.956  22.712   6.450
 7967POPC   C2B46400  19.999  22.725   6.750
 7967POPC   C3B46401  19.991  22.682   7.050
 7967POPC   C4B46402  19.993  22.726   7.350
 7968POPC   NC346403  30.718  29.905   5.550
 7968POPC   PO446404  30.746  29.878   5.850
 7968POPC   GL146405  30.693  29.903   6.150
 7968POPC   GL246406  30.601  30.060   6.150
 7968POPC   C1A46407  30.697  29.893   6.450
 7968POPC   D2A46408  30.658  29.930   6.750
 7968POPC   C3A46409  30.738  29.952   7.050
 7968POPC   C4A46410  30.732  29.913   7.350
 7968POPC   C1B46411  30.594  30.128   6.450
 7968POPC   C2B46412  30.562  30.123   6.750
 7968POPC   C3B46413  30.517  30.164   7.050
 7968POPC   C4B46414  30.570  30.092   7.350
 7969POPC   NC346415  41.513  19.097   5.550
 7969POPC   PO446416  41.580  19.079   5.850
 7969POPC   GL146417  41.545  19.107   6.150
 7969POPC   GL246418  41.660  19.172   6.150
 7969POPC   C1A46419  41.532  19.105   6.450
 7969POPC   D2A46420  41.543  19.076   6.750
 7969POPC   C3A46421  41.556  19.080   7.050
 7969POPC   C4A46422  41.542  19.079   7.350
 7969POPC   C1B46423  41.725  19.267   6.450
 7969POPC   C2B46424  41.727  19.275   6.750
 7969POPC   C3B46425  41.693  19.223   7.050
 7969POPC   C4B46426  41.746  19.243   7.350
 7970POPC   NC346427  24.456  40.815   5.550
 7970POPC   PO446428  24.521  40.784   5.850
 7970POPC   GL146429  24.495  40.766   6.150
 7970POPC   GL246430  24.421  40.795   6.150
 7970POPC   C1A46431  24.501  40.745   6.450
 7970POPC   D2A46432  24.498  40.763   6.750
 7970POPC   C3A46433  24.520  40.789   7.050
 7970POPC   C4A46434  24.524  40.755   7.350
 7970POPC   C1B46435  24.260  40.934   6.450
 7970POPC   C2B46436  24.295  40.891   6.750
 7970POPC   C3B46437  24.321  40.944   7.050
 7970POPC   C4B46438  24.280  40.937   7.350
 7971POPC   NC346439  12.034   7.424   5.550
 7971POPC   PO446440  12.066   7.467   5.850
 7971POPC   GL146441  12.040   7.443   6.150
 7971POPC   GL246442  12.086   7.519   6.150
 7971POPC   C1A46443  12.114   7.393   6.450
 7971POPC   D2A46444  12.031   7.378   6.750
 7971POPC   C3A46445  12.041   7.419   7.050
 7971POPC   C4A46446  12.030   7.424   7.350
 7971POPC   C1B46447  12.180   7.629   6.450
 7971POPC   C2B46448  12.168   7.621   6.750
 7971POPC   C3B46449  12.194   7.699   7.050
 7971POPC   C4B46450  12.190   7.695   7.350
 7972POPC   NC346451   1.230  32.220   5.550
 7972POPC   PO446452   1.201  32.247   5.850
 7972POPC   GL146453   1.219  32.247   6.150
 7972POPC   GL246454   1.090  32.281   6.150
 7972POPC   C1A46455   1.175  32.253   6.450
 7972POPC   D2A46456   1.243  32.201   6.750
 7972POPC   C3A46457   1.177  32.274   7.050
 7972POPC   C4A46458   1.214  32.247   7.350
 7972POPC   C1B46459   0.978  32.218   6.450
 7972POPC   C2B46460   1.000  32.254   6.750
 7972POPC   C3B46461   0.915  32.212   7.050
 7972POPC   C4B46462   0.940  32.287   7.350
 7973POPC   NC346463  31.455  22.136   5.550
 7973POPC   PO446464  31.512  22.204   5.850
 7973POPC   GL146465  31.499  22.212   6.150
 7973POPC   GL246466  31.607  22.224   6.150
 7973POPC   C1A46467  31.444  22.179   6.450
 7973POPC   D2A46468  31.458  22.211   6.750
 7973POPC   C3A46469  31.507  22.201   7.050
 7973POPC   C4A46470  31.441  22.168   7.350
 7973POPC   C1B46471  31.696  22.229   6.450
 7973POPC   C2B46472  31.750  22.221   6.750
 7973POPC   C3B46473  31.687  22.211   7.050
 7973POPC   C4B46474  31.676  22.243   7.350
 7974POPC   NC346475  13.585  38.406   5.550
 7974POPC   PO446476  13.640  38.432   5.850
 7974POPC   GL146477  13.673  38.443   6.150
 7974POPC   GL246478  13.739  38.348   6.150
 7974POPC   C1A46479  13.677  38.491   6.450
 7974POPC   D2A46480  13.626  38.461   6.750
 7974POPC   C3A46481  13.600  38.492   7.050
 7974POPC   C4A46482  13.587  38.456   7.350
 7974POPC   C1B46483  13.837  38.332   6.450
 7974POPC   C2B46484  13.836  38.311   6.750
 7974POPC   C3B46485  13.890  38.342   7.050
 7974POPC   C4B46486  13.807  38.316   7.350
 7975POPC   NC346487  19.093   8.208   5.550
 7975POPC   PO446488  19.012   8.239   5.850
 7975POPC   GL146489  19.043   8.245   6.150
 7975POPC   GL246490  19.160   8.326   6.150
 7975POPC   C1A46491  19.041   8.236   6.450
 7975POPC   D2A46492  19.024   8.160   6.750
 7975POPC   C3A46493  19.068   8.213   7.050
 7975POPC   C4A46494  19.082   8.216   7.350
 7975POPC   C1B46495  19.151   8.360   6.450
 7975POPC   C2B46496  19.199   8.434   6.750
 7975POPC   C3B46497  19.198   8.395   7.050
 7975POPC   C4B46498  19.164   8.374   7.350
 7976POPC   NC346499   5.105  13.640   5.550
 7976POPC   PO446500   5.058  13.641   5.850
 7976POPC   GL146501   5.080  13.651   6.150
 7976POPC   GL246502   5.126  13.476   6.150
 7976POPC   C1A46503   5.047  13.624   6.450
 7976POPC   D2A46504   5.072  13.579   6.750
 7976POPC   C3A46505   5.059  13.631   7.050
 7976POPC   C4A46506   5.117  13.620   7.350
 7976POPC   C1B46507   5.101  13.387   6.450
 7976POPC   C2B46508   5.082  13.428   6.750
 7976POPC   C3B46509   5.072  13.355   7.050
 7976POPC   C4B46510   5.069  13.413   7.350
 7977POPC   NC346511   3.527   4.349   5.550
 7977POPC   PO446512   3.561   4.348   5.850
 7977POPC   GL146513   3.497   4.281   6.150
 7977POPC   GL246514   3.576   4.245   6.150
 7977POPC   C1A46515   3.515   4.298   6.450
 7977POPC   D2A46516   3.508   4.280   6.750
 7977POPC   C3A46517   3.529   4.366   7.050
 7977POPC   C4A46518   3.576   4.283   7.350
 7977POPC   C1B46519   3.581   4.060   6.450
 7977POPC   C2B46520   3.583   4.050   6.750
 7977POPC   C3B46521   3.582   4.035   7.050
 7977POPC   C4B46522   3.605   4.069   7.350
 7978POPC   NC346523  35.378  26.089   5.550
 7978POPC   PO446524  35.347  26.005   5.850
 7978POPC   GL146525  35.402  26.024   6.150
 7978POPC   GL246526  35.320  26.128   6.150
 7978POPC   C1A46527  35.362  26.067   6.450
 7978POPC   D2A46528  35.339  26.089   6.750
 7978POPC   C3A46529  35.309  26.022   7.050
 7978POPC   C4A46530  35.313  26.029   7.350
 7978POPC   C1B46531  35.345  26.310   6.450
 7978POPC   C2B46532  35.394  26.243   6.750
 7978POPC   C3B46533  35.345  26.285   7.050
 7978POPC   C4B46534  35.316  26.316   7.350
 7979POPC   NC346535   9.720  13.627   5.550
 7979POPC   PO446536   9.776  13.594   5.850
 7979POPC   GL146537   9.763  13.657   6.150
 7979POPC   GL246538   9.872  13.662   6.150
 7979POPC   C1A46539   9.748  13.648   6.450
 7979POPC   D2A46540   9.789  13.650   6.750
 7979POPC   C3A46541   9.721  13.591   7.050
 7979POPC   C4A46542   9.771  13.630   7.350
 7979POPC   C1B46543   9.963  13.653   6.450
 7979POPC   C2B46544  10.037  13.640   6.750
 7979POPC   C3B46545   9.953  13.705   7.050
 7979POPC   C4B46546  10.006  13.646   7.350
 7980POPC   NC346547  28.335   0.485   5.550
 7980POPC   PO446548  28.361   0.461   5.850
 7980POPC   GL146549  28.353   0.436   6.150
 7980POPC   GL246550  28.317   0.515   6.150
 7980POPC   C1A46551  28.412   0.446   6.450
 7980POPC   D2A46552  28.393   0.422   6.750
 7980POPC   C3A46553  28.339   0.473   7.050
 7980POPC   C4A46554  28.386   0.432   7.350
 7980POPC   C1B46555  28.282   0.679   6.450
 7980POPC   C2B46556  28.279   0.704   6.750
 7980POPC   C3B46557  28.321   0.680   7.050
 7980POPC   C4B46558  28.291   0.719   7.350
 7981POPC   NC346559   2.781  21.351   5.550
 7981POPC   PO446560   2.773  21.418   5.850
 7981POPC   GL146561   2.750  21.415   6.150
 7981POPC   GL246562   2.806  21.264   6.150
 7981POPC   C1A46563   2.787  21.426   6.450
 7981POPC   D2A46564   2.740  21.416   6.750
 7981POPC   C3A46565   2.740  21.338   7.050
 7981POPC   C4A46566   2.764  21.412   7.350
 7981POPC   C1B46567   2.802  21.169   6.450
 7981POPC   C2B46568   2.714  21.156   6.750
 7981POPC   C3B46569   2.768  21.099   7.050
 7981POPC   C4B46570   2.748  21.150   7.350
 7982POPC   NC346571  33.039  22.940   5.550
 7982POPC   PO446572  33.061  22.963   5.850
 7982POPC   GL146573  33.068  22.899   6.150
 7982POPC   GL246574  33.111  23.015   6.150
 7982POPC   C1A46575  33.021  22.922   6.450
 7982POPC   D2A46576  33.003  22.907   6.750
 7982POPC   C3A46577  33.018  22.918   7.050
 7982POPC   C4A46578  33.053  22.933   7.350
 7982POPC   C1B46579  33.254  23.057   6.450
 7982POPC   C2B46580  33.283  23.092   6.750
 7982POPC   C3B46581  33.195  23.075   7.050
 7982POPC   C4B46582  33.207  23.028   7.350
 7983POPC   NC346583  12.048  22.915   5.550
 7983POPC   PO446584  12.031  22.910   5.850
 7983POPC   GL146585  12.120  22.986   6.150
 7983POPC   GL246586  12.184  22.948   6.150
 7983POPC   C1A46587  12.085  22.909   6.450
 7983POPC   D2A46588  12.096  22.910   6.750
 7983POPC   C3A46589  12.076  22.945   7.050
 7983POPC   C4A46590  12.107  22.955   7.350
 7983POPC   C1B46591  12.360  22.890   6.450
 7983POPC   C2B46592  12.310  22.975   6.750
 7983POPC   C3B46593  12.346  22.899   7.050
 7983POPC   C4B46594  12.349  22.967   7.350
 7984POPC   NC346595  33.030  40.812   5.550
 7984POPC   PO446596  33.018  40.811   5.850
 7984POPC   GL146597  33.072  40.737   6.150
 7984POPC   GL246598  33.093  40.662   6.150
 7984POPC   C1A46599  33.069  40.767   6.450
 7984POPC   D2A46600  33.015  40.784   6.750
 7984POPC   C3A46601  33.044  40.754   7.050
 7984POPC   C4A46602  32.978  40.800   7.350
 7984POPC   C1B46603  33.203  40.581   6.450
 7984POPC   C2B46604  33.186  40.613   6.750
 7984POPC   C3B46605  33.146  40.614   7.050
 7984POPC   C4B46606  33.185  40.548   7.350
 7985POPC   NC346607  27.629  18.264   5.550
 7985POPC   PO446608  27.596  18.280   5.850
 7985POPC   GL146609  27.579  18.327   6.150
 7985POPC   GL246610  27.584  18.450   6.150
 7985POPC   C1A46611  27.618  18.316   6.450
 7985POPC   D2A46612  27.607  18.257   6.750
 7985POPC   C3A46613  27.552  18.277   7.050
 7985POPC   C4A46614  27.552  18.299   7.350
 7985POPC   C1B46615  27.692  18.568   6.450
 7985POPC   C2B46616  27.631  18.476   6.750
 7985POPC   C3B46617  27.662  18.501   7.050
 7985POPC   C4B46618  27.697  18.487   7.350
 7986POPC   NC346619  20.567  21.388   5.550
 7986POPC   PO446620  20.659  21.352   5.850
 7986POPC   GL146621  20.561  21.343   6.150
 7986POPC   GL246622  20.690  21.436   6.150
 7986POPC   C1A46623  20.611  21.363   6.450
 7986POPC   D2A46624  20.642  21.428   6.750
 7986POPC   C3A46625  20.574  21.350   7.050
 7986POPC   C4A46626  20.604  21.349   7.350
 7986POPC   C1B46627  20.785  21.515   6.450
 7986POPC   C2B46628  20.777  21.562   6.750
 7986POPC   C3B46629  20.875  21.538   7.050
 7986POPC   C4B46630  20.830  21.540   7.350
 7987POPC   NC346631  33.813  20.603   5.550
 7987POPC   PO446632  33.753  20.567   5.850
 7987POPC   GL146633  33.846  20.658   6.150
 7987POPC   GL246634  33.741  20.672   6.150
 7987POPC   C1A46635  33.770  20.615   6.450
 7987POPC   D2A46636  33.781  20.640   6.750
 7987POPC   C3A46637  33.838  20.628   7.050
 7987POPC   C4A46638  33.817  20.600   7.350
 7987POPC   C1B46639  33.695  20.863   6.450
 7987POPC   C2B46640  33.665  20.850   6.750
 7987POPC   C3B46641  33.659  20.826   7.050
 7987POPC   C4B46642  33.666  20.806   7.350
 7988POPC   NC346643   8.178  18.285   5.550
 7988POPC   PO446644   8.153  18.269   5.850
 7988POPC   GL146645   8.156  18.292   6.150
 7988POPC   GL246646   8.114  18.357   6.150
 7988POPC   C1A46647   8.217  18.267   6.450
 7988POPC   D2A46648   8.164  18.244   6.750
 7988POPC   C3A46649   8.234  18.331   7.050
 7988POPC   C4A46650   8.239  18.252   7.350
 7988POPC   C1B46651   8.144  18.488   6.450
 7988POPC   C2B46652   8.136  18.492   6.750
 7988POPC   C3B46653   8.152  18.494   7.050
 7988POPC   C4B46654   8.059  18.514   7.350
 7989POPC   NC346655   9.775  27.593   5.550
 7989POPC   PO446656   9.756  27.623   5.850
 7989POPC   GL146657   9.767  27.593   6.150
 7989POPC   GL246658   9.802  27.512   6.150
 7989POPC   C1A46659   9.779  27.613   6.450
 7989POPC   D2A46660   9.782  27.586   6.750
 7989POPC   C3A46661   9.769  27.562   7.050
 7989POPC   C4A46662   9.745  27.561   7.350
 7989POPC   C1B46663   9.789  27.390   6.450
 7989POPC   C2B46664   9.824  27.314   6.750
 7989POPC   C3B46665   9.847  27.376   7.050
 7989POPC   C4B46666   9.758  27.365   7.350
 7990POPC   NC346667  10.559  39.220   5.550
 7990POPC   PO446668  10.510  39.241   5.850
 7990POPC   GL146669  10.560  39.259   6.150
 7990POPC   GL246670  10.458  39.148   6.150
 7990POPC   C1A46671  10.487  39.244   6.450
 7990POPC   D2A46672  10.477  39.228   6.750
 7990POPC   C3A46673  10.545  39.198   7.050
 7990POPC   C4A46674  10.475  39.236   7.350
 7990POPC   C1B46675  10.456  38.995   6.450
 7990POPC   C2B46676  10.421  39.019   6.750
 7990POPC   C3B46677  10.372  39.040   7.050
 7990POPC   C4B46678  10.381  38.958   7.350
 7991POPC   NC346679  34.624  43.142   5.550
 7991POPC   PO446680  34.591  43.103   5.850
 7991POPC   GL146681  34.556  43.090   6.150
 7991POPC   GL246682  34.644  43.179   6.150
 7991POPC   C1A46683  34.574  43.063   6.450
 7991POPC   D2A46684  34.609  43.131   6.750
 7991POPC   C3A46685  34.588  43.074   7.050
 7991POPC   C4A46686  34.537  43.153   7.350
 7991POPC   C1B46687  34.837  43.238   6.450
 7991POPC   C2B46688  34.758  43.204   6.750
 7991POPC   C3B46689  34.832  43.274   7.050
 7991POPC   C4B46690  34.843  43.268   7.350
 7992POPC   NC346691   2.781   8.962   5.550
 7992POPC   PO446692   2.739   9.019   5.850
 7992POPC   GL146693   2.756   8.959   6.150
 7992POPC   GL246694   2.828   8.878   6.150
 7992POPC   C1A46695   2.787   8.998   6.450
 7992POPC   D2A46696   2.723   8.932   6.750
 7992POPC   C3A46697   2.726   8.954   7.050
 7992POPC   C4A46698   2.774   8.978   7.350
 7992POPC   C1B46699   2.833   8.742   6.450
 7992POPC   C2B46700   2.784   8.705   6.750
 7992POPC   C3B46701   2.866   8.694   7.050
 7992POPC   C4B46702   2.812   8.765   7.350
 7993POPC   NC346703  29.953   1.959   5.550
 7993POPC   PO446704  29.958   1.988   5.850
 7993POPC   GL146705  29.932   1.965   6.150
 7993POPC   GL246706  29.824   1.946   6.150
 7993POPC   C1A46707  29.927   1.982   6.450
 7993POPC   D2A46708  29.961   2.039   6.750
 7993POPC   C3A46709  29.933   2.032   7.050
 7993POPC   C4A46710  29.896   1.973   7.350
 7993POPC   C1B46711  29.655   1.937   6.450
 7993POPC   C2B46712  29.666   1.936   6.750
 7993POPC   C3B46713  29.640   1.900   7.050
 7993POPC   C4B46714  29.651   1.946   7.350
 7994POPC   NC346715  26.068  22.968   5.550
 7994POPC   PO446716  26.056  22.935   5.850
 7994POPC   GL146717  26.046  22.960   6.150
 7994POPC   GL246718  26.122  22.915   6.150
 7994POPC   C1A46719  26.072  22.975   6.450
 7994POPC   D2A46720  25.994  22.904   6.750
 7994POPC   C3A46721  26.062  22.928   7.050
 7994POPC   C4A46722  26.069  22.941   7.350
 7994POPC   C1B46723  26.259  22.897   6.450
 7994POPC   C2B46724  26.317  22.817   6.750
 7994POPC   C3B46725  26.251  22.874   7.050
 7994POPC   C4B46726  26.276  22.889   7.350
 7995POPC   NC346727  36.154  42.295   5.550
 7995POPC   PO446728  36.084  42.357   5.850
 7995POPC   GL146729  36.153  42.375   6.150
 7995POPC   GL246730  36.219  42.275   6.150
 7995POPC   C1A46731  36.129  42.320   6.450
 7995POPC   D2A46732  36.131  42.329   6.750
 7995POPC   C3A46733  36.146  42.351   7.050
 7995POPC   C4A46734  36.112  42.306   7.350
 7995POPC   C1B46735  36.218  42.130   6.450
 7995POPC   C2B46736  36.284  42.095   6.750
 7995POPC   C3B46737  36.254  42.137   7.050
 7995POPC   C4B46738  36.210  42.161   7.350
 7996POPC   NC346739  36.943  14.406   5.550
 7996POPC   PO446740  36.871  14.390   5.850
 7996POPC   GL146741  36.911  14.388   6.150
 7996POPC   GL246742  36.805  14.378   6.150
 7996POPC   C1A46743  36.867  14.444   6.450
 7996POPC   D2A46744  36.948  14.378   6.750
 7996POPC   C3A46745  36.897  14.389   7.050
 7996POPC   C4A46746  36.876  14.403   7.350
 7996POPC   C1B46747  36.703  14.379   6.450
 7996POPC   C2B46748  36.625  14.464   6.750
 7996POPC   C3B46749  36.617  14.381   7.050
 7996POPC   C4B46750  36.637  14.386   7.350
 7997POPC   NC346751   8.991  42.300   5.550
 7997POPC   PO446752   8.967  42.301   5.850
 7997POPC   GL146753   9.019  42.377   6.150
 7997POPC   GL246754   9.054  42.266   6.150
 7997POPC   C1A46755   8.939  42.299   6.450
 7997POPC   D2A46756   8.924  42.365   6.750
 7997POPC   C3A46757   8.975  42.343   7.050
 7997POPC   C4A46758   8.983  42.346   7.350
 7997POPC   C1B46759   9.110  42.123   6.450
 7997POPC   C2B46760   9.160  42.167   6.750
 7997POPC   C3B46761   9.172  42.169   7.050
 7997POPC   C4B46762   9.154  42.145   7.350
 7998POPC   NC346763  22.978   7.379   5.550
 7998POPC   PO446764  22.950   7.399   5.850
 7998POPC   GL146765  22.937   7.388   6.150
 7998POPC   GL246766  23.043   7.308   6.150
 7998POPC   C1A46767  22.896   7.457   6.450
 7998POPC   D2A46768  22.902   7.467   6.750
 7998POPC   C3A46769  22.918   7.458   7.050
 7998POPC   C4A46770  22.941   7.427   7.350
 7998POPC   C1B46771  23.187   7.273   6.450
 7998POPC   C2B46772  23.103   7.240   6.750
 7998POPC   C3B46773  23.163   7.258   7.050
 7998POPC   C4B46774  23.160   7.316   7.350
 7999POPC   NC346775  15.931  41.542   5.550
 7999POPC   PO446776  15.912  41.538   5.850
 7999POPC   GL146777  15.912  41.593   6.150
 7999POPC   GL246778  15.997  41.493   6.150
 7999POPC   C1A46779  15.914  41.577   6.450
 7999POPC   D2A46780  15.933  41.542   6.750
 7999POPC   C3A46781  15.934  41.544   7.050
 7999POPC   C4A46782  15.927  41.580   7.350
 7999POPC   C1B46783  16.082  41.301   6.450
 7999POPC   C2B46784  16.069  41.353   6.750
 7999POPC   C3B46785  16.135  41.313   7.050
 7999POPC   C4B46786  16.076  41.391   7.350
 8000POPC   NC346787  34.624   6.662   5.550
 8000POPC   PO446788  34.552   6.636   5.850
 8000POPC   GL146789  34.568   6.645   6.150
 8000POPC   GL246790  34.407   6.576   6.150
 8000POPC   C1A46791  34.555   6.688   6.450
 8000POPC   D2A46792  34.558   6.646   6.750
 8000POPC   C3A46793  34.544   6.677   7.050
 8000POPC   C4A46794  34.555   6.626   7.350
 8000POPC   C1B46795  34.296   6.636   6.450
 8000POPC   C2B46796  34.286   6.556   6.750
 8000POPC   C3B46797  34.317   6.570   7.050
 8000POPC   C4B46798  34.304   6.571   7.350
 8001POPC   NC346799  35.366  17.499   5.550
 8001POPC   PO446800  35.316  17.466   5.850
 8001POPC   GL146801  35.322  17.463   6.150
 8001POPC   GL246802  35.222  17.427   6.150
 8001POPC   C1A46803  35.392  17.539   6.450
 8001POPC   D2A46804  35.374  17.493   6.750
 8001POPC   C3A46805  35.330  17.548   7.050
 8001POPC   C4A46806  35.394  17.515   7.350
 8001POPC   C1B46807  35.100  17.332   6.450
 8001POPC   C2B46808  35.123  17.350   6.750
 8001POPC   C3B46809  35.144  17.319   7.050
 8001POPC   C4B46810  35.114  17.343   7.350
 8002POPC   NC346811  43.076   2.023   5.550
 8002POPC   PO446812  43.133   2.013   5.850
 8002POPC   GL146813  43.158   1.993   6.150
 8002POPC   GL246814  43.084   2.119   6.150
 8002POPC   C1A46815  43.111   2.034   6.450
 8002POPC   D2A46816  43.134   1.999   6.750
 8002POPC   C3A46817  43.085   1.993   7.050
 8002POPC   C4A46818  43.155   2.016   7.350
 8002POPC   C1B46819  42.991   2.198   6.450
 8002POPC   C2B46820  43.005   2.254   6.750
 8002POPC   C3B46821  43.032   2.254   7.050
 8002POPC   C4B46822  42.984   2.256   7.350
 8003POPC   NC346823   0.390   5.111   5.550
 8003POPC   PO446824   0.452   5.134   5.850
 8003POPC   GL146825   0.449   5.075   6.150
 8003POPC   GL246826   0.503   4.954   6.150
 8003POPC   C1A46827   0.482   5.058   6.450
 8003POPC   D2A46828   0.396   5.120   6.750
 8003POPC   C3A46829   0.418   5.086   7.050
 8003POPC   C4A46830   0.393   5.064   7.350
 8003POPC   C1B46831   0.639   4.931   6.450
 8003POPC   C2B46832   0.594   4.922   6.750
 8003POPC   C3B46833   0.583   4.948   7.050
 8003POPC   C4B46834   0.574   4.954   7.350
 8004POPC   NC346835  29.917  43.866   5.550
 8004POPC   PO446836  29.947  43.884   5.850
 8004POPC   GL146837  29.910  43.913   6.150
 8004POPC   GL246838  29.978  43.759   6.150
 8004POPC   C1A46839  29.931  43.909   6.450
 8004POPC   D2A46840  29.912  43.906   6.750
 8004POPC   C3A46841  29.923  43.859   7.050
 8004POPC   C4A46842  29.927  43.917   7.350
 8004POPC   C1B46843  29.991  43.651   6.450
 8004POPC   C2B46844  29.973  43.661   6.750
 8004POPC   C3B46845  29.958  43.645   7.050
 8004POPC   C4B46846  29.950  43.664   7.350
 8005POPC   NC346847  31.429   6.675   5.550
 8005POPC   PO446848  31.450   6.650   5.850
 8005POPC   GL146849  31.478   6.605   6.150
 8005POPC   GL246850  31.521   6.538   6.150
 8005POPC   C1A46851  31.509   6.694   6.450
 8005POPC   D2A46852  31.447   6.626   6.750
 8005POPC   C3A46853  31.438   6.690   7.050
 8005POPC   C4A46854  31.445   6.601   7.350
 8005POPC   C1B46855  31.584   6.452   6.450
 8005POPC   C2B46856  31.595   6.432   6.750
 8005POPC   C3B46857  31.632   6.466   7.050
 8005POPC   C4B46858  31.606   6.475   7.350
 8006POPC   NC346859  22.919  18.318   5.550
 8006POPC   PO446860  22.919  18.265   5.850
 8006POPC   GL146861  22.976  18.269   6.150
 8006POPC   GL246862  22.799  18.260   6.150
 8006POPC   C1A46863  22.942  18.284   6.450
 8006POPC   D2A46864  22.939  18.255   6.750
 8006POPC   C3A46865  22.973  18.317   7.050
 8006POPC   C4A46866  22.932  18.242   7.350
 8006POPC   C1B46867  22.653  18.317   6.450
 8006POPC   C2B46868  22.692  18.298   6.750
 8006POPC   C3B46869  22.680  18.304   7.050
 8006POPC   C4B46870  22.649  18.275   7.350
 8007POPC   NC346871  12.089  21.339   5.550
 8007POPC   PO446872  12.066  21.430   5.850
 8007POPC   GL146873  12.075  21.374   6.150
 8007POPC   GL246874  12.030  21.303   6.150
 8007POPC   C1A46875  12.028  21.356   6.450
 8007POPC   D2A46876  12.111  21.344   6.750
 8007POPC   C3A46877  12.035  21.415   7.050
 8007POPC   C4A46878  12.075  21.377   7.350
 8007POPC   C1B46879  11.967  21.147   6.450
 8007POPC   C2B46880  11.996  21.132   6.750
 8007POPC   C3B46881  12.011  21.154   7.050
 8007POPC   C4B46882  11.948  21.198   7.350
 8008POPC   NC346883  29.176  38.452   5.550
 8008POPC   PO446884  29.097  38.460   5.850
 8008POPC   GL146885  29.141  38.434   6.150
 8008POPC   GL246886  29.021  38.470   6.150
 8008POPC   C1A46887  29.172  38.420   6.450
 8008POPC   D2A46888  29.180  38.469   6.750
 8008POPC   C3A46889  29.186  38.452   7.050
 8008POPC   C4A46890  29.137  38.426   7.350
 8008POPC   C1B46891  28.905  38.573   6.450
 8008POPC   C2B46892  28.913  38.570   6.750
 8008POPC   C3B46893  28.887  38.568   7.050
 8008POPC   C4B46894  28.927  38.504   7.350
 8009POPC   NC346895   5.067  29.117   5.550
 8009POPC   PO446896   5.071  29.149   5.850
 8009POPC   GL146897   5.065  29.147   6.150
 8009POPC   GL246898   5.214  29.126   6.150
 8009POPC   C1A46899   5.100  29.185   6.450
 8009POPC   D2A46900   5.080  29.146   6.750
 8009POPC   C3A46901   5.129  29.122   7.050
 8009POPC   C4A46902   5.118  29.101   7.350
 8009POPC   C1B46903   5.350  29.192   6.450
 8009POPC   C2B46904   5.360  29.147   6.750
 8009POPC   C3B46905   5.334  29.169   7.050
 8009POPC   C4B46906   5.350  29.188   7.350
 8010POPC   NC346907  20.630   1.192   5.550
 8010POPC   PO446908  20.580   1.261   5.850
 8010POPC   GL146909  20.627   1.184   6.150
 8010POPC   GL246910  20.566   1.330   6.150
 8010POPC   C1A46911  20.589   1.197   6.450
 8010POPC   D2A46912  20.632   1.204   6.750
 8010POPC   C3A46913  20.626   1.217   7.050
 8010POPC   C4A46914  20.595   1.226   7.350
 8010POPC   C1B46915  20.476   1.394   6.450
 8010POPC   C2B46916  20.420   1.409   6.750
 8010POPC   C3B46917  20.457   1.361   7.050
 8010POPC   C4B46918  20.444   1.362   7.350
 8011POPC   NC346919  12.119  36.873   5.550
 8011POPC   PO446920  12.123  36.930   5.850
 8011POPC   GL146921  12.043  36.910   6.150
 8011POPC   GL246922  12.068  37.012   6.150
 8011POPC   C1A46923  12.039  36.902   6.450
 8011POPC   D2A46924  12.081  36.861   6.750
 8011POPC   C3A46925  12.112  36.868   7.050
 8011POPC   C4A46926  12.119  36.873   7.350
 8011POPC   C1B46927  12.074  37.195   6.450
 8011POPC   C2B46928  12.099  37.201   6.750
 8011POPC   C3B46929  12.061  37.145   7.050
 8011POPC   C4B46930  12.073  37.140   7.350
 8012POPC   NC346931  41.538   5.110   5.550
 8012POPC   PO446932  41.592   5.094   5.850
 8012POPC   GL146933  41.558   5.114   6.150
 8012POPC   GL246934  41.602   5.208   6.150
 8012POPC   C1A46935  41.510   5.089   6.450
 8012POPC   D2A46936  41.574   5.133   6.750
 8012POPC   C3A46937  41.525   5.067   7.050
 8012POPC   C4A46938  41.571   5.135   7.350
 8012POPC   C1B46939  41.653   5.287   6.450
 8012POPC   C2B46940  41.608   5.324   6.750
 8012POPC   C3B46941  41.625   5.375   7.050
 8012POPC   C4B46942  41.590   5.353   7.350
 8013POPC   NC346943   5.073  33.776   5.550
 8013POPC   PO446944   5.111  33.751   5.850
 8013POPC   GL146945   5.080  33.847   6.150
 8013POPC   GL246946   5.018  33.806   6.150
 8013POPC   C1A46947   5.079  33.795   6.450
 8013POPC   D2A46948   5.066  33.827   6.750
 8013POPC   C3A46949   5.058  33.824   7.050
 8013POPC   C4A46950   5.131  33.847   7.350
 8013POPC   C1B46951   4.860  33.881   6.450
 8013POPC   C2B46952   4.845  33.851   6.750
 8013POPC   C3B46953   4.815  33.881   7.050
 8013POPC   C4B46954   4.868  33.832   7.350
 8014POPC   NC346955  25.275   6.650   5.550
 8014POPC   PO446956  25.240   6.639   5.850
 8014POPC   GL146957  25.270   6.642   6.150
 8014POPC   GL246958  25.354   6.785   6.150
 8014POPC   C1A46959  25.273   6.663   6.450
 8014POPC   D2A46960  25.227   6.672   6.750
 8014POPC   C3A46961  25.258   6.621   7.050
 8014POPC   C4A46962  25.229   6.604   7.350
 8014POPC   C1B46963  25.389   6.848   6.450
 8014POPC   C2B46964  25.376   6.873   6.750
 8014POPC   C3B46965  25.352   6.864   7.050
 8014POPC   C4B46966  25.376   6.838   7.350
 8015POPC   NC346967   8.150  40.783   5.550
 8015POPC   PO446968   8.169  40.773   5.850
 8015POPC   GL146969   8.235  40.770   6.150
 8015POPC   GL246970   8.209  40.631   6.150
 8015POPC   C1A46971   8.192  40.780   6.450
 8015POPC   D2A46972   8.166  40.817   6.750
 8015POPC   C3A46973   8.155  40.749   7.050
 8015POPC   C4A46974   8.194  40.807   7.350
 8015POPC   C1B46975   8.275  40.507   6.450
 8015POPC   C2B46976   8.301  40.527   6.750
 8015POPC   C3B46977   8.330  40.536   7.050
 8015POPC   C4B46978   8.256  40.555   7.350
 8016POPC   NC346979  11.343  12.807   5.550
 8016POPC   PO446980  11.316  12.820   5.850
 8016POPC   GL146981  11.302  12.847   6.150
 8016POPC   GL246982  11.168  12.793   6.150
 8016POPC   C1A46983  11.317  12.839   6.450
 8016POPC   D2A46984  11.255  12.827   6.750
 8016POPC   C3A46985  11.331  12.836   7.050
 8016POPC   C4A46986  11.272  12.842   7.350
 8016POPC   C1B46987  11.040  12.765   6.450
 8016POPC   C2B46988  11.098  12.737   6.750
 8016POPC   C3B46989  11.035  12.719   7.050
 8016POPC   C4B46990  11.058  12.694   7.350
 8017POPC   NC346991  14.419  43.120   5.550
 8017POPC   PO446992  14.365  43.154   5.850
 8017POPC   GL146993  14.432  43.081   6.150
 8017POPC   GL246994  14.390  43.281   6.150
 8017POPC   C1A46995  14.416  43.104   6.450
 8017POPC   D2A46996  14.444  43.082   6.750
 8017POPC   C3A46997  14.425  43.084   7.050
 8017POPC   C4A46998  14.416  43.092   7.350
 8017POPC   C1B46999  14.300  43.373   6.450
 8017POPC   C2B47000  14.342  43.323   6.750
 8017POPC   C3B47001  14.381  43.342   7.050
 8017POPC   C4B47002  14.371  43.398   7.350
 8018POPC   NC347003  14.387  29.148   5.550
 8018POPC   PO447004  14.408  29.125   5.850
 8018POPC   GL147005  14.361  29.184   6.150
 8018POPC   GL247006  14.543  29.131   6.150
 8018POPC   C1A47007  14.437  29.134   6.450
 8018POPC   D2A47008  14.411  29.182   6.750
 8018POPC   C3A47009  14.428  29.194   7.050
 8018POPC   C4A47010  14.429  29.170   7.350
 8018POPC   C1B47011  14.653  29.195   6.450
 8018POPC   C2B47012  14.653  29.168   6.750
 8018POPC   C3B47013  14.632  29.241   7.050
 8018POPC   C4B47014  14.689  29.176   7.350
 8019POPC   NC347015  29.886  35.325   5.550
 8019POPC   PO447016  29.940  35.322   5.850
 8019POPC   GL147017  29.965  35.304   6.150
 8019POPC   GL247018  29.995  35.439   6.150
 8019POPC   C1A47019  29.882  35.325   6.450
 8019POPC   D2A47020  29.950  35.378   6.750
 8019POPC   C3A47021  29.897  35.365   7.050
 8019POPC   C4A47022  29.945  35.357   7.350
 8019POPC   C1B47023  30.062  35.497   6.450
 8019POPC   C2B47024  30.140  35.524   6.750
 8019POPC   C3B47025  30.117  35.505   7.050
 8019POPC   C4B47026  30.075  35.514   7.350
 8020POPC   NC347027   1.961  20.628   5.550
 8020POPC   PO447028   2.036  20.634   5.850
 8020POPC   GL147029   1.968  20.630   6.150
 8020POPC   GL247030   1.907  20.566   6.150
 8020POPC   C1A47031   1.983  20.572   6.450
 8020POPC   D2A47032   2.012  20.647   6.750
 8020POPC   C3A47033   1.962  20.630   7.050
 8020POPC   C4A47034   1.964  20.641   7.350
 8020POPC   C1B47035   1.751  20.604   6.450
 8020POPC   C2B47036   1.774  20.551   6.750
 8020POPC   C3B47037   1.774  20.607   7.050
 8020POPC   C4B47038   1.721  20.606   7.350
 8021POPC   NC347039  36.139  43.923   5.550
 8021POPC   PO447040  36.156  43.926   5.850
 8021POPC   GL147041  36.107  43.892   6.150
 8021POPC   GL247042  35.987  43.846   6.150
 8021POPC   C1A47043  36.138  43.873   6.450
 8021POPC   D2A47044  36.079  43.880   6.750
 8021POPC   C3A47045  36.093  43.930   7.050
 8021POPC   C4A47046  36.141  43.879   7.350
 8021POPC   C1B47047  35.916  43.932   6.450
 8021POPC   C2B47048  35.914  43.881   6.750
 8021POPC   C3B47049  35.870  43.874   7.050
 8021POPC   C4B47050  35.828  43.913   7.350
 8022POPC   NC347051  11.306  29.924   5.550
 8022POPC   PO447052  11.294  29.964   5.850
 8022POPC   GL147053  11.298  29.888   6.150
 8022POPC   GL247054  11.403  29.945   6.150
 8022POPC   C1A47055  11.300  29.916   6.450
 8022POPC   D2A47056  11.253  29.872   6.750
 8022POPC   C3A47057  11.259  29.957   7.050
 8022POPC   C4A47058  11.309  29.938   7.350
 8022POPC   C1B47059  11.482  29.980   6.450
 8022POPC   C2B47060  11.494  30.009   6.750
 8022POPC   C3B47061  11.483  30.026   7.050
 8022POPC   C4B47062  11.581  30.036   7.350
 8023POPC   NC347063   3.494  12.810   5.550
 8023POPC   PO447064   3.505  12.841   5.850
 8023POPC   GL147065   3.566  12.897   6.150
 8023POPC   GL247066   3.557  12.688   6.150
 8023POPC   C1A47067   3.511  12.817   6.450
 8023POPC   D2A47068   3.516  12.813   6.750
 8023POPC   C3A47069   3.570  12.871   7.050
 8023POPC   C4A47070   3.504  12.838   7.350
 8023POPC   C1B47071   3.546  12.631   6.450
 8023POPC   C2B47072   3.516  12.612   6.750
 8023POPC   C3B47073   3.474  12.626   7.050
 8023POPC   C4B47074   3.487  12.609   7.350
 8024POPC   NC347075  22.161  34.538   5.550
 8024POPC   PO447076  22.188  34.530   5.850
 8024POPC   GL147077  22.129  34.534   6.150
 8024POPC   GL247078  22.097  34.697   6.150
 8024POPC   C1A47079  22.193  34.535   6.450
 8024POPC   D2A47080  22.181  34.558   6.750
 8024POPC   C3A47081  22.198  34.535   7.050
 8024POPC   C4A47082  22.164  34.550   7.350
 8024POPC   C1B47083  21.998  34.820   6.450
 8024POPC   C2B47084  21.966  34.736   6.750
 8024POPC   C3B47085  22.015  34.732   7.050
 8024POPC   C4B47086  21.989  34.816   7.350
 8025POPC   NC347087   6.645  23.711   5.550
 8025POPC   PO447088   6.674  23.724   5.850
 8025POPC   GL147089   6.623  23.704   6.150
 8025POPC   GL247090   6.776  23.682   6.150
 8025POPC   C1A47091   6.677  23.742   6.450
 8025POPC   D2A47092   6.637  23.670   6.750
 8025POPC   C3A47093   6.669  23.763   7.050
 8025POPC   C4A47094   6.681  23.704   7.350
 8025POPC   C1B47095   6.870  23.729   6.450
 8025POPC   C2B47096   6.882  23.709   6.750
 8025POPC   C3B47097   6.892  23.686   7.050
 8025POPC   C4B47098   6.928  23.762   7.350
 8026POPC   NC347099  10.482  42.324   5.550
 8026POPC   PO447100  10.487  42.302   5.850
 8026POPC   GL147101  10.490  42.357   6.150
 8026POPC   GL247102  10.387  42.242   6.150
 8026POPC   C1A47103  10.563  42.337   6.450
 8026POPC   D2A47104  10.543  42.285   6.750
 8026POPC   C3A47105  10.552  42.310   7.050
 8026POPC   C4A47106  10.565  42.285   7.350
 8026POPC   C1B47107  10.296  42.192   6.450
 8026POPC   C2B47108  10.286  42.224   6.750
 8026POPC   C3B47109  10.260  42.227   7.050
 8026POPC   C4B47110  10.358  42.238   7.350
 8027POPC   NC347111  40.024   2.749   5.550
 8027POPC   PO447112  39.963   2.769   5.850
 8027POPC   GL147113  39.975   2.757   6.150
 8027POPC   GL247114  40.010   2.690   6.150
 8027POPC   C1A47115  40.043   2.780   6.450
 8027POPC   D2A47116  40.033   2.754   6.750
 8027POPC   C3A47117  40.020   2.797   7.050
 8027POPC   C4A47118  40.039   2.719   7.350
 8027POPC   C1B47119  39.988   2.470   6.450
 8027POPC   C2B47120  39.998   2.544   6.750
 8027POPC   C3B47121  40.085   2.523   7.050
 8027POPC   C4B47122  40.031   2.538   7.350
 8028POPC   NC347123  19.102  25.996   5.550
 8028POPC   PO447124  19.078  26.062   5.850
 8028POPC   GL147125  19.051  25.998   6.150
 8028POPC   GL247126  18.992  26.198   6.150
 8028POPC   C1A47127  19.103  26.036   6.450
 8028POPC   D2A47128  19.031  26.084   6.750
 8028POPC   C3A47129  19.029  26.029   7.050
 8028POPC   C4A47130  19.048  26.023   7.350
 8028POPC   C1B47131  19.028  26.307   6.450
 8028POPC   C2B47132  18.987  26.258   6.750
 8028POPC   C3B47133  19.043  26.287   7.050
 8028POPC   C4B47134  19.044  26.247   7.350
 8029POPC   NC347135  17.463  19.826   5.550
 8029POPC   PO447136  17.482  19.839   5.850
 8029POPC   GL147137  17.492  19.867   6.150
 8029POPC   GL247138  17.623  19.784   6.150
 8029POPC   C1A47139  17.483  19.875   6.450
 8029POPC   D2A47140  17.511  19.855   6.750
 8029POPC   C3A47141  17.554  19.856   7.050
 8029POPC   C4A47142  17.526  19.801   7.350
 8029POPC   C1B47143  17.728  19.663   6.450
 8029POPC   C2B47144  17.678  19.721   6.750
 8029POPC   C3B47145  17.745  19.689   7.050
 8029POPC   C4B47146  17.723  19.665   7.350
 8030POPC   NC347147   2.810   7.381   5.550
 8030POPC   PO447148   2.741   7.470   5.850
 8030POPC   GL147149   2.776   7.436   6.150
 8030POPC   GL247150   2.767   7.562   6.150
 8030POPC   C1A47151   2.783   7.461   6.450
 8030POPC   D2A47152   2.790   7.375   6.750
 8030POPC   C3A47153   2.721   7.394   7.050
 8030POPC   C4A47154   2.766   7.467   7.350
 8030POPC   C1B47155   2.770   7.635   6.450
 8030POPC   C2B47156   2.773   7.697   6.750
 8030POPC   C3B47157   2.691   7.638   7.050
 8030POPC   C4B47158   2.742   7.619   7.350
 8031POPC   NC347159  19.082  42.350   5.550
 8031POPC   PO447160  19.012  42.327   5.850
 8031POPC   GL147161  19.098  42.323   6.150
 8031POPC   GL247162  19.138  42.251   6.150
 8031POPC   C1A47163  19.031  42.307   6.450
 8031POPC   D2A47164  19.064  42.346   6.750
 8031POPC   C3A47165  19.035  42.330   7.050
 8031POPC   C4A47166  19.013  42.349   7.350
 8031POPC   C1B47167  19.164  42.141   6.450
 8031POPC   C2B47168  19.123  42.136   6.750
 8031POPC   C3B47169  19.083  42.093   7.050
 8031POPC   C4B47170  19.120  42.100   7.350
 8032POPC   NC347171  19.805  35.383   5.550
 8032POPC   PO447172  19.791  35.371   5.850
 8032POPC   GL147173  19.839  35.385   6.150
 8032POPC   GL247174  19.948  35.279   6.150
 8032POPC   C1A47175  19.861  35.349   6.450
 8032POPC   D2A47176  19.832  35.313   6.750
 8032POPC   C3A47177  19.785  35.383   7.050
 8032POPC   C4A47178  19.829  35.368   7.350
 8032POPC   C1B47179  20.078  35.261   6.450
 8032POPC   C2B47180  20.065  35.341   6.750
 8032POPC   C3B47181  20.078  35.274   7.050
 8032POPC   C4B47182  20.049  35.315   7.350
 8033POPC   NC347183  27.601  15.177   5.550
 8033POPC   PO447184  27.599  15.156   5.850
 8033POPC   GL147185  27.547  15.220   6.150
 8033POPC   GL247186  27.661  15.153   6.150
 8033POPC   C1A47187  27.619  15.210   6.450
 8033POPC   D2A47188  27.593  15.200   6.750
 8033POPC   C3A47189  27.585  15.156   7.050
 8033POPC   C4A47190  27.642  15.187   7.350
 8033POPC   C1B47191  27.856  15.050   6.450
 8033POPC   C2B47192  27.841  15.111   6.750
 8033POPC   C3B47193  27.872  15.131   7.050
 8033POPC   C4B47194  27.776  15.065   7.350
 8034POPC   NC347195  10.479  36.928   5.550
 8034POPC   PO447196  10.497  36.886   5.850
 8034POPC   GL147197  10.535  36.914   6.150
 8034POPC   GL247198  10.395  36.891   6.150
 8034POPC   C1A47199  10.550  36.882   6.450
 8034POPC   D2A47200  10.504  36.894   6.750
 8034POPC   C3A47201  10.537  36.915   7.050
 8034POPC   C4A47202  10.509  36.907   7.350
 8034POPC   C1B47203  10.251  36.939   6.450
 8034POPC   C2B47204  10.296  36.985   6.750
 8034POPC   C3B47205  10.309  36.954   7.050
 8034POPC   C4B47206  10.270  37.018   7.350
 8035POPC   NC347207  22.169  18.238   5.550
 8035POPC   PO447208  22.138  18.307   5.850
 8035POPC   GL147209  22.190  18.311   6.150
 8035POPC   GL247210  22.130  18.391   6.150
 8035POPC   C1A47211  22.181  18.290   6.450
 8035POPC   D2A47212  22.204  18.305   6.750
 8035POPC   C3A47213  22.194  18.245   7.050
 8035POPC   C4A47214  22.144  18.326   7.350
 8035POPC   C1B47215  22.069  18.515   6.450
 8035POPC   C2B47216  22.070  18.483   6.750
 8035POPC   C3B47217  22.006  18.512   7.050
 8035POPC   C4B47218  22.006  18.484   7.350
 8036POPC   NC347219  30.650   8.219   5.550
 8036POPC   PO447220  30.705   8.222   5.850
 8036POPC   GL147221  30.729   8.223   6.150
 8036POPC   GL247222  30.606   8.172   6.150
 8036POPC   C1A47223  30.692   8.169   6.450
 8036POPC   D2A47224  30.702   8.168   6.750
 8036POPC   C3A47225  30.693   8.231   7.050
 8036POPC   C4A47226  30.693   8.147   7.350
 8036POPC   C1B47227  30.460   8.236   6.450
 8036POPC   C2B47228  30.495   8.240   6.750
 8036POPC   C3B47229  30.469   8.227   7.050
 8036POPC   C4B47230  30.441   8.167   7.350
 8037POPC   NC347231  21.402   4.336   5.550
 8037POPC   PO447232  21.357   4.315   5.850
 8037POPC   GL147233  21.421   4.328   6.150
 8037POPC   GL247234  21.323   4.263   6.150
 8037POPC   C1A47235  21.435   4.352   6.450
 8037POPC   D2A47236  21.367   4.284   6.750
 8037POPC   C3A47237  21.383   4.287   7.050
 8037POPC   C4A47238  21.421   4.299   7.350
 8037POPC   C1B47239  21.168   4.178   6.450
 8037POPC   C2B47240  21.138   4.226   6.750
 8037POPC   C3B47241  21.135   4.237   7.050
 8037POPC   C4B47242  21.158   4.221   7.350
 8038POPC   NC347243  22.961   8.934   5.550
 8038POPC   PO447244  22.965   8.997   5.850
 8038POPC   GL147245  22.980   8.952   6.150
 8038POPC   GL247246  23.035   8.978   6.150
 8038POPC   C1A47247  22.893   8.949   6.450
 8038POPC   D2A47248  22.959   8.998   6.750
 8038POPC   C3A47249  22.943   8.971   7.050
 8038POPC   C4A47250  22.931   8.952   7.350
 8038POPC   C1B47251  23.176   8.884   6.450
 8038POPC   C2B47252  23.154   8.935   6.750
 8038POPC   C3B47253  23.175   8.975   7.050
 8038POPC   C4B47254  23.172   8.926   7.350
 8039POPC   NC347255  26.047  16.755   5.550
 8039POPC   PO447256  26.031  16.768   5.850
 8039POPC   GL147257  26.015  16.742   6.150
 8039POPC   GL247258  26.051  16.615   6.150
 8039POPC   C1A47259  26.077  16.777   6.450
 8039POPC   D2A47260  26.076  16.733   6.750
 8039POPC   C3A47261  26.081  16.737   7.050
 8039POPC   C4A47262  26.071  16.688   7.350
 8039POPC   C1B47263  26.121  16.508   6.450
 8039POPC   C2B47264  26.083  16.464   6.750
 8039POPC   C3B47265  26.138  16.485   7.050
 8039POPC   C4B47266  26.134  16.458   7.350
 8040POPC   NC347267   6.640   5.855   5.550
 8040POPC   PO447268   6.667   5.840   5.850
 8040POPC   GL147269   6.691   5.881   6.150
 8040POPC   GL247270   6.562   5.970   6.150
 8040POPC   C1A47271   6.623   5.855   6.450
 8040POPC   D2A47272   6.678   5.852   6.750
 8040POPC   C3A47273   6.658   5.853   7.050
 8040POPC   C4A47274   6.652   5.826   7.350
 8040POPC   C1B47275   6.607   6.090   6.450
 8040POPC   C2B47276   6.603   6.146   6.750
 8040POPC   C3B47277   6.528   6.127   7.050
 8040POPC   C4B47278   6.522   6.133   7.350
 8041POPC   NC347279  15.220  25.252   5.550
 8041POPC   PO447280  15.218  25.244   5.850
 8041POPC   GL147281  15.150  25.260   6.150
 8041POPC   GL247282  15.234  25.411   6.150
 8041POPC   C1A47283  15.160  25.274   6.450
 8041POPC   D2A47284  15.192  25.295   6.750
 8041POPC   C3A47285  15.195  25.294   7.050
 8041POPC   C4A47286  15.201  25.228   7.350
 8041POPC   C1B47287  15.328  25.430   6.450
 8041POPC   C2B47288  15.344  25.490   6.750
 8041POPC   C3B47289  15.315  25.438   7.050
 8041POPC   C4B47290  15.309  25.503   7.350
 8042POPC   NC347291  24.441   0.457   5.550
 8042POPC   PO447292  24.460   0.484   5.850
 8042POPC   GL147293  24.441   0.405   6.150
 8042POPC   GL247294  24.557   0.574   6.150
 8042POPC   C1A47295  24.484   0.466   6.450
 8042POPC   D2A47296  24.456   0.440   6.750
 8042POPC   C3A47297  24.498   0.457   7.050
 8042POPC   C4A47298  24.452   0.428   7.350
 8042POPC   C1B47299  24.595   0.664   6.450
 8042POPC   C2B47300  24.630   0.605   6.750
 8042POPC   C3B47301  24.626   0.651   7.050
 8042POPC   C4B47302  24.652   0.633   7.350
 8043POPC   NC347303  35.347   1.216   5.550
 8043POPC   PO447304  35.307   1.259   5.850
 8043POPC   GL147305  35.390   1.183   6.150
 8043POPC   GL247306  35.337   1.326   6.150
 8043POPC   C1A47307  35.339   1.235   6.450
 8043POPC   D2A47308  35.392   1.222   6.750
 8043POPC   C3A47309  35.393   1.236   7.050
 8043POPC   C4A47310  35.356   1.235   7.350
 8043POPC   C1B47311  35.190   1.381   6.450
 8043POPC   C2B47312  35.176   1.409   6.750
 8043POPC   C3B47313  35.183   1.471   7.050
 8043POPC   C4B47314  35.223   1.429   7.350
 8044POPC   NC347315  34.622  32.243   5.550
 8044POPC   PO447316  34.555  32.217   5.850
 8044POPC   GL147317  34.618  32.220   6.150
 8044POPC   GL247318  34.515  32.337   6.150
 8044POPC   C1A47319  34.528  32.253   6.450
 8044POPC   D2A47320  34.594  32.269   6.750
 8044POPC   C3A47321  34.527  32.296   7.050
 8044POPC   C4A47322  34.605  32.235   7.350
 8044POPC   C1B47323  34.465  32.444   6.450
 8044POPC   C2B47324  34.474  32.500   6.750
 8044POPC   C3B47325  34.455  32.451   7.050
 8044POPC   C4B47326  34.457  32.500   7.350
 8045POPC   NC347327   4.340   1.969   5.550
 8045POPC   PO447328   4.282   1.982   5.850
 8045POPC   GL147329   4.328   1.949   6.150
 8045POPC   GL247330   4.249   1.927   6.150
 8045POPC   C1A47331   4.296   2.039   6.450
 8045POPC   D2A47332   4.273   1.962   6.750
 8045POPC   C3A47333   4.361   1.949   7.050
 8045POPC   C4A47334   4.305   1.962   7.350
 8045POPC   C1B47335   4.225   1.787   6.450
 8045POPC   C2B47336   4.245   1.790   6.750
 8045POPC   C3B47337   4.211   1.752   7.050
 8045POPC   C4B47338   4.175   1.764   7.350
 8046POPC   NC347339   3.561  20.595   5.550
 8046POPC   PO447340   3.538  20.658   5.850
 8046POPC   GL147341   3.582  20.625   6.150
 8046POPC   GL247342   3.424  20.467   6.150
 8046POPC   C1A47343   3.502  20.584   6.450
 8046POPC   D2A47344   3.561  20.648   6.750
 8046POPC   C3A47345   3.543  20.608   7.050
 8046POPC   C4A47346   3.503  20.590   7.350
 8046POPC   C1B47347   3.407  20.420   6.450
 8046POPC   C2B47348   3.441  20.451   6.750
 8046POPC   C3B47349   3.350  20.362   7.050
 8046POPC   C4B47350   3.343  20.435   7.350
 8047POPC   NC347351  13.620  33.755   5.550
 8047POPC   PO447352  13.671  33.838   5.850
 8047POPC   GL147353  13.595  33.795   6.150
 8047POPC   GL247354  13.520  33.908   6.150
 8047POPC   C1A47355  13.625  33.797   6.450
 8047POPC   D2A47356  13.619  33.821   6.750
 8047POPC   C3A47357  13.610  33.791   7.050
 8047POPC   C4A47358  13.592  33.776   7.350
 8047POPC   C1B47359  13.470  34.010   6.450
 8047POPC   C2B47360  13.470  33.990   6.750
 8047POPC   C3B47361  13.477  34.021   7.050
 8047POPC   C4B47362  13.424  34.015   7.350
 8048POPC   NC347363   2.036  23.712   5.550
 8048POPC   PO447364   2.003  23.678   5.850
 8048POPC   GL147365   1.959  23.695   6.150
 8048POPC   GL247366   1.919  23.723   6.150
 8048POPC   C1A47367   1.976  23.763   6.450
 8048POPC   D2A47368   1.957  23.693   6.750
 8048POPC   C3A47369   1.988  23.680   7.050
 8048POPC   C4A47370   1.955  23.705   7.350
 8048POPC   C1B47371   1.711  23.791   6.450
 8048POPC   C2B47372   1.768  23.837   6.750
 8048POPC   C3B47373   1.767  23.831   7.050
 8048POPC   C4B47374   1.761  23.788   7.350
 8049POPC   NC347375  15.989  12.854   5.550
 8049POPC   PO447376  15.972  12.848   5.850
 8049POPC   GL147377  16.001  12.899   6.150
 8049POPC   GL247378  15.983  12.991   6.150
 8049POPC   C1A47379  15.908  12.824   6.450
 8049POPC   D2A47380  15.945  12.892   6.750
 8049POPC   C3A47381  15.975  12.854   7.050
 8049POPC   C4A47382  15.924  12.893   7.350
 8049POPC   C1B47383  15.948  13.068   6.450
 8049POPC   C2B47384  15.887  13.091   6.750
 8049POPC   C3B47385  15.908  13.066   7.050
 8049POPC   C4B47386  15.912  13.126   7.350
 8050POPC   NC347387  29.157  43.109   5.550
 8050POPC   PO447388  29.111  43.152   5.850
 8050POPC   GL147389  29.136  43.072   6.150
 8050POPC   GL247390  29.212  43.025   6.150
 8050POPC   C1A47391  29.156  43.139   6.450
 8050POPC   D2A47392  29.108  43.084   6.750
 8050POPC   C3A47393  29.097  43.075   7.050
 8050POPC   C4A47394  29.173  43.129   7.350
 8050POPC   C1B47395  29.219  42.874   6.450
 8050POPC   C2B47396  29.191  42.887   6.750
 8050POPC   C3B47397  29.135  42.853   7.050
 8050POPC   C4B47398  29.165  42.902   7.350
 8051POPC   NC347399  12.874  31.431   5.550
 8051POPC   PO447400  12.853  31.431   5.850
 8051POPC   GL147401  12.874  31.519   6.150
 8051POPC   GL247402  12.845  31.350   6.150
 8051POPC   C1A47403  12.875  31.458   6.450
 8051POPC   D2A47404  12.874  31.481   6.750
 8051POPC   C3A47405  12.841  31.426   7.050
 8051POPC   C4A47406  12.834  31.441   7.350
 8051POPC   C1B47407  12.743  31.277   6.450
 8051POPC   C2B47408  12.727  31.232   6.750
 8051POPC   C3B47409  12.737  31.252   7.050
 8051POPC   C4B47410  12.695  31.293   7.350
 8052POPC   NC347411  43.157  26.841   5.550
 8052POPC   PO447412  43.116  26.830   5.850
 8052POPC   GL147413  43.152  26.783   6.150
 8052POPC   GL247414  42.965  26.772   6.150
 8052POPC   C1A47415  43.091  26.813   6.450
 8052POPC   D2A47416  43.076  26.778   6.750
 8052POPC   C3A47417  43.150  26.834   7.050
 8052POPC   C4A47418  43.151  26.813   7.350
 8052POPC   C1B47419  42.876  26.669   6.450
 8052POPC   C2B47420  42.876  26.726   6.750
 8052POPC   C3B47421  42.876  26.671   7.050
 8052POPC   C4B47422  42.893  26.736   7.350
 8053POPC   NC347423  31.505  12.859   5.550
 8053POPC   PO447424  31.476  12.827   5.850
 8053POPC   GL147425  31.490  12.888   6.150
 8053POPC   GL247426  31.604  12.828   6.150
 8053POPC   C1A47427  31.429  12.824   6.450
 8053POPC   D2A47428  31.492  12.865   6.750
 8053POPC   C3A47429  31.445  12.813   7.050
 8053POPC   C4A47430  31.450  12.881   7.350
 8053POPC   C1B47431  31.681  12.845   6.450
 8053POPC   C2B47432  31.677  12.824   6.750
 8053POPC   C3B47433  31.734  12.855   7.050
 8053POPC   C4B47434  31.680  12.763   7.350
 8054POPC   NC347435  40.741  18.268   5.550
 8054POPC   PO447436  40.749  18.297   5.850
 8054POPC   GL147437  40.825  18.314   6.150
 8054POPC   GL247438  40.638  18.327   6.150
 8054POPC   C1A47439  40.787  18.311   6.450
 8054POPC   D2A47440  40.813  18.327   6.750
 8054POPC   C3A47441  40.738  18.242   7.050
 8054POPC   C4A47442  40.814  18.244   7.350
 8054POPC   C1B47443  40.506  18.353   6.450
 8054POPC   C2B47444  40.574  18.292   6.750
 8054POPC   C3B47445  40.567  18.290   7.050
 8054POPC   C4B47446  40.499  18.322   7.350
 8055POPC   NC347447  19.048  20.570   5.550
 8055POPC   PO447448  19.081  20.647   5.850
 8055POPC   GL147449  19.010  20.580   6.150
 8055POPC   GL247450  19.000  20.517   6.150
 8055POPC   C1A47451  19.024  20.656   6.450
 8055POPC   D2A47452  19.058  20.578   6.750
 8055POPC   C3A47453  19.077  20.629   7.050
 8055POPC   C4A47454  19.089  20.595   7.350
 8055POPC   C1B47455  18.876  20.459   6.450
 8055POPC   C2B47456  18.922  20.417   6.750
 8055POPC   C3B47457  18.922  20.389   7.050
 8055POPC   C4B47458  18.906  20.384   7.350
 8056POPC   NC347459  26.032  35.326   5.550
 8056POPC   PO447460  26.032  35.306   5.850
 8056POPC   GL147461  26.069  35.335   6.150
 8056POPC   GL247462  26.176  35.441   6.150
 8056POPC   C1A47463  26.030  35.321   6.450
 8056POPC   D2A47464  26.005  35.356   6.750
 8056POPC   C3A47465  25.995  35.323   7.050
 8056POPC   C4A47466  26.009  35.313   7.350
 8056POPC   C1B47467  26.311  35.478   6.450
 8056POPC   C2B47468  26.319  35.451   6.750
 8056POPC   C3B47469  26.252  35.456   7.050
 8056POPC   C4B47470  26.231  35.453   7.350
 8057POPC   NC347471  15.218  39.961   5.550
 8057POPC   PO447472  15.172  40.032   5.850
 8057POPC   GL147473  15.198  40.031   6.150
 8057POPC   GL247474  15.034  39.949   6.150
 8057POPC   C1A47475  15.145  39.985   6.450
 8057POPC   D2A47476  15.163  40.030   6.750
 8057POPC   C3A47477  15.160  40.011   7.050
 8057POPC   C4A47478  15.196  39.962   7.350
 8057POPC   C1B47479  14.949  39.919   6.450
 8057POPC   C2B47480  14.956  39.965   6.750
 8057POPC   C3B47481  14.946  40.000   7.050
 8057POPC   C4B47482  14.917  40.009   7.350
 8058POPC   NC347483  21.345   2.719   5.550
 8058POPC   PO447484  21.377   2.800   5.850
 8058POPC   GL147485  21.347   2.761   6.150
 8058POPC   GL247486  21.460   2.662   6.150
 8058POPC   C1A47487  21.411   2.806   6.450
 8058POPC   D2A47488  21.379   2.741   6.750
 8058POPC   C3A47489  21.410   2.792   7.050
 8058POPC   C4A47490  21.423   2.733   7.350
 8058POPC   C1B47491  21.587   2.666   6.450
 8058POPC   C2B47492  21.570   2.639   6.750
 8058POPC   C3B47493  21.603   2.654   7.050
 8058POPC   C4B47494  21.613   2.687   7.350
 8059POPC   NC347495  44.625  18.285   5.550
 8059POPC   PO447496  44.663  18.278   5.850
 8059POPC   GL147497  44.629  18.256   6.150
 8059POPC   GL247498  44.642  18.381   6.150
 8059POPC   C1A47499  44.696  18.317   6.450
 8059POPC   D2A47500  44.712  18.315   6.750
 8059POPC   C3A47501  44.682  18.288   7.050
 8059POPC   C4A47502  44.686  18.267   7.350
 8059POPC   C1B47503  44.685  18.506   6.450
 8059POPC   C2B47504  44.689  18.481   6.750
 8059POPC   C3B47505  44.746  18.483   7.050
 8059POPC   C4B47506  44.740  18.539   7.350
 8060POPC   NC347507  23.689  12.056   5.550
 8060POPC   PO447508  23.742  12.045   5.850
 8060POPC   GL147509  23.695  12.124   6.150
 8060POPC   GL247510  23.594  11.937   6.150
 8060POPC   C1A47511  23.756  12.052   6.450
 8060POPC   D2A47512  23.746  12.120   6.750
 8060POPC   C3A47513  23.667  12.122   7.050
 8060POPC   C4A47514  23.736  12.118   7.350
 8060POPC   C1B47515  23.571  11.844   6.450
 8060POPC   C2B47516  23.579  11.849   6.750
 8060POPC   C3B47517  23.608  11.847   7.050
 8060POPC   C4B47518  23.545  11.906   7.350
 8061POPC   NC347519   9.734  43.903   5.550
 8061POPC   PO447520   9.788  43.855   5.850
 8061POPC   GL147521   9.741  43.900   6.150
 8061POPC   GL247522   9.860  43.950   6.150
 8061POPC   C1A47523   9.699  43.898   6.450
 8061POPC   D2A47524   9.723  43.928   6.750
 8061POPC   C3A47525   9.766  43.844   7.050
 8061POPC   C4A47526   9.746  43.841   7.350
 8061POPC   C1B47527   9.975  44.089   6.450
 8061POPC   C2B47528   9.936  44.055   6.750
 8061POPC   C3B47529   9.899  44.066   7.050
 8061POPC   C4B47530   9.891  44.080   7.350
 8062POPC   NC347531  33.799  33.022   5.550
 8062POPC   PO447532  33.841  33.064   5.850
 8062POPC   GL147533  33.801  33.067   6.150
 8062POPC   GL247534  33.909  33.092   6.150
 8062POPC   C1A47535  33.831  33.012   6.450
 8062POPC   D2A47536  33.798  32.998   6.750
 8062POPC   C3A47537  33.761  33.030   7.050
 8062POPC   C4A47538  33.782  32.976   7.350
 8062POPC   C1B47539  33.916  33.234   6.450
 8062POPC   C2B47540  34.005  33.228   6.750
 8062POPC   C3B47541  33.970  33.187   7.050
 8062POPC   C4B47542  33.987  33.184   7.350
 8063POPC   NC347543  43.858  26.846   5.550
 8063POPC   PO447544  43.842  26.800   5.850
 8063POPC   GL147545  43.855  26.806   6.150
 8063POPC   GL247546  43.827  26.744   6.150
 8063POPC   C1A47547  43.879  26.854   6.450
 8063POPC   D2A47548  43.839  26.825   6.750
 8063POPC   C3A47549  43.839  26.783   7.050
 8063POPC   C4A47550  43.879  26.834   7.350
 8063POPC   C1B47551  43.721  26.633   6.450
 8063POPC   C2B47552  43.711  26.637   6.750
 8063POPC   C3B47553  43.739  26.671   7.050
 8063POPC   C4B47554  43.750  26.612   7.350
 8064POPC   NC347555  26.820  18.233   5.550
 8064POPC   PO447556  26.797  18.239   5.850
 8064POPC   GL147557  26.840  18.331   6.150
 8064POPC   GL247558  26.947  18.348   6.150
 8064POPC   C1A47559  26.862  18.293   6.450
 8064POPC   D2A47560  26.818  18.236   6.750
 8064POPC   C3A47561  26.772  18.240   7.050
 8064POPC   C4A47562  26.851  18.307   7.350
 8064POPC   C1B47563  27.042  18.372   6.450
 8064POPC   C2B47564  27.027  18.406   6.750
 8064POPC   C3B47565  27.052  18.365   7.050
 8064POPC   C4B47566  27.078  18.416   7.350
 8065POPC   NC347567   3.570  43.153   5.550
 8065POPC   PO447568   3.502  43.155   5.850
 8065POPC   GL147569   3.525  43.089   6.150
 8065POPC   GL247570   3.510  42.954   6.150
 8065POPC   C1A47571   3.494  43.160   6.450
 8065POPC   D2A47572   3.562  43.116   6.750
 8065POPC   C3A47573   3.575  43.094   7.050
 8065POPC   C4A47574   3.510  43.141   7.350
 8065POPC   C1B47575   3.519  42.884   6.450
 8065POPC   C2B47576   3.553  42.816   6.750
 8065POPC   C3B47577   3.499  42.828   7.050
 8065POPC   C4B47578   3.522  42.822   7.350
 8066POPC   NC347579  24.524  32.997   5.550
 8066POPC   PO447580  24.490  32.991   5.850
 8066POPC   GL147581  24.473  32.986   6.150
 8066POPC   GL247582  24.582  33.055   6.150
 8066POPC   C1A47583  24.442  33.008   6.450
 8066POPC   D2A47584  24.478  33.040   6.750
 8066POPC   C3A47585  24.443  33.007   7.050
 8066POPC   C4A47586  24.536  33.000   7.350
 8066POPC   C1B47587  24.670  33.183   6.450
 8066POPC   C2B47588  24.690  33.170   6.750
 8066POPC   C3B47589  24.652  33.154   7.050
 8066POPC   C4B47590  24.713  33.169   7.350
 8067POPC   NC347591  32.219  39.273   5.550
 8067POPC   PO447592  32.256  39.192   5.850
 8067POPC   GL147593  32.281  39.190   6.150
 8067POPC   GL247594  32.158  39.107   6.150
 8067POPC   C1A47595  32.284  39.224   6.450
 8067POPC   D2A47596  32.216  39.262   6.750
 8067POPC   C3A47597  32.218  39.279   7.050
 8067POPC   C4A47598  32.260  39.207   7.350
 8067POPC   C1B47599  32.106  39.024   6.450
 8067POPC   C2B47600  32.108  39.022   6.750
 8067POPC   C3B47601  32.072  39.062   7.050
 8067POPC   C4B47602  32.021  39.070   7.350
 8068POPC   NC347603   0.484  26.018   5.550
 8068POPC   PO447604   0.404  26.079   5.850
 8068POPC   GL147605   0.450  26.022   6.150
 8068POPC   GL247606   0.515  25.935   6.150
 8068POPC   C1A47607   0.475  26.081   6.450
 8068POPC   D2A47608   0.414  26.014   6.750
 8068POPC   C3A47609   0.452  26.005   7.050
 8068POPC   C4A47610   0.412  26.076   7.350
 8068POPC   C1B47611   0.596  25.820   6.450
 8068POPC   C2B47612   0.552  25.840   6.750
 8068POPC   C3B47613   0.581  25.794   7.050
 8068POPC   C4B47614   0.575  25.796   7.350
 8069POPC   NC347615  16.690  41.582   5.550
 8069POPC   PO447616  16.749  41.600   5.850
 8069POPC   GL147617  16.735  41.531   6.150
 8069POPC   GL247618  16.663  41.608   6.150
 8069POPC   C1A47619  16.720  41.550   6.450
 8069POPC   D2A47620  16.757  41.601   6.750
 8069POPC   C3A47621  16.752  41.595   7.050
 8069POPC   C4A47622  16.712  41.553   7.350
 8069POPC   C1B47623  16.520  41.757   6.450
 8069POPC   C2B47624  16.530  41.764   6.750
 8069POPC   C3B47625  16.506  41.722   7.050
 8069POPC   C4B47626  16.562  41.682   7.350
 8070POPC   NC347627  37.653   5.115   5.550
 8070POPC   PO447628  37.680   5.137   5.850
 8070POPC   GL147629  37.705   5.112   6.150
 8070POPC   GL247630  37.543   5.038   6.150
 8070POPC   C1A47631  37.696   5.079   6.450
 8070POPC   D2A47632  37.642   5.139   6.750
 8070POPC   C3A47633  37.708   5.100   7.050
 8070POPC   C4A47634  37.655   5.091   7.350
 8070POPC   C1B47635  37.398   5.000   6.450
 8070POPC   C2B47636  37.470   5.023   6.750
 8070POPC   C3B47637  37.438   5.013   7.050
 8070POPC   C4B47638  37.409   5.043   7.350
 8071POPC   NC347639   8.172  35.378   5.550
 8071POPC   PO447640   8.150  35.376   5.850
 8071POPC   GL147641   8.230  35.387   6.150
 8071POPC   GL247642   8.345  35.327   6.150
 8071POPC   C1A47643   8.157  35.378   6.450
 8071POPC   D2A47644   8.206  35.350   6.750
 8071POPC   C3A47645   8.211  35.395   7.050
 8071POPC   C4A47646   8.171  35.334   7.350
 8071POPC   C1B47647   8.468  35.375   6.450
 8071POPC   C2B47648   8.400  35.338   6.750
 8071POPC   C3B47649   8.412  35.390   7.050
 8071POPC   C4B47650   8.416  35.342   7.350
 8072POPC   NC347651  27.620  22.919   5.550
 8072POPC   PO447652  27.582  22.962   5.850
 8072POPC   GL147653  27.598  22.961   6.150
 8072POPC   GL247654  27.558  23.022   6.150
 8072POPC   C1A47655  27.574  22.952   6.450
 8072POPC   D2A47656  27.634  22.963   6.750
 8072POPC   C3A47657  27.621  22.970   7.050
 8072POPC   C4A47658  27.553  22.895   7.350
 8072POPC   C1B47659  27.529  23.208   6.450
 8072POPC   C2B47660  27.539  23.139   6.750
 8072POPC   C3B47661  27.457  23.201   7.050
 8072POPC   C4B47662  27.461  23.198   7.350
 8073POPC   NC347663  33.785  40.825   5.550
 8073POPC   PO447664  33.765  40.801   5.850
 8073POPC   GL147665  33.773  40.781   6.150
 8073POPC   GL247666  33.932  40.779   6.150
 8073POPC   C1A47667  33.784  40.781   6.450
 8073POPC   D2A47668  33.830  40.741   6.750
 8073POPC   C3A47669  33.756  40.740   7.050
 8073POPC   C4A47670  33.773  40.746   7.350
 8073POPC   C1B47671  34.061  40.914   6.450
 8073POPC   C2B47672  33.987  40.887   6.750
 8073POPC   C3B47673  34.050  40.874   7.050
 8073POPC   C4B47674  34.030  40.838   7.350
 8074POPC   NC347675  26.774  36.951   5.550
 8074POPC   PO447676  26.774  36.934   5.850
 8074POPC   GL147677  26.831  36.934   6.150
 8074POPC   GL247678  26.834  36.771   6.150
 8074POPC   C1A47679  26.838  36.882   6.450
 8074POPC   D2A47680  26.828  36.870   6.750
 8074POPC   C3A47681  26.802  36.881   7.050
 8074POPC   C4A47682  26.809  36.897   7.350
 8074POPC   C1B47683  26.862  36.691   6.450
 8074POPC   C2B47684  26.845  36.630   6.750
 8074POPC   C3B47685  26.888  36.675   7.050
 8074POPC   C4B47686  26.935  36.686   7.350
 8075POPC   NC347687   0.457  23.665   5.550
 8075POPC   PO447688   0.468  23.670   5.850
 8075POPC   GL147689   0.486  23.669   6.150
 8075POPC   GL247690   0.486  23.614   6.150
 8075POPC   C1A47691   0.414  23.739   6.450
 8075POPC   D2A47692   0.457  23.665   6.750
 8075POPC   C3A47693   0.459  23.734   7.050
 8075POPC   C4A47694   0.461  23.752   7.350
 8075POPC   C1B47695   0.548  23.520   6.450
 8075POPC   C2B47696   0.561  23.523   6.750
 8075POPC   C3B47697   0.563  23.499   7.050
 8075POPC   C4B47698   0.564  23.467   7.350
 8076POPC   NC347699  21.363  16.717   5.550
 8076POPC   PO447700  21.385  16.780   5.850
 8076POPC   GL147701  21.413  16.745   6.150
 8076POPC   GL247702  21.399  16.810   6.150
 8076POPC   C1A47703  21.369  16.767   6.450
 8076POPC   D2A47704  21.386  16.743   6.750
 8076POPC   C3A47705  21.417  16.706   7.050
 8076POPC   C4A47706  21.428  16.741   7.350
 8076POPC   C1B47707  21.374  16.940   6.450
 8076POPC   C2B47708  21.280  16.950   6.750
 8076POPC   C3B47709  21.293  16.959   7.050
 8076POPC   C4B47710  21.299  16.972   7.350
 8077POPC   NC347711  17.552   8.957   5.550
 8077POPC   PO447712  17.493   9.001   5.850
 8077POPC   GL147713  17.461   8.977   6.150
 8077POPC   GL247714  17.383   8.994   6.150
 8077POPC   C1A47715  17.539   8.954   6.450
 8077POPC   D2A47716  17.468   8.978   6.750
 8077POPC   C3A47717  17.466   8.933   7.050
 8077POPC   C4A47718  17.545   8.972   7.350
 8077POPC   C1B47719  17.265   9.064   6.450
 8077POPC   C2B47720  17.316   9.143   6.750
 8077POPC   C3B47721  17.282   9.056   7.050
 8077POPC   C4B47722  17.259   9.071   7.350
 8078POPC   NC347723  31.477  29.897   5.550
 8078POPC   PO447724  31.501  29.909   5.850
 8078POPC   GL147725  31.509  29.959   6.150
 8078POPC   GL247726  31.518  30.066   6.150
 8078POPC   C1A47727  31.468  29.936   6.450
 8078POPC   D2A47728  31.476  29.961   6.750
 8078POPC   C3A47729  31.422  29.877   7.050
 8078POPC   C4A47730  31.476  29.894   7.350
 8078POPC   C1B47731  31.532  30.187   6.450
 8078POPC   C2B47732  31.518  30.197   6.750
 8078POPC   C3B47733  31.474  30.145   7.050
 8078POPC   C4B47734  31.489  30.139   7.350
 8079POPC   NC347735  10.574  39.963   5.550
 8079POPC   PO447736  10.527  39.991   5.850
 8079POPC   GL147737  10.539  40.032   6.150
 8079POPC   GL247738  10.639  40.053   6.150
 8079POPC   C1A47739  10.524  39.989   6.450
 8079POPC   D2A47740  10.534  39.977   6.750
 8079POPC   C3A47741  10.537  39.982   7.050
 8079POPC   C4A47742  10.560  39.995   7.350
 8079POPC   C1B47743  10.791  40.031   6.450
 8079POPC   C2B47744  10.771  40.026   6.750
 8079POPC   C3B47745  10.801  40.033   7.050
 8079POPC   C4B47746  10.799  40.079   7.350
 8080POPC   NC347747  36.918  31.500   5.550
 8080POPC   PO447748  36.937  31.435   5.850
 8080POPC   GL147749  36.866  31.441   6.150
 8080POPC   GL247750  36.783  31.413   6.150
 8080POPC   C1A47751  36.859  31.521   6.450
 8080POPC   D2A47752  36.883  31.466   6.750
 8080POPC   C3A47753  36.939  31.515   7.050
 8080POPC   C4A47754  36.944  31.500   7.350
 8080POPC   C1B47755  36.744  31.289   6.450
 8080POPC   C2B47756  36.683  31.350   6.750
 8080POPC   C3B47757  36.751  31.307   7.050
 8080POPC   C4B47758  36.744  31.293   7.350
 8081POPC   NC347759   7.393  34.575   5.550
 8081POPC   PO447760   7.423  34.592   5.850
 8081POPC   GL147761   7.373  34.607   6.150
 8081POPC   GL247762   7.551  34.543   6.150
 8081POPC   C1A47763   7.372  34.575   6.450
 8081POPC   D2A47764   7.446  34.573   6.750
 8081POPC   C3A47765   7.439  34.562   7.050
 8081POPC   C4A47766   7.406  34.540   7.350
 8081POPC   C1B47767   7.655  34.406   6.450
 8081POPC   C2B47768   7.611  34.420   6.750
 8081POPC   C3B47769   7.610  34.448   7.050
 8081POPC   C4B47770   7.666  34.425   7.350
 8082POPC   NC347771  42.290  31.448   5.550
 8082POPC   PO447772  42.323  31.436   5.850
 8082POPC   GL147773  42.348  31.492   6.150
 8082POPC   GL247774  42.432  31.573   6.150
 8082POPC   C1A47775  42.348  31.466   6.450
 8082POPC   D2A47776  42.346  31.488   6.750
 8082POPC   C3A47777  42.370  31.513   7.050
 8082POPC   C4A47778  42.320  31.434   7.350
 8082POPC   C1B47779  42.535  31.672   6.450
 8082POPC   C2B47780  42.468  31.684   6.750
 8082POPC   C3B47781  42.511  31.645   7.050
 8082POPC   C4B47782  42.460  31.634   7.350
 8083POPC   NC347783   1.246   1.981   5.550
 8083POPC   PO447784   1.168   2.026   5.850
 8083POPC   GL147785   1.196   1.991   6.150
 8083POPC   GL247786   1.366   1.944   6.150
 8083POPC   C1A47787   1.247   2.036   6.450
 8083POPC   D2A47788   1.196   2.015   6.750
 8083POPC   C3A47789   1.167   1.988   7.050
 8083POPC   C4A47790   1.204   1.940   7.350
 8083POPC   C1B47791   1.474   1.914   6.450
 8083POPC   C2B47792   1.479   1.935   6.750
 8083POPC   C3B47793   1.495   1.895   7.050
 8083POPC   C4B47794   1.462   1.947   7.350
 8084POPC   NC347795  15.967  19.876   5.550
 8084POPC   PO447796  15.932  19.800   5.850
 8084POPC   GL147797  15.962  19.857   6.150
 8084POPC   GL247798  16.056  19.751   6.150
 8084POPC   C1A47799  15.963  19.814   6.450
 8084POPC   D2A47800  15.994  19.836   6.750
 8084POPC   C3A47801  15.977  19.810   7.050
 8084POPC   C4A47802  15.924  19.802   7.350
 8084POPC   C1B47803  16.146  19.628   6.450
 8084POPC   C2B47804  16.148  19.646   6.750
 8084POPC   C3B47805  16.088  19.635   7.050
 8084POPC   C4B47806  16.116  19.640   7.350
 8085POPC   NC347807  15.191   9.701   5.550
 8085POPC   PO447808  15.160   9.711   5.850
 8085POPC   GL147809  15.174   9.699   6.150
 8085POPC   GL247810  15.073   9.719   6.150
 8085POPC   C1A47811  15.164   9.733   6.450
 8085POPC   D2A47812  15.215   9.793   6.750
 8085POPC   C3A47813  15.134   9.788   7.050
 8085POPC   C4A47814  15.149   9.773   7.350
 8085POPC   C1B47815  14.951   9.728   6.450
 8085POPC   C2B47816  14.910   9.727   6.750
 8085POPC   C3B47817  14.967   9.735   7.050
 8085POPC   C4B47818  14.935   9.747   7.350
 8086POPC   NC347819  34.549  43.894   5.550
 8086POPC   PO447820  34.533  43.926   5.850
 8086POPC   GL147821  34.580  43.853   6.150
 8086POPC   GL247822  34.659  43.895   6.150
 8086POPC   C1A47823  34.620  43.933   6.450
 8086POPC   D2A47824  34.619  43.879   6.750
 8086POPC   C3A47825  34.597  43.930   7.050
 8086POPC   C4A47826  34.531  43.850   7.350
 8086POPC   C1B47827  34.809  43.980   6.450
 8086POPC   C2B47828  34.788  43.950   6.750
 8086POPC   C3B47829  34.811  43.984   7.050
 8086POPC   C4B47830  34.803  43.961   7.350
 8087POPC   NC347831  18.296   0.403   5.550
 8087POPC   PO447832  18.250   0.431   5.850
 8087POPC   GL147833  18.275   0.391   6.150
 8087POPC   GL247834  18.206   0.599   6.150
 8087POPC   C1A47835  18.275   0.437   6.450
 8087POPC   D2A47836  18.259   0.470   6.750
 8087POPC   C3A47837  18.323   0.462   7.050
 8087POPC   C4A47838  18.239   0.447   7.350
 8087POPC   C1B47839  18.203   0.667   6.450
 8087POPC   C2B47840  18.237   0.639   6.750
 8087POPC   C3B47841  18.229   0.681   7.050
 8087POPC   C4B47842  18.236   0.649   7.350
 8088POPC   NC347843   1.218   0.419   5.550
 8088POPC   PO447844   1.186   0.412   5.850
 8088POPC   GL147845   1.229   0.415   6.150
 8088POPC   GL247846   1.322   0.449   6.150
 8088POPC   C1A47847   1.186   0.480   6.450
 8088POPC   D2A47848   1.226   0.475   6.750
 8088POPC   C3A47849   1.235   0.480   7.050
 8088POPC   C4A47850   1.244   0.480   7.350
 8088POPC   C1B47851   1.425   0.477   6.450
 8088POPC   C2B47852   1.416   0.467   6.750
 8088POPC   C3B47853   1.422   0.516   7.050
 8088POPC   C4B47854   1.466   0.484   7.350
 8089POPC   NC347855  33.797   5.867   5.550
 8089POPC   PO447856  33.774   5.887   5.850
 8089POPC   GL147857  33.770   5.902   6.150
 8089POPC   GL247858  33.788   6.000   6.150
 8089POPC   C1A47859  33.783   5.834   6.450
 8089POPC   D2A47860  33.778   5.829   6.750
 8089POPC   C3A47861  33.757   5.914   7.050
 8089POPC   C4A47862  33.767   5.885   7.350
 8089POPC   C1B47863  33.729   6.067   6.450
 8089POPC   C2B47864  33.682   6.126   6.750
 8089POPC   C3B47865  33.743   6.092   7.050
 8089POPC   C4B47866  33.684   6.081   7.350
 8090POPC   NC347867   1.169  26.803   5.550
 8090POPC   PO447868   1.206  26.840   5.850
 8090POPC   GL147869   1.227  26.837   6.150
 8090POPC   GL247870   1.357  26.805   6.150
 8090POPC   C1A47871   1.210  26.785   6.450
 8090POPC   D2A47872   1.189  26.865   6.750
 8090POPC   C3A47873   1.166  26.860   7.050
 8090POPC   C4A47874   1.229  26.829   7.350
 8090POPC   C1B47875   1.508  26.773   6.450
 8090POPC   C2B47876   1.484  26.815   6.750
 8090POPC   C3B47877   1.451  26.769   7.050
 8090POPC   C4B47878   1.451  26.768   7.350
 8091POPC   NC347879   8.994  24.470   5.550
 8091POPC   PO447880   8.939  24.449   5.850
 8091POPC   GL147881   8.975  24.500   6.150
 8091POPC   GL247882   9.117  24.444   6.150
 8091POPC   C1A47883   8.926  24.477   6.450
 8091POPC   D2A47884   8.936  24.479   6.750
 8091POPC   C3A47885   8.924  24.490   7.050
 8091POPC   C4A47886   8.983  24.514   7.350
 8091POPC   C1B47887   9.247  24.435   6.450
 8091POPC   C2B47888   9.194  24.481   6.750
 8091POPC   C3B47889   9.206  24.498   7.050
 8091POPC   C4B47890   9.215  24.514   7.350
 8092POPC   NC347891  18.241  19.055   5.550
 8092POPC   PO447892  18.308  19.016   5.850
 8092POPC   GL147893  18.327  19.036   6.150
 8092POPC   GL247894  18.207  19.195   6.150
 8092POPC   C1A47895  18.252  19.052   6.450
 8092POPC   D2A47896  18.240  19.027   6.750
 8092POPC   C3A47897  18.324  19.036   7.050
 8092POPC   C4A47898  18.289  19.065   7.350
 8092POPC   C1B47899  18.257  19.287   6.450
 8092POPC   C2B47900  18.187  19.263   6.750
 8092POPC   C3B47901  18.165  19.292   7.050
 8092POPC   C4B47902  18.239  19.286   7.350
 8093POPC   NC347903   2.721  43.109   5.550
 8093POPC   PO447904   2.763  43.109   5.850
 8093POPC   GL147905   2.760  43.104   6.150
 8093POPC   GL247906   2.742  43.264   6.150
 8093POPC   C1A47907   2.807  43.102   6.450
 8093POPC   D2A47908   2.737  43.116   6.750
 8093POPC   C3A47909   2.771  43.072   7.050
 8093POPC   C4A47910   2.804  43.069   7.350
 8093POPC   C1B47911   2.781  43.383   6.450
 8093POPC   C2B47912   2.769  43.383   6.750
 8093POPC   C3B47913   2.794  43.348   7.050
 8093POPC   C4B47914   2.805  43.404   7.350
 8094POPC   NC347915  34.534  41.546   5.550
 8094POPC   PO447916  34.539  41.578   5.850
 8094POPC   GL147917  34.558  41.566   6.150
 8094POPC   GL247918  34.656  41.605   6.150
 8094POPC   C1A47919  34.590  41.509   6.450
 8094POPC   D2A47920  34.579  41.561   6.750
 8094POPC   C3A47921  34.563  41.525   7.050
 8094POPC   C4A47922  34.610  41.542   7.350
 8094POPC   C1B47923  34.765  41.662   6.450
 8094POPC   C2B47924  34.773  41.650   6.750
 8094POPC   C3B47925  34.765  41.626   7.050
 8094POPC   C4B47926  34.828  41.691   7.350
 8095POPC   NC347927  12.060  38.459   5.550
 8095POPC   PO447928  12.045  38.426   5.850
 8095POPC   GL147929  12.110  38.488   6.150
 8095POPC   GL247930  12.057  38.595   6.150
 8095POPC   C1A47931  12.049  38.447   6.450
 8095POPC   D2A47932  12.082  38.473   6.750
 8095POPC   C3A47933  12.075  38.410   7.050
 8095POPC   C4A47934  12.029  38.413   7.350
 8095POPC   C1B47935  12.010  38.691   6.450
 8095POPC   C2B47936  11.964  38.633   6.750
 8095POPC   C3B47937  11.997  38.723   7.050
 8095POPC   C4B47938  11.961  38.669   7.350
 8096POPC   NC347939  15.171  34.550   5.550
 8096POPC   PO447940  15.158  34.608   5.850
 8096POPC   GL147941  15.134  34.624   6.150
 8096POPC   GL247942  15.184  34.650   6.150
 8096POPC   C1A47943  15.138  34.612   6.450
 8096POPC   D2A47944  15.185  34.527   6.750
 8096POPC   C3A47945  15.138  34.583   7.050
 8096POPC   C4A47946  15.193  34.531   7.350
 8096POPC   C1B47947  15.152  34.816   6.450
 8096POPC   C2B47948  15.176  34.837   6.750
 8096POPC   C3B47949  15.133  34.798   7.050
 8096POPC   C4B47950  15.181  34.807   7.350
 8097POPC   NC347951   0.430   8.188   5.550
 8097POPC   PO447952   0.393   8.221   5.850
 8097POPC   GL147953   0.388   8.168   6.150
 8097POPC   GL247954   0.508   8.269   6.150
 8097POPC   C1A47955   0.442   8.147   6.450
 8097POPC   D2A47956   0.465   8.229   6.750
 8097POPC   C3A47957   0.403   8.170   7.050
 8097POPC   C4A47958   0.419   8.180   7.350
 8097POPC   C1B47959   0.627   8.371   6.450
 8097POPC   C2B47960   0.619   8.333   6.750
 8097POPC   C3B47961   0.652   8.427   7.050
 8097POPC   C4B47962   0.643   8.410   7.350
 8098POPC   NC347963  42.357   2.036   5.550
 8098POPC   PO447964  42.330   1.996   5.850
 8098POPC   GL147965  42.342   2.020   6.150
 8098POPC   GL247966  42.288   2.074   6.150
 8098POPC   C1A47967  42.356   1.995   6.450
 8098POPC   D2A47968  42.331   1.995   6.750
 8098POPC   C3A47969  42.349   2.028   7.050
 8098POPC   C4A47970  42.377   1.947   7.350
 8098POPC   C1B47971  42.210   2.256   6.450
 8098POPC   C2B47972  42.279   2.216   6.750
 8098POPC   C3B47973  42.264   2.215   7.050
 8098POPC   C4B47974  42.212   2.184   7.350
 8099POPC   NC347975  21.388  19.785   5.550
 8099POPC   PO447976  21.361  19.868   5.850
 8099POPC   GL147977  21.428  19.800   6.150
 8099POPC   GL247978  21.484  19.776   6.150
 8099POPC   C1A47979  21.339  19.830   6.450
 8099POPC   D2A47980  21.373  19.816   6.750
 8099POPC   C3A47981  21.387  19.813   7.050
 8099POPC   C4A47982  21.345  19.846   7.350
 8099POPC   C1B47983  21.630  19.710   6.450
 8099POPC   C2B47984  21.640  19.708   6.750
 8099POPC   C3B47985  21.553  19.714   7.050
 8099POPC   C4B47986  21.594  19.707   7.350
 8100POPC   NC347987  35.344  29.948   5.550
 8100POPC   PO447988  35.332  29.956   5.850
 8100POPC   GL147989  35.368  29.909   6.150
 8100POPC   GL247990  35.323  29.864   6.150
 8100POPC   C1A47991  35.358  29.877   6.450
 8100POPC   D2A47992  35.347  29.958   6.750
 8100POPC   C3A47993  35.326  29.904   7.050
 8100POPC   C4A47994  35.310  29.894   7.350
 8100POPC   C1B47995  35.229  29.746   6.450
 8100POPC   C2B47996  35.252  29.760   6.750
 8100POPC   C3B47997  35.164  29.720   7.050
 8100POPC   C4B47998  35.221  29.724   7.350
 8101POPC   NC347999   9.016   4.334   5.550
 8101POPC   PO448000   8.986   4.308   5.850
 8101POPC   GL148001   8.957   4.362   6.150
 8101POPC   GL248002   8.883   4.416   6.150
 8101POPC   C1A48003   8.973   4.317   6.450
 8101POPC   D2A48004   9.011   4.294   6.750
 8101POPC   C3A48005   9.005   4.341   7.050
 8101POPC   C4A48006   8.933   4.269   7.350
 8101POPC   C1B48007   8.799   4.543   6.450
 8101POPC   C2B48008   8.815   4.552   6.750
 8101POPC   C3B48009   8.844   4.498   7.050
 8101POPC   C4B48010   8.864   4.485   7.350
 8102POPC   NC348011   8.186  42.363   5.550
 8102POPC   PO448012   8.202  42.288   5.850
 8102POPC   GL148013   8.204  42.356   6.150
 8102POPC   GL248014   8.207  42.179   6.150
 8102POPC   C1A48015   8.162  42.340   6.450
 8102POPC   D2A48016   8.210  42.366   6.750
 8102POPC   C3A48017   8.161  42.321   7.050
 8102POPC   C4A48018   8.227  42.370   7.350
 8102POPC   C1B48019   8.223  42.130   6.450
 8102POPC   C2B48020   8.167  42.110   6.750
 8102POPC   C3B48021   8.170  42.038   7.050
 8102POPC   C4B48022   8.208  42.130   7.350
 8103POPC   NC348023   6.613  36.856   5.550
 8103POPC   PO448024   6.654  36.951   5.850
 8103POPC   GL148025   6.599  36.892   6.150
 8103POPC   GL248026   6.546  36.894   6.150
 8103POPC   C1A48027   6.671  36.912   6.450
 8103POPC   D2A48028   6.608  36.867   6.750
 8103POPC   C3A48029   6.641  36.876   7.050
 8103POPC   C4A48030   6.640  36.910   7.350
 8103POPC   C1B48031   6.362  36.840   6.450
 8103POPC   C2B48032   6.408  36.872   6.750
 8103POPC   C3B48033   6.437  36.880   7.050
 8103POPC   C4B48034   6.380  36.886   7.350
 8104POPC   NC348035  39.238  32.291   5.550
 8104POPC   PO448036  39.263  32.242   5.850
 8104POPC   GL148037  39.248  32.245   6.150
 8104POPC   GL248038  39.355  32.346   6.150
 8104POPC   C1A48039  39.229  32.275   6.450
 8104POPC   D2A48040  39.217  32.268   6.750
 8104POPC   C3A48041  39.246  32.202   7.050
 8104POPC   C4A48042  39.187  32.289   7.350
 8104POPC   C1B48043  39.450  32.407   6.450
 8104POPC   C2B48044  39.503  32.403   6.750
 8104POPC   C3B48045  39.459  32.336   7.050
 8104POPC   C4B48046  39.494  32.399   7.350
 8105POPC   NC348047  37.687  43.148   5.550
 8105POPC   PO448048  37.651  43.077   5.850
 8105POPC   GL148049  37.693  43.061   6.150
 8105POPC   GL248050  37.641  43.254   6.150
 8105POPC   C1A48051  37.635  43.104   6.450
 8105POPC   D2A48052  37.637  43.108   6.750
 8105POPC   C3A48053  37.645  43.110   7.050
 8105POPC   C4A48054  37.663  43.078   7.350
 8105POPC   C1B48055  37.569  43.396   6.450
 8105POPC   C2B48056  37.646  43.334   6.750
 8105POPC   C3B48057  37.582  43.391   7.050
 8105POPC   C4B48058  37.597  43.347   7.350
 8106POPC   NC348059   2.743   5.075   5.550
 8106POPC   PO448060   2.785   5.101   5.850
 8106POPC   GL148061   2.734   5.119   6.150
 8106POPC   GL248062   2.748   5.260   6.150
 8106POPC   C1A48063   2.730   5.120   6.450
 8106POPC   D2A48064   2.727   5.075   6.750
 8106POPC   C3A48065   2.759   5.090   7.050
 8106POPC   C4A48066   2.796   5.106   7.350
 8106POPC   C1B48067   2.745   5.373   6.450
 8106POPC   C2B48068   2.747   5.391   6.750
 8106POPC   C3B48069   2.699   5.321   7.050
 8106POPC   C4B48070   2.774   5.376   7.350
 8107POPC   NC348071  10.565  28.383   5.550
 8107POPC   PO448072  10.542  28.334   5.850
 8107POPC   GL148073  10.520  28.353   6.150
 8107POPC   GL248074  10.364  28.363   6.150
 8107POPC   C1A48075  10.476  28.348   6.450
 8107POPC   D2A48076  10.491  28.410   6.750
 8107POPC   C3A48077  10.512  28.397   7.050
 8107POPC   C4A48078  10.572  28.365   7.350
 8107POPC   C1B48079  10.271  28.302   6.450
 8107POPC   C2B48080  10.308  28.308   6.750
 8107POPC   C3B48081  10.315  28.305   7.050
 8107POPC   C4B48082  10.284  28.289   7.350
 8108POPC   NC348083  16.682  25.304   5.550
 8108POPC   PO448084  16.744  25.307   5.850
 8108POPC   GL148085  16.750  25.243   6.150
 8108POPC   GL248086  16.695  25.155   6.150
 8108POPC   C1A48087  16.732  25.253   6.450
 8108POPC   D2A48088  16.733  25.259   6.750
 8108POPC   C3A48089  16.743  25.244   7.050
 8108POPC   C4A48090  16.767  25.262   7.350
 8108POPC   C1B48091  16.695  25.047   6.450
 8108POPC   C2B48092  16.674  25.021   6.750
 8108POPC   C3B48093  16.652  25.020   7.050
 8108POPC   C4B48094  16.735  24.979   7.350
 8109POPC   NC348095  28.362  40.745   5.550
 8109POPC   PO448096  28.384  40.812   5.850
 8109POPC   GL148097  28.337  40.799   6.150
 8109POPC   GL248098  28.335  40.938   6.150
 8109POPC   C1A48099  28.371  40.753   6.450
 8109POPC   D2A48100  28.337  40.753   6.750
 8109POPC   C3A48101  28.377  40.808   7.050
 8109POPC   C4A48102  28.363  40.826   7.350
 8109POPC   C1B48103  28.365  41.034   6.450
 8109POPC   C2B48104  28.348  41.035   6.750
 8109POPC   C3B48105  28.316  41.035   7.050
 8109POPC   C4B48106  28.362  41.000   7.350
 8110POPC   NC348107  37.692   5.906   5.550
 8110POPC   PO448108  37.659   5.897   5.850
 8110POPC   GL148109  37.682   5.846   6.150
 8110POPC   GL248110  37.774   5.872   6.150
 8110POPC   C1A48111  37.678   5.875   6.450
 8110POPC   D2A48112  37.641   5.847   6.750
 8110POPC   C3A48113  37.680   5.876   7.050
 8110POPC   C4A48114  37.697   5.903   7.350
 8110POPC   C1B48115  37.961   5.994   6.450
 8110POPC   C2B48116  37.891   5.955   6.750
 8110POPC   C3B48117  37.884   5.969   7.050
 8110POPC   C4B48118  37.876   5.951   7.350
 8111POPC   NC348119  22.954   5.138   5.550
 8111POPC   PO448120  22.974   5.133   5.850
 8111POPC   GL148121  22.922   5.062   6.150
 8111POPC   GL248122  22.866   4.931   6.150
 8111POPC   C1A48123  22.944   5.130   6.450
 8111POPC   D2A48124  22.985   5.122   6.750
 8111POPC   C3A48125  22.893   5.056   7.050
 8111POPC   C4A48126  22.938   5.099   7.350
 8111POPC   C1B48127  22.932   4.874   6.450
 8111POPC   C2B48128  22.921   4.890   6.750
 8111POPC   C3B48129  22.913   4.827   7.050
 8111POPC   C4B48130  22.879   4.823   7.350
 8112POPC   NC348131  28.340  43.876   5.550
 8112POPC   PO448132  28.353  43.884   5.850
 8112POPC   GL148133  28.385  43.850   6.150
 8112POPC   GL248134  28.389  43.785   6.150
 8112POPC   C1A48135  28.331  43.858   6.450
 8112POPC   D2A48136  28.392  43.890   6.750
 8112POPC   C3A48137  28.331  43.877   7.050
 8112POPC   C4A48138  28.396  43.876   7.350
 8112POPC   C1B48139  28.298  43.691   6.450
 8112POPC   C2B48140  28.313  43.606   6.750
 8112POPC   C3B48141  28.303  43.642   7.050
 8112POPC   C4B48142  28.356  43.598   7.350
 8113POPC   NC348143   9.735  19.860   5.550
 8113POPC   PO448144   9.719  19.851   5.850
 8113POPC   GL148145   9.707  19.826   6.150
 8113POPC   GL248146   9.772  19.689   6.150
 8113POPC   C1A48147   9.735  19.809   6.450
 8113POPC   D2A48148   9.791  19.791   6.750
 8113POPC   C3A48149   9.784  19.862   7.050
 8113POPC   C4A48150   9.796  19.872   7.350
 8113POPC   C1B48151   9.702  19.612   6.450
 8113POPC   C2B48152   9.714  19.595   6.750
 8113POPC   C3B48153   9.688  19.602   7.050
 8113POPC   C4B48154   9.722  19.600   7.350
 8114POPC   NC348155  36.105  26.791   5.550
 8114POPC   PO448156  36.126  26.771   5.850
 8114POPC   GL148157  36.095  26.831   6.150
 8114POPC   GL248158  36.211  26.931   6.150
 8114POPC   C1A48159  36.128  26.781   6.450
 8114POPC   D2A48160  36.120  26.848   6.750
 8114POPC   C3A48161  36.110  26.819   7.050
 8114POPC   C4A48162  36.148  26.844   7.350
 8114POPC   C1B48163  36.351  26.926   6.450
 8114POPC   C2B48164  36.364  26.935   6.750
 8114POPC   C3B48165  36.354  26.984   7.050
 8114POPC   C4B48166  36.362  26.920   7.350
 8115POPC   NC348167   8.189  43.095   5.550
 8115POPC   PO448168   8.239  43.100   5.850
 8115POPC   GL148169   8.193  43.157   6.150
 8115POPC   GL248170   8.339  43.130   6.150
 8115POPC   C1A48171   8.148  43.135   6.450
 8115POPC   D2A48172   8.202  43.086   6.750
 8115POPC   C3A48173   8.165  43.069   7.050
 8115POPC   C4A48174   8.204  43.129   7.350
 8115POPC   C1B48175   8.491  43.061   6.450
 8115POPC   C2B48176   8.418  43.109   6.750
 8115POPC   C3B48177   8.432  43.119   7.050
 8115POPC   C4B48178   8.473  43.079   7.350
 8116POPC   NC348179  33.823  32.271   5.550
 8116POPC   PO448180  33.794  32.238   5.850
 8116POPC   GL148181  33.754  32.235   6.150
 8116POPC   GL248182  33.709  32.118   6.150
 8116POPC   C1A48183  33.827  32.203   6.450
 8116POPC   D2A48184  33.824  32.235   6.750
 8116POPC   C3A48185  33.775  32.257   7.050
 8116POPC   C4A48186  33.829  32.295   7.350
 8116POPC   C1B48187  33.717  32.045   6.450
 8116POPC   C2B48188  33.636  32.048   6.750
 8116POPC   C3B48189  33.688  32.070   7.050
 8116POPC   C4B48190  33.649  32.042   7.350
 8117POPC   NC348191   7.434   4.306   5.550
 8117POPC   PO448192   7.424   4.362   5.850
 8117POPC   GL148193   7.404   4.274   6.150
 8117POPC   GL248194   7.298   4.282   6.150
 8117POPC   C1A48195   7.447   4.362   6.450
 8117POPC   D2A48196   7.373   4.346   6.750
 8117POPC   C3A48197   7.382   4.299   7.050
 8117POPC   C4A48198   7.375   4.305   7.350
 8117POPC   C1B48199   7.213   4.337   6.450
 8117POPC   C2B48200   7.201   4.301   6.750
 8117POPC   C3B48201   7.181   4.276   7.050
 8117POPC   C4B48202   7.208   4.256   7.350
 8118POPC   NC348203  15.169  15.934   5.550
 8118POPC   PO448204  15.140  15.994   5.850
 8118POPC   GL148205  15.198  15.970   6.150
 8118POPC   GL248206  15.289  15.848   6.150
 8118POPC   C1A48207  15.198  15.946   6.450
 8118POPC   D2A48208  15.158  15.950   6.750
 8118POPC   C3A48209  15.226  15.927   7.050
 8118POPC   C4A48210  15.204  15.922   7.350
 8118POPC   C1B48211  15.354  15.777   6.450
 8118POPC   C2B48212  15.411  15.797   6.750
 8118POPC   C3B48213  15.368  15.825   7.050
 8118POPC   C4B48214  15.398  15.839   7.350
 8119POPC   NC348215  29.924  30.682   5.550
 8119POPC   PO448216  29.919  30.720   5.850
 8119POPC   GL148217  29.937  30.718   6.150
 8119POPC   GL248218  29.979  30.777   6.150
 8119POPC   C1A48219  29.902  30.683   6.450
 8119POPC   D2A48220  29.955  30.667   6.750
 8119POPC   C3A48221  29.890  30.726   7.050
 8119POPC   C4A48222  29.927  30.658   7.350
 8119POPC   C1B48223  30.044  30.910   6.450
 8119POPC   C2B48224  30.069  30.905   6.750
 8119POPC   C3B48225  30.090  30.885   7.050
 8119POPC   C4B48226  30.037  30.953   7.350
 8120POPC   NC348227  15.145  39.221   5.550
 8120POPC   PO448228  15.132  39.236   5.850
 8120POPC   GL148229  15.144  39.226   6.150
 8120POPC   GL248230  15.189  39.095   6.150
 8120POPC   C1A48231  15.164  39.196   6.450
 8120POPC   D2A48232  15.229  39.220   6.750
 8120POPC   C3A48233  15.150  39.216   7.050
 8120POPC   C4A48234  15.198  39.210   7.350
 8120POPC   C1B48235  15.297  39.018   6.450
 8120POPC   C2B48236  15.270  39.054   6.750
 8120POPC   C3B48237  15.279  38.963   7.050
 8120POPC   C4B48238  15.273  39.003   7.350
 8121POPC   NC348239  30.660  43.079   5.550
 8121POPC   PO448240  30.729  43.108   5.850
 8121POPC   GL148241  30.730  43.139   6.150
 8121POPC   GL248242  30.691  43.235   6.150
 8121POPC   C1A48243  30.690  43.080   6.450
 8121POPC   D2A48244  30.703  43.158   6.750
 8121POPC   C3A48245  30.658  43.078   7.050
 8121POPC   C4A48246  30.713  43.088   7.350
 8121POPC   C1B48247  30.726  43.398   6.450
 8121POPC   C2B48248  30.743  43.369   6.750
 8121POPC   C3B48249  30.670  43.394   7.050
 8121POPC   C4B48250  30.696  43.354   7.350
 8122POPC   NC348251  34.534  28.418   5.550
 8122POPC   PO448252  34.538  28.407   5.850
 8122POPC   GL148253  34.591  28.348   6.150
 8122POPC   GL248254  34.585  28.260   6.150
 8122POPC   C1A48255  34.591  28.363   6.450
 8122POPC   D2A48256  34.539  28.415   6.750
 8122POPC   C3A48257  34.532  28.407   7.050
 8122POPC   C4A48258  34.602  28.364   7.350
 8122POPC   C1B48259  34.524  28.102   6.450
 8122POPC   C2B48260  34.487  28.167   6.750
 8122POPC   C3B48261  34.487  28.085   7.050
 8122POPC   C4B48262  34.526  28.153   7.350
 8123POPC   NC348263  21.363   5.051   5.550
 8123POPC   PO448264  21.429   5.106   5.850
 8123POPC   GL148265  21.353   5.079   6.150
 8123POPC   GL248266  21.365   5.006   6.150
 8123POPC   C1A48267  21.393   5.080   6.450
 8123POPC   D2A48268  21.337   5.129   6.750
 8123POPC   C3A48269  21.414   5.076   7.050
 8123POPC   C4A48270  21.380   5.125   7.350
 8123POPC   C1B48271  21.300   4.809   6.450
 8123POPC   C2B48272  21.358   4.860   6.750
 8123POPC   C3B48273  21.305   4.888   7.050
 8123POPC   C4B48274  21.328   4.872   7.350
 8124POPC   NC348275   7.393  39.993   5.550
 8124POPC   PO448276   7.409  39.977   5.850
 8124POPC   GL148277   7.379  39.988   6.150
 8124POPC   GL248278   7.460  40.094   6.150
 8124POPC   C1A48279   7.374  39.989   6.450
 8124POPC   D2A48280   7.441  39.998   6.750
 8124POPC   C3A48281   7.449  39.961   7.050
 8124POPC   C4A48282   7.469  40.020   7.350
 8124POPC   C1B48283   7.478  40.260   6.450
 8124POPC   C2B48284   7.474  40.265   6.750
 8124POPC   C3B48285   7.520  40.233   7.050
 8124POPC   C4B48286   7.500  40.282   7.350
 8125POPC   NC348287  14.429  20.589   5.550
 8125POPC   PO448288  14.441  20.652   5.850
 8125POPC   GL148289  14.375  20.570   6.150
 8125POPC   GL248290  14.427  20.757   6.150
 8125POPC   C1A48291  14.412  20.613   6.450
 8125POPC   D2A48292  14.440  20.610   6.750
 8125POPC   C3A48293  14.364  20.571   7.050
 8125POPC   C4A48294  14.381  20.641   7.350
 8125POPC   C1B48295  14.446  20.845   6.450
 8125POPC   C2B48296  14.468  20.835   6.750
 8125POPC   C3B48297  14.493  20.862   7.050
 8125POPC   C4B48298  14.455  20.830   7.350
 8126POPC   NC348299   9.778   2.003   5.550
 8126POPC   PO448300   9.797   1.999   5.850
 8126POPC   GL148301   9.772   1.961   6.150
 8126POPC   GL248302   9.819   1.901   6.150
 8126POPC   C1A48303   9.704   1.958   6.450
 8126POPC   D2A48304   9.729   1.995   6.750
 8126POPC   C3A48305   9.766   1.975   7.050
 8126POPC   C4A48306   9.714   1.994   7.350
 8126POPC   C1B48307   9.807   1.773   6.450
 8126POPC   C2B48308   9.809   1.779   6.750
 8126POPC   C3B48309   9.841   1.712   7.050
 8126POPC   C4B48310   9.782   1.724   7.350
 8127POPC   NC348311  26.823  33.067   5.550
 8127POPC   PO448312  26.788  33.052   5.850
 8127POPC   GL148313  26.799  33.065   6.150
 8127POPC   GL248314  26.816  32.939   6.150
 8127POPC   C1A48315  26.845  33.038   6.450
 8127POPC   D2A48316  26.808  33.019   6.750
 8127POPC   C3A48317  26.787  33.038   7.050
 8127POPC   C4A48318  26.849  33.048   7.350
 8127POPC   C1B48319  26.842  32.801   6.450
 8127POPC   C2B48320  26.885  32.777   6.750
 8127POPC   C3B48321  26.892  32.745   7.050
 8127POPC   C4B48322  26.840  32.773   7.350
 8128POPC   NC348323   8.147  15.999   5.550
 8128POPC   PO448324   8.206  15.924   5.850
 8128POPC   GL148325   8.197  15.961   6.150
 8128POPC   GL248326   8.246  15.786   6.150
 8128POPC   C1A48327   8.153  15.989   6.450
 8128POPC   D2A48328   8.238  15.995   6.750
 8128POPC   C3A48329   8.177  15.950   7.050
 8128POPC   C4A48330   8.208  15.988   7.350
 8128POPC   C1B48331   8.258  15.745   6.450
 8128POPC   C2B48332   8.225  15.698   6.750
 8128POPC   C3B48333   8.262  15.713   7.050
 8128POPC   C4B48334   8.271  15.736   7.350
 8129POPC   NC348335  36.934  22.212   5.550
 8129POPC   PO448336  36.890  22.140   5.850
 8129POPC   GL148337  36.879  22.124   6.150
 8129POPC   GL248338  36.861  22.105   6.150
 8129POPC   C1A48339  36.938  22.134   6.450
 8129POPC   D2A48340  36.909  22.147   6.750
 8129POPC   C3A48341  36.921  22.128   7.050
 8129POPC   C4A48342  36.908  22.117   7.350
 8129POPC   C1B48343  36.701  22.023   6.450
 8129POPC   C2B48344  36.727  21.965   6.750
 8129POPC   C3B48345  36.726  21.955   7.050
 8129POPC   C4B48346  36.763  21.982   7.350
 8130POPC   NC348347  22.173  33.832   5.550
 8130POPC   PO448348  22.197  33.833   5.850
 8130POPC   GL148349  22.201  33.838   6.150
 8130POPC   GL248350  22.180  33.953   6.150
 8130POPC   C1A48351  22.156  33.846   6.450
 8130POPC   D2A48352  22.178  33.850   6.750
 8130POPC   C3A48353  22.130  33.791   7.050
 8130POPC   C4A48354  22.146  33.760   7.350
 8130POPC   C1B48355  22.203  34.085   6.450
 8130POPC   C2B48356  22.173  34.017   6.750
 8130POPC   C3B48357  22.161  34.004   7.050
 8130POPC   C4B48358  22.218  34.058   7.350
 8131POPC   NC348359  37.695  36.178   5.550
 8131POPC   PO448360  37.683  36.178   5.850
 8131POPC   GL148361  37.725  36.129   6.150
 8131POPC   GL248362  37.845  36.217   6.150
 8131POPC   C1A48363  37.709  36.131   6.450
 8131POPC   D2A48364  37.651  36.118   6.750
 8131POPC   C3A48365  37.660  36.122   7.050
 8131POPC   C4A48366  37.701  36.118   7.350
 8131POPC   C1B48367  37.916  36.200   6.450
 8131POPC   C2B48368  37.918  36.211   6.750
 8131POPC   C3B48369  37.879  36.191   7.050
 8131POPC   C4B48370  37.895  36.248   7.350
 8132POPC   NC348371  26.032  40.037   5.550
 8132POPC   PO448372  26.009  39.966   5.850
 8132POPC   GL148373  26.025  40.025   6.150
 8132POPC   GL248374  25.908  40.059   6.150
 8132POPC   C1A48375  26.071  40.037   6.450
 8132POPC   D2A48376  26.089  39.979   6.750
 8132POPC   C3A48377  26.071  40.051   7.050
 8132POPC   C4A48378  26.038  39.997   7.350
 8132POPC   C1B48379  25.867  40.109   6.450
 8132POPC   C2B48380  25.781  40.082   6.750
 8132POPC   C3B48381  25.858  40.098   7.050
 8132POPC   C4B48382  25.833  40.148   7.350
 8133POPC   NC348383  23.681   8.932   5.550
 8133POPC   PO448384  23.726   8.924   5.850
 8133POPC   GL148385  23.721   8.931   6.150
 8133POPC   GL248386  23.674   9.038   6.150
 8133POPC   C1A48387  23.737   9.008   6.450
 8133POPC   D2A48388  23.693   8.962   6.750
 8133POPC   C3A48389  23.735   8.953   7.050
 8133POPC   C4A48390  23.734   8.939   7.350
 8133POPC   C1B48391  23.614   9.169   6.450
 8133POPC   C2B48392  23.642   9.177   6.750
 8133POPC   C3B48393  23.642   9.238   7.050
 8133POPC   C4B48394  23.637   9.172   7.350
 8134POPC   NC348395  32.249  10.517   5.550
 8134POPC   PO448396  32.281  10.517   5.850
 8134POPC   GL148397  32.252  10.532   6.150
 8134POPC   GL248398  32.157  10.449   6.150
 8134POPC   C1A48399  32.263  10.517   6.450
 8134POPC   D2A48400  32.240  10.528   6.750
 8134POPC   C3A48401  32.267  10.539   7.050
 8134POPC   C4A48402  32.219  10.483   7.350
 8134POPC   C1B48403  31.989  10.458   6.450
 8134POPC   C2B48404  32.058  10.447   6.750
 8134POPC   C3B48405  32.014  10.421   7.050
 8134POPC   C4B48406  32.025  10.407   7.350
 8135POPC   NC348407  12.888  21.357   5.550
 8135POPC   PO448408  12.850  21.338   5.850
 8135POPC   GL148409  12.846  21.432   6.150
 8135POPC   GL248410  12.734  21.378   6.150
 8135POPC   C1A48411  12.808  21.420   6.450
 8135POPC   D2A48412  12.849  21.351   6.750
 8135POPC   C3A48413  12.852  21.340   7.050
 8135POPC   C4A48414  12.834  21.381   7.350
 8135POPC   C1B48415  12.611  21.304   6.450
 8135POPC   C2B48416  12.574  21.308   6.750
 8135POPC   C3B48417  12.604  21.241   7.050
 8135POPC   C4B48418  12.619  21.306   7.350
 8136POPC   NC348419  15.144  38.425   5.550
 8136POPC   PO448420  15.176  38.450   5.850
 8136POPC   GL148421  15.219  38.499   6.150
 8136POPC   GL248422  15.229  38.534   6.150
 8136POPC   C1A48423  15.162  38.408   6.450
 8136POPC   D2A48424  15.218  38.496   6.750
 8136POPC   C3A48425  15.131  38.487   7.050
 8136POPC   C4A48426  15.151  38.436   7.350
 8136POPC   C1B48427  15.338  38.646   6.450
 8136POPC   C2B48428  15.310  38.645   6.750
 8136POPC   C3B48429  15.394  38.582   7.050
 8136POPC   C4B48430  15.399  38.597   7.350
 8137POPC   NC348431  11.304   3.541   5.550
 8137POPC   PO448432  11.331   3.557   5.850
 8137POPC   GL148433  11.343   3.579   6.150
 8137POPC   GL248434  11.267   3.658   6.150
 8137POPC   C1A48435  11.341   3.540   6.450
 8137POPC   D2A48436  11.253   3.524   6.750
 8137POPC   C3A48437  11.286   3.559   7.050
 8137POPC   C4A48438  11.295   3.508   7.350
 8137POPC   C1B48439  11.165   3.730   6.450
 8137POPC   C2B48440  11.153   3.793   6.750
 8137POPC   C3B48441  11.129   3.759   7.050
 8137POPC   C4B48442  11.145   3.732   7.350
 8138POPC   NC348443   4.322  26.852   5.550
 8138POPC   PO448444   4.320  26.771   5.850
 8138POPC   GL148445   4.309  26.791   6.150
 8138POPC   GL248446   4.235  26.722   6.150
 8138POPC   C1A48447   4.349  26.822   6.450
 8138POPC   D2A48448   4.362  26.843   6.750
 8138POPC   C3A48449   4.360  26.781   7.050
 8138POPC   C4A48450   4.306  26.838   7.350
 8138POPC   C1B48451   4.101  26.606   6.450
 8138POPC   C2B48452   4.164  26.636   6.750
 8138POPC   C3B48453   4.168  26.641   7.050
 8138POPC   C4B48454   4.141  26.619   7.350
 8139POPC   NC348455  36.082  40.786   5.550
 8139POPC   PO448456  36.105  40.744   5.850
 8139POPC   GL148457  36.164  40.804   6.150
 8139POPC   GL248458  36.282  40.840   6.150
 8139POPC   C1A48459  36.097  40.734   6.450
 8139POPC   D2A48460  36.091  40.770   6.750
 8139POPC   C3A48461  36.090  40.740   7.050
 8139POPC   C4A48462  36.078  40.820   7.350
 8139POPC   C1B48463  36.319  40.871   6.450
 8139POPC   C2B48464  36.414  40.847   6.750
 8139POPC   C3B48465  36.412  40.857   7.050
 8139POPC   C4B48466  36.323  40.852   7.350
 8140POPC   NC348467   9.730  30.661   5.550
 8140POPC   PO448468   9.732  30.715   5.850
 8140POPC   GL148469   9.766  30.674   6.150
 8140POPC   GL248470   9.852  30.667   6.150
 8140POPC   C1A48471   9.717  30.701   6.450
 8140POPC   D2A48472   9.714  30.738   6.750
 8140POPC   C3A48473   9.721  30.725   7.050
 8140POPC   C4A48474   9.775  30.661   7.350
 8140POPC   C1B48475   9.966  30.595   6.450
 8140POPC   C2B48476   9.917  30.550   6.750
 8140POPC   C3B48477   9.948  30.589   7.050
 8140POPC   C4B48478   9.922  30.594   7.350
 8141POPC   NC348479  33.044  10.562   5.550
 8141POPC   PO448480  33.045  10.527   5.850
 8141POPC   GL148481  33.061  10.478   6.150
 8141POPC   GL248482  33.072  10.437   6.150
 8141POPC   C1A48483  32.989  10.544   6.450
 8141POPC   D2A48484  32.979  10.511   6.750
 8141POPC   C3A48485  33.051  10.480   7.050
 8141POPC   C4A48486  32.992  10.573   7.350
 8141POPC   C1B48487  33.017  10.288   6.450
 8141POPC   C2B48488  33.009  10.314   6.750
 8141POPC   C3B48489  33.015  10.259   7.050
 8141POPC   C4B48490  32.995  10.266   7.350
 8142POPC   NC348491   9.723  15.193   5.550
 8142POPC   PO448492   9.794  15.137   5.850
 8142POPC   GL148493   9.709  15.132   6.150
 8142POPC   GL248494   9.849  15.087   6.150
 8142POPC   C1A48495   9.788  15.194   6.450
 8142POPC   D2A48496   9.784  15.195   6.750
 8142POPC   C3A48497   9.790  15.206   7.050
 8142POPC   C4A48498   9.708  15.157   7.350
 8142POPC   C1B48499   9.884  14.977   6.450
 8142POPC   C2B48500   9.954  15.054   6.750
 8142POPC   C3B48501   9.896  15.030   7.050
 8142POPC   C4B48502   9.906  15.009   7.350
 8143POPC   NC348503  21.431  32.239   5.550
 8143POPC   PO448504  21.429  32.238   5.850
 8143POPC   GL148505  21.402  32.231   6.150
 8143POPC   GL248506  21.238  32.177   6.150
 8143POPC   C1A48507  21.429  32.202   6.450
 8143POPC   D2A48508  21.365  32.236   6.750
 8143POPC   C3A48509  21.408  32.281   7.050
 8143POPC   C4A48510  21.368  32.248   7.350
 8143POPC   C1B48511  21.218  32.071   6.450
 8143POPC   C2B48512  21.218  32.102   6.750
 8143POPC   C3B48513  21.198  32.081   7.050
 8143POPC   C4B48514  21.196  32.099   7.350
 8144POPC   NC348515  15.977   1.205   5.550
 8144POPC   PO448516  15.911   1.229   5.850
 8144POPC   GL148517  15.968   1.235   6.150
 8144POPC   GL248518  15.999   1.369   6.150
 8144POPC   C1A48519  15.993   1.206   6.450
 8144POPC   D2A48520  16.001   1.230   6.750
 8144POPC   C3A48521  15.932   1.243   7.050
 8144POPC   C4A48522  15.928   1.214   7.350
 8144POPC   C1B48523  16.041   1.478   6.450
 8144POPC   C2B48524  16.060   1.436   6.750
 8144POPC   C3B48525  16.004   1.469   7.050
 8144POPC   C4B48526  15.973   1.484   7.350
 8145POPC   NC348527  23.763   3.587   5.550
 8145POPC   PO448528  23.758   3.526   5.850
 8145POPC   GL148529  23.734   3.549   6.150
 8145POPC   GL248530  23.668   3.418   6.150
 8145POPC   C1A48531  23.720   3.501   6.450
 8145POPC   D2A48532  23.692   3.529   6.750
 8145POPC   C3A48533  23.668   3.556   7.050
 8145POPC   C4A48534  23.710   3.528   7.350
 8145POPC   C1B48535  23.562   3.350   6.450
 8145POPC   C2B48536  23.527   3.302   6.750
 8145POPC   C3B48537  23.533   3.339   7.050
 8145POPC   C4B48538  23.550   3.306   7.350
 8146POPC   NC348539  38.415   7.442   5.550
 8146POPC   PO448540  38.447   7.408   5.850
 8146POPC   GL148541  38.434   7.427   6.150
 8146POPC   GL248542  38.318   7.449   6.150
 8146POPC   C1A48543  38.493   7.453   6.450
 8146POPC   D2A48544  38.504   7.438   6.750
 8146POPC   C3A48545  38.445   7.469   7.050
 8146POPC   C4A48546  38.418   7.467   7.350
 8146POPC   C1B48547  38.225   7.393   6.450
 8146POPC   C2B48548  38.226   7.352   6.750
 8146POPC   C3B48549  38.176   7.432   7.050
 8146POPC   C4B48550  38.217   7.381   7.350
 8147POPC   NC348551  18.271  40.031   5.550
 8147POPC   PO448552  18.268  40.041   5.850
 8147POPC   GL148553  18.238  40.002   6.150
 8147POPC   GL248554  18.372  40.060   6.150
 8147POPC   C1A48555  18.266  40.033   6.450
 8147POPC   D2A48556  18.267  40.035   6.750
 8147POPC   C3A48557  18.323  39.984   7.050
 8147POPC   C4A48558  18.247  40.047   7.350
 8147POPC   C1B48559  18.529  40.044   6.450
 8147POPC   C2B48560  18.550  40.009   6.750
 8147POPC   C3B48561  18.506  40.035   7.050
 8147POPC   C4B48562  18.508  40.037   7.350
 8148POPC   NC348563  43.918  15.968   5.550
 8148POPC   PO448564  43.920  15.907   5.850
 8148POPC   GL148565  43.887  15.907   6.150
 8148POPC   GL248566  43.950  16.021   6.150
 8148POPC   C1A48567  43.877  15.918   6.450
 8148POPC   D2A48568  43.931  15.992   6.750
 8148POPC   C3A48569  43.906  15.971   7.050
 8148POPC   C4A48570  43.840  15.990   7.350
 8148POPC   C1B48571  44.083  16.134   6.450
 8148POPC   C2B48572  44.090  16.051   6.750
 8148POPC   C3B48573  44.101  16.057   7.050
 8148POPC   C4B48574  44.062  16.113   7.350
 8149POPC   NC348575   1.219  21.408   5.550
 8149POPC   PO448576   1.256  21.413   5.850
 8149POPC   GL148577   1.262  21.424   6.150
 8149POPC   GL248578   1.143  21.269   6.150
 8149POPC   C1A48579   1.194  21.341   6.450
 8149POPC   D2A48580   1.227  21.380   6.750
 8149POPC   C3A48581   1.189  21.347   7.050
 8149POPC   C4A48582   1.170  21.380   7.350
 8149POPC   C1B48583   1.031  21.202   6.450
 8149POPC   C2B48584   1.021  21.223   6.750
 8149POPC   C3B48585   1.007  21.184   7.050
 8149POPC   C4B48586   1.090  21.200   7.350
 8150POPC   NC348587   7.399  30.689   5.550
 8150POPC   PO448588   7.388  30.690   5.850
 8150POPC   GL148589   7.452  30.717   6.150
 8150POPC   GL248590   7.519  30.818   6.150
 8150POPC   C1A48591   7.372  30.682   6.450
 8150POPC   D2A48592   7.440  30.739   6.750
 8150POPC   C3A48593   7.440  30.655   7.050
 8150POPC   C4A48594   7.469  30.699   7.350
 8150POPC   C1B48595   7.577  30.823   6.450
 8150POPC   C2B48596   7.623  30.871   6.750
 8150POPC   C3B48597   7.661  30.850   7.050
 8150POPC   C4B48598   7.579  30.842   7.350
 8151POPC   NC348599   1.235  11.292   5.550
 8151POPC   PO448600   1.226  11.273   5.850
 8151POPC   GL148601   1.248  11.281   6.150
 8151POPC   GL248602   1.141  11.295   6.150
 8151POPC   C1A48603   1.200  11.254   6.450
 8151POPC   D2A48604   1.207  11.278   6.750
 8151POPC   C3A48605   1.209  11.268   7.050
 8151POPC   C4A48606   1.204  11.334   7.350
 8151POPC   C1B48607   0.986  11.229   6.450
 8151POPC   C2B48608   1.034  11.170   6.750
 8151POPC   C3B48609   0.978  11.224   7.050
 8151POPC   C4B48610   0.966  11.212   7.350
 8152POPC   NC348611   7.463  15.205   5.550
 8152POPC   PO448612   7.467  15.200   5.850
 8152POPC   GL148613   7.417  15.201   6.150
 8152POPC   GL248614   7.484  15.206   6.150
 8152POPC   C1A48615   7.470  15.198   6.450
 8152POPC   D2A48616   7.391  15.152   6.750
 8152POPC   C3A48617   7.407  15.204   7.050
 8152POPC   C4A48618   7.447  15.141   7.350
 8152POPC   C1B48619   7.593  15.324   6.450
 8152POPC   C2B48620   7.609  15.362   6.750
 8152POPC   C3B48621   7.587  15.350   7.050
 8152POPC   C4B48622   7.634  15.352   7.350
 8153POPC   NC348623  27.553  29.186   5.550
 8153POPC   PO448624  27.558  29.133   5.850
 8153POPC   GL148625  27.627  29.128   6.150
 8153POPC   GL248626  27.626  29.273   6.150
 8153POPC   C1A48627  27.573  29.150   6.450
 8153POPC   D2A48628  27.587  29.134   6.750
 8153POPC   C3A48629  27.641  29.164   7.050
 8153POPC   C4A48630  27.580  29.100   7.350
 8153POPC   C1B48631  27.747  29.383   6.450
 8153POPC   C2B48632  27.698  29.371   6.750
 8153POPC   C3B48633  27.774  29.368   7.050
 8153POPC   C4B48634  27.777  29.331   7.350
 8154POPC   NC348635  35.313   1.942   5.550
 8154POPC   PO448636  35.363   2.033   5.850
 8154POPC   GL148637  35.326   2.021   6.150
 8154POPC   GL248638  35.410   1.888   6.150
 8154POPC   C1A48639  35.317   1.981   6.450
 8154POPC   D2A48640  35.365   1.959   6.750
 8154POPC   C3A48641  35.344   1.986   7.050
 8154POPC   C4A48642  35.390   2.018   7.350
 8154POPC   C1B48643  35.421   1.714   6.450
 8154POPC   C2B48644  35.436   1.753   6.750
 8154POPC   C3B48645  35.401   1.786   7.050
 8154POPC   C4B48646  35.358   1.753   7.350
 8155POPC   NC348647   5.824   6.663   5.550
 8155POPC   PO448648   5.826   6.639   5.850
 8155POPC   GL148649   5.895   6.601   6.150
 8155POPC   GL248650   5.892   6.725   6.150
 8155POPC   C1A48651   5.852   6.692   6.450
 8155POPC   D2A48652   5.905   6.599   6.750
 8155POPC   C3A48653   5.852   6.606   7.050
 8155POPC   C4A48654   5.883   6.601   7.350
 8155POPC   C1B48655   5.979   6.863   6.450
 8155POPC   C2B48656   6.029   6.842   6.750
 8155POPC   C3B48657   6.001   6.841   7.050
 8155POPC   C4B48658   6.011   6.881   7.350
 8156POPC   NC348659   5.890  19.803   5.550
 8156POPC   PO448660   5.821  19.805   5.850
 8156POPC   GL148661   5.916  19.847   6.150
 8156POPC   GL248662   5.858  19.731   6.150
 8156POPC   C1A48663   5.830  19.845   6.450
 8156POPC   D2A48664   5.851  19.852   6.750
 8156POPC   C3A48665   5.916  19.873   7.050
 8156POPC   C4A48666   5.851  19.857   7.350
 8156POPC   C1B48667   5.858  19.574   6.450
 8156POPC   C2B48668   5.925  19.629   6.750
 8156POPC   C3B48669   5.938  19.611   7.050
 8156POPC   C4B48670   5.901  19.542   7.350
 8157POPC   NC348671  15.911  42.330   5.550
 8157POPC   PO448672  15.965  42.376   5.850
 8157POPC   GL148673  15.945  42.309   6.150
 8157POPC   GL248674  15.791  42.307   6.150
 8157POPC   C1A48675  15.967  42.317   6.450
 8157POPC   D2A48676  15.966  42.341   6.750
 8157POPC   C3A48677  15.978  42.343   7.050
 8157POPC   C4A48678  15.947  42.333   7.350
 8157POPC   C1B48679  15.719  42.289   6.450
 8157POPC   C2B48680  15.732  42.368   6.750
 8157POPC   C3B48681  15.729  42.315   7.050
 8157POPC   C4B48682  15.673  42.315   7.350
 8158POPC   NC348683  13.579  42.308   5.550
 8158POPC   PO448684  13.643  42.360   5.850
 8158POPC   GL148685  13.643  42.366   6.150
 8158POPC   GL248686  13.637  42.455   6.150
 8158POPC   C1A48687  13.610  42.288   6.450
 8158POPC   D2A48688  13.672  42.367   6.750
 8158POPC   C3A48689  13.630  42.352   7.050
 8158POPC   C4A48690  13.671  42.360   7.350
 8158POPC   C1B48691  13.711  42.605   6.450
 8158POPC   C2B48692  13.697  42.555   6.750
 8158POPC   C3B48693  13.694  42.527   7.050
 8158POPC   C4B48694  13.680  42.551   7.350
 8159POPC   NC348695   7.388  33.765   5.550
 8159POPC   PO448696   7.441  33.759   5.850
 8159POPC   GL148697   7.437  33.806   6.150
 8159POPC   GL248698   7.553  33.857   6.150
 8159POPC   C1A48699   7.417  33.773   6.450
 8159POPC   D2A48700   7.413  33.841   6.750
 8159POPC   C3A48701   7.423  33.798   7.050
 8159POPC   C4A48702   7.412  33.753   7.350
 8159POPC   C1B48703   7.702  33.819   6.450
 8159POPC   C2B48704   7.668  33.800   6.750
 8159POPC   C3B48705   7.714  33.873   7.050
 8159POPC   C4B48706   7.669  33.831   7.350
 8160POPC   NC348707  26.050  38.415   5.550
 8160POPC   PO448708  26.068  38.458   5.850
 8160POPC   GL148709  26.087  38.446   6.150
 8160POPC   GL248710  26.175  38.477   6.150
 8160POPC   C1A48711  26.003  38.434   6.450
 8160POPC   D2A48712  26.040  38.431   6.750
 8160POPC   C3A48713  26.007  38.412   7.050
 8160POPC   C4A48714  26.026  38.503   7.350
 8160POPC   C1B48715  26.296  38.383   6.450
 8160POPC   C2B48716  26.300  38.443   6.750
 8160POPC   C3B48717  26.320  38.451   7.050
 8160POPC   C4B48718  26.302  38.428   7.350
 8161POPC   NC348719   7.465  39.233   5.550
 8161POPC   PO448720   7.462  39.207   5.850
 8161POPC   GL148721   7.408  39.271   6.150
 8161POPC   GL248722   7.468  39.092   6.150
 8161POPC   C1A48723   7.452  39.258   6.450
 8161POPC   D2A48724   7.408  39.185   6.750
 8161POPC   C3A48725   7.413  39.214   7.050
 8161POPC   C4A48726   7.382  39.231   7.350
 8161POPC   C1B48727   7.529  38.974   6.450
 8161POPC   C2B48728   7.582  39.033   6.750
 8161POPC   C3B48729   7.526  38.988   7.050
 8161POPC   C4B48730   7.574  38.986   7.350
 8162POPC   NC348731  41.526  10.498   5.550
 8162POPC   PO448732  41.597  10.504   5.850
 8162POPC   GL148733  41.557  10.488   6.150
 8162POPC   GL248734  41.483  10.378   6.150
 8162POPC   C1A48735  41.513  10.490   6.450
 8162POPC   D2A48736  41.576  10.563   6.750
 8162POPC   C3A48737  41.544  10.539   7.050
 8162POPC   C4A48738  41.548  10.513   7.350
 8162POPC   C1B48739  41.461  10.303   6.450
 8162POPC   C2B48740  41.399  10.286   6.750
 8162POPC   C3B48741  41.457  10.349   7.050
 8162POPC   C4B48742  41.452  10.296   7.350
 8163POPC   NC348743   9.705  40.814   5.550
 8163POPC   PO448744   9.699  40.738   5.850
 8163POPC   GL148745   9.789  40.775   6.150
 8163POPC   GL248746   9.838  40.721   6.150
 8163POPC   C1A48747   9.705  40.748   6.450
 8163POPC   D2A48748   9.738  40.734   6.750
 8163POPC   C3A48749   9.703  40.754   7.050
 8163POPC   C4A48750   9.749  40.747   7.350
 8163POPC   C1B48751  10.000  40.782   6.450
 8163POPC   C2B48752  10.038  40.740   6.750
 8163POPC   C3B48753   9.946  40.724   7.050
 8163POPC   C4B48754   9.946  40.729   7.350
 8164POPC   NC348755  21.432   7.418   5.550
 8164POPC   PO448756  21.363   7.419   5.850
 8164POPC   GL148757  21.357   7.403   6.150
 8164POPC   GL248758  21.416   7.335   6.150
 8164POPC   C1A48759  21.345   7.394   6.450
 8164POPC   D2A48760  21.364   7.422   6.750
 8164POPC   C3A48761  21.397   7.372   7.050
 8164POPC   C4A48762  21.343   7.412   7.350
 8164POPC   C1B48763  21.549   7.252   6.450
 8164POPC   C2B48764  21.558   7.210   6.750
 8164POPC   C3B48765  21.517   7.186   7.050
 8164POPC   C4B48766  21.535   7.213   7.350
 8165POPC   NC348767  11.274  43.115   5.550
 8165POPC   PO448768  11.260  43.143   5.850
 8165POPC   GL148769  11.316  43.128   6.150
 8165POPC   GL248770  11.249  43.201   6.150
 8165POPC   C1A48771  11.346  43.083   6.450
 8165POPC   D2A48772  11.349  43.113   6.750
 8165POPC   C3A48773  11.271  43.130   7.050
 8165POPC   C4A48774  11.268  43.102   7.350
 8165POPC   C1B48775  11.199  43.319   6.450
 8165POPC   C2B48776  11.129  43.341   6.750
 8165POPC   C3B48777  11.185  43.298   7.050
 8165POPC   C4B48778  11.213  43.365   7.350
 8166POPC   NC348779   1.199  27.579   5.550
 8166POPC   PO448780   1.207  27.643   5.850
 8166POPC   GL148781   1.203  27.598   6.150
 8166POPC   GL248782   1.115  27.477   6.150
 8166POPC   C1A48783   1.246  27.602   6.450
 8166POPC   D2A48784   1.181  27.642   6.750
 8166POPC   C3A48785   1.221  27.543   7.050
 8166POPC   C4A48786   1.237  27.580   7.350
 8166POPC   C1B48787   1.038  27.410   6.450
 8166POPC   C2B48788   1.087  27.411   6.750
 8166POPC   C3B48789   1.047  27.455   7.050
 8166POPC   C4B48790   1.050  27.407   7.350
 8167POPC   NC348791  16.705  18.273   5.550
 8167POPC   PO448792  16.744  18.249   5.850
 8167POPC   GL148793  16.706  18.274   6.150
 8167POPC   GL248794  16.887  18.254   6.150
 8167POPC   C1A48795  16.752  18.303   6.450
 8167POPC   D2A48796  16.703  18.257   6.750
 8167POPC   C3A48797  16.726  18.233   7.050
 8167POPC   C4A48798  16.683  18.314   7.350
 8167POPC   C1B48799  16.954  18.251   6.450
 8167POPC   C2B48800  17.001  18.218   6.750
 8167POPC   C3B48801  17.025  18.256   7.050
 8167POPC   C4B48802  16.947  18.200   7.350
 8168POPC   NC348803   0.422  18.254   5.550
 8168POPC   PO448804   0.458  18.278   5.850
 8168POPC   GL148805   0.448  18.292   6.150
 8168POPC   GL248806   0.609  18.261   6.150
 8168POPC   C1A48807   0.449  18.272   6.450
 8168POPC   D2A48808   0.484  18.301   6.750
 8168POPC   C3A48809   0.469  18.277   7.050
 8168POPC   C4A48810   0.410  18.270   7.350
 8168POPC   C1B48811   0.669  18.299   6.450
 8168POPC   C2B48812   0.668  18.291   6.750
 8168POPC   C3B48813   0.705  18.244   7.050
 8168POPC   C4B48814   0.732  18.256   7.350
 8169POPC   NC348815  37.679  34.597   5.550
 8169POPC   PO448816  37.724  34.607   5.850
 8169POPC   GL148817  37.635  34.583   6.150
 8169POPC   GL248818  37.755  34.480   6.150
 8169POPC   C1A48819  37.631  34.614   6.450
 8169POPC   D2A48820  37.715  34.585   6.750
 8169POPC   C3A48821  37.711  34.560   7.050
 8169POPC   C4A48822  37.698  34.576   7.350
 8169POPC   C1B48823  37.858  34.449   6.450
 8169POPC   C2B48824  37.871  34.411   6.750
 8169POPC   C3B48825  37.889  34.476   7.050
 8169POPC   C4B48826  37.852  34.392   7.350
 8170POPC   NC348827  43.068  17.495   5.550
 8170POPC   PO448828  43.101  17.506   5.850
 8170POPC   GL148829  43.110  17.529   6.150
 8170POPC   GL248830  43.106  17.606   6.150
 8170POPC   C1A48831  43.071  17.480   6.450
 8170POPC   D2A48832  43.079  17.553   6.750
 8170POPC   C3A48833  43.068  17.463   7.050
 8170POPC   C4A48834  43.089  17.467   7.350
 8170POPC   C1B48835  43.132  17.749   6.450
 8170POPC   C2B48836  43.113  17.777   6.750
 8170POPC   C3B48837  43.173  17.779   7.050
 8170POPC   C4B48838  43.137  17.800   7.350
 8171POPC   NC348839   8.224  37.721   5.550
 8171POPC   PO448840   8.156  37.709   5.850
 8171POPC   GL148841   8.204  37.714   6.150
 8171POPC   GL248842   8.262  37.696   6.150
 8171POPC   C1A48843   8.225  37.683   6.450
 8171POPC   D2A48844   8.154  37.715   6.750
 8171POPC   C3A48845   8.164  37.632   7.050
 8171POPC   C4A48846   8.173  37.702   7.350
 8171POPC   C1B48847   8.456  37.827   6.450
 8171POPC   C2B48848   8.427  37.788   6.750
 8171POPC   C3B48849   8.420  37.730   7.050
 8171POPC   C4B48850   8.476  37.772   7.350
 8172POPC   NC348851  33.775  29.107   5.550
 8172POPC   PO448852  33.832  29.132   5.850
 8172POPC   GL148853  33.838  29.111   6.150
 8172POPC   GL248854  33.772  28.996   6.150
 8172POPC   C1A48855  33.838  29.118   6.450
 8172POPC   D2A48856  33.762  29.100   6.750
 8172POPC   C3A48857  33.787  29.194   7.050
 8172POPC   C4A48858  33.825  29.182   7.350
 8172POPC   C1B48859  33.699  28.954   6.450
 8172POPC   C2B48860  33.639  28.992   6.750
 8172POPC   C3B48861  33.625  28.926   7.050
 8172POPC   C4B48862  33.635  28.964   7.350
 8173POPC   NC348863  36.915  18.285   5.550
 8173POPC   PO448864  36.925  18.305   5.850
 8173POPC   GL148865  36.921  18.326   6.150
 8173POPC   GL248866  37.001  18.318   6.150
 8173POPC   C1A48867  36.875  18.302   6.450
 8173POPC   D2A48868  36.897  18.278   6.750
 8173POPC   C3A48869  36.897  18.279   7.050
 8173POPC   C4A48870  36.933  18.241   7.350
 8173POPC   C1B48871  37.188  18.342   6.450
 8173POPC   C2B48872  37.195  18.283   6.750
 8173POPC   C3B48873  37.114  18.364   7.050
 8173POPC   C4B48874  37.103  18.307   7.350
 8174POPC   NC348875   8.997  23.739   5.550
 8174POPC   PO448876   8.954  23.745   5.850
 8174POPC   GL148877   8.955  23.717   6.150
 8174POPC   GL248878   9.088  23.707   6.150
 8174POPC   C1A48879   8.943  23.671   6.450
 8174POPC   D2A48880   8.945  23.678   6.750
 8174POPC   C3A48881   8.940  23.746   7.050
 8174POPC   C4A48882   8.934  23.740   7.350
 8174POPC   C1B48883   9.190  23.640   6.450
 8174POPC   C2B48884   9.182  23.657   6.750
 8174POPC   C3B48885   9.163  23.565   7.050
 8174POPC   C4B48886   9.241  23.608   7.350
 8175POPC   NC348887  30.726  39.264   5.550
 8175POPC   PO448888  30.701  39.200   5.850
 8175POPC   GL148889  30.674  39.225   6.150
 8175POPC   GL248890  30.791  39.227   6.150
 8175POPC   C1A48891  30.691  39.263   6.450
 8175POPC   D2A48892  30.745  39.263   6.750
 8175POPC   C3A48893  30.668  39.213   7.050
 8175POPC   C4A48894  30.672  39.183   7.350
 8175POPC   C1B48895  30.900  39.258   6.450
 8175POPC   C2B48896  30.947  39.257   6.750
 8175POPC   C3B48897  30.925  39.320   7.050
 8175POPC   C4B48898  30.955  39.296   7.350
 8176POPC   NC348899  39.980  15.133   5.550
 8176POPC   PO448900  40.047  15.173   5.850
 8176POPC   GL148901  40.052  15.227   6.150
 8176POPC   GL248902  39.965  15.082   6.150
 8176POPC   C1A48903  39.974  15.151   6.450
 8176POPC   D2A48904  39.991  15.147   6.750
 8176POPC   C3A48905  39.986  15.220   7.050
 8176POPC   C4A48906  40.045  15.204   7.350
 8176POPC   C1B48907  39.962  14.904   6.450
 8176POPC   C2B48908  39.966  14.950   6.750
 8176POPC   C3B48909  39.917  14.938   7.050
 8176POPC   C4B48910  39.969  14.896   7.350
 8177POPC   NC348911  43.896   6.673   5.550
 8177POPC   PO448912  43.898   6.683   5.850
 8177POPC   GL148913  43.846   6.647   6.150
 8177POPC   GL248914  43.833   6.780   6.150
 8177POPC   C1A48915  43.842   6.636   6.450
 8177POPC   D2A48916  43.914   6.597   6.750
 8177POPC   C3A48917  43.873   6.694   7.050
 8177POPC   C4A48918  43.896   6.656   7.350
 8177POPC   C1B48919  43.752   6.827   6.450
 8177POPC   C2B48920  43.749   6.867   6.750
 8177POPC   C3B48921  43.685   6.847   7.050
 8177POPC   C4B48922  43.773   6.838   7.350
 8178POPC   NC348923  19.860  18.303   5.550
 8178POPC   PO448924  19.793  18.272   5.850
 8178POPC   GL148925  19.789  18.298   6.150
 8178POPC   GL248926  19.912  18.174   6.150
 8178POPC   C1A48927  19.834  18.317   6.450
 8178POPC   D2A48928  19.804  18.299   6.750
 8178POPC   C3A48929  19.862  18.291   7.050
 8178POPC   C4A48930  19.800  18.274   7.350
 8178POPC   C1B48931  19.959  18.006   6.450
 8178POPC   C2B48932  19.885  18.046   6.750
 8178POPC   C3B48933  19.901  18.002   7.050
 8178POPC   C4B48934  19.881  18.017   7.350
 8179POPC   NC348935  31.425  40.009   5.550
 8179POPC   PO448936  31.439  39.998   5.850
 8179POPC   GL148937  31.449  39.964   6.150
 8179POPC   GL248938  31.517  39.902   6.150
 8179POPC   C1A48939  31.443  40.033   6.450
 8179POPC   D2A48940  31.511  39.988   6.750
 8179POPC   C3A48941  31.443  40.029   7.050
 8179POPC   C4A48942  31.468  39.969   7.350
 8179POPC   C1B48943  31.624  39.847   6.450
 8179POPC   C2B48944  31.661  39.845   6.750
 8179POPC   C3B48945  31.633  39.874   7.050
 8179POPC   C4B48946  31.619  39.813   7.350
 8180POPC   NC348947  12.827  43.119   5.550
 8180POPC   PO448948  12.896  43.143   5.850
 8180POPC   GL148949  12.898  43.072   6.150
 8180POPC   GL248950  12.803  42.983   6.150
 8180POPC   C1A48951  12.885  43.077   6.450
 8180POPC   D2A48952  12.837  43.113   6.750
 8180POPC   C3A48953  12.872  43.145   7.050
 8180POPC   C4A48954  12.850  43.144   7.350
 8180POPC   C1B48955  12.823  42.838   6.450
 8180POPC   C2B48956  12.776  42.825   6.750
 8180POPC   C3B48957  12.870  42.848   7.050
 8180POPC   C4B48958  12.857  42.816   7.350
 8181POPC   NC348959  33.814   8.930   5.550
 8181POPC   PO448960  33.811   8.957   5.850
 8181POPC   GL148961  33.842   8.980   6.150
 8181POPC   GL248962  33.823   8.866   6.150
 8181POPC   C1A48963  33.844   8.971   6.450
 8181POPC   D2A48964  33.830   8.942   6.750
 8181POPC   C3A48965  33.839   9.000   7.050
 8181POPC   C4A48966  33.772   8.977   7.350
 8181POPC   C1B48967  33.889   8.706   6.450
 8181POPC   C2B48968  33.896   8.784   6.750
 8181POPC   C3B48969  33.897   8.727   7.050
 8181POPC   C4B48970  33.863   8.754   7.350
 8182POPC   NC348971   3.520  15.969   5.550
 8182POPC   PO448972   3.536  15.923   5.850
 8182POPC   GL148973   3.560  15.920   6.150
 8182POPC   GL248974   3.405  15.922   6.150
 8182POPC   C1A48975   3.568  15.956   6.450
 8182POPC   D2A48976   3.549  15.983   6.750
 8182POPC   C3A48977   3.546  15.984   7.050
 8182POPC   C4A48978   3.531  15.915   7.350
 8182POPC   C1B48979   3.285  15.824   6.450
 8182POPC   C2B48980   3.278  15.849   6.750
 8182POPC   C3B48981   3.315  15.818   7.050
 8182POPC   C4B48982   3.302  15.849   7.350
 8183POPC   NC348983   1.980  17.548   5.550
 8183POPC   PO448984   1.942  17.534   5.850
 8183POPC   GL148985   1.967  17.457   6.150
 8183POPC   GL248986   2.102  17.404   6.150
 8183POPC   C1A48987   1.998  17.462   6.450
 8183POPC   D2A48988   2.027  17.459   6.750
 8183POPC   C3A48989   2.034  17.545   7.050
 8183POPC   C4A48990   1.950  17.466   7.350
 8183POPC   C1B48991   2.169  17.335   6.450
 8183POPC   C2B48992   2.154  17.400   6.750
 8183POPC   C3B48993   2.181  17.358   7.050
 8183POPC   C4B48994   2.243  17.340   7.350
 8184POPC   NC348995  24.482  11.286   5.550
 8184POPC   PO448996  24.446  11.336   5.850
 8184POPC   GL148997  24.463  11.341   6.150
 8184POPC   GL248998  24.455  11.381   6.150
 8184POPC   C1A48999  24.481  11.337   6.450
 8184POPC   D2A49000  24.477  11.266   6.750
 8184POPC   C3A49001  24.443  11.312   7.050
 8184POPC   C4A49002  24.461  11.306   7.350
 8184POPC   C1B49003  24.506  11.521   6.450
 8184POPC   C2B49004  24.516  11.581   6.750
 8184POPC   C3B49005  24.549  11.583   7.050
 8184POPC   C4B49006  24.558  11.554   7.350
 8185POPC   NC349007  23.729  23.747   5.550
 8185POPC   PO449008  23.752  23.754   5.850
 8185POPC   GL149009  23.718  23.725   6.150
 8185POPC   GL249010  23.644  23.606   6.150
 8185POPC   C1A49011  23.728  23.763   6.450
 8185POPC   D2A49012  23.711  23.698   6.750
 8185POPC   C3A49013  23.721  23.721   7.050
 8185POPC   C4A49014  23.705  23.686   7.350
 8185POPC   C1B49015  23.587  23.567   6.450
 8185POPC   C2B49016  23.553  23.572   6.750
 8185POPC   C3B49017  23.580  23.490   7.050
 8185POPC   C4B49018  23.558  23.487   7.350
 8186POPC   NC349019  10.492   9.736   5.550
 8186POPC   PO449020  10.482   9.755   5.850
 8186POPC   GL149021  10.514   9.787   6.150
 8186POPC   GL249022  10.572   9.844   6.150
 8186POPC   C1A49023  10.551   9.794   6.450
 8186POPC   D2A49024  10.571   9.786   6.750
 8186POPC   C3A49025  10.492   9.794   7.050
 8186POPC   C4A49026  10.522   9.721   7.350
 8186POPC   C1B49027  10.687   9.906   6.450
 8186POPC   C2B49028  10.726   9.892   6.750
 8186POPC   C3B49029  10.702   9.906   7.050
 8186POPC   C4B49030  10.659   9.940   7.350
 8187POPC   NC349031  37.671  33.777   5.550
 8187POPC   PO449032  37.632  33.781   5.850
 8187POPC   GL149033  37.697  33.848   6.150
 8187POPC   GL249034  37.599  33.813   6.150
 8187POPC   C1A49035  37.683  33.812   6.450
 8187POPC   D2A49036  37.695  33.829   6.750
 8187POPC   C3A49037  37.658  33.767   7.050
 8187POPC   C4A49038  37.636  33.814   7.350
 8187POPC   C1B49039  37.492  33.867   6.450
 8187POPC   C2B49040  37.487  33.867   6.750
 8187POPC   C3B49041  37.446  33.939   7.050
 8187POPC   C4B49042  37.494  33.907   7.350
 8188POPC   NC349043  13.580  43.089   5.550
 8188POPC   PO449044  13.621  43.094   5.850
 8188POPC   GL149045  13.602  43.094   6.150
 8188POPC   GL249046  13.555  42.981   6.150
 8188POPC   C1A49047  13.605  43.151   6.450
 8188POPC   D2A49048  13.602  43.138   6.750
 8188POPC   C3A49049  13.585  43.137   7.050
 8188POPC   C4A49050  13.650  43.068   7.350
 8188POPC   C1B49051  13.437  42.868   6.450
 8188POPC   C2B49052  13.465  42.953   6.750
 8188POPC   C3B49053  13.464  42.925   7.050
 8188POPC   C4B49054  13.512  42.919   7.350
 8189POPC   NC349055  29.177  29.956   5.550
 8189POPC   PO449056  29.172  29.892   5.850
 8189POPC   GL149057  29.110  29.905   6.150
 8189POPC   GL249058  29.066  29.961   6.150
 8189POPC   C1A49059  29.122  29.875   6.450
 8189POPC   D2A49060  29.101  29.966   6.750
 8189POPC   C3A49061  29.132  29.949   7.050
 8189POPC   C4A49062  29.105  29.930   7.350
 8189POPC   C1B49063  28.970  30.000   6.450
 8189POPC   C2B49064  28.944  30.084   6.750
 8189POPC   C3B49065  28.952  30.046   7.050
 8189POPC   C4B49066  28.941  30.007   7.350
 8190POPC   NC349067   9.750  29.107   5.550
 8190POPC   PO449068   9.788  29.160   5.850
 8190POPC   GL149069   9.723  29.157   6.150
 8190POPC   GL249070   9.681  28.977   6.150
 8190POPC   C1A49071   9.752  29.097   6.450
 8190POPC   D2A49072   9.709  29.175   6.750
 8190POPC   C3A49073   9.758  29.169   7.050
 8190POPC   C4A49074   9.745  29.183   7.350
 8190POPC   C1B49075   9.695  28.852   6.450
 8190POPC   C2B49076   9.708  28.862   6.750
 8190POPC   C3B49077   9.746  28.944   7.050
 8190POPC   C4B49078   9.706  28.912   7.350
 8191POPC   NC349079  31.490  19.015   5.550
 8191POPC   PO449080  31.470  19.082   5.850
 8191POPC   GL149081  31.468  19.058   6.150
 8191POPC   GL249082  31.445  19.222   6.150
 8191POPC   C1A49083  31.498  19.065   6.450
 8191POPC   D2A49084  31.450  19.033   6.750
 8191POPC   C3A49085  31.475  19.031   7.050
 8191POPC   C4A49086  31.509  19.059   7.350
 8191POPC   C1B49087  31.469  19.263   6.450
 8191POPC   C2B49088  31.502  19.319   6.750
 8191POPC   C3B49089  31.474  19.266   7.050
 8191POPC   C4B49090  31.518  19.264   7.350
 8192POPC   NC349091   6.597  26.860   5.550
 8192POPC   PO449092   6.652  26.778   5.850
 8192POPC   GL149093   6.627  26.794   6.150
 8192POPC   GL249094   6.797  26.808   6.150
 8192POPC   C1A49095   6.640  26.810   6.450
 8192POPC   D2A49096   6.629  26.834   6.750
 8192POPC   C3A49097   6.692  26.795   7.050
 8192POPC   C4A49098   6.692  26.790   7.350
 8192POPC   C1B49099   6.846  26.849   6.450
 8192POPC   C2B49100   6.863  26.857   6.750
 8192POPC   C3B49101   6.846  26.835   7.050
 8192POPC   C4B49102   6.936  26.850   7.350
 8193POPC   NC349103   6.646  41.583   5.550
 8193POPC   PO449104   6.659  41.526   5.850
 8193POPC   GL149105   6.650  41.571   6.150
 8193POPC   GL249106   6.752  41.506   6.150
 8193POPC   C1A49107   6.608  41.534   6.450
 8193POPC   D2A49108   6.630  41.578   6.750
 8193POPC   C3A49109   6.619  41.524   7.050
 8193POPC   C4A49110   6.605  41.537   7.350
 8193POPC   C1B49111   6.854  41.394   6.450
 8193POPC   C2B49112   6.876  41.407   6.750
 8193POPC   C3B49113   6.853  41.407   7.050
 8193POPC   C4B49114   6.883  41.436   7.350
 8194POPC   NC349115  24.453  19.084   5.550
 8194POPC   PO449116  24.468  19.097   5.850
 8194POPC   GL149117  24.480  19.026   6.150
 8194POPC   GL249118  24.578  18.939   6.150
 8194POPC   C1A49119  24.509  19.028   6.450
 8194POPC   D2A49120  24.467  19.084   6.750
 8194POPC   C3A49121  24.448  19.047   7.050
 8194POPC   C4A49122  24.503  19.080   7.350
 8194POPC   C1B49123  24.635  18.877   6.450
 8194POPC   C2B49124  24.621  18.908   6.750
 8194POPC   C3B49125  24.634  18.821   7.050
 8194POPC   C4B49126  24.623  18.824   7.350
 8195POPC   NC349127  26.798   1.955   5.550
 8195POPC   PO449128  26.780   1.995   5.850
 8195POPC   GL149129  26.793   1.971   6.150
 8195POPC   GL249130  26.658   1.908   6.150
 8195POPC   C1A49131  26.843   1.972   6.450
 8195POPC   D2A49132  26.784   1.974   6.750
 8195POPC   C3A49133  26.788   1.976   7.050
 8195POPC   C4A49134  26.822   1.954   7.350
 8195POPC   C1B49135  26.538   1.946   6.450
 8195POPC   C2B49136  26.555   1.929   6.750
 8195POPC   C3B49137  26.617   1.946   7.050
 8195POPC   C4B49138  26.585   1.862   7.350
 8196POPC   NC349139   3.492   1.969   5.550
 8196POPC   PO449140   3.515   1.947   5.850
 8196POPC   GL149141   3.515   1.972   6.150
 8196POPC   GL249142   3.622   1.999   6.150
 8196POPC   C1A49143   3.502   1.962   6.450
 8196POPC   D2A49144   3.538   2.020   6.750
 8196POPC   C3A49145   3.585   2.013   7.050
 8196POPC   C4A49146   3.497   2.039   7.350
 8196POPC   C1B49147   3.823   2.069   6.450
 8196POPC   C2B49148   3.808   2.053   6.750
 8196POPC   C3B49149   3.744   2.002   7.050
 8196POPC   C4B49150   3.786   2.088   7.350
 8197POPC   NC349151  43.137  15.974   5.550
 8197POPC   PO449152  43.069  15.932   5.850
 8197POPC   GL149153  43.107  15.950   6.150
 8197POPC   GL249154  43.094  15.842   6.150
 8197POPC   C1A49155  43.127  15.962   6.450
 8197POPC   D2A49156  43.135  16.000   6.750
 8197POPC   C3A49157  43.093  15.942   7.050
 8197POPC   C4A49158  43.130  15.930   7.350
 8197POPC   C1B49159  43.129  15.717   6.450
 8197POPC   C2B49160  43.137  15.712   6.750
 8197POPC   C3B49161  43.085  15.736   7.050
 8197POPC   C4B49162  43.122  15.674   7.350
 8198POPC   NC349163  36.177  19.883   5.550
 8198POPC   PO449164  36.163  19.866   5.850
 8198POPC   GL149165  36.151  19.808   6.150
 8198POPC   GL249166  36.169  19.749   6.150
 8198POPC   C1A49167  36.167  19.799   6.450
 8198POPC   D2A49168  36.088  19.805   6.750
 8198POPC   C3A49169  36.097  19.874   7.050
 8198POPC   C4A49170  36.132  19.809   7.350
 8198POPC   C1B49171  36.269  19.580   6.450
 8198POPC   C2B49172  36.238  19.585   6.750
 8198POPC   C3B49173  36.263  19.618   7.050
 8198POPC   C4B49174  36.236  19.622   7.350
 8199POPC   NC349175  11.343  31.483   5.550
 8199POPC   PO449176  11.332  31.519   5.850
 8199POPC   GL149177  11.337  31.472   6.150
 8199POPC   GL249178  11.246  31.598   6.150
 8199POPC   C1A49179  11.250  31.497   6.450
 8199POPC   D2A49180  11.260  31.505   6.750
 8199POPC   C3A49181  11.310  31.496   7.050
 8199POPC   C4A49182  11.312  31.486   7.350
 8199POPC   C1B49183  11.299  31.680   6.450
 8199POPC   C2B49184  11.278  31.722   6.750
 8199POPC   C3B49185  11.237  31.682   7.050
 8199POPC   C4B49186  11.248  31.677   7.350
 8200POPC   NC349187  29.887   5.881   5.550
 8200POPC   PO449188  29.960   5.847   5.850
 8200POPC   GL149189  29.907   5.888   6.150
 8200POPC   GL249190  29.985   5.745   6.150
 8200POPC   C1A49191  29.947   5.913   6.450
 8200POPC   D2A49192  29.871   5.836   6.750
 8200POPC   C3A49193  29.959   5.849   7.050
 8200POPC   C4A49194  29.927   5.838   7.350
 8200POPC   C1B49195  30.021   5.611   6.450
 8200POPC   C2B49196  29.991   5.614   6.750
 8200POPC   C3B49197  29.978   5.618   7.050
 8200POPC   C4B49198  29.995   5.645   7.350
 8201POPC   NC349199  17.521  40.762   5.550
 8201POPC   PO449200  17.479  40.832   5.850
 8201POPC   GL149201  17.513  40.784   6.150
 8201POPC   GL249202  17.510  40.908   6.150
 8201POPC   C1A49203  17.467  40.733   6.450
 8201POPC   D2A49204  17.523  40.821   6.750
 8201POPC   C3A49205  17.499  40.823   7.050
 8201POPC   C4A49206  17.505  40.783   7.350
 8201POPC   C1B49207  17.431  41.036   6.450
 8201POPC   C2B49208  17.435  41.003   6.750
 8201POPC   C3B49209  17.475  41.015   7.050
 8201POPC   C4B49210  17.461  41.052   7.350
 8202POPC   NC349211   9.726   4.278   5.550
 8202POPC   PO449212   9.738   4.311   5.850
 8202POPC   GL149213   9.786   4.365   6.150
 8202POPC   GL249214   9.864   4.325   6.150
 8202POPC   C1A49215   9.775   4.274   6.450
 8202POPC   D2A49216   9.718   4.276   6.750
 8202POPC   C3A49217   9.758   4.303   7.050
 8202POPC   C4A49218   9.759   4.308   7.350
 8202POPC   C1B49219   9.950   4.367   6.450
 8202POPC   C2B49220   9.964   4.433   6.750
 8202POPC   C3B49221   9.988   4.439   7.050
 8202POPC   C4B49222  10.004   4.361   7.350
 8203POPC   NC349223   6.661  35.345   5.550
 8203POPC   PO449224   6.647  35.333   5.850
 8203POPC   GL149225   6.632  35.358   6.150
 8203POPC   GL249226   6.622  35.432   6.150
 8203POPC   C1A49227   6.611  35.320   6.450
 8203POPC   D2A49228   6.619  35.356   6.750
 8203POPC   C3A49229   6.690  35.390   7.050
 8203POPC   C4A49230   6.656  35.391   7.350
 8203POPC   C1B49231   6.630  35.631   6.450
 8203POPC   C2B49232   6.631  35.610   6.750
 8203POPC   C3B49233   6.607  35.635   7.050
 8203POPC   C4B49234   6.649  35.574   7.350
 8204POPC   NC349235  35.321  24.518   5.550
 8204POPC   PO449236  35.366  24.502   5.850
 8204POPC   GL149237  35.307  24.527   6.150
 8204POPC   GL249238  35.513  24.477   6.150
 8204POPC   C1A49239  35.334  24.446   6.450
 8204POPC   D2A49240  35.390  24.458   6.750
 8204POPC   C3A49241  35.339  24.459   7.050
 8204POPC   C4A49242  35.360  24.504   7.350
 8204POPC   C1B49243  35.604  24.547   6.450
 8204POPC   C2B49244  35.574  24.543   6.750
 8204POPC   C3B49245  35.586  24.583   7.050
 8204POPC   C4B49246  35.612  24.601   7.350
 8205POPC   NC349247   8.176  38.500   5.550
 8205POPC   PO449248   8.173  38.502   5.850
 8205POPC   GL149249   8.225  38.420   6.150
 8205POPC   GL249250   8.134  38.410   6.150
 8205POPC   C1A49251   8.205  38.430   6.450
 8205POPC   D2A49252   8.150  38.423   6.750
 8205POPC   C3A49253   8.188  38.452   7.050
 8205POPC   C4A49254   8.171  38.429   7.350
 8205POPC   C1B49255   8.029  38.245   6.450
 8205POPC   C2B49256   8.060  38.317   6.750
 8205POPC   C3B49257   8.072  38.258   7.050
 8205POPC   C4B49258   7.986  38.276   7.350
 8206POPC   NC349259  15.170  29.905   5.550
 8206POPC   PO449260  15.211  29.887   5.850
 8206POPC   GL149261  15.141  29.900   6.150
 8206POPC   GL249262  15.171  30.041   6.150
 8206POPC   C1A49263  15.220  29.950   6.450
 8206POPC   D2A49264  15.223  29.896   6.750
 8206POPC   C3A49265  15.205  29.946   7.050
 8206POPC   C4A49266  15.157  29.902   7.350
 8206POPC   C1B49267  15.051  30.149   6.450
 8206POPC   C2B49268  15.070  30.179   6.750
 8206POPC   C3B49269  15.072  30.195   7.050
 8206POPC   C4B49270  15.104  30.203   7.350
 8207POPC   NC349271  43.150   3.542   5.550
 8207POPC   PO449272  43.138   3.536   5.850
 8207POPC   GL149273  43.148   3.517   6.150
 8207POPC   GL249274  43.089   3.427   6.150
 8207POPC   C1A49275  43.149   3.492   6.450
 8207POPC   D2A49276  43.086   3.585   6.750
 8207POPC   C3A49277  43.120   3.528   7.050
 8207POPC   C4A49278  43.100   3.560   7.350
 8207POPC   C1B49279  42.948   3.318   6.450
 8207POPC   C2B49280  42.979   3.338   6.750
 8207POPC   C3B49281  42.967   3.355   7.050
 8207POPC   C4B49282  42.961   3.351   7.350
 8208POPC   NC349283   2.765  42.344   5.550
 8208POPC   PO449284   2.780  42.335   5.850
 8208POPC   GL149285   2.785  42.355   6.150
 8208POPC   GL249286   2.631  42.411   6.150
 8208POPC   C1A49287   2.814  42.299   6.450
 8208POPC   D2A49288   2.755  42.329   6.750
 8208POPC   C3A49289   2.738  42.343   7.050
 8208POPC   C4A49290   2.718  42.319   7.350
 8208POPC   C1B49291   2.514  42.405   6.450
 8208POPC   C2B49292   2.508  42.418   6.750
 8208POPC   C3B49293   2.508  42.417   7.050
 8208POPC   C4B49294   2.569  42.440   7.350
 8209POPC   NC349295  31.513  36.945   5.550
 8209POPC   PO449296  31.516  36.894   5.850
 8209POPC   GL149297  31.468  36.943   6.150
 8209POPC   GL249298  31.471  36.785   6.150
 8209POPC   C1A49299  31.463  36.947   6.450
 8209POPC   D2A49300  31.438  36.909   6.750
 8209POPC   C3A49301  31.435  36.861   7.050
 8209POPC   C4A49302  31.458  36.873   7.350
 8209POPC   C1B49303  31.391  36.710   6.450
 8209POPC   C2B49304  31.409  36.710   6.750
 8209POPC   C3B49305  31.420  36.661   7.050
 8209POPC   C4B49306  31.433  36.682   7.350
 8210POPC   NC349307  14.445  31.500   5.550
 8210POPC   PO449308  14.425  31.516   5.850
 8210POPC   GL149309  14.355  31.474   6.150
 8210POPC   GL249310  14.491  31.446   6.150
 8210POPC   C1A49311  14.440  31.476   6.450
 8210POPC   D2A49312  14.375  31.500   6.750
 8210POPC   C3A49313  14.447  31.475   7.050
 8210POPC   C4A49314  14.366  31.505   7.350
 8210POPC   C1B49315  14.642  31.357   6.450
 8210POPC   C2B49316  14.617  31.358   6.750
 8210POPC   C3B49317  14.566  31.362   7.050
 8210POPC   C4B49318  14.569  31.302   7.350
 8211POPC   NC349319  39.230  14.389   5.550
 8211POPC   PO449320  39.230  14.380   5.850
 8211POPC   GL149321  39.264  14.439   6.150
 8211POPC   GL249322  39.373  14.426   6.150
 8211POPC   C1A49323  39.204  14.403   6.450
 8211POPC   D2A49324  39.225  14.427   6.750
 8211POPC   C3A49325  39.249  14.390   7.050
 8211POPC   C4A49326  39.190  14.443   7.350
 8211POPC   C1B49327  39.450  14.448   6.450
 8211POPC   C2B49328  39.418  14.504   6.750
 8211POPC   C3B49329  39.514  14.493   7.050
 8211POPC   C4B49330  39.492  14.484   7.350
 8212POPC   NC349331  42.302  20.650   5.550
 8212POPC   PO449332  42.320  20.595   5.850
 8212POPC   GL149333  42.334  20.590   6.150
 8212POPC   GL249334  42.325  20.705   6.150
 8212POPC   C1A49335  42.287  20.608   6.450
 8212POPC   D2A49336  42.299  20.642   6.750
 8212POPC   C3A49337  42.332  20.571   7.050
 8212POPC   C4A49338  42.307  20.582   7.350
 8212POPC   C1B49339  42.297  20.818   6.450
 8212POPC   C2B49340  42.322  20.820   6.750
 8212POPC   C3B49341  42.267  20.816   7.050
 8212POPC   C4B49342  42.349  20.811   7.350
 8213POPC   NC349343  30.698  35.325   5.550
 8213POPC   PO449344  30.684  35.394   5.850
 8213POPC   GL149345  30.659  35.357   6.150
 8213POPC   GL249346  30.761  35.504   6.150
 8213POPC   C1A49347  30.731  35.314   6.450
 8213POPC   D2A49348  30.730  35.359   6.750
 8213POPC   C3A49349  30.723  35.317   7.050
 8213POPC   C4A49350  30.689  35.358   7.350
 8213POPC   C1B49351  30.796  35.609   6.450
 8213POPC   C2B49352  30.790  35.578   6.750
 8213POPC   C3B49353  30.838  35.529   7.050
 8213POPC   C4B49354  30.850  35.537   7.350
 8214POPC   NC349355  17.539  38.451   5.550
 8214POPC   PO449356  17.467  38.449   5.850
 8214POPC   GL149357  17.506  38.428   6.150
 8214POPC   GL249358  17.616  38.387   6.150
 8214POPC   C1A49359  17.546  38.436   6.450
 8214POPC   D2A49360  17.519  38.410   6.750
 8214POPC   C3A49361  17.536  38.457   7.050
 8214POPC   C4A49362  17.496  38.502   7.350
 8214POPC   C1B49363  17.714  38.325   6.450
 8214POPC   C2B49364  17.718  38.276   6.750
 8214POPC   C3B49365  17.709  38.300   7.050
 8214POPC   C4B49366  17.724  38.284   7.350
 8215POPC   NC349367  36.080  18.233   5.550
 8215POPC   PO449368  36.114  18.245   5.850
 8215POPC   GL149369  36.128  18.238   6.150
 8215POPC   GL249370  36.115  18.454   6.150
 8215POPC   C1A49371  36.145  18.327   6.450
 8215POPC   D2A49372  36.119  18.324   6.750
 8215POPC   C3A49373  36.122  18.272   7.050
 8215POPC   C4A49374  36.122  18.325   7.350
 8215POPC   C1B49375  36.154  18.542   6.450
 8215POPC   C2B49376  36.139  18.538   6.750
 8215POPC   C3B49377  36.176  18.516   7.050
 8215POPC   C4B49378  36.194  18.571   7.350
 8216POPC   NC349379  20.601  19.797   5.550
 8216POPC   PO449380  20.649  19.880   5.850
 8216POPC   GL149381  20.652  19.826   6.150
 8216POPC   GL249382  20.524  19.711   6.150
 8216POPC   C1A49383  20.582  19.839   6.450
 8216POPC   D2A49384  20.603  19.799   6.750
 8216POPC   C3A49385  20.616  19.802   7.050
 8216POPC   C4A49386  20.634  19.823   7.350
 8216POPC   C1B49387  20.476  19.586   6.450
 8216POPC   C2B49388  20.534  19.667   6.750
 8216POPC   C3B49389  20.470  19.583   7.050
 8216POPC   C4B49390  20.468  19.610   7.350
 8217POPC   NC349391  24.446  13.619   5.550
 8217POPC   PO449392  24.522  13.596   5.850
 8217POPC   GL149393  24.474  13.599   6.150
 8217POPC   GL249394  24.619  13.679   6.150
 8217POPC   C1A49395  24.513  13.634   6.450
 8217POPC   D2A49396  24.516  13.591   6.750
 8217POPC   C3A49397  24.456  13.667   7.050
 8217POPC   C4A49398  24.469  13.658   7.350
 8217POPC   C1B49399  24.691  13.820   6.450
 8217POPC   C2B49400  24.703  13.796   6.750
 8217POPC   C3B49401  24.631  13.817   7.050
 8217POPC   C4B49402  24.717  13.845   7.350
 8218POPC   NC349403   8.932  29.185   5.550
 8218POPC   PO449404   8.951  29.178   5.850
 8218POPC   GL149405   8.956  29.119   6.150
 8218POPC   GL249406   9.012  29.038   6.150
 8218POPC   C1A49407   8.958  29.095   6.450
 8218POPC   D2A49408   9.010  29.115   6.750
 8218POPC   C3A49409   8.994  29.112   7.050
 8218POPC   C4A49410   8.969  29.176   7.350
 8218POPC   C1B49411   9.041  28.896   6.450
 8218POPC   C2B49412   9.062  28.876   6.750
 8218POPC   C3B49413   9.065  28.896   7.050
 8218POPC   C4B49414   9.008  28.947   7.350
 8219POPC   NC349415  39.220  12.875   5.550
 8219POPC   PO449416  39.239  12.802   5.850
 8219POPC   GL149417  39.183  12.858   6.150
 8219POPC   GL249418  39.120  12.733   6.150
 8219POPC   C1A49419  39.211  12.860   6.450
 8219POPC   D2A49420  39.259  12.859   6.750
 8219POPC   C3A49421  39.191  12.807   7.050
 8219POPC   C4A49422  39.207  12.888   7.350
 8219POPC   C1B49423  39.012  12.723   6.450
 8219POPC   C2B49424  39.074  12.713   6.750
 8219POPC   C3B49425  39.045  12.688   7.050
 8219POPC   C4B49426  39.029  12.659   7.350
 8220POPC   NC349427  39.221   1.997   5.550
 8220POPC   PO449428  39.196   1.943   5.850
 8220POPC   GL149429  39.193   2.013   6.150
 8220POPC   GL249430  39.281   2.133   6.150
 8220POPC   C1A49431  39.246   1.966   6.450
 8220POPC   D2A49432  39.207   1.991   6.750
 8220POPC   C3A49433  39.255   2.028   7.050
 8220POPC   C4A49434  39.244   1.974   7.350
 8220POPC   C1B49435  39.309   2.242   6.450
 8220POPC   C2B49436  39.321   2.191   6.750
 8220POPC   C3B49437  39.349   2.196   7.050
 8220POPC   C4B49438  39.328   2.193   7.350
 8221POPC   NC349439  16.746   0.391   5.550
 8221POPC   PO449440  16.747   0.475   5.850
 8221POPC   GL149441  16.767   0.441   6.150
 8221POPC   GL249442  16.762   0.285   6.150
 8221POPC   C1A49443  16.771   0.399   6.450
 8221POPC   D2A49444  16.706   0.412   6.750
 8221POPC   C3A49445  16.776   0.436   7.050
 8221POPC   C4A49446  16.687   0.407   7.350
 8221POPC   C1B49447  16.746   0.212   6.450
 8221POPC   C2B49448  16.789   0.203   6.750
 8221POPC   C3B49449  16.740   0.219   7.050
 8221POPC   C4B49450  16.771   0.155   7.350
 8222POPC   NC349451  10.522   2.747   5.550
 8222POPC   PO449452  10.516   2.724   5.850
 8222POPC   GL149453  10.529   2.760   6.150
 8222POPC   GL249454  10.423   2.653   6.150
 8222POPC   C1A49455  10.552   2.785   6.450
 8222POPC   D2A49456  10.504   2.733   6.750
 8222POPC   C3A49457  10.573   2.812   7.050
 8222POPC   C4A49458  10.530   2.757   7.350
 8222POPC   C1B49459  10.399   2.628   6.450
 8222POPC   C2B49460  10.307   2.587   6.750
 8222POPC   C3B49461  10.359   2.551   7.050
 8222POPC   C4B49462  10.382   2.612   7.350
 8223POPC   NC349463  10.507  18.278   5.550
 8223POPC   PO449464  10.544  18.243   5.850
 8223POPC   GL149465  10.512  18.300   6.150
 8223POPC   GL249466  10.688  18.302   6.150
 8223POPC   C1A49467  10.537  18.257   6.450
 8223POPC   D2A49468  10.536  18.329   6.750
 8223POPC   C3A49469  10.547  18.324   7.050
 8223POPC   C4A49470  10.525  18.309   7.350
 8223POPC   C1B49471  10.742  18.356   6.450
 8223POPC   C2B49472  10.743  18.330   6.750
 8223POPC   C3B49473  10.739  18.367   7.050
 8223POPC   C4B49474  10.726  18.369   7.350
 8224POPC   NC349475  29.875  20.640   5.550
 8224POPC   PO449476  29.902  20.610   5.850
 8224POPC   GL149477  29.966  20.588   6.150
 8224POPC   GL249478  29.966  20.702   6.150
 8224POPC   C1A49479  29.904  20.565   6.450
 8224POPC   D2A49480  29.948  20.583   6.750
 8224POPC   C3A49481  29.918  20.587   7.050
 8224POPC   C4A49482  29.875  20.562   7.350
 8224POPC   C1B49483  30.027  20.822   6.450
 8224POPC   C2B49484  30.064  20.858   6.750
 8224POPC   C3B49485  30.032  20.825   7.050
 8224POPC   C4B49486  30.029  20.843   7.350
 8225POPC   NC349487  36.122  17.544   5.550
 8225POPC   PO449488  36.173  17.478   5.850
 8225POPC   GL149489  36.081  17.551   6.150
 8225POPC   GL249490  36.034  17.435   6.150
 8225POPC   C1A49491  36.112  17.497   6.450
 8225POPC   D2A49492  36.140  17.529   6.750
 8225POPC   C3A49493  36.099  17.548   7.050
 8225POPC   C4A49494  36.164  17.555   7.350
 8225POPC   C1B49495  35.872  17.431   6.450
 8225POPC   C2B49496  35.866  17.404   6.750
 8225POPC   C3B49497  35.876  17.393   7.050
 8225POPC   C4B49498  35.892  17.437   7.350
 8226POPC   NC349499  28.358  36.103   5.550
 8226POPC   PO449500  28.418  36.122   5.850
 8226POPC   GL149501  28.331  36.096   6.150
 8226POPC   GL249502  28.201  36.146   6.150
 8226POPC   C1A49503  28.412  36.150   6.450
 8226POPC   D2A49504  28.352  36.084   6.750
 8226POPC   C3A49505  28.362  36.098   7.050
 8226POPC   C4A49506  28.321  36.145   7.350
 8226POPC   C1B49507  28.095  36.107   6.450
 8226POPC   C2B49508  28.158  36.030   6.750
 8226POPC   C3B49509  28.174  36.051   7.050
 8226POPC   C4B49510  28.139  36.077   7.350
 8227POPC   NC349511  40.822  19.869   5.550
 8227POPC   PO449512  40.736  19.793   5.850
 8227POPC   GL149513  40.771  19.824   6.150
 8227POPC   GL249514  40.702  19.846   6.150
 8227POPC   C1A49515  40.770  19.867   6.450
 8227POPC   D2A49516  40.748  19.835   6.750
 8227POPC   C3A49517  40.824  19.880   7.050
 8227POPC   C4A49518  40.747  19.797   7.350
 8227POPC   C1B49519  40.536  19.791   6.450
 8227POPC   C2B49520  40.529  19.803   6.750
 8227POPC   C3B49521  40.582  19.865   7.050
 8227POPC   C4B49522  40.508  19.828   7.350
 8228POPC   NC349523  27.628  33.774   5.550
 8228POPC   PO449524  27.617  33.796   5.850
 8228POPC   GL149525  27.579  33.812   6.150
 8228POPC   GL249526  27.637  33.963   6.150
 8228POPC   C1A49527  27.584  33.794   6.450
 8228POPC   D2A49528  27.581  33.764   6.750
 8228POPC   C3A49529  27.564  33.835   7.050
 8228POPC   C4A49530  27.610  33.751   7.350
 8228POPC   C1B49531  27.611  34.068   6.450
 8228POPC   C2B49532  27.643  34.032   6.750
 8228POPC   C3B49533  27.578  34.060   7.050
 8228POPC   C4B49534  27.631  34.095   7.350
 8229POPC   NC349535  17.499   6.617   5.550
 8229POPC   PO449536  17.516   6.595   5.850
 8229POPC   GL149537  17.497   6.656   6.150
 8229POPC   GL249538  17.636   6.646   6.150
 8229POPC   C1A49539  17.504   6.667   6.450
 8229POPC   D2A49540  17.530   6.643   6.750
 8229POPC   C3A49541  17.471   6.626   7.050
 8229POPC   C4A49542  17.545   6.604   7.350
 8229POPC   C1B49543  17.782   6.653   6.450
 8229POPC   C2B49544  17.777   6.685   6.750
 8229POPC   C3B49545  17.715   6.722   7.050
 8229POPC   C4B49546  17.706   6.667   7.350
 8230POPC   NC349547  20.584  26.810   5.550
 8230POPC   PO449548  20.582  26.818   5.850
 8230POPC   GL149549  20.574  26.826   6.150
 8230POPC   GL249550  20.588  26.933   6.150
 8230POPC   C1A49551  20.581  26.807   6.450
 8230POPC   D2A49552  20.650  26.849   6.750
 8230POPC   C3A49553  20.561  26.838   7.050
 8230POPC   C4A49554  20.619  26.864   7.350
 8230POPC   C1B49555  20.563  27.040   6.450
 8230POPC   C2B49556  20.592  27.084   6.750
 8230POPC   C3B49557  20.569  27.019   7.050
 8230POPC   C4B49558  20.502  27.107   7.350
 8231POPC   NC349559   0.424  36.877   5.550
 8231POPC   PO449560   0.437  36.909   5.850
 8231POPC   GL149561   0.448  36.949   6.150
 8231POPC   GL249562   0.518  36.987   6.150
 8231POPC   C1A49563   0.397  36.938   6.450
 8231POPC   D2A49564   0.484  36.903   6.750
 8231POPC   C3A49565   0.394  36.925   7.050
 8231POPC   C4A49566   0.402  36.907   7.350
 8231POPC   C1B49567   0.593  37.041   6.450
 8231POPC   C2B49568   0.634  37.048   6.750
 8231POPC   C3B49569   0.674  37.046   7.050
 8231POPC   C4B49570   0.642  37.064   7.350
 8232POPC   NC349571  26.036  15.936   5.550
 8232POPC   PO449572  26.001  15.988   5.850
 8232POPC   GL149573  26.010  16.004   6.150
 8232POPC   GL249574  25.934  16.054   6.150
 8232POPC   C1A49575  26.081  15.914   6.450
 8232POPC   D2A49576  26.002  15.976   6.750
 8232POPC   C3A49577  26.016  15.973   7.050
 8232POPC   C4A49578  26.046  15.965   7.350
 8232POPC   C1B49579  25.805  16.139   6.450
 8232POPC   C2B49580  25.818  16.093   6.750
 8232POPC   C3B49581  25.805  16.097   7.050
 8232POPC   C4B49582  25.864  16.111   7.350
 8233POPC   NC349583   1.172  33.038   5.550
 8233POPC   PO449584   1.260  33.022   5.850
 8233POPC   GL149585   1.193  33.067   6.150
 8233POPC   GL249586   1.230  33.195   6.150
 8233POPC   C1A49587   1.232  33.007   6.450
 8233POPC   D2A49588   1.222  33.013   6.750
 8233POPC   C3A49589   1.235  33.026   7.050
 8233POPC   C4A49590   1.219  32.993   7.350
 8233POPC   C1B49591   1.317  33.267   6.450
 8233POPC   C2B49592   1.306  33.312   6.750
 8233POPC   C3B49593   1.259  33.244   7.050
 8233POPC   C4B49594   1.309  33.244   7.350
 8234POPC   NC349595   9.789  31.450   5.550
 8234POPC   PO449596   9.740  31.501   5.850
 8234POPC   GL149597   9.782  31.480   6.150
 8234POPC   GL249598   9.869  31.541   6.150
 8234POPC   C1A49599   9.796  31.519   6.450
 8234POPC   D2A49600   9.774  31.484   6.750
 8234POPC   C3A49601   9.716  31.487   7.050
 8234POPC   C4A49602   9.699  31.485   7.350
 8234POPC   C1B49603   9.958  31.588   6.450
 8234POPC   C2B49604   9.975  31.651   6.750
 8234POPC   C3B49605   9.990  31.580   7.050
 8234POPC   C4B49606   9.990  31.593   7.350
 8235POPC   NC349607  34.540   2.775   5.550
 8235POPC   PO449608  34.625   2.716   5.850
 8235POPC   GL149609  34.586   2.783   6.150
 8235POPC   GL249610  34.434   2.643   6.150
 8235POPC   C1A49611  34.526   2.813   6.450
 8235POPC   D2A49612  34.558   2.732   6.750
 8235POPC   C3A49613  34.529   2.719   7.050
 8235POPC   C4A49614  34.539   2.754   7.350
 8235POPC   C1B49615  34.336   2.591   6.450
 8235POPC   C2B49616  34.335   2.575   6.750
 8235POPC   C3B49617  34.402   2.563   7.050
 8235POPC   C4B49618  34.336   2.639   7.350
 8236POPC   NC349619  19.791  42.318   5.550
 8236POPC   PO449620  19.789  42.299   5.850
 8236POPC   GL149621  19.841  42.294   6.150
 8236POPC   GL249622  19.692  42.324   6.150
 8236POPC   C1A49623  19.875  42.313   6.450
 8236POPC   D2A49624  19.804  42.345   6.750
 8236POPC   C3A49625  19.801  42.322   7.050
 8236POPC   C4A49626  19.843  42.368   7.350
 8236POPC   C1B49627  19.614  42.272   6.450
 8236POPC   C2B49628  19.565  42.275   6.750
 8236POPC   C3B49629  19.599  42.309   7.050
 8236POPC   C4B49630  19.564  42.332   7.350
 8237POPC   NC349631  40.027  39.257   5.550
 8237POPC   PO449632  39.992  39.265   5.850
 8237POPC   GL149633  40.025  39.183   6.150
 8237POPC   GL249634  40.144  39.144   6.150
 8237POPC   C1A49635  40.034  39.233   6.450
 8237POPC   D2A49636  40.033  39.270   6.750
 8237POPC   C3A49637  40.024  39.215   7.050
 8237POPC   C4A49638  40.032  39.194   7.350
 8237POPC   C1B49639  40.252  39.134   6.450
 8237POPC   C2B49640  40.191  39.158   6.750
 8237POPC   C3B49641  40.193  39.119   7.050
 8237POPC   C4B49642  40.237  39.123   7.350
 8238POPC   NC349643  33.772  10.566   5.550
 8238POPC   PO449644  33.831  10.559   5.850
 8238POPC   GL149645  33.829  10.510   6.150
 8238POPC   GL249646  33.863  10.393   6.150
 8238POPC   C1A49647  33.765  10.563   6.450
 8238POPC   D2A49648  33.836  10.487   6.750
 8238POPC   C3A49649  33.806  10.520   7.050
 8238POPC   C4A49650  33.849  10.553   7.350
 8238POPC   C1B49651  33.970  10.332   6.450
 8238POPC   C2B49652  33.918  10.377   6.750
 8238POPC   C3B49653  34.007  10.362   7.050
 8238POPC   C4B49654  33.933  10.304   7.350
 8239POPC   NC349655   2.736  18.325   5.550
 8239POPC   PO449656   2.734  18.318   5.850
 8239POPC   GL149657   2.799  18.323   6.150
 8239POPC   GL249658   2.856  18.406   6.150
 8239POPC   C1A49659   2.733  18.325   6.450
 8239POPC   D2A49660   2.774  18.271   6.750
 8239POPC   C3A49661   2.789  18.291   7.050
 8239POPC   C4A49662   2.800  18.267   7.350
 8239POPC   C1B49663   2.965  18.423   6.450
 8239POPC   C2B49664   2.938  18.459   6.750
 8239POPC   C3B49665   2.981  18.406   7.050
 8239POPC   C4B49666   2.991  18.452   7.350
 8240POPC   NC349667  36.094  22.170   5.550
 8240POPC   PO449668  36.116  22.182   5.850
 8240POPC   GL149669  36.095  22.114   6.150
 8240POPC   GL249670  36.193  22.220   6.150
 8240POPC   C1A49671  36.119  22.175   6.450
 8240POPC   D2A49672  36.159  22.183   6.750
 8240POPC   C3A49673  36.139  22.134   7.050
 8240POPC   C4A49674  36.080  22.185   7.350
 8240POPC   C1B49675  36.297  22.351   6.450
 8240POPC   C2B49676  36.342  22.370   6.750
 8240POPC   C3B49677  36.311  22.324   7.050
 8240POPC   C4B49678  36.290  22.364   7.350
 8241POPC   NC349679  19.821   5.834   5.550
 8241POPC   PO449680  19.874   5.829   5.850
 8241POPC   GL149681  19.884   5.903   6.150
 8241POPC   GL249682  19.738   5.756   6.150
 8241POPC   C1A49683  19.835   5.899   6.450
 8241POPC   D2A49684  19.811   5.862   6.750
 8241POPC   C3A49685  19.849   5.870   7.050
 8241POPC   C4A49686  19.801   5.919   7.350
 8241POPC   C1B49687  19.752   5.656   6.450
 8241POPC   C2B49688  19.746   5.675   6.750
 8241POPC   C3B49689  19.699   5.621   7.050
 8241POPC   C4B49690  19.659   5.642   7.350
 8242POPC   NC349691  26.060  25.269   5.550
 8242POPC   PO449692  26.037  25.282   5.850
 8242POPC   GL149693  26.008  25.220   6.150
 8242POPC   GL249694  26.184  25.232   6.150
 8242POPC   C1A49695  26.063  25.280   6.450
 8242POPC   D2A49696  26.073  25.290   6.750
 8242POPC   C3A49697  26.060  25.281   7.050
 8242POPC   C4A49698  26.000  25.267   7.350
 8242POPC   C1B49699  26.315  25.197   6.450
 8242POPC   C2B49700  26.248  25.175   6.750
 8242POPC   C3B49701  26.328  25.206   7.050
 8242POPC   C4B49702  26.259  25.161   7.350
 8243POPC   NC349703  43.877   8.178   5.550
 8243POPC   PO449704  43.915   8.213   5.850
 8243POPC   GL149705  43.922   8.167   6.150
 8243POPC   GL249706  43.761   8.148   6.150
 8243POPC   C1A49707  43.855   8.186   6.450
 8243POPC   D2A49708  43.917   8.236   6.750
 8243POPC   C3A49709  43.864   8.160   7.050
 8243POPC   C4A49710  43.902   8.170   7.350
 8243POPC   C1B49711  43.671   8.024   6.450
 8243POPC   C2B49712  43.699   8.030   6.750
 8243POPC   C3B49713  43.721   8.018   7.050
 8243POPC   C4B49714  43.680   8.079   7.350
 8244POPC   NC349715  26.038  15.169   5.550
 8244POPC   PO449716  26.002  15.201   5.850
 8244POPC   GL149717  26.059  15.174   6.150
 8244POPC   GL249718  26.107  15.254   6.150
 8244POPC   C1A49719  26.061  15.141   6.450
 8244POPC   D2A49720  26.018  15.178   6.750
 8244POPC   C3A49721  26.012  15.130   7.050
 8244POPC   C4A49722  26.042  15.219   7.350
 8244POPC   C1B49723  26.254  15.354   6.450
 8244POPC   C2B49724  26.230  15.313   6.750
 8244POPC   C3B49725  26.201  15.279   7.050
 8244POPC   C4B49726  26.211  15.306   7.350
 8245POPC   NC349727  20.638  27.545   5.550
 8245POPC   PO449728  20.589  27.576   5.850
 8245POPC   GL149729  20.622  27.632   6.150
 8245POPC   GL249730  20.584  27.654   6.150
 8245POPC   C1A49731  20.571  27.618   6.450
 8245POPC   D2A49732  20.635  27.574   6.750
 8245POPC   C3A49733  20.590  27.596   7.050
 8245POPC   C4A49734  20.627  27.600   7.350
 8245POPC   C1B49735  20.509  27.763   6.450
 8245POPC   C2B49736  20.487  27.802   6.750
 8245POPC   C3B49737  20.469  27.822   7.050
 8245POPC   C4B49738  20.478  27.795   7.350
 8246POPC   NC349739  16.697  31.486   5.550
 8246POPC   PO449740  16.712  31.477   5.850
 8246POPC   GL149741  16.761  31.431   6.150
 8246POPC   GL249742  16.737  31.358   6.150
 8246POPC   C1A49743  16.767  31.459   6.450
 8246POPC   D2A49744  16.734  31.475   6.750
 8246POPC   C3A49745  16.722  31.485   7.050
 8246POPC   C4A49746  16.755  31.483   7.350
 8246POPC   C1B49747  16.839  31.265   6.450
 8246POPC   C2B49748  16.770  31.208   6.750
 8246POPC   C3B49749  16.764  31.217   7.050
 8246POPC   C4B49750  16.820  31.275   7.350
 8247POPC   NC349751  36.107  25.294   5.550
 8247POPC   PO449752  36.089  25.243   5.850
 8247POPC   GL149753  36.143  25.228   6.150
 8247POPC   GL249754  36.219  25.294   6.150
 8247POPC   C1A49755  36.150  25.294   6.450
 8247POPC   D2A49756  36.140  25.268   6.750
 8247POPC   C3A49757  36.127  25.265   7.050
 8247POPC   C4A49758  36.127  25.305   7.350
 8247POPC   C1B49759  36.380  25.263   6.450
 8247POPC   C2B49760  36.361  25.337   6.750
 8247POPC   C3B49761  36.411  25.283   7.050
 8247POPC   C4B49762  36.366  25.345   7.350
 8248POPC   NC349763  12.085  29.109   5.550
 8248POPC   PO449764  12.080  29.116   5.850
 8248POPC   GL149765  12.051  29.164   6.150
 8248POPC   GL249766  12.071  29.027   6.150
 8248POPC   C1A49767  12.066  29.096   6.450
 8248POPC   D2A49768  12.066  29.121   6.750
 8248POPC   C3A49769  12.053  29.181   7.050
 8248POPC   C4A49770  12.053  29.173   7.350
 8248POPC   C1B49771  12.025  28.847   6.450
 8248POPC   C2B49772  12.060  28.847   6.750
 8248POPC   C3B49773  12.082  28.916   7.050
 8248POPC   C4B49774  12.116  28.929   7.350
 8249POPC   NC349775  12.067  43.895   5.550
 8249POPC   PO449776  12.108  43.911   5.850
 8249POPC   GL149777  12.036  43.868   6.150
 8249POPC   GL249778  12.235  43.897   6.150
 8249POPC   C1A49779  12.120  43.936   6.450
 8249POPC   D2A49780  12.041  43.930   6.750
 8249POPC   C3A49781  12.076  43.858   7.050
 8249POPC   C4A49782  12.080  43.873   7.350
 8249POPC   C1B49783  12.345  44.037   6.450
 8249POPC   C2B49784  12.255  43.996   6.750
 8249POPC   C3B49785  12.326  43.952   7.050
 8249POPC   C4B49786  12.259  44.042   7.350
 8250POPC   NC349787  11.281   5.885   5.550
 8250POPC   PO449788  11.348   5.879   5.850
 8250POPC   GL149789  11.253   5.882   6.150
 8250POPC   GL249790  11.289   5.942   6.150
 8250POPC   C1A49791  11.315   5.894   6.450
 8250POPC   D2A49792  11.268   5.903   6.750
 8250POPC   C3A49793  11.307   5.833   7.050
 8250POPC   C4A49794  11.292   5.895   7.350
 8250POPC   C1B49795  11.207   6.050   6.450
 8250POPC   C2B49796  11.130   6.129   6.750
 8250POPC   C3B49797  11.171   6.119   7.050
 8250POPC   C4B49798  11.167   6.061   7.350
 8251POPC   NC349799  40.789  39.195   5.550
 8251POPC   PO449800  40.800  39.191   5.850
 8251POPC   GL149801  40.748  39.204   6.150
 8251POPC   GL249802  40.904  39.325   6.150
 8251POPC   C1A49803  40.744  39.237   6.450
 8251POPC   D2A49804  40.790  39.240   6.750
 8251POPC   C3A49805  40.794  39.252   7.050
 8251POPC   C4A49806  40.751  39.276   7.350
 8251POPC   C1B49807  41.023  39.321   6.450
 8251POPC   C2B49808  40.995  39.298   6.750
 8251POPC   C3B49809  41.032  39.313   7.050
 8251POPC   C4B49810  41.056  39.338   7.350
 8252POPC   NC349811   8.217   5.874   5.550
 8252POPC   PO449812   8.244   5.864   5.850
 8252POPC   GL149813   8.175   5.851   6.150
 8252POPC   GL249814   8.144   6.005   6.150
 8252POPC   C1A49815   8.160   5.896   6.450
 8252POPC   D2A49816   8.170   5.865   6.750
 8252POPC   C3A49817   8.167   5.886   7.050
 8252POPC   C4A49818   8.208   5.862   7.350
 8252POPC   C1B49819   8.144   6.142   6.450
 8252POPC   C2B49820   8.120   6.095   6.750
 8252POPC   C3B49821   8.109   6.055   7.050
 8252POPC   C4B49822   8.092   6.107   7.350
 8253POPC   NC349823  13.638  25.247   5.550
 8253POPC   PO449824  13.593  25.286   5.850
 8253POPC   GL149825  13.599  25.262   6.150
 8253POPC   GL249826  13.544  25.241   6.150
 8253POPC   C1A49827  13.677  25.294   6.450
 8253POPC   D2A49828  13.624  25.223   6.750
 8253POPC   C3A49829  13.596  25.297   7.050
 8253POPC   C4A49830  13.612  25.273   7.350
 8253POPC   C1B49831  13.382  25.308   6.450
 8253POPC   C2B49832  13.403  25.244   6.750
 8253POPC   C3B49833  13.331  25.294   7.050
 8253POPC   C4B49834  13.404  25.239   7.350
 8254POPC   NC349835  36.144  34.623   5.550
 8254POPC   PO449836  36.128  34.535   5.850
 8254POPC   GL149837  36.162  34.605   6.150
 8254POPC   GL249838  36.183  34.660   6.150
 8254POPC   C1A49839  36.087  34.533   6.450
 8254POPC   D2A49840  36.102  34.626   6.750
 8254POPC   C3A49841  36.132  34.599   7.050
 8254POPC   C4A49842  36.151  34.546   7.350
 8254POPC   C1B49843  36.304  34.753   6.450
 8254POPC   C2B49844  36.362  34.767   6.750
 8254POPC   C3B49845  36.368  34.755   7.050
 8254POPC   C4B49846  36.355  34.704   7.350
 8255POPC   NC349847   4.269  31.426   5.550
 8255POPC   PO449848   4.290  31.474   5.850
 8255POPC   GL149849   4.292  31.475   6.150
 8255POPC   GL249850   4.470  31.575   6.150
 8255POPC   C1A49851   4.316  31.437   6.450
 8255POPC   D2A49852   4.345  31.457   6.750
 8255POPC   C3A49853   4.275  31.491   7.050
 8255POPC   C4A49854   4.327  31.507   7.350
 8255POPC   C1B49855   4.584  31.611   6.450
 8255POPC   C2B49856   4.547  31.598   6.750
 8255POPC   C3B49857   4.593  31.543   7.050
 8255POPC   C4B49858   4.501  31.613   7.350
 8256POPC   NC349859  11.343  26.795   5.550
 8256POPC   PO449860  11.336  26.860   5.850
 8256POPC   GL149861  11.319  26.775   6.150
 8256POPC   GL249862  11.162  26.759   6.150
 8256POPC   C1A49863  11.348  26.852   6.450
 8256POPC   D2A49864  11.336  26.769   6.750
 8256POPC   C3A49865  11.322  26.856   7.050
 8256POPC   C4A49866  11.309  26.807   7.350
 8256POPC   C1B49867  11.133  26.651   6.450
 8256POPC   C2B49868  11.153  26.685   6.750
 8256POPC   C3B49869  11.097  26.691   7.050
 8256POPC   C4B49870  11.128  26.633   7.350
 8257POPC   NC349871   8.975  22.925   5.550
 8257POPC   PO449872   8.998  22.951   5.850
 8257POPC   GL149873   8.943  22.927   6.150
 8257POPC   GL249874   9.022  22.842   6.150
 8257POPC   C1A49875   8.929  22.922   6.450
 8257POPC   D2A49876   8.964  22.919   6.750
 8257POPC   C3A49877   8.927  22.918   7.050
 8257POPC   C4A49878   8.969  22.970   7.350
 8257POPC   C1B49879   9.035  22.726   6.450
 8257POPC   C2B49880   9.021  22.686   6.750
 8257POPC   C3B49881   8.982  22.679   7.050
 8257POPC   C4B49882   8.999  22.722   7.350
 8258POPC   NC349883  33.787   1.191   5.550
 8258POPC   PO449884  33.789   1.258   5.850
 8258POPC   GL149885  33.791   1.177   6.150
 8258POPC   GL249886  33.664   1.307   6.150
 8258POPC   C1A49887  33.756   1.183   6.450
 8258POPC   D2A49888  33.848   1.202   6.750
 8258POPC   C3A49889  33.847   1.214   7.050
 8258POPC   C4A49890  33.792   1.182   7.350
 8258POPC   C1B49891  33.574   1.398   6.450
 8258POPC   C2B49892  33.614   1.363   6.750
 8258POPC   C3B49893  33.569   1.333   7.050
 8258POPC   C4B49894  33.549   1.402   7.350
 8259POPC   NC349895  31.499  29.157   5.550
 8259POPC   PO449896  31.499  29.178   5.850
 8259POPC   GL149897  31.519  29.163   6.150
 8259POPC   GL249898  31.407  28.981   6.150
 8259POPC   C1A49899  31.506  29.106   6.450
 8259POPC   D2A49900  31.433  29.108   6.750
 8259POPC   C3A49901  31.489  29.188   7.050
 8259POPC   C4A49902  31.454  29.162   7.350
 8259POPC   C1B49903  31.428  28.857   6.450
 8259POPC   C2B49904  31.370  28.946   6.750
 8259POPC   C3B49905  31.424  28.941   7.050
 8259POPC   C4B49906  31.422  28.878   7.350
 8260POPC   NC349907  33.024   9.014   5.550
 8260POPC   PO449908  33.017   9.013   5.850
 8260POPC   GL149909  33.026   8.997   6.150
 8260POPC   GL249910  32.980   9.057   6.150
 8260POPC   C1A49911  33.024   8.963   6.450
 8260POPC   D2A49912  33.025   9.020   6.750
 8260POPC   C3A49913  33.014   9.017   7.050
 8260POPC   C4A49914  32.993   8.987   7.350
 8260POPC   C1B49915  32.905   9.210   6.450
 8260POPC   C2B49916  32.920   9.210   6.750
 8260POPC   C3B49917  32.887   9.143   7.050
 8260POPC   C4B49918  32.855   9.142   7.350
 8261POPC   NC349919   6.631  29.872   5.550
 8261POPC   PO449920   6.617  29.951   5.850
 8261POPC   GL149921   6.603  29.878   6.150
 8261POPC   GL249922   6.544  30.047   6.150
 8261POPC   C1A49923   6.639  29.884   6.450
 8261POPC   D2A49924   6.680  29.970   6.750
 8261POPC   C3A49925   6.642  29.920   7.050
 8261POPC   C4A49926   6.651  29.915   7.350
 8261POPC   C1B49927   6.547  30.180   6.450
 8261POPC   C2B49928   6.526  30.195   6.750
 8261POPC   C3B49929   6.534  30.111   7.050
 8261POPC   C4B49930   6.507  30.191   7.350
 8262POPC   NC349931  33.757   5.132   5.550
 8262POPC   PO449932  33.751   5.140   5.850
 8262POPC   GL149933  33.823   5.101   6.150
 8262POPC   GL249934  33.852   5.003   6.150
 8262POPC   C1A49935  33.763   5.115   6.450
 8262POPC   D2A49936  33.846   5.055   6.750
 8262POPC   C3A49937  33.792   5.099   7.050
 8262POPC   C4A49938  33.773   5.118   7.350
 8262POPC   C1B49939  33.944   4.891   6.450
 8262POPC   C2B49940  33.934   4.871   6.750
 8262POPC   C3B49941  33.951   4.895   7.050
 8262POPC   C4B49942  33.947   4.922   7.350
 8263POPC   NC349943   1.177  28.340   5.550
 8263POPC   PO449944   1.233  28.414   5.850
 8263POPC   GL149945   1.199  28.358   6.150
 8263POPC   GL249946   1.347  28.427   6.150
 8263POPC   C1A49947   1.241  28.403   6.450
 8263POPC   D2A49948   1.256  28.345   6.750
 8263POPC   C3A49949   1.236  28.387   7.050
 8263POPC   C4A49950   1.246  28.405   7.350
 8263POPC   C1B49951   1.424  28.522   6.450
 8263POPC   C2B49952   1.388  28.564   6.750
 8263POPC   C3B49953   1.387  28.571   7.050
 8263POPC   C4B49954   1.390  28.487   7.350
 8264POPC   NC349955  22.161   2.803   5.550
 8264POPC   PO449956  22.190   2.726   5.850
 8264POPC   GL149957  22.192   2.784   6.150
 8264POPC   GL249958  22.174   2.879   6.150
 8264POPC   C1A49959  22.184   2.743   6.450
 8264POPC   D2A49960  22.137   2.808   6.750
 8264POPC   C3A49961  22.211   2.808   7.050
 8264POPC   C4A49962  22.141   2.745   7.350
 8264POPC   C1B49963  22.239   2.969   6.450
 8264POPC   C2B49964  22.172   3.060   6.750
 8264POPC   C3B49965  22.228   3.045   7.050
 8264POPC   C4B49966  22.176   3.044   7.350
 8265POPC   NC349967  32.254  33.788   5.550
 8265POPC   PO449968  32.296  33.832   5.850
 8265POPC   GL149969  32.201  33.839   6.150
 8265POPC   GL249970  32.325  33.853   6.150
 8265POPC   C1A49971  32.199  33.780   6.450
 8265POPC   D2A49972  32.222  33.752   6.750
 8265POPC   C3A49973  32.280  33.834   7.050
 8265POPC   C4A49974  32.260  33.809   7.350
 8265POPC   C1B49975  32.513  33.899   6.450
 8265POPC   C2B49976  32.478  33.824   6.750
 8265POPC   C3B49977  32.496  33.906   7.050
 8265POPC   C4B49978  32.458  33.901   7.350
 8266POPC   NC349979   1.187  15.951   5.550
 8266POPC   PO449980   1.217  15.978   5.850
 8266POPC   GL149981   1.184  15.952   6.150
 8266POPC   GL249982   1.338  15.916   6.150
 8266POPC   C1A49983   1.227  15.912   6.450
 8266POPC   D2A49984   1.211  15.985   6.750
 8266POPC   C3A49985   1.214  15.976   7.050
 8266POPC   C4A49986   1.251  15.922   7.350
 8266POPC   C1B49987   1.411  15.824   6.450
 8266POPC   C2B49988   1.476  15.869   6.750
 8266POPC   C3B49989   1.407  15.857   7.050
 8266POPC   C4B49990   1.398  15.880   7.350
 8267POPC   NC349991  20.647   0.439   5.550
 8267POPC   PO449992  20.576   0.468   5.850
 8267POPC   GL149993  20.631   0.408   6.150
 8267POPC   GL249994  20.664   0.549   6.150
 8267POPC   C1A49995  20.599   0.429   6.450
 8267POPC   D2A49996  20.608   0.424   6.750
 8267POPC   C3A49997  20.582   0.403   7.050
 8267POPC   C4A49998  20.575   0.394   7.350
 8267POPC   C1B49999  20.764   0.645   6.450
 8267POPC   C2B50000  20.735   0.651   6.750
 8267POPC   C3B50001  20.768   0.632   7.050
 8267POPC   C4B50002  20.800   0.659   7.350
 8268POPC   NC350003  19.812  10.552   5.550
 8268POPC   PO450004  19.864  10.520   5.850
 8268POPC   GL150005  19.858  10.533   6.150
 8268POPC   GL250006  19.689  10.552   6.150
 8268POPC   C1A50007  19.790  10.479   6.450
 8268POPC   D2A50008  19.816  10.560   6.750
 8268POPC   C3A50009  19.808  10.536   7.050
 8268POPC   C4A50010  19.818  10.567   7.350
 8268POPC   C1B50011  19.627  10.544   6.450
 8268POPC   C2B50012  19.608  10.539   6.750
 8268POPC   C3B50013  19.610  10.499   7.050
 8268POPC   C4B50014  19.537  10.494   7.350
 8269POPC   NC350015  10.531  41.533   5.550
 8269POPC   PO450016  10.542  41.595   5.850
 8269POPC   GL150017  10.521  41.543   6.150
 8269POPC   GL250018  10.622  41.644   6.150
 8269POPC   C1A50019  10.499  41.579   6.450
 8269POPC   D2A50020  10.493  41.569   6.750
 8269POPC   C3A50021  10.518  41.512   7.050
 8269POPC   C4A50022  10.561  41.602   7.350
 8269POPC   C1B50023  10.680  41.700   6.450
 8269POPC   C2B50024  10.709  41.713   6.750
 8269POPC   C3B50025  10.733  41.730   7.050
 8269POPC   C4B50026  10.662  41.692   7.350
 8270POPC   NC350027  42.337  26.076   5.550
 8270POPC   PO450028  42.337  26.076   5.850
 8270POPC   GL150029  42.371  26.003   6.150
 8270POPC   GL250030  42.333  26.145   6.150
 8270POPC   C1A50031  42.286  26.037   6.450
 8270POPC   D2A50032  42.300  26.015   6.750
 8270POPC   C3A50033  42.347  26.066   7.050
 8270POPC   C4A50034  42.383  26.030   7.350
 8270POPC   C1B50035  42.410  26.318   6.450
 8270POPC   C2B50036  42.423  26.279   6.750
 8270POPC   C3B50037  42.401  26.294   7.050
 8270POPC   C4B50038  42.393  26.253   7.350
 8271POPC   NC350039  34.602  29.157   5.550
 8271POPC   PO450040  34.592  29.135   5.850
 8271POPC   GL150041  34.554  29.144   6.150
 8271POPC   GL250042  34.457  29.075   6.150
 8271POPC   C1A50043  34.577  29.127   6.450
 8271POPC   D2A50044  34.619  29.120   6.750
 8271POPC   C3A50045  34.564  29.122   7.050
 8271POPC   C4A50046  34.529  29.127   7.350
 8271POPC   C1B50047  34.311  28.996   6.450
 8271POPC   C2B50048  34.359  29.047   6.750
 8271POPC   C3B50049  34.362  28.984   7.050
 8271POPC   C4B50050  34.399  29.050   7.350
 8272POPC   NC350051  11.288  13.593   5.550
 8272POPC   PO450052  11.341  13.634   5.850
 8272POPC   GL150053  11.273  13.588   6.150
 8272POPC   GL250054  11.133  13.616   6.150
 8272POPC   C1A50055  11.276  13.608   6.450
 8272POPC   D2A50056  11.337  13.627   6.750
 8272POPC   C3A50057  11.347  13.643   7.050
 8272POPC   C4A50058  11.286  13.624   7.350
 8272POPC   C1B50059  11.113  13.499   6.450
 8272POPC   C2B50060  11.041  13.544   6.750
 8272POPC   C3B50061  11.086  13.579   7.050
 8272POPC   C4B50062  11.024  13.578   7.350
 8273POPC   NC350063  23.708  20.621   5.550
 8273POPC   PO450064  23.691  20.608   5.850
 8273POPC   GL150065  23.675  20.603   6.150
 8273POPC   GL250066  23.553  20.555   6.150
 8273POPC   C1A50067  23.752  20.592   6.450
 8273POPC   D2A50068  23.716  20.607   6.750
 8273POPC   C3A50069  23.716  20.656   7.050
 8273POPC   C4A50070  23.738  20.647   7.350
 8273POPC   C1B50071  23.425  20.607   6.450
 8273POPC   C2B50072  23.446  20.575   6.750
 8273POPC   C3B50073  23.418  20.556   7.050
 8273POPC   C4B50074  23.473  20.622   7.350
 8274POPC   NC350075  14.384  25.283   5.550
 8274POPC   PO450076  14.443  25.282   5.850
 8274POPC   GL150077  14.441  25.264   6.150
 8274POPC   GL250078  14.367  25.323   6.150
 8274POPC   C1A50079  14.371  25.266   6.450
 8274POPC   D2A50080  14.427  25.252   6.750
 8274POPC   C3A50081  14.430  25.228   7.050
 8274POPC   C4A50082  14.385  25.224   7.350
 8274POPC   C1B50083  14.251  25.434   6.450
 8274POPC   C2B50084  14.261  25.439   6.750
 8274POPC   C3B50085  14.273  25.402   7.050
 8274POPC   C4B50086  14.251  25.436   7.350
 8275POPC   NC350087  36.862  44.614   5.550
 8275POPC   PO450088  36.929  44.643   5.850
 8275POPC   GL150089  36.927  44.685   6.150
 8275POPC   GL250090  36.995  44.527   6.150
 8275POPC   C1A50091  36.861  44.712   6.450
 8275POPC   D2A50092  36.914  44.644   6.750
 8275POPC   C3A50093  36.899  44.702   7.050
 8275POPC   C4A50094  36.926  44.677   7.350
 8275POPC   C1B50095  37.040  44.500   6.450
 8275POPC   C2B50096  37.045  44.443   6.750
 8275POPC   C3B50097  37.084  44.520   7.050
 8275POPC   C4B50098  37.035  44.487   7.350
 8276POPC   NC350099  29.915  23.688   5.550
 8276POPC   PO450100  29.912  23.718   5.850
 8276POPC   GL150101  29.919  23.743   6.150
 8276POPC   GL250102  29.775  23.691   6.150
 8276POPC   C1A50103  29.890  23.674   6.450
 8276POPC   D2A50104  29.962  23.719   6.750
 8276POPC   C3A50105  29.965  23.674   7.050
 8276POPC   C4A50106  29.893  23.735   7.350
 8276POPC   C1B50107  29.640  23.670   6.450
 8276POPC   C2B50108  29.696  23.690   6.750
 8276POPC   C3B50109  29.636  23.659   7.050
 8276POPC   C4B50110  29.680  23.626   7.350
 8277POPC   NC350111  31.424  27.624   5.550
 8277POPC   PO450112  31.488  27.640   5.850
 8277POPC   GL150113  31.428  27.633   6.150
 8277POPC   GL250114  31.412  27.514   6.150
 8277POPC   C1A50115  31.437  27.591   6.450
 8277POPC   D2A50116  31.513  27.547   6.750
 8277POPC   C3A50117  31.482  27.544   7.050
 8277POPC   C4A50118  31.489  27.563   7.350
 8277POPC   C1B50119  31.287  27.435   6.450
 8277POPC   C2B50120  31.268  27.503   6.750
 8277POPC   C3B50121  31.208  27.487   7.050
 8277POPC   C4B50122  31.233  27.420   7.350
 8278POPC   NC350123  42.344  10.478   5.550
 8278POPC   PO450124  42.311  10.573   5.850
 8278POPC   GL150125  42.329  10.483   6.150
 8278POPC   GL250126  42.212  10.417   6.150
 8278POPC   C1A50127  42.294  10.495   6.450
 8278POPC   D2A50128  42.300  10.492   6.750
 8278POPC   C3A50129  42.371  10.477   7.050
 8278POPC   C4A50130  42.345  10.485   7.350
 8278POPC   C1B50131  42.144  10.316   6.450
 8278POPC   C2B50132  42.160  10.342   6.750
 8278POPC   C3B50133  42.103  10.397   7.050
 8278POPC   C4B50134  42.181  10.311   7.350
 8279POPC   NC350135   0.456  40.795   5.550
 8279POPC   PO450136   0.402  40.797   5.850
 8279POPC   GL150137   0.396  40.829   6.150
 8279POPC   GL250138   0.329  40.900   6.150
 8279POPC   C1A50139   0.422  40.823   6.450
 8279POPC   D2A50140   0.475  40.788   6.750
 8279POPC   C3A50141   0.444  40.770   7.050
 8279POPC   C4A50142   0.447  40.741   7.350
 8279POPC   C1B50143   0.241  40.966   6.450
 8279POPC   C2B50144   0.216  40.952   6.750
 8279POPC   C3B50145   0.246  40.903   7.050
 8279POPC   C4B50146   0.237  40.910   7.350
 8280POPC   NC350147  43.106  11.327   5.550
 8280POPC   PO450148  43.136  11.311   5.850
 8280POPC   GL150149  43.084  11.275   6.150
 8280POPC   GL250150  43.246  11.389   6.150
 8280POPC   C1A50151  43.091  11.276   6.450
 8280POPC   D2A50152  43.062  11.274   6.750
 8280POPC   C3A50153  43.144  11.272   7.050
 8280POPC   C4A50154  43.154  11.299   7.350
 8280POPC   C1B50155  43.339  11.433   6.450
 8280POPC   C2B50156  43.343  11.409   6.750
 8280POPC   C3B50157  43.350  11.419   7.050
 8280POPC   C4B50158  43.319  11.409   7.350
 8281POPC   NC350159  41.557  16.683   5.550
 8281POPC   PO450160  41.586  16.779   5.850
 8281POPC   GL150161  41.596  16.744   6.150
 8281POPC   GL250162  41.427  16.803   6.150
 8281POPC   C1A50163  41.585  16.781   6.450
 8281POPC   D2A50164  41.548  16.767   6.750
 8281POPC   C3A50165  41.597  16.778   7.050
 8281POPC   C4A50166  41.530  16.706   7.350
 8281POPC   C1B50167  41.298  16.790   6.450
 8281POPC   C2B50168  41.299  16.793   6.750
 8281POPC   C3B50169  41.371  16.791   7.050
 8281POPC   C4B50170  41.298  16.833   7.350
 8282POPC   NC350171  11.286   8.163   5.550
 8282POPC   PO450172  11.319   8.212   5.850
 8282POPC   GL150173  11.341   8.170   6.150
 8282POPC   GL250174  11.287   8.090   6.150
 8282POPC   C1A50175  11.319   8.202   6.450
 8282POPC   D2A50176  11.286   8.225   6.750
 8282POPC   C3A50177  11.348   8.173   7.050
 8282POPC   C4A50178  11.350   8.193   7.350
 8282POPC   C1B50179  11.271   7.916   6.450
 8282POPC   C2B50180  11.349   7.975   6.750
 8282POPC   C3B50181  11.253   7.984   7.050
 8282POPC   C4B50182  11.254   7.903   7.350
 8283POPC   NC350183  37.670  44.653   5.550
 8283POPC   PO450184  37.690  44.689   5.850
 8283POPC   GL150185  37.690  44.666   6.150
 8283POPC   GL250186  37.525  44.641   6.150
 8283POPC   C1A50187  37.702  44.641   6.450
 8283POPC   D2A50188  37.657  44.688   6.750
 8283POPC   C3A50189  37.660  44.696   7.050
 8283POPC   C4A50190  37.702  44.712   7.350
 8283POPC   C1B50191  37.422  44.739   6.450
 8283POPC   C2B50192  37.384  44.720   6.750
 8283POPC   C3B50193  37.450  44.741   7.050
 8283POPC   C4B50194  37.426  44.726   7.350
 8284POPC   NC350195   9.718  43.088   5.550
 8284POPC   PO450196   9.783  43.148   5.850
 8284POPC   GL150197   9.739  43.110   6.150
 8284POPC   GL250198   9.700  43.030   6.150
 8284POPC   C1A50199   9.734  43.062   6.450
 8284POPC   D2A50200   9.757  43.090   6.750
 8284POPC   C3A50201   9.768  43.107   7.050
 8284POPC   C4A50202   9.780  43.155   7.350
 8284POPC   C1B50203   9.667  42.914   6.450
 8284POPC   C2B50204   9.670  42.883   6.750
 8284POPC   C3B50205   9.634  42.846   7.050
 8284POPC   C4B50206   9.683  42.918   7.350
 8285POPC   NC350207   7.446  19.815   5.550
 8285POPC   PO450208   7.411  19.878   5.850
 8285POPC   GL150209   7.451  19.834   6.150
 8285POPC   GL250210   7.394  19.740   6.150
 8285POPC   C1A50211   7.416  19.877   6.450
 8285POPC   D2A50212   7.433  19.811   6.750
 8285POPC   C3A50213   7.452  19.798   7.050
 8285POPC   C4A50214   7.462  19.862   7.350
 8285POPC   C1B50215   7.374  19.556   6.450
 8285POPC   C2B50216   7.359  19.609   6.750
 8285POPC   C3B50217   7.315  19.557   7.050
 8285POPC   C4B50218   7.311  19.609   7.350
 8286POPC   NC350219   7.434  40.750   5.550
 8286POPC   PO450220   7.405  40.823   5.850
 8286POPC   GL150221   7.410  40.784   6.150
 8286POPC   GL250222   7.378  40.852   6.150
 8286POPC   C1A50223   7.374  40.750   6.450
 8286POPC   D2A50224   7.385  40.805   6.750
 8286POPC   C3A50225   7.372  40.751   7.050
 8286POPC   C4A50226   7.440  40.756   7.350
 8286POPC   C1B50227   7.216  40.926   6.450
 8286POPC   C2B50228   7.286  40.924   6.750
 8286POPC   C3B50229   7.265  40.953   7.050
 8286POPC   C4B50230   7.273  41.017   7.350
 8287POPC   NC350231   4.328  22.208   5.550
 8287POPC   PO450232   4.334  22.159   5.850
 8287POPC   GL150233   4.330  22.125   6.150
 8287POPC   GL250234   4.208  22.130   6.150
 8287POPC   C1A50235   4.315  22.135   6.450
 8287POPC   D2A50236   4.366  22.158   6.750
 8287POPC   C3A50237   4.344  22.198   7.050
 8287POPC   C4A50238   4.341  22.117   7.350
 8287POPC   C1B50239   4.166  22.005   6.450
 8287POPC   C2B50240   4.165  21.978   6.750
 8287POPC   C3B50241   4.124  21.990   7.050
 8287POPC   C4B50242   4.141  22.046   7.350
 8288POPC   NC350243  12.841  26.081   5.550
 8288POPC   PO450244  12.900  26.005   5.850
 8288POPC   GL150245  12.847  26.007   6.150
 8288POPC   GL250246  12.806  26.161   6.150
 8288POPC   C1A50247  12.863  26.007   6.450
 8288POPC   D2A50248  12.897  26.008   6.750
 8288POPC   C3A50249  12.874  26.017   7.050
 8288POPC   C4A50250  12.867  26.063   7.350
 8288POPC   C1B50251  12.801  26.261   6.450
 8288POPC   C2B50252  12.888  26.332   6.750
 8288POPC   C3B50253  12.862  26.274   7.050
 8288POPC   C4B50254  12.834  26.287   7.350
 8289POPC   NC350255  17.549  17.533   5.550
 8289POPC   PO450256  17.537  17.466   5.850
 8289POPC   GL150257  17.513  17.483   6.150
 8289POPC   GL250258  17.434  17.484   6.150
 8289POPC   C1A50259  17.551  17.497   6.450
 8289POPC   D2A50260  17.542  17.554   6.750
 8289POPC   C3A50261  17.527  17.495   7.050
 8289POPC   C4A50262  17.461  17.466   7.350
 8289POPC   C1B50263  17.233  17.424   6.450
 8289POPC   C2B50264  17.306  17.395   6.750
 8289POPC   C3B50265  17.321  17.417   7.050
 8289POPC   C4B50266  17.306  17.433   7.350
 8290POPC   NC350267  44.641  37.689   5.550
 8290POPC   PO450268  44.655  37.672   5.850
 8290POPC   GL150269  44.702  37.718   6.150
 8290POPC   GL250270  44.774  37.665   6.150
 8290POPC   C1A50271  44.640  37.656   6.450
 8290POPC   D2A50272  44.619  37.705   6.750
 8290POPC   C3A50273  44.678  37.671   7.050
 8290POPC   C4A50274  44.691  37.631   7.350
 8290POPC   C1B50275  44.872  37.631   6.450
 8290POPC   C2B50276  44.918  37.706   6.750
 8290POPC   C3B50277  44.946  37.721   7.050
 8290POPC   C4B50278  44.928  37.653   7.350
 8291POPC   NC350279  20.596   4.294   5.550
 8291POPC   PO450280  20.602   4.334   5.850
 8291POPC   GL150281  20.642   4.296   6.150
 8291POPC   GL250282  20.637   4.185   6.150
 8291POPC   C1A50283  20.637   4.346   6.450
 8291POPC   D2A50284  20.577   4.343   6.750
 8291POPC   C3A50285  20.561   4.295   7.050
 8291POPC   C4A50286  20.595   4.272   7.350
 8291POPC   C1B50287  20.696   4.118   6.450
 8291POPC   C2B50288  20.732   4.100   6.750
 8291POPC   C3B50289  20.739   4.124   7.050
 8291POPC   C4B50290  20.734   4.078   7.350
 8292POPC   NC350291  29.140  27.584   5.550
 8292POPC   PO450292  29.156  27.635   5.850
 8292POPC   GL150293  29.130  27.589   6.150
 8292POPC   GL250294  29.249  27.693   6.150
 8292POPC   C1A50295  29.132  27.554   6.450
 8292POPC   D2A50296  29.171  27.582   6.750
 8292POPC   C3A50297  29.186  27.618   7.050
 8292POPC   C4A50298  29.185  27.555   7.350
 8292POPC   C1B50299  29.336  27.728   6.450
 8292POPC   C2B50300  29.369  27.675   6.750
 8292POPC   C3B50301  29.344  27.763   7.050
 8292POPC   C4B50302  29.316  27.739   7.350
 8293POPC   NC350303  35.360  42.307   5.550
 8293POPC   PO450304  35.342  42.302   5.850
 8293POPC   GL150305  35.372  42.349   6.150
 8293POPC   GL250306  35.387  42.458   6.150
 8293POPC   C1A50307  35.364  42.287   6.450
 8293POPC   D2A50308  35.337  42.299   6.750
 8293POPC   C3A50309  35.379  42.375   7.050
 8293POPC   C4A50310  35.386  42.299   7.350
 8293POPC   C1B50311  35.381  42.560   6.450
 8293POPC   C2B50312  35.367  42.558   6.750
 8293POPC   C3B50313  35.327  42.567   7.050
 8293POPC   C4B50314  35.393  42.610   7.350
 8294POPC   NC350315   3.571   8.168   5.550
 8294POPC   PO450316   3.525   8.223   5.850
 8294POPC   GL150317   3.577   8.153   6.150
 8294POPC   GL250318   3.610   8.181   6.150
 8294POPC   C1A50319   3.554   8.183   6.450
 8294POPC   D2A50320   3.566   8.243   6.750
 8294POPC   C3A50321   3.569   8.238   7.050
 8294POPC   C4A50322   3.523   8.166   7.350
 8294POPC   C1B50323   3.816   8.149   6.450
 8294POPC   C2B50324   3.800   8.074   6.750
 8294POPC   C3B50325   3.773   8.110   7.050
 8294POPC   C4B50326   3.758   8.081   7.350
 8295POPC   NC350327  35.320  29.163   5.550
 8295POPC   PO450328  35.372  29.181   5.850
 8295POPC   GL150329  35.347  29.106   6.150
 8295POPC   GL250330  35.444  29.230   6.150
 8295POPC   C1A50331  35.334  29.166   6.450
 8295POPC   D2A50332  35.326  29.150   6.750
 8295POPC   C3A50333  35.399  29.103   7.050
 8295POPC   C4A50334  35.348  29.113   7.350
 8295POPC   C1B50335  35.568  29.319   6.450
 8295POPC   C2B50336  35.534  29.348   6.750
 8295POPC   C3B50337  35.508  29.318   7.050
 8295POPC   C4B50338  35.549  29.349   7.350
 8296POPC   NC350339  39.188  44.698   5.550
 8296POPC   PO450340  39.189  44.660   5.850
 8296POPC   GL150341  39.267  44.668   6.150
 8296POPC   GL250342  39.107  44.623   6.150
 8296POPC   C1A50343  39.210  44.694   6.450
 8296POPC   D2A50344  39.227  44.674   6.750
 8296POPC   C3A50345  39.207  44.709   7.050
 8296POPC   C4A50346  39.271  44.661   7.350
 8296POPC   C1B50347  39.021  44.524   6.450
 8296POPC   C2B50348  39.010  44.509   6.750
 8296POPC   C3B50349  38.974  44.544   7.050
 8296POPC   C4B50350  39.043  44.540   7.350
 8297POPC   NC350351  29.122  19.022   5.550
 8297POPC   PO450352  29.140  19.067   5.850
 8297POPC   GL150353  29.121  19.036   6.150
 8297POPC   GL250354  29.279  19.053   6.150
 8297POPC   C1A50355  29.157  19.035   6.450
 8297POPC   D2A50356  29.108  19.044   6.750
 8297POPC   C3A50357  29.136  19.089   7.050
 8297POPC   C4A50358  29.154  19.063   7.350
 8297POPC   C1B50359  29.407  19.066   6.450
 8297POPC   C2B50360  29.344  19.096   6.750
 8297POPC   C3B50361  29.427  19.061   7.050
 8297POPC   C4B50362  29.354  19.120   7.350
 8298POPC   NC350363  28.388  40.021   5.550
 8298POPC   PO450364  28.377  40.008   5.850
 8298POPC   GL150365  28.328  40.008   6.150
 8298POPC   GL250366  28.464  39.888   6.150
 8298POPC   C1A50367  28.329  40.050   6.450
 8298POPC   D2A50368  28.415  40.001   6.750
 8298POPC   C3A50369  28.401  39.996   7.050
 8298POPC   C4A50370  28.377  40.049   7.350
 8298POPC   C1B50371  28.523  39.895   6.450
 8298POPC   C2B50372  28.569  39.816   6.750
 8298POPC   C3B50373  28.605  39.880   7.050
 8298POPC   C4B50374  28.538  39.881   7.350
 8299POPC   NC350375   1.167  19.841   5.550
 8299POPC   PO450376   1.172  19.833   5.850
 8299POPC   GL150377   1.195  19.841   6.150
 8299POPC   GL250378   1.104  19.894   6.150
 8299POPC   C1A50379   1.252  19.862   6.450
 8299POPC   D2A50380   1.241  19.800   6.750
 8299POPC   C3A50381   1.235  19.804   7.050
 8299POPC   C4A50382   1.201  19.833   7.350
 8299POPC   C1B50383   1.016  19.915   6.450
 8299POPC   C2B50384   0.937  19.852   6.750
 8299POPC   C3B50385   0.946  19.859   7.050
 8299POPC   C4B50386   0.969  19.919   7.350
 8300POPC   NC350387  26.846  42.359   5.550
 8300POPC   PO450388  26.816  42.294   5.850
 8300POPC   GL150389  26.833  42.318   6.150
 8300POPC   GL250390  26.925  42.276   6.150
 8300POPC   C1A50391  26.818  42.321   6.450
 8300POPC   D2A50392  26.843  42.301   6.750
 8300POPC   C3A50393  26.834  42.330   7.050
 8300POPC   C4A50394  26.780  42.345   7.350
 8300POPC   C1B50395  27.023  42.298   6.450
 8300POPC   C2B50396  27.067  42.354   6.750
 8300POPC   C3B50397  27.062  42.277   7.050
 8300POPC   C4B50398  27.105  42.270   7.350
 8301POPC   NC350399   2.781  24.504   5.550
 8301POPC   PO450400   2.758  24.481   5.850
 8301POPC   GL150401   2.815  24.528   6.150
 8301POPC   GL250402   2.901  24.393   6.150
 8301POPC   C1A50403   2.784  24.523   6.450
 8301POPC   D2A50404   2.767  24.514   6.750
 8301POPC   C3A50405   2.773  24.462   7.050
 8301POPC   C4A50406   2.759  24.536   7.350
 8301POPC   C1B50407   2.923  24.373   6.450
 8301POPC   C2B50408   3.011  24.313   6.750
 8301POPC   C3B50409   2.935  24.329   7.050
 8301POPC   C4B50410   3.021  24.345   7.350
 8302POPC   NC350411  29.923  32.233   5.550
 8302POPC   PO450412  29.940  32.217   5.850
 8302POPC   GL150413  29.874  32.254   6.150
 8302POPC   GL250414  29.915  32.144   6.150
 8302POPC   C1A50415  29.912  32.285   6.450
 8302POPC   D2A50416  29.876  32.273   6.750
 8302POPC   C3A50417  29.889  32.286   7.050
 8302POPC   C4A50418  29.904  32.231   7.350
 8302POPC   C1B50419  30.015  32.022   6.450
 8302POPC   C2B50420  30.013  32.055   6.750
 8302POPC   C3B50421  29.984  32.011   7.050
 8302POPC   C4B50422  29.992  31.981   7.350
 8303POPC   NC350423   0.438  34.602   5.550
 8303POPC   PO450424   0.428  34.527   5.850
 8303POPC   GL150425   0.448  34.604   6.150
 8303POPC   GL250426   0.347  34.672   6.150
 8303POPC   C1A50427   0.414  34.554   6.450
 8303POPC   D2A50428   0.406  34.588   6.750
 8303POPC   C3A50429   0.448  34.617   7.050
 8303POPC   C4A50430   0.476  34.569   7.350
 8303POPC   C1B50431   0.350  34.813   6.450
 8303POPC   C2B50432   0.391  34.768   6.750
 8303POPC   C3B50433   0.346  34.769   7.050
 8303POPC   C4B50434   0.303  34.782   7.350
 8304POPC   NC350435   4.357  23.736   5.550
 8304POPC   PO450436   4.321  23.749   5.850
 8304POPC   GL150437   4.328  23.720   6.150
 8304POPC   GL250438   4.389  23.607   6.150
 8304POPC   C1A50439   4.320  23.743   6.450
 8304POPC   D2A50440   4.366  23.675   6.750
 8304POPC   C3A50441   4.321  23.701   7.050
 8304POPC   C4A50442   4.281  23.676   7.350
 8304POPC   C1B50443   4.549  23.595   6.450
 8304POPC   C2B50444   4.505  23.588   6.750
 8304POPC   C3B50445   4.578  23.597   7.050
 8304POPC   C4B50446   4.570  23.621   7.350
 8305POPC   NC350447   2.031  18.278   5.550
 8305POPC   PO450448   2.027  18.289   5.850
 8305POPC   GL150449   1.948  18.247   6.150
 8305POPC   GL250450   2.106  18.313   6.150
 8305POPC   C1A50451   1.954  18.306   6.450
 8305POPC   D2A50452   1.968  18.254   6.750
 8305POPC   C3A50453   2.004  18.276   7.050
 8305POPC   C4A50454   1.993  18.280   7.350
 8305POPC   C1B50455   2.232  18.466   6.450
 8305POPC   C2B50456   2.194  18.404   6.750
 8305POPC   C3B50457   2.216  18.435   7.050
 8305POPC   C4B50458   2.222  18.427   7.350
 8306POPC   NC350459  19.841  12.842   5.550
 8306POPC   PO450460  19.797  12.865   5.850
 8306POPC   GL150461  19.854  12.864   6.150
 8306POPC   GL250462  19.751  12.776   6.150
 8306POPC   C1A50463  19.842  12.818   6.450
 8306POPC   D2A50464  19.812  12.847   6.750
 8306POPC   C3A50465  19.870  12.845   7.050
 8306POPC   C4A50466  19.820  12.858   7.350
 8306POPC   C1B50467  19.691  12.653   6.450
 8306POPC   C2B50468  19.738  12.666   6.750
 8306POPC   C3B50469  19.689  12.645   7.050
 8306POPC   C4B50470  19.732  12.652   7.350
 8307POPC   NC350471  18.292  37.679   5.550
 8307POPC   PO450472  18.258  37.638   5.850
 8307POPC   GL150473  18.323  37.716   6.150
 8307POPC   GL250474  18.210  37.746   6.150
 8307POPC   C1A50475  18.233  37.661   6.450
 8307POPC   D2A50476  18.244  37.641   6.750
 8307POPC   C3A50477  18.307  37.662   7.050
 8307POPC   C4A50478  18.246  37.694   7.350
 8307POPC   C1B50479  18.066  37.766   6.450
 8307POPC   C2B50480  18.079  37.754   6.750
 8307POPC   C3B50481  18.054  37.777   7.050
 8307POPC   C4B50482  18.077  37.771   7.350
 8308POPC   NC350483  20.569   7.387   5.550
 8308POPC   PO450484  20.657   7.405   5.850
 8308POPC   GL150485  20.652   7.418   6.150
 8308POPC   GL250486  20.677   7.283   6.150
 8308POPC   C1A50487  20.586   7.457   6.450
 8308POPC   D2A50488  20.601   7.467   6.750
 8308POPC   C3A50489  20.623   7.411   7.050
 8308POPC   C4A50490  20.618   7.392   7.350
 8308POPC   C1B50491  20.774   7.176   6.450
 8308POPC   C2B50492  20.706   7.216   6.750
 8308POPC   C3B50493  20.757   7.218   7.050
 8308POPC   C4B50494  20.775   7.218   7.350
 8309POPC   NC350495   8.212  36.943   5.550
 8309POPC   PO450496   8.241  36.871   5.850
 8309POPC   GL150497   8.211  36.887   6.150
 8309POPC   GL250498   8.297  37.000   6.150
 8309POPC   C1A50499   8.228  36.876   6.450
 8309POPC   D2A50500   8.191  36.910   6.750
 8309POPC   C3A50501   8.148  36.926   7.050
 8309POPC   C4A50502   8.153  36.923   7.350
 8309POPC   C1B50503   8.435  37.014   6.450
 8309POPC   C2B50504   8.462  37.049   6.750
 8309POPC   C3B50505   8.399  37.002   7.050
 8309POPC   C4B50506   8.440  37.012   7.350
 8310POPC   NC350507  24.506   5.128   5.550
 8310POPC   PO450508  24.519   5.075   5.850
 8310POPC   GL150509  24.527   5.104   6.150
 8310POPC   GL250510  24.579   5.175   6.150
 8310POPC   C1A50511  24.528   5.079   6.450
 8310POPC   D2A50512  24.512   5.076   6.750
 8310POPC   C3A50513  24.536   5.126   7.050
 8310POPC   C4A50514  24.454   5.049   7.350
 8310POPC   C1B50515  24.697   5.156   6.450
 8310POPC   C2B50516  24.731   5.165   6.750
 8310POPC   C3B50517  24.707   5.185   7.050
 8310POPC   C4B50518  24.670   5.215   7.350
 8311POPC   NC350519   6.650  21.381   5.550
 8311POPC   PO450520   6.613  21.358   5.850
 8311POPC   GL150521   6.649  21.421   6.150
 8311POPC   GL250522   6.790  21.300   6.150
 8311POPC   C1A50523   6.627  21.394   6.450
 8311POPC   D2A50524   6.618  21.385   6.750
 8311POPC   C3A50525   6.634  21.413   7.050
 8311POPC   C4A50526   6.665  21.372   7.350
 8311POPC   C1B50527   6.873  21.283   6.450
 8311POPC   C2B50528   6.840  21.239   6.750
 8311POPC   C3B50529   6.829  21.267   7.050
 8311POPC   C4B50530   6.899  21.236   7.350
 8312POPC   NC350531  15.931  17.548   5.550
 8312POPC   PO450532  15.969  17.493   5.850
 8312POPC   GL150533  15.944  17.524   6.150
 8312POPC   GL250534  16.031  17.585   6.150
 8312POPC   C1A50535  15.984  17.512   6.450
 8312POPC   D2A50536  15.942  17.534   6.750
 8312POPC   C3A50537  15.962  17.485   7.050
 8312POPC   C4A50538  15.923  17.528   7.350
 8312POPC   C1B50539  16.211  17.611   6.450
 8312POPC   C2B50540  16.159  17.539   6.750
 8312POPC   C3B50541  16.232  17.557   7.050
 8312POPC   C4B50542  16.194  17.568   7.350
 8313POPC   NC350543  36.857  15.981   5.550
 8313POPC   PO450544  36.928  15.984   5.850
 8313POPC   GL150545  36.877  15.940   6.150
 8313POPC   GL250546  37.039  15.873   6.150
 8313POPC   C1A50547  36.879  15.964   6.450
 8313POPC   D2A50548  36.883  15.921   6.750
 8313POPC   C3A50549  36.886  15.962   7.050
 8313POPC   C4A50550  36.887  15.953   7.350
 8313POPC   C1B50551  37.077  15.854   6.450
 8313POPC   C2B50552  37.152  15.816   6.750
 8313POPC   C3B50553  37.075  15.828   7.050
 8313POPC   C4B50554  37.113  15.794   7.350
 8314POPC   NC350555   0.393   2.030   5.550
 8314POPC   PO450556   0.459   1.964   5.850
 8314POPC   GL150557   0.397   1.961   6.150
 8314POPC   GL250558   0.437   1.844   6.150
 8314POPC   C1A50559   0.437   2.006   6.450
 8314POPC   D2A50560   0.427   2.035   6.750
 8314POPC   C3A50561   0.391   1.959   7.050
 8314POPC   C4A50562   0.474   1.982   7.350
 8314POPC   C1B50563   0.518   1.708   6.450
 8314POPC   C2B50564   0.545   1.728   6.750
 8314POPC   C3B50565   0.557   1.725   7.050
 8314POPC   C4B50566   0.529   1.724   7.350
 8315POPC   NC350567  25.311   3.548   5.550
 8315POPC   PO450568  25.219   3.529   5.850
 8315POPC   GL150569  25.293   3.501   6.150
 8315POPC   GL250570  25.156   3.462   6.150
 8315POPC   C1A50571  25.220   3.519   6.450
 8315POPC   D2A50572  25.273   3.494   6.750
 8315POPC   C3A50573  25.226   3.590   7.050
 8315POPC   C4A50574  25.307   3.573   7.350
 8315POPC   C1B50575  25.060   3.410   6.450
 8315POPC   C2B50576  24.991   3.453   6.750
 8315POPC   C3B50577  25.079   3.476   7.050
 8315POPC   C4B50578  25.029   3.495   7.350
 8316POPC   NC350579  26.862   2.781   5.550
 8316POPC   PO450580  26.838   2.725   5.850
 8316POPC   GL150581  26.798   2.716   6.150
 8316POPC   GL250582  26.772   2.924   6.150
 8316POPC   C1A50583  26.855   2.723   6.450
 8316POPC   D2A50584  26.857   2.751   6.750
 8316POPC   C3A50585  26.787   2.762   7.050
 8316POPC   C4A50586  26.787   2.784   7.350
 8316POPC   C1B50587  26.685   2.990   6.450
 8316POPC   C2B50588  26.715   2.978   6.750
 8316POPC   C3B50589  26.722   2.997   7.050
 8316POPC   C4B50590  26.732   3.042   7.350
 8317POPC   NC350591  12.859  39.276   5.550
 8317POPC   PO450592  12.900  39.204   5.850
 8317POPC   GL150593  12.839  39.183   6.150
 8317POPC   GL250594  12.931  39.344   6.150
 8317POPC   C1A50595  12.896  39.247   6.450
 8317POPC   D2A50596  12.866  39.220   6.750
 8317POPC   C3A50597  12.803  39.254   7.050
 8317POPC   C4A50598  12.835  39.249   7.350
 8317POPC   C1B50599  13.026  39.429   6.450
 8317POPC   C2B50600  13.043  39.348   6.750
 8317POPC   C3B50601  13.075  39.373   7.050
 8317POPC   C4B50602  13.068  39.404   7.350
 8318POPC   NC350603   5.848   5.900   5.550
 8318POPC   PO450604   5.891   5.867   5.850
 8318POPC   GL150605   5.835   5.907   6.150
 8318POPC   GL250606   5.865   5.722   6.150
 8318POPC   C1A50607   5.831   5.842   6.450
 8318POPC   D2A50608   5.855   5.837   6.750
 8318POPC   C3A50609   5.834   5.826   7.050
 8318POPC   C4A50610   5.831   5.835   7.350
 8318POPC   C1B50611   5.785   5.667   6.450
 8318POPC   C2B50612   5.814   5.659   6.750
 8318POPC   C3B50613   5.836   5.634   7.050
 8318POPC   C4B50614   5.842   5.581   7.350
 8319POPC   NC350615   2.724   4.357   5.550
 8319POPC   PO450616   2.744   4.367   5.850
 8319POPC   GL150617   2.734   4.298   6.150
 8319POPC   GL250618   2.921   4.359   6.150
 8319POPC   C1A50619   2.742   4.274   6.450
 8319POPC   D2A50620   2.754   4.327   6.750
 8319POPC   C3A50621   2.768   4.318   7.050
 8319POPC   C4A50622   2.804   4.363   7.350
 8319POPC   C1B50623   3.000   4.420   6.450
 8319POPC   C2B50624   3.017   4.485   6.750
 8319POPC   C3B50625   2.931   4.446   7.050
 8319POPC   C4B50626   2.995   4.436   7.350
 8320POPC   NC350627   3.505  19.054   5.550
 8320POPC   PO450628   3.552  19.032   5.850
 8320POPC   GL150629   3.560  19.067   6.150
 8320POPC   GL250630   3.382  19.040   6.150
 8320POPC   C1A50631   3.580  19.039   6.450
 8320POPC   D2A50632   3.500  19.074   6.750
 8320POPC   C3A50633   3.525  19.061   7.050
 8320POPC   C4A50634   3.554  19.046   7.350
 8320POPC   C1B50635   3.332  19.017   6.450
 8320POPC   C2B50636   3.306  19.078   6.750
 8320POPC   C3B50637   3.266  19.005   7.050
 8320POPC   C4B50638   3.324  19.011   7.350
 8321POPC   NC350639  36.857  17.512   5.550
 8321POPC   PO450640  36.922  17.531   5.850
 8321POPC   GL150641  36.882  17.464   6.150
 8321POPC   GL250642  36.786  17.623   6.150
 8321POPC   C1A50643  36.887  17.528   6.450
 8321POPC   D2A50644  36.918  17.518   6.750
 8321POPC   C3A50645  36.945  17.542   7.050
 8321POPC   C4A50646  36.871  17.472   7.350
 8321POPC   C1B50647  36.759  17.660   6.450
 8321POPC   C2B50648  36.713  17.660   6.750
 8321POPC   C3B50649  36.723  17.734   7.050
 8321POPC   C4B50650  36.739  17.689   7.350
 8322POPC   NC350651  41.602   4.355   5.550
 8322POPC   PO450652  41.604   4.357   5.850
 8322POPC   GL150653  41.542   4.295   6.150
 8322POPC   GL250654  41.462   4.305   6.150
 8322POPC   C1A50655  41.575   4.340   6.450
 8322POPC   D2A50656  41.546   4.270   6.750
 8322POPC   C3A50657  41.566   4.290   7.050
 8322POPC   C4A50658  41.557   4.286   7.350
 8322POPC   C1B50659  41.357   4.337   6.450
 8322POPC   C2B50660  41.330   4.383   6.750
 8322POPC   C3B50661  41.294   4.376   7.050
 8322POPC   C4B50662  41.344   4.349   7.350
 8323POPC   NC350663  22.917  34.621   5.550
 8323POPC   PO450664  22.964  34.534   5.850
 8323POPC   GL150665  22.896  34.616   6.150
 8323POPC   GL250666  22.890  34.669   6.150
 8323POPC   C1A50667  22.910  34.560   6.450
 8323POPC   D2A50668  22.918  34.542   6.750
 8323POPC   C3A50669  22.953  34.577   7.050
 8323POPC   C4A50670  22.888  34.565   7.350
 8323POPC   C1B50671  22.850  34.782   6.450
 8323POPC   C2B50672  22.791  34.842   6.750
 8323POPC   C3B50673  22.805  34.823   7.050
 8323POPC   C4B50674  22.869  34.798   7.350
 8324POPC   NC350675   1.237  13.623   5.550
 8324POPC   PO450676   1.215  13.592   5.850
 8324POPC   GL150677   1.175  13.665   6.150
 8324POPC   GL250678   1.298  13.541   6.150
 8324POPC   C1A50679   1.256  13.592   6.450
 8324POPC   D2A50680   1.230  13.597   6.750
 8324POPC   C3A50681   1.208  13.654   7.050
 8324POPC   C4A50682   1.217  13.599   7.350
 8324POPC   C1B50683   1.445  13.504   6.450
 8324POPC   C2B50684   1.365  13.518   6.750
 8324POPC   C3B50685   1.435  13.451   7.050
 8324POPC   C4B50686   1.419  13.518   7.350
 8325POPC   NC350687  29.911  36.859   5.550
 8325POPC   PO450688  29.922  36.908   5.850
 8325POPC   GL150689  29.877  36.910   6.150
 8325POPC   GL250690  29.895  36.827   6.150
 8325POPC   C1A50691  29.944  36.870   6.450
 8325POPC   D2A50692  29.925  36.927   6.750
 8325POPC   C3A50693  29.944  36.905   7.050
 8325POPC   C4A50694  29.961  36.893   7.350
 8325POPC   C1B50695  29.904  36.699   6.450
 8325POPC   C2B50696  29.875  36.640   6.750
 8325POPC   C3B50697  29.913  36.667   7.050
 8325POPC   C4B50698  29.882  36.652   7.350
 8326POPC   NC350699   8.172  30.739   5.550
 8326POPC   PO450700   8.150  30.691   5.850
 8326POPC   GL150701   8.246  30.717   6.150
 8326POPC   GL250702   8.280  30.637   6.150
 8326POPC   C1A50703   8.201  30.684   6.450
 8326POPC   D2A50704   8.155  30.743   6.750
 8326POPC   C3A50705   8.187  30.653   7.050
 8326POPC   C4A50706   8.219  30.723   7.350
 8326POPC   C1B50707   8.316  30.525   6.450
 8326POPC   C2B50708   8.380  30.557   6.750
 8326POPC   C3B50709   8.412  30.551   7.050
 8326POPC   C4B50710   8.316  30.521   7.350
 8327POPC   NC350711  39.969   1.944   5.550
 8327POPC   PO450712  40.044   1.995   5.850
 8327POPC   GL150713  40.015   2.023   6.150
 8327POPC   GL250714  39.856   1.942   6.150
 8327POPC   C1A50715  40.036   1.975   6.450
 8327POPC   D2A50716  40.021   2.005   6.750
 8327POPC   C3A50717  39.981   1.963   7.050
 8327POPC   C4A50718  40.014   1.987   7.350
 8327POPC   C1B50719  39.729   1.885   6.450
 8327POPC   C2B50720  39.820   1.854   6.750
 8327POPC   C3B50721  39.760   1.861   7.050
 8327POPC   C4B50722  39.746   1.888   7.350
 8328POPC   NC350723   4.308  12.878   5.550
 8328POPC   PO450724   4.294  12.881   5.850
 8328POPC   GL150725   4.331  12.823   6.150
 8328POPC   GL250726   4.315  12.933   6.150
 8328POPC   C1A50727   4.280  12.829   6.450
 8328POPC   D2A50728   4.321  12.829   6.750
 8328POPC   C3A50729   4.338  12.835   7.050
 8328POPC   C4A50730   4.295  12.846   7.350
 8328POPC   C1B50731   4.291  13.094   6.450
 8328POPC   C2B50732   4.249  13.140   6.750
 8328POPC   C3B50733   4.202  13.081   7.050
 8328POPC   C4B50734   4.234  13.129   7.350
 8329POPC   NC350735  44.633  17.539   5.550
 8329POPC   PO450736  44.643  17.556   5.850
 8329POPC   GL150737  44.630  17.550   6.150
 8329POPC   GL250738  44.529  17.552   6.150
 8329POPC   C1A50739  44.695  17.492   6.450
 8329POPC   D2A50740  44.618  17.469   6.750
 8329POPC   C3A50741  44.692  17.468   7.050
 8329POPC   C4A50742  44.649  17.526   7.350
 8329POPC   C1B50743  44.369  17.516   6.450
 8329POPC   C2B50744  44.451  17.529   6.750
 8329POPC   C3B50745  44.449  17.545   7.050
 8329POPC   C4B50746  44.398  17.529   7.350
 8330POPC   NC350747   6.680  22.898   5.550
 8330POPC   PO450748   6.618  22.962   5.850
 8330POPC   GL150749   6.690  22.892   6.150
 8330POPC   GL250750   6.588  22.835   6.150
 8330POPC   C1A50751   6.624  22.906   6.450
 8330POPC   D2A50752   6.639  22.960   6.750
 8330POPC   C3A50753   6.609  22.976   7.050
 8330POPC   C4A50754   6.652  22.985   7.350
 8330POPC   C1B50755   6.436  22.814   6.450
 8330POPC   C2B50756   6.503  22.733   6.750
 8330POPC   C3B50757   6.449  22.752   7.050
 8330POPC   C4B50758   6.429  22.823   7.350
 8331POPC   NC350759  44.633  30.658   5.550
 8331POPC   PO450760  44.697  30.651   5.850
 8331POPC   GL150761  44.645  30.670   6.150
 8331POPC   GL250762  44.783  30.752   6.150
 8331POPC   C1A50763  44.659  30.688   6.450
 8331POPC   D2A50764  44.667  30.704   6.750
 8331POPC   C3A50765  44.707  30.665   7.050
 8331POPC   C4A50766  44.660  30.678   7.350
 8331POPC   C1B50767  44.823  30.827   6.450
 8331POPC   C2B50768  44.880  30.821   6.750
 8331POPC   C3B50769  44.858  30.805   7.050
 8331POPC   C4B50770  44.910  30.795   7.350
 8332POPC   NC350771  43.913  43.070   5.550
 8332POPC   PO450772  43.917  43.086   5.850
 8332POPC   GL150773  43.883  43.104   6.150
 8332POPC   GL250774  43.898  43.282   6.150
 8332POPC   C1A50775  43.891  43.114   6.450
 8332POPC   D2A50776  43.913  43.115   6.750
 8332POPC   C3A50777  43.893  43.159   7.050
 8332POPC   C4A50778  43.922  43.076   7.350
 8332POPC   C1B50779  43.974  43.377   6.450
 8332POPC   C2B50780  43.961  43.392   6.750
 8332POPC   C3B50781  43.939  43.312   7.050
 8332POPC   C4B50782  43.938  43.307   7.350
 8333POPC   NC350783   6.650  30.699   5.550
 8333POPC   PO450784   6.691  30.709   5.850
 8333POPC   GL150785   6.597  30.697   6.150
 8333POPC   GL250786   6.811  30.643   6.150
 8333POPC   C1A50787   6.638  30.647   6.450
 8333POPC   D2A50788   6.689  30.653   6.750
 8333POPC   C3A50789   6.614  30.746   7.050
 8333POPC   C4A50790   6.646  30.653   7.350
 8333POPC   C1B50791   6.879  30.646   6.450
 8333POPC   C2B50792   6.888  30.628   6.750
 8333POPC   C3B50793   6.937  30.696   7.050
 8333POPC   C4B50794   6.905  30.598   7.350
 8334POPC   NC350795   7.450  25.266   5.550
 8334POPC   PO450796   7.373  25.278   5.850
 8334POPC   GL150797   7.450  25.241   6.150
 8334POPC   GL250798   7.317  25.145   6.150
 8334POPC   C1A50799   7.379  25.294   6.450
 8334POPC   D2A50800   7.429  25.311   6.750
 8334POPC   C3A50801   7.403  25.273   7.050
 8334POPC   C4A50802   7.453  25.267   7.350
 8334POPC   C1B50803   7.258  25.089   6.450
 8334POPC   C2B50804   7.250  25.122   6.750
 8334POPC   C3B50805   7.234  25.028   7.050
 8334POPC   C4B50806   7.265  25.102   7.350
 8335POPC   NC350807  25.314  24.521   5.550
 8335POPC   PO450808  25.267  24.448   5.850
 8335POPC   GL150809  25.220  24.505   6.150
 8335POPC   GL250810  25.288  24.320   6.150
 8335POPC   C1A50811  25.296  24.517   6.450
 8335POPC   D2A50812  25.242  24.483   6.750
 8335POPC   C3A50813  25.280  24.458   7.050
 8335POPC   C4A50814  25.274  24.499   7.350
 8335POPC   C1B50815  25.267  24.245   6.450
 8335POPC   C2B50816  25.282  24.243   6.750
 8335POPC   C3B50817  25.229  24.220   7.050
 8335POPC   C4B50818  25.248  24.275   7.350
 8336POPC   NC350819  28.324  39.222   5.550
 8336POPC   PO450820  28.408  39.280   5.850
 8336POPC   GL150821  28.342  39.256   6.150
 8336POPC   GL250822  28.408  39.373   6.150
 8336POPC   C1A50823  28.324  39.266   6.450
 8336POPC   D2A50824  28.408  39.256   6.750
 8336POPC   C3A50825  28.359  39.247   7.050
 8336POPC   C4A50826  28.344  39.217   7.350
 8336POPC   C1B50827  28.365  39.454   6.450
 8336POPC   C2B50828  28.419  39.474   6.750
 8336POPC   C3B50829  28.351  39.451   7.050
 8336POPC   C4B50830  28.372  39.529   7.350
 8337POPC   NC350831  15.945  31.495   5.550
 8337POPC   PO450832  15.975  31.434   5.850
 8337POPC   GL150833  15.931  31.515   6.150
 8337POPC   GL250834  15.964  31.547   6.150
 8337POPC   C1A50835  15.944  31.425   6.450
 8337POPC   D2A50836  15.983  31.495   6.750
 8337POPC   C3A50837  16.003  31.490   7.050
 8337POPC   C4A50838  15.987  31.516   7.350
 8337POPC   C1B50839  16.019  31.709   6.450
 8337POPC   C2B50840  16.010  31.684   6.750
 8337POPC   C3B50841  15.980  31.749   7.050
 8337POPC   C4B50842  16.019  31.708   7.350
 8338POPC   NC350843  21.376  22.123   5.550
 8338POPC   PO450844  21.381  22.175   5.850
 8338POPC   GL150845  21.398  22.191   6.150
 8338POPC   GL250846  21.481  22.236   6.150
 8338POPC   C1A50847  21.434  22.210   6.450
 8338POPC   D2A50848  21.433  22.151   6.750
 8338POPC   C3A50849  21.407  22.177   7.050
 8338POPC   C4A50850  21.356  22.152   7.350
 8338POPC   C1B50851  21.485  22.409   6.450
 8338POPC   C2B50852  21.562  22.388   6.750
 8338POPC   C3B50853  21.512  22.344   7.050
 8338POPC   C4B50854  21.545  22.344   7.350
 8339POPC   NC350855   1.949   2.721   5.550
 8339POPC   PO450856   1.992   2.755   5.850
 8339POPC   GL150857   2.025   2.799   6.150
 8339POPC   GL250858   2.136   2.719   6.150
 8339POPC   C1A50859   1.941   2.732   6.450
 8339POPC   D2A50860   2.034   2.773   6.750
 8339POPC   C3A50861   2.029   2.808   7.050
 8339POPC   C4A50862   2.009   2.789   7.350
 8339POPC   C1B50863   2.247   2.788   6.450
 8339POPC   C2B50864   2.271   2.799   6.750
 8339POPC   C3B50865   2.247   2.799   7.050
 8339POPC   C4B50866   2.270   2.727   7.350
 8340POPC   NC350867  20.561  44.633   5.550
 8340POPC   PO450868  20.585  44.659   5.850
 8340POPC   GL150869  20.653  44.686   6.150
 8340POPC   GL250870  20.504  44.649   6.150
 8340POPC   C1A50871  20.613  44.672   6.450
 8340POPC   D2A50872  20.614  44.620   6.750
 8340POPC   C3A50873  20.647  44.632   7.050
 8340POPC   C4A50874  20.637  44.655   7.350
 8340POPC   C1B50875  20.340  44.589   6.450
 8340POPC   C2B50876  20.353  44.632   6.750
 8340POPC   C3B50877  20.363  44.623   7.050
 8340POPC   C4B50878  20.341  44.637   7.350
 8341POPC   NC350879  20.643  29.172   5.550
 8341POPC   PO450880  20.586  29.144   5.850
 8341POPC   GL150881  20.578  29.141   6.150
 8341POPC   GL250882  20.493  29.294   6.150
 8341POPC   C1A50883  20.658  29.126   6.450
 8341POPC   D2A50884  20.574  29.112   6.750
 8341POPC   C3A50885  20.660  29.174   7.050
 8341POPC   C4A50886  20.612  29.143   7.350
 8341POPC   C1B50887  20.422  29.373   6.450
 8341POPC   C2B50888  20.468  29.344   6.750
 8341POPC   C3B50889  20.438  29.296   7.050
 8341POPC   C4B50890  20.413  29.377   7.350
 8342POPC   NC350891   9.786  26.031   5.550
 8342POPC   PO450892   9.715  26.027   5.850
 8342POPC   GL150893   9.730  26.000   6.150
 8342POPC   GL250894   9.841  25.907   6.150
 8342POPC   C1A50895   9.718  26.005   6.450
 8342POPC   D2A50896   9.732  26.038   6.750
 8342POPC   C3A50897   9.702  26.074   7.050
 8342POPC   C4A50898   9.705  26.044   7.350
 8342POPC   C1B50899   9.890  25.799   6.450
 8342POPC   C2B50900   9.846  25.800   6.750
 8342POPC   C3B50901   9.912  25.819   7.050
 8342POPC   C4B50902   9.864  25.779   7.350
 8343POPC   NC350903  34.595   9.703   5.550
 8343POPC   PO450904  34.588   9.757   5.850
 8343POPC   GL150905  34.604   9.707   6.150
 8343POPC   GL250906  34.663   9.789   6.150
 8343POPC   C1A50907  34.611   9.702   6.450
 8343POPC   D2A50908  34.590   9.729   6.750
 8343POPC   C3A50909  34.545   9.769   7.050
 8343POPC   C4A50910  34.557   9.736   7.350
 8343POPC   C1B50911  34.772   9.795   6.450
 8343POPC   C2B50912  34.860   9.870   6.750
 8343POPC   C3B50913  34.843   9.806   7.050
 8343POPC   C4B50914  34.818   9.865   7.350
 8344POPC   NC350915  36.945  12.058   5.550
 8344POPC   PO450916  36.900  12.028   5.850
 8344POPC   GL150917  36.889  12.106   6.150
 8344POPC   GL250918  36.839  11.931   6.150
 8344POPC   C1A50919  36.860  12.109   6.450
 8344POPC   D2A50920  36.951  12.110   6.750
 8344POPC   C3A50921  36.935  12.098   7.050
 8344POPC   C4A50922  36.948  12.055   7.350
 8344POPC   C1B50923  36.799  11.807   6.450
 8344POPC   C2B50924  36.825  11.869   6.750
 8344POPC   C3B50925  36.818  11.846   7.050
 8344POPC   C4B50926  36.852  11.871   7.350
 8345POPC   NC350927  18.239  18.315   5.550
 8345POPC   PO450928  18.317  18.323   5.850
 8345POPC   GL150929  18.247  18.286   6.150
 8345POPC   GL250930  18.178  18.346   6.150
 8345POPC   C1A50931  18.266  18.300   6.450
 8345POPC   D2A50932  18.246  18.330   6.750
 8345POPC   C3A50933  18.240  18.310   7.050
 8345POPC   C4A50934  18.310  18.296   7.350
 8345POPC   C1B50935  18.051  18.385   6.450
 8345POPC   C2B50936  18.054  18.304   6.750
 8345POPC   C3B50937  18.021  18.334   7.050
 8345POPC   C4B50938  18.065  18.305   7.350
 8346POPC   NC350939  23.744  44.677   5.550
 8346POPC   PO450940  23.691  44.670   5.850
 8346POPC   GL150941  23.737  44.626   6.150
 8346POPC   GL250942  23.805  44.556   6.150
 8346POPC   C1A50943  23.671  44.631   6.450
 8346POPC   D2A50944  23.693  44.685   6.750
 8346POPC   C3A50945  23.713  44.690   7.050
 8346POPC   C4A50946  23.679  44.670   7.350
 8346POPC   C1B50947  23.889  44.517   6.450
 8346POPC   C2B50948  23.856  44.499   6.750
 8346POPC   C3B50949  23.923  44.483   7.050
 8346POPC   C4B50950  23.855  44.469   7.350
 8347POPC   NC350951  32.279  35.362   5.550
 8347POPC   PO450952  32.204  35.377   5.850
 8347POPC   GL150953  32.215  35.362   6.150
 8347POPC   GL250954  32.276  35.430   6.150
 8347POPC   C1A50955  32.276  35.318   6.450
 8347POPC   D2A50956  32.242  35.311   6.750
 8347POPC   C3A50957  32.294  35.337   7.050
 8347POPC   C4A50958  32.240  35.334   7.350
 8347POPC   C1B50959  32.259  35.612   6.450
 8347POPC   C2B50960  32.258  35.603   6.750
 8347POPC   C3B50961  32.300  35.614   7.050
 8347POPC   C4B50962  32.297  35.599   7.350
 8348POPC   NC350963  39.237  19.065   5.550
 8348POPC   PO450964  39.274  19.054   5.850
 8348POPC   GL150965  39.281  19.088   6.150
 8348POPC   GL250966  39.324  18.981   6.150
 8348POPC   C1A50967  39.263  19.090   6.450
 8348POPC   D2A50968  39.219  19.090   6.750
 8348POPC   C3A50969  39.247  19.096   7.050
 8348POPC   C4A50970  39.242  19.083   7.350
 8348POPC   C1B50971  39.373  18.814   6.450
 8348POPC   C2B50972  39.406  18.886   6.750
 8348POPC   C3B50973  39.347  18.884   7.050
 8348POPC   C4B50974  39.312  18.893   7.350
 8349POPC   NC350975  44.630  23.699   5.550
 8349POPC   PO450976  44.675  23.686   5.850
 8349POPC   GL150977  44.705  23.713   6.150
 8349POPC   GL250978  44.607  23.873   6.150
 8349POPC   C1A50979  44.667  23.702   6.450
 8349POPC   D2A50980  44.693  23.733   6.750
 8349POPC   C3A50981  44.694  23.685   7.050
 8349POPC   C4A50982  44.657  23.712   7.350
 8349POPC   C1B50983  44.497  23.883   6.450
 8349POPC   C2B50984  44.586  23.924   6.750
 8349POPC   C3B50985  44.549  23.964   7.050
 8349POPC   C4B50986  44.584  23.914   7.350
 8350POPC   NC350987  10.531  44.631   5.550
 8350POPC   PO450988  10.480  44.648   5.850
 8350POPC   GL150989  10.532  44.664   6.150
 8350POPC   GL250990  10.386  44.636   6.150
 8350POPC   C1A50991  10.504  44.658   6.450
 8350POPC   D2A50992  10.527  44.626   6.750
 8350POPC   C3A50993  10.552  44.700   7.050
 8350POPC   C4A50994  10.570  44.689   7.350
 8350POPC   C1B50995  10.298  44.693   6.450
 8350POPC   C2B50996  10.232  44.640   6.750
 8350POPC   C3B50997  10.261  44.648   7.050
 8350POPC   C4B50998  10.307  44.707   7.350
 8351POPC   NC350999   6.693   6.669   5.550
 8351POPC   PO451000   6.676   6.617   5.850
 8351POPC   GL151001   6.678   6.614   6.150
 8351POPC   GL251002   6.609   6.766   6.150
 8351POPC   C1A51003   6.647   6.600   6.450
 8351POPC   D2A51004   6.647   6.677   6.750
 8351POPC   C3A51005   6.651   6.637   7.050
 8351POPC   C4A51006   6.648   6.612   7.350
 8351POPC   C1B51007   6.517   6.886   6.450
 8351POPC   C2B51008   6.503   6.886   6.750
 8351POPC   C3B51009   6.554   6.811   7.050
 8351POPC   C4B51010   6.493   6.874   7.350
 8352POPC   NC351011   5.073  30.681   5.550
 8352POPC   PO451012   5.121  30.693   5.850
 8352POPC   GL151013   5.084  30.727   6.150
 8352POPC   GL251014   5.148  30.829   6.150
 8352POPC   C1A51015   5.086  30.651   6.450
 8352POPC   D2A51016   5.129  30.670   6.750
 8352POPC   C3A51017   5.075  30.721   7.050
 8352POPC   C4A51018   5.075  30.684   7.350
 8352POPC   C1B51019   5.200  30.955   6.450
 8352POPC   C2B51020   5.191  30.907   6.750
 8352POPC   C3B51021   5.215  30.978   7.050
 8352POPC   C4B51022   5.217  30.959   7.350
 8353POPC   NC351023  24.523  43.160   5.550
 8353POPC   PO451024  24.481  43.132   5.850
 8353POPC   GL151025  24.532  43.103   6.150
 8353POPC   GL251026  24.588  43.027   6.150
 8353POPC   C1A51027  24.448  43.125   6.450
 8353POPC   D2A51028  24.502  43.105   6.750
 8353POPC   C3A51029  24.535  43.155   7.050
 8353POPC   C4A51030  24.493  43.153   7.350
 8353POPC   C1B51031  24.686  42.934   6.450
 8353POPC   C2B51032  24.650  42.966   6.750
 8353POPC   C3B51033  24.689  42.957   7.050
 8353POPC   C4B51034  24.715  42.972   7.350
 8354POPC   NC351035  12.870  26.839   5.550
 8354POPC   PO451036  12.874  26.798   5.850
 8354POPC   GL151037  12.870  26.817   6.150
 8354POPC   GL251038  12.798  26.864   6.150
 8354POPC   C1A51039  12.840  26.863   6.450
 8354POPC   D2A51040  12.853  26.815   6.750
 8354POPC   C3A51041  12.875  26.806   7.050
 8354POPC   C4A51042  12.899  26.866   7.350
 8354POPC   C1B51043  12.679  26.911   6.450
 8354POPC   C2B51044  12.685  26.919   6.750
 8354POPC   C3B51045  12.603  27.004   7.050
 8354POPC   C4B51046  12.603  27.007   7.350
 8355POPC   NC351047  12.090  26.016   5.550
 8355POPC   PO451048  12.112  26.087   5.850
 8355POPC   GL151049  12.063  26.030   6.150
 8355POPC   GL251050  12.126  25.928   6.150
 8355POPC   C1A51051  12.114  25.995   6.450
 8355POPC   D2A51052  12.062  26.002   6.750
 8355POPC   C3A51053  12.028  26.058   7.050
 8355POPC   C4A51054  12.046  26.065   7.350
 8355POPC   C1B51055  12.255  25.902   6.450
 8355POPC   C2B51056  12.217  25.857   6.750
 8355POPC   C3B51057  12.260  25.865   7.050
 8355POPC   C4B51058  12.268  25.839   7.350
 8356POPC   NC351059  27.615  36.905   5.550
 8356POPC   PO451060  27.634  36.878   5.850
 8356POPC   GL151061  27.608  36.918   6.150
 8356POPC   GL251062  27.471  36.873   6.150
 8356POPC   C1A51063  27.576  36.889   6.450
 8356POPC   D2A51064  27.640  36.875   6.750
 8356POPC   C3A51065  27.554  36.909   7.050
 8356POPC   C4A51066  27.608  36.906   7.350
 8356POPC   C1B51067  27.343  36.846   6.450
 8356POPC   C2B51068  27.361  36.850   6.750
 8356POPC   C3B51069  27.323  36.863   7.050
 8356POPC   C4B51070  27.304  36.855   7.350
 8357POPC   NC351071  17.480   7.403   5.550
 8357POPC   PO451072  17.555   7.437   5.850
 8357POPC   GL151073  17.531   7.395   6.150
 8357POPC   GL251074  17.552   7.314   6.150
 8357POPC   C1A51075  17.550   7.458   6.450
 8357POPC   D2A51076  17.461   7.403   6.750
 8357POPC   C3A51077  17.530   7.442   7.050
 8357POPC   C4A51078  17.526   7.382   7.350
 8357POPC   C1B51079  17.580   7.143   6.450
 8357POPC   C2B51080  17.570   7.150   6.750
 8357POPC   C3B51081  17.511   7.176   7.050
 8357POPC   C4B51082  17.500   7.135   7.350
 8358POPC   NC351083  24.526  44.678   5.550
 8358POPC   PO451084  24.459  44.639   5.850
 8358POPC   GL151085  24.457  44.666   6.150
 8358POPC   GL251086  24.468  44.503   6.150
 8358POPC   C1A51087  24.454  44.659   6.450
 8358POPC   D2A51088  24.465  44.660   6.750
 8358POPC   C3A51089  24.445  44.630   7.050
 8358POPC   C4A51090  24.446  44.648   7.350
 8358POPC   C1B51091  24.359  44.397   6.450
 8358POPC   C2B51092  24.432  44.394   6.750
 8358POPC   C3B51093  24.383  44.384   7.050
 8358POPC   C4B51094  24.447  44.476   7.350
 8359POPC   NC351095  42.350   9.711   5.550
 8359POPC   PO451096  42.319   9.717   5.850
 8359POPC   GL151097  42.354   9.714   6.150
 8359POPC   GL251098  42.186   9.793   6.150
 8359POPC   C1A51099  42.316   9.774   6.450
 8359POPC   D2A51100  42.312   9.722   6.750
 8359POPC   C3A51101  42.289   9.798   7.050
 8359POPC   C4A51102  42.303   9.742   7.350
 8359POPC   C1B51103  42.117   9.740   6.450
 8359POPC   C2B51104  42.085   9.764   6.750
 8359POPC   C3B51105  42.052   9.764   7.050
 8359POPC   C4B51106  42.111   9.798   7.350
 8360POPC   NC351107  21.387  17.525   5.550
 8360POPC   PO451108  21.398  17.506   5.850
 8360POPC   GL151109  21.417  17.548   6.150
 8360POPC   GL251110  21.265  17.550   6.150
 8360POPC   C1A51111  21.362  17.473   6.450
 8360POPC   D2A51112  21.378  17.497   6.750
 8360POPC   C3A51113  21.357  17.462   7.050
 8360POPC   C4A51114  21.409  17.554   7.350
 8360POPC   C1B51115  21.200  17.672   6.450
 8360POPC   C2B51116  21.190  17.693   6.750
 8360POPC   C3B51117  21.139  17.710   7.050
 8360POPC   C4B51118  21.208  17.634   7.350
 8361POPC   NC351119  24.536  25.271   5.550
 8361POPC   PO451120  24.487  25.237   5.850
 8361POPC   GL151121  24.460  25.286   6.150
 8361POPC   GL251122  24.461  25.180   6.150
 8361POPC   C1A51123  24.459  25.280   6.450
 8361POPC   D2A51124  24.509  25.272   6.750
 8361POPC   C3A51125  24.474  25.221   7.050
 8361POPC   C4A51126  24.537  25.264   7.350
 8361POPC   C1B51127  24.484  25.010   6.450
 8361POPC   C2B51128  24.482  24.971   6.750
 8361POPC   C3B51129  24.509  25.031   7.050
 8361POPC   C4B51130  24.514  24.968   7.350
 8362POPC   NC351131  27.557  25.219   5.550
 8362POPC   PO451132  27.570  25.259   5.850
 8362POPC   GL151133  27.608  25.248   6.150
 8362POPC   GL251134  27.692  25.116   6.150
 8362POPC   C1A51135  27.635  25.291   6.450
 8362POPC   D2A51136  27.615  25.296   6.750
 8362POPC   C3A51137  27.574  25.312   7.050
 8362POPC   C4A51138  27.545  25.224   7.350
 8362POPC   C1B51139  27.758  25.043   6.450
 8362POPC   C2B51140  27.757  25.100   6.750
 8362POPC   C3B51141  27.745  25.097   7.050
 8362POPC   C4B51142  27.682  25.096   7.350
 8363POPC   NC351143   0.484  30.728   5.550
 8363POPC   PO451144   0.398  30.711   5.850
 8363POPC   GL151145   0.415  30.688   6.150
 8363POPC   GL251146   0.336  30.802   6.150
 8363POPC   C1A51147   0.427  30.663   6.450
 8363POPC   D2A51148   0.422  30.684   6.750
 8363POPC   C3A51149   0.463  30.746   7.050
 8363POPC   C4A51150   0.421  30.675   7.350
 8363POPC   C1B51151   0.246  30.947   6.450
 8363POPC   C2B51152   0.300  30.943   6.750
 8363POPC   C3B51153   0.323  30.867   7.050
 8363POPC   C4B51154   0.258  30.909   7.350
 8364POPC   NC351155   2.716  30.695   5.550
 8364POPC   PO451156   2.774  30.718   5.850
 8364POPC   GL151157   2.744  30.660   6.150
 8364POPC   GL251158   2.695  30.815   6.150
 8364POPC   C1A51159   2.742  30.727   6.450
 8364POPC   D2A51160   2.776  30.670   6.750
 8364POPC   C3A51161   2.775  30.704   7.050
 8364POPC   C4A51162   2.717  30.709   7.350
 8364POPC   C1B51163   2.602  30.864   6.450
 8364POPC   C2B51164   2.548  30.843   6.750
 8364POPC   C3B51165   2.593  30.818   7.050
 8364POPC   C4B51166   2.608  30.872   7.350
 8365POPC   NC351167  33.049  17.517   5.550
 8365POPC   PO451168  32.991  17.513   5.850
 8365POPC   GL151169  33.011  17.525   6.150
 8365POPC   GL251170  32.923  17.415   6.150
 8365POPC   C1A51171  33.069  17.512   6.450
 8365POPC   D2A51172  32.980  17.479   6.750
 8365POPC   C3A51173  32.992  17.510   7.050
 8365POPC   C4A51174  33.003  17.460   7.350
 8365POPC   C1B51175  32.897  17.326   6.450
 8365POPC   C2B51176  32.851  17.280   6.750
 8365POPC   C3B51177  32.876  17.282   7.050
 8365POPC   C4B51178  32.891  17.328   7.350
 8366POPC   NC351179  29.952  17.524   5.550
 8366POPC   PO451180  29.934  17.547   5.850
 8366POPC   GL151181  29.940  17.478   6.150
 8366POPC   GL251182  30.063  17.615   6.150
 8366POPC   C1A51183  29.907  17.531   6.450
 8366POPC   D2A51184  29.944  17.544   6.750
 8366POPC   C3A51185  29.894  17.555   7.050
 8366POPC   C4A51186  29.968  17.505   7.350
 8366POPC   C1B51187  30.073  17.663   6.450
 8366POPC   C2B51188  30.099  17.694   6.750
 8366POPC   C3B51189  30.064  17.704   7.050
 8366POPC   C4B51190  30.150  17.686   7.350
 8367POPC   NC351191  11.338  29.132   5.550
 8367POPC   PO451192  11.314  29.096   5.850
 8367POPC   GL151193  11.293  29.177   6.150
 8367POPC   GL251194  11.306  29.022   6.150
 8367POPC   C1A51195  11.267  29.165   6.450
 8367POPC   D2A51196  11.298  29.165   6.750
 8367POPC   C3A51197  11.311  29.193   7.050
 8367POPC   C4A51198  11.316  29.187   7.350
 8367POPC   C1B51199  11.368  28.896   6.450
 8367POPC   C2B51200  11.310  28.878   6.750
 8367POPC   C3B51201  11.355  28.885   7.050
 8367POPC   C4B51202  11.309  28.896   7.350
 8368POPC   NC351203  19.852  22.128   5.550
 8368POPC   PO451204  19.854  22.171   5.850
 8368POPC   GL151205  19.858  22.177   6.150
 8368POPC   GL251206  19.942  22.140   6.150
 8368POPC   C1A51207  19.818  22.205   6.450
 8368POPC   D2A51208  19.829  22.187   6.750
 8368POPC   C3A51209  19.826  22.121   7.050
 8368POPC   C4A51210  19.848  22.179   7.350
 8368POPC   C1B51211  20.094  22.094   6.450
 8368POPC   C2B51212  20.070  22.035   6.750
 8368POPC   C3B51213  20.064  22.054   7.050
 8368POPC   C4B51214  20.048  22.049   7.350
 8369POPC   NC351215  43.076  32.256   5.550
 8369POPC   PO451216  43.138  32.204   5.850
 8369POPC   GL151217  43.061  32.231   6.150
 8369POPC   GL251218  43.173  32.352   6.150
 8369POPC   C1A51219  43.064  32.229   6.450
 8369POPC   D2A51220  43.137  32.231   6.750
 8369POPC   C3A51221  43.077  32.285   7.050
 8369POPC   C4A51222  43.070  32.264   7.350
 8369POPC   C1B51223  43.293  32.441   6.450
 8369POPC   C2B51224  43.277  32.460   6.750
 8369POPC   C3B51225  43.295  32.463   7.050
 8369POPC   C4B51226  43.290  32.439   7.350
 8370POPC   NC351227  30.712  19.064   5.550
 8370POPC   PO451228  30.726  19.093   5.850
 8370POPC   GL151229  30.735  19.011   6.150
 8370POPC   GL251230  30.815  19.009   6.150
 8370POPC   C1A51231  30.713  19.090   6.450
 8370POPC   D2A51232  30.738  19.045   6.750
 8370POPC   C3A51233  30.716  19.053   7.050
 8370POPC   C4A51234  30.662  19.030   7.350
 8370POPC   C1B51235  30.951  18.870   6.450
 8370POPC   C2B51236  30.951  18.936   6.750
 8370POPC   C3B51237  30.951  18.918   7.050
 8370POPC   C4B51238  30.904  18.958   7.350
 8371POPC   NC351239   5.047  14.421   5.550
 8371POPC   PO451240   5.129  14.361   5.850
 8371POPC   GL151241   5.130  14.449   6.150
 8371POPC   GL251242   5.013  14.458   6.150
 8371POPC   C1A51243   5.104  14.362   6.450
 8371POPC   D2A51244   5.053  14.389   6.750
 8371POPC   C3A51245   5.058  14.443   7.050
 8371POPC   C4A51246   5.109  14.364   7.350
 8371POPC   C1B51247   4.913  14.535   6.450
 8371POPC   C2B51248   4.893  14.565   6.750
 8371POPC   C3B51249   4.872  14.530   7.050
 8371POPC   C4B51250   4.921  14.534   7.350
 8372POPC   NC351251  16.721  19.086   5.550
 8372POPC   PO451252  16.780  19.043   5.850
 8372POPC   GL151253  16.714  19.024   6.150
 8372POPC   GL251254  16.875  19.138   6.150
 8372POPC   C1A51255  16.723  19.093   6.450
 8372POPC   D2A51256  16.754  19.095   6.750
 8372POPC   C3A51257  16.739  19.050   7.050
 8372POPC   C4A51258  16.737  19.029   7.350
 8372POPC   C1B51259  16.922  19.191   6.450
 8372POPC   C2B51260  16.953  19.155   6.750
 8372POPC   C3B51261  16.954  19.193   7.050
 8372POPC   C4B51262  17.008  19.122   7.350
 8373POPC   NC351263  38.466  38.478   5.550
 8373POPC   PO451264  38.408  38.460   5.850
 8373POPC   GL151265  38.459  38.410   6.150
 8373POPC   GL251266  38.337  38.335   6.150
 8373POPC   C1A51267  38.451  38.412   6.450
 8373POPC   D2A51268  38.462  38.460   6.750
 8373POPC   C3A51269  38.490  38.484   7.050
 8373POPC   C4A51270  38.466  38.503   7.350
 8373POPC   C1B51271  38.232  38.308   6.450
 8373POPC   C2B51272  38.225  38.284   6.750
 8373POPC   C3B51273  38.252  38.255   7.050
 8373POPC   C4B51274  38.225  38.267   7.350
 8374POPC   NC351275   1.232  35.305   5.550
 8374POPC   PO451276   1.198  35.362   5.850
 8374POPC   GL151277   1.246  35.340   6.150
 8374POPC   GL251278   1.213  35.505   6.150
 8374POPC   C1A51279   1.193  35.322   6.450
 8374POPC   D2A51280   1.182  35.379   6.750
 8374POPC   C3A51281   1.213  35.394   7.050
 8374POPC   C4A51282   1.241  35.327   7.350
 8374POPC   C1B51283   1.255  35.641   6.450
 8374POPC   C2B51284   1.182  35.595   6.750
 8374POPC   C3B51285   1.174  35.650   7.050
 8374POPC   C4B51286   1.222  35.561   7.350
 8375POPC   NC351287   2.004  13.598   5.550
 8375POPC   PO451288   2.036  13.632   5.850
 8375POPC   GL151289   1.965  13.628   6.150
 8375POPC   GL251290   2.085  13.700   6.150
 8375POPC   C1A51291   1.946  13.651   6.450
 8375POPC   D2A51292   1.966  13.609   6.750
 8375POPC   C3A51293   1.953  13.603   7.050
 8375POPC   C4A51294   1.954  13.596   7.350
 8375POPC   C1B51295   2.113  13.903   6.450
 8375POPC   C2B51296   2.109  13.805   6.750
 8375POPC   C3B51297   2.105  13.869   7.050
 8375POPC   C4B51298   2.057  13.809   7.350
 8376POPC   NC351299  42.331   5.885   5.550
 8376POPC   PO451300  42.379   5.870   5.850
 8376POPC   GL151301  42.380   5.879   6.150
 8376POPC   GL251302  42.333   5.738   6.150
 8376POPC   C1A51303  42.331   5.845   6.450
 8376POPC   D2A51304  42.339   5.885   6.750
 8376POPC   C3A51305  42.341   5.904   7.050
 8376POPC   C4A51306  42.352   5.904   7.350
 8376POPC   C1B51307  42.347   5.596   6.450
 8376POPC   C2B51308  42.326   5.665   6.750
 8376POPC   C3B51309  42.285   5.629   7.050
 8376POPC   C4B51310  42.286   5.619   7.350
 8377POPC   NC351311   2.721   9.727   5.550
 8377POPC   PO451312   2.776   9.728   5.850
 8377POPC   GL151313   2.812   9.756   6.150
 8377POPC   GL251314   2.717   9.788   6.150
 8377POPC   C1A51315   2.722   9.708   6.450
 8377POPC   D2A51316   2.786   9.722   6.750
 8377POPC   C3A51317   2.797   9.748   7.050
 8377POPC   C4A51318   2.801   9.710   7.350
 8377POPC   C1B51319   2.588   9.879   6.450
 8377POPC   C2B51320   2.538   9.903   6.750
 8377POPC   C3B51321   2.605   9.925   7.050
 8377POPC   C4B51322   2.603   9.900   7.350
 8378POPC   NC351323  34.561  29.969   5.550
 8378POPC   PO451324  34.618  29.947   5.850
 8378POPC   GL151325  34.553  29.880   6.150
 8378POPC   GL251326  34.418  29.967   6.150
 8378POPC   C1A51327  34.592  29.937   6.450
 8378POPC   D2A51328  34.567  29.944   6.750
 8378POPC   C3A51329  34.605  29.915   7.050
 8378POPC   C4A51330  34.583  29.938   7.350
 8378POPC   C1B51331  34.347  29.950   6.450
 8378POPC   C2B51332  34.313  29.974   6.750
 8378POPC   C3B51333  34.319  29.965   7.050
 8378POPC   C4B51334  34.310  29.991   7.350
 8379POPC   NC351335   0.405  13.624   5.550
 8379POPC   PO451336   0.411  13.628   5.850
 8379POPC   GL151337   0.436  13.609   6.150
 8379POPC   GL251338   0.380  13.689   6.150
 8379POPC   C1A51339   0.447  13.604   6.450
 8379POPC   D2A51340   0.447  13.623   6.750
 8379POPC   C3A51341   0.478  13.582   7.050
 8379POPC   C4A51342   0.486  13.607   7.350
 8379POPC   C1B51343   0.344  13.868   6.450
 8379POPC   C2B51344   0.301  13.834   6.750
 8379POPC   C3B51345   0.288  13.854   7.050
 8379POPC   C4B51346   0.348  13.803   7.350
 8380POPC   NC351347  24.514   1.241   5.550
 8380POPC   PO451348  24.500   1.204   5.850
 8380POPC   GL151349  24.536   1.246   6.150
 8380POPC   GL251350  24.580   1.069   6.150
 8380POPC   C1A51351  24.533   1.224   6.450
 8380POPC   D2A51352  24.494   1.250   6.750
 8380POPC   C3A51353  24.536   1.209   7.050
 8380POPC   C4A51354  24.514   1.231   7.350
 8380POPC   C1B51355  24.594   1.037   6.450
 8380POPC   C2B51356  24.629   0.975   6.750
 8380POPC   C3B51357  24.689   1.008   7.050
 8380POPC   C4B51358  24.652   0.976   7.350
 8381POPC   NC351359  33.034  43.106   5.550
 8381POPC   PO451360  32.978  43.068   5.850
 8381POPC   GL151361  33.054  43.063   6.150
 8381POPC   GL251362  32.920  43.233   6.150
 8381POPC   C1A51363  32.976  43.070   6.450
 8381POPC   D2A51364  33.056  43.136   6.750
 8381POPC   C3A51365  32.978  43.131   7.050
 8381POPC   C4A51366  32.976  43.094   7.350
 8381POPC   C1B51367  32.899  43.268   6.450
 8381POPC   C2B51368  32.894  43.347   6.750
 8381POPC   C3B51369  32.839  43.269   7.050
 8381POPC   C4B51370  32.876  43.290   7.350
 8382POPC   NC351371  15.957  37.699   5.550
 8382POPC   PO451372  15.973  37.631   5.850
 8382POPC   GL151373  15.989  37.631   6.150
 8382POPC   GL251374  16.104  37.654   6.150
 8382POPC   C1A51375  16.003  37.652   6.450
 8382POPC   D2A51376  15.922  37.643   6.750
 8382POPC   C3A51377  15.910  37.649   7.050
 8382POPC   C4A51378  15.984  37.707   7.350
 8382POPC   C1B51379  16.168  37.718   6.450
 8382POPC   C2B51380  16.193  37.712   6.750
 8382POPC   C3B51381  16.240  37.704   7.050
 8382POPC   C4B51382  16.199  37.716   7.350
 8383POPC   NC351383  26.084  21.395   5.550
 8383POPC   PO451384  26.019  21.421   5.850
 8383POPC   GL151385  26.011  21.353   6.150
 8383POPC   GL251386  26.093  21.290   6.150
 8383POPC   C1A51387  26.058  21.386   6.450
 8383POPC   D2A51388  26.090  21.343   6.750
 8383POPC   C3A51389  26.077  21.385   7.050
 8383POPC   C4A51390  26.062  21.363   7.350
 8383POPC   C1B51391  26.161  21.128   6.450
 8383POPC   C2B51392  26.151  21.197   6.750
 8383POPC   C3B51393  26.101  21.171   7.050
 8383POPC   C4B51394  26.175  21.123   7.350
 8384POPC   NC351395  31.476   2.810   5.550
 8384POPC   PO451396  31.424   2.754   5.850
 8384POPC   GL151397  31.478   2.799   6.150
 8384POPC   GL251398  31.531   2.893   6.150
 8384POPC   C1A51399  31.510   2.791   6.450
 8384POPC   D2A51400  31.462   2.751   6.750
 8384POPC   C3A51401  31.467   2.740   7.050
 8384POPC   C4A51402  31.505   2.719   7.350
 8384POPC   C1B51403  31.534   3.043   6.450
 8384POPC   C2B51404  31.450   2.976   6.750
 8384POPC   C3B51405  31.460   3.022   7.050
 8384POPC   C4B51406  31.475   3.012   7.350
 8385POPC   NC351407  29.121  33.015   5.550
 8385POPC   PO451408  29.127  33.000   5.850
 8385POPC   GL151409  29.111  33.017   6.150
 8385POPC   GL251410  29.148  32.948   6.150
 8385POPC   C1A51411  29.105  33.056   6.450
 8385POPC   D2A51412  29.126  32.996   6.750
 8385POPC   C3A51413  29.180  32.988   7.050
 8385POPC   C4A51414  29.142  32.980   7.350
 8385POPC   C1B51415  29.153  32.727   6.450
 8385POPC   C2B51416  29.129  32.798   6.750
 8385POPC   C3B51417  29.137  32.773   7.050
 8385POPC   C4B51418  29.155  32.797   7.350
 8386POPC   NC351419  35.391   9.774   5.550
 8386POPC   PO451420  35.323   9.726   5.850
 8386POPC   GL151421  35.377   9.723   6.150
 8386POPC   GL251422  35.208   9.769   6.150
 8386POPC   C1A51423  35.308   9.715   6.450
 8386POPC   D2A51424  35.315   9.719   6.750
 8386POPC   C3A51425  35.389   9.748   7.050
 8386POPC   C4A51426  35.328   9.712   7.350
 8386POPC   C1B51427  35.152   9.859   6.450
 8386POPC   C2B51428  35.102   9.844   6.750
 8386POPC   C3B51429  35.150   9.890   7.050
 8386POPC   C4B51430  35.113   9.820   7.350
 8387POPC   NC351431  34.593  39.234   5.550
 8387POPC   PO451432  34.568  39.219   5.850
 8387POPC   GL151433  34.573  39.214   6.150
 8387POPC   GL251434  34.617  39.091   6.150
 8387POPC   C1A51435  34.536  39.190   6.450
 8387POPC   D2A51436  34.588  39.216   6.750
 8387POPC   C3A51437  34.532  39.193   7.050
 8387POPC   C4A51438  34.550  39.217   7.350
 8387POPC   C1B51439  34.737  39.025   6.450
 8387POPC   C2B51440  34.736  38.971   6.750
 8387POPC   C3B51441  34.719  39.002   7.050
 8387POPC   C4B51442  34.737  38.989   7.350
 8388POPC   NC351443   7.386  29.892   5.550
 8388POPC   PO451444   7.469  29.901   5.850
 8388POPC   GL151445   7.451  29.960   6.150
 8388POPC   GL251446   7.493  29.963   6.150
 8388POPC   C1A51447   7.453  29.906   6.450
 8388POPC   D2A51448   7.424  29.873   6.750
 8388POPC   C3A51449   7.375  29.967   7.050
 8388POPC   C4A51450   7.436  29.897   7.350
 8388POPC   C1B51451   7.676  29.940   6.450
 8388POPC   C2B51452   7.672  29.965   6.750
 8388POPC   C3B51453   7.652  30.006   7.050
 8388POPC   C4B51454   7.621  30.010   7.350
 8389POPC   NC351455  33.028   4.277   5.550
 8389POPC   PO451456  33.058   4.364   5.850
 8389POPC   GL151457  32.981   4.275   6.150
 8389POPC   GL251458  32.968   4.413   6.150
 8389POPC   C1A51459  32.975   4.279   6.450
 8389POPC   D2A51460  33.050   4.342   6.750
 8389POPC   C3A51461  33.056   4.276   7.050
 8389POPC   C4A51462  33.015   4.319   7.350
 8389POPC   C1B51463  32.850   4.475   6.450
 8389POPC   C2B51464  32.834   4.423   6.750
 8389POPC   C3B51465  32.788   4.424   7.050
 8389POPC   C4B51466  32.776   4.495   7.350
 8390POPC   NC351467   3.550  14.378   5.550
 8390POPC   PO451468   3.577  14.418   5.850
 8390POPC   GL151469   3.553  14.365   6.150
 8390POPC   GL251470   3.483  14.536   6.150
 8390POPC   C1A51471   3.554  14.390   6.450
 8390POPC   D2A51472   3.492  14.435   6.750
 8390POPC   C3A51473   3.509  14.439   7.050
 8390POPC   C4A51474   3.511  14.403   7.350
 8390POPC   C1B51475   3.402  14.593   6.450
 8390POPC   C2B51476   3.429  14.638   6.750
 8390POPC   C3B51477   3.483  14.657   7.050
 8390POPC   C4B51478   3.393  14.631   7.350
 8391POPC   NC351479  22.903   0.473   5.550
 8391POPC   PO451480  22.917   0.449   5.850
 8391POPC   GL151481  22.955   0.469   6.150
 8391POPC   GL251482  22.999   0.373   6.150
 8391POPC   C1A51483  22.910   0.412   6.450
 8391POPC   D2A51484  22.900   0.481   6.750
 8391POPC   C3A51485  22.924   0.465   7.050
 8391POPC   C4A51486  22.889   0.441   7.350
 8391POPC   C1B51487  23.131   0.277   6.450
 8391POPC   C2B51488  23.144   0.268   6.750
 8391POPC   C3B51489  23.085   0.296   7.050
 8391POPC   C4B51490  23.118   0.232   7.350
 8392POPC   NC351491   8.173  32.272   5.550
 8392POPC   PO451492   8.228  32.212   5.850
 8392POPC   GL151493   8.244  32.232   6.150
 8392POPC   GL251494   8.167  32.136   6.150
 8392POPC   C1A51495   8.202  32.281   6.450
 8392POPC   D2A51496   8.192  32.292   6.750
 8392POPC   C3A51497   8.207  32.244   7.050
 8392POPC   C4A51498   8.202  32.219   7.350
 8392POPC   C1B51499   8.055  32.038   6.450
 8392POPC   C2B51500   8.090  32.006   6.750
 8392POPC   C3B51501   8.104  32.035   7.050
 8392POPC   C4B51502   8.106  32.000   7.350
 8393POPC   NC351503  29.940  43.065   5.550
 8393POPC   PO451504  29.919  43.117   5.850
 8393POPC   GL151505  29.873  43.153   6.150
 8393POPC   GL251506  29.868  43.048   6.150
 8393POPC   C1A51507  29.897  43.149   6.450
 8393POPC   D2A51508  29.891  43.085   6.750
 8393POPC   C3A51509  29.951  43.120   7.050
 8393POPC   C4A51510  29.914  43.099   7.350
 8393POPC   C1B51511  29.750  42.970   6.450
 8393POPC   C2B51512  29.761  42.971   6.750
 8393POPC   C3B51513  29.758  42.914   7.050
 8393POPC   C4B51514  29.724  42.992   7.350
 8394POPC   NC351515  19.811   2.003   5.550
 8394POPC   PO451516  19.834   1.966   5.850
 8394POPC   GL151517  19.843   2.008   6.150
 8394POPC   GL251518  19.784   1.929   6.150
 8394POPC   C1A51519  19.877   2.015   6.450
 8394POPC   D2A51520  19.789   1.957   6.750
 8394POPC   C3A51521  19.821   2.021   7.050
 8394POPC   C4A51522  19.811   1.971   7.350
 8394POPC   C1B51523  19.728   1.839   6.450
 8394POPC   C2B51524  19.664   1.784   6.750
 8394POPC   C3B51525  19.651   1.764   7.050
 8394POPC   C4B51526  19.657   1.745   7.350
 8395POPC   NC351527  20.646   8.189   5.550
 8395POPC   PO451528  20.631   8.220   5.850
 8395POPC   GL151529  20.607   8.242   6.150
 8395POPC   GL251530  20.701   8.102   6.150
 8395POPC   C1A51531  20.642   8.148   6.450
 8395POPC   D2A51532  20.610   8.177   6.750
 8395POPC   C3A51533  20.581   8.197   7.050
 8395POPC   C4A51534  20.600   8.231   7.350
 8395POPC   C1B51535  20.748   8.014   6.450
 8395POPC   C2B51536  20.674   7.961   6.750
 8395POPC   C3B51537  20.745   7.979   7.050
 8395POPC   C4B51538  20.710   7.992   7.350
 8396POPC   NC351539  41.605   6.613   5.550
 8396POPC   PO451540  41.537   6.640   5.850
 8396POPC   GL151541  41.557   6.609   6.150
 8396POPC   GL251542  41.548   6.534   6.150
 8396POPC   C1A51543  41.514   6.686   6.450
 8396POPC   D2A51544  41.579   6.679   6.750
 8396POPC   C3A51545  41.511   6.598   7.050
 8396POPC   C4A51546  41.603   6.602   7.350
 8396POPC   C1B51547  41.449   6.415   6.450
 8396POPC   C2B51548  41.520   6.427   6.750
 8396POPC   C3B51549  41.521   6.363   7.050
 8396POPC   C4B51550  41.508   6.405   7.350
 8397POPC   NC351551  36.952  11.272   5.550
 8397POPC   PO451552  36.898  11.262   5.850
 8397POPC   GL151553  36.939  11.295   6.150
 8397POPC   GL251554  37.012  11.373   6.150
 8397POPC   C1A51555  36.856  11.322   6.450
 8397POPC   D2A51556  36.855  11.289   6.750
 8397POPC   C3A51557  36.908  11.277   7.050
 8397POPC   C4A51558  36.887  11.334   7.350
 8397POPC   C1B51559  37.143  11.394   6.450
 8397POPC   C2B51560  37.173  11.406   6.750
 8397POPC   C3B51561  37.124  11.393   7.050
 8397POPC   C4B51562  37.165  11.364   7.350
 8398POPC   NC351563   4.290  20.648   5.550
 8398POPC   PO451564   4.336  20.612   5.850
 8398POPC   GL151565   4.285  20.641   6.150
 8398POPC   GL251566   4.459  20.582   6.150
 8398POPC   C1A51567   4.315  20.653   6.450
 8398POPC   D2A51568   4.333  20.657   6.750
 8398POPC   C3A51569   4.295  20.635   7.050
 8398POPC   C4A51570   4.305  20.625   7.350
 8398POPC   C1B51571   4.551  20.519   6.450
 8398POPC   C2B51572   4.501  20.521   6.750
 8398POPC   C3B51573   4.548  20.521   7.050
 8398POPC   C4B51574   4.516  20.513   7.350
 8399POPC   NC351575  18.254  28.399   5.550
 8399POPC   PO451576  18.310  28.403   5.850
 8399POPC   GL151577  18.315  28.408   6.150
 8399POPC   GL251578  18.224  28.264   6.150
 8399POPC   C1A51579  18.313  28.327   6.450
 8399POPC   D2A51580  18.236  28.380   6.750
 8399POPC   C3A51581  18.244  28.334   7.050
 8399POPC   C4A51582  18.260  28.378   7.350
 8399POPC   C1B51583  18.171  28.106   6.450
 8399POPC   C2B51584  18.261  28.091   6.750
 8399POPC   C3B51585  18.213  28.143   7.050
 8399POPC   C4B51586  18.190  28.139   7.350
 8400POPC   NC351587  29.187  41.555   5.550
 8400POPC   PO451588  29.182  41.556   5.850
 8400POPC   GL151589  29.137  41.556   6.150
 8400POPC   GL251590  29.229  41.705   6.150
 8400POPC   C1A51591  29.184  41.568   6.450
 8400POPC   D2A51592  29.192  41.544   6.750
 8400POPC   C3A51593  29.120  41.552   7.050
 8400POPC   C4A51594  29.103  41.521   7.350
 8400POPC   C1B51595  29.259  41.778   6.450
 8400POPC   C2B51596  29.216  41.793   6.750
 8400POPC   C3B51597  29.262  41.787   7.050
 8400POPC   C4B51598  29.211  41.751   7.350
 8401POPC   NC351599  22.913  25.293   5.550
 8401POPC   PO451600  22.920  25.239   5.850
 8401POPC   GL151601  22.955  25.267   6.150
 8401POPC   GL251602  22.926  25.388   6.150
 8401POPC   C1A51603  22.939  25.235   6.450
 8401POPC   D2A51604  22.902  25.235   6.750
 8401POPC   C3A51605  22.974  25.307   7.050
 8401POPC   C4A51606  22.935  25.281   7.350
 8401POPC   C1B51607  22.824  25.500   6.450
 8401POPC   C2B51608  22.863  25.451   6.750
 8401POPC   C3B51609  22.839  25.456   7.050
 8401POPC   C4B51610  22.890  25.520   7.350
 8402POPC   NC351611   5.901   2.752   5.550
 8402POPC   PO451612   5.886   2.795   5.850
 8402POPC   GL151613   5.876   2.752   6.150
 8402POPC   GL251614   5.808   2.858   6.150
 8402POPC   C1A51615   5.916   2.807   6.450
 8402POPC   D2A51616   5.841   2.777   6.750
 8402POPC   C3A51617   5.832   2.758   7.050
 8402POPC   C4A51618   5.835   2.771   7.350
 8402POPC   C1B51619   5.847   3.011   6.450
 8402POPC   C2B51620   5.851   3.000   6.750
 8402POPC   C3B51621   5.771   2.967   7.050
 8402POPC   C4B51622   5.849   3.000   7.350
 8403POPC   NC351623   7.432   3.518   5.550
 8403POPC   PO451624   7.392   3.565   5.850
 8403POPC   GL151625   7.409   3.553   6.150
 8403POPC   GL251626   7.279   3.513   6.150
 8403POPC   C1A51627   7.461   3.554   6.450
 8403POPC   D2A51628   7.413   3.554   6.750
 8403POPC   C3A51629   7.439   3.572   7.050
 8403POPC   C4A51630   7.425   3.501   7.350
 8403POPC   C1B51631   7.213   3.486   6.450
 8403POPC   C2B51632   7.192   3.478   6.750
 8403POPC   C3B51633   7.156   3.525   7.050
 8403POPC   C4B51634   7.181   3.487   7.350
 8404POPC   NC351635  36.081  39.994   5.550
 8404POPC   PO451636  36.122  40.008   5.850
 8404POPC   GL151637  36.081  40.056   6.150
 8404POPC   GL251638  36.205  40.077   6.150
 8404POPC   C1A51639  36.157  39.958   6.450
 8404POPC   D2A51640  36.126  40.046   6.750
 8404POPC   C3A51641  36.132  39.971   7.050
 8404POPC   C4A51642  36.082  40.031   7.350
 8404POPC   C1B51643  36.211  40.274   6.450
 8404POPC   C2B51644  36.185  40.234   6.750
 8404POPC   C3B51645  36.159  40.278   7.050
 8404POPC   C4B51646  36.210  40.275   7.350
 8405POPC   NC351647  19.105  43.064   5.550
 8405POPC   PO451648  19.085  43.099   5.850
 8405POPC   GL151649  19.030  43.129   6.150
 8405POPC   GL251650  19.178  43.185   6.150
 8405POPC   C1A51651  19.106  43.157   6.450
 8405POPC   D2A51652  19.062  43.154   6.750
 8405POPC   C3A51653  19.009  43.068   7.050
 8405POPC   C4A51654  19.036  43.075   7.350
 8405POPC   C1B51655  19.257  43.238   6.450
 8405POPC   C2B51656  19.279  43.330   6.750
 8405POPC   C3B51657  19.209  43.258   7.050
 8405POPC   C4B51658  19.210  43.311   7.350
 8406POPC   NC351659  36.110  12.066   5.550
 8406POPC   PO451660  36.170  12.086   5.850
 8406POPC   GL151661  36.151  12.095   6.150
 8406POPC   GL251662  36.052  11.979   6.150
 8406POPC   C1A51663  36.140  12.034   6.450
 8406POPC   D2A51664  36.139  12.085   6.750
 8406POPC   C3A51665  36.111  12.036   7.050
 8406POPC   C4A51666  36.172  12.066   7.350
 8406POPC   C1B51667  35.955  11.972   6.450
 8406POPC   C2B51668  35.883  11.983   6.750
 8406POPC   C3B51669  35.954  11.975   7.050
 8406POPC   C4B51670  35.903  11.917   7.350
 8407POPC   NC351671  37.669  20.605   5.550
 8407POPC   PO451672  37.710  20.562   5.850
 8407POPC   GL151673  37.699  20.576   6.150
 8407POPC   GL251674  37.633  20.546   6.150
 8407POPC   C1A51675  37.660  20.563   6.450
 8407POPC   D2A51676  37.654  20.576   6.750
 8407POPC   C3A51677  37.643  20.610   7.050
 8407POPC   C4A51678  37.694  20.574   7.350
 8407POPC   C1B51679  37.509  20.418   6.450
 8407POPC   C2B51680  37.489  20.412   6.750
 8407POPC   C3B51681  37.586  20.356   7.050
 8407POPC   C4B51682  37.510  20.354   7.350
 8408POPC   NC351683  14.453  15.991   5.550
 8408POPC   PO451684  14.375  16.003   5.850
 8408POPC   GL151685  14.445  15.938   6.150
 8408POPC   GL251686  14.439  16.102   6.150
 8408POPC   C1A51687  14.395  15.991   6.450
 8408POPC   D2A51688  14.444  15.928   6.750
 8408POPC   C3A51689  14.384  15.917   7.050
 8408POPC   C4A51690  14.364  15.955   7.350
 8408POPC   C1B51691  14.398  16.234   6.450
 8408POPC   C2B51692  14.428  16.237   6.750
 8408POPC   C3B51693  14.400  16.215   7.050
 8408POPC   C4B51694  14.361  16.157   7.350
 8409POPC   NC351695  40.810   2.792   5.550
 8409POPC   PO451696  40.814   2.815   5.850
 8409POPC   GL151697  40.828   2.793   6.150
 8409POPC   GL251698  40.795   2.616   6.150
 8409POPC   C1A51699  40.808   2.803   6.450
 8409POPC   D2A51700  40.808   2.759   6.750
 8409POPC   C3A51701  40.781   2.771   7.050
 8409POPC   C4A51702  40.831   2.749   7.350
 8409POPC   C1B51703  40.786   2.509   6.450
 8409POPC   C2B51704  40.766   2.513   6.750
 8409POPC   C3B51705  40.792   2.516   7.050
 8409POPC   C4B51706  40.749   2.494   7.350
 8410POPC   NC351707  43.087  39.195   5.550
 8410POPC   PO451708  43.101  39.199   5.850
 8410POPC   GL151709  43.087  39.224   6.150
 8410POPC   GL251710  43.008  39.267   6.150
 8410POPC   C1A51711  43.116  39.198   6.450
 8410POPC   D2A51712  43.093  39.243   6.750
 8410POPC   C3A51713  43.158  39.194   7.050
 8410POPC   C4A51714  43.153  39.271   7.350
 8410POPC   C1B51715  42.885  39.301   6.450
 8410POPC   C2B51716  42.840  39.394   6.750
 8410POPC   C3B51717  42.847  39.384   7.050
 8410POPC   C4B51718  42.924  39.346   7.350
 8411POPC   NC351719   7.441   6.600   5.550
 8411POPC   PO451720   7.444   6.633   5.850
 8411POPC   GL151721   7.442   6.619   6.150
 8411POPC   GL251722   7.379   6.815   6.150
 8411POPC   C1A51723   7.459   6.681   6.450
 8411POPC   D2A51724   7.395   6.626   6.750
 8411POPC   C3A51725   7.429   6.621   7.050
 8411POPC   C4A51726   7.375   6.643   7.350
 8411POPC   C1B51727   7.410   6.857   6.450
 8411POPC   C2B51728   7.394   6.877   6.750
 8411POPC   C3B51729   7.330   6.937   7.050
 8411POPC   C4B51730   7.330   6.848   7.350
 8412POPC   NC351731  28.336  43.129   5.550
 8412POPC   PO451732  28.328  43.063   5.850
 8412POPC   GL151733  28.385  43.134   6.150
 8412POPC   GL251734  28.340  43.025   6.150
 8412POPC   C1A51735  28.392  43.081   6.450
 8412POPC   D2A51736  28.338  43.121   6.750
 8412POPC   C3A51737  28.414  43.091   7.050
 8412POPC   C4A51738  28.400  43.080   7.350
 8412POPC   C1B51739  28.262  42.922   6.450
 8412POPC   C2B51740  28.258  42.938   6.750
 8412POPC   C3B51741  28.286  42.875   7.050
 8412POPC   C4B51742  28.223  42.867   7.350
 8413POPC   NC351743  17.526  26.773   5.550
 8413POPC   PO451744  17.534  26.864   5.850
 8413POPC   GL151745  17.534  26.810   6.150
 8413POPC   GL251746  17.653  26.902   6.150
 8413POPC   C1A51747  17.472  26.832   6.450
 8413POPC   D2A51748  17.556  26.788   6.750
 8413POPC   C3A51749  17.492  26.806   7.050
 8413POPC   C4A51750  17.484  26.828   7.350
 8413POPC   C1B51751  17.687  26.968   6.450
 8413POPC   C2B51752  17.724  26.961   6.750
 8413POPC   C3B51753  17.783  26.935   7.050
 8413POPC   C4B51754  17.687  26.878   7.350
 8414POPC   NC351755   4.308  36.900   5.550
 8414POPC   PO451756   4.322  36.911   5.850
 8414POPC   GL151757   4.281  36.908   6.150
 8414POPC   GL251758   4.232  36.976   6.150
 8414POPC   C1A51759   4.324  36.920   6.450
 8414POPC   D2A51760   4.362  36.880   6.750
 8414POPC   C3A51761   4.321  36.903   7.050
 8414POPC   C4A51762   4.364  36.920   7.350
 8414POPC   C1B51763   4.174  37.158   6.450
 8414POPC   C2B51764   4.148  37.160   6.750
 8414POPC   C3B51765   4.204  37.141   7.050
 8414POPC   C4B51766   4.215  37.151   7.350
 8415POPC   NC351767  22.145  15.145   5.550
 8415POPC   PO451768  22.165  15.203   5.850
 8415POPC   GL151769  22.167  15.209   6.150
 8415POPC   GL251770  22.176  15.335   6.150
 8415POPC   C1A51771  22.114  15.140   6.450
 8415POPC   D2A51772  22.171  15.142   6.750
 8415POPC   C3A51773  22.123  15.168   7.050
 8415POPC   C4A51774  22.170  15.135   7.350
 8415POPC   C1B51775  22.149  15.401   6.450
 8415POPC   C2B51776  22.097  15.425   6.750
 8415POPC   C3B51777  22.174  15.391   7.050
 8415POPC   C4B51778  22.136  15.400   7.350
 8416POPC   NC351779  25.236  13.653   5.550
 8416POPC   PO451780  25.219  13.620   5.850
 8416POPC   GL151781  25.251  13.669   6.150
 8416POPC   GL251782  25.203  13.561   6.150
 8416POPC   C1A51783  25.228  13.614   6.450
 8416POPC   D2A51784  25.289  13.650   6.750
 8416POPC   C3A51785  25.295  13.625   7.050
 8416POPC   C4A51786  25.252  13.611   7.350
 8416POPC   C1B51787  25.117  13.479   6.450
 8416POPC   C2B51788  25.067  13.507   6.750
 8416POPC   C3B51789  25.093  13.506   7.050
 8416POPC   C4B51790  25.046  13.481   7.350
 8417POPC   NC351791   9.724  21.419   5.550
 8417POPC   PO451792   9.736  21.416   5.850
 8417POPC   GL151793   9.716  21.422   6.150
 8417POPC   GL251794   9.801  21.508   6.150
 8417POPC   C1A51795   9.779  21.341   6.450
 8417POPC   D2A51796   9.729  21.338   6.750
 8417POPC   C3A51797   9.718  21.401   7.050
 8417POPC   C4A51798   9.701  21.338   7.350
 8417POPC   C1B51799   9.729  21.588   6.450
 8417POPC   C2B51800   9.741  21.640   6.750
 8417POPC   C3B51801   9.805  21.667   7.050
 8417POPC   C4B51802   9.756  21.607   7.350
 8418POPC   NC351803  21.349  43.846   5.550
 8418POPC   PO451804  21.339  43.877   5.850
 8418POPC   GL151805  21.385  43.929   6.150
 8418POPC   GL251806  21.273  43.849   6.150
 8418POPC   C1A51807  21.398  43.839   6.450
 8418POPC   D2A51808  21.418  43.862   6.750
 8418POPC   C3A51809  21.379  43.854   7.050
 8418POPC   C4A51810  21.390  43.896   7.350
 8418POPC   C1B51811  21.168  43.784   6.450
 8418POPC   C2B51812  21.135  43.824   6.750
 8418POPC   C3B51813  21.122  43.773   7.050
 8418POPC   C4B51814  21.152  43.759   7.350
 8419POPC   NC351815  25.313  23.676   5.550
 8419POPC   PO451816  25.305  23.739   5.850
 8419POPC   GL151817  25.285  23.713   6.150
 8419POPC   GL251818  25.287  23.548   6.150
 8419POPC   C1A51819  25.252  23.733   6.450
 8419POPC   D2A51820  25.293  23.716   6.750
 8419POPC   C3A51821  25.272  23.758   7.050
 8419POPC   C4A51822  25.246  23.699   7.350
 8419POPC   C1B51823  25.220  23.443   6.450
 8419POPC   C2B51824  25.168  23.504   6.750
 8419POPC   C3B51825  25.215  23.486   7.050
 8419POPC   C4B51826  25.195  23.455   7.350
 8420POPC   NC351827  12.093  16.694   5.550
 8420POPC   PO451828  12.098  16.754   5.850
 8420POPC   GL151829  12.085  16.710   6.150
 8420POPC   GL251830  12.190  16.742   6.150
 8420POPC   C1A51831  12.035  16.707   6.450
 8420POPC   D2A51832  12.079  16.694   6.750
 8420POPC   C3A51833  12.068  16.692   7.050
 8420POPC   C4A51834  12.050  16.724   7.350
 8420POPC   C1B51835  12.283  16.723   6.450
 8420POPC   C2B51836  12.276  16.727   6.750
 8420POPC   C3B51837  12.322  16.690   7.050
 8420POPC   C4B51838  12.360  16.742   7.350
 8421POPC   NC351839  33.832  35.352   5.550
 8421POPC   PO451840  33.775  35.356   5.850
 8421POPC   GL151841  33.795  35.389   6.150
 8421POPC   GL251842  33.944  35.342   6.150
 8421POPC   C1A51843  33.767  35.349   6.450
 8421POPC   D2A51844  33.779  35.339   6.750
 8421POPC   C3A51845  33.792  35.312   7.050
 8421POPC   C4A51846  33.833  35.335   7.350
 8421POPC   C1B51847  34.053  35.327   6.450
 8421POPC   C2B51848  34.035  35.325   6.750
 8421POPC   C3B51849  34.080  35.359   7.050
 8421POPC   C4B51850  33.999  35.332   7.350
 8422POPC   NC351851  10.490  35.381   5.550
 8422POPC   PO451852  10.549  35.362   5.850
 8422POPC   GL151853  10.524  35.387   6.150
 8422POPC   GL251854  10.411  35.409   6.150
 8422POPC   C1A51855  10.534  35.309   6.450
 8422POPC   D2A51856  10.567  35.321   6.750
 8422POPC   C3A51857  10.528  35.312   7.050
 8422POPC   C4A51858  10.484  35.306   7.350
 8422POPC   C1B51859  10.239  35.388   6.450
 8422POPC   C2B51860  10.253  35.321   6.750
 8422POPC   C3B51861  10.312  35.409   7.050
 8422POPC   C4B51862  10.299  35.333   7.350
 8423POPC   NC351863  30.683   9.742   5.550
 8423POPC   PO451864  30.661   9.738   5.850
 8423POPC   GL151865  30.698   9.709   6.150
 8423POPC   GL251866  30.600   9.806   6.150
 8423POPC   C1A51867  30.668   9.791   6.450
 8423POPC   D2A51868  30.731   9.763   6.750
 8423POPC   C3A51869  30.708   9.766   7.050
 8423POPC   C4A51870  30.719   9.762   7.350
 8423POPC   C1B51871  30.406   9.835   6.450
 8423POPC   C2B51872  30.452   9.800   6.750
 8423POPC   C3B51873  30.504   9.824   7.050
 8423POPC   C4B51874  30.453   9.807   7.350
 8424POPC   NC351875  12.898   0.419   5.550
 8424POPC   PO451876  12.880   0.405   5.850
 8424POPC   GL151877  12.860   0.424   6.150
 8424POPC   GL251878  12.790   0.332   6.150
 8424POPC   C1A51879  12.855   0.469   6.450
 8424POPC   D2A51880  12.806   0.410   6.750
 8424POPC   C3A51881  12.851   0.467   7.050
 8424POPC   C4A51882  12.848   0.484   7.350
 8424POPC   C1B51883  12.754   0.182   6.450
 8424POPC   C2B51884  12.768   0.189   6.750
 8424POPC   C3B51885  12.701   0.202   7.050
 8424POPC   C4B51886  12.745   0.235   7.350
 8425POPC   NC351887   5.827  42.353   5.550
 8425POPC   PO451888   5.910  42.369   5.850
 8425POPC   GL151889   5.883  42.285   6.150
 8425POPC   GL251890   5.938  42.249   6.150
 8425POPC   C1A51891   5.826  42.344   6.450
 8425POPC   D2A51892   5.879  42.384   6.750
 8425POPC   C3A51893   5.831  42.325   7.050
 8425POPC   C4A51894   5.862  42.366   7.350
 8425POPC   C1B51895   6.064  42.178   6.450
 8425POPC   C2B51896   6.072  42.145   6.750
 8425POPC   C3B51897   6.037  42.130   7.050
 8425POPC   C4B51898   6.006  42.183   7.350
 8426POPC   NC351899   3.553  13.593   5.550
 8426POPC   PO451900   3.568  13.677   5.850
 8426POPC   GL151901   3.497  13.655   6.150
 8426POPC   GL251902   3.668  13.597   6.150
 8426POPC   C1A51903   3.527  13.605   6.450
 8426POPC   D2A51904   3.580  13.667   6.750
 8426POPC   C3A51905   3.536  13.641   7.050
 8426POPC   C4A51906   3.570  13.582   7.350
 8426POPC   C1B51907   3.739  13.509   6.450
 8426POPC   C2B51908   3.719  13.471   6.750
 8426POPC   C3B51909   3.772  13.472   7.050
 8426POPC   C4B51910   3.751  13.558   7.350
 8427POPC   NC351911   9.763  11.265   5.550
 8427POPC   PO451912   9.773  11.285   5.850
 8427POPC   GL151913   9.715  11.292   6.150
 8427POPC   GL251914   9.806  11.382   6.150
 8427POPC   C1A51915   9.755  11.255   6.450
 8427POPC   D2A51916   9.774  11.341   6.750
 8427POPC   C3A51917   9.704  11.320   7.050
 8427POPC   C4A51918   9.792  11.307   7.350
 8427POPC   C1B51919   9.957  11.463   6.450
 8427POPC   C2B51920   9.945  11.435   6.750
 8427POPC   C3B51921   9.969  11.401   7.050
 8427POPC   C4B51922   9.930  11.482   7.350
 8428POPC   NC351923  16.692  29.873   5.550
 8428POPC   PO451924  16.780  29.874   5.850
 8428POPC   GL151925  16.702  29.875   6.150
 8428POPC   GL251926  16.790  29.828   6.150
 8428POPC   C1A51927  16.774  29.943   6.450
 8428POPC   D2A51928  16.713  29.883   6.750
 8428POPC   C3A51929  16.773  29.879   7.050
 8428POPC   C4A51930  16.745  29.908   7.350
 8428POPC   C1B51931  16.921  29.724   6.450
 8428POPC   C2B51932  16.949  29.756   6.750
 8428POPC   C3B51933  16.917  29.774   7.050
 8428POPC   C4B51934  16.953  29.753   7.350
 8429POPC   NC351935  23.749  10.550   5.550
 8429POPC   PO451936  23.734  10.512   5.850
 8429POPC   GL151937  23.703  10.501   6.150
 8429POPC   GL251938  23.631  10.582   6.150
 8429POPC   C1A51939  23.681  10.565   6.450
 8429POPC   D2A51940  23.714  10.481   6.750
 8429POPC   C3A51941  23.740  10.509   7.050
 8429POPC   C4A51942  23.682  10.505   7.350
 8429POPC   C1B51943  23.429  10.553   6.450
 8429POPC   C2B51944  23.425  10.528   6.750
 8429POPC   C3B51945  23.450  10.590   7.050
 8429POPC   C4B51946  23.467  10.593   7.350
 8430POPC   NC351947   9.715  15.957   5.550
 8430POPC   PO451948   9.771  15.980   5.850
 8430POPC   GL151949   9.730  15.948   6.150
 8430POPC   GL251950   9.617  15.913   6.150
 8430POPC   C1A51951   9.778  15.914   6.450
 8430POPC   D2A51952   9.733  15.918   6.750
 8430POPC   C3A51953   9.785  15.968   7.050
 8430POPC   C4A51954   9.729  15.967   7.350
 8430POPC   C1B51955   9.558  15.868   6.450
 8430POPC   C2B51956   9.536  15.817   6.750
 8430POPC   C3B51957   9.548  15.858   7.050
 8430POPC   C4B51958   9.489  15.828   7.350
 8431POPC   NC351959   7.388  43.859   5.550
 8431POPC   PO451960   7.414  43.849   5.850
 8431POPC   GL151961   7.466  43.883   6.150
 8431POPC   GL251962   7.420  44.041   6.150
 8431POPC   C1A51963   7.384  43.895   6.450
 8431POPC   D2A51964   7.444  43.887   6.750
 8431POPC   C3A51965   7.466  43.911   7.050
 8431POPC   C4A51966   7.417  43.881   7.350
 8431POPC   C1B51967   7.513  44.134   6.450
 8431POPC   C2B51968   7.533  44.101   6.750
 8431POPC   C3B51969   7.483  44.152   7.050
 8431POPC   C4B51970   7.519  44.130   7.350
 8432POPC   NC351971   1.165  10.488   5.550
 8432POPC   PO451972   1.165  10.509   5.850
 8432POPC   GL151973   1.176  10.496   6.150
 8432POPC   GL251974   1.095  10.576   6.150
 8432POPC   C1A51975   1.240  10.564   6.450
 8432POPC   D2A51976   1.181  10.489   6.750
 8432POPC   C3A51977   1.193  10.493   7.050
 8432POPC   C4A51978   1.177  10.497   7.350
 8432POPC   C1B51979   0.963  10.550   6.450
 8432POPC   C2B51980   1.002  10.581   6.750
 8432POPC   C3B51981   0.965  10.546   7.050
 8432POPC   C4B51982   0.956  10.510   7.350
 8433POPC   NC351983  12.818  11.273   5.550
 8433POPC   PO451984  12.878  11.295   5.850
 8433POPC   GL151985  12.871  11.269   6.150
 8433POPC   GL251986  12.941  11.167   6.150
 8433POPC   C1A51987  12.837  11.269   6.450
 8433POPC   D2A51988  12.833  11.282   6.750
 8433POPC   C3A51989  12.849  11.261   7.050
 8433POPC   C4A51990  12.809  11.253   7.350
 8433POPC   C1B51991  12.892  11.090   6.450
 8433POPC   C2B51992  12.917  11.018   6.750
 8433POPC   C3B51993  12.913  11.021   7.050
 8433POPC   C4B51994  12.915  11.113   7.350
 8434POPC   NC351995   3.553  25.252   5.550
 8434POPC   PO451996   3.562  25.241   5.850
 8434POPC   GL151997   3.553  25.295   6.150
 8434POPC   GL251998   3.426  25.383   6.150
 8434POPC   C1A51999   3.551  25.270   6.450
 8434POPC   D2A52000   3.554  25.286   6.750
 8434POPC   C3A52001   3.514  25.288   7.050
 8434POPC   C4A52002   3.515  25.310   7.350
 8434POPC   C1B52003   3.317  25.427   6.450
 8434POPC   C2B52004   3.398  25.473   6.750
 8434POPC   C3B52005   3.364  25.453   7.050
 8434POPC   C4B52006   3.332  25.393   7.350
 8435POPC   NC352007  34.556  33.026   5.550
 8435POPC   PO452008  34.621  33.074   5.850
 8435POPC   GL152009  34.622  33.048   6.150
 8435POPC   GL252010  34.645  32.937   6.150
 8435POPC   C1A52011  34.534  33.052   6.450
 8435POPC   D2A52012  34.612  32.975   6.750
 8435POPC   C3A52013  34.618  33.026   7.050
 8435POPC   C4A52014  34.531  32.999   7.350
 8435POPC   C1B52015  34.709  32.827   6.450
 8435POPC   C2B52016  34.696  32.825   6.750
 8435POPC   C3B52017  34.780  32.862   7.050
 8435POPC   C4B52018  34.743  32.787   7.350
 8436POPC   NC352019  14.394  26.081   5.550
 8436POPC   PO452020  14.453  26.087   5.850
 8436POPC   GL152021  14.435  26.037   6.150
 8436POPC   GL252022  14.493  25.999   6.150
 8436POPC   C1A52023  14.368  26.047   6.450
 8436POPC   D2A52024  14.432  26.048   6.750
 8436POPC   C3A52025  14.450  26.038   7.050
 8436POPC   C4A52026  14.377  26.054   7.350
 8436POPC   C1B52027  14.588  25.951   6.450
 8436POPC   C2B52028  14.612  25.921   6.750
 8436POPC   C3B52029  14.618  25.924   7.050
 8436POPC   C4B52030  14.624  25.924   7.350
 8437POPC   NC352031  21.401  26.052   5.550
 8437POPC   PO452032  21.380  26.077   5.850
 8437POPC   GL152033  21.378  25.995   6.150
 8437POPC   GL252034  21.534  26.037   6.150
 8437POPC   C1A52035  21.382  26.004   6.450
 8437POPC   D2A52036  21.403  26.009   6.750
 8437POPC   C3A52037  21.395  26.016   7.050
 8437POPC   C4A52038  21.412  26.072   7.350
 8437POPC   C1B52039  21.639  26.116   6.450
 8437POPC   C2B52040  21.585  26.144   6.750
 8437POPC   C3B52041  21.629  26.090   7.050
 8437POPC   C4B52042  21.673  26.103   7.350
 8438POPC   NC352043  38.419   8.194   5.550
 8438POPC   PO452044  38.476   8.176   5.850
 8438POPC   GL152045  38.413   8.193   6.150
 8438POPC   GL252046  38.592   8.092   6.150
 8438POPC   C1A52047  38.415   8.186   6.450
 8438POPC   D2A52048  38.489   8.246   6.750
 8438POPC   C3A52049  38.444   8.238   7.050
 8438POPC   C4A52050  38.432   8.238   7.350
 8438POPC   C1B52051  38.674   8.052   6.450
 8438POPC   C2B52052  38.719   8.125   6.750
 8438POPC   C3B52053  38.646   8.091   7.050
 8438POPC   C4B52054  38.673   8.062   7.350
 8439POPC   NC352055  43.104   8.236   5.550
 8439POPC   PO452056  43.150   8.186   5.850
 8439POPC   GL152057  43.092   8.150   6.150
 8439POPC   GL252058  43.171   8.251   6.150
 8439POPC   C1A52059  43.116   8.241   6.450
 8439POPC   D2A52060  43.147   8.226   6.750
 8439POPC   C3A52061  43.119   8.198   7.050
 8439POPC   C4A52062  43.073   8.207   7.350
 8439POPC   C1B52063  43.292   8.413   6.450
 8439POPC   C2B52064  43.286   8.411   6.750
 8439POPC   C3B52065  43.294   8.359   7.050
 8439POPC   C4B52066  43.328   8.401   7.350
 8440POPC   NC352067  30.711  40.827   5.550
 8440POPC   PO452068  30.683  40.805   5.850
 8440POPC   GL152069  30.733  40.737   6.150
 8440POPC   GL252070  30.658  40.690   6.150
 8440POPC   C1A52071  30.709  40.775   6.450
 8440POPC   D2A52072  30.658  40.795   6.750
 8440POPC   C3A52073  30.674  40.795   7.050
 8440POPC   C4A52074  30.652  40.788   7.350
 8440POPC   C1B52075  30.703  40.561   6.450
 8440POPC   C2B52076  30.652  40.541   6.750
 8440POPC   C3B52077  30.702  40.575   7.050
 8440POPC   C4B52078  30.644  40.539   7.350
 8441POPC   NC352079  37.714  11.329   5.550
 8441POPC   PO452080  37.661  11.251   5.850
 8441POPC   GL152081  37.711  11.319   6.150
 8441POPC   GL252082  37.598  11.421   6.150
 8441POPC   C1A52083  37.654  11.330   6.450
 8441POPC   D2A52084  37.641  11.288   6.750
 8441POPC   C3A52085  37.637  11.272   7.050
 8441POPC   C4A52086  37.719  11.290   7.350
 8441POPC   C1B52087  37.513  11.468   6.450
 8441POPC   C2B52088  37.523  11.462   6.750
 8441POPC   C3B52089  37.550  11.468   7.050
 8441POPC   C4B52090  37.582  11.539   7.350
 8442POPC   NC352091  21.389  34.595   5.550
 8442POPC   PO452092  21.399  34.555   5.850
 8442POPC   GL152093  21.433  34.554   6.150
 8442POPC   GL252094  21.327  34.414   6.150
 8442POPC   C1A52095  21.355  34.579   6.450
 8442POPC   D2A52096  21.386  34.605   6.750
 8442POPC   C3A52097  21.375  34.554   7.050
 8442POPC   C4A52098  21.363  34.599   7.350
 8442POPC   C1B52099  21.351  34.361   6.450
 8442POPC   C2B52100  21.282  34.317   6.750
 8442POPC   C3B52101  21.330  34.320   7.050
 8442POPC   C4B52102  21.364  34.327   7.350
 8443POPC   NC352103  32.203  26.834   5.550
 8443POPC   PO452104  32.249  26.820   5.850
 8443POPC   GL152105  32.247  26.823   6.150
 8443POPC   GL252106  32.368  26.769   6.150
 8443POPC   C1A52107  32.220  26.793   6.450
 8443POPC   D2A52108  32.257  26.798   6.750
 8443POPC   C3A52109  32.200  26.861   7.050
 8443POPC   C4A52110  32.296  26.782   7.350
 8443POPC   C1B52111  32.429  26.654   6.450
 8443POPC   C2B52112  32.406  26.652   6.750
 8443POPC   C3B52113  32.400  26.677   7.050
 8443POPC   C4B52114  32.454  26.689   7.350
 8444POPC   NC352115  21.386  20.640   5.550
 8444POPC   PO452116  21.416  20.645   5.850
 8444POPC   GL152117  21.425  20.561   6.150
 8444POPC   GL252118  21.429  20.724   6.150
 8444POPC   C1A52119  21.422  20.659   6.450
 8444POPC   D2A52120  21.362  20.574   6.750
 8444POPC   C3A52121  21.433  20.583   7.050
 8444POPC   C4A52122  21.411  20.633   7.350
 8444POPC   C1B52123  21.466  20.835   6.450
 8444POPC   C2B52124  21.453  20.811   6.750
 8444POPC   C3B52125  21.428  20.887   7.050
 8444POPC   C4B52126  21.409  20.870   7.350
 8445POPC   NC352127  35.304  30.676   5.550
 8445POPC   PO452128  35.370  30.701   5.850
 8445POPC   GL152129  35.354  30.739   6.150
 8445POPC   GL252130  35.257  30.754   6.150
 8445POPC   C1A52131  35.318  30.703   6.450
 8445POPC   D2A52132  35.351  30.720   6.750
 8445POPC   C3A52133  35.344  30.677   7.050
 8445POPC   C4A52134  35.394  30.720   7.350
 8445POPC   C1B52135  35.134  30.835   6.450
 8445POPC   C2B52136  35.079  30.828   6.750
 8445POPC   C3B52137  35.152  30.801   7.050
 8445POPC   C4B52138  35.112  30.765   7.350
 8446POPC   NC352139  14.398  28.390   5.550
 8446POPC   PO452140  14.380  28.331   5.850
 8446POPC   GL152141  14.441  28.385   6.150
 8446POPC   GL252142  14.316  28.285   6.150
 8446POPC   C1A52143  14.434  28.326   6.450
 8446POPC   D2A52144  14.355  28.345   6.750
 8446POPC   C3A52145  14.371  28.414   7.050
 8446POPC   C4A52146  14.364  28.366   7.350
 8446POPC   C1B52147  14.204  28.124   6.450
 8446POPC   C2B52148  14.204  28.144   6.750
 8446POPC   C3B52149  14.246  28.179   7.050
 8446POPC   C4B52150  14.298  28.127   7.350
 8447POPC   NC352151  35.353  27.600   5.550
 8447POPC   PO452152  35.303  27.618   5.850
 8447POPC   GL152153  35.368  27.552   6.150
 8447POPC   GL252154  35.285  27.639   6.150
 8447POPC   C1A52155  35.382  27.546   6.450
 8447POPC   D2A52156  35.368  27.628   6.750
 8447POPC   C3A52157  35.322  27.556   7.050
 8447POPC   C4A52158  35.308  27.594   7.350
 8447POPC   C1B52159  35.089  27.732   6.450
 8447POPC   C2B52160  35.167  27.736   6.750
 8447POPC   C3B52161  35.091  27.660   7.050
 8447POPC   C4B52162  35.096  27.721   7.350
 8448POPC   NC352163  15.161   0.411   5.550
 8448POPC   PO452164  15.163   0.485   5.850
 8448POPC   GL152165  15.131   0.440   6.150
 8448POPC   GL252166  15.176   0.530   6.150
 8448POPC   C1A52167  15.183   0.389   6.450
 8448POPC   D2A52168  15.226   0.429   6.750
 8448POPC   C3A52169  15.226   0.406   7.050
 8448POPC   C4A52170  15.142   0.427   7.350
 8448POPC   C1B52171  15.096   0.630   6.450
 8448POPC   C2B52172  15.122   0.690   6.750
 8448POPC   C3B52173  15.050   0.707   7.050
 8448POPC   C4B52174  15.121   0.680   7.350
 8449POPC   NC352175   5.863   1.956   5.550
 8449POPC   PO452176   5.893   2.029   5.850
 8449POPC   GL152177   5.913   2.007   6.150
 8449POPC   GL252178   5.714   1.979   6.150
 8449POPC   C1A52179   5.852   2.034   6.450
 8449POPC   D2A52180   5.856   1.946   6.750
 8449POPC   C3A52181   5.833   1.993   7.050
 8449POPC   C4A52182   5.856   1.970   7.350
 8449POPC   C1B52183   5.677   2.023   6.450
 8449POPC   C2B52184   5.679   2.071   6.750
 8449POPC   C3B52185   5.623   2.047   7.050
 8449POPC   C4B52186   5.633   2.058   7.350
 8450POPC   NC352187   8.944   5.126   5.550
 8450POPC   PO452188   9.004   5.101   5.850
 8450POPC   GL152189   9.022   5.131   6.150
 8450POPC   GL252190   8.870   5.089   6.150
 8450POPC   C1A52191   9.017   5.142   6.450
 8450POPC   D2A52192   8.999   5.115   6.750
 8450POPC   C3A52193   8.942   5.112   7.050
 8450POPC   C4A52194   8.996   5.099   7.350
 8450POPC   C1B52195   8.762   5.106   6.450
 8450POPC   C2B52196   8.708   5.161   6.750
 8450POPC   C3B52197   8.736   5.118   7.050
 8450POPC   C4B52198   8.771   5.108   7.350
 8451POPC   NC352199  30.706  30.667   5.550
 8451POPC   PO452200  30.669  30.735   5.850
 8451POPC   GL152201  30.654  30.674   6.150
 8451POPC   GL252202  30.762  30.756   6.150
 8451POPC   C1A52203  30.684  30.676   6.450
 8451POPC   D2A52204  30.691  30.741   6.750
 8451POPC   C3A52205  30.674  30.746   7.050
 8451POPC   C4A52206  30.658  30.694   7.350
 8451POPC   C1B52207  30.830  30.893   6.450
 8451POPC   C2B52208  30.844  30.900   6.750
 8451POPC   C3B52209  30.817  30.897   7.050
 8451POPC   C4B52210  30.837  30.913   7.350
 8452POPC   NC352211  40.819   1.188   5.550
 8452POPC   PO452212  40.793   1.224   5.850
 8452POPC   GL152213  40.813   1.262   6.150
 8452POPC   GL252214  40.612   1.253   6.150
 8452POPC   C1A52215  40.830   1.211   6.450
 8452POPC   D2A52216  40.738   1.246   6.750
 8452POPC   C3A52217  40.740   1.264   7.050
 8452POPC   C4A52218  40.813   1.259   7.350
 8452POPC   C1B52219  40.536   1.234   6.450
 8452POPC   C2B52220  40.550   1.258   6.750
 8452POPC   C3B52221  40.499   1.298   7.050
 8452POPC   C4B52222  40.566   1.307   7.350
 8453POPC   NC352223  24.458  36.945   5.550
 8453POPC   PO452224  24.509  36.941   5.850
 8453POPC   GL152225  24.481  36.901   6.150
 8453POPC   GL252226  24.567  36.817   6.150
 8453POPC   C1A52227  24.504  36.891   6.450
 8453POPC   D2A52228  24.538  36.886   6.750
 8453POPC   C3A52229  24.534  36.947   7.050
 8453POPC   C4A52230  24.457  36.899   7.350
 8453POPC   C1B52231  24.635  36.690   6.450
 8453POPC   C2B52232  24.585  36.728   6.750
 8453POPC   C3B52233  24.560  36.695   7.050
 8453POPC   C4B52234  24.557  36.720   7.350
 8454POPC   NC352235  40.038   4.270   5.550
 8454POPC   PO452236  39.967   4.323   5.850
 8454POPC   GL152237  40.053   4.293   6.150
 8454POPC   GL252238  40.071   4.371   6.150
 8454POPC   C1A52239  40.029   4.287   6.450
 8454POPC   D2A52240  39.991   4.274   6.750
 8454POPC   C3A52241  40.024   4.278   7.050
 8454POPC   C4A52242  39.958   4.360   7.350
 8454POPC   C1B52243  40.216   4.477   6.450
 8454POPC   C2B52244  40.209   4.394   6.750
 8454POPC   C3B52245  40.229   4.480   7.050
 8454POPC   C4B52246  40.233   4.451   7.350
 8455POPC   NC352247  25.269  44.662   5.550
 8455POPC   PO452248  25.227  44.679   5.850
 8455POPC   GL152249  25.312  44.614   6.150
 8455POPC   GL252250  25.260  44.746   6.150
 8455POPC   C1A52251  25.296  44.629   6.450
 8455POPC   D2A52252  25.310  44.670   6.750
 8455POPC   C3A52253  25.283  44.635   7.050
 8455POPC   C4A52254  25.259  44.620   7.350
 8455POPC   C1B52255  25.211  44.938   6.450
 8455POPC   C2B52256  25.187  44.910   6.750
 8455POPC   C3B52257  25.241  44.922   7.050
 8455POPC   C4B52258  25.152  44.867   7.350
 8456POPC   NC352259  40.041  11.316   5.550
 8456POPC   PO452260  40.004  11.300   5.850
 8456POPC   GL152261  40.003  11.294   6.150
 8456POPC   GL252262  39.864  11.316   6.150
 8456POPC   C1A52263  39.990  11.345   6.450
 8456POPC   D2A52264  39.970  11.294   6.750
 8456POPC   C3A52265  40.018  11.306   7.050
 8456POPC   C4A52266  39.992  11.254   7.350
 8456POPC   C1B52267  39.714  11.321   6.450
 8456POPC   C2B52268  39.777  11.340   6.750
 8456POPC   C3B52269  39.730  11.385   7.050
 8456POPC   C4B52270  39.750  11.367   7.350
 8457POPC   NC352271  10.523  19.819   5.550
 8457POPC   PO452272  10.512  19.824   5.850
 8457POPC   GL152273  10.559  19.874   6.150
 8457POPC   GL252274  10.422  19.983   6.150
 8457POPC   C1A52275  10.507  19.869   6.450
 8457POPC   D2A52276  10.483  19.825   6.750
 8457POPC   C3A52277  10.502  19.798   7.050
 8457POPC   C4A52278  10.522  19.823   7.350
 8457POPC   C1B52279  10.390  20.001   6.450
 8457POPC   C2B52280  10.371  20.071   6.750
 8457POPC   C3B52281  10.352  20.023   7.050
 8457POPC   C4B52282  10.351  20.071   7.350
 8458POPC   NC352283  19.033  19.859   5.550
 8458POPC   PO452284  19.054  19.852   5.850
 8458POPC   GL152285  19.104  19.840   6.150
 8458POPC   GL252286  19.169  19.949   6.150
 8458POPC   C1A52287  19.025  19.825   6.450
 8458POPC   D2A52288  19.107  19.836   6.750
 8458POPC   C3A52289  19.086  19.875   7.050
 8458POPC   C4A52290  19.088  19.809   7.350
 8458POPC   C1B52291  19.250  19.948   6.450
 8458POPC   C2B52292  19.223  19.999   6.750
 8458POPC   C3B52293  19.221  19.973   7.050
 8458POPC   C4B52294  19.232  19.978   7.350
 8459POPC   NC352295  43.153  44.674   5.550
 8459POPC   PO452296  43.095  44.700   5.850
 8459POPC   GL152297  43.076  44.692   6.150
 8459POPC   GL252298  43.078  44.568   6.150
 8459POPC   C1A52299  43.133  44.642   6.450
 8459POPC   D2A52300  43.068  44.653   6.750
 8459POPC   C3A52301  43.106  44.638   7.050
 8459POPC   C4A52302  43.090  44.680   7.350
 8459POPC   C1B52303  43.006  44.436   6.450
 8459POPC   C2B52304  43.006  44.474   6.750
 8459POPC   C3B52305  43.024  44.459   7.050
 8459POPC   C4B52306  43.038  44.456   7.350
 8460POPC   NC352307  28.349   3.559   5.550
 8460POPC   PO452308  28.369   3.553   5.850
 8460POPC   GL152309  28.413   3.562   6.150
 8460POPC   GL252310  28.239   3.525   6.150
 8460POPC   C1A52311  28.410   3.530   6.450
 8460POPC   D2A52312  28.347   3.517   6.750
 8460POPC   C3A52313  28.396   3.559   7.050
 8460POPC   C4A52314  28.327   3.556   7.350
 8460POPC   C1B52315  28.128   3.556   6.450
 8460POPC   C2B52316  28.083   3.595   6.750
 8460POPC   C3B52317  28.104   3.560   7.050
 8460POPC   C4B52318  28.086   3.544   7.350
 8461POPC   NC352319   1.955  12.839   5.550
 8461POPC   PO452320   1.958  12.874   5.850
 8461POPC   GL152321   2.034  12.811   6.150
 8461POPC   GL252322   1.843  12.847   6.150
 8461POPC   C1A52323   1.999  12.854   6.450
 8461POPC   D2A52324   2.018  12.876   6.750
 8461POPC   C3A52325   1.942  12.827   7.050
 8461POPC   C4A52326   1.968  12.867   7.350
 8461POPC   C1B52327   1.751  12.915   6.450
 8461POPC   C2B52328   1.723  12.925   6.750
 8461POPC   C3B52329   1.779  12.917   7.050
 8461POPC   C4B52330   1.782  12.924   7.350
 8462POPC   NC352331  19.872  21.434   5.550
 8462POPC   PO452332  19.825  21.336   5.850
 8462POPC   GL152333  19.870  21.353   6.150
 8462POPC   GL252334  19.863  21.468   6.150
 8462POPC   C1A52335  19.880  21.354   6.450
 8462POPC   D2A52336  19.880  21.351   6.750
 8462POPC   C3A52337  19.825  21.413   7.050
 8462POPC   C4A52338  19.855  21.337   7.350
 8462POPC   C1B52339  19.958  21.620   6.450
 8462POPC   C2B52340  19.891  21.586   6.750
 8462POPC   C3B52341  19.973  21.623   7.050
 8462POPC   C4B52342  19.939  21.658   7.350
 8463POPC   NC352343   5.135  27.634   5.550
 8463POPC   PO452344   5.047  27.613   5.850
 8463POPC   GL152345   5.120  27.555   6.150
 8463POPC   GL252346   5.210  27.667   6.150
 8463POPC   C1A52347   5.078  27.587   6.450
 8463POPC   D2A52348   5.073  27.603   6.750
 8463POPC   C3A52349   5.136  27.554   7.050
 8463POPC   C4A52350   5.067  27.610   7.350
 8463POPC   C1B52351   5.365  27.691   6.450
 8463POPC   C2B52352   5.326  27.676   6.750
 8463POPC   C3B52353   5.312  27.730   7.050
 8463POPC   C4B52354   5.281  27.651   7.350
 8464POPC   NC352355  19.018  21.361   5.550
 8464POPC   PO452356  19.052  21.368   5.850
 8464POPC   GL152357  19.067  21.349   6.150
 8464POPC   GL252358  18.922  21.458   6.150
 8464POPC   C1A52359  19.081  21.352   6.450
 8464POPC   D2A52360  19.023  21.421   6.750
 8464POPC   C3A52361  19.016  21.392   7.050
 8464POPC   C4A52362  19.049  21.414   7.350
 8464POPC   C1B52363  18.783  21.388   6.450
 8464POPC   C2B52364  18.842  21.386   6.750
 8464POPC   C3B52365  18.824  21.413   7.050
 8464POPC   C4B52366  18.830  21.454   7.350
 8465POPC   NC352367   2.804  16.767   5.550
 8465POPC   PO452368   2.810  16.739   5.850
 8465POPC   GL152369   2.759  16.690   6.150
 8465POPC   GL252370   2.914  16.750   6.150
 8465POPC   C1A52371   2.799  16.757   6.450
 8465POPC   D2A52372   2.772  16.739   6.750
 8465POPC   C3A52373   2.759  16.742   7.050
 8465POPC   C4A52374   2.717  16.698   7.350
 8465POPC   C1B52375   2.990  16.782   6.450
 8465POPC   C2B52376   3.018  16.842   6.750
 8465POPC   C3B52377   3.047  16.797   7.050
 8465POPC   C4B52378   3.048  16.849   7.350
 8466POPC   NC352379   4.348   0.404   5.550
 8466POPC   PO452380   4.291   0.486   5.850
 8466POPC   GL152381   4.330   0.416   6.150
 8466POPC   GL252382   4.357   0.509   6.150
 8466POPC   C1A52383   4.296   0.471   6.450
 8466POPC   D2A52384   4.305   0.447   6.750
 8466POPC   C3A52385   4.325   0.479   7.050
 8466POPC   C4A52386   4.327   0.452   7.350
 8466POPC   C1B52387   4.434   0.690   6.450
 8466POPC   C2B52388   4.366   0.669   6.750
 8466POPC   C3B52389   4.386   0.721   7.050
 8466POPC   C4B52390   4.430   0.665   7.350
 8467POPC   NC352391  19.061  28.353   5.550
 8467POPC   PO452392  19.032  28.323   5.850
 8467POPC   GL152393  19.028  28.323   6.150
 8467POPC   GL252394  19.132  28.386   6.150
 8467POPC   C1A52395  19.041  28.382   6.450
 8467POPC   D2A52396  19.090  28.368   6.750
 8467POPC   C3A52397  19.044  28.390   7.050
 8467POPC   C4A52398  19.098  28.390   7.350
 8467POPC   C1B52399  19.335  28.448   6.450
 8467POPC   C2B52400  19.339  28.495   6.750
 8467POPC   C3B52401  19.245  28.410   7.050
 8467POPC   C4B52402  19.270  28.449   7.350
 8468POPC   NC352403  32.278  40.809   5.550
 8468POPC   PO452404  32.215  40.735   5.850
 8468POPC   GL152405  32.284  40.777   6.150
 8468POPC   GL252406  32.223  40.944   6.150
 8468POPC   C1A52407  32.275  40.773   6.450
 8468POPC   D2A52408  32.291  40.821   6.750
 8468POPC   C3A52409  32.254  40.776   7.050
 8468POPC   C4A52410  32.294  40.787   7.350
 8468POPC   C1B52411  32.176  41.009   6.450
 8468POPC   C2B52412  32.192  41.004   6.750
 8468POPC   C3B52413  32.206  41.012   7.050
 8468POPC   C4B52414  32.248  41.003   7.350
 8469POPC   NC352415   3.543   3.538   5.550
 8469POPC   PO452416   3.510   3.566   5.850
 8469POPC   GL152417   3.567   3.580   6.150
 8469POPC   GL252418   3.417   3.503   6.150
 8469POPC   C1A52419   3.563   3.497   6.450
 8469POPC   D2A52420   3.522   3.499   6.750
 8469POPC   C3A52421   3.585   3.580   7.050
 8469POPC   C4A52422   3.502   3.499   7.350
 8469POPC   C1B52423   3.292   3.378   6.450
 8469POPC   C2B52424   3.299   3.441   6.750
 8469POPC   C3B52425   3.356   3.346   7.050
 8469POPC   C4B52426   3.329   3.372   7.350
 8470POPC   NC352427  35.398   4.274   5.550
 8470POPC   PO452428  35.397   4.356   5.850
 8470POPC   GL152429  35.359   4.287   6.150
 8470POPC   GL252430  35.411   4.471   6.150
 8470POPC   C1A52431  35.382   4.276   6.450
 8470POPC   D2A52432  35.387   4.287   6.750
 8470POPC   C3A52433  35.337   4.351   7.050
 8470POPC   C4A52434  35.331   4.365   7.350
 8470POPC   C1B52435  35.364   4.605   6.450
 8470POPC   C2B52436  35.375   4.604   6.750
 8470POPC   C3B52437  35.383   4.576   7.050
 8470POPC   C4B52438  35.434   4.549   7.350
 8471POPC   NC352439  20.573  20.654   5.550
 8471POPC   PO452440  20.560  20.639   5.850
 8471POPC   GL152441  20.643  20.638   6.150
 8471POPC   GL252442  20.504  20.498   6.150
 8471POPC   C1A52443  20.578  20.620   6.450
 8471POPC   D2A52444  20.602  20.612   6.750
 8471POPC   C3A52445  20.644  20.590   7.050
 8471POPC   C4A52446  20.583  20.647   7.350
 8471POPC   C1B52447  20.426  20.375   6.450
 8471POPC   C2B52448  20.463  20.385   6.750
 8471POPC   C3B52449  20.491  20.440   7.050
 8471POPC   C4B52450  20.512  20.356   7.350
 8472POPC   NC352451  29.962  25.236   5.550
 8472POPC   PO452452  29.942  25.287   5.850
 8472POPC   GL152453  29.901  25.259   6.150
 8472POPC   GL252454  29.985  25.138   6.150
 8472POPC   C1A52455  29.894  25.217   6.450
 8472POPC   D2A52456  29.952  25.304   6.750
 8472POPC   C3A52457  29.907  25.275   7.050
 8472POPC   C4A52458  29.907  25.234   7.350
 8472POPC   C1B52459  30.014  25.051   6.450
 8472POPC   C2B52460  30.020  25.073   6.750
 8472POPC   C3B52461  30.047  25.053   7.050
 8472POPC   C4B52462  30.003  25.039   7.350
 8473POPC   NC352463  34.560   0.468   5.550
 8473POPC   PO452464  34.548   0.453   5.850
 8473POPC   GL152465  34.532   0.488   6.150
 8473POPC   GL252466  34.482   0.515   6.150
 8473POPC   C1A52467  34.544   0.479   6.450
 8473POPC   D2A52468  34.610   0.450   6.750
 8473POPC   C3A52469  34.573   0.400   7.050
 8473POPC   C4A52470  34.527   0.478   7.350
 8473POPC   C1B52471  34.365   0.642   6.450
 8473POPC   C2B52472  34.438   0.594   6.750
 8473POPC   C3B52473  34.434   0.579   7.050
 8473POPC   C4B52474  34.457   0.653   7.350
 8474POPC   NC352475  37.665   6.646   5.550
 8474POPC   PO452476  37.635   6.613   5.850
 8474POPC   GL152477  37.668   6.684   6.150
 8474POPC   GL252478  37.729   6.754   6.150
 8474POPC   C1A52479  37.721   6.686   6.450
 8474POPC   D2A52480  37.715   6.684   6.750
 8474POPC   C3A52481  37.696   6.650   7.050
 8474POPC   C4A52482  37.633   6.609   7.350
 8474POPC   C1B52483  37.883   6.779   6.450
 8474POPC   C2B52484  37.849   6.854   6.750
 8474POPC   C3B52485  37.898   6.837   7.050
 8474POPC   C4B52486  37.835   6.861   7.350
 8475POPC   NC352487  21.414   0.451   5.550
 8475POPC   PO452488  21.418   0.427   5.850
 8475POPC   GL152489  21.435   0.436   6.150
 8475POPC   GL252490  21.323   0.580   6.150
 8475POPC   C1A52491  21.399   0.420   6.450
 8475POPC   D2A52492  21.430   0.482   6.750
 8475POPC   C3A52493  21.352   0.461   7.050
 8475POPC   C4A52494  21.424   0.403   7.350
 8475POPC   C1B52495  21.315   0.719   6.450
 8475POPC   C2B52496  21.347   0.693   6.750
 8475POPC   C3B52497  21.289   0.638   7.050
 8475POPC   C4B52498  21.307   0.637   7.350
 8476POPC   NC352499  26.790  15.223   5.550
 8476POPC   PO452500  26.849  15.221   5.850
 8476POPC   GL152501  26.864  15.134   6.150
 8476POPC   GL252502  26.781  15.275   6.150
 8476POPC   C1A52503  26.867  15.156   6.450
 8476POPC   D2A52504  26.864  15.151   6.750
 8476POPC   C3A52505  26.817  15.135   7.050
 8476POPC   C4A52506  26.830  15.146   7.350
 8476POPC   C1B52507  26.820  15.403   6.450
 8476POPC   C2B52508  26.807  15.413   6.750
 8476POPC   C3B52509  26.793  15.416   7.050
 8476POPC   C4B52510  26.796  15.397   7.350
 8477POPC   NC352511   7.461  33.029   5.550
 8477POPC   PO452512   7.393  32.978   5.850
 8477POPC   GL152513   7.373  32.991   6.150
 8477POPC   GL252514   7.497  33.071   6.150
 8477POPC   C1A52515   7.408  32.988   6.450
 8477POPC   D2A52516   7.461  33.018   6.750
 8477POPC   C3A52517   7.420  33.043   7.050
 8477POPC   C4A52518   7.401  32.984   7.350
 8477POPC   C1B52519   7.641  33.079   6.450
 8477POPC   C2B52520   7.679  33.147   6.750
 8477POPC   C3B52521   7.638  33.128   7.050
 8477POPC   C4B52522   7.621  33.076   7.350
 8478POPC   NC352523  16.734   8.229   5.550
 8478POPC   PO452524  16.742   8.197   5.850
 8478POPC   GL152525  16.764   8.194   6.150
 8478POPC   GL252526  16.652   8.225   6.150
 8478POPC   C1A52527  16.717   8.154   6.450
 8478POPC   D2A52528  16.767   8.221   6.750
 8478POPC   C3A52529  16.759   8.169   7.050
 8478POPC   C4A52530  16.765   8.219   7.350
 8478POPC   C1B52531  16.536   8.295   6.450
 8478POPC   C2B52532  16.553   8.335   6.750
 8478POPC   C3B52533  16.491   8.357   7.050
 8478POPC   C4B52534  16.481   8.393   7.350
 8479POPC   NC352535  34.564  18.242   5.550
 8479POPC   PO452536  34.616  18.332   5.850
 8479POPC   GL152537  34.548  18.244   6.150
 8479POPC   GL252538  34.471  18.386   6.150
 8479POPC   C1A52539  34.613  18.258   6.450
 8479POPC   D2A52540  34.598  18.305   6.750
 8479POPC   C3A52541  34.558  18.253   7.050
 8479POPC   C4A52542  34.557  18.280   7.350
 8479POPC   C1B52543  34.389  18.425   6.450
 8479POPC   C2B52544  34.420  18.424   6.750
 8479POPC   C3B52545  34.425  18.457   7.050
 8479POPC   C4B52546  34.384  18.503   7.350
 8480POPC   NC352547  28.366  36.856   5.550
 8480POPC   PO452548  28.400  36.885   5.850
 8480POPC   GL152549  28.400  36.914   6.150
 8480POPC   GL252550  28.398  37.044   6.150
 8480POPC   C1A52551  28.399  36.921   6.450
 8480POPC   D2A52552  28.369  36.905   6.750
 8480POPC   C3A52553  28.400  36.924   7.050
 8480POPC   C4A52554  28.394  36.907   7.350
 8480POPC   C1B52555  28.345  37.187   6.450
 8480POPC   C2B52556  28.334  37.107   6.750
 8480POPC   C3B52557  28.357  37.135   7.050
 8480POPC   C4B52558  28.375  37.115   7.350
 8481POPC   NC352559  25.242  36.944   5.550
 8481POPC   PO452560  25.263  36.919   5.850
 8481POPC   GL152561  25.239  36.880   6.150
 8481POPC   GL252562  25.289  37.076   6.150
 8481POPC   C1A52563  25.241  36.949   6.450
 8481POPC   D2A52564  25.226  36.856   6.750
 8481POPC   C3A52565  25.238  36.933   7.050
 8481POPC   C4A52566  25.236  36.903   7.350
 8481POPC   C1B52567  25.276  37.141   6.450
 8481POPC   C2B52568  25.292  37.155   6.750
 8481POPC   C3B52569  25.294  37.126   7.050
 8481POPC   C4B52570  25.221  37.164   7.350
 8482POPC   NC352571   9.710  41.526   5.550
 8482POPC   PO452572   9.742  41.552   5.850
 8482POPC   GL152573   9.779  41.520   6.150
 8482POPC   GL252574   9.584  41.471   6.150
 8482POPC   C1A52575   9.704  41.539   6.450
 8482POPC   D2A52576   9.744  41.603   6.750
 8482POPC   C3A52577   9.763  41.596   7.050
 8482POPC   C4A52578   9.770  41.512   7.350
 8482POPC   C1B52579   9.520  41.513   6.450
 8482POPC   C2B52580   9.463  41.487   6.750
 8482POPC   C3B52581   9.523  41.493   7.050
 8482POPC   C4B52582   9.476  41.482   7.350
 8483POPC   NC352583  26.791  16.757   5.550
 8483POPC   PO452584  26.865  16.751   5.850
 8483POPC   GL152585  26.787  16.683   6.150
 8483POPC   GL252586  26.742  16.766   6.150
 8483POPC   C1A52587  26.816  16.779   6.450
 8483POPC   D2A52588  26.824  16.765   6.750
 8483POPC   C3A52589  26.862  16.698   7.050
 8483POPC   C4A52590  26.835  16.722   7.350
 8483POPC   C1B52591  26.568  16.786   6.450
 8483POPC   C2B52592  26.627  16.765   6.750
 8483POPC   C3B52593  26.561  16.762   7.050
 8483POPC   C4B52594  26.585  16.775   7.350
 8484POPC   NC352595  27.633  23.723   5.550
 8484POPC   PO452596  27.558  23.738   5.850
 8484POPC   GL152597  27.544  23.744   6.150
 8484POPC   GL252598  27.658  23.829   6.150
 8484POPC   C1A52599  27.565  23.741   6.450
 8484POPC   D2A52600  27.588  23.672   6.750
 8484POPC   C3A52601  27.611  23.720   7.050
 8484POPC   C4A52602  27.617  23.705   7.350
 8484POPC   C1B52603  27.597  23.930   6.450
 8484POPC   C2B52604  27.608  23.949   6.750
 8484POPC   C3B52605  27.684  23.999   7.050
 8484POPC   C4B52606  27.620  23.932   7.350
 8485POPC   NC352607   5.085  19.096   5.550
 8485POPC   PO452608   5.053  19.043   5.850
 8485POPC   GL152609   5.078  19.016   6.150
 8485POPC   GL252610   5.109  18.984   6.150
 8485POPC   C1A52611   5.090  19.074   6.450
 8485POPC   D2A52612   5.053  19.074   6.750
 8485POPC   C3A52613   5.077  19.042   7.050
 8485POPC   C4A52614   5.071  19.022   7.350
 8485POPC   C1B52615   5.176  18.833   6.450
 8485POPC   C2B52616   5.154  18.844   6.750
 8485POPC   C3B52617   5.180  18.872   7.050
 8485POPC   C4B52618   5.148  18.797   7.350
 8486POPC   NC352619   1.262   8.933   5.550
 8486POPC   PO452620   1.260   8.952   5.850
 8486POPC   GL152621   1.175   8.940   6.150
 8486POPC   GL252622   1.090   8.942   6.150
 8486POPC   C1A52623   1.261   8.937   6.450
 8486POPC   D2A52624   1.207   8.976   6.750
 8486POPC   C3A52625   1.252   8.976   7.050
 8486POPC   C4A52626   1.242   8.955   7.350
 8486POPC   C1B52627   0.918   8.962   6.450
 8486POPC   C2B52628   0.961   8.880   6.750
 8486POPC   C3B52629   0.994   8.892   7.050
 8486POPC   C4B52630   0.932   8.949   7.350
 8487POPC   NC352631   5.870  44.656   5.550
 8487POPC   PO452632   5.885  44.679   5.850
 8487POPC   GL152633   5.847  44.640   6.150
 8487POPC   GL252634   5.741  44.703   6.150
 8487POPC   C1A52635   5.841  44.644   6.450
 8487POPC   D2A52636   5.839  44.645   6.750
 8487POPC   C3A52637   5.867  44.680   7.050
 8487POPC   C4A52638   5.830  44.683   7.350
 8487POPC   C1B52639   5.678  44.801   6.450
 8487POPC   C2B52640   5.602  44.810   6.750
 8487POPC   C3B52641   5.655  44.795   7.050
 8487POPC   C4B52642   5.668  44.723   7.350
 8488POPC   NC352643  40.035  30.651   5.550
 8488POPC   PO452644  39.982  30.724   5.850
 8488POPC   GL152645  40.011  30.653   6.150
 8488POPC   GL252646  40.139  30.643   6.150
 8488POPC   C1A52647  39.980  30.676   6.450
 8488POPC   D2A52648  40.024  30.682   6.750
 8488POPC   C3A52649  39.965  30.674   7.050
 8488POPC   C4A52650  40.041  30.665   7.350
 8488POPC   C1B52651  40.202  30.548   6.450
 8488POPC   C2B52652  40.250  30.609   6.750
 8488POPC   C3B52653  40.240  30.563   7.050
 8488POPC   C4B52654  40.229  30.549   7.350
 8489POPC   NC352655  22.893  11.340   5.550
 8489POPC   PO452656  22.947  11.294   5.850
 8489POPC   GL152657  22.902  11.307   6.150
 8489POPC   GL252658  23.032  11.302   6.150
 8489POPC   C1A52659  22.966  11.287   6.450
 8489POPC   D2A52660  22.950  11.291   6.750
 8489POPC   C3A52661  22.967  11.307   7.050
 8489POPC   C4A52662  22.968  11.350   7.350
 8489POPC   C1B52663  23.178  11.235   6.450
 8489POPC   C2B52664  23.231  11.269   6.750
 8489POPC   C3B52665  23.230  11.270   7.050
 8489POPC   C4B52666  23.220  11.251   7.350
 8490POPC   NC352667   0.467   0.470   5.550
 8490POPC   PO452668   0.476   0.419   5.850
 8490POPC   GL152669   0.408   0.459   6.150
 8490POPC   GL252670   0.282   0.461   6.150
 8490POPC   C1A52671   0.413   0.431   6.450
 8490POPC   D2A52672   0.420   0.391   6.750
 8490POPC   C3A52673   0.472   0.461   7.050
 8490POPC   C4A52674   0.452   0.390   7.350
 8490POPC   C1B52675   0.198   0.555   6.450
 8490POPC   C2B52676   0.195   0.567   6.750
 8490POPC   C3B52677   0.179   0.535   7.050
 8490POPC   C4B52678   0.214   0.599   7.350
 8491POPC   NC352679  41.600  29.904   5.550
 8491POPC   PO452680  41.530  29.935   5.850
 8491POPC   GL152681  41.559  29.909   6.150
 8491POPC   GL252682  41.532  29.850   6.150
 8491POPC   C1A52683  41.569  29.891   6.450
 8491POPC   D2A52684  41.527  29.926   6.750
 8491POPC   C3A52685  41.515  29.914   7.050
 8491POPC   C4A52686  41.595  29.927   7.350
 8491POPC   C1B52687  41.449  29.720   6.450
 8491POPC   C2B52688  41.495  29.673   6.750
 8491POPC   C3B52689  41.460  29.695   7.050
 8491POPC   C4B52690  41.521  29.731   7.350
 8492POPC   NC352691   4.287   2.768   5.550
 8492POPC   PO452692   4.336   2.734   5.850
 8492POPC   GL152693   4.343   2.744   6.150
 8492POPC   GL252694   4.353   2.883   6.150
 8492POPC   C1A52695   4.342   2.757   6.450
 8492POPC   D2A52696   4.361   2.766   6.750
 8492POPC   C3A52697   4.334   2.799   7.050
 8492POPC   C4A52698   4.268   2.764   7.350
 8492POPC   C1B52699   4.462   2.991   6.450
 8492POPC   C2B52700   4.485   2.985   6.750
 8492POPC   C3B52701   4.434   2.992   7.050
 8492POPC   C4B52702   4.428   2.968   7.350
 8493POPC   NC352703  26.038  40.790   5.550
 8493POPC   PO452704  26.077  40.737   5.850
 8493POPC   GL152705  26.065  40.763   6.150
 8493POPC   GL252706  26.048  40.857   6.150
 8493POPC   C1A52707  26.033  40.809   6.450
 8493POPC   D2A52708  26.043  40.769   6.750
 8493POPC   C3A52709  26.053  40.757   7.050
 8493POPC   C4A52710  26.039  40.736   7.350
 8493POPC   C1B52711  26.111  41.060   6.450
 8493POPC   C2B52712  26.088  40.984   6.750
 8493POPC   C3B52713  26.130  40.999   7.050
 8493POPC   C4B52714  26.064  41.048   7.350
 8494POPC   NC352715   8.220  23.742   5.550
 8494POPC   PO452716   8.187  23.684   5.850
 8494POPC   GL152717   8.233  23.759   6.150
 8494POPC   GL252718   8.280  23.824   6.150
 8494POPC   C1A52719   8.208  23.741   6.450
 8494POPC   D2A52720   8.220  23.729   6.750
 8494POPC   C3A52721   8.213  23.712   7.050
 8494POPC   C4A52722   8.196  23.715   7.350
 8494POPC   C1B52723   8.303  23.919   6.450
 8494POPC   C2B52724   8.315  23.938   6.750
 8494POPC   C3B52725   8.339  23.932   7.050
 8494POPC   C4B52726   8.288  23.987   7.350
 8495POPC   NC352727  18.304  33.017   5.550
 8495POPC   PO452728  18.318  33.024   5.850
 8495POPC   GL152729  18.324  33.015   6.150
 8495POPC   GL252730  18.147  33.096   6.150
 8495POPC   C1A52731  18.251  32.976   6.450
 8495POPC   D2A52732  18.313  32.999   6.750
 8495POPC   C3A52733  18.325  33.019   7.050
 8495POPC   C4A52734  18.303  33.070   7.350
 8495POPC   C1B52735  18.016  33.098   6.450
 8495POPC   C2B52736  18.109  33.139   6.750
 8495POPC   C3B52737  18.084  33.160   7.050
 8495POPC   C4B52738  18.103  33.134   7.350
 8496POPC   NC352739   2.776  26.779   5.550
 8496POPC   PO452740   2.799  26.788   5.850
 8496POPC   GL152741   2.746  26.820   6.150
 8496POPC   GL252742   2.650  26.734   6.150
 8496POPC   C1A52743   2.740  26.843   6.450
 8496POPC   D2A52744   2.753  26.865   6.750
 8496POPC   C3A52745   2.814  26.821   7.050
 8496POPC   C4A52746   2.745  26.837   7.350
 8496POPC   C1B52747   2.552  26.727   6.450
 8496POPC   C2B52748   2.535  26.737   6.750
 8496POPC   C3B52749   2.491  26.710   7.050
 8496POPC   C4B52750   2.535  26.764   7.350
 8497POPC   NC352751  20.599  36.900   5.550
 8497POPC   PO452752  20.582  36.855   5.850
 8497POPC   GL152753  20.584  36.937   6.150
 8497POPC   GL252754  20.700  36.804   6.150
 8497POPC   C1A52755  20.641  36.919   6.450
 8497POPC   D2A52756  20.594  36.921   6.750
 8497POPC   C3A52757  20.627  36.910   7.050
 8497POPC   C4A52758  20.627  36.908   7.350
 8497POPC   C1B52759  20.837  36.782   6.450
 8497POPC   C2B52760  20.838  36.798   6.750
 8497POPC   C3B52761  20.791  36.794   7.050
 8497POPC   C4B52762  20.852  36.746   7.350
 8498POPC   NC352763   6.692  27.592   5.550
 8498POPC   PO452764   6.678  27.601   5.850
 8498POPC   GL152765   6.649  27.605   6.150
 8498POPC   GL252766   6.753  27.615   6.150
 8498POPC   C1A52767   6.645  27.558   6.450
 8498POPC   D2A52768   6.664  27.606   6.750
 8498POPC   C3A52769   6.598  27.558   7.050
 8498POPC   C4A52770   6.640  27.553   7.350
 8498POPC   C1B52771   6.880  27.546   6.450
 8498POPC   C2B52772   6.901  27.539   6.750
 8498POPC   C3B52773   6.872  27.579   7.050
 8498POPC   C4B52774   6.940  27.582   7.350
 8499POPC   NC352775  38.446  26.039   5.550
 8499POPC   PO452776  38.445  26.084   5.850
 8499POPC   GL152777  38.467  26.050   6.150
 8499POPC   GL252778  38.498  25.944   6.150
 8499POPC   C1A52779  38.438  25.999   6.450
 8499POPC   D2A52780  38.460  26.049   6.750
 8499POPC   C3A52781  38.416  26.046   7.050
 8499POPC   C4A52782  38.475  26.030   7.350
 8499POPC   C1B52783  38.430  25.798   6.450
 8499POPC   C2B52784  38.480  25.777   6.750
 8499POPC   C3B52785  38.473  25.776   7.050
 8499POPC   C4B52786  38.482  25.829   7.350
 8500POPC   NC352787   7.426  32.241   5.550
 8500POPC   PO452788   7.457  32.265   5.850
 8500POPC   GL152789   7.468  32.252   6.150
 8500POPC   GL252790   7.522  32.208   6.150
 8500POPC   C1A52791   7.391  32.292   6.450
 8500POPC   D2A52792   7.371  32.232   6.750
 8500POPC   C3A52793   7.385  32.200   7.050
 8500POPC   C4A52794   7.424  32.276   7.350
 8500POPC   C1B52795   7.696  32.232   6.450
 8500POPC   C2B52796   7.655  32.178   6.750
 8500POPC   C3B52797   7.700  32.147   7.050
 8500POPC   C4B52798   7.691  32.200   7.350
 8501POPC   NC352799  36.128   6.605   5.550
 8501POPC   PO452800  36.159   6.654   5.850
 8501POPC   GL152801  36.096   6.692   6.150
 8501POPC   GL252802  36.078   6.582   6.150
 8501POPC   C1A52803  36.124   6.624   6.450
 8501POPC   D2A52804  36.097   6.626   6.750
 8501POPC   C3A52805  36.152   6.681   7.050
 8501POPC   C4A52806  36.126   6.657   7.350
 8501POPC   C1B52807  35.922   6.467   6.450
 8501POPC   C2B52808  35.931   6.481   6.750
 8501POPC   C3B52809  35.955   6.528   7.050
 8501POPC   C4B52810  35.955   6.492   7.350
 8502POPC   NC352811  33.029  22.160   5.550
 8502POPC   PO452812  33.062  22.149   5.850
 8502POPC   GL152813  33.063  22.146   6.150
 8502POPC   GL252814  32.937  22.282   6.150
 8502POPC   C1A52815  33.069  22.169   6.450
 8502POPC   D2A52816  32.997  22.116   6.750
 8502POPC   C3A52817  33.030  22.200   7.050
 8502POPC   C4A52818  33.006  22.127   7.350
 8502POPC   C1B52819  32.884  22.369   6.450
 8502POPC   C2B52820  32.850  22.354   6.750
 8502POPC   C3B52821  32.931  22.333   7.050
 8502POPC   C4B52822  32.895  22.359   7.350
 8503POPC   NC352823  37.633  39.983   5.550
 8503POPC   PO452824  37.631  40.017   5.850
 8503POPC   GL152825  37.636  39.957   6.150
 8503POPC   GL252826  37.737  39.877   6.150
 8503POPC   C1A52827  37.680  40.027   6.450
 8503POPC   D2A52828  37.704  40.042   6.750
 8503POPC   C3A52829  37.676  40.048   7.050
 8503POPC   C4A52830  37.721  39.983   7.350
 8503POPC   C1B52831  37.768  39.807   6.450
 8503POPC   C2B52832  37.776  39.807   6.750
 8503POPC   C3B52833  37.733  39.794   7.050
 8503POPC   C4B52834  37.727  39.751   7.350
 8504POPC   NC352835   3.537  15.171   5.550
 8504POPC   PO452836   3.526  15.211   5.850
 8504POPC   GL152837   3.586  15.173   6.150
 8504POPC   GL252838   3.568  15.023   6.150
 8504POPC   C1A52839   3.562  15.148   6.450
 8504POPC   D2A52840   3.570  15.176   6.750
 8504POPC   C3A52841   3.513  15.150   7.050
 8504POPC   C4A52842   3.561  15.198   7.350
 8504POPC   C1B52843   3.658  14.920   6.450
 8504POPC   C2B52844   3.680  14.939   6.750
 8504POPC   C3B52845   3.615  14.939   7.050
 8504POPC   C4B52846   3.625  14.945   7.350
 8505POPC   NC352847  33.059  34.547   5.550
 8505POPC   PO452848  32.976  34.575   5.850
 8505POPC   GL152849  32.995  34.581   6.150
 8505POPC   GL252850  33.003  34.721   6.150
 8505POPC   C1A52851  33.008  34.591   6.450
 8505POPC   D2A52852  33.032  34.597   6.750
 8505POPC   C3A52853  33.063  34.608   7.050
 8505POPC   C4A52854  32.988  34.580   7.350
 8505POPC   C1B52855  33.009  34.824   6.450
 8505POPC   C2B52856  33.010  34.873   6.750
 8505POPC   C3B52857  32.971  34.800   7.050
 8505POPC   C4B52858  32.983  34.846   7.350
 8506POPC   NC352859   9.735   0.479   5.550
 8506POPC   PO452860   9.777   0.397   5.850
 8506POPC   GL152861   9.698   0.445   6.150
 8506POPC   GL252862   9.659   0.419   6.150
 8506POPC   C1A52863   9.784   0.462   6.450
 8506POPC   D2A52864   9.768   0.446   6.750
 8506POPC   C3A52865   9.781   0.417   7.050
 8506POPC   C4A52866   9.782   0.388   7.350
 8506POPC   C1B52867   9.532   0.401   6.450
 8506POPC   C2B52868   9.548   0.396   6.750
 8506POPC   C3B52869   9.468   0.460   7.050
 8506POPC   C4B52870   9.530   0.382   7.350
 8507POPC   NC352871  24.500   7.373   5.550
 8507POPC   PO452872  24.513   7.388   5.850
 8507POPC   GL152873  24.444   7.383   6.150
 8507POPC   GL252874  24.354   7.488   6.150
 8507POPC   C1A52875  24.479   7.377   6.450
 8507POPC   D2A52876  24.512   7.440   6.750
 8507POPC   C3A52877  24.452   7.414   7.050
 8507POPC   C4A52878  24.485   7.430   7.350
 8507POPC   C1B52879  24.319   7.578   6.450
 8507POPC   C2B52880  24.350   7.566   6.750
 8507POPC   C3B52881  24.326   7.601   7.050
 8507POPC   C4B52882  24.258   7.585   7.350
 8508POPC   NC352883  31.492  33.814   5.550
 8508POPC   PO452884  31.434  33.829   5.850
 8508POPC   GL152885  31.466  33.788   6.150
 8508POPC   GL252886  31.431  33.649   6.150
 8508POPC   C1A52887  31.439  33.797   6.450
 8508POPC   D2A52888  31.514  33.806   6.750
 8508POPC   C3A52889  31.456  33.817   7.050
 8508POPC   C4A52890  31.503  33.844   7.350
 8508POPC   C1B52891  31.318  33.601   6.450
 8508POPC   C2B52892  31.369  33.634   6.750
 8508POPC   C3B52893  31.358  33.551   7.050
 8508POPC   C4B52894  31.382  33.635   7.350
 8509POPC   NC352895   9.796  32.274   5.550
 8509POPC   PO452896   9.698  32.225   5.850
 8509POPC   GL152897   9.762  32.224   6.150
 8509POPC   GL252898   9.811  32.314   6.150
 8509POPC   C1A52899   9.747  32.287   6.450
 8509POPC   D2A52900   9.793  32.266   6.750
 8509POPC   C3A52901   9.754  32.267   7.050
 8509POPC   C4A52902   9.764  32.245   7.350
 8509POPC   C1B52903   9.859  32.454   6.450
 8509POPC   C2B52904   9.868  32.526   6.750
 8509POPC   C3B52905   9.799  32.463   7.050
 8509POPC   C4B52906   9.873  32.526   7.350
 8510POPC   NC352907   3.501  38.470   5.550
 8510POPC   PO452908   3.588  38.468   5.850
 8510POPC   GL152909   3.589  38.420   6.150
 8510POPC   GL252910   3.497  38.601   6.150
 8510POPC   C1A52911   3.523  38.435   6.450
 8510POPC   D2A52912   3.582  38.453   6.750
 8510POPC   C3A52913   3.571  38.462   7.050
 8510POPC   C4A52914   3.506  38.473   7.350
 8510POPC   C1B52915   3.437  38.657   6.450
 8510POPC   C2B52916   3.399  38.633   6.750
 8510POPC   C3B52917   3.436  38.714   7.050
 8510POPC   C4B52918   3.453  38.665   7.350
 8511POPC   NC352919  40.051   7.402   5.550
 8511POPC   PO452920  40.019   7.461   5.850
 8511POPC   GL152921  40.047   7.376   6.150
 8511POPC   GL252922  40.081   7.321   6.150
 8511POPC   C1A52923  39.966   7.411   6.450
 8511POPC   D2A52924  39.973   7.412   6.750
 8511POPC   C3A52925  39.990   7.434   7.050
 8511POPC   C4A52926  40.012   7.443   7.350
 8511POPC   C1B52927  40.197   7.286   6.450
 8511POPC   C2B52928  40.199   7.262   6.750
 8511POPC   C3B52929  40.252   7.292   7.050
 8511POPC   C4B52930  40.224   7.286   7.350
 8512POPC   NC352931  12.086  41.552   5.550
 8512POPC   PO452932  12.086  41.534   5.850
 8512POPC   GL152933  12.026  41.551   6.150
 8512POPC   GL252934  11.981  41.579   6.150
 8512POPC   C1A52935  12.067  41.512   6.450
 8512POPC   D2A52936  12.050  41.578   6.750
 8512POPC   C3A52937  12.117  41.518   7.050
 8512POPC   C4A52938  12.107  41.568   7.350
 8512POPC   C1B52939  11.838  41.735   6.450
 8512POPC   C2B52940  11.896  41.643   6.750
 8512POPC   C3B52941  11.815  41.694   7.050
 8512POPC   C4B52942  11.872  41.655   7.350
 8513POPC   NC352943  23.713  19.821   5.550
 8513POPC   PO452944  23.685  19.791   5.850
 8513POPC   GL152945  23.699  19.841   6.150
 8513POPC   GL252946  23.647  19.973   6.150
 8513POPC   C1A52947  23.689  19.879   6.450
 8513POPC   D2A52948  23.668  19.867   6.750
 8513POPC   C3A52949  23.753  19.865   7.050
 8513POPC   C4A52950  23.732  19.841   7.350
 8513POPC   C1B52951  23.618  20.034   6.450
 8513POPC   C2B52952  23.566  20.054   6.750
 8513POPC   C3B52953  23.593  20.083   7.050
 8513POPC   C4B52954  23.643  20.061   7.350
 8514POPC   NC352955   2.026  31.496   5.550
 8514POPC   PO452956   1.984  31.433   5.850
 8514POPC   GL152957   1.951  31.488   6.150
 8514POPC   GL252958   2.025  31.366   6.150
 8514POPC   C1A52959   2.022  31.503   6.450
 8514POPC   D2A52960   2.021  31.472   6.750
 8514POPC   C3A52961   2.007  31.477   7.050
 8514POPC   C4A52962   2.017  31.474   7.350
 8514POPC   C1B52963   2.016  31.202   6.450
 8514POPC   C2B52964   2.019  31.184   6.750
 8514POPC   C3B52965   1.976  31.226   7.050
 8514POPC   C4B52966   2.047  31.208   7.350
 8515POPC   NC352967  28.326  29.104   5.550
 8515POPC   PO452968  28.399  29.138   5.850
 8515POPC   GL152969  28.356  29.095   6.150
 8515POPC   GL252970  28.493  29.023   6.150
 8515POPC   C1A52971  28.348  29.190   6.450
 8515POPC   D2A52972  28.335  29.152   6.750
 8515POPC   C3A52973  28.337  29.149   7.050
 8515POPC   C4A52974  28.346  29.101   7.350
 8515POPC   C1B52975  28.500  28.962   6.450
 8515POPC   C2B52976  28.550  28.957   6.750
 8515POPC   C3B52977  28.570  28.919   7.050
 8515POPC   C4B52978  28.558  28.916   7.350
 8516POPC   NC352979  22.916  35.362   5.550
 8516POPC   PO452980  22.968  35.385   5.850
 8516POPC   GL152981  22.977  35.399   6.150
 8516POPC   GL252982  22.790  35.283   6.150
 8516POPC   C1A52983  22.924  35.373   6.450
 8516POPC   D2A52984  22.969  35.324   6.750
 8516POPC   C3A52985  22.893  35.312   7.050
 8516POPC   C4A52986  22.941  35.359   7.350
 8516POPC   C1B52987  22.710  35.292   6.450
 8516POPC   C2B52988  22.750  35.280   6.750
 8516POPC   C3B52989  22.688  35.271   7.050
 8516POPC   C4B52990  22.709  35.216   7.350
 8517POPC   NC352991   6.628  37.722   5.550
 8517POPC   PO452992   6.690  37.647   5.850
 8517POPC   GL152993   6.686  37.640   6.150
 8517POPC   GL252994   6.772  37.612   6.150
 8517POPC   C1A52995   6.666  37.704   6.450
 8517POPC   D2A52996   6.618  37.649   6.750
 8517POPC   C3A52997   6.637  37.721   7.050
 8517POPC   C4A52998   6.668  37.698   7.350
 8517POPC   C1B52999   6.847  37.608   6.450
 8517POPC   C2B53000   6.927  37.569   6.750
 8517POPC   C3B53001   6.920  37.641   7.050
 8517POPC   C4B53002   6.914  37.578   7.350
 8518POPC   NC353003  17.477  29.921   5.550
 8518POPC   PO453004  17.528  29.904   5.850
 8518POPC   GL153005  17.526  29.953   6.150
 8518POPC   GL253006  17.580  29.985   6.150
 8518POPC   C1A53007  17.534  29.896   6.450
 8518POPC   D2A53008  17.465  29.909   6.750
 8518POPC   C3A53009  17.514  29.893   7.050
 8518POPC   C4A53010  17.524  29.884   7.350
 8518POPC   C1B53011  17.752  30.043   6.450
 8518POPC   C2B53012  17.715  29.995   6.750
 8518POPC   C3B53013  17.713  29.967   7.050
 8518POPC   C4B53014  17.766  30.042   7.350
 8519POPC   NC353015   5.068  25.246   5.550
 8519POPC   PO453016   5.119  25.243   5.850
 8519POPC   GL153017   5.099  25.258   6.150
 8519POPC   GL253018   5.186  25.129   6.150
 8519POPC   C1A53019   5.141  25.221   6.450
 8519POPC   D2A53020   5.134  25.293   6.750
 8519POPC   C3A53021   5.053  25.264   7.050
 8519POPC   C4A53022   5.115  25.260   7.350
 8519POPC   C1B53023   5.263  25.068   6.450
 8519POPC   C2B53024   5.285  25.081   6.750
 8519POPC   C3B53025   5.304  25.107   7.050
 8519POPC   C4B53026   5.239  25.064   7.350
 8520POPC   NC353027   5.829  32.210   5.550
 8520POPC   PO453028   5.897  32.237   5.850
 8520POPC   GL153029   5.892  32.234   6.150
 8520POPC   GL253030   6.018  32.255   6.150
 8520POPC   C1A53031   5.842  32.250   6.450
 8520POPC   D2A53032   5.888  32.249   6.750
 8520POPC   C3A53033   5.851  32.210   7.050
 8520POPC   C4A53034   5.864  32.201   7.350
 8520POPC   C1B53035   6.096  32.219   6.450
 8520POPC   C2B53036   6.095  32.264   6.750
 8520POPC   C3B53037   6.151  32.271   7.050
 8520POPC   C4B53038   6.138  32.276   7.350
 8521POPC   NC353039   1.209  30.654   5.550
 8521POPC   PO453040   1.247  30.652   5.850
 8521POPC   GL153041   1.174  30.711   6.150
 8521POPC   GL253042   1.295  30.731   6.150
 8521POPC   C1A53043   1.205  30.746   6.450
 8521POPC   D2A53044   1.240  30.736   6.750
 8521POPC   C3A53045   1.219  30.650   7.050
 8521POPC   C4A53046   1.237  30.686   7.350
 8521POPC   C1B53047   1.410  30.774   6.450
 8521POPC   C2B53048   1.424  30.766   6.750
 8521POPC   C3B53049   1.452  30.784   7.050
 8521POPC   C4B53050   1.460  30.786   7.350
 8522POPC   NC353051  26.069   5.106   5.550
 8522POPC   PO453052  26.077   5.067   5.850
 8522POPC   GL153053  26.018   5.063   6.150
 8522POPC   GL253054  25.964   5.207   6.150
 8522POPC   C1A53055  26.047   5.115   6.450
 8522POPC   D2A53056  26.068   5.140   6.750
 8522POPC   C3A53057  26.048   5.075   7.050
 8522POPC   C4A53058  26.001   5.061   7.350
 8522POPC   C1B53059  25.888   5.223   6.450
 8522POPC   C2B53060  25.898   5.257   6.750
 8522POPC   C3B53061  25.815   5.230   7.050
 8522POPC   C4B53062  25.811   5.256   7.350
 8523POPC   NC353063  28.363  12.899   5.550
 8523POPC   PO453064  28.399  12.862   5.850
 8523POPC   GL153065  28.391  12.852   6.150
 8523POPC   GL253066  28.243  12.919   6.150
 8523POPC   C1A53067  28.391  12.874   6.450
 8523POPC   D2A53068  28.363  12.856   6.750
 8523POPC   C3A53069  28.365  12.848   7.050
 8523POPC   C4A53070  28.347  12.805   7.350
 8523POPC   C1B53071  28.159  12.939   6.450
 8523POPC   C2B53072  28.140  12.919   6.750
 8523POPC   C3B53073  28.101  12.934   7.050
 8523POPC   C4B53074  28.078  12.941   7.350
 8524POPC   NC353075   1.259  22.143   5.550
 8524POPC   PO453076   1.226  22.169   5.850
 8524POPC   GL153077   1.166  22.121   6.150
 8524POPC   GL253078   1.373  22.066   6.150
 8524POPC   C1A53079   1.236  22.202   6.450
 8524POPC   D2A53080   1.256  22.211   6.750
 8524POPC   C3A53081   1.215  22.117   7.050
 8524POPC   C4A53082   1.180  22.142   7.350
 8524POPC   C1B53083   1.487  22.092   6.450
 8524POPC   C2B53084   1.429  22.047   6.750
 8524POPC   C3B53085   1.403  22.055   7.050
 8524POPC   C4B53086   1.453  22.079   7.350
 8525POPC   NC353087  43.156  33.010   5.550
 8525POPC   PO453088  43.156  33.012   5.850
 8525POPC   GL153089  43.068  33.033   6.150
 8525POPC   GL253090  43.087  33.167   6.150
 8525POPC   C1A53091  43.102  32.991   6.450
 8525POPC   D2A53092  43.135  33.067   6.750
 8525POPC   C3A53093  43.107  33.047   7.050
 8525POPC   C4A53094  43.160  33.072   7.350
 8525POPC   C1B53095  43.048  33.273   6.450
 8525POPC   C2B53096  43.098  33.258   6.750
 8525POPC   C3B53097  43.021  33.301   7.050
 8525POPC   C4B53098  43.078  33.222   7.350
 8526POPC   NC353099  14.378  38.492   5.550
 8526POPC   PO453100  14.424  38.473   5.850
 8526POPC   GL153101  14.446  38.444   6.150
 8526POPC   GL253102  14.293  38.489   6.150
 8526POPC   C1A53103  14.406  38.426   6.450
 8526POPC   D2A53104  14.386  38.494   6.750
 8526POPC   C3A53105  14.422  38.483   7.050
 8526POPC   C4A53106  14.373  38.489   7.350
 8526POPC   C1B53107  14.210  38.568   6.450
 8526POPC   C2B53108  14.186  38.513   6.750
 8526POPC   C3B53109  14.211  38.568   7.050
 8526POPC   C4B53110  14.209  38.508   7.350
 8527POPC   NC353111  36.114   2.792   5.550
 8527POPC   PO453112  36.094   2.796   5.850
 8527POPC   GL153113  36.174   2.758   6.150
 8527POPC   GL253114  36.133   2.933   6.150
 8527POPC   C1A53115  36.166   2.808   6.450
 8527POPC   D2A53116  36.082   2.795   6.750
 8527POPC   C3A53117  36.108   2.721   7.050
 8527POPC   C4A53118  36.138   2.784   7.350
 8527POPC   C1B53119  36.213   3.038   6.450
 8527POPC   C2B53120  36.209   3.004   6.750
 8527POPC   C3B53121  36.190   3.058   7.050
 8527POPC   C4B53122  36.166   3.054   7.350
 8528POPC   NC353123  19.083   6.650   5.550
 8528POPC   PO453124  19.050   6.662   5.850
 8528POPC   GL153125  19.094   6.654   6.150
 8528POPC   GL253126  18.992   6.734   6.150
 8528POPC   C1A53127  19.081   6.676   6.450
 8528POPC   D2A53128  19.041   6.688   6.750
 8528POPC   C3A53129  19.013   6.688   7.050
 8528POPC   C4A53130  19.066   6.639   7.350
 8528POPC   C1B53131  18.947   6.921   6.450
 8528POPC   C2B53132  18.982   6.872   6.750
 8528POPC   C3B53133  18.955   6.874   7.050
 8528POPC   C4B53134  19.029   6.857   7.350
 8529POPC   NC353135   2.759  17.557   5.550
 8529POPC   PO453136   2.782  17.527   5.850
 8529POPC   GL153137   2.749  17.473   6.150
 8529POPC   GL253138   2.758  17.644   6.150
 8529POPC   C1A53139   2.724  17.537   6.450
 8529POPC   D2A53140   2.782  17.527   6.750
 8529POPC   C3A53141   2.788  17.557   7.050
 8529POPC   C4A53142   2.721  17.523   7.350
 8529POPC   C1B53143   2.748  17.793   6.450
 8529POPC   C2B53144   2.707  17.706   6.750
 8529POPC   C3B53145   2.748  17.799   7.050
 8529POPC   C4B53146   2.750  17.727   7.350
 8530POPC   NC353147  12.121  11.300   5.550
 8530POPC   PO453148  12.125  11.281   5.850
 8530POPC   GL153149  12.058  11.284   6.150
 8530POPC   GL253150  12.162  11.207   6.150
 8530POPC   C1A53151  12.065  11.280   6.450
 8530POPC   D2A53152  12.075  11.303   6.750
 8530POPC   C3A53153  12.098  11.304   7.050
 8530POPC   C4A53154  12.066  11.283   7.350
 8530POPC   C1B53155  12.120  11.035   6.450
 8530POPC   C2B53156  12.191  11.049   6.750
 8530POPC   C3B53157  12.177  11.060   7.050
 8530POPC   C4B53158  12.172  11.078   7.350
 8531POPC   NC353159  43.910  26.074   5.550
 8531POPC   PO453160  43.931  26.009   5.850
 8531POPC   GL153161  43.863  26.081   6.150
 8531POPC   GL253162  43.893  25.883   6.150
 8531POPC   C1A53163  43.912  26.027   6.450
 8531POPC   D2A53164  43.873  26.052   6.750
 8531POPC   C3A53165  43.847  26.040   7.050
 8531POPC   C4A53166  43.909  26.034   7.350
 8531POPC   C1B53167  43.961  25.808   6.450
 8531POPC   C2B53168  43.930  25.751   6.750
 8531POPC   C3B53169  43.949  25.778   7.050
 8531POPC   C4B53170  43.898  25.802   7.350
 8532POPC   NC353171  25.293  14.420   5.550
 8532POPC   PO453172  25.254  14.384   5.850
 8532POPC   GL153173  25.240  14.422   6.150
 8532POPC   GL253174  25.325  14.307   6.150
 8532POPC   C1A53175  25.262  14.380   6.450
 8532POPC   D2A53176  25.258  14.358   6.750
 8532POPC   C3A53177  25.220  14.417   7.050
 8532POPC   C4A53178  25.260  14.440   7.350
 8532POPC   C1B53179  25.492  14.252   6.450
 8532POPC   C2B53180  25.512  14.245   6.750
 8532POPC   C3B53181  25.475  14.311   7.050
 8532POPC   C4B53182  25.477  14.308   7.350
 8533POPC   NC353183  39.241  38.480   5.550
 8533POPC   PO453184  39.212  38.474   5.850
 8533POPC   GL153185  39.266  38.463   6.150
 8533POPC   GL253186  39.334  38.415   6.150
 8533POPC   C1A53187  39.265  38.420   6.450
 8533POPC   D2A53188  39.256  38.439   6.750
 8533POPC   C3A53189  39.277  38.459   7.050
 8533POPC   C4A53190  39.254  38.423   7.350
 8533POPC   C1B53191  39.493  38.512   6.450
 8533POPC   C2B53192  39.464  38.457   6.750
 8533POPC   C3B53193  39.511  38.448   7.050
 8533POPC   C4B53194  39.461  38.439   7.350
 8534POPC   NC353195  22.962   9.716   5.550
 8534POPC   PO453196  22.935   9.790   5.850
 8534POPC   GL153197  22.987   9.789   6.150
 8534POPC   GL253198  22.927   9.600   6.150
 8534POPC   C1A53199  22.937   9.748   6.450
 8534POPC   D2A53200  22.897   9.738   6.750
 8534POPC   C3A53201  22.912   9.796   7.050
 8534POPC   C4A53202  22.937   9.790   7.350
 8534POPC   C1B53203  22.977   9.516   6.450
 8534POPC   C2B53204  22.929   9.540   6.750
 8534POPC   C3B53205  22.930   9.462   7.050
 8534POPC   C4B53206  22.952   9.548   7.350
 8535POPC   NC353207  29.884  26.807   5.550
 8535POPC   PO453208  29.967  26.847   5.850
 8535POPC   GL153209  29.950  26.777   6.150
 8535POPC   GL253210  30.024  26.892   6.150
 8535POPC   C1A53211  29.911  26.833   6.450
 8535POPC   D2A53212  29.950  26.772   6.750
 8535POPC   C3A53213  29.930  26.838   7.050
 8535POPC   C4A53214  29.912  26.841   7.350
 8535POPC   C1B53215  30.110  26.954   6.450
 8535POPC   C2B53216  30.119  26.988   6.750
 8535POPC   C3B53217  30.137  26.953   7.050
 8535POPC   C4B53218  30.138  26.929   7.350
 8536POPC   NC353219  14.395  32.233   5.550
 8536POPC   PO453220  14.356  32.225   5.850
 8536POPC   GL153221  14.429  32.258   6.150
 8536POPC   GL253222  14.475  32.335   6.150
 8536POPC   C1A53223  14.381  32.250   6.450
 8536POPC   D2A53224  14.386  32.218   6.750
 8536POPC   C3A53225  14.431  32.227   7.050
 8536POPC   C4A53226  14.442  32.242   7.350
 8536POPC   C1B53227  14.492  32.485   6.450
 8536POPC   C2B53228  14.479  32.485   6.750
 8536POPC   C3B53229  14.572  32.514   7.050
 8536POPC   C4B53230  14.507  32.463   7.350
 8537POPC   NC353231  17.524  31.439   5.550
 8537POPC   PO453232  17.503  31.503   5.850
 8537POPC   GL153233  17.529  31.481   6.150
 8537POPC   GL253234  17.589  31.359   6.150
 8537POPC   C1A53235  17.493  31.449   6.450
 8537POPC   D2A53236  17.463  31.496   6.750
 8537POPC   C3A53237  17.516  31.480   7.050
 8537POPC   C4A53238  17.460  31.493   7.350
 8537POPC   C1B53239  17.642  31.200   6.450
 8537POPC   C2B53240  17.604  31.272   6.750
 8537POPC   C3B53241  17.577  31.246   7.050
 8537POPC   C4B53242  17.610  31.287   7.350
 8538POPC   NC353243  25.308  26.815   5.550
 8538POPC   PO453244  25.303  26.866   5.850
 8538POPC   GL153245  25.239  26.832   6.150
 8538POPC   GL253246  25.190  26.720   6.150
 8538POPC   C1A53247  25.224  26.792   6.450
 8538POPC   D2A53248  25.256  26.799   6.750
 8538POPC   C3A53249  25.296  26.791   7.050
 8538POPC   C4A53250  25.270  26.777   7.350
 8538POPC   C1B53251  25.193  26.550   6.450
 8538POPC   C2B53252  25.135  26.569   6.750
 8538POPC   C3B53253  25.182  26.619   7.050
 8538POPC   C4B53254  25.223  26.572   7.350
 8539POPC   NC353255   9.767  29.965   5.550
 8539POPC   PO453256   9.784  29.933   5.850
 8539POPC   GL153257   9.727  29.958   6.150
 8539POPC   GL253258   9.788  30.015   6.150
 8539POPC   C1A53259   9.698  29.873   6.450
 8539POPC   D2A53260   9.734  29.939   6.750
 8539POPC   C3A53261   9.720  29.890   7.050
 8539POPC   C4A53262   9.738  29.934   7.350
 8539POPC   C1B53263   9.839  30.192   6.450
 8539POPC   C2B53264   9.804  30.151   6.750
 8539POPC   C3B53265   9.865  30.165   7.050
 8539POPC   C4B53266   9.832  30.133   7.350
 8540POPC   NC353267   4.289   9.004   5.550
 8540POPC   PO453268   4.296   8.977   5.850
 8540POPC   GL153269   4.346   8.980   6.150
 8540POPC   GL253270   4.375   8.901   6.150
 8540POPC   C1A53271   4.325   8.935   6.450
 8540POPC   D2A53272   4.300   9.017   6.750
 8540POPC   C3A53273   4.279   8.990   7.050
 8540POPC   C4A53274   4.291   8.961   7.350
 8540POPC   C1B53275   4.519   8.814   6.450
 8540POPC   C2B53276   4.434   8.805   6.750
 8540POPC   C3B53277   4.504   8.803   7.050
 8540POPC   C4B53278   4.507   8.771   7.350
 8541POPC   NC353279   2.036  22.900   5.550
 8541POPC   PO453280   1.942  22.977   5.850
 8541POPC   GL153281   1.990  22.921   6.150
 8541POPC   GL253282   1.947  23.080   6.150
 8541POPC   C1A53283   1.981  22.952   6.450
 8541POPC   D2A53284   1.973  22.957   6.750
 8541POPC   C3A53285   2.037  22.981   7.050
 8541POPC   C4A53286   2.009  22.897   7.350
 8541POPC   C1B53287   1.916  23.177   6.450
 8541POPC   C2B53288   1.946  23.184   6.750
 8541POPC   C3B53289   1.904  23.135   7.050
 8541POPC   C4B53290   1.905  23.146   7.350
 8542POPC   NC353291  14.409  12.085   5.550
 8542POPC   PO453292  14.438  12.071   5.850
 8542POPC   GL153293  14.435  12.083   6.150
 8542POPC   GL253294  14.549  12.065   6.150
 8542POPC   C1A53295  14.375  12.108   6.450
 8542POPC   D2A53296  14.390  12.032   6.750
 8542POPC   C3A53297  14.375  12.087   7.050
 8542POPC   C4A53298  14.370  12.108   7.350
 8542POPC   C1B53299  14.621  12.110   6.450
 8542POPC   C2B53300  14.663  12.028   6.750
 8542POPC   C3B53301  14.612  12.061   7.050
 8542POPC   C4B53302  14.699  12.074   7.350
 8543POPC   NC353303  41.608   1.251   5.550
 8543POPC   PO453304  41.591   1.198   5.850
 8543POPC   GL153305  41.589   1.240   6.150
 8543POPC   GL253306  41.535   1.293   6.150
 8543POPC   C1A53307  41.529   1.247   6.450
 8543POPC   D2A53308  41.597   1.228   6.750
 8543POPC   C3A53309  41.527   1.217   7.050
 8543POPC   C4A53310  41.583   1.261   7.350
 8543POPC   C1B53311  41.497   1.457   6.450
 8543POPC   C2B53312  41.477   1.449   6.750
 8543POPC   C3B53313  41.509   1.412   7.050
 8543POPC   C4B53314  41.557   1.479   7.350
 8544POPC   NC353315   8.997  21.369   5.550
 8544POPC   PO453316   8.997  21.423   5.850
 8544POPC   GL153317   8.978  21.435   6.150
 8544POPC   GL253318   8.948  21.263   6.150
 8544POPC   C1A53319   8.994  21.339   6.450
 8544POPC   D2A53320   8.978  21.363   6.750
 8544POPC   C3A53321   8.999  21.429   7.050
 8544POPC   C4A53322   8.942  21.380   7.350
 8544POPC   C1B53323   8.889  21.170   6.450
 8544POPC   C2B53324   8.816  21.199   6.750
 8544POPC   C3B53325   8.825  21.211   7.050
 8544POPC   C4B53326   8.793  21.195   7.350
 8545POPC   NC353327  19.024   8.993   5.550
 8545POPC   PO453328  19.087   8.955   5.850
 8545POPC   GL153329  19.056   8.947   6.150
 8545POPC   GL253330  18.913   8.975   6.150
 8545POPC   C1A53331  19.044   9.014   6.450
 8545POPC   D2A53332  19.065   8.941   6.750
 8545POPC   C3A53333  19.034   8.930   7.050
 8545POPC   C4A53334  19.075   9.019   7.350
 8545POPC   C1B53335  18.846   9.011   6.450
 8545POPC   C2B53336  18.772   9.052   6.750
 8545POPC   C3B53337  18.855   9.014   7.050
 8545POPC   C4B53338  18.789   8.993   7.350
 8546POPC   NC353339   8.962   7.458   5.550
 8546POPC   PO453340   8.975   7.409   5.850
 8546POPC   GL153341   8.944   7.464   6.150
 8546POPC   GL253342   8.998   7.524   6.150
 8546POPC   C1A53343   8.945   7.452   6.450
 8546POPC   D2A53344   9.006   7.460   6.750
 8546POPC   C3A53345   8.944   7.434   7.050
 8546POPC   C4A53346   8.938   7.409   7.350
 8546POPC   C1B53347   8.980   7.702   6.450
 8546POPC   C2B53348   9.042   7.708   6.750
 8546POPC   C3B53349   9.025   7.702   7.050
 8546POPC   C4B53350   8.970   7.644   7.350
 8547POPC   NC353351   2.742   2.750   5.550
 8547POPC   PO453352   2.803   2.763   5.850
 8547POPC   GL153353   2.763   2.785   6.150
 8547POPC   GL253354   2.831   2.608   6.150
 8547POPC   C1A53355   2.717   2.785   6.450
 8547POPC   D2A53356   2.724   2.757   6.750
 8547POPC   C3A53357   2.778   2.733   7.050
 8547POPC   C4A53358   2.727   2.734   7.350
 8547POPC   C1B53359   2.874   2.531   6.450
 8547POPC   C2B53360   2.839   2.578   6.750
 8547POPC   C3B53361   2.856   2.546   7.050
 8547POPC   C4B53362   2.909   2.586   7.350
 8548POPC   NC353363  26.860  34.566   5.550
 8548POPC   PO453364  26.855  34.559   5.850
 8548POPC   GL153365  26.859  34.566   6.150
 8548POPC   GL253366  26.781  34.721   6.150
 8548POPC   C1A53367  26.777  34.615   6.450
 8548POPC   D2A53368  26.782  34.535   6.750
 8548POPC   C3A53369  26.769  34.606   7.050
 8548POPC   C4A53370  26.839  34.576   7.350
 8548POPC   C1B53371  26.741  34.841   6.450
 8548POPC   C2B53372  26.710  34.803   6.750
 8548POPC   C3B53373  26.779  34.836   7.050
 8548POPC   C4B53374  26.727  34.831   7.350
 8549POPC   NC353375  23.758  34.625   5.550
 8549POPC   PO453376  23.750  34.600   5.850
 8549POPC   GL153377  23.702  34.603   6.150
 8549POPC   GL253378  23.585  34.499   6.150
 8549POPC   C1A53379  23.719  34.545   6.450
 8549POPC   D2A53380  23.684  34.607   6.750
 8549POPC   C3A53381  23.707  34.547   7.050
 8549POPC   C4A53382  23.680  34.539   7.350
 8549POPC   C1B53383  23.505  34.483   6.450
 8549POPC   C2B53384  23.529  34.436   6.750
 8549POPC   C3B53385  23.519  34.489   7.050
 8549POPC   C4B53386  23.503  34.423   7.350
 8550POPC   NC353387   5.846   8.187   5.550
 8550POPC   PO453388   5.909   8.169   5.850
 8550POPC   GL153389   5.860   8.156   6.150
 8550POPC   GL253390   5.908   8.026   6.150
 8550POPC   C1A53391   5.873   8.156   6.450
 8550POPC   D2A53392   5.844   8.155   6.750
 8550POPC   C3A53393   5.889   8.168   7.050
 8550POPC   C4A53394   5.833   8.173   7.350
 8550POPC   C1B53395   5.836   7.989   6.450
 8550POPC   C2B53396   5.883   7.929   6.750
 8550POPC   C3B53397   5.868   7.969   7.050
 8550POPC   C4B53398   5.872   7.954   7.350
 8551POPC   NC353399  36.871  40.015   5.550
 8551POPC   PO453400  36.870  40.051   5.850
 8551POPC   GL153401  36.883  39.969   6.150
 8551POPC   GL253402  36.967  40.110   6.150
 8551POPC   C1A53403  36.873  39.989   6.450
 8551POPC   D2A53404  36.880  39.965   6.750
 8551POPC   C3A53405  36.860  40.048   7.050
 8551POPC   C4A53406  36.890  39.998   7.350
 8551POPC   C1B53407  37.105  40.181   6.450
 8551POPC   C2B53408  37.125  40.201   6.750
 8551POPC   C3B53409  37.092  40.138   7.050
 8551POPC   C4B53410  37.068  40.119   7.350
 8552POPC   NC353411  25.998  44.668   5.550
 8552POPC   PO453412  26.011  44.623   5.850
 8552POPC   GL153413  26.038  44.633   6.150
 8552POPC   GL253414  26.067  44.763   6.150
 8552POPC   C1A53415  26.052  44.655   6.450
 8552POPC   D2A53416  26.076  44.694   6.750
 8552POPC   C3A53417  26.020  44.653   7.050
 8552POPC   C4A53418  26.010  44.644   7.350
 8552POPC   C1B53419  26.165  44.943   6.450
 8552POPC   C2B53420  26.120  44.904   6.750
 8552POPC   C3B53421  26.155  44.919   7.050
 8552POPC   C4B53422  26.126  44.930   7.350
 8553POPC   NC353423   6.683  40.804   5.550
 8553POPC   PO453424   6.690  40.830   5.850
 8553POPC   GL153425   6.628  40.773   6.150
 8553POPC   GL253426   6.596  40.899   6.150
 8553POPC   C1A53427   6.616  40.759   6.450
 8553POPC   D2A53428   6.627  40.822   6.750
 8553POPC   C3A53429   6.595  40.827   7.050
 8553POPC   C4A53430   6.659  40.790   7.350
 8553POPC   C1B53431   6.670  40.991   6.450
 8553POPC   C2B53432   6.683  41.034   6.750
 8553POPC   C3B53433   6.666  41.054   7.050
 8553POPC   C4B53434   6.634  41.032   7.350
 8554POPC   NC353435   2.773  29.098   5.550
 8554POPC   PO453436   2.766  29.193   5.850
 8554POPC   GL153437   2.815  29.193   6.150
 8554POPC   GL253438   2.697  28.997   6.150
 8554POPC   C1A53439   2.740  29.122   6.450
 8554POPC   D2A53440   2.724  29.126   6.750
 8554POPC   C3A53441   2.728  29.139   7.050
 8554POPC   C4A53442   2.765  29.162   7.350
 8554POPC   C1B53443   2.621  28.966   6.450
 8554POPC   C2B53444   2.596  28.955   6.750
 8554POPC   C3B53445   2.604  28.945   7.050
 8554POPC   C4B53446   2.636  28.894   7.350
 8555POPC   NC353447  38.431  16.756   5.550
 8555POPC   PO453448  38.426  16.737   5.850
 8555POPC   GL153449  38.435  16.707   6.150
 8555POPC   GL253450  38.317  16.704   6.150
 8555POPC   C1A53451  38.482  16.705   6.450
 8555POPC   D2A53452  38.489  16.698   6.750
 8555POPC   C3A53453  38.446  16.708   7.050
 8555POPC   C4A53454  38.424  16.721   7.350
 8555POPC   C1B53455  38.192  16.706   6.450
 8555POPC   C2B53456  38.194  16.705   6.750
 8555POPC   C3B53457  38.189  16.760   7.050
 8555POPC   C4B53458  38.187  16.732   7.350
 8556POPC   NC353459   1.262  37.642   5.550
 8556POPC   PO453460   1.233  37.665   5.850
 8556POPC   GL153461   1.171  37.701   6.150
 8556POPC   GL253462   1.345  37.701   6.150
 8556POPC   C1A53463   1.184  37.727   6.450
 8556POPC   D2A53464   1.225  37.637   6.750
 8556POPC   C3A53465   1.230  37.673   7.050
 8556POPC   C4A53466   1.210  37.724   7.350
 8556POPC   C1B53467   1.441  37.729   6.450
 8556POPC   C2B53468   1.452  37.775   6.750
 8556POPC   C3B53469   1.455  37.783   7.050
 8556POPC   C4B53470   1.477  37.730   7.350
 8557POPC   NC353471  23.666  14.364   5.550
 8557POPC   PO453472  23.688  14.362   5.850
 8557POPC   GL153473  23.759  14.382   6.150
 8557POPC   GL253474  23.620  14.316   6.150
 8557POPC   C1A53475  23.703  14.438   6.450
 8557POPC   D2A53476  23.683  14.369   6.750
 8557POPC   C3A53477  23.696  14.413   7.050
 8557POPC   C4A53478  23.756  14.400   7.350
 8557POPC   C1B53479  23.496  14.192   6.450
 8557POPC   C2B53480  23.559  14.211   6.750
 8557POPC   C3B53481  23.550  14.222   7.050
 8557POPC   C4B53482  23.514  14.285   7.350
 8558POPC   NC353483  12.096  30.733   5.550
 8558POPC   PO453484  12.076  30.727   5.850
 8558POPC   GL153485  12.061  30.690   6.150
 8558POPC   GL253486  12.125  30.790   6.150
 8558POPC   C1A53487  12.053  30.745   6.450
 8558POPC   D2A53488  12.051  30.722   6.750
 8558POPC   C3A53489  12.104  30.721   7.050
 8558POPC   C4A53490  12.056  30.703   7.350
 8558POPC   C1B53491  12.234  30.840   6.450
 8558POPC   C2B53492  12.228  30.844   6.750
 8558POPC   C3B53493  12.224  30.812   7.050
 8558POPC   C4B53494  12.233  30.838   7.350
 8559POPC   NC353495  43.934   5.136   5.550
 8559POPC   PO453496  43.909   5.047   5.850
 8559POPC   GL153497  43.915   5.105   6.150
 8559POPC   GL253498  43.785   5.202   6.150
 8559POPC   C1A53499  43.912   5.064   6.450
 8559POPC   D2A53500  43.919   5.094   6.750
 8559POPC   C3A53501  43.918   5.136   7.050
 8559POPC   C4A53502  43.880   5.084   7.350
 8559POPC   C1B53503  43.788   5.321   6.450
 8559POPC   C2B53504  43.769   5.314   6.750
 8559POPC   C3B53505  43.778   5.316   7.050
 8559POPC   C4B53506  43.806   5.306   7.350
 8560POPC   NC353507  43.931  19.817   5.550
 8560POPC   PO453508  43.846  19.817   5.850
 8560POPC   GL153509  43.935  19.794   6.150
 8560POPC   GL253510  43.898  19.991   6.150
 8560POPC   C1A53511  43.928  19.854   6.450
 8560POPC   D2A53512  43.933  19.804   6.750
 8560POPC   C3A53513  43.837  19.810   7.050
 8560POPC   C4A53514  43.874  19.801   7.350
 8560POPC   C1B53515  43.820  20.052   6.450
 8560POPC   C2B53516  43.782  20.070   6.750
 8560POPC   C3B53517  43.796  20.043   7.050
 8560POPC   C4B53518  43.852  20.087   7.350
 8561POPC   NC353519  10.501  11.306   5.550
 8561POPC   PO453520  10.569  11.264   5.850
 8561POPC   GL153521  10.483  11.267   6.150
 8561POPC   GL253522  10.454  11.438   6.150
 8561POPC   C1A53523  10.541  11.258   6.450
 8561POPC   D2A53524  10.568  11.316   6.750
 8561POPC   C3A53525  10.555  11.274   7.050
 8561POPC   C4A53526  10.549  11.322   7.350
 8561POPC   C1B53527  10.404  11.522   6.450
 8561POPC   C2B53528  10.353  11.499   6.750
 8561POPC   C3B53529  10.423  11.483   7.050
 8561POPC   C4B53530  10.398  11.530   7.350
 8562POPC   NC353531  34.528  42.373   5.550
 8562POPC   PO453532  34.537  42.317   5.850
 8562POPC   GL153533  34.604  42.287   6.150
 8562POPC   GL253534  34.469  42.432   6.150
 8562POPC   C1A53535  34.585  42.294   6.450
 8562POPC   D2A53536  34.563  42.310   6.750
 8562POPC   C3A53537  34.555  42.332   7.050
 8562POPC   C4A53538  34.598  42.347   7.350
 8562POPC   C1B53539  34.422  42.508   6.450
 8562POPC   C2B53540  34.426  42.466   6.750
 8562POPC   C3B53541  34.407  42.495   7.050
 8562POPC   C4B53542  34.365  42.491   7.350
 8563POPC   NC353543  35.364  44.617   5.550
 8563POPC   PO453544  35.359  44.656   5.850
 8563POPC   GL153545  35.370  44.645   6.150
 8563POPC   GL253546  35.454  44.642   6.150
 8563POPC   C1A53547  35.326  44.638   6.450
 8563POPC   D2A53548  35.370  44.691   6.750
 8563POPC   C3A53549  35.377  44.702   7.050
 8563POPC   C4A53550  35.310  44.658   7.350
 8563POPC   C1B53551  35.616  44.594   6.450
 8563POPC   C2B53552  35.556  44.650   6.750
 8563POPC   C3B53553  35.584  44.610   7.050
 8563POPC   C4B53554  35.648  44.687   7.350
 8564POPC   NC353555  16.762   2.762   5.550
 8564POPC   PO453556  16.770   2.793   5.850
 8564POPC   GL153557  16.706   2.814   6.150
 8564POPC   GL253558  16.623   2.762   6.150
 8564POPC   C1A53559  16.702   2.781   6.450
 8564POPC   D2A53560  16.779   2.731   6.750
 8564POPC   C3A53561  16.768   2.775   7.050
 8564POPC   C4A53562  16.749   2.758   7.350
 8564POPC   C1B53563  16.469   2.655   6.450
 8564POPC   C2B53564  16.466   2.680   6.750
 8564POPC   C3B53565  16.474   2.716   7.050
 8564POPC   C4B53566  16.469   2.630   7.350
 8565POPC   NC353567  25.225  31.486   5.550
 8565POPC   PO453568  25.248  31.446   5.850
 8565POPC   GL153569  25.277  31.457   6.150
 8565POPC   GL253570  25.356  31.395   6.150
 8565POPC   C1A53571  25.295  31.522   6.450
 8565POPC   D2A53572  25.275  31.494   6.750
 8565POPC   C3A53573  25.293  31.460   7.050
 8565POPC   C4A53574  25.291  31.509   7.350
 8565POPC   C1B53575  25.422  31.249   6.450
 8565POPC   C2B53576  25.462  31.301   6.750
 8565POPC   C3B53577  25.401  31.272   7.050
 8565POPC   C4B53578  25.473  31.330   7.350
 8566POPC   NC353579   1.968   2.026   5.550
 8566POPC   PO453580   2.021   1.950   5.850
 8566POPC   GL153581   1.943   2.036   6.150
 8566POPC   GL253582   2.055   1.851   6.150
 8566POPC   C1A53583   1.977   2.036   6.450
 8566POPC   D2A53584   1.984   1.956   6.750
 8566POPC   C3A53585   1.985   2.018   7.050
 8566POPC   C4A53586   1.998   1.980   7.350
 8566POPC   C1B53587   2.153   1.775   6.450
 8566POPC   C2B53588   2.146   1.813   6.750
 8566POPC   C3B53589   2.146   1.842   7.050
 8566POPC   C4B53590   2.160   1.764   7.350
 8567POPC   NC353591  21.403  10.493   5.550
 8567POPC   PO453592  21.363  10.527   5.850
 8567POPC   GL153593  21.410  10.539   6.150
 8567POPC   GL253594  21.265  10.427   6.150
 8567POPC   C1A53595  21.404  10.563   6.450
 8567POPC   D2A53596  21.356  10.484   6.750
 8567POPC   C3A53597  21.430  10.478   7.050
 8567POPC   C4A53598  21.418  10.559   7.350
 8567POPC   C1B53599  21.251  10.354   6.450
 8567POPC   C2B53600  21.233  10.278   6.750
 8567POPC   C3B53601  21.251  10.315   7.050
 8567POPC   C4B53602  21.198  10.270   7.350
 8568POPC   NC353603  30.713  33.007   5.550
 8568POPC   PO453604  30.666  33.004   5.850
 8568POPC   GL153605  30.680  32.999   6.150
 8568POPC   GL253606  30.771  33.149   6.150
 8568POPC   C1A53607  30.716  33.061   6.450
 8568POPC   D2A53608  30.658  32.975   6.750
 8568POPC   C3A53609  30.684  32.981   7.050
 8568POPC   C4A53610  30.669  32.997   7.350
 8568POPC   C1B53611  30.830  33.284   6.450
 8568POPC   C2B53612  30.756  33.222   6.750
 8568POPC   C3B53613  30.839  33.286   7.050
 8568POPC   C4B53614  30.784  33.271   7.350
 8569POPC   NC353615   2.776  28.319   5.550
 8569POPC   PO453616   2.781  28.406   5.850
 8569POPC   GL153617   2.719  28.343   6.150
 8569POPC   GL253618   2.600  28.426   6.150
 8569POPC   C1A53619   2.744  28.357   6.450
 8569POPC   D2A53620   2.762  28.330   6.750
 8569POPC   C3A53621   2.735  28.406   7.050
 8569POPC   C4A53622   2.749  28.408   7.350
 8569POPC   C1B53623   2.558  28.402   6.450
 8569POPC   C2B53624   2.538  28.435   6.750
 8569POPC   C3B53625   2.472  28.450   7.050
 8569POPC   C4B53626   2.553  28.362   7.350
 8570POPC   NC353627  15.208   2.728   5.550
 8570POPC   PO453628  15.176   2.805   5.850
 8570POPC   GL153629  15.151   2.792   6.150
 8570POPC   GL253630  15.263   2.801   6.150
 8570POPC   C1A53631  15.141   2.801   6.450
 8570POPC   D2A53632  15.194   2.756   6.750
 8570POPC   C3A53633  15.222   2.746   7.050
 8570POPC   C4A53634  15.181   2.768   7.350
 8570POPC   C1B53635  15.409   2.757   6.450
 8570POPC   C2B53636  15.458   2.776   6.750
 8570POPC   C3B53637  15.379   2.793   7.050
 8570POPC   C4B53638  15.464   2.757   7.350
 8571POPC   NC353639  24.446   3.544   5.550
 8571POPC   PO453640  24.442   3.560   5.850
 8571POPC   GL153641  24.511   3.506   6.150
 8571POPC   GL253642  24.373   3.594   6.150
 8571POPC   C1A53643  24.522   3.590   6.450
 8571POPC   D2A53644  24.446   3.500   6.750
 8571POPC   C3A53645  24.460   3.492   7.050
 8571POPC   C4A53646  24.481   3.530   7.350
 8571POPC   C1B53647  24.220   3.612   6.450
 8571POPC   C2B53648  24.227   3.692   6.750
 8571POPC   C3B53649  24.257   3.644   7.050
 8571POPC   C4B53650  24.221   3.624   7.350
 8572POPC   NC353651  19.820  31.521   5.550
 8572POPC   PO453652  19.801  31.466   5.850
 8572POPC   GL153653  19.817  31.466   6.150
 8572POPC   GL253654  19.916  31.351   6.150
 8572POPC   C1A53655  19.791  31.441   6.450
 8572POPC   D2A53656  19.859  31.472   6.750
 8572POPC   C3A53657  19.792  31.427   7.050
 8572POPC   C4A53658  19.808  31.495   7.350
 8572POPC   C1B53659  20.083  31.290   6.450
 8572POPC   C2B53660  20.061  31.285   6.750
 8572POPC   C3B53661  20.018  31.284   7.050
 8572POPC   C4B53662  20.007  31.284   7.350
 8573POPC   NC353663   7.418  22.168   5.550
 8573POPC   PO453664   7.441  22.204   5.850
 8573POPC   GL153665   7.425  22.159   6.150
 8573POPC   GL253666   7.526  22.094   6.150
 8573POPC   C1A53667   7.433  22.113   6.450
 8573POPC   D2A53668   7.448  22.198   6.750
 8573POPC   C3A53669   7.417  22.169   7.050
 8573POPC   C4A53670   7.390  22.135   7.350
 8573POPC   C1B53671   7.599  21.920   6.450
 8573POPC   C2B53672   7.540  22.012   6.750
 8573POPC   C3B53673   7.618  21.939   7.050
 8573POPC   C4B53674   7.577  21.967   7.350
 8574POPC   NC353675   9.778   5.082   5.550
 8574POPC   PO453676   9.716   5.095   5.850
 8574POPC   GL153677   9.725   5.108   6.150
 8574POPC   GL253678   9.819   5.034   6.150
 8574POPC   C1A53679   9.701   5.114   6.450
 8574POPC   D2A53680   9.794   5.089   6.750
 8574POPC   C3A53681   9.727   5.083   7.050
 8574POPC   C4A53682   9.730   5.114   7.350
 8574POPC   C1B53683   9.881   4.886   6.450
 8574POPC   C2B53684   9.857   4.882   6.750
 8574POPC   C3B53685   9.936   4.887   7.050
 8574POPC   C4B53686   9.905   4.915   7.350
 8575POPC   NC353687  18.327  31.518   5.550
 8575POPC   PO453688  18.267  31.508   5.850
 8575POPC   GL153689  18.265  31.474   6.150
 8575POPC   GL253690  18.281  31.539   6.150
 8575POPC   C1A53691  18.326  31.451   6.450
 8575POPC   D2A53692  18.315  31.492   6.750
 8575POPC   C3A53693  18.268  31.463   7.050
 8575POPC   C4A53694  18.278  31.466   7.350
 8575POPC   C1B53695  18.339  31.746   6.450
 8575POPC   C2B53696  18.399  31.682   6.750
 8575POPC   C3B53697  18.331  31.710   7.050
 8575POPC   C4B53698  18.367  31.739   7.350
 8576POPC   NC353699  15.936  24.529   5.550
 8576POPC   PO453700  15.933  24.518   5.850
 8576POPC   GL153701  15.939  24.459   6.150
 8576POPC   GL253702  15.846  24.516   6.150
 8576POPC   C1A53703  15.927  24.453   6.450
 8576POPC   D2A53704  15.965  24.520   6.750
 8576POPC   C3A53705  15.918  24.498   7.050
 8576POPC   C4A53706  15.993  24.539   7.350
 8576POPC   C1B53707  15.731  24.460   6.450
 8576POPC   C2B53708  15.754  24.489   6.750
 8576POPC   C3B53709  15.716  24.472   7.050
 8576POPC   C4B53710  15.670  24.454   7.350
 8577POPC   NC353711  12.841  12.112   5.550
 8577POPC   PO453712  12.821  12.096   5.850
 8577POPC   GL153713  12.838  12.042   6.150
 8577POPC   GL253714  12.772  12.066   6.150
 8577POPC   C1A53715  12.804  12.111   6.450
 8577POPC   D2A53716  12.871  12.095   6.750
 8577POPC   C3A53717  12.862  12.120   7.050
 8577POPC   C4A53718  12.803  12.110   7.350
 8577POPC   C1B53719  12.588  12.041   6.450
 8577POPC   C2B53720  12.643  12.047   6.750
 8577POPC   C3B53721  12.632  12.059   7.050
 8577POPC   C4B53722  12.554  12.051   7.350
 8578POPC   NC353723  16.739  44.702   5.550
 8578POPC   PO453724  16.773  44.626   5.850
 8578POPC   GL153725  16.762  44.648   6.150
 8578POPC   GL253726  16.629  44.736   6.150
 8578POPC   C1A53727  16.694  44.691   6.450
 8578POPC   D2A53728  16.707  44.700   6.750
 8578POPC   C3A53729  16.771  44.696   7.050
 8578POPC   C4A53730  16.767  44.659   7.350
 8578POPC   C1B53731  16.522  44.779   6.450
 8578POPC   C2B53732  16.506  44.797   6.750
 8578POPC   C3B53733  16.519  44.760   7.050
 8578POPC   C4B53734  16.462  44.765   7.350
 8579POPC   NC353735   3.543  22.988   5.550
 8579POPC   PO453736   3.556  22.959   5.850
 8579POPC   GL153737   3.499  22.896   6.150
 8579POPC   GL253738   3.557  23.077   6.150
 8579POPC   C1A53739   3.505  22.902   6.450
 8579POPC   D2A53740   3.582  22.910   6.750
 8579POPC   C3A53741   3.518  22.922   7.050
 8579POPC   C4A53742   3.545  22.926   7.350
 8579POPC   C1B53743   3.581  23.191   6.450
 8579POPC   C2B53744   3.591  23.192   6.750
 8579POPC   C3B53745   3.654  23.132   7.050
 8579POPC   C4B53746   3.641  23.157   7.350
 8580POPC   NC353747  36.088  35.383   5.550
 8580POPC   PO453748  36.089  35.377   5.850
 8580POPC   GL153749  36.176  35.397   6.150
 8580POPC   GL253750  36.218  35.454   6.150
 8580POPC   C1A53751  36.166  35.316   6.450
 8580POPC   D2A53752  36.142  35.321   6.750
 8580POPC   C3A53753  36.147  35.332   7.050
 8580POPC   C4A53754  36.129  35.397   7.350
 8580POPC   C1B53755  36.295  35.544   6.450
 8580POPC   C2B53756  36.312  35.520   6.750
 8580POPC   C3B53757  36.364  35.500   7.050
 8580POPC   C4B53758  36.317  35.522   7.350
 8581POPC   NC353759  25.996  33.783   5.550
 8581POPC   PO453760  26.090  33.763   5.850
 8581POPC   GL153761  26.018  33.760   6.150
 8581POPC   GL253762  26.051  33.720   6.150
 8581POPC   C1A53763  26.075  33.823   6.450
 8581POPC   D2A53764  26.037  33.845   6.750
 8581POPC   C3A53765  26.061  33.756   7.050
 8581POPC   C4A53766  26.043  33.820   7.350
 8581POPC   C1B53767  26.173  33.556   6.450
 8581POPC   C2B53768  26.133  33.540   6.750
 8581POPC   C3B53769  26.106  33.574   7.050
 8581POPC   C4B53770  26.091  33.564   7.350
 8582POPC   NC353771  25.271  18.331   5.550
 8582POPC   PO453772  25.294  18.259   5.850
 8582POPC   GL153773  25.273  18.257   6.150
 8582POPC   GL253774  25.350  18.197   6.150
 8582POPC   C1A53775  25.220  18.316   6.450
 8582POPC   D2A53776  25.219  18.310   6.750
 8582POPC   C3A53777  25.298  18.273   7.050
 8582POPC   C4A53778  25.302  18.263   7.350
 8582POPC   C1B53779  25.421  18.062   6.450
 8582POPC   C2B53780  25.436  18.054   6.750
 8582POPC   C3B53781  25.394  18.079   7.050
 8582POPC   C4B53782  25.471  18.128   7.350
 8583POPC   NC353783  12.888  44.679   5.550
 8583POPC   PO453784  12.894  44.633   5.850
 8583POPC   GL153785  12.805  44.651   6.150
 8583POPC   GL253786  12.848  44.502   6.150
 8583POPC   C1A53787  12.870  44.614   6.450
 8583POPC   D2A53788  12.811  44.626   6.750
 8583POPC   C3A53789  12.875  44.686   7.050
 8583POPC   C4A53790  12.849  44.688   7.350
 8583POPC   C1B53791  12.884  44.416   6.450
 8583POPC   C2B53792  12.891  44.398   6.750
 8583POPC   C3B53793  12.882  44.407   7.050
 8583POPC   C4B53794  12.851  44.448   7.350
 8584POPC   NC353795  17.538  36.901   5.550
 8584POPC   PO453796  17.472  36.878   5.850
 8584POPC   GL153797  17.496  36.891   6.150
 8584POPC   GL253798  17.482  37.041   6.150
 8584POPC   C1A53799  17.461  36.948   6.450
 8584POPC   D2A53800  17.507  36.898   6.750
 8584POPC   C3A53801  17.522  36.878   7.050
 8584POPC   C4A53802  17.466  36.919   7.350
 8584POPC   C1B53803  17.371  37.178   6.450
 8584POPC   C2B53804  17.463  37.168   6.750
 8584POPC   C3B53805  17.397  37.132   7.050
 8584POPC   C4B53806  17.415  37.133   7.350
 8585POPC   NC353807  20.611  35.331   5.550
 8585POPC   PO453808  20.607  35.309   5.850
 8585POPC   GL153809  20.618  35.363   6.150
 8585POPC   GL253810  20.466  35.384   6.150
 8585POPC   C1A53811  20.596  35.396   6.450
 8585POPC   D2A53812  20.562  35.303   6.750
 8585POPC   C3A53813  20.616  35.306   7.050
 8585POPC   C4A53814  20.579  35.360   7.350
 8585POPC   C1B53815  20.430  35.457   6.450
 8585POPC   C2B53816  20.387  35.472   6.750
 8585POPC   C3B53817  20.403  35.459   7.050
 8585POPC   C4B53818  20.403  35.484   7.350
 8586POPC   NC353819   7.372  43.136   5.550
 8586POPC   PO453820   7.445  43.067   5.850
 8586POPC   GL153821   7.447  43.081   6.150
 8586POPC   GL253822   7.347  43.184   6.150
 8586POPC   C1A53823   7.426  43.087   6.450
 8586POPC   D2A53824   7.424  43.132   6.750
 8586POPC   C3A53825   7.464  43.151   7.050
 8586POPC   C4A53826   7.389  43.137   7.350
 8586POPC   C1B53827   7.327  43.297   6.450
 8586POPC   C2B53828   7.292  43.302   6.750
 8586POPC   C3B53829   7.277  43.379   7.050
 8586POPC   C4B53830   7.365  43.310   7.350
 8587POPC   NC353831  21.348   6.644   5.550
 8587POPC   PO453832  21.354   6.666   5.850
 8587POPC   GL153833  21.357   6.671   6.150
 8587POPC   GL253834  21.413   6.548   6.150
 8587POPC   C1A53835  21.431   6.606   6.450
 8587POPC   D2A53836  21.337   6.674   6.750
 8587POPC   C3A53837  21.432   6.662   7.050
 8587POPC   C4A53838  21.397   6.694   7.350
 8587POPC   C1B53839  21.436   6.363   6.450
 8587POPC   C2B53840  21.515   6.374   6.750
 8587POPC   C3B53841  21.507   6.391   7.050
 8587POPC   C4B53842  21.451   6.433   7.350
 8588POPC   NC353843  33.751  23.704   5.550
 8588POPC   PO453844  33.822  23.702   5.850
 8588POPC   GL153845  33.758  23.693   6.150
 8588POPC   GL253846  33.909  23.799   6.150
 8588POPC   C1A53847  33.801  23.734   6.450
 8588POPC   D2A53848  33.798  23.683   6.750
 8588POPC   C3A53849  33.838  23.687   7.050
 8588POPC   C4A53850  33.803  23.725   7.350
 8588POPC   C1B53851  33.992  23.805   6.450
 8588POPC   C2B53852  34.025  23.850   6.750
 8588POPC   C3B53853  34.040  23.767   7.050
 8588POPC   C4B53854  34.073  23.821   7.350
 8589POPC   NC353855   8.960  36.948   5.550
 8589POPC   PO453856   8.946  36.940   5.850
 8589POPC   GL153857   9.015  36.884   6.150
 8589POPC   GL253858   9.104  36.814   6.150
 8589POPC   C1A53859   9.005  36.915   6.450
 8589POPC   D2A53860   8.982  36.869   6.750
 8589POPC   C3A53861   8.963  36.921   7.050
 8589POPC   C4A53862   8.994  36.910   7.350
 8589POPC   C1B53863   9.202  36.835   6.450
 8589POPC   C2B53864   9.192  36.837   6.750
 8589POPC   C3B53865   9.225  36.841   7.050
 8589POPC   C4B53866   9.247  36.792   7.350
 8590POPC   NC353867   8.983   1.173   5.550
 8590POPC   PO453868   8.947   1.261   5.850
 8590POPC   GL153869   8.994   1.207   6.150
 8590POPC   GL253870   9.078   1.308   6.150
 8590POPC   C1A53871   9.010   1.190   6.450
 8590POPC   D2A53872   8.974   1.181   6.750
 8590POPC   C3A53873   8.987   1.226   7.050
 8590POPC   C4A53874   9.011   1.184   7.350
 8590POPC   C1B53875   9.153   1.366   6.450
 8590POPC   C2B53876   9.223   1.350   6.750
 8590POPC   C3B53877   9.205   1.397   7.050
 8590POPC   C4B53878   9.212   1.340   7.350
 8591POPC   NC353879  13.584   0.401   5.550
 8591POPC   PO453880  13.613   0.452   5.850
 8591POPC   GL153881  13.667   0.409   6.150
 8591POPC   GL253882  13.565   0.605   6.150
 8591POPC   C1A53883  13.644   0.447   6.450
 8591POPC   D2A53884  13.676   0.485   6.750
 8591POPC   C3A53885  13.664   0.481   7.050
 8591POPC   C4A53886  13.609   0.465   7.350
 8591POPC   C1B53887  13.609   0.707   6.450
 8591POPC   C2B53888  13.617   0.725   6.750
 8591POPC   C3B53889  13.598   0.648   7.050
 8591POPC   C4B53890  13.589   0.649   7.350
 8592POPC   NC353891  33.017   2.022   5.550
 8592POPC   PO453892  33.035   1.990   5.850
 8592POPC   GL153893  33.060   1.986   6.150
 8592POPC   GL253894  32.925   2.004   6.150
 8592POPC   C1A53895  33.036   2.028   6.450
 8592POPC   D2A53896  32.991   1.979   6.750
 8592POPC   C3A53897  32.994   2.003   7.050
 8592POPC   C4A53898  33.043   2.018   7.350
 8592POPC   C1B53899  32.776   1.986   6.450
 8592POPC   C2B53900  32.769   1.948   6.750
 8592POPC   C3B53901  32.737   1.948   7.050
 8592POPC   C4B53902  32.806   1.983   7.350
 8593POPC   NC353903  29.956  21.371   5.550
 8593POPC   PO453904  29.949  21.367   5.850
 8593POPC   GL153905  29.895  21.348   6.150
 8593POPC   GL253906  30.054  21.330   6.150
 8593POPC   C1A53907  29.945  21.336   6.450
 8593POPC   D2A53908  29.943  21.346   6.750
 8593POPC   C3A53909  29.943  21.412   7.050
 8593POPC   C4A53910  29.959  21.384   7.350
 8593POPC   C1B53911  30.132  21.242   6.450
 8593POPC   C2B53912  30.106  21.248   6.750
 8593POPC   C3B53913  30.125  21.329   7.050
 8593POPC   C4B53914  30.136  21.247   7.350
 8594POPC   NC353915   0.470   6.609   5.550
 8594POPC   PO453916   0.402   6.673   5.850
 8594POPC   GL153917   0.435   6.628   6.150
 8594POPC   GL253918   0.390   6.494   6.150
 8594POPC   C1A53919   0.441   6.617   6.450
 8594POPC   D2A53920   0.478   6.667   6.750
 8594POPC   C3A53921   0.418   6.644   7.050
 8594POPC   C4A53922   0.392   6.694   7.350
 8594POPC   C1B53923   0.352   6.443   6.450
 8594POPC   C2B53924   0.409   6.409   6.750
 8594POPC   C3B53925   0.433   6.414   7.050
 8594POPC   C4B53926   0.355   6.396   7.350
 8595POPC   NC353927  11.262  37.692   5.550
 8595POPC   PO453928  11.256  37.665   5.850
 8595POPC   GL153929  11.289  37.631   6.150
 8595POPC   GL253930  11.375  37.747   6.150
 8595POPC   C1A53931  11.266  37.656   6.450
 8595POPC   D2A53932  11.335  37.703   6.750
 8595POPC   C3A53933  11.290  37.661   7.050
 8595POPC   C4A53934  11.328  37.699   7.350
 8595POPC   C1B53935  11.493  37.857   6.450
 8595POPC   C2B53936  11.440  37.894   6.750
 8595POPC   C3B53937  11.520  37.889   7.050
 8595POPC   C4B53938  11.448  37.811   7.350
 8596POPC   NC353939  17.532  19.032   5.550
 8596POPC   PO453940  17.519  19.093   5.850
 8596POPC   GL153941  17.510  19.073   6.150
 8596POPC   GL253942  17.574  18.938   6.150
 8596POPC   C1A53943  17.535  19.100   6.450
 8596POPC   D2A53944  17.531  19.028   6.750
 8596POPC   C3A53945  17.521  19.059   7.050
 8596POPC   C4A53946  17.530  19.031   7.350
 8596POPC   C1B53947  17.685  18.946   6.450
 8596POPC   C2B53948  17.717  18.911   6.750
 8596POPC   C3B53949  17.669  18.917   7.050
 8596POPC   C4B53950  17.730  18.886   7.350
 8597POPC   NC353951   2.732  38.469   5.550
 8597POPC   PO453952   2.784  38.464   5.850
 8597POPC   GL153953   2.739  38.406   6.150
 8597POPC   GL253954   2.651  38.428   6.150
 8597POPC   C1A53955   2.773  38.425   6.450
 8597POPC   D2A53956   2.798  38.453   6.750
 8597POPC   C3A53957   2.765  38.423   7.050
 8597POPC   C4A53958   2.716  38.488   7.350
 8597POPC   C1B53959   2.576  38.310   6.450
 8597POPC   C2B53960   2.589  38.326   6.750
 8597POPC   C3B53961   2.506  38.365   7.050
 8597POPC   C4B53962   2.533  38.314   7.350
 8598POPC   NC353963  12.081  10.567   5.550
 8598POPC   PO453964  12.124  10.492   5.850
 8598POPC   GL153965  12.115  10.552   6.150
 8598POPC   GL253966  12.212  10.482   6.150
 8598POPC   C1A53967  12.121  10.567   6.450
 8598POPC   D2A53968  12.088  10.477   6.750
 8598POPC   C3A53969  12.061  10.492   7.050
 8598POPC   C4A53970  12.067  10.540   7.350
 8598POPC   C1B53971  12.265  10.409   6.450
 8598POPC   C2B53972  12.275  10.422   6.750
 8598POPC   C3B53973  12.259  10.414   7.050
 8598POPC   C4B53974  12.325  10.384   7.350
 8599POPC   NC353975  40.050  20.587   5.550
 8599POPC   PO453976  40.032  20.637   5.850
 8599POPC   GL153977  40.034  20.608   6.150
 8599POPC   GL253978  40.038  20.688   6.150
 8599POPC   C1A53979  40.040  20.590   6.450
 8599POPC   D2A53980  39.977  20.568   6.750
 8599POPC   C3A53981  40.035  20.603   7.050
 8599POPC   C4A53982  39.974  20.608   7.350
 8599POPC   C1B53983  40.174  20.799   6.450
 8599POPC   C2B53984  40.187  20.820   6.750
 8599POPC   C3B53985  40.122  20.780   7.050
 8599POPC   C4B53986  40.179  20.809   7.350
 8600POPC   NC353987   8.981  15.965   5.550
 8600POPC   PO453988   9.017  15.989   5.850
 8600POPC   GL153989   8.972  15.959   6.150
 8600POPC   GL253990   9.085  16.051   6.150
 8600POPC   C1A53991   9.005  15.971   6.450
 8600POPC   D2A53992   8.953  15.910   6.750
 8600POPC   C3A53993   9.010  15.988   7.050
 8600POPC   C4A53994   8.928  15.940   7.350
 8600POPC   C1B53995   9.101  16.151   6.450
 8600POPC   C2B53996   9.063  16.168   6.750
 8600POPC   C3B53997   9.068  16.167   7.050
 8600POPC   C4B53998   9.137  16.120   7.350
 8601POPC   NC353999  29.961   8.988   5.550
 8601POPC   PO454000  29.873   8.940   5.850
 8601POPC   GL154001  29.901   9.010   6.150
 8601POPC   GL254002  29.906   8.853   6.150
 8601POPC   C1A54003  29.916   8.946   6.450
 8601POPC   D2A54004  29.911   9.016   6.750
 8601POPC   C3A54005  29.958   8.935   7.050
 8601POPC   C4A54006  29.895   8.948   7.350
 8601POPC   C1B54007  30.016   8.727   6.450
 8601POPC   C2B54008  30.021   8.757   6.750
 8601POPC   C3B54009  29.960   8.683   7.050
 8601POPC   C4B54010  29.957   8.698   7.350
 8602POPC   NC354011  10.513  14.412   5.550
 8602POPC   PO454012  10.539  14.378   5.850
 8602POPC   GL154013  10.538  14.404   6.150
 8602POPC   GL254014  10.548  14.310   6.150
 8602POPC   C1A54015  10.476  14.447   6.450
 8602POPC   D2A54016  10.490  14.385   6.750
 8602POPC   C3A54017  10.483  14.356   7.050
 8602POPC   C4A54018  10.513  14.362   7.350
 8602POPC   C1B54019  10.503  14.140   6.450
 8602POPC   C2B54020  10.466  14.114   6.750
 8602POPC   C3B54021  10.475  14.133   7.050
 8602POPC   C4B54022  10.464  14.122   7.350
 8603POPC   NC354023  36.919  29.913   5.550
 8603POPC   PO454024  36.893  29.923   5.850
 8603POPC   GL154025  36.859  29.881   6.150
 8603POPC   GL254026  36.947  30.018   6.150
 8603POPC   C1A54027  36.909  29.871   6.450
 8603POPC   D2A54028  36.933  29.920   6.750
 8603POPC   C3A54029  36.883  29.876   7.050
 8603POPC   C4A54030  36.922  29.882   7.350
 8603POPC   C1B54031  36.996  30.114   6.450
 8603POPC   C2B54032  37.037  30.125   6.750
 8603POPC   C3B54033  36.993  30.177   7.050
 8603POPC   C4B54034  37.020  30.125   7.350
 8604POPC   NC354035  34.555  38.444   5.550
 8604POPC   PO454036  34.550  38.420   5.850
 8604POPC   GL154037  34.589  38.467   6.150
 8604POPC   GL254038  34.703  38.573   6.150
 8604POPC   C1A54039  34.621  38.489   6.450
 8604POPC   D2A54040  34.596  38.496   6.750
 8604POPC   C3A54041  34.572  38.503   7.050
 8604POPC   C4A54042  34.534  38.409   7.350
 8604POPC   C1B54043  34.773  38.640   6.450
 8604POPC   C2B54044  34.726  38.616   6.750
 8604POPC   C3B54045  34.756  38.631   7.050
 8604POPC   C4B54046  34.782  38.662   7.350
 8605POPC   NC354047  26.086  24.474   5.550
 8605POPC   PO454048  26.000  24.514   5.850
 8605POPC   GL154049  26.077  24.490   6.150
 8605POPC   GL254050  25.897  24.471   6.150
 8605POPC   C1A54051  25.995  24.474   6.450
 8605POPC   D2A54052  26.059  24.457   6.750
 8605POPC   C3A54053  26.083  24.443   7.050
 8605POPC   C4A54054  26.075  24.503   7.350
 8605POPC   C1B54055  25.862  24.409   6.450
 8605POPC   C2B54056  25.826  24.326   6.750
 8605POPC   C3B54057  25.842  24.395   7.050
 8605POPC   C4B54058  25.792  24.381   7.350
 8606POPC   NC354059  32.205   1.169   5.550
 8606POPC   PO454060  32.231   1.185   5.850
 8606POPC   GL154061  32.209   1.224   6.150
 8606POPC   GL254062  32.246   1.340   6.150
 8606POPC   C1A54063  32.213   1.188   6.450
 8606POPC   D2A54064  32.237   1.233   6.750
 8606POPC   C3A54065  32.245   1.248   7.050
 8606POPC   C4A54066  32.205   1.223   7.350
 8606POPC   C1B54067  32.274   1.499   6.450
 8606POPC   C2B54068  32.218   1.502   6.750
 8606POPC   C3B54069  32.292   1.443   7.050
 8606POPC   C4B54070  32.279   1.511   7.350
 8607POPC   NC354071  26.799  30.650   5.550
 8607POPC   PO454072  26.783  30.743   5.850
 8607POPC   GL154073  26.821  30.703   6.150
 8607POPC   GL254074  26.877  30.798   6.150
 8607POPC   C1A54075  26.797  30.686   6.450
 8607POPC   D2A54076  26.835  30.738   6.750
 8607POPC   C3A54077  26.867  30.727   7.050
 8607POPC   C4A54078  26.858  30.716   7.350
 8607POPC   C1B54079  26.933  30.927   6.450
 8607POPC   C2B54080  26.893  30.959   6.750
 8607POPC   C3B54081  26.942  30.950   7.050
 8607POPC   C4B54082  26.883  30.910   7.350
 8608POPC   NC354083  41.606   8.934   5.550
 8608POPC   PO454084  41.529   9.012   5.850
 8608POPC   GL154085  41.516   9.009   6.150
 8608POPC   GL254086  41.400   9.001   6.150
 8608POPC   C1A54087  41.603   8.925   6.450
 8608POPC   D2A54088  41.545   8.948   6.750
 8608POPC   C3A54089  41.598   9.002   7.050
 8608POPC   C4A54090  41.557   8.951   7.350
 8608POPC   C1B54091  41.338   9.096   6.450
 8608POPC   C2B54092  41.386   9.091   6.750
 8608POPC   C3B54093  41.338   9.047   7.050
 8608POPC   C4B54094  41.362   9.055   7.350
 8609POPC   NC354095  18.272  11.303   5.550
 8609POPC   PO454096  18.276  11.326   5.850
 8609POPC   GL154097  18.290  11.263   6.150
 8609POPC   GL254098  18.149  11.348   6.150
 8609POPC   C1A54099  18.262  11.291   6.450
 8609POPC   D2A54100  18.272  11.345   6.750
 8609POPC   C3A54101  18.328  11.323   7.050
 8609POPC   C4A54102  18.292  11.344   7.350
 8609POPC   C1B54103  18.001  11.317   6.450
 8609POPC   C2B54104  18.036  11.317   6.750
 8609POPC   C3B54105  18.042  11.271   7.050
 8609POPC   C4B54106  18.029  11.266   7.350
 8610POPC   NC354107   5.876  41.542   5.550
 8610POPC   PO454108   5.870  41.535   5.850
 8610POPC   GL154109   5.849  41.526   6.150
 8610POPC   GL254110   5.965  41.496   6.150
 8610POPC   C1A54111   5.829  41.597   6.450
 8610POPC   D2A54112   5.885  41.600   6.750
 8610POPC   C3A54113   5.837  41.573   7.050
 8610POPC   C4A54114   5.885  41.577   7.350
 8610POPC   C1B54115   6.092  41.422   6.450
 8610POPC   C2B54116   6.112  41.435   6.750
 8610POPC   C3B54117   6.053  41.441   7.050
 8610POPC   C4B54118   6.134  41.407   7.350
 8611POPC   NC354119  29.117  22.923   5.550
 8611POPC   PO454120  29.135  22.931   5.850
 8611POPC   GL154121  29.177  22.912   6.150
 8611POPC   GL254122  29.300  22.903   6.150
 8611POPC   C1A54123  29.098  22.928   6.450
 8611POPC   D2A54124  29.141  22.948   6.750
 8611POPC   C3A54125  29.161  22.978   7.050
 8611POPC   C4A54126  29.145  22.931   7.350
 8611POPC   C1B54127  29.373  22.927   6.450
 8611POPC   C2B54128  29.404  22.922   6.750
 8611POPC   C3B54129  29.394  22.955   7.050
 8611POPC   C4B54130  29.366  22.973   7.350
 8612POPC   NC354131  12.811  33.051   5.550
 8612POPC   PO454132  12.819  32.983   5.850
 8612POPC   GL154133  12.879  32.987   6.150
 8612POPC   GL254134  12.932  32.967   6.150
 8612POPC   C1A54135  12.839  33.022   6.450
 8612POPC   D2A54136  12.823  32.999   6.750
 8612POPC   C3A54137  12.804  32.996   7.050
 8612POPC   C4A54138  12.884  33.032   7.350
 8612POPC   C1B54139  13.077  32.964   6.450
 8612POPC   C2B54140  13.106  32.921   6.750
 8612POPC   C3B54141  13.066  32.948   7.050
 8612POPC   C4B54142  13.068  32.937   7.350
 8613POPC   NC354143  19.785   1.171   5.550
 8613POPC   PO454144  19.860   1.241   5.850
 8613POPC   GL154145  19.812   1.183   6.150
 8613POPC   GL254146  19.763   1.067   6.150
 8613POPC   C1A54147  19.883   1.220   6.450
 8613POPC   D2A54148  19.869   1.208   6.750
 8613POPC   C3A54149  19.841   1.263   7.050
 8613POPC   C4A54150  19.869   1.192   7.350
 8613POPC   C1B54151  19.722   0.985   6.450
 8613POPC   C2B54152  19.697   1.005   6.750
 8613POPC   C3B54153  19.692   0.968   7.050
 8613POPC   C4B54154  19.706   0.992   7.350
 8614POPC   NC354155  43.871  38.471   5.550
 8614POPC   PO454156  43.915  38.489   5.850
 8614POPC   GL154157  43.879  38.497   6.150
 8614POPC   GL254158  43.991  38.430   6.150
 8614POPC   C1A54159  43.865  38.485   6.450
 8614POPC   D2A54160  43.849  38.453   6.750
 8614POPC   C3A54161  43.887  38.408   7.050
 8614POPC   C4A54162  43.862  38.494   7.350
 8614POPC   C1B54163  44.170  38.405   6.450
 8614POPC   C2B54164  44.090  38.460   6.750
 8614POPC   C3B54165  44.148  38.457   7.050
 8614POPC   C4B54166  44.141  38.408   7.350
 8615POPC   NC354167  35.375   3.583   5.550
 8615POPC   PO454168  35.323   3.513   5.850
 8615POPC   GL154169  35.389   3.566   6.150
 8615POPC   GL254170  35.248   3.685   6.150
 8615POPC   C1A54171  35.313   3.501   6.450
 8615POPC   D2A54172  35.304   3.587   6.750
 8615POPC   C3A54173  35.341   3.531   7.050
 8615POPC   C4A54174  35.359   3.565   7.350
 8615POPC   C1B54175  35.237   3.755   6.450
 8615POPC   C2B54176  35.221   3.740   6.750
 8615POPC   C3B54177  35.245   3.752   7.050
 8615POPC   C4B54178  35.239   3.752   7.350
 8616POPC   NC354179  22.156  35.303   5.550
 8616POPC   PO454180  22.115  35.380   5.850
 8616POPC   GL154181  22.136  35.330   6.150
 8616POPC   GL254182  22.034  35.284   6.150
 8616POPC   C1A54183  22.197  35.325   6.450
 8616POPC   D2A54184  22.139  35.328   6.750
 8616POPC   C3A54185  22.160  35.341   7.050
 8616POPC   C4A54186  22.193  35.394   7.350
 8616POPC   C1B54187  22.029  35.166   6.450
 8616POPC   C2B54188  21.991  35.199   6.750
 8616POPC   C3B54189  21.987  35.163   7.050
 8616POPC   C4B54190  21.953  35.186   7.350
 8617POPC   NC354191   0.460   9.780   5.550
 8617POPC   PO454192   0.400   9.711   5.850
 8617POPC   GL154193   0.457   9.757   6.150
 8617POPC   GL254194   0.346   9.783   6.150
 8617POPC   C1A54195   0.462   9.796   6.450
 8617POPC   D2A54196   0.407   9.719   6.750
 8617POPC   C3A54197   0.417   9.780   7.050
 8617POPC   C4A54198   0.448   9.760   7.350
 8617POPC   C1B54199   0.216   9.846   6.450
 8617POPC   C2B54200   0.211   9.857   6.750
 8617POPC   C3B54201   0.244   9.816   7.050
 8617POPC   C4B54202   0.259   9.893   7.350
 8618POPC   NC354203  32.255  44.686   5.550
 8618POPC   PO454204  32.276  44.614   5.850
 8618POPC   GL154205  32.297  44.650   6.150
 8618POPC   GL254206  32.365  44.663   6.150
 8618POPC   C1A54207  32.222  44.630   6.450
 8618POPC   D2A54208  32.291  44.634   6.750
 8618POPC   C3A54209  32.210  44.683   7.050
 8618POPC   C4A54210  32.259  44.666   7.350
 8618POPC   C1B54211  32.472  44.598   6.450
 8618POPC   C2B54212  32.458  44.601   6.750
 8618POPC   C3B54213  32.487  44.551   7.050
 8618POPC   C4B54214  32.476  44.589   7.350
 8619POPC   NC354215  43.074  19.096   5.550
 8619POPC   PO454216  43.095  19.068   5.850
 8619POPC   GL154217  43.120  19.088   6.150
 8619POPC   GL254218  43.192  19.057   6.150
 8619POPC   C1A54219  43.111  19.023   6.450
 8619POPC   D2A54220  43.071  19.021   6.750
 8619POPC   C3A54221  43.093  19.060   7.050
 8619POPC   C4A54222  43.150  19.092   7.350
 8619POPC   C1B54223  43.390  19.108   6.450
 8619POPC   C2B54224  43.314  19.114   6.750
 8619POPC   C3B54225  43.389  19.159   7.050
 8619POPC   C4B54226  43.402  19.103   7.350
 8620POPC   NC354227   3.492   5.059   5.550
 8620POPC   PO454228   3.533   5.139   5.850
 8620POPC   GL154229   3.575   5.126   6.150
 8620POPC   GL254230   3.683   5.108   6.150
 8620POPC   C1A54231   3.547   5.074   6.450
 8620POPC   D2A54232   3.551   5.089   6.750
 8620POPC   C3A54233   3.566   5.107   7.050
 8620POPC   C4A54234   3.528   5.065   7.350
 8620POPC   C1B54235   3.768   5.209   6.450
 8620POPC   C2B54236   3.803   5.216   6.750
 8620POPC   C3B54237   3.752   5.207   7.050
 8620POPC   C4B54238   3.745   5.183   7.350
 8621POPC   NC354239  43.875  21.381   5.550
 8621POPC   PO454240  43.840  21.381   5.850
 8621POPC   GL154241  43.877  21.388   6.150
 8621POPC   GL254242  43.971  21.431   6.150
 8621POPC   C1A54243  43.885  21.381   6.450
 8621POPC   D2A54244  43.867  21.367   6.750
 8621POPC   C3A54245  43.850  21.340   7.050
 8621POPC   C4A54246  43.877  21.429   7.350
 8621POPC   C1B54247  44.101  21.566   6.450
 8621POPC   C2B54248  44.073  21.565   6.750
 8621POPC   C3B54249  44.024  21.595   7.050
 8621POPC   C4B54250  44.085  21.606   7.350
 8622POPC   NC354251  36.140  19.057   5.550
 8622POPC   PO454252  36.166  19.031   5.850
 8622POPC   GL154253  36.173  19.034   6.150
 8622POPC   GL254254  36.299  19.052   6.150
 8622POPC   C1A54255  36.128  19.075   6.450
 8622POPC   D2A54256  36.117  19.059   6.750
 8622POPC   C3A54257  36.161  19.047   7.050
 8622POPC   C4A54258  36.118  19.050   7.350
 8622POPC   C1B54259  36.383  19.026   6.450
 8622POPC   C2B54260  36.324  19.005   6.750
 8622POPC   C3B54261  36.338  19.036   7.050
 8622POPC   C4B54262  36.409  19.014   7.350
 8623POPC   NC354263  15.225   1.251   5.550
 8623POPC   PO454264  15.165   1.194   5.850
 8623POPC   GL154265  15.214   1.263   6.150
 8623POPC   GL254266  15.180   1.368   6.150
 8623POPC   C1A54267  15.198   1.165   6.450
 8623POPC   D2A54268  15.184   1.204   6.750
 8623POPC   C3A54269  15.221   1.254   7.050
 8623POPC   C4A54270  15.224   1.182   7.350
 8623POPC   C1B54271  15.255   1.492   6.450
 8623POPC   C2B54272  15.273   1.484   6.750
 8623POPC   C3B54273  15.302   1.467   7.050
 8623POPC   C4B54274  15.237   1.420   7.350
 8624POPC   NC354275  26.016   0.450   5.550
 8624POPC   PO454276  26.041   0.462   5.850
 8624POPC   GL154277  26.063   0.458   6.150
 8624POPC   GL254278  26.154   0.423   6.150
 8624POPC   C1A54279  26.003   0.431   6.450
 8624POPC   D2A54280  26.044   0.451   6.750
 8624POPC   C3A54281  26.024   0.474   7.050
 8624POPC   C4A54282  26.058   0.403   7.350
 8624POPC   C1B54283  26.287   0.529   6.450
 8624POPC   C2B54284  26.248   0.534   6.750
 8624POPC   C3B54285  26.268   0.492   7.050
 8624POPC   C4B54286  26.302   0.503   7.350
 8625POPC   NC354287   3.587  33.001   5.550
 8625POPC   PO454288   3.581  33.066   5.850
 8625POPC   GL154289   3.537  32.976   6.150
 8625POPC   GL254290   3.625  33.119   6.150
 8625POPC   C1A54291   3.526  32.985   6.450
 8625POPC   D2A54292   3.577  33.061   6.750
 8625POPC   C3A54293   3.521  33.019   7.050
 8625POPC   C4A54294   3.532  33.050   7.350
 8625POPC   C1B54295   3.718  33.193   6.450
 8625POPC   C2B54296   3.719  33.199   6.750
 8625POPC   C3B54297   3.747  33.203   7.050
 8625POPC   C4B54298   3.743  33.197   7.350
 8626POPC   NC354299  25.255   0.479   5.550
 8626POPC   PO454300  25.253   0.468   5.850
 8626POPC   GL154301  25.265   0.480   6.150
 8626POPC   GL254302  25.213   0.342   6.150
 8626POPC   C1A54303  25.258   0.416   6.450
 8626POPC   D2A54304  25.246   0.415   6.750
 8626POPC   C3A54305  25.248   0.451   7.050
 8626POPC   C4A54306  25.227   0.411   7.350
 8626POPC   C1B54307  25.130   0.271   6.450
 8626POPC   C2B54308  25.175   0.214   6.750
 8626POPC   C3B54309  25.139   0.212   7.050
 8626POPC   C4B54310  25.133   0.224   7.350
 8627POPC   NC354311   5.850  33.777   5.550
 8627POPC   PO454312   5.866  33.819   5.850
 8627POPC   GL154313   5.845  33.839   6.150
 8627POPC   GL254314   5.937  33.826   6.150
 8627POPC   C1A54315   5.911  33.812   6.450
 8627POPC   D2A54316   5.860  33.834   6.750
 8627POPC   C3A54317   5.846  33.805   7.050
 8627POPC   C4A54318   5.837  33.835   7.350
 8627POPC   C1B54319   6.118  33.835   6.450
 8627POPC   C2B54320   6.117  33.891   6.750
 8627POPC   C3B54321   6.079  33.898   7.050
 8627POPC   C4B54322   6.059  33.927   7.350
 8628POPC   NC354323   1.972  34.590   5.550
 8628POPC   PO454324   1.967  34.603   5.850
 8628POPC   GL154325   1.955  34.623   6.150
 8628POPC   GL254326   1.974  34.712   6.150
 8628POPC   C1A54327   2.010  34.593   6.450
 8628POPC   D2A54328   1.995  34.532   6.750
 8628POPC   C3A54329   1.960  34.588   7.050
 8628POPC   C4A54330   2.035  34.537   7.350
 8628POPC   C1B54331   1.952  34.827   6.450
 8628POPC   C2B54332   1.875  34.771   6.750
 8628POPC   C3B54333   1.857  34.828   7.050
 8628POPC   C4B54334   1.854  34.835   7.350
 8629POPC   NC354335  11.276  24.522   5.550
 8629POPC   PO454336  11.268  24.524   5.850
 8629POPC   GL154337  11.330  24.468   6.150
 8629POPC   GL254338  11.228  24.584   6.150
 8629POPC   C1A54339  11.297  24.519   6.450
 8629POPC   D2A54340  11.336  24.494   6.750
 8629POPC   C3A54341  11.340  24.489   7.050
 8629POPC   C4A54342  11.252  24.532   7.350
 8629POPC   C1B54343  11.083  24.628   6.450
 8629POPC   C2B54344  11.114  24.656   6.750
 8629POPC   C3B54345  11.081  24.679   7.050
 8629POPC   C4B54346  11.145  24.666   7.350
 8630POPC   NC354347   5.845  17.458   5.550
 8630POPC   PO454348   5.833  17.529   5.850
 8630POPC   GL154349   5.839  17.458   6.150
 8630POPC   GL254350   5.741  17.504   6.150
 8630POPC   C1A54351   5.821  17.514   6.450
 8630POPC   D2A54352   5.854  17.541   6.750
 8630POPC   C3A54353   5.834  17.515   7.050
 8630POPC   C4A54354   5.866  17.469   7.350
 8630POPC   C1B54355   5.617  17.473   6.450
 8630POPC   C2B54356   5.650  17.472   6.750
 8630POPC   C3B54357   5.634  17.472   7.050
 8630POPC   C4B54358   5.668  17.395   7.350
 8631POPC   NC354359  18.285  26.085   5.550
 8631POPC   PO454360  18.289  26.089   5.850
 8631POPC   GL154361  18.264  26.064   6.150
 8631POPC   GL254362  18.451  26.020   6.150
 8631POPC   C1A54363  18.274  26.038   6.450
 8631POPC   D2A54364  18.300  26.041   6.750
 8631POPC   C3A54365  18.312  26.086   7.050
 8631POPC   C4A54366  18.247  26.041   7.350
 8631POPC   C1B54367  18.572  25.976   6.450
 8631POPC   C2B54368  18.534  26.008   6.750
 8631POPC   C3B54369  18.480  25.949   7.050
 8631POPC   C4B54370  18.501  25.997   7.350
 8632POPC   NC354371   2.029  42.368   5.550
 8632POPC   PO454372   1.975  42.365   5.850
 8632POPC   GL154373   2.038  42.297   6.150
 8632POPC   GL254374   2.054  42.183   6.150
 8632POPC   C1A54375   2.003  42.331   6.450
 8632POPC   D2A54376   2.038  42.384   6.750
 8632POPC   C3A54377   1.978  42.377   7.050
 8632POPC   C4A54378   2.009  42.317   7.350
 8632POPC   C1B54379   2.034  42.104   6.450
 8632POPC   C2B54380   2.082  42.101   6.750
 8632POPC   C3B54381   2.048  42.082   7.050
 8632POPC   C4B54382   2.000  42.065   7.350
 8633POPC   NC354383   8.930  40.738   5.550
 8633POPC   PO454384   8.996  40.804   5.850
 8633POPC   GL154385   8.948  40.810   6.150
 8633POPC   GL254386   9.045  40.748   6.150
 8633POPC   C1A54387   9.010  40.816   6.450
 8633POPC   D2A54388   9.016  40.749   6.750
 8633POPC   C3A54389   8.989  40.781   7.050
 8633POPC   C4A54390   8.923  40.774   7.350
 8633POPC   C1B54391   9.132  40.590   6.450
 8633POPC   C2B54392   9.182  40.571   6.750
 8633POPC   C3B54393   9.174  40.593   7.050
 8633POPC   C4B54394   9.117  40.601   7.350
 8634POPC   NC354395  12.072  24.450   5.550
 8634POPC   PO454396  12.125  24.536   5.850
 8634POPC   GL154397  12.119  24.490   6.150
 8634POPC   GL254398  11.945  24.458   6.150
 8634POPC   C1A54399  12.037  24.524   6.450
 8634POPC   D2A54400  12.106  24.525   6.750
 8634POPC   C3A54401  12.036  24.481   7.050
 8634POPC   C4A54402  12.045  24.514   7.350
 8634POPC   C1B54403  11.870  24.477   6.450
 8634POPC   C2B54404  11.802  24.470   6.750
 8634POPC   C3B54405  11.844  24.476   7.050
 8634POPC   C4B54406  11.844  24.464   7.350
 8635POPC   NC354407  34.593  31.449   5.550
 8635POPC   PO454408  34.545  31.471   5.850
 8635POPC   GL154409  34.588  31.505   6.150
 8635POPC   GL254410  34.649  31.369   6.150
 8635POPC   C1A54411  34.571  31.462   6.450
 8635POPC   D2A54412  34.558  31.499   6.750
 8635POPC   C3A54413  34.605  31.464   7.050
 8635POPC   C4A54414  34.590  31.495   7.350
 8635POPC   C1B54415  34.681  31.260   6.450
 8635POPC   C2B54416  34.639  31.233   6.750
 8635POPC   C3B54417  34.651  31.274   7.050
 8635POPC   C4B54418  34.643  31.249   7.350
 8636POPC   NC354419  28.411  37.717   5.550
 8636POPC   PO454420  28.398  37.708   5.850
 8636POPC   GL154421  28.329  37.670   6.150
 8636POPC   GL254422  28.246  37.723   6.150
 8636POPC   C1A54423  28.394  37.726   6.450
 8636POPC   D2A54424  28.330  37.716   6.750
 8636POPC   C3A54425  28.335  37.672   7.050
 8636POPC   C4A54426  28.387  37.641   7.350
 8636POPC   C1B54427  28.115  37.796   6.450
 8636POPC   C2B54428  28.160  37.764   6.750
 8636POPC   C3B54429  28.182  37.761   7.050
 8636POPC   C4B54430  28.189  37.771   7.350
 8637POPC   NC354431  34.625  19.049   5.550
 8637POPC   PO454432  34.533  19.010   5.850
 8637POPC   GL154433  34.535  19.014   6.150
 8637POPC   GL254434  34.494  18.984   6.150
 8637POPC   C1A54435  34.606  19.060   6.450
 8637POPC   D2A54436  34.557  19.016   6.750
 8637POPC   C3A54437  34.609  19.024   7.050
 8637POPC   C4A54438  34.616  19.097   7.350
 8637POPC   C1B54439  34.442  18.880   6.450
 8637POPC   C2B54440  34.371  18.895   6.750
 8637POPC   C3B54441  34.415  18.920   7.050
 8637POPC   C4B54442  34.458  18.857   7.350
 8638POPC   NC354443  19.084  39.199   5.550
 8638POPC   PO454444  19.090  39.254   5.850
 8638POPC   GL154445  19.034  39.184   6.150
 8638POPC   GL254446  19.121  39.341   6.150
 8638POPC   C1A54447  19.010  39.237   6.450
 8638POPC   D2A54448  19.100  39.184   6.750
 8638POPC   C3A54449  19.040  39.245   7.050
 8638POPC   C4A54450  19.062  39.238   7.350
 8638POPC   C1B54451  19.153  39.484   6.450
 8638POPC   C2B54452  19.194  39.484   6.750
 8638POPC   C3B54453  19.209  39.460   7.050
 8638POPC   C4B54454  19.175  39.425   7.350
 8639POPC   NC354455  39.231   8.926   5.550
 8639POPC   PO454456  39.234   9.009   5.850
 8639POPC   GL154457  39.231   8.990   6.150
 8639POPC   GL254458  39.277   8.901   6.150
 8639POPC   C1A54459  39.193   8.977   6.450
 8639POPC   D2A54460  39.260   9.011   6.750
 8639POPC   C3A54461  39.210   8.950   7.050
 8639POPC   C4A54462  39.243   8.942   7.350
 8639POPC   C1B54463  39.377   8.788   6.450
 8639POPC   C2B54464  39.363   8.800   6.750
 8639POPC   C3B54465  39.378   8.738   7.050
 8639POPC   C4B54466  39.383   8.804   7.350
 8640POPC   NC354467   7.443  17.524   5.550
 8640POPC   PO454468   7.392  17.498   5.850
 8640POPC   GL154469   7.424  17.532   6.150
 8640POPC   GL254470   7.513  17.459   6.150
 8640POPC   C1A54471   7.380  17.532   6.450
 8640POPC   D2A54472   7.469  17.523   6.750
 8640POPC   C3A54473   7.376  17.549   7.050
 8640POPC   C4A54474   7.381  17.498   7.350
 8640POPC   C1B54475   7.657  17.452   6.450
 8640POPC   C2B54476   7.656  17.444   6.750
 8640POPC   C3B54477   7.638  17.445   7.050
 8640POPC   C4B54478   7.610  17.396   7.350
 8641POPC   NC354479  22.978   2.013   5.550
 8641POPC   PO454480  22.917   2.037   5.850
 8641POPC   GL154481  22.938   1.968   6.150
 8641POPC   GL254482  22.838   2.073   6.150
 8641POPC   C1A54483  22.955   2.001   6.450
 8641POPC   D2A54484  22.897   1.982   6.750
 8641POPC   C3A54485  22.920   1.984   7.050
 8641POPC   C4A54486  22.900   1.956   7.350
 8641POPC   C1B54487  22.759   2.153   6.450
 8641POPC   C2B54488  22.795   2.166   6.750
 8641POPC   C3B54489  22.792   2.177   7.050
 8641POPC   C4B54490  22.846   2.193   7.350
 8642POPC   NC354491  42.319  19.011   5.550
 8642POPC   PO454492  42.378  19.059   5.850
 8642POPC   GL154493  42.310  19.098   6.150
 8642POPC   GL254494  42.283  18.910   6.150
 8642POPC   C1A54495  42.375  19.061   6.450
 8642POPC   D2A54496  42.306  19.097   6.750
 8642POPC   C3A54497  42.285  19.093   7.050
 8642POPC   C4A54498  42.341  19.099   7.350
 8642POPC   C1B54499  42.281  18.851   6.450
 8642POPC   C2B54500  42.337  18.814   6.750
 8642POPC   C3B54501  42.311  18.847   7.050
 8642POPC   C4B54502  42.365  18.851   7.350
 8643POPC   NC354503  14.452  21.374   5.550
 8643POPC   PO454504  14.409  21.411   5.850
 8643POPC   GL154505  14.378  21.390   6.150
 8643POPC   GL254506  14.314  21.296   6.150
 8643POPC   C1A54507  14.372  21.398   6.450
 8643POPC   D2A54508  14.392  21.375   6.750
 8643POPC   C3A54509  14.361  21.420   7.050
 8643POPC   C4A54510  14.393  21.337   7.350
 8643POPC   C1B54511  14.188  21.174   6.450
 8643POPC   C2B54512  14.241  21.232   6.750
 8643POPC   C3B54513  14.222  21.223   7.050
 8643POPC   C4B54514  14.241  21.210   7.350
 8644POPC   NC354515  31.444  38.485   5.550
 8644POPC   PO454516  31.446  38.440   5.850
 8644POPC   GL154517  31.491  38.467   6.150
 8644POPC   GL254518  31.635  38.407   6.150
 8644POPC   C1A54519  31.472  38.440   6.450
 8644POPC   D2A54520  31.465  38.488   6.750
 8644POPC   C3A54521  31.466  38.406   7.050
 8644POPC   C4A54522  31.452  38.498   7.350
 8644POPC   C1B54523  31.667  38.388   6.450
 8644POPC   C2B54524  31.705  38.417   6.750
 8644POPC   C3B54525  31.685  38.413   7.050
 8644POPC   C4B54526  31.721  38.406   7.350
 8645POPC   NC354527  28.411  15.141   5.550
 8645POPC   PO454528  28.345  15.154   5.850
 8645POPC   GL154529  28.341  15.158   6.150
 8645POPC   GL254530  28.450  15.062   6.150
 8645POPC   C1A54531  28.381  15.164   6.450
 8645POPC   D2A54532  28.374  15.138   6.750
 8645POPC   C3A54533  28.329  15.155   7.050
 8645POPC   C4A54534  28.413  15.216   7.350
 8645POPC   C1B54535  28.450  14.954   6.450
 8645POPC   C2B54536  28.398  14.975   6.750
 8645POPC   C3B54537  28.473  14.902   7.050
 8645POPC   C4B54538  28.437  14.952   7.350
 8646POPC   NC354539  40.814   3.527   5.550
 8646POPC   PO454540  40.766   3.591   5.850
 8646POPC   GL154541  40.810   3.590   6.150
 8646POPC   GL254542  40.849   3.669   6.150
 8646POPC   C1A54543  40.799   3.520   6.450
 8646POPC   D2A54544  40.739   3.559   6.750
 8646POPC   C3A54545  40.785   3.583   7.050
 8646POPC   C4A54546  40.752   3.512   7.350
 8646POPC   C1B54547  40.891   3.768   6.450
 8646POPC   C2B54548  40.897   3.761   6.750
 8646POPC   C3B54549  40.886   3.801   7.050
 8646POPC   C4B54550  40.883   3.727   7.350
 8647POPC   NC354551  15.180  23.666   5.550
 8647POPC   PO454552  15.190  23.728   5.850
 8647POPC   GL154553  15.159  23.703   6.150
 8647POPC   GL254554  15.277  23.745   6.150
 8647POPC   C1A54555  15.186  23.752   6.450
 8647POPC   D2A54556  15.135  23.759   6.750
 8647POPC   C3A54557  15.160  23.720   7.050
 8647POPC   C4A54558  15.147  23.713   7.350
 8647POPC   C1B54559  15.413  23.767   6.450
 8647POPC   C2B54560  15.427  23.767   6.750
 8647POPC   C3B54561  15.358  23.861   7.050
 8647POPC   C4B54562  15.407  23.777   7.350
 8648POPC   NC354563  30.658  38.461   5.550
 8648POPC   PO454564  30.654  38.423   5.850
 8648POPC   GL154565  30.693  38.456   6.150
 8648POPC   GL254566  30.654  38.328   6.150
 8648POPC   C1A54567  30.719  38.448   6.450
 8648POPC   D2A54568  30.704  38.474   6.750
 8648POPC   C3A54569  30.687  38.488   7.050
 8648POPC   C4A54570  30.679  38.470   7.350
 8648POPC   C1B54571  30.576  38.264   6.450
 8648POPC   C2B54572  30.543  38.294   6.750
 8648POPC   C3B54573  30.541  38.266   7.050
 8648POPC   C4B54574  30.531  38.246   7.350
 8649POPC   NC354575  21.340  44.634   5.550
 8649POPC   PO454576  21.408  44.618   5.850
 8649POPC   GL154577  21.433  44.649   6.150
 8649POPC   GL254578  21.453  44.747   6.150
 8649POPC   C1A54579  21.346  44.659   6.450
 8649POPC   D2A54580  21.373  44.645   6.750
 8649POPC   C3A54581  21.417  44.614   7.050
 8649POPC   C4A54582  21.342  44.619   7.350
 8649POPC   C1B54583  21.632  44.821   6.450
 8649POPC   C2B54584  21.551  44.828   6.750
 8649POPC   C3B54585  21.592  44.789   7.050
 8649POPC   C4B54586  21.556  44.829   7.350
 8650POPC   NC354587   9.768  35.307   5.550
 8650POPC   PO454588   9.789  35.374   5.850
 8650POPC   GL154589   9.781  35.395   6.150
 8650POPC   GL254590   9.914  35.407   6.150
 8650POPC   C1A54591   9.754  35.316   6.450
 8650POPC   D2A54592   9.746  35.328   6.750
 8650POPC   C3A54593   9.759  35.393   7.050
 8650POPC   C4A54594   9.778  35.308   7.350
 8650POPC   C1B54595   9.999  35.424   6.450
 8650POPC   C2B54596  10.016  35.384   6.750
 8650POPC   C3B54597  10.015  35.426   7.050
 8650POPC   C4B54598  10.018  35.402   7.350
 8651POPC   NC354599  11.315  38.452   5.550
 8651POPC   PO454600  11.342  38.491   5.850
 8651POPC   GL154601  11.324  38.437   6.150
 8651POPC   GL254602  11.251  38.520   6.150
 8651POPC   C1A54603  11.295  38.498   6.450
 8651POPC   D2A54604  11.323  38.454   6.750
 8651POPC   C3A54605  11.257  38.468   7.050
 8651POPC   C4A54606  11.265  38.451   7.350
 8651POPC   C1B54607  11.124  38.641   6.450
 8651POPC   C2B54608  11.193  38.656   6.750
 8651POPC   C3B54609  11.130  38.644   7.050
 8651POPC   C4B54610  11.185  38.701   7.350
 8652POPC   NC354611  12.105  12.837   5.550
 8652POPC   PO454612  12.080  12.850   5.850
 8652POPC   GL154613  12.103  12.877   6.150
 8652POPC   GL254614  11.994  12.937   6.150
 8652POPC   C1A54615  12.064  12.887   6.450
 8652POPC   D2A54616  12.115  12.889   6.750
 8652POPC   C3A54617  12.100  12.845   7.050
 8652POPC   C4A54618  12.102  12.863   7.350
 8652POPC   C1B54619  11.974  13.054   6.450
 8652POPC   C2B54620  11.946  13.065   6.750
 8652POPC   C3B54621  11.928  13.119   7.050
 8652POPC   C4B54622  11.924  13.059   7.350
 8653POPC   NC354623   6.694  34.596   5.550
 8653POPC   PO454624   6.674  34.560   5.850
 8653POPC   GL154625   6.681  34.609   6.150
 8653POPC   GL254626   6.527  34.538   6.150
 8653POPC   C1A54627   6.646  34.561   6.450
 8653POPC   D2A54628   6.660  34.535   6.750
 8653POPC   C3A54629   6.619  34.527   7.050
 8653POPC   C4A54630   6.659  34.611   7.350
 8653POPC   C1B54631   6.434  34.478   6.450
 8653POPC   C2B54632   6.392  34.477   6.750
 8653POPC   C3B54633   6.429  34.484   7.050
 8653POPC   C4B54634   6.410  34.425   7.350
 8654POPC   NC354635   0.445  11.252   5.550
 8654POPC   PO454636   0.442  11.269   5.850
 8654POPC   GL154637   0.486  11.263   6.150
 8654POPC   GL254638   0.456  11.457   6.150
 8654POPC   C1A54639   0.487  11.346   6.450
 8654POPC   D2A54640   0.445  11.306   6.750
 8654POPC   C3A54641   0.405  11.268   7.050
 8654POPC   C4A54642   0.431  11.275   7.350
 8654POPC   C1B54643   0.498  11.576   6.450
 8654POPC   C2B54644   0.520  11.545   6.750
 8654POPC   C3B54645   0.496  11.548   7.050
 8654POPC   C4B54646   0.536  11.593   7.350
 8655POPC   NC354647  37.675  27.635   5.550
 8655POPC   PO454648  37.727  27.571   5.850
 8655POPC   GL154649  37.698  27.558   6.150
 8655POPC   GL254650  37.584  27.465   6.150
 8655POPC   C1A54651  37.723  27.596   6.450
 8655POPC   D2A54652  37.708  27.578   6.750
 8655POPC   C3A54653  37.715  27.612   7.050
 8655POPC   C4A54654  37.727  27.574   7.350
 8655POPC   C1B54655  37.550  27.333   6.450
 8655POPC   C2B54656  37.603  27.344   6.750
 8655POPC   C3B54657  37.532  27.367   7.050
 8655POPC   C4B54658  37.564  27.384   7.350
 8656POPC   NC354659  16.681  15.185   5.550
 8656POPC   PO454660  16.769  15.152   5.850
 8656POPC   GL154661  16.737  15.222   6.150
 8656POPC   GL254662  16.730  15.314   6.150
 8656POPC   C1A54663  16.750  15.193   6.450
 8656POPC   D2A54664  16.763  15.180   6.750
 8656POPC   C3A54665  16.774  15.176   7.050
 8656POPC   C4A54666  16.718  15.155   7.350
 8656POPC   C1B54667  16.830  15.412   6.450
 8656POPC   C2B54668  16.867  15.386   6.750
 8656POPC   C3B54669  16.782  15.395   7.050
 8656POPC   C4B54670  16.819  15.402   7.350
 8657POPC   NC354671   8.991   5.908   5.550
 8657POPC   PO454672   8.927   5.868   5.850
 8657POPC   GL154673   8.939   5.873   6.150
 8657POPC   GL254674   9.025   5.753   6.150
 8657POPC   C1A54675   8.981   5.911   6.450
 8657POPC   D2A54676   8.964   5.917   6.750
 8657POPC   C3A54677   8.951   5.871   7.050
 8657POPC   C4A54678   9.007   5.885   7.350
 8657POPC   C1B54679   9.058   5.614   6.450
 8657POPC   C2B54680   9.092   5.619   6.750
 8657POPC   C3B54681   9.020   5.658   7.050
 8657POPC   C4B54682   9.019   5.637   7.350
 8658POPC   NC354683  15.971  43.132   5.550
 8658POPC   PO454684  15.910  43.077   5.850
 8658POPC   GL154685  15.983  43.088   6.150
 8658POPC   GL254686  15.960  42.949   6.150
 8658POPC   C1A54687  15.945  43.079   6.450
 8658POPC   D2A54688  15.914  43.157   6.750
 8658POPC   C3A54689  15.978  43.142   7.050
 8658POPC   C4A54690  15.970  43.113   7.350
 8658POPC   C1B54691  15.987  42.883   6.450
 8658POPC   C2B54692  16.018  42.896   6.750
 8658POPC   C3B54693  15.965  42.833   7.050
 8658POPC   C4B54694  16.007  42.856   7.350
 8659POPC   NC354695   5.058  22.971   5.550
 8659POPC   PO454696   5.083  22.953   5.850
 8659POPC   GL154697   5.129  22.920   6.150
 8659POPC   GL254698   4.989  22.975   6.150
 8659POPC   C1A54699   5.053  22.897   6.450
 8659POPC   D2A54700   5.049  22.930   6.750
 8659POPC   C3A54701   5.135  22.916   7.050
 8659POPC   C4A54702   5.131  22.978   7.350
 8659POPC   C1B54703   4.868  23.059   6.450
 8659POPC   C2B54704   4.895  23.088   6.750
 8659POPC   C3B54705   4.902  23.031   7.050
 8659POPC   C4B54706   4.913  23.036   7.350
 8660POPC   NC354707  29.153  26.803   5.550
 8660POPC   PO454708  29.158  26.804   5.850
 8660POPC   GL154709  29.194  26.791   6.150
 8660POPC   GL254710  29.149  26.894   6.150
 8660POPC   C1A54711  29.182  26.815   6.450
 8660POPC   D2A54712  29.151  26.852   6.750
 8660POPC   C3A54713  29.095  26.862   7.050
 8660POPC   C4A54714  29.154  26.862   7.350
 8660POPC   C1B54715  29.196  27.112   6.450
 8660POPC   C2B54716  29.182  27.075   6.750
 8660POPC   C3B54717  29.127  27.100   7.050
 8660POPC   C4B54718  29.201  27.021   7.350
 8661POPC   NC354719  17.466  33.003   5.550
 8661POPC   PO454720  17.471  33.002   5.850
 8661POPC   GL154721  17.530  33.000   6.150
 8661POPC   GL254722  17.450  32.909   6.150
 8661POPC   C1A54723  17.497  32.984   6.450
 8661POPC   D2A54724  17.511  33.024   6.750
 8661POPC   C3A54725  17.535  32.981   7.050
 8661POPC   C4A54726  17.482  33.035   7.350
 8661POPC   C1B54727  17.375  32.887   6.450
 8661POPC   C2B54728  17.307  32.868   6.750
 8661POPC   C3B54729  17.331  32.884   7.050
 8661POPC   C4B54730  17.367  32.883   7.350
 8662POPC   NC354731  13.597  12.818   5.550
 8662POPC   PO454732  13.602  12.884   5.850
 8662POPC   GL154733  13.646  12.823   6.150
 8662POPC   GL254734  13.471  12.854   6.150
 8662POPC   C1A54735  13.608  12.824   6.450
 8662POPC   D2A54736  13.652  12.842   6.750
 8662POPC   C3A54737  13.605  12.885   7.050
 8662POPC   C4A54738  13.669  12.832   7.350
 8662POPC   C1B54739  13.422  12.753   6.450
 8662POPC   C2B54740  13.406  12.810   6.750
 8662POPC   C3B54741  13.373  12.771   7.050
 8662POPC   C4B54742  13.380  12.728   7.350
 8663POPC   NC354743  19.860  20.655   5.550
 8663POPC   PO454744  19.862  20.580   5.850
 8663POPC   GL154745  19.874  20.643   6.150
 8663POPC   GL254746  19.962  20.654   6.150
 8663POPC   C1A54747  19.816  20.582   6.450
 8663POPC   D2A54748  19.839  20.612   6.750
 8663POPC   C3A54749  19.843  20.621   7.050
 8663POPC   C4A54750  19.858  20.620   7.350
 8663POPC   C1B54751  19.996  20.829   6.450
 8663POPC   C2B54752  20.035  20.828   6.750
 8663POPC   C3B54753  19.964  20.832   7.050
 8663POPC   C4B54754  19.982  20.783   7.350
 8664POPC   NC354755  29.939  41.584   5.550
 8664POPC   PO454756  29.915  41.514   5.850
 8664POPC   GL154757  29.951  41.583   6.150
 8664POPC   GL254758  29.929  41.477   6.150
 8664POPC   C1A54759  29.885  41.559   6.450
 8664POPC   D2A54760  29.907  41.565   6.750
 8664POPC   C3A54761  29.941  41.532   7.050
 8664POPC   C4A54762  29.878  41.576   7.350
 8664POPC   C1B54763  29.899  41.290   6.450
 8664POPC   C2B54764  29.908  41.320   6.750
 8664POPC   C3B54765  29.879  41.320   7.050
 8664POPC   C4B54766  29.910  41.300   7.350
 8665POPC   NC354767  15.926  36.104   5.550
 8665POPC   PO454768  15.976  36.079   5.850
 8665POPC   GL154769  15.984  36.122   6.150
 8665POPC   GL254770  15.858  36.071   6.150
 8665POPC   C1A54771  15.933  36.111   6.450
 8665POPC   D2A54772  15.963  36.087   6.750
 8665POPC   C3A54773  15.956  36.093   7.050
 8665POPC   C4A54774  15.991  36.116   7.350
 8665POPC   C1B54775  15.732  36.134   6.450
 8665POPC   C2B54776  15.756  36.123   6.750
 8665POPC   C3B54777  15.660  36.146   7.050
 8665POPC   C4B54778  15.704  36.068   7.350
 8666POPC   NC354779  16.004   9.731   5.550
 8666POPC   PO454780  15.913   9.764   5.850
 8666POPC   GL154781  15.906   9.714   6.150
 8666POPC   GL254782  15.806   9.845   6.150
 8666POPC   C1A54783  15.997   9.734   6.450
 8666POPC   D2A54784  15.936   9.704   6.750
 8666POPC   C3A54785  15.958   9.742   7.050
 8666POPC   C4A54786  15.929   9.739   7.350
 8666POPC   C1B54787  15.703   9.900   6.450
 8666POPC   C2B54788  15.766   9.903   6.750
 8666POPC   C3B54789  15.789   9.891   7.050
 8666POPC   C4B54790  15.785   9.845   7.350
 8667POPC   NC354791   5.057  36.134   5.550
 8667POPC   PO454792   5.048  36.095   5.850
 8667POPC   GL154793   5.078  36.085   6.150
 8667POPC   GL254794   5.030  36.276   6.150
 8667POPC   C1A54795   5.066  36.171   6.450
 8667POPC   D2A54796   5.096  36.175   6.750
 8667POPC   C3A54797   5.117  36.125   7.050
 8667POPC   C4A54798   5.077  36.078   7.350
 8667POPC   C1B54799   4.939  36.356   6.450
 8667POPC   C2B54800   4.957  36.373   6.750
 8667POPC   C3B54801   5.007  36.357   7.050
 8667POPC   C4B54802   4.930  36.306   7.350
 8668POPC   NC354803   2.035  16.721   5.550
 8668POPC   PO454804   2.020  16.753   5.850
 8668POPC   GL154805   1.985  16.702   6.150
 8668POPC   GL254806   1.930  16.591   6.150
 8668POPC   C1A54807   2.018  16.725   6.450
 8668POPC   D2A54808   2.028  16.769   6.750
 8668POPC   C3A54809   2.008  16.700   7.050
 8668POPC   C4A54810   1.958  16.719   7.350
 8668POPC   C1B54811   1.860  16.524   6.450
 8668POPC   C2B54812   1.861  16.526   6.750
 8668POPC   C3B54813   1.835  16.583   7.050
 8668POPC   C4B54814   1.809  16.548   7.350
 8669POPC   NC354815   0.487  19.072   5.550
 8669POPC   PO454816   0.451  19.061   5.850
 8669POPC   GL154817   0.438  19.048   6.150
 8669POPC   GL254818   0.366  19.155   6.150
 8669POPC   C1A54819   0.454  19.027   6.450
 8669POPC   D2A54820   0.432  19.103   6.750
 8669POPC   C3A54821   0.445  19.106   7.050
 8669POPC   C4A54822   0.467  19.010   7.350
 8669POPC   C1B54823   0.313  19.340   6.450
 8669POPC   C2B54824   0.344  19.289   6.750
 8669POPC   C3B54825   0.316  19.265   7.050
 8669POPC   C4B54826   0.348  19.280   7.350
 8670POPC   NC354827   5.092  41.515   5.550
 8670POPC   PO454828   5.087  41.606   5.850
 8670POPC   GL154829   5.090  41.576   6.150
 8670POPC   GL254830   5.172  41.418   6.150
 8670POPC   C1A54831   5.062  41.524   6.450
 8670POPC   D2A54832   5.125  41.567   6.750
 8670POPC   C3A54833   5.045  41.525   7.050
 8670POPC   C4A54834   5.062  41.572   7.350
 8670POPC   C1B54835   5.261  41.367   6.450
 8670POPC   C2B54836   5.281  41.329   6.750
 8670POPC   C3B54837   5.285  41.406   7.050
 8670POPC   C4B54838   5.267  41.411   7.350
 8671POPC   NC354839  40.017  19.854   5.550
 8671POPC   PO454840  40.049  19.812   5.850
 8671POPC   GL154841  40.007  19.807   6.150
 8671POPC   GL254842  39.936  19.943   6.150
 8671POPC   C1A54843  39.977  19.879   6.450
 8671POPC   D2A54844  39.962  19.883   6.750
 8671POPC   C3A54845  39.997  19.834   7.050
 8671POPC   C4A54846  40.045  19.873   7.350
 8671POPC   C1B54847  39.852  20.009   6.450
 8671POPC   C2B54848  39.920  20.032   6.750
 8671POPC   C3B54849  39.897  20.013   7.050
 8671POPC   C4B54850  39.863  20.038   7.350
 8672POPC   NC354851  38.427  12.860   5.550
 8672POPC   PO454852  38.410  12.822   5.850
 8672POPC   GL154853  38.425  12.848   6.150
 8672POPC   GL254854  38.565  12.830   6.150
 8672POPC   C1A54855  38.440  12.828   6.450
 8672POPC   D2A54856  38.426  12.860   6.750
 8672POPC   C3A54857  38.504  12.869   7.050
 8672POPC   C4A54858  38.454  12.868   7.350
 8672POPC   C1B54859  38.641  12.766   6.450
 8672POPC   C2B54860  38.709  12.710   6.750
 8672POPC   C3B54861  38.701  12.722   7.050
 8672POPC   C4B54862  38.647  12.752   7.350
 8673POPC   NC354863  37.651   7.408   5.550
 8673POPC   PO454864  37.671   7.441   5.850
 8673POPC   GL154865  37.646   7.441   6.150
 8673POPC   GL254866  37.721   7.350   6.150
 8673POPC   C1A54867  37.672   7.431   6.450
 8673POPC   D2A54868  37.649   7.427   6.750
 8673POPC   C3A54869  37.682   7.422   7.050
 8673POPC   C4A54870  37.709   7.406   7.350
 8673POPC   C1B54871  37.782   7.172   6.450
 8673POPC   C2B54872  37.825   7.193   6.750
 8673POPC   C3B54873  37.814   7.172   7.050
 8673POPC   C4B54874  37.847   7.237   7.350
 8674POPC   NC354875   2.009  30.737   5.550
 8674POPC   PO454876   1.961  30.703   5.850
 8674POPC   GL154877   2.035  30.652   6.150
 8674POPC   GL254878   2.022  30.622   6.150
 8674POPC   C1A54879   2.035  30.738   6.450
 8674POPC   D2A54880   1.955  30.651   6.750
 8674POPC   C3A54881   1.948  30.726   7.050
 8674POPC   C4A54882   2.034  30.648   7.350
 8674POPC   C1B54883   2.042  30.473   6.450
 8674POPC   C2B54884   2.015  30.406   6.750
 8674POPC   C3B54885   2.014  30.469   7.050
 8674POPC   C4B54886   2.079  30.464   7.350
 8675POPC   NC354887  32.235   9.734   5.550
 8675POPC   PO454888  32.260   9.781   5.850
 8675POPC   GL154889  32.228   9.786   6.150
 8675POPC   GL254890  32.407   9.854   6.150
 8675POPC   C1A54891  32.215   9.717   6.450
 8675POPC   D2A54892  32.279   9.713   6.750
 8675POPC   C3A54893  32.263   9.733   7.050
 8675POPC   C4A54894  32.207   9.752   7.350
 8675POPC   C1B54895  32.450   9.846   6.450
 8675POPC   C2B54896  32.495   9.832   6.750
 8675POPC   C3B54897  32.488   9.855   7.050
 8675POPC   C4B54898  32.485   9.901   7.350
 8676POPC   NC354899  18.303  21.381   5.550
 8676POPC   PO454900  18.312  21.372   5.850
 8676POPC   GL154901  18.286  21.418   6.150
 8676POPC   GL254902  18.383  21.371   6.150
 8676POPC   C1A54903  18.260  21.356   6.450
 8676POPC   D2A54904  18.283  21.425   6.750
 8676POPC   C3A54905  18.311  21.434   7.050
 8676POPC   C4A54906  18.233  21.350   7.350
 8676POPC   C1B54907  18.481  21.464   6.450
 8676POPC   C2B54908  18.529  21.400   6.750
 8676POPC   C3B54909  18.542  21.389   7.050
 8676POPC   C4B54910  18.527  21.425   7.350
 8677POPC   NC354911  24.489  36.093   5.550
 8677POPC   PO454912  24.538  36.093   5.850
 8677POPC   GL154913  24.477  36.134   6.150
 8677POPC   GL254914  24.585  36.153   6.150
 8677POPC   C1A54915  24.462  36.101   6.450
 8677POPC   D2A54916  24.497  36.124   6.750
 8677POPC   C3A54917  24.479  36.135   7.050
 8677POPC   C4A54918  24.449  36.144   7.350
 8677POPC   C1B54919  24.751  36.210   6.450
 8677POPC   C2B54920  24.741  36.206   6.750
 8677POPC   C3B54921  24.680  36.230   7.050
 8677POPC   C4B54922  24.740  36.224   7.350
 8678POPC   NC354923  14.428   8.979   5.550
 8678POPC   PO454924  14.449   9.007   5.850
 8678POPC   GL154925  14.371   9.008   6.150
 8678POPC   GL254926  14.263   8.926   6.150
 8678POPC   C1A54927  14.380   8.938   6.450
 8678POPC   D2A54928  14.365   9.006   6.750
 8678POPC   C3A54929  14.397   8.939   7.050
 8678POPC   C4A54930  14.426   8.965   7.350
 8678POPC   C1B54931  14.164   8.922   6.450
 8678POPC   C2B54932  14.157   9.019   6.750
 8678POPC   C3B54933  14.180   8.959   7.050
 8678POPC   C4B54934  14.180   8.998   7.350
 8679POPC   NC354935   3.586   9.733   5.550
 8679POPC   PO454936   3.536   9.793   5.850
 8679POPC   GL154937   3.518   9.762   6.150
 8679POPC   GL254938   3.503   9.613   6.150
 8679POPC   C1A54939   3.540   9.778   6.450
 8679POPC   D2A54940   3.575   9.724   6.750
 8679POPC   C3A54941   3.562   9.716   7.050
 8679POPC   C4A54942   3.574   9.741   7.350
 8679POPC   C1B54943   3.437   9.572   6.450
 8679POPC   C2B54944   3.433   9.496   6.750
 8679POPC   C3B54945   3.471   9.566   7.050
 8679POPC   C4B54946   3.464   9.507   7.350
 8680POPC   NC354947  42.302  32.224   5.550
 8680POPC   PO454948  42.366  32.232   5.850
 8680POPC   GL154949  42.312  32.212   6.150
 8680POPC   GL254950  42.256  32.147   6.150
 8680POPC   C1A54951  42.360  32.297   6.450
 8680POPC   D2A54952  42.338  32.283   6.750
 8680POPC   C3A54953  42.383  32.260   7.050
 8680POPC   C4A54954  42.371  32.286   7.350
 8680POPC   C1B54955  42.148  32.066   6.450
 8680POPC   C2B54956  42.196  32.074   6.750
 8680POPC   C3B54957  42.173  32.069   7.050
 8680POPC   C4B54958  42.118  32.071   7.350
 8681POPC   NC354959  41.521   2.796   5.550
 8681POPC   PO454960  41.575   2.786   5.850
 8681POPC   GL154961  41.606   2.779   6.150
 8681POPC   GL254962  41.480   2.908   6.150
 8681POPC   C1A54963  41.593   2.734   6.450
 8681POPC   D2A54964  41.531   2.767   6.750
 8681POPC   C3A54965  41.602   2.777   7.050
 8681POPC   C4A54966  41.580   2.780   7.350
 8681POPC   C1B54967  41.398   3.001   6.450
 8681POPC   C2B54968  41.459   3.027   6.750
 8681POPC   C3B54969  41.385   2.983   7.050
 8681POPC   C4B54970  41.410   2.989   7.350
 8682POPC   NC354971  12.046  15.199   5.550
 8682POPC   PO454972  12.085  15.152   5.850
 8682POPC   GL154973  12.112  15.176   6.150
 8682POPC   GL254974  12.118  15.015   6.150
 8682POPC   C1A54975  12.109  15.215   6.450
 8682POPC   D2A54976  12.026  15.173   6.750
 8682POPC   C3A54977  12.080  15.214   7.050
 8682POPC   C4A54978  12.099  15.161   7.350
 8682POPC   C1B54979  12.188  14.897   6.450
 8682POPC   C2B54980  12.166  14.926   6.750
 8682POPC   C3B54981  12.184  14.925   7.050
 8682POPC   C4B54982  12.185  14.971   7.350
 8683POPC   NC354983  27.641  34.555   5.550
 8683POPC   PO454984  27.575  34.552   5.850
 8683POPC   GL154985  27.639  34.616   6.150
 8683POPC   GL254986  27.756  34.584   6.150
 8683POPC   C1A54987  27.569  34.590   6.450
 8683POPC   D2A54988  27.611  34.560   6.750
 8683POPC   C3A54989  27.606  34.529   7.050
 8683POPC   C4A54990  27.615  34.607   7.350
 8683POPC   C1B54991  27.838  34.581   6.450
 8683POPC   C2B54992  27.831  34.517   6.750
 8683POPC   C3B54993  27.883  34.520   7.050
 8683POPC   C4B54994  27.857  34.550   7.350
 8684POPC   NC354995  44.618   4.353   5.550
 8684POPC   PO454996  44.632   4.352   5.850
 8684POPC   GL154997  44.697   4.292   6.150
 8684POPC   GL254998  44.643   4.167   6.150
 8684POPC   C1A54999  44.680   4.358   6.450
 8684POPC   D2A55000  44.674   4.287   6.750
 8684POPC   C3A55001  44.667   4.317   7.050
 8684POPC   C4A55002  44.619   4.274   7.350
 8684POPC   C1B55003  44.513   4.101   6.450
 8684POPC   C2B55004  44.533   4.131   6.750
 8684POPC   C3B55005  44.560   4.123   7.050
 8684POPC   C4B55006  44.568   4.056   7.350
 8685POPC   NC355007  33.017  33.844   5.550
 8685POPC   PO455008  32.975  33.832   5.850
 8685POPC   GL155009  32.998  33.820   6.150
 8685POPC   GL255010  33.088  33.710   6.150
 8685POPC   C1A55011  33.011  33.841   6.450
 8685POPC   D2A55012  33.002  33.764   6.750
 8685POPC   C3A55013  33.064  33.811   7.050
 8685POPC   C4A55014  32.982  33.803   7.350
 8685POPC   C1B55015  33.198  33.595   6.450
 8685POPC   C2B55016  33.158  33.575   6.750
 8685POPC   C3B55017  33.141  33.595   7.050
 8685POPC   C4B55018  33.184  33.605   7.350
 8686POPC   NC355019   4.365  21.366   5.550
 8686POPC   PO455020   4.276  21.351   5.850
 8686POPC   GL155021   4.367  21.385   6.150
 8686POPC   GL255022   4.175  21.383   6.150
 8686POPC   C1A55023   4.310  21.425   6.450
 8686POPC   D2A55024   4.352  21.366   6.750
 8686POPC   C3A55025   4.299  21.392   7.050
 8686POPC   C4A55026   4.284  21.374   7.350
 8686POPC   C1B55027   4.085  21.310   6.450
 8686POPC   C2B55028   4.022  21.348   6.750
 8686POPC   C3B55029   4.042  21.300   7.050
 8686POPC   C4B55030   4.087  21.334   7.350
 8687POPC   NC355031   8.200  43.838   5.550
 8687POPC   PO455032   8.173  43.883   5.850
 8687POPC   GL155033   8.157  43.917   6.150
 8687POPC   GL255034   8.093  43.911   6.150
 8687POPC   C1A55035   8.231  43.862   6.450
 8687POPC   D2A55036   8.165  43.902   6.750
 8687POPC   C3A55037   8.163  43.926   7.050
 8687POPC   C4A55038   8.244  43.859   7.350
 8687POPC   C1B55039   7.972  43.872   6.450
 8687POPC   C2B55040   7.966  43.916   6.750
 8687POPC   C3B55041   7.984  43.867   7.050
 8687POPC   C4B55042   7.963  43.841   7.350
 8688POPC   NC355043  34.566  27.558   5.550
 8688POPC   PO455044  34.567  27.578   5.850
 8688POPC   GL155045  34.526  27.600   6.150
 8688POPC   GL255046  34.530  27.501   6.150
 8688POPC   C1A55047  34.585  27.591   6.450
 8688POPC   D2A55048  34.553  27.552   6.750
 8688POPC   C3A55049  34.554  27.552   7.050
 8688POPC   C4A55050  34.590  27.641   7.350
 8688POPC   C1B55051  34.395  27.431   6.450
 8688POPC   C2B55052  34.400  27.413   6.750
 8688POPC   C3B55053  34.399  27.416   7.050
 8688POPC   C4B55054  34.451  27.436   7.350
 8689POPC   NC355055  29.099   2.748   5.550
 8689POPC   PO455056  29.175   2.721   5.850
 8689POPC   GL155057  29.153   2.747   6.150
 8689POPC   GL255058  29.059   2.831   6.150
 8689POPC   C1A55059  29.135   2.727   6.450
 8689POPC   D2A55060  29.173   2.770   6.750
 8689POPC   C3A55061  29.140   2.745   7.050
 8689POPC   C4A55062  29.158   2.809   7.350
 8689POPC   C1B55063  28.965   2.950   6.450
 8689POPC   C2B55064  28.988   2.936   6.750
 8689POPC   C3B55065  28.914   2.951   7.050
 8689POPC   C4B55066  28.959   2.961   7.350
 8690POPC   NC355067  36.886  23.683   5.550
 8690POPC   PO455068  36.951  23.754   5.850
 8690POPC   GL155069  36.950  23.758   6.150
 8690POPC   GL255070  36.754  23.742   6.150
 8690POPC   C1A55071  36.938  23.724   6.450
 8690POPC   D2A55072  36.871  23.763   6.750
 8690POPC   C3A55073  36.870  23.708   7.050
 8690POPC   C4A55074  36.861  23.667   7.350
 8690POPC   C1B55075  36.685  23.770   6.450
 8690POPC   C2B55076  36.679  23.775   6.750
 8690POPC   C3B55077  36.703  23.747   7.050
 8690POPC   C4B55078  36.630  23.779   7.350
 8691POPC   NC355079  35.340  23.685   5.550
 8691POPC   PO455080  35.341  23.706   5.850
 8691POPC   GL155081  35.304  23.704   6.150
 8691POPC   GL255082  35.447  23.656   6.150
 8691POPC   C1A55083  35.356  23.698   6.450
 8691POPC   D2A55084  35.391  23.723   6.750
 8691POPC   C3A55085  35.371  23.718   7.050
 8691POPC   C4A55086  35.314  23.760   7.350
 8691POPC   C1B55087  35.603  23.547   6.450
 8691POPC   C2B55088  35.571  23.623   6.750
 8691POPC   C3B55089  35.537  23.602   7.050
 8691POPC   C4B55090  35.535  23.598   7.350
 8692POPC   NC355091  10.562  43.122   5.550
 8692POPC   PO455092  10.502  43.158   5.850
 8692POPC   GL155093  10.503  43.100   6.150
 8692POPC   GL255094  10.640  42.979   6.150
 8692POPC   C1A55095  10.523  43.145   6.450
 8692POPC   D2A55096  10.510  43.094   6.750
 8692POPC   C3A55097  10.503  43.096   7.050
 8692POPC   C4A55098  10.556  43.092   7.350
 8692POPC   C1B55099  10.685  42.873   6.450
 8692POPC   C2B55100  10.661  42.915   6.750
 8692POPC   C3B55101  10.647  42.946   7.050
 8692POPC   C4B55102  10.691  42.965   7.350
 8693POPC   NC355103  23.709  15.198   5.550
 8693POPC   PO455104  23.763  15.215   5.850
 8693POPC   GL155105  23.695  15.136   6.150
 8693POPC   GL255106  23.563  15.267   6.150
 8693POPC   C1A55107  23.727  15.215   6.450
 8693POPC   D2A55108  23.684  15.199   6.750
 8693POPC   C3A55109  23.709  15.189   7.050
 8693POPC   C4A55110  23.739  15.200   7.350
 8693POPC   C1B55111  23.538  15.339   6.450
 8693POPC   C2B55112  23.553  15.277   6.750
 8693POPC   C3B55113  23.461  15.322   7.050
 8693POPC   C4B55114  23.494  15.323   7.350
 8694POPC   NC355115  36.138   0.393   5.550
 8694POPC   PO455116  36.097   0.429   5.850
 8694POPC   GL155117  36.129   0.402   6.150
 8694POPC   GL255118  36.126   0.579   6.150
 8694POPC   C1A55119  36.114   0.414   6.450
 8694POPC   D2A55120  36.096   0.457   6.750
 8694POPC   C3A55121  36.093   0.437   7.050
 8694POPC   C4A55122  36.166   0.466   7.350
 8694POPC   C1B55123  36.208   0.678   6.450
 8694POPC   C2B55124  36.265   0.622   6.750
 8694POPC   C3B55125  36.236   0.706   7.050
 8694POPC   C4B55126  36.189   0.626   7.350
 8695POPC   NC355127  29.130  40.018   5.550
 8695POPC   PO455128  29.175  40.007   5.850
 8695POPC   GL155129  29.154  40.020   6.150
 8695POPC   GL255130  29.208  40.089   6.150
 8695POPC   C1A55131  29.134  40.047   6.450
 8695POPC   D2A55132  29.146  39.975   6.750
 8695POPC   C3A55133  29.163  39.997   7.050
 8695POPC   C4A55134  29.188  40.022   7.350
 8695POPC   C1B55135  29.300  40.227   6.450
 8695POPC   C2B55136  29.320  40.166   6.750
 8695POPC   C3B55137  29.303  40.248   7.050
 8695POPC   C4B55138  29.261  40.236   7.350
 8696POPC   NC355139  44.701  40.797   5.550
 8696POPC   PO455140  44.658  40.805   5.850
 8696POPC   GL155141  44.697  40.817   6.150
 8696POPC   GL255142  44.736  40.762   6.150
 8696POPC   C1A55143  44.644  40.744   6.450
 8696POPC   D2A55144  44.657  40.788   6.750
 8696POPC   C3A55145  44.616  40.783   7.050
 8696POPC   C4A55146  44.681  40.738   7.350
 8696POPC   C1B55147  44.890  40.692   6.450
 8696POPC   C2B55148  44.904  40.749   6.750
 8696POPC   C3B55149  44.942  40.683   7.050
 8696POPC   C4B55150  44.921  40.685   7.350
 8697POPC   NC355151   8.212   0.426   5.550
 8697POPC   PO455152   8.155   0.474   5.850
 8697POPC   GL155153   8.188   0.485   6.150
 8697POPC   GL255154   8.086   0.515   6.150
 8697POPC   C1A55155   8.227   0.462   6.450
 8697POPC   D2A55156   8.198   0.418   6.750
 8697POPC   C3A55157   8.165   0.432   7.050
 8697POPC   C4A55158   8.214   0.439   7.350
 8697POPC   C1B55159   7.987   0.571   6.450
 8697POPC   C2B55160   7.955   0.627   6.750
 8697POPC   C3B55161   7.962   0.610   7.050
 8697POPC   C4B55162   8.027   0.607   7.350
 8698POPC   NC355163   1.234  26.056   5.550
 8698POPC   PO455164   1.194  26.062   5.850
 8698POPC   GL155165   1.242  25.994   6.150
 8698POPC   GL255166   1.288  25.954   6.150
 8698POPC   C1A55167   1.233  26.014   6.450
 8698POPC   D2A55168   1.168  26.085   6.750
 8698POPC   C3A55169   1.241  26.079   7.050
 8698POPC   C4A55170   1.239  25.994   7.350
 8698POPC   C1B55171   1.390  25.835   6.450
 8698POPC   C2B55172   1.415  25.908   6.750
 8698POPC   C3B55173   1.429  25.816   7.050
 8698POPC   C4B55174   1.373  25.829   7.350
 8699POPC   NC355175   3.509  24.496   5.550
 8699POPC   PO455176   3.521  24.532   5.850
 8699POPC   GL155177   3.497  24.509   6.150
 8699POPC   GL255178   3.661  24.408   6.150
 8699POPC   C1A55179   3.564  24.510   6.450
 8699POPC   D2A55180   3.558  24.528   6.750
 8699POPC   C3A55181   3.515  24.538   7.050
 8699POPC   C4A55182   3.505  24.449   7.350
 8699POPC   C1B55183   3.823  24.373   6.450
 8699POPC   C2B55184   3.819  24.393   6.750
 8699POPC   C3B55185   3.745  24.429   7.050
 8699POPC   C4B55186   3.787  24.412   7.350
 8700POPC   NC355187  15.224  35.312   5.550
 8700POPC   PO455188  15.150  35.319   5.850
 8700POPC   GL155189  15.225  35.321   6.150
 8700POPC   GL255190  15.207  35.208   6.150
 8700POPC   C1A55191  15.205  35.319   6.450
 8700POPC   D2A55192  15.224  35.399   6.750
 8700POPC   C3A55193  15.185  35.327   7.050
 8700POPC   C4A55194  15.196  35.356   7.350
 8700POPC   C1B55195  15.199  35.066   6.450
 8700POPC   C2B55196  15.198  35.065   6.750
 8700POPC   C3B55197  15.242  35.064   7.050
 8700POPC   C4B55198  15.208  35.071   7.350
 8701POPC   NC355199  40.001  27.547   5.550
 8701POPC   PO455200  39.990  27.604   5.850
 8701POPC   GL155201  39.963  27.621   6.150
 8701POPC   GL255202  40.088  27.574   6.150
 8701POPC   C1A55203  39.958  27.586   6.450
 8701POPC   D2A55204  39.998  27.627   6.750
 8701POPC   C3A55205  40.014  27.566   7.050
 8701POPC   C4A55206  40.029  27.643   7.350
 8701POPC   C1B55207  40.300  27.506   6.450
 8701POPC   C2B55208  40.212  27.587   6.750
 8701POPC   C3B55209  40.275  27.581   7.050
 8701POPC   C4B55210  40.268  27.517   7.350
 8702POPC   NC355211   4.367  40.007   5.550
 8702POPC   PO455212   4.325  40.042   5.850
 8702POPC   GL155213   4.331  40.006   6.150
 8702POPC   GL255214   4.398  39.881   6.150
 8702POPC   C1A55215   4.329  39.968   6.450
 8702POPC   D2A55216   4.284  39.990   6.750
 8702POPC   C3A55217   4.349  39.983   7.050
 8702POPC   C4A55218   4.357  39.959   7.350
 8702POPC   C1B55219   4.487  39.840   6.450
 8702POPC   C2B55220   4.518  39.848   6.750
 8702POPC   C3B55221   4.445  39.832   7.050
 8702POPC   C4B55222   4.503  39.853   7.350
 8703POPC   NC355223  43.151  12.101   5.550
 8703POPC   PO455224  43.090  12.111   5.850
 8703POPC   GL155225  43.144  12.072   6.150
 8703POPC   GL255226  43.203  11.934   6.150
 8703POPC   C1A55227  43.160  12.072   6.450
 8703POPC   D2A55228  43.134  12.096   6.750
 8703POPC   C3A55229  43.075  12.117   7.050
 8703POPC   C4A55230  43.124  12.044   7.350
 8703POPC   C1B55231  43.258  11.904   6.450
 8703POPC   C2B55232  43.249  11.903   6.750
 8703POPC   C3B55233  43.223  11.828   7.050
 8703POPC   C4B55234  43.288  11.907   7.350
 8704POPC   NC355235  12.845  10.532   5.550
 8704POPC   PO455236  12.835  10.539   5.850
 8704POPC   GL155237  12.867  10.557   6.150
 8704POPC   GL255238  12.859  10.374   6.150
 8704POPC   C1A55239  12.884  10.548   6.450
 8704POPC   D2A55240  12.895  10.535   6.750
 8704POPC   C3A55241  12.883  10.561   7.050
 8704POPC   C4A55242  12.825  10.536   7.350
 8704POPC   C1B55243  12.985  10.339   6.450
 8704POPC   C2B55244  13.002  10.336   6.750
 8704POPC   C3B55245  12.982  10.268   7.050
 8704POPC   C4B55246  13.006  10.258   7.350
 8705POPC   NC355247   5.904  43.868   5.550
 8705POPC   PO455248   5.828  43.873   5.850
 8705POPC   GL155249   5.894  43.923   6.150
 8705POPC   GL255250   6.023  43.897   6.150
 8705POPC   C1A55251   5.868  43.926   6.450
 8705POPC   D2A55252   5.850  43.839   6.750
 8705POPC   C3A55253   5.868  43.840   7.050
 8705POPC   C4A55254   5.878  43.898   7.350
 8705POPC   C1B55255   6.077  43.841   6.450
 8705POPC   C2B55256   6.158  43.874   6.750
 8705POPC   C3B55257   6.146  43.823   7.050
 8705POPC   C4B55258   6.125  43.789   7.350
 8706POPC   NC355259  44.696  24.489   5.550
 8706POPC   PO455260  44.676  24.451   5.850
 8706POPC   GL155261  44.646  24.509   6.150
 8706POPC   GL255262  44.542  24.496   6.150
 8706POPC   C1A55263  44.650  24.521   6.450
 8706POPC   D2A55264  44.665  24.450   6.750
 8706POPC   C3A55265  44.627  24.469   7.050
 8706POPC   C4A55266  44.634  24.482   7.350
 8706POPC   C1B55267  44.397  24.569   6.450
 8706POPC   C2B55268  44.430  24.630   6.750
 8706POPC   C3B55269  44.393  24.570   7.050
 8706POPC   C4B55270  44.425  24.536   7.350
 8707POPC   NC355271  20.585  33.002   5.550
 8707POPC   PO455272  20.590  33.071   5.850
 8707POPC   GL155273  20.627  33.049   6.150
 8707POPC   GL255274  20.504  33.089   6.150
 8707POPC   C1A55275  20.621  32.987   6.450
 8707POPC   D2A55276  20.660  33.058   6.750
 8707POPC   C3A55277  20.562  33.008   7.050
 8707POPC   C4A55278  20.612  33.043   7.350
 8707POPC   C1B55279  20.387  33.095   6.450
 8707POPC   C2B55280  20.379  33.101   6.750
 8707POPC   C3B55281  20.313  33.011   7.050
 8707POPC   C4B55282  20.337  33.092   7.350
 8708POPC   NC355283  28.319  19.869   5.550
 8708POPC   PO455284  28.321  19.844   5.850
 8708POPC   GL155285  28.396  19.819   6.150
 8708POPC   GL255286  28.454  19.704   6.150
 8708POPC   C1A55287  28.372  19.861   6.450
 8708POPC   D2A55288  28.358  19.791   6.750
 8708POPC   C3A55289  28.381  19.803   7.050
 8708POPC   C4A55290  28.343  19.812   7.350
 8708POPC   C1B55291  28.597  19.618   6.450
 8708POPC   C2B55292  28.503  19.628   6.750
 8708POPC   C3B55293  28.524  19.707   7.050
 8708POPC   C4B55294  28.545  19.694   7.350
 8709POPC   NC355295  36.134  33.844   5.550
 8709POPC   PO455296  36.080  33.795   5.850
 8709POPC   GL155297  36.146  33.814   6.150
 8709POPC   GL255298  35.973  33.715   6.150
 8709POPC   C1A55299  36.111  33.786   6.450
 8709POPC   D2A55300  36.138  33.819   6.750
 8709POPC   C3A55301  36.162  33.843   7.050
 8709POPC   C4A55302  36.158  33.763   7.350
 8709POPC   C1B55303  35.866  33.772   6.450
 8709POPC   C2B55304  35.924  33.701   6.750
 8709POPC   C3B55305  35.900  33.774   7.050
 8709POPC   C4B55306  35.862  33.738   7.350
 8710POPC   NC355307  32.276  36.137   5.550
 8710POPC   PO455308  32.229  36.126   5.850
 8710POPC   GL155309  32.265  36.152   6.150
 8710POPC   GL255310  32.310  36.200   6.150
 8710POPC   C1A55311  32.224  36.079   6.450
 8710POPC   D2A55312  32.207  36.130   6.750
 8710POPC   C3A55313  32.276  36.159   7.050
 8710POPC   C4A55314  32.268  36.167   7.350
 8710POPC   C1B55315  32.422  36.236   6.450
 8710POPC   C2B55316  32.472  36.301   6.750
 8710POPC   C3B55317  32.465  36.228   7.050
 8710POPC   C4B55318  32.422  36.243   7.350
 8711POPC   NC355319  12.832   1.190   5.550
 8711POPC   PO455320  12.896   1.240   5.850
 8711POPC   GL155321  12.808   1.256   6.150
 8711POPC   GL255322  12.953   1.070   6.150
 8711POPC   C1A55323  12.844   1.225   6.450
 8711POPC   D2A55324  12.804   1.174   6.750
 8711POPC   C3A55325  12.847   1.234   7.050
 8711POPC   C4A55326  12.823   1.200   7.350
 8711POPC   C1B55327  12.964   0.999   6.450
 8711POPC   C2B55328  12.960   1.028   6.750
 8711POPC   C3B55329  12.995   1.034   7.050
 8711POPC   C4B55330  12.990   0.970   7.350
 8712POPC   NC355331   2.796  12.872   5.550
 8712POPC   PO455332   2.780  12.887   5.850
 8712POPC   GL155333   2.795  12.891   6.150
 8712POPC   GL255334   2.908  12.870   6.150
 8712POPC   C1A55335   2.796  12.831   6.450
 8712POPC   D2A55336   2.750  12.811   6.750
 8712POPC   C3A55337   2.789  12.841   7.050
 8712POPC   C4A55338   2.758  12.871   7.350
 8712POPC   C1B55339   2.967  12.844   6.450
 8712POPC   C2B55340   3.029  12.841   6.750
 8712POPC   C3B55341   2.990  12.909   7.050
 8712POPC   C4B55342   2.972  12.834   7.350
 8713POPC   NC355343   5.107   3.508   5.550
 8713POPC   PO455344   5.142   3.543   5.850
 8713POPC   GL155345   5.121   3.565   6.150
 8713POPC   GL255346   5.111   3.672   6.150
 8713POPC   C1A55347   5.116   3.568   6.450
 8713POPC   D2A55348   5.096   3.585   6.750
 8713POPC   C3A55349   5.064   3.498   7.050
 8713POPC   C4A55350   5.127   3.571   7.350
 8713POPC   C1B55351   5.059   3.791   6.450
 8713POPC   C2B55352   4.986   3.735   6.750
 8713POPC   C3B55353   5.049   3.759   7.050
 8713POPC   C4B55354   5.054   3.756   7.350
 8714POPC   NC355355  17.528   2.735   5.550
 8714POPC   PO455356  17.499   2.760   5.850
 8714POPC   GL155357  17.525   2.749   6.150
 8714POPC   GL255358  17.390   2.798   6.150
 8714POPC   C1A55359  17.550   2.747   6.450
 8714POPC   D2A55360  17.512   2.800   6.750
 8714POPC   C3A55361  17.478   2.724   7.050
 8714POPC   C4A55362  17.482   2.758   7.350
 8714POPC   C1B55363  17.312   2.937   6.450
 8714POPC   C2B55364  17.289   2.879   6.750
 8714POPC   C3B55365  17.313   2.898   7.050
 8714POPC   C4B55366  17.319   2.879   7.350
 8715POPC   NC355367  40.023   3.501   5.550
 8715POPC   PO455368  40.005   3.574   5.850
 8715POPC   GL155369  40.024   3.541   6.150
 8715POPC   GL255370  40.162   3.505   6.150
 8715POPC   C1A55371  40.001   3.559   6.450
 8715POPC   D2A55372  40.046   3.520   6.750
 8715POPC   C3A55373  39.990   3.576   7.050
 8715POPC   C4A55374  40.050   3.535   7.350
 8715POPC   C1B55375  40.194   3.481   6.450
 8715POPC   C2B55376  40.211   3.487   6.750
 8715POPC   C3B55377  40.272   3.465   7.050
 8715POPC   C4B55378  40.201   3.485   7.350
 8716POPC   NC355379  29.950  44.683   5.550
 8716POPC   PO455380  29.907  44.654   5.850
 8716POPC   GL155381  29.962  44.619   6.150
 8716POPC   GL255382  29.930  44.729   6.150
 8716POPC   C1A55383  29.942  44.691   6.450
 8716POPC   D2A55384  29.876  44.691   6.750
 8716POPC   C3A55385  29.952  44.659   7.050
 8716POPC   C4A55386  29.917  44.684   7.350
 8716POPC   C1B55387  30.008  44.877   6.450
 8716POPC   C2B55388  30.051  44.841   6.750
 8716POPC   C3B55389  30.079  44.909   7.050
 8716POPC   C4B55390  30.007  44.891   7.350
 8717POPC   NC355391   3.564   5.919   5.550
 8717POPC   PO455392   3.544   5.906   5.850
 8717POPC   GL155393   3.529   5.860   6.150
 8717POPC   GL255394   3.592   5.981   6.150
 8717POPC   C1A55395   3.559   5.835   6.450
 8717POPC   D2A55396   3.541   5.859   6.750
 8717POPC   C3A55397   3.546   5.840   7.050
 8717POPC   C4A55398   3.496   5.857   7.350
 8717POPC   C1B55399   3.750   6.058   6.450
 8717POPC   C2B55400   3.752   6.070   6.750
 8717POPC   C3B55401   3.713   6.107   7.050
 8717POPC   C4B55402   3.737   6.091   7.350
 8718POPC   NC355403  12.852  25.237   5.550
 8718POPC   PO455404  12.858  25.229   5.850
 8718POPC   GL155405  12.862  25.240   6.150
 8718POPC   GL255406  12.915  25.130   6.150
 8718POPC   C1A55407  12.869  25.295   6.450
 8718POPC   D2A55408  12.899  25.230   6.750
 8718POPC   C3A55409  12.841  25.262   7.050
 8718POPC   C4A55410  12.892  25.314   7.350
 8718POPC   C1B55411  12.927  25.010   6.450
 8718POPC   C2B55412  12.864  25.014   6.750
 8718POPC   C3B55413  12.870  25.051   7.050
 8718POPC   C4B55414  12.896  24.979   7.350
 8719POPC   NC355415   0.404  16.707   5.550
 8719POPC   PO455416   0.448  16.697   5.850
 8719POPC   GL155417   0.391  16.737   6.150
 8719POPC   GL255418   0.571  16.741   6.150
 8719POPC   C1A55419   0.485  16.740   6.450
 8719POPC   D2A55420   0.449  16.686   6.750
 8719POPC   C3A55421   0.451  16.722   7.050
 8719POPC   C4A55422   0.414  16.699   7.350
 8719POPC   C1B55423   0.669  16.670   6.450
 8719POPC   C2B55424   0.729  16.718   6.750
 8719POPC   C3B55425   0.712  16.741   7.050
 8719POPC   C4B55426   0.682  16.698   7.350
 8720POPC   NC355427  26.862  22.985   5.550
 8720POPC   PO455428  26.793  22.919   5.850
 8720POPC   GL155429  26.866  22.926   6.150
 8720POPC   GL255430  26.744  22.805   6.150
 8720POPC   C1A55431  26.799  22.918   6.450
 8720POPC   D2A55432  26.793  22.972   6.750
 8720POPC   C3A55433  26.798  22.956   7.050
 8720POPC   C4A55434  26.859  22.955   7.350
 8720POPC   C1B55435  26.680  22.768   6.450
 8720POPC   C2B55436  26.657  22.721   6.750
 8720POPC   C3B55437  26.673  22.673   7.050
 8720POPC   C4B55438  26.712  22.743   7.350
 8721POPC   NC355439   5.093  43.098   5.550
 8721POPC   PO455440   5.053  43.118   5.850
 8721POPC   GL155441   5.131  43.130   6.150
 8721POPC   GL255442   5.083  42.998   6.150
 8721POPC   C1A55443   5.061  43.154   6.450
 8721POPC   D2A55444   5.094  43.079   6.750
 8721POPC   C3A55445   5.134  43.062   7.050
 8721POPC   C4A55446   5.071  43.110   7.350
 8721POPC   C1B55447   5.128  42.828   6.450
 8721POPC   C2B55448   5.155  42.888   6.750
 8721POPC   C3B55449   5.139  42.893   7.050
 8721POPC   C4B55450   5.178  42.897   7.350
 8722POPC   NC355451  25.243   2.001   5.550
 8722POPC   PO455452  25.221   2.004   5.850
 8722POPC   GL155453  25.300   1.983   6.150
 8722POPC   GL255454  25.426   2.026   6.150
 8722POPC   C1A55455  25.256   1.998   6.450
 8722POPC   D2A55456  25.265   1.989   6.750
 8722POPC   C3A55457  25.265   2.030   7.050
 8722POPC   C4A55458  25.313   2.020   7.350
 8722POPC   C1B55459  25.530   2.124   6.450
 8722POPC   C2B55460  25.456   2.132   6.750
 8722POPC   C3B55461  25.510   2.096   7.050
 8722POPC   C4B55462  25.492   2.041   7.350
 8723POPC   NC355463  14.362  41.591   5.550
 8723POPC   PO455464  14.402  41.596   5.850
 8723POPC   GL155465  14.426  41.559   6.150
 8723POPC   GL255466  14.330  41.667   6.150
 8723POPC   C1A55467  14.396  41.593   6.450
 8723POPC   D2A55468  14.449  41.572   6.750
 8723POPC   C3A55469  14.421  41.602   7.050
 8723POPC   C4A55470  14.395  41.553   7.350
 8723POPC   C1B55471  14.330  41.758   6.450
 8723POPC   C2B55472  14.337  41.750   6.750
 8723POPC   C3B55473  14.343  41.756   7.050
 8723POPC   C4B55474  14.339  41.825   7.350
 8724POPC   NC355475  12.113  34.534   5.550
 8724POPC   PO455476  12.085  34.543   5.850
 8724POPC   GL155477  12.075  34.599   6.150
 8724POPC   GL255478  12.231  34.587   6.150
 8724POPC   C1A55479  12.125  34.565   6.450
 8724POPC   D2A55480  12.036  34.554   6.750
 8724POPC   C3A55481  12.065  34.534   7.050
 8724POPC   C4A55482  12.087  34.577   7.350
 8724POPC   C1B55483  12.322  34.580   6.450
 8724POPC   C2B55484  12.360  34.634   6.750
 8724POPC   C3B55485  12.309  34.584   7.050
 8724POPC   C4B55486  12.275  34.563   7.350
 8725POPC   NC355487  17.470  34.607   5.550
 8725POPC   PO455488  17.473  34.534   5.850
 8725POPC   GL155489  17.494  34.598   6.150
 8725POPC   GL255490  17.660  34.631   6.150
 8725POPC   C1A55491  17.483  34.556   6.450
 8725POPC   D2A55492  17.550  34.600   6.750
 8725POPC   C3A55493  17.537  34.566   7.050
 8725POPC   C4A55494  17.542  34.594   7.350
 8725POPC   C1B55495  17.746  34.617   6.450
 8725POPC   C2B55496  17.742  34.640   6.750
 8725POPC   C3B55497  17.709  34.587   7.050
 8725POPC   C4B55498  17.782  34.618   7.350
 8726POPC   NC355499   8.183  21.342   5.550
 8726POPC   PO455500   8.227  21.341   5.850
 8726POPC   GL155501   8.245  21.433   6.150
 8726POPC   GL255502   8.278  21.466   6.150
 8726POPC   C1A55503   8.203  21.359   6.450
 8726POPC   D2A55504   8.230  21.420   6.750
 8726POPC   C3A55505   8.186  21.387   7.050
 8726POPC   C4A55506   8.157  21.389   7.350
 8726POPC   C1B55507   8.326  21.554   6.450
 8726POPC   C2B55508   8.408  21.560   6.750
 8726POPC   C3B55509   8.392  21.585   7.050
 8726POPC   C4B55510   8.346  21.582   7.350
 8727POPC   NC355511   5.067  39.271   5.550
 8727POPC   PO455512   5.135  39.208   5.850
 8727POPC   GL155513   5.087  39.185   6.150
 8727POPC   GL255514   5.017  39.155   6.150
 8727POPC   C1A55515   5.058  39.209   6.450
 8727POPC   D2A55516   5.129  39.210   6.750
 8727POPC   C3A55517   5.097  39.239   7.050
 8727POPC   C4A55518   5.088  39.191   7.350
 8727POPC   C1B55519   4.883  39.099   6.450
 8727POPC   C2B55520   4.916  39.094   6.750
 8727POPC   C3B55521   4.915  39.045   7.050
 8727POPC   C4B55522   4.960  39.088   7.350
 8728POPC   NC355523   5.059  37.729   5.550
 8728POPC   PO455524   5.079  37.680   5.850
 8728POPC   GL155525   5.121  37.712   6.150
 8728POPC   GL255526   5.113  37.781   6.150
 8728POPC   C1A55527   5.052  37.671   6.450
 8728POPC   D2A55528   5.131  37.712   6.750
 8728POPC   C3A55529   5.103  37.659   7.050
 8728POPC   C4A55530   5.069  37.690   7.350
 8728POPC   C1B55531   5.096  37.909   6.450
 8728POPC   C2B55532   5.028  37.948   6.750
 8728POPC   C3B55533   5.074  37.950   7.050
 8728POPC   C4B55534   5.035  37.900   7.350
 8729POPC   NC355535   7.405  26.853   5.550
 8729POPC   PO455536   7.470  26.768   5.850
 8729POPC   GL155537   7.463  26.771   6.150
 8729POPC   GL255538   7.518  26.903   6.150
 8729POPC   C1A55539   7.461  26.779   6.450
 8729POPC   D2A55540   7.449  26.822   6.750
 8729POPC   C3A55541   7.445  26.792   7.050
 8729POPC   C4A55542   7.453  26.851   7.350
 8729POPC   C1B55543   7.643  26.885   6.450
 8729POPC   C2B55544   7.628  26.870   6.750
 8729POPC   C3B55545   7.677  26.902   7.050
 8729POPC   C4B55546   7.677  26.935   7.350
 8730POPC   NC355547  32.244  33.064   5.550
 8730POPC   PO455548  32.253  33.070   5.850
 8730POPC   GL155549  32.205  33.067   6.150
 8730POPC   GL255550  32.325  32.945   6.150
 8730POPC   C1A55551  32.234  33.048   6.450
 8730POPC   D2A55552  32.273  32.979   6.750
 8730POPC   C3A55553  32.248  33.056   7.050
 8730POPC   C4A55554  32.252  33.037   7.350
 8730POPC   C1B55555  32.404  32.880   6.450
 8730POPC   C2B55556  32.456  32.850   6.750
 8730POPC   C3B55557  32.456  32.857   7.050
 8730POPC   C4B55558  32.473  32.815   7.350
 8731POPC   NC355559  19.077   5.911   5.550
 8731POPC   PO455560  19.089   5.840   5.850
 8731POPC   GL155561  19.075   5.849   6.150
 8731POPC   GL255562  19.011   5.709   6.150
 8731POPC   C1A55563  19.044   5.857   6.450
 8731POPC   D2A55564  19.056   5.914   6.750
 8731POPC   C3A55565  19.067   5.890   7.050
 8731POPC   C4A55566  19.092   5.866   7.350
 8731POPC   C1B55567  18.998   5.651   6.450
 8731POPC   C2B55568  19.055   5.653   6.750
 8731POPC   C3B55569  19.084   5.581   7.050
 8731POPC   C4B55570  19.078   5.624   7.350
 8732POPC   NC355571   4.349  39.205   5.550
 8732POPC   PO455572   4.315  39.248   5.850
 8732POPC   GL155573   4.304  39.210   6.150
 8732POPC   GL255574   4.424  39.214   6.150
 8732POPC   C1A55575   4.293  39.183   6.450
 8732POPC   D2A55576   4.294  39.225   6.750
 8732POPC   C3A55577   4.308  39.232   7.050
 8732POPC   C4A55578   4.318  39.190   7.350
 8732POPC   C1B55579   4.578  39.111   6.450
 8732POPC   C2B55580   4.562  39.129   6.750
 8732POPC   C3B55581   4.574  39.112   7.050
 8732POPC   C4B55582   4.545  39.184   7.350
 8733POPC   NC355583  11.271  11.350   5.550
 8733POPC   PO455584  11.303  11.331   5.850
 8733POPC   GL155585  11.304  11.275   6.150
 8733POPC   GL255586  11.243  11.217   6.150
 8733POPC   C1A55587  11.334  11.299   6.450
 8733POPC   D2A55588  11.339  11.302   6.750
 8733POPC   C3A55589  11.332  11.332   7.050
 8733POPC   C4A55590  11.313  11.332   7.350
 8733POPC   C1B55591  11.234  11.054   6.450
 8733POPC   C2B55592  11.319  11.056   6.750
 8733POPC   C3B55593  11.322  11.007   7.050
 8733POPC   C4B55594  11.286  11.011   7.350
 8734POPC   NC355595  23.710  19.026   5.550
 8734POPC   PO455596  23.678  19.050   5.850
 8734POPC   GL155597  23.673  19.100   6.150
 8734POPC   GL255598  23.647  19.081   6.150
 8734POPC   C1A55599  23.695  19.104   6.450
 8734POPC   D2A55600  23.690  19.099   6.750
 8734POPC   C3A55601  23.684  19.060   7.050
 8734POPC   C4A55602  23.668  19.062   7.350
 8734POPC   C1B55603  23.465  19.222   6.450
 8734POPC   C2B55604  23.504  19.154   6.750
 8734POPC   C3B55605  23.457  19.236   7.050
 8734POPC   C4B55606  23.530  19.140   7.350
 8735POPC   NC355607  20.584   6.635   5.550
 8735POPC   PO455608  20.633   6.694   5.850
 8735POPC   GL155609  20.620   6.670   6.150
 8735POPC   GL255610  20.743   6.684   6.150
 8735POPC   C1A55611  20.642   6.614   6.450
 8735POPC   D2A55612  20.592   6.643   6.750
 8735POPC   C3A55613  20.657   6.622   7.050
 8735POPC   C4A55614  20.594   6.665   7.350
 8735POPC   C1B55615  20.856   6.708   6.450
 8735POPC   C2B55616  20.836   6.674   6.750
 8735POPC   C3B55617  20.894   6.745   7.050
 8735POPC   C4B55618  20.860   6.758   7.350
 8736POPC   NC355619   9.776  23.734   5.550
 8736POPC   PO455620   9.733  23.738   5.850
 8736POPC   GL155621   9.777  23.733   6.150
 8736POPC   GL255622   9.836  23.656   6.150
 8736POPC   C1A55623   9.767  23.751   6.450
 8736POPC   D2A55624   9.699  23.705   6.750
 8736POPC   C3A55625   9.751  23.720   7.050
 8736POPC   C4A55626   9.733  23.753   7.350
 8736POPC   C1B55627   9.883  23.474   6.450
 8736POPC   C2B55628   9.863  23.505   6.750
 8736POPC   C3B55629   9.859  23.493   7.050
 8736POPC   C4B55630   9.890  23.494   7.350
 8737POPC   NC355631  36.150   8.232   5.550
 8737POPC   PO455632  36.151   8.194   5.850
 8737POPC   GL155633  36.133   8.154   6.150
 8737POPC   GL255634  36.206   8.281   6.150
 8737POPC   C1A55635  36.122   8.161   6.450
 8737POPC   D2A55636  36.172   8.205   6.750
 8737POPC   C3A55637  36.166   8.214   7.050
 8737POPC   C4A55638  36.163   8.223   7.350
 8737POPC   C1B55639  36.356   8.292   6.450
 8737POPC   C2B55640  36.347   8.324   6.750
 8737POPC   C3B55641  36.377   8.279   7.050
 8737POPC   C4B55642  36.396   8.309   7.350
 8738POPC   NC355643   6.647  13.643   5.550
 8738POPC   PO455644   6.638  13.658   5.850
 8738POPC   GL155645   6.604  13.616   6.150
 8738POPC   GL255646   6.682  13.778   6.150
 8738POPC   C1A55647   6.650  13.608   6.450
 8738POPC   D2A55648   6.670  13.619   6.750
 8738POPC   C3A55649   6.673  13.618   7.050
 8738POPC   C4A55650   6.628  13.608   7.350
 8738POPC   C1B55651   6.655  13.863   6.450
 8738POPC   C2B55652   6.675  13.885   6.750
 8738POPC   C3B55653   6.729  13.916   7.050
 8738POPC   C4B55654   6.675  13.844   7.350
 8739POPC   NC355655   1.182  44.693   5.550
 8739POPC   PO455656   1.250  44.701   5.850
 8739POPC   GL155657   1.236  44.676   6.150
 8739POPC   GL255658   1.322  44.564   6.150
 8739POPC   C1A55659   1.263  44.700   6.450
 8739POPC   D2A55660   1.176  44.642   6.750
 8739POPC   C3A55661   1.256  44.641   7.050
 8739POPC   C4A55662   1.241  44.671   7.350
 8739POPC   C1B55663   1.463  44.547   6.450
 8739POPC   C2B55664   1.413  44.517   6.750
 8739POPC   C3B55665   1.436  44.470   7.050
 8739POPC   C4B55666   1.463  44.537   7.350
 8740POPC   NC355667  36.911  12.851   5.550
 8740POPC   PO455668  36.883  12.867   5.850
 8740POPC   GL155669  36.892  12.886   6.150
 8740POPC   GL255670  36.829  12.967   6.150
 8740POPC   C1A55671  36.912  12.854   6.450
 8740POPC   D2A55672  36.862  12.833   6.750
 8740POPC   C3A55673  36.919  12.900   7.050
 8740POPC   C4A55674  36.867  12.859   7.350
 8740POPC   C1B55675  36.758  13.093   6.450
 8740POPC   C2B55676  36.764  13.079   6.750
 8740POPC   C3B55677  36.731  13.061   7.050
 8740POPC   C4B55678  36.737  13.024   7.350
 8741POPC   NC355679   8.987  33.849   5.550
 8741POPC   PO455680   9.009  33.767   5.850
 8741POPC   GL155681   8.938  33.781   6.150
 8741POPC   GL255682   8.950  33.648   6.150
 8741POPC   C1A55683   8.944  33.840   6.450
 8741POPC   D2A55684   8.985  33.761   6.750
 8741POPC   C3A55685   9.008  33.769   7.050
 8741POPC   C4A55686   8.975  33.752   7.350
 8741POPC   C1B55687   9.048  33.575   6.450
 8741POPC   C2B55688   8.978  33.598   6.750
 8741POPC   C3B55689   9.037  33.548   7.050
 8741POPC   C4B55690   9.053  33.557   7.350
 8742POPC   NC355691  12.879  13.580   5.550
 8742POPC   PO455692  12.816  13.618   5.850
 8742POPC   GL155693  12.850  13.618   6.150
 8742POPC   GL255694  12.956  13.676   6.150
 8742POPC   C1A55695  12.878  13.619   6.450
 8742POPC   D2A55696  12.881  13.639   6.750
 8742POPC   C3A55697  12.802  13.670   7.050
 8742POPC   C4A55698  12.852  13.628   7.350
 8742POPC   C1B55699  13.061  13.606   6.450
 8742POPC   C2B55700  13.065  13.647   6.750
 8742POPC   C3B55701  13.110  13.649   7.050
 8742POPC   C4B55702  13.150  13.676   7.350
 8743POPC   NC355703  16.730   1.950   5.550
 8743POPC   PO455704  16.700   1.996   5.850
 8743POPC   GL155705  16.697   1.972   6.150
 8743POPC   GL255706  16.885   2.005   6.150
 8743POPC   C1A55707  16.761   1.986   6.450
 8743POPC   D2A55708  16.738   2.006   6.750
 8743POPC   C3A55709  16.734   1.995   7.050
 8743POPC   C4A55710  16.755   1.989   7.350
 8743POPC   C1B55711  16.929   1.926   6.450
 8743POPC   C2B55712  17.022   1.978   6.750
 8743POPC   C3B55713  17.023   1.914   7.050
 8743POPC   C4B55714  17.009   1.968   7.350
 8744POPC   NC355715   0.432  33.030   5.550
 8744POPC   PO455716   0.418  33.036   5.850
 8744POPC   GL155717   0.484  32.984   6.150
 8744POPC   GL255718   0.304  33.060   6.150
 8744POPC   C1A55719   0.468  33.001   6.450
 8744POPC   D2A55720   0.442  33.056   6.750
 8744POPC   C3A55721   0.444  33.057   7.050
 8744POPC   C4A55722   0.431  33.067   7.350
 8744POPC   C1B55723   0.184  33.047   6.450
 8744POPC   C2B55724   0.161  33.051   6.750
 8744POPC   C3B55725   0.226  33.067   7.050
 8744POPC   C4B55726   0.180  33.123   7.350
 8745POPC   NC355727  34.546  30.684   5.550
 8745POPC   PO455728  34.598  30.700   5.850
 8745POPC   GL155729  34.583  30.717   6.150
 8745POPC   GL255730  34.434  30.751   6.150
 8745POPC   C1A55731  34.579  30.737   6.450
 8745POPC   D2A55732  34.545  30.689   6.750
 8745POPC   C3A55733  34.600  30.656   7.050
 8745POPC   C4A55734  34.588  30.704   7.350
 8745POPC   C1B55735  34.371  30.848   6.450
 8745POPC   C2B55736  34.390  30.840   6.750
 8745POPC   C3B55737  34.401  30.815   7.050
 8745POPC   C4B55738  34.397  30.808   7.350
 8746POPC   NC355739  35.321  18.306   5.550
 8746POPC   PO455740  35.331  18.297   5.850
 8746POPC   GL155741  35.365  18.330   6.150
 8746POPC   GL255742  35.490  18.175   6.150
 8746POPC   C1A55743  35.335  18.270   6.450
 8746POPC   D2A55744  35.399  18.299   6.750
 8746POPC   C3A55745  35.336  18.237   7.050
 8746POPC   C4A55746  35.359  18.251   7.350
 8746POPC   C1B55747  35.564  18.115   6.450
 8746POPC   C2B55748  35.560  18.109   6.750
 8746POPC   C3B55749  35.585  18.100   7.050
 8746POPC   C4B55750  35.508  18.104   7.350
 8747POPC   NC355751  26.040   3.569   5.550
 8747POPC   PO455752  26.026   3.578   5.850
 8747POPC   GL155753  26.015   3.570   6.150
 8747POPC   GL255754  26.065   3.426   6.150
 8747POPC   C1A55755  25.994   3.580   6.450
 8747POPC   D2A55756  26.082   3.571   6.750
 8747POPC   C3A55757  26.045   3.591   7.050
 8747POPC   C4A55758  25.994   3.530   7.350
 8747POPC   C1B55759  25.991   3.299   6.450
 8747POPC   C2B55760  26.033   3.249   6.750
 8747POPC   C3B55761  26.025   3.279   7.050
 8747POPC   C4B55762  26.034   3.306   7.350
 8748POPC   NC355763  44.663  38.450   5.550
 8748POPC   PO455764  44.643  38.421   5.850
 8748POPC   GL155765  44.698  38.493   6.150
 8748POPC   GL255766  44.657  38.543   6.150
 8748POPC   C1A55767  44.612  38.430   6.450
 8748POPC   D2A55768  44.620  38.457   6.750
 8748POPC   C3A55769  44.617  38.408   7.050
 8748POPC   C4A55770  44.698  38.485   7.350
 8748POPC   C1B55771  44.567  38.665   6.450
 8748POPC   C2B55772  44.536  38.669   6.750
 8748POPC   C3B55773  44.522  38.695   7.050
 8748POPC   C4B55774  44.535  38.677   7.350
 8749POPC   NC355775  23.748  15.968   5.550
 8749POPC   PO455776  23.711  15.958   5.850
 8749POPC   GL155777  23.740  15.912   6.150
 8749POPC   GL255778  23.821  16.071   6.150
 8749POPC   C1A55779  23.722  15.941   6.450
 8749POPC   D2A55780  23.724  15.925   6.750
 8749POPC   C3A55781  23.738  15.985   7.050
 8749POPC   C4A55782  23.699  15.956   7.350
 8749POPC   C1B55783  23.931  16.086   6.450
 8749POPC   C2B55784  23.907  16.139   6.750
 8749POPC   C3B55785  23.947  16.056   7.050
 8749POPC   C4B55786  23.962  16.089   7.350
 8750POPC   NC355787  16.686  35.396   5.550
 8750POPC   PO455788  16.694  35.362   5.850
 8750POPC   GL155789  16.761  35.324   6.150
 8750POPC   GL255790  16.679  35.276   6.150
 8750POPC   C1A55791  16.723  35.305   6.450
 8750POPC   D2A55792  16.746  35.364   6.750
 8750POPC   C3A55793  16.779  35.303   7.050
 8750POPC   C4A55794  16.706  35.313   7.350
 8750POPC   C1B55795  16.608  35.094   6.450
 8750POPC   C2B55796  16.660  35.133   6.750
 8750POPC   C3B55797  16.621  35.099   7.050
 8750POPC   C4B55798  16.610  35.131   7.350
 8751POPC   NC355799  11.278  21.408   5.550
 8751POPC   PO455800  11.285  21.394   5.850
 8751POPC   GL155801  11.311  21.369   6.150
 8751POPC   GL255802  11.230  21.443   6.150
 8751POPC   C1A55803  11.343  21.357   6.450
 8751POPC   D2A55804  11.285  21.344   6.750
 8751POPC   C3A55805  11.349  21.383   7.050
 8751POPC   C4A55806  11.264  21.353   7.350
 8751POPC   C1B55807  11.119  21.472   6.450
 8751POPC   C2B55808  11.136  21.556   6.750
 8751POPC   C3B55809  11.054  21.554   7.050
 8751POPC   C4B55810  11.078  21.490   7.350
 8752POPC   NC355811   5.104  40.763   5.550
 8752POPC   PO455812   5.121  40.769   5.850
 8752POPC   GL155813   5.116  40.814   6.150
 8752POPC   GL255814   4.986  40.866   6.150
 8752POPC   C1A55815   5.114  40.824   6.450
 8752POPC   D2A55816   5.074  40.816   6.750
 8752POPC   C3A55817   5.053  40.791   7.050
 8752POPC   C4A55818   5.045  40.791   7.350
 8752POPC   C1B55819   4.865  40.918   6.450
 8752POPC   C2B55820   4.958  40.928   6.750
 8752POPC   C3B55821   4.907  40.904   7.050
 8752POPC   C4B55822   4.942  40.971   7.350
 8753POPC   NC355823  19.838  23.685   5.550
 8753POPC   PO455824  19.858  23.705   5.850
 8753POPC   GL155825  19.848  23.707   6.150
 8753POPC   GL255826  19.984  23.736   6.150
 8753POPC   C1A55827  19.865  23.760   6.450
 8753POPC   D2A55828  19.841  23.731   6.750
 8753POPC   C3A55829  19.856  23.737   7.050
 8753POPC   C4A55830  19.866  23.752   7.350
 8753POPC   C1B55831  20.000  23.871   6.450
 8753POPC   C2B55832  20.074  23.813   6.750
 8753POPC   C3B55833  20.039  23.897   7.050
 8753POPC   C4B55834  20.053  23.813   7.350
 8754POPC   NC355835  30.736  23.695   5.550
 8754POPC   PO455836  30.648  23.704   5.850
 8754POPC   GL155837  30.721  23.752   6.150
 8754POPC   GL255838  30.527  23.702   6.150
 8754POPC   C1A55839  30.684  23.728   6.450
 8754POPC   D2A55840  30.745  23.762   6.750
 8754POPC   C3A55841  30.686  23.756   7.050
 8754POPC   C4A55842  30.648  23.761   7.350
 8754POPC   C1B55843  30.496  23.687   6.450
 8754POPC   C2B55844  30.427  23.748   6.750
 8754POPC   C3B55845  30.470  23.761   7.050
 8754POPC   C4B55846  30.421  23.728   7.350
 8755POPC   NC355847  32.207  26.051   5.550
 8755POPC   PO455848  32.228  26.052   5.850
 8755POPC   GL155849  32.282  26.034   6.150
 8755POPC   GL255850  32.285  26.092   6.150
 8755POPC   C1A55851  32.263  26.061   6.450
 8755POPC   D2A55852  32.233  26.022   6.750
 8755POPC   C3A55853  32.274  26.089   7.050
 8755POPC   C4A55854  32.227  26.000   7.350
 8755POPC   C1B55855  32.430  26.272   6.450
 8755POPC   C2B55856  32.389  26.220   6.750
 8755POPC   C3B55857  32.430  26.230   7.050
 8755POPC   C4B55858  32.428  26.282   7.350
 8756POPC   NC355859   2.791  33.047   5.550
 8756POPC   PO455860   2.718  33.002   5.850
 8756POPC   GL155861   2.758  33.034   6.150
 8756POPC   GL255862   2.668  32.939   6.150
 8756POPC   C1A55863   2.769  33.032   6.450
 8756POPC   D2A55864   2.779  33.045   6.750
 8756POPC   C3A55865   2.771  33.007   7.050
 8756POPC   C4A55866   2.759  32.978   7.350
 8756POPC   C1B55867   2.603  32.870   6.450
 8756POPC   C2B55868   2.567  32.899   6.750
 8756POPC   C3B55869   2.539  32.897   7.050
 8756POPC   C4B55870   2.518  32.854   7.350
 8757POPC   NC355871  15.149  14.425   5.550
 8757POPC   PO455872  15.208  14.439   5.850
 8757POPC   GL155873  15.142  14.415   6.150
 8757POPC   GL255874  15.250  14.502   6.150
 8757POPC   C1A55875  15.226  14.366   6.450
 8757POPC   D2A55876  15.202  14.357   6.750
 8757POPC   C3A55877  15.165  14.357   7.050
 8757POPC   C4A55878  15.155  14.386   7.350
 8757POPC   C1B55879  15.267  14.588   6.450
 8757POPC   C2B55880  15.298  14.611   6.750
 8757POPC   C3B55881  15.259  14.656   7.050
 8757POPC   C4B55882  15.338  14.662   7.350
 8758POPC   NC355883  36.927  21.353   5.550
 8758POPC   PO455884  36.872  21.418   5.850
 8758POPC   GL155885  36.864  21.372   6.150
 8758POPC   GL255886  36.847  21.441   6.150
 8758POPC   C1A55887  36.928  21.358   6.450
 8758POPC   D2A55888  36.876  21.363   6.750
 8758POPC   C3A55889  36.869  21.419   7.050
 8758POPC   C4A55890  36.907  21.379   7.350
 8758POPC   C1B55891  36.809  21.577   6.450
 8758POPC   C2B55892  36.741  21.601   6.750
 8758POPC   C3B55893  36.782  21.640   7.050
 8758POPC   C4B55894  36.767  21.556   7.350
 8759POPC   NC355895  34.623  11.272   5.550
 8759POPC   PO455896  34.552  11.266   5.850
 8759POPC   GL155897  34.529  11.321   6.150
 8759POPC   GL255898  34.657  11.379   6.150
 8759POPC   C1A55899  34.610  11.261   6.450
 8759POPC   D2A55900  34.620  11.261   6.750
 8759POPC   C3A55901  34.546  11.324   7.050
 8759POPC   C4A55902  34.548  11.347   7.350
 8759POPC   C1B55903  34.774  11.399   6.450
 8759POPC   C2B55904  34.783  11.363   6.750
 8759POPC   C3B55905  34.770  11.375   7.050
 8759POPC   C4B55906  34.820  11.366   7.350
 8760POPC   NC355907  18.235  29.933   5.550
 8760POPC   PO455908  18.257  29.926   5.850
 8760POPC   GL155909  18.331  29.910   6.150
 8760POPC   GL255910  18.318  30.046   6.150
 8760POPC   C1A55911  18.305  29.890   6.450
 8760POPC   D2A55912  18.281  29.966   6.750
 8760POPC   C3A55913  18.318  29.892   7.050
 8760POPC   C4A55914  18.302  29.941   7.350
 8760POPC   C1B55915  18.369  30.097   6.450
 8760POPC   C2B55916  18.394  30.146   6.750
 8760POPC   C3B55917  18.390  30.179   7.050
 8760POPC   C4B55918  18.393  30.103   7.350
 8761POPC   NC355919  26.781  26.825   5.550
 8761POPC   PO455920  26.790  26.858   5.850
 8761POPC   GL155921  26.769  26.822   6.150
 8761POPC   GL255922  26.742  26.737   6.150
 8761POPC   C1A55923  26.776  26.781   6.450
 8761POPC   D2A55924  26.842  26.786   6.750
 8761POPC   C3A55925  26.787  26.796   7.050
 8761POPC   C4A55926  26.866  26.839   7.350
 8761POPC   C1B55927  26.575  26.736   6.450
 8761POPC   C2B55928  26.585  26.708   6.750
 8761POPC   C3B55929  26.619  26.753   7.050
 8761POPC   C4B55930  26.642  26.687   7.350
 8762POPC   NC355931  16.758  43.094   5.550
 8762POPC   PO455932  16.769  43.143   5.850
 8762POPC   GL155933  16.681  43.088   6.150
 8762POPC   GL255934  16.756  42.989   6.150
 8762POPC   C1A55935  16.699  43.156   6.450
 8762POPC   D2A55936  16.703  43.101   6.750
 8762POPC   C3A55937  16.748  43.159   7.050
 8762POPC   C4A55938  16.704  43.127   7.350
 8762POPC   C1B55939  16.762  42.854   6.450
 8762POPC   C2B55940  16.750  42.832   6.750
 8762POPC   C3B55941  16.824  42.899   7.050
 8762POPC   C4B55942  16.801  42.897   7.350
 8763POPC   NC355943  29.951   0.430   5.550
 8763POPC   PO455944  29.903   0.482   5.850
 8763POPC   GL155945  29.928   0.406   6.150
 8763POPC   GL255946  29.786   0.522   6.150
 8763POPC   C1A55947  29.913   0.446   6.450
 8763POPC   D2A55948  29.946   0.447   6.750
 8763POPC   C3A55949  29.941   0.461   7.050
 8763POPC   C4A55950  29.921   0.427   7.350
 8763POPC   C1B55951  29.737   0.642   6.450
 8763POPC   C2B55952  29.761   0.635   6.750
 8763POPC   C3B55953  29.746   0.564   7.050
 8763POPC   C4B55954  29.723   0.603   7.350
 8764POPC   NC355955  39.183   9.796   5.550
 8764POPC   PO455956  39.223   9.771   5.850
 8764POPC   GL155957  39.183   9.775   6.150
 8764POPC   GL255958  39.264   9.897   6.150
 8764POPC   C1A55959  39.217   9.790   6.450
 8764POPC   D2A55960  39.252   9.752   6.750
 8764POPC   C3A55961  39.220   9.791   7.050
 8764POPC   C4A55962  39.270   9.714   7.350
 8764POPC   C1B55963  39.310   9.938   6.450
 8764POPC   C2B55964  39.304   9.999   6.750
 8764POPC   C3B55965  39.383   9.967   7.050
 8764POPC   C4B55966  39.352   9.992   7.350
 8765POPC   NC355967   1.946   7.435   5.550
 8765POPC   PO455968   1.964   7.462   5.850
 8765POPC   GL155969   2.002   7.458   6.150
 8765POPC   GL255970   1.902   7.428   6.150
 8765POPC   C1A55971   2.037   7.422   6.450
 8765POPC   D2A55972   2.036   7.383   6.750
 8765POPC   C3A55973   1.978   7.402   7.050
 8765POPC   C4A55974   1.974   7.424   7.350
 8765POPC   C1B55975   1.713   7.373   6.450
 8765POPC   C2B55976   1.707   7.373   6.750
 8765POPC   C3B55977   1.722   7.385   7.050
 8765POPC   C4B55978   1.745   7.367   7.350
 8766POPC   NC355979  43.869  20.647   5.550
 8766POPC   PO455980  43.893  20.647   5.850
 8766POPC   GL155981  43.858  20.628   6.150
 8766POPC   GL255982  43.885  20.701   6.150
 8766POPC   C1A55983  43.837  20.601   6.450
 8766POPC   D2A55984  43.862  20.632   6.750
 8766POPC   C3A55985  43.857  20.614   7.050
 8766POPC   C4A55986  43.839  20.565   7.350
 8766POPC   C1B55987  43.737  20.840   6.450
 8766POPC   C2B55988  43.793  20.832   6.750
 8766POPC   C3B55989  43.811  20.864   7.050
 8766POPC   C4B55990  43.754  20.803   7.350
 8767POPC   NC355991  38.495   5.913   5.550
 8767POPC   PO455992  38.446   5.912   5.850
 8767POPC   GL155993  38.502   5.861   6.150
 8767POPC   GL255994  38.332   5.790   6.150
 8767POPC   C1A55995  38.414   5.889   6.450
 8767POPC   D2A55996  38.486   5.842   6.750
 8767POPC   C3A55997  38.443   5.903   7.050
 8767POPC   C4A55998  38.504   5.873   7.350
 8767POPC   C1B55999  38.280   5.723   6.450
 8767POPC   C2B56000  38.250   5.713   6.750
 8767POPC   C3B56001  38.263   5.703   7.050
 8767POPC   C4B56002  38.277   5.702   7.350
 8768POPC   NC356003  37.641  30.688   5.550
 8768POPC   PO456004  37.713  30.718   5.850
 8768POPC   GL156005  37.633  30.651   6.150
 8768POPC   GL256006  37.726  30.791   6.150
 8768POPC   C1A56007  37.700  30.650   6.450
 8768POPC   D2A56008  37.652  30.668   6.750
 8768POPC   C3A56009  37.707  30.699   7.050
 8768POPC   C4A56010  37.636  30.726   7.350
 8768POPC   C1B56011  37.697  30.891   6.450
 8768POPC   C2B56012  37.708  30.935   6.750
 8768POPC   C3B56013  37.710  30.935   7.050
 8768POPC   C4B56014  37.735  30.910   7.350
 8769POPC   NC356015   2.035  19.083   5.550
 8769POPC   PO456016   1.973  19.086   5.850
 8769POPC   GL156017   1.986  19.071   6.150
 8769POPC   GL256018   1.881  19.178   6.150
 8769POPC   C1A56019   2.009  19.010   6.450
 8769POPC   D2A56020   2.023  19.022   6.750
 8769POPC   C3A56021   2.025  19.043   7.050
 8769POPC   C4A56022   1.942  19.103   7.350
 8769POPC   C1B56023   1.765  19.244   6.450
 8769POPC   C2B56024   1.788  19.254   6.750
 8769POPC   C3B56025   1.793  19.210   7.050
 8769POPC   C4B56026   1.811  19.233   7.350
 8770POPC   NC356027  22.903  22.178   5.550
 8770POPC   PO456028  22.922  22.118   5.850
 8770POPC   GL156029  22.916  22.172   6.150
 8770POPC   GL256030  22.812  22.151   6.150
 8770POPC   C1A56031  22.940  22.203   6.450
 8770POPC   D2A56032  22.926  22.209   6.750
 8770POPC   C3A56033  22.936  22.165   7.050
 8770POPC   C4A56034  22.932  22.202   7.350
 8770POPC   C1B56035  22.665  22.140   6.450
 8770POPC   C2B56036  22.696  22.139   6.750
 8770POPC   C3B56037  22.708  22.155   7.050
 8770POPC   C4B56038  22.706  22.192   7.350
 8771POPC   NC356039  37.695   2.749   5.550
 8771POPC   PO456040  37.678   2.768   5.850
 8771POPC   GL156041  37.631   2.763   6.150
 8771POPC   GL256042  37.764   2.647   6.150
 8771POPC   C1A56043  37.725   2.774   6.450
 8771POPC   D2A56044  37.708   2.732   6.750
 8771POPC   C3A56045  37.698   2.796   7.050
 8771POPC   C4A56046  37.728   2.799   7.350
 8771POPC   C1B56047  37.889   2.610   6.450
 8771POPC   C2B56048  37.858   2.574   6.750
 8771POPC   C3B56049  37.848   2.556   7.050
 8771POPC   C4B56050  37.857   2.614   7.350
 8772POPC   NC356051   5.844   0.443   5.550
 8772POPC   PO456052   5.870   0.404   5.850
 8772POPC   GL156053   5.835   0.389   6.150
 8772POPC   GL256054   5.895   0.594   6.150
 8772POPC   C1A56055   5.884   0.431   6.450
 8772POPC   D2A56056   5.857   0.400   6.750
 8772POPC   C3A56057   5.866   0.416   7.050
 8772POPC   C4A56058   5.915   0.469   7.350
 8772POPC   C1B56059   5.900   0.634   6.450
 8772POPC   C2B56060   5.890   0.647   6.750
 8772POPC   C3B56061   5.968   0.635   7.050
 8772POPC   C4B56062   5.961   0.710   7.350
 8773POPC   NC356063  30.690  34.556   5.550
 8773POPC   PO456064  30.685  34.539   5.850
 8773POPC   GL156065  30.717  34.614   6.150
 8773POPC   GL256066  30.827  34.448   6.150
 8773POPC   C1A56067  30.725  34.582   6.450
 8773POPC   D2A56068  30.667  34.575   6.750
 8773POPC   C3A56069  30.691  34.581   7.050
 8773POPC   C4A56070  30.673  34.538   7.350
 8773POPC   C1B56071  30.903  34.422   6.450
 8773POPC   C2B56072  30.867  34.386   6.750
 8773POPC   C3B56073  30.867  34.397   7.050
 8773POPC   C4B56074  30.901  34.401   7.350
 8774POPC   NC356075  17.543  43.919   5.550
 8774POPC   PO456076  17.518  43.864   5.850
 8774POPC   GL156077  17.458  43.935   6.150
 8774POPC   GL256078  17.413  43.912   6.150
 8774POPC   C1A56079  17.457  43.860   6.450
 8774POPC   D2A56080  17.548  43.891   6.750
 8774POPC   C3A56081  17.504  43.871   7.050
 8774POPC   C4A56082  17.513  43.888   7.350
 8774POPC   C1B56083  17.286  43.990   6.450
 8774POPC   C2B56084  17.292  43.969   6.750
 8774POPC   C3B56085  17.271  43.939   7.050
 8774POPC   C4B56086  17.275  43.993   7.350
 8775POPC   NC356087  25.233  12.839   5.550
 8775POPC   PO456088  25.238  12.830   5.850
 8775POPC   GL156089  25.267  12.835   6.150
 8775POPC   GL256090  25.281  12.975   6.150
 8775POPC   C1A56091  25.277  12.850   6.450
 8775POPC   D2A56092  25.232  12.844   6.750
 8775POPC   C3A56093  25.226  12.803   7.050
 8775POPC   C4A56094  25.311  12.849   7.350
 8775POPC   C1B56095  25.257  13.071   6.450
 8775POPC   C2B56096  25.272  13.065   6.750
 8775POPC   C3B56097  25.225  13.060   7.050
 8775POPC   C4B56098  25.255  13.142   7.350
 8776POPC   NC356099  32.201  36.867   5.550
 8776POPC   PO456100  32.219  36.922   5.850
 8776POPC   GL156101  32.250  36.933   6.150
 8776POPC   GL256102  32.288  37.036   6.150
 8776POPC   C1A56103  32.221  36.932   6.450
 8776POPC   D2A56104  32.231  36.930   6.750
 8776POPC   C3A56105  32.246  36.854   7.050
 8776POPC   C4A56106  32.294  36.947   7.350
 8776POPC   C1B56107  32.394  37.093   6.450
 8776POPC   C2B56108  32.328  37.111   6.750
 8776POPC   C3B56109  32.380  37.143   7.050
 8776POPC   C4B56110  32.368  37.139   7.350
 8777POPC   NC356111  12.110  26.770   5.550
 8777POPC   PO456112  12.103  26.804   5.850
 8777POPC   GL156113  12.050  26.854   6.150
 8777POPC   GL256114  11.973  26.732   6.150
 8777POPC   C1A56115  12.074  26.808   6.450
 8777POPC   D2A56116  12.087  26.781   6.750
 8777POPC   C3A56117  12.077  26.768   7.050
 8777POPC   C4A56118  12.047  26.774   7.350
 8777POPC   C1B56119  11.906  26.597   6.450
 8777POPC   C2B56120  11.879  26.678   6.750
 8777POPC   C3B56121  11.898  26.660   7.050
 8777POPC   C4B56122  11.905  26.639   7.350
 8778POPC   NC356123  16.757  33.755   5.550
 8778POPC   PO456124  16.758  33.768   5.850
 8778POPC   GL156125  16.747  33.772   6.150
 8778POPC   GL256126  16.600  33.723   6.150
 8778POPC   C1A56127  16.701  33.788   6.450
 8778POPC   D2A56128  16.738  33.824   6.750
 8778POPC   C3A56129  16.693  33.778   7.050
 8778POPC   C4A56130  16.750  33.754   7.350
 8778POPC   C1B56131  16.534  33.638   6.450
 8778POPC   C2B56132  16.521  33.631   6.750
 8778POPC   C3B56133  16.526  33.622   7.050
 8778POPC   C4B56134  16.568  33.639   7.350
 8779POPC   NC356135   9.000  22.201   5.550
 8779POPC   PO456136   8.989  22.134   5.850
 8779POPC   GL156137   9.015  22.160   6.150
 8779POPC   GL256138   8.963  22.018   6.150
 8779POPC   C1A56139   8.929  22.131   6.450
 8779POPC   D2A56140   8.946  22.191   6.750
 8779POPC   C3A56141   8.932  22.128   7.050
 8779POPC   C4A56142   9.022  22.168   7.350
 8779POPC   C1B56143   8.998  21.903   6.450
 8779POPC   C2B56144   8.974  21.875   6.750
 8779POPC   C3B56145   8.983  21.895   7.050
 8779POPC   C4B56146   8.954  21.890   7.350
 8780POPC   NC356147  44.683   2.775   5.550
 8780POPC   PO456148  44.656   2.756   5.850
 8780POPC   GL156149  44.667   2.749   6.150
 8780POPC   GL256150  44.531   2.727   6.150
 8780POPC   C1A56151  44.674   2.773   6.450
 8780POPC   D2A56152  44.665   2.729   6.750
 8780POPC   C3A56153  44.682   2.732   7.050
 8780POPC   C4A56154  44.679   2.738   7.350
 8780POPC   C1B56155  44.460   2.723   6.450
 8780POPC   C2B56156  44.436   2.669   6.750
 8780POPC   C3B56157  44.379   2.658   7.050
 8780POPC   C4B56158  44.449   2.705   7.350
 8781POPC   NC356159   8.976  14.382   5.550
 8781POPC   PO456160   8.946  14.413   5.850
 8781POPC   GL156161   9.020  14.381   6.150
 8781POPC   GL256162   9.127  14.398   6.150
 8781POPC   C1A56163   8.970  14.383   6.450
 8781POPC   D2A56164   8.951  14.423   6.750
 8781POPC   C3A56165   8.947  14.446   7.050
 8781POPC   C4A56166   8.952  14.441   7.350
 8781POPC   C1B56167   9.213  14.469   6.450
 8781POPC   C2B56168   9.199  14.526   6.750
 8781POPC   C3B56169   9.239  14.520   7.050
 8781POPC   C4B56170   9.179  14.490   7.350
 8782POPC   NC356171  40.736  39.970   5.550
 8782POPC   PO456172  40.817  39.967   5.850
 8782POPC   GL156173  40.814  40.017   6.150
 8782POPC   GL256174  40.697  40.114   6.150
 8782POPC   C1A56175  40.782  40.010   6.450
 8782POPC   D2A56176  40.774  40.022   6.750
 8782POPC   C3A56177  40.811  39.966   7.050
 8782POPC   C4A56178  40.823  40.007   7.350
 8782POPC   C1B56179  40.652  40.240   6.450
 8782POPC   C2B56180  40.643  40.234   6.750
 8782POPC   C3B56181  40.705  40.229   7.050
 8782POPC   C4B56182  40.684  40.216   7.350
 8783POPC   NC356183  27.567  31.505   5.550
 8783POPC   PO456184  27.588  31.453   5.850
 8783POPC   GL156185  27.624  31.490   6.150
 8783POPC   GL256186  27.641  31.588   6.150
 8783POPC   C1A56187  27.592  31.424   6.450
 8783POPC   D2A56188  27.552  31.446   6.750
 8783POPC   C3A56189  27.572  31.441   7.050
 8783POPC   C4A56190  27.585  31.491   7.350
 8783POPC   C1B56191  27.610  31.679   6.450
 8783POPC   C2B56192  27.638  31.749   6.750
 8783POPC   C3B56193  27.572  31.737   7.050
 8783POPC   C4B56194  27.572  31.746   7.350
 8784POPC   NC356195   0.403   7.413   5.550
 8784POPC   PO456196   0.402   7.464   5.850
 8784POPC   GL156197   0.411   7.390   6.150
 8784POPC   GL256198   0.394   7.352   6.150
 8784POPC   C1A56199   0.479   7.435   6.450
 8784POPC   D2A56200   0.413   7.469   6.750
 8784POPC   C3A56201   0.429   7.374   7.050
 8784POPC   C4A56202   0.479   7.372   7.350
 8784POPC   C1B56203   0.296   7.244   6.450
 8784POPC   C2B56204   0.346   7.217   6.750
 8784POPC   C3B56205   0.370   7.218   7.050
 8784POPC   C4B56206   0.313   7.189   7.350
 8785POPC   NC356207  23.718   9.764   5.550
 8785POPC   PO456208  23.665   9.789   5.850
 8785POPC   GL156209  23.743   9.715   6.150
 8785POPC   GL256210  23.595   9.750   6.150
 8785POPC   C1A56211  23.686   9.722   6.450
 8785POPC   D2A56212  23.720   9.734   6.750
 8785POPC   C3A56213  23.712   9.751   7.050
 8785POPC   C4A56214  23.666   9.792   7.350
 8785POPC   C1B56215  23.438   9.813   6.450
 8785POPC   C2B56216  23.517   9.861   6.750
 8785POPC   C3B56217  23.456   9.815   7.050
 8785POPC   C4B56218  23.506   9.876   7.350
 8786POPC   NC356219  22.912  33.821   5.550
 8786POPC   PO456220  22.943  33.750   5.850
 8786POPC   GL156221  22.901  33.825   6.150
 8786POPC   GL256222  22.941  33.956   6.150
 8786POPC   C1A56223  22.914  33.785   6.450
 8786POPC   D2A56224  22.922  33.843   6.750
 8786POPC   C3A56225  22.949  33.826   7.050
 8786POPC   C4A56226  22.947  33.838   7.350
 8786POPC   C1B56227  22.916  34.079   6.450
 8786POPC   C2B56228  22.935  34.094   6.750
 8786POPC   C3B56229  22.902  34.098   7.050
 8786POPC   C4B56230  22.904  34.050   7.350
 8787POPC   NC356231  40.019  17.549   5.550
 8787POPC   PO456232  39.998  17.543   5.850
 8787POPC   GL156233  39.984  17.528   6.150
 8787POPC   GL256234  39.917  17.494   6.150
 8787POPC   C1A56235  39.985  17.518   6.450
 8787POPC   D2A56236  39.960  17.459   6.750
 8787POPC   C3A56237  40.028  17.498   7.050
 8787POPC   C4A56238  40.023  17.529   7.350
 8787POPC   C1B56239  39.819  17.392   6.450
 8787POPC   C2B56240  39.748  17.421   6.750
 8787POPC   C3B56241  39.733  17.384   7.050
 8787POPC   C4B56242  39.736  17.472   7.350
 8788POPC   NC356243  11.328  17.509   5.550
 8788POPC   PO456244  11.263  17.481   5.850
 8788POPC   GL156245  11.310  17.485   6.150
 8788POPC   GL256246  11.342  17.635   6.150
 8788POPC   C1A56247  11.332  17.478   6.450
 8788POPC   D2A56248  11.305  17.538   6.750
 8788POPC   C3A56249  11.338  17.514   7.050
 8788POPC   C4A56250  11.279  17.495   7.350
 8788POPC   C1B56251  11.468  17.731   6.450
 8788POPC   C2B56252  11.430  17.679   6.750
 8788POPC   C3B56253  11.486  17.716   7.050
 8788POPC   C4B56254  11.403  17.669   7.350
 8789POPC   NC356255   6.640  38.486   5.550
 8789POPC   PO456256   6.683  38.498   5.850
 8789POPC   GL156257   6.642  38.489   6.150
 8789POPC   GL256258   6.564  38.435   6.150
 8789POPC   C1A56259   6.638  38.418   6.450
 8789POPC   D2A56260   6.626  38.433   6.750
 8789POPC   C3A56261   6.627  38.473   7.050
 8789POPC   C4A56262   6.674  38.442   7.350
 8789POPC   C1B56263   6.415  38.432   6.450
 8789POPC   C2B56264   6.416  38.391   6.750
 8789POPC   C3B56265   6.440  38.419   7.050
 8789POPC   C4B56266   6.400  38.410   7.350
 8790POPC   NC356267  16.761  26.864   5.550
 8790POPC   PO456268  16.771  26.770   5.850
 8790POPC   GL156269  16.698  26.776   6.150
 8790POPC   GL256270  16.793  26.678   6.150
 8790POPC   C1A56271  16.776  26.823   6.450
 8790POPC   D2A56272  16.717  26.817   6.750
 8790POPC   C3A56273  16.734  26.843   7.050
 8790POPC   C4A56274  16.767  26.770   7.350
 8790POPC   C1B56275  16.751  26.577   6.450
 8790POPC   C2B56276  16.765  26.597   6.750
 8790POPC   C3B56277  16.824  26.596   7.050
 8790POPC   C4B56278  16.850  26.557   7.350
 8791POPC   NC356279  20.623  43.149   5.550
 8791POPC   PO456280  20.569  43.077   5.850
 8791POPC   GL156281  20.599  43.130   6.150
 8791POPC   GL256282  20.623  42.969   6.150
 8791POPC   C1A56283  20.639  43.130   6.450
 8791POPC   D2A56284  20.573  43.063   6.750
 8791POPC   C3A56285  20.593  43.112   7.050
 8791POPC   C4A56286  20.624  43.089   7.350
 8791POPC   C1B56287  20.572  42.891   6.450
 8791POPC   C2B56288  20.542  42.877   6.750
 8791POPC   C3B56289  20.531  42.823   7.050
 8791POPC   C4B56290  20.529  42.827   7.350
 8792POPC   NC356291   6.668  22.200   5.550
 8792POPC   PO456292   6.603  22.119   5.850
 8792POPC   GL156293   6.676  22.135   6.150
 8792POPC   GL256294   6.635  22.249   6.150
 8792POPC   C1A56295   6.681  22.145   6.450
 8792POPC   D2A56296   6.622  22.177   6.750
 8792POPC   C3A56297   6.691  22.198   7.050
 8792POPC   C4A56298   6.666  22.160   7.350
 8792POPC   C1B56299   6.683  22.448   6.450
 8792POPC   C2B56300   6.716  22.405   6.750
 8792POPC   C3B56301   6.681  22.404   7.050
 8792POPC   C4B56302   6.672  22.393   7.350
 8793POPC   NC356303   6.671   2.026   5.550
 8793POPC   PO456304   6.652   1.991   5.850
 8793POPC   GL156305   6.649   2.008   6.150
 8793POPC   GL256306   6.539   2.027   6.150
 8793POPC   C1A56307   6.681   1.968   6.450
 8793POPC   D2A56308   6.600   2.038   6.750
 8793POPC   C3A56309   6.634   1.940   7.050
 8793POPC   C4A56310   6.678   2.017   7.350
 8793POPC   C1B56311   6.403   2.037   6.450
 8793POPC   C2B56312   6.386   2.023   6.750
 8793POPC   C3B56313   6.373   2.040   7.050
 8793POPC   C4B56314   6.362   1.948   7.350
 8794POPC   NC356315  15.996  20.582   5.550
 8794POPC   PO456316  15.946  20.582   5.850
 8794POPC   GL156317  15.934  20.610   6.150
 8794POPC   GL256318  16.054  20.651   6.150
 8794POPC   C1A56319  15.926  20.658   6.450
 8794POPC   D2A56320  15.922  20.601   6.750
 8794POPC   C3A56321  15.960  20.589   7.050
 8794POPC   C4A56322  15.980  20.600   7.350
 8794POPC   C1B56323  16.193  20.773   6.450
 8794POPC   C2B56324  16.114  20.723   6.750
 8794POPC   C3B56325  16.184  20.765   7.050
 8794POPC   C4B56326  16.166  20.779   7.350
 8795POPC   NC356327  42.353   7.424   5.550
 8795POPC   PO456328  42.288   7.415   5.850
 8795POPC   GL156329  42.370   7.377   6.150
 8795POPC   GL256330  42.268   7.280   6.150
 8795POPC   C1A56331  42.302   7.421   6.450
 8795POPC   D2A56332  42.346   7.431   6.750
 8795POPC   C3A56333  42.340   7.445   7.050
 8795POPC   C4A56334  42.372   7.406   7.350
 8795POPC   C1B56335  42.257   7.201   6.450
 8795POPC   C2B56336  42.199   7.174   6.750
 8795POPC   C3B56337  42.191   7.192   7.050
 8795POPC   C4B56338  42.209   7.169   7.350
 8796POPC   NC356339  27.554  14.378   5.550
 8796POPC   PO456340  27.640  14.394   5.850
 8796POPC   GL156341  27.589  14.439   6.150
 8796POPC   GL256342  27.649  14.274   6.150
 8796POPC   C1A56343  27.586  14.373   6.450
 8796POPC   D2A56344  27.549  14.422   6.750
 8796POPC   C3A56345  27.550  14.444   7.050
 8796POPC   C4A56346  27.637  14.395   7.350
 8796POPC   C1B56347  27.606  14.145   6.450
 8796POPC   C2B56348  27.613  14.168   6.750
 8796POPC   C3B56349  27.664  14.135   7.050
 8796POPC   C4B56350  27.646  14.151   7.350
 8797POPC   NC356351  19.845  34.549   5.550
 8797POPC   PO456352  19.882  34.531   5.850
 8797POPC   GL156353  19.820  34.560   6.150
 8797POPC   GL256354  19.749  34.646   6.150
 8797POPC   C1A56355  19.821  34.576   6.450
 8797POPC   D2A56356  19.883  34.547   6.750
 8797POPC   C3A56357  19.853  34.550   7.050
 8797POPC   C4A56358  19.791  34.572   7.350
 8797POPC   C1B56359  19.773  34.805   6.450
 8797POPC   C2B56360  19.735  34.831   6.750
 8797POPC   C3B56361  19.785  34.848   7.050
 8797POPC   C4B56362  19.754  34.845   7.350
 8798POPC   NC356363  15.152  19.070   5.550
 8798POPC   PO456364  15.222  19.053   5.850
 8798POPC   GL156365  15.204  19.098   6.150
 8798POPC   GL256366  15.279  19.142   6.150
 8798POPC   C1A56367  15.182  19.015   6.450
 8798POPC   D2A56368  15.206  19.102   6.750
 8798POPC   C3A56369  15.190  19.069   7.050
 8798POPC   C4A56370  15.200  19.082   7.350
 8798POPC   C1B56371  15.362  19.228   6.450
 8798POPC   C2B56372  15.290  19.285   6.750
 8798POPC   C3B56373  15.294  19.270   7.050
 8798POPC   C4B56374  15.342  19.237   7.350
 8799POPC   NC356375  31.482  20.644   5.550
 8799POPC   PO456376  31.431  20.580   5.850
 8799POPC   GL156377  31.447  20.594   6.150
 8799POPC   GL256378  31.541  20.462   6.150
 8799POPC   C1A56379  31.444  20.636   6.450
 8799POPC   D2A56380  31.465  20.609   6.750
 8799POPC   C3A56381  31.455  20.642   7.050
 8799POPC   C4A56382  31.518  20.616   7.350
 8799POPC   C1B56383  31.593  20.437   6.450
 8799POPC   C2B56384  31.572  20.425   6.750
 8799POPC   C3B56385  31.579  20.405   7.050
 8799POPC   C4B56386  31.581  20.369   7.350
 8800POPC   NC356387   2.736  15.158   5.550
 8800POPC   PO456388   2.734  15.132   5.850
 8800POPC   GL156389   2.807  15.227   6.150
 8800POPC   GL256390   2.629  15.146   6.150
 8800POPC   C1A56391   2.726  15.229   6.450
 8800POPC   D2A56392   2.744  15.183   6.750
 8800POPC   C3A56393   2.789  15.169   7.050
 8800POPC   C4A56394   2.789  15.222   7.350
 8800POPC   C1B56395   2.583  15.004   6.450
 8800POPC   C2B56396   2.598  15.044   6.750
 8800POPC   C3B56397   2.566  14.994   7.050
 8800POPC   C4B56398   2.522  15.044   7.350
 8801POPC   NC356399   9.736  16.735   5.550
 8801POPC   PO456400   9.773  16.763   5.850
 8801POPC   GL156401   9.775  16.726   6.150
 8801POPC   GL256402   9.665  16.651   6.150
 8801POPC   C1A56403   9.755  16.685   6.450
 8801POPC   D2A56404   9.759  16.780   6.750
 8801POPC   C3A56405   9.701  16.718   7.050
 8801POPC   C4A56406   9.790  16.726   7.350
 8801POPC   C1B56407   9.627  16.486   6.450
 8801POPC   C2B56408   9.639  16.536   6.750
 8801POPC   C3B56409   9.638  16.511   7.050
 8801POPC   C4B56410   9.594  16.518   7.350
 8802POPC   NC356411   8.242  31.468   5.550
 8802POPC   PO456412   8.222  31.455   5.850
 8802POPC   GL156413   8.201  31.507   6.150
 8802POPC   GL256414   8.147  31.594   6.150
 8802POPC   C1A56415   8.221  31.522   6.450
 8802POPC   D2A56416   8.168  31.501   6.750
 8802POPC   C3A56417   8.233  31.496   7.050
 8802POPC   C4A56418   8.222  31.425   7.350
 8802POPC   C1B56419   8.175  31.724   6.450
 8802POPC   C2B56420   8.196  31.750   6.750
 8802POPC   C3B56421   8.139  31.715   7.050
 8802POPC   C4B56422   8.159  31.685   7.350
 8803POPC   NC356423   2.026  39.970   5.550
 8803POPC   PO456424   1.994  39.982   5.850
 8803POPC   GL156425   1.941  40.026   6.150
 8803POPC   GL256426   1.896  39.918   6.150
 8803POPC   C1A56427   1.962  39.990   6.450
 8803POPC   D2A56428   1.968  39.965   6.750
 8803POPC   C3A56429   2.026  39.976   7.050
 8803POPC   C4A56430   1.991  40.017   7.350
 8803POPC   C1B56431   1.891  39.741   6.450
 8803POPC   C2B56432   1.847  39.786   6.750
 8803POPC   C3B56433   1.918  39.748   7.050
 8803POPC   C4B56434   1.872  39.808   7.350
 8804POPC   NC356435  42.331  26.815   5.550
 8804POPC   PO456436  42.318  26.836   5.850
 8804POPC   GL156437  42.316  26.832   6.150
 8804POPC   GL256438  42.331  26.697   6.150
 8804POPC   C1A56439  42.315  26.854   6.450
 8804POPC   D2A56440  42.311  26.774   6.750
 8804POPC   C3A56441  42.327  26.783   7.050
 8804POPC   C4A56442  42.299  26.809   7.350
 8804POPC   C1B56443  42.389  26.560   6.450
 8804POPC   C2B56444  42.385  26.589   6.750
 8804POPC   C3B56445  42.344  26.527   7.050
 8804POPC   C4B56446  42.396  26.586   7.350
 8805POPC   NC356447   4.271  30.718   5.550
 8805POPC   PO456448   4.281  30.671   5.850
 8805POPC   GL156449   4.317  30.742   6.150
 8805POPC   GL256450   4.218  30.758   6.150
 8805POPC   C1A56451   4.305  30.685   6.450
 8805POPC   D2A56452   4.349  30.680   6.750
 8805POPC   C3A56453   4.348  30.703   7.050
 8805POPC   C4A56454   4.286  30.673   7.350
 8805POPC   C1B56455   4.152  30.964   6.450
 8805POPC   C2B56456   4.165  30.876   6.750
 8805POPC   C3B56457   4.231  30.885   7.050
 8805POPC   C4B56458   4.190  30.944   7.350
 8806POPC   NC356459   9.723  37.689   5.550
 8806POPC   PO456460   9.700  37.693   5.850
 8806POPC   GL156461   9.734  37.727   6.150
 8806POPC   GL256462   9.610  37.640   6.150
 8806POPC   C1A56463   9.730  37.678   6.450
 8806POPC   D2A56464   9.791  37.699   6.750
 8806POPC   C3A56465   9.780  37.633   7.050
 8806POPC   C4A56466   9.715  37.716   7.350
 8806POPC   C1B56467   9.465  37.669   6.450
 8806POPC   C2B56468   9.525  37.701   6.750
 8806POPC   C3B56469   9.533  37.721   7.050
 8806POPC   C4B56470   9.541  37.733   7.350
 8807POPC   NC356471  12.880  36.894   5.550
 8807POPC   PO456472  12.827  36.923   5.850
 8807POPC   GL156473  12.869  36.885   6.150
 8807POPC   GL256474  12.773  36.853   6.150
 8807POPC   C1A56475  12.815  36.946   6.450
 8807POPC   D2A56476  12.862  36.907   6.750
 8807POPC   C3A56477  12.884  36.888   7.050
 8807POPC   C4A56478  12.838  36.885   7.350
 8807POPC   C1B56479  12.624  36.865   6.450
 8807POPC   C2B56480  12.655  36.845   6.750
 8807POPC   C3B56481  12.604  36.886   7.050
 8807POPC   C4B56482  12.594  36.824   7.350
 8808POPC   NC356483  33.762  19.802   5.550
 8808POPC   PO456484  33.825  19.879   5.850
 8808POPC   GL156485  33.751  19.799   6.150
 8808POPC   GL256486  33.874  19.975   6.150
 8808POPC   C1A56487  33.791  19.825   6.450
 8808POPC   D2A56488  33.843  19.804   6.750
 8808POPC   C3A56489  33.827  19.795   7.050
 8808POPC   C4A56490  33.829  19.860   7.350
 8808POPC   C1B56491  34.009  20.018   6.450
 8808POPC   C2B56492  34.000  20.051   6.750
 8808POPC   C3B56493  33.953  20.066   7.050
 8808POPC   C4B56494  33.979  20.000   7.350
 8809POPC   NC356495  27.633   2.769   5.550
 8809POPC   PO456496  27.618   2.752   5.850
 8809POPC   GL156497  27.586   2.718   6.150
 8809POPC   GL256498  27.629   2.906   6.150
 8809POPC   C1A56499  27.549   2.808   6.450
 8809POPC   D2A56500  27.614   2.727   6.750
 8809POPC   C3A56501  27.637   2.787   7.050
 8809POPC   C4A56502  27.622   2.755   7.350
 8809POPC   C1B56503  27.771   3.001   6.450
 8809POPC   C2B56504  27.752   3.023   6.750
 8809POPC   C3B56505  27.694   3.014   7.050
 8809POPC   C4B56506  27.742   2.995   7.350
 8810POPC   NC356507  37.643  33.005   5.550
 8810POPC   PO456508  37.701  33.010   5.850
 8810POPC   GL156509  37.686  33.029   6.150
 8810POPC   GL256510  37.739  32.907   6.150
 8810POPC   C1A56511  37.699  33.061   6.450
 8810POPC   D2A56512  37.675  33.067   6.750
 8810POPC   C3A56513  37.719  32.979   7.050
 8810POPC   C4A56514  37.726  33.057   7.350
 8810POPC   C1B56515  37.793  32.828   6.450
 8810POPC   C2B56516  37.766  32.742   6.750
 8810POPC   C3B56517  37.726  32.800   7.050
 8810POPC   C4B56518  37.799  32.740   7.350
 8811POPC   NC356519   1.195  17.521   5.550
 8811POPC   PO456520   1.206  17.496   5.850
 8811POPC   GL156521   1.165  17.496   6.150
 8811POPC   GL256522   1.255  17.581   6.150
 8811POPC   C1A56523   1.211  17.489   6.450
 8811POPC   D2A56524   1.194  17.527   6.750
 8811POPC   C3A56525   1.239  17.487   7.050
 8811POPC   C4A56526   1.208  17.510   7.350
 8811POPC   C1B56527   1.387  17.758   6.450
 8811POPC   C2B56528   1.355  17.762   6.750
 8811POPC   C3B56529   1.337  17.751   7.050
 8811POPC   C4B56530   1.396  17.701   7.350
 8812POPC   NC356531  12.843  24.459   5.550
 8812POPC   PO456532  12.885  24.522   5.850
 8812POPC   GL156533  12.893  24.495   6.150
 8812POPC   GL256534  12.965  24.587   6.150
 8812POPC   C1A56535  12.860  24.532   6.450
 8812POPC   D2A56536  12.864  24.523   6.750
 8812POPC   C3A56537  12.866  24.448   7.050
 8812POPC   C4A56538  12.872  24.495   7.350
 8812POPC   C1B56539  13.053  24.576   6.450
 8812POPC   C2B56540  13.090  24.596   6.750
 8812POPC   C3B56541  13.074  24.595   7.050
 8812POPC   C4B56542  13.030  24.582   7.350
 8813POPC   NC356543   1.178  12.090   5.550
 8813POPC   PO456544   1.198  12.087   5.850
 8813POPC   GL156545   1.192  12.056   6.150
 8813POPC   GL256546   1.285  11.969   6.150
 8813POPC   C1A56547   1.228  12.062   6.450
 8813POPC   D2A56548   1.166  12.095   6.750
 8813POPC   C3A56549   1.168  12.101   7.050
 8813POPC   C4A56550   1.264  12.028   7.350
 8813POPC   C1B56551   1.316  11.835   6.450
 8813POPC   C2B56552   1.321  11.881   6.750
 8813POPC   C3B56553   1.290  11.871   7.050
 8813POPC   C4B56554   1.327  11.806   7.350
 8814POPC   NC356555  19.052  18.288   5.550
 8814POPC   PO456556  19.059  18.330   5.850
 8814POPC   GL156557  19.090  18.312   6.150
 8814POPC   GL256558  19.134  18.203   6.150
 8814POPC   C1A56559  19.064  18.296   6.450
 8814POPC   D2A56560  19.077  18.297   6.750
 8814POPC   C3A56561  19.108  18.332   7.050
 8814POPC   C4A56562  19.035  18.278   7.350
 8814POPC   C1B56563  19.282  18.171   6.450
 8814POPC   C2B56564  19.346  18.164   6.750
 8814POPC   C3B56565  19.292  18.240   7.050
 8814POPC   C4B56566  19.329  18.165   7.350
 8815POPC   NC356567  26.041   4.275   5.550
 8815POPC   PO456568  26.087   4.268   5.850
 8815POPC   GL156569  26.022   4.293   6.150
 8815POPC   GL256570  25.868   4.360   6.150
 8815POPC   C1A56571  26.070   4.365   6.450
 8815POPC   D2A56572  26.052   4.312   6.750
 8815POPC   C3A56573  26.005   4.366   7.050
 8815POPC   C4A56574  26.000   4.297   7.350
 8815POPC   C1B56575  25.768   4.362   6.450
 8815POPC   C2B56576  25.799   4.348   6.750
 8815POPC   C3B56577  25.744   4.355   7.050
 8815POPC   C4B56578  25.756   4.312   7.350
 8816POPC   NC356579  20.655   3.525   5.550
 8816POPC   PO456580  20.596   3.544   5.850
 8816POPC   GL156581  20.600   3.584   6.150
 8816POPC   GL256582  20.761   3.609   6.150
 8816POPC   C1A56583  20.614   3.522   6.450
 8816POPC   D2A56584  20.621   3.506   6.750
 8816POPC   C3A56585  20.584   3.581   7.050
 8816POPC   C4A56586  20.561   3.576   7.350
 8816POPC   C1B56587  20.823   3.643   6.450
 8816POPC   C2B56588  20.821   3.686   6.750
 8816POPC   C3B56589  20.853   3.628   7.050
 8816POPC   C4B56590  20.798   3.667   7.350
 8817POPC   NC356591   1.967  43.075   5.550
 8817POPC   PO456592   1.944  43.117   5.850
 8817POPC   GL156593   1.963  43.156   6.150
 8817POPC   GL256594   1.861  43.159   6.150
 8817POPC   C1A56595   1.940  43.145   6.450
 8817POPC   D2A56596   2.032  43.112   6.750
 8817POPC   C3A56597   1.955  43.077   7.050
 8817POPC   C4A56598   1.941  43.116   7.350
 8817POPC   C1B56599   1.736  43.199   6.450
 8817POPC   C2B56600   1.756  43.168   6.750
 8817POPC   C3B56601   1.738  43.164   7.050
 8817POPC   C4B56602   1.712  43.145   7.350
 8818POPC   NC356603  34.531  26.798   5.550
 8818POPC   PO456604  34.539  26.853   5.850
 8818POPC   GL156605  34.534  26.800   6.150
 8818POPC   GL256606  34.474  26.821   6.150
 8818POPC   C1A56607  34.541  26.814   6.450
 8818POPC   D2A56608  34.553  26.840   6.750
 8818POPC   C3A56609  34.563  26.800   7.050
 8818POPC   C4A56610  34.578  26.833   7.350
 8818POPC   C1B56611  34.300  26.748   6.450
 8818POPC   C2B56612  34.287  26.782   6.750
 8818POPC   C3B56613  34.290  26.748   7.050
 8818POPC   C4B56614  34.370  26.730   7.350
 8819POPC   NC356615  42.376   6.690   5.550
 8819POPC   PO456616  42.305   6.686   5.850
 8819POPC   GL156617  42.319   6.617   6.150
 8819POPC   GL256618  42.227   6.697   6.150
 8819POPC   C1A56619  42.343   6.688   6.450
 8819POPC   D2A56620  42.372   6.670   6.750
 8819POPC   C3A56621  42.350   6.639   7.050
 8819POPC   C4A56622  42.321   6.604   7.350
 8819POPC   C1B56623  42.085   6.749   6.450
 8819POPC   C2B56624  42.156   6.818   6.750
 8819POPC   C3B56625  42.131   6.729   7.050
 8819POPC   C4B56626  42.139   6.790   7.350
 8820POPC   NC356627  12.033  36.151   5.550
 8820POPC   PO456628  12.106  36.138   5.850
 8820POPC   GL156629  12.117  36.098   6.150
 8820POPC   GL256630  12.173  36.185   6.150
 8820POPC   C1A56631  12.081  36.168   6.450
 8820POPC   D2A56632  12.050  36.148   6.750
 8820POPC   C3A56633  12.064  36.081   7.050
 8820POPC   C4A56634  12.040  36.128   7.350
 8820POPC   C1B56635  12.211  36.355   6.450
 8820POPC   C2B56636  12.220  36.360   6.750
 8820POPC   C3B56637  12.263  36.371   7.050
 8820POPC   C4B56638  12.236  36.326   7.350
 8821POPC   NC356639  36.945  34.574   5.550
 8821POPC   PO456640  36.893  34.542   5.850
 8821POPC   GL156641  36.863  34.557   6.150
 8821POPC   GL256642  36.748  34.509   6.150
 8821POPC   C1A56643  36.855  34.613   6.450
 8821POPC   D2A56644  36.858  34.527   6.750
 8821POPC   C3A56645  36.921  34.607   7.050
 8821POPC   C4A56646  36.893  34.607   7.350
 8821POPC   C1B56647  36.687  34.475   6.450
 8821POPC   C2B56648  36.738  34.419   6.750
 8821POPC   C3B56649  36.656  34.478   7.050
 8821POPC   C4B56650  36.684  34.493   7.350
 8822POPC   NC356651  26.001  37.665   5.550
 8822POPC   PO456652  26.007  37.706   5.850
 8822POPC   GL156653  26.044  37.698   6.150
 8822POPC   GL256654  26.175  37.639   6.150
 8822POPC   C1A56655  26.071  37.643   6.450
 8822POPC   D2A56656  26.072  37.680   6.750
 8822POPC   C3A56657  26.090  37.672   7.050
 8822POPC   C4A56658  26.049  37.716   7.350
 8822POPC   C1B56659  26.279  37.478   6.450
 8822POPC   C2B56660  26.246  37.551   6.750
 8822POPC   C3B56661  26.251  37.489   7.050
 8822POPC   C4B56662  26.255  37.536   7.350
 8823POPC   NC356663  33.073  21.406   5.550
 8823POPC   PO456664  32.983  21.348   5.850
 8823POPC   GL156665  33.020  21.423   6.150
 8823POPC   GL256666  32.973  21.499   6.150
 8823POPC   C1A56667  33.008  21.371   6.450
 8823POPC   D2A56668  33.043  21.430   6.750
 8823POPC   C3A56669  32.991  21.430   7.050
 8823POPC   C4A56670  33.005  21.403   7.350
 8823POPC   C1B56671  32.886  21.605   6.450
 8823POPC   C2B56672  32.915  21.633   6.750
 8823POPC   C3B56673  32.933  21.612   7.050
 8823POPC   C4B56674  32.910  21.655   7.350
 8824POPC   NC356675   7.425  23.678   5.550
 8824POPC   PO456676   7.401  23.759   5.850
 8824POPC   GL156677   7.396  23.695   6.150
 8824POPC   GL256678   7.442  23.550   6.150
 8824POPC   C1A56679   7.459  23.746   6.450
 8824POPC   D2A56680   7.422  23.735   6.750
 8824POPC   C3A56681   7.419  23.718   7.050
 8824POPC   C4A56682   7.465  23.673   7.350
 8824POPC   C1B56683   7.527  23.448   6.450
 8824POPC   C2B56684   7.507  23.443   6.750
 8824POPC   C3B56685   7.566  23.508   7.050
 8824POPC   C4B56686   7.515  23.455   7.350
 8825POPC   NC356687  44.704   7.427   5.550
 8825POPC   PO456688  44.662   7.399   5.850
 8825POPC   GL156689  44.654   7.450   6.150
 8825POPC   GL256690  44.656   7.268   6.150
 8825POPC   C1A56691  44.655   7.379   6.450
 8825POPC   D2A56692  44.675   7.421   6.750
 8825POPC   C3A56693  44.701   7.469   7.050
 8825POPC   C4A56694  44.644   7.453   7.350
 8825POPC   C1B56695  44.707   7.167   6.450
 8825POPC   C2B56696  44.694   7.218   6.750
 8825POPC   C3B56697  44.687   7.122   7.050
 8825POPC   C4B56698  44.687   7.159   7.350
 8826POPC   NC356699  12.820  17.510   5.550
 8826POPC   PO456700  12.804  17.556   5.850
 8826POPC   GL156701  12.856  17.503   6.150
 8826POPC   GL256702  12.827  17.605   6.150
 8826POPC   C1A56703  12.888  17.470   6.450
 8826POPC   D2A56704  12.860  17.527   6.750
 8826POPC   C3A56705  12.862  17.487   7.050
 8826POPC   C4A56706  12.877  17.515   7.350
 8826POPC   C1B56707  12.763  17.781   6.450
 8826POPC   C2B56708  12.743  17.785   6.750
 8826POPC   C3B56709  12.724  17.748   7.050
 8826POPC   C4B56710  12.730  17.698   7.350
 8827POPC   NC356711   6.640  39.978   5.550
 8827POPC   PO456712   6.604  39.976   5.850
 8827POPC   GL156713   6.643  40.029   6.150
 8827POPC   GL256714   6.711  39.906   6.150
 8827POPC   C1A56715   6.600  40.000   6.450
 8827POPC   D2A56716   6.596  39.960   6.750
 8827POPC   C3A56717   6.645  40.046   7.050
 8827POPC   C4A56718   6.670  39.982   7.350
 8827POPC   C1B56719   6.803  39.865   6.450
 8827POPC   C2B56720   6.844  39.870   6.750
 8827POPC   C3B56721   6.875  39.845   7.050
 8827POPC   C4B56722   6.869  39.882   7.350
 8828POPC   NC356723  41.599  29.171   5.550
 8828POPC   PO456724  41.557  29.156   5.850
 8828POPC   GL156725  41.517  29.151   6.150
 8828POPC   GL256726  41.648  29.062   6.150
 8828POPC   C1A56727  41.577  29.176   6.450
 8828POPC   D2A56728  41.519  29.133   6.750
 8828POPC   C3A56729  41.522  29.170   7.050
 8828POPC   C4A56730  41.530  29.140   7.350
 8828POPC   C1B56731  41.729  29.000   6.450
 8828POPC   C2B56732  41.709  29.006   6.750
 8828POPC   C3B56733  41.703  28.937   7.050
 8828POPC   C4B56734  41.793  28.987   7.350
 8829POPC   NC356735  40.787   4.287   5.550
 8829POPC   PO456736  40.778   4.277   5.850
 8829POPC   GL156737  40.749   4.319   6.150
 8829POPC   GL256738  40.932   4.348   6.150
 8829POPC   C1A56739  40.755   4.294   6.450
 8829POPC   D2A56740  40.819   4.322   6.750
 8829POPC   C3A56741  40.766   4.329   7.050
 8829POPC   C4A56742  40.797   4.321   7.350
 8829POPC   C1B56743  41.012   4.477   6.450
 8829POPC   C2B56744  41.021   4.504   6.750
 8829POPC   C3B56745  40.963   4.462   7.050
 8829POPC   C4B56746  40.990   4.437   7.350
 8830POPC   NC356747  19.063  36.867   5.550
 8830POPC   PO456748  19.107  36.895   5.850
 8830POPC   GL156749  19.038  36.906   6.150
 8830POPC   GL256750  19.209  36.891   6.150
 8830POPC   C1A56751  19.100  36.913   6.450
 8830POPC   D2A56752  19.097  36.951   6.750
 8830POPC   C3A56753  19.037  36.866   7.050
 8830POPC   C4A56754  19.095  36.923   7.350
 8830POPC   C1B56755  19.305  36.817   6.450
 8830POPC   C2B56756  19.253  36.839   6.750
 8830POPC   C3B56757  19.285  36.790   7.050
 8830POPC   C4B56758  19.277  36.822   7.350
 8831POPC   NC356759  22.951  10.515   5.550
 8831POPC   PO456760  22.897  10.481   5.850
 8831POPC   GL156761  22.914  10.493   6.150
 8831POPC   GL256762  22.897  10.376   6.150
 8831POPC   C1A56763  22.986  10.513   6.450
 8831POPC   D2A56764  22.924  10.490   6.750
 8831POPC   C3A56765  22.900  10.567   7.050
 8831POPC   C4A56766  22.942  10.486   7.350
 8831POPC   C1B56767  22.815  10.285   6.450
 8831POPC   C2B56768  22.776  10.289   6.750
 8831POPC   C3B56769  22.866  10.308   7.050
 8831POPC   C4B56770  22.783  10.354   7.350
 8832POPC   NC356771  40.039   5.106   5.550
 8832POPC   PO456772  39.963   5.104   5.850
 8832POPC   GL156773  39.999   5.097   6.150
 8832POPC   GL256774  40.014   5.173   6.150
 8832POPC   C1A56775  39.971   5.100   6.450
 8832POPC   D2A56776  39.981   5.121   6.750
 8832POPC   C3A56777  39.982   5.086   7.050
 8832POPC   C4A56778  40.046   5.052   7.350
 8832POPC   C1B56779  40.086   5.281   6.450
 8832POPC   C2B56780  40.075   5.332   6.750
 8832POPC   C3B56781  40.089   5.301   7.050
 8832POPC   C4B56782  40.107   5.304   7.350
 8833POPC   NC356783  14.450  15.152   5.550
 8833POPC   PO456784  14.395  15.196   5.850
 8833POPC   GL156785  14.408  15.183   6.150
 8833POPC   GL256786  14.414  15.275   6.150
 8833POPC   C1A56787  14.438  15.187   6.450
 8833POPC   D2A56788  14.450  15.162   6.750
 8833POPC   C3A56789  14.446  15.146   7.050
 8833POPC   C4A56790  14.440  15.220   7.350
 8833POPC   C1B56791  14.447  15.445   6.450
 8833POPC   C2B56792  14.488  15.398   6.750
 8833POPC   C3B56793  14.470  15.392   7.050
 8833POPC   C4B56794  14.471  15.418   7.350
 8834POPC   NC356795  29.883  22.195   5.550
 8834POPC   PO456796  29.924  22.184   5.850
 8834POPC   GL156797  29.952  22.202   6.150
 8834POPC   GL256798  29.881  22.089   6.150
 8834POPC   C1A56799  29.920  22.136   6.450
 8834POPC   D2A56800  29.944  22.165   6.750
 8834POPC   C3A56801  29.948  22.173   7.050
 8834POPC   C4A56802  29.957  22.173   7.350
 8834POPC   C1B56803  29.747  22.000   6.450
 8834POPC   C2B56804  29.758  21.925   6.750
 8834POPC   C3B56805  29.792  21.959   7.050
 8834POPC   C4B56806  29.747  21.920   7.350
 8835POPC   NC356807   2.810   3.546   5.550
 8835POPC   PO456808   2.781   3.558   5.850
 8835POPC   GL156809   2.765   3.564   6.150
 8835POPC   GL256810   2.731   3.699   6.150
 8835POPC   C1A56811   2.732   3.546   6.450
 8835POPC   D2A56812   2.796   3.517   6.750
 8835POPC   C3A56813   2.764   3.565   7.050
 8835POPC   C4A56814   2.735   3.497   7.350
 8835POPC   C1B56815   2.654   3.741   6.450
 8835POPC   C2B56816   2.625   3.730   6.750
 8835POPC   C3B56817   2.653   3.797   7.050
 8835POPC   C4B56818   2.630   3.779   7.350
 8836POPC   NC356819  40.022   9.798   5.550
 8836POPC   PO456820  40.011   9.746   5.850
 8836POPC   GL156821  39.987   9.710   6.150
 8836POPC   GL256822  40.099   9.806   6.150
 8836POPC   C1A56823  40.042   9.769   6.450
 8836POPC   D2A56824  39.990   9.723   6.750
 8836POPC   C3A56825  40.027   9.741   7.050
 8836POPC   C4A56826  39.997   9.732   7.350
 8836POPC   C1B56827  40.237   9.844   6.450
 8836POPC   C2B56828  40.170   9.857   6.750
 8836POPC   C3B56829  40.219   9.865   7.050
 8836POPC   C4B56830  40.201   9.899   7.350
 8837POPC   NC356831  15.941   2.013   5.550
 8837POPC   PO456832  15.917   1.972   5.850
 8837POPC   GL156833  15.909   2.022   6.150
 8837POPC   GL256834  16.081   1.921   6.150
 8837POPC   C1A56835  15.946   2.033   6.450
 8837POPC   D2A56836  15.943   2.028   6.750
 8837POPC   C3A56837  15.994   1.998   7.050
 8837POPC   C4A56838  15.918   1.976   7.350
 8837POPC   C1B56839  16.125   1.826   6.450
 8837POPC   C2B56840  16.097   1.839   6.750
 8837POPC   C3B56841  16.149   1.780   7.050
 8837POPC   C4B56842  16.153   1.809   7.350
 8838POPC   NC356843   6.654   8.155   5.550
 8838POPC   PO456844   6.653   8.202   5.850
 8838POPC   GL156845   6.673   8.202   6.150
 8838POPC   GL256846   6.563   8.235   6.150
 8838POPC   C1A56847   6.616   8.166   6.450
 8838POPC   D2A56848   6.604   8.211   6.750
 8838POPC   C3A56849   6.608   8.196   7.050
 8838POPC   C4A56850   6.656   8.211   7.350
 8838POPC   C1B56851   6.434   8.316   6.450
 8838POPC   C2B56852   6.411   8.303   6.750
 8838POPC   C3B56853   6.403   8.247   7.050
 8838POPC   C4B56854   6.370   8.273   7.350
 8839POPC   NC356855  26.855  26.084   5.550
 8839POPC   PO456856  26.838  26.060   5.850
 8839POPC   GL156857  26.789  26.037   6.150
 8839POPC   GL256858  26.648  25.980   6.150
 8839POPC   C1A56859  26.837  26.082   6.450
 8839POPC   D2A56860  26.797  26.054   6.750
 8839POPC   C3A56861  26.855  26.019   7.050
 8839POPC   C4A56862  26.810  26.070   7.350
 8839POPC   C1B56863  26.595  25.997   6.450
 8839POPC   C2B56864  26.587  26.029   6.750
 8839POPC   C3B56865  26.538  25.983   7.050
 8839POPC   C4B56866  26.581  25.998   7.350
 8840POPC   NC356867  38.444  36.911   5.550
 8840POPC   PO456868  38.472  36.858   5.850
 8840POPC   GL156869  38.467  36.884   6.150
 8840POPC   GL256870  38.449  36.782   6.150
 8840POPC   C1A56871  38.481  36.920   6.450
 8840POPC   D2A56872  38.478  36.916   6.750
 8840POPC   C3A56873  38.426  36.864   7.050
 8840POPC   C4A56874  38.410  36.937   7.350
 8840POPC   C1B56875  38.392  36.714   6.450
 8840POPC   C2B56876  38.315  36.650   6.750
 8840POPC   C3B56877  38.320  36.703   7.050
 8840POPC   C4B56878  38.302  36.682   7.350
 8841POPC   NC356879  36.092  30.718   5.550
 8841POPC   PO456880  36.090  30.650   5.850
 8841POPC   GL156881  36.166  30.660   6.150
 8841POPC   GL256882  36.026  30.639   6.150
 8841POPC   C1A56883  36.103  30.743   6.450
 8841POPC   D2A56884  36.100  30.708   6.750
 8841POPC   C3A56885  36.166  30.732   7.050
 8841POPC   C4A56886  36.166  30.676   7.350
 8841POPC   C1B56887  35.940  30.655   6.450
 8841POPC   C2B56888  35.880  30.619   6.750
 8841POPC   C3B56889  35.913  30.595   7.050
 8841POPC   C4B56890  35.873  30.610   7.350
 8842POPC   NC356891   7.460  18.261   5.550
 8842POPC   PO456892   7.396  18.265   5.850
 8842POPC   GL156893   7.400  18.273   6.150
 8842POPC   GL256894   7.564  18.276   6.150
 8842POPC   C1A56895   7.371  18.252   6.450
 8842POPC   D2A56896   7.447  18.286   6.750
 8842POPC   C3A56897   7.384  18.306   7.050
 8842POPC   C4A56898   7.398  18.284   7.350
 8842POPC   C1B56899   7.697  18.255   6.450
 8842POPC   C2B56900   7.698  18.267   6.750
 8842POPC   C3B56901   7.661  18.251   7.050
 8842POPC   C4B56902   7.632  18.275   7.350
 8843POPC   NC356903  35.384   7.403   5.550
 8843POPC   PO456904  35.392   7.469   5.850
 8843POPC   GL156905  35.389   7.449   6.150
 8843POPC   GL256906  35.463   7.437   6.150
 8843POPC   C1A56907  35.361   7.420   6.450
 8843POPC   D2A56908  35.338   7.459   6.750
 8843POPC   C3A56909  35.375   7.416   7.050
 8843POPC   C4A56910  35.333   7.408   7.350
 8843POPC   C1B56911  35.610   7.568   6.450
 8843POPC   C2B56912  35.544   7.564   6.750
 8843POPC   C3B56913  35.538   7.558   7.050
 8843POPC   C4B56914  35.573   7.515   7.350
 8844POPC   NC356915  44.659  12.092   5.550
 8844POPC   PO456916  44.638  12.032   5.850
 8844POPC   GL156917  44.706  12.041   6.150
 8844POPC   GL256918  44.829  12.017   6.150
 8844POPC   C1A56919  44.642  12.060   6.450
 8844POPC   D2A56920  44.687  12.035   6.750
 8844POPC   C3A56921  44.624  12.049   7.050
 8844POPC   C4A56922  44.695  12.080   7.350
 8844POPC   C1B56923  44.889  12.004   6.450
 8844POPC   C2B56924  44.895  12.048   6.750
 8844POPC   C3B56925  44.930  11.991   7.050
 8844POPC   C4B56926  44.954  12.066   7.350
 8845POPC   NC356927  34.545   8.163   5.550
 8845POPC   PO456928  34.575   8.206   5.850
 8845POPC   GL156929  34.618   8.240   6.150
 8845POPC   GL256930  34.741   8.235   6.150
 8845POPC   C1A56931  34.563   8.236   6.450
 8845POPC   D2A56932  34.570   8.195   6.750
 8845POPC   C3A56933  34.625   8.197   7.050
 8845POPC   C4A56934  34.579   8.149   7.350
 8845POPC   C1B56935  34.813   8.289   6.450
 8845POPC   C2B56936  34.837   8.259   6.750
 8845POPC   C3B56937  34.777   8.263   7.050
 8845POPC   C4B56938  34.840   8.297   7.350
 8846POPC   NC356939  15.177  32.230   5.550
 8846POPC   PO456940  15.196  32.251   5.850
 8846POPC   GL156941  15.138  32.284   6.150
 8846POPC   GL256942  15.235  32.134   6.150
 8846POPC   C1A56943  15.186  32.228   6.450
 8846POPC   D2A56944  15.139  32.267   6.750
 8846POPC   C3A56945  15.198  32.277   7.050
 8846POPC   C4A56946  15.216  32.203   7.350
 8846POPC   C1B56947  15.343  32.121   6.450
 8846POPC   C2B56948  15.312  32.114   6.750
 8846POPC   C3B56949  15.331  32.046   7.050
 8846POPC   C4B56950  15.359  32.049   7.350
 8847POPC   NC356951   6.665  19.051   5.550
 8847POPC   PO456952   6.677  19.032   5.850
 8847POPC   GL156953   6.672  19.080   6.150
 8847POPC   GL256954   6.779  19.121   6.150
 8847POPC   C1A56955   6.684  19.026   6.450
 8847POPC   D2A56956   6.685  19.065   6.750
 8847POPC   C3A56957   6.653  19.084   7.050
 8847POPC   C4A56958   6.611  19.076   7.350
 8847POPC   C1B56959   6.849  19.180   6.450
 8847POPC   C2B56960   6.874  19.203   6.750
 8847POPC   C3B56961   6.843  19.225   7.050
 8847POPC   C4B56962   6.819  19.191   7.350
 8848POPC   NC356963  10.564  12.804   5.550
 8848POPC   PO456964  10.532  12.850   5.850
 8848POPC   GL156965  10.540  12.846   6.150
 8848POPC   GL256966  10.404  12.797   6.150
 8848POPC   C1A56967  10.563  12.856   6.450
 8848POPC   D2A56968  10.572  12.854   6.750
 8848POPC   C3A56969  10.573  12.808   7.050
 8848POPC   C4A56970  10.542  12.857   7.350
 8848POPC   C1B56971  10.258  12.842   6.450
 8848POPC   C2B56972  10.317  12.817   6.750
 8848POPC   C3B56973  10.264  12.792   7.050
 8848POPC   C4B56974  10.282  12.836   7.350
 8849POPC   NC356975  22.125  19.011   5.550
 8849POPC   PO456976  22.174  19.065   5.850
 8849POPC   GL156977  22.191  19.047   6.150
 8849POPC   GL256978  22.008  18.987   6.150
 8849POPC   C1A56979  22.156  19.013   6.450
 8849POPC   D2A56980  22.200  19.076   6.750
 8849POPC   C3A56981  22.134  19.094   7.050
 8849POPC   C4A56982  22.135  19.052   7.350
 8849POPC   C1B56983  21.930  18.981   6.450
 8849POPC   C2B56984  21.875  18.967   6.750
 8849POPC   C3B56985  21.947  18.955   7.050
 8849POPC   C4B56986  21.939  18.964   7.350
 8850POPC   NC356987  44.683  43.159   5.550
 8850POPC   PO456988  44.657  43.156   5.850
 8850POPC   GL156989  44.670  43.153   6.150
 8850POPC   GL256990  44.743  43.047   6.150
 8850POPC   C1A56991  44.699  43.101   6.450
 8850POPC   D2A56992  44.676  43.112   6.750
 8850POPC   C3A56993  44.712  43.135   7.050
 8850POPC   C4A56994  44.652  43.146   7.350
 8850POPC   C1B56995  44.762  42.890   6.450
 8850POPC   C2B56996  44.787  42.902   6.750
 8850POPC   C3B56997  44.773  42.903   7.050
 8850POPC   C4B56998  44.731  42.865   7.350
 8851POPC   NC356999  29.945  42.337   5.550
 8851POPC   PO457000  29.922  42.313   5.850
 8851POPC   GL157001  29.945  42.315   6.150
 8851POPC   GL257002  29.853  42.255   6.150
 8851POPC   C1A57003  29.917  42.293   6.450
 8851POPC   D2A57004  29.944  42.334   6.750
 8851POPC   C3A57005  29.904  42.291   7.050
 8851POPC   C4A57006  29.874  42.357   7.350
 8851POPC   C1B57007  29.762  42.088   6.450
 8851POPC   C2B57008  29.840  42.102   6.750
 8851POPC   C3B57009  29.757  42.160   7.050
 8851POPC   C4B57010  29.802  42.117   7.350
 8852POPC   NC357011  34.536   3.513   5.550
 8852POPC   PO457012  34.553   3.500   5.850
 8852POPC   GL157013  34.529   3.497   6.150
 8852POPC   GL257014  34.607   3.688   6.150
 8852POPC   C1A57015  34.550   3.493   6.450
 8852POPC   D2A57016  34.550   3.590   6.750
 8852POPC   C3A57017  34.569   3.590   7.050
 8852POPC   C4A57018  34.573   3.508   7.350
 8852POPC   C1B57019  34.617   3.821   6.450
 8852POPC   C2B57020  34.556   3.823   6.750
 8852POPC   C3B57021  34.542   3.832   7.050
 8852POPC   C4B57022  34.620   3.832   7.350
 8853POPC   NC357023   0.458  32.205   5.550
 8853POPC   PO457024   0.486  32.286   5.850
 8853POPC   GL157025   0.414  32.255   6.150
 8853POPC   GL257026   0.483  32.346   6.150
 8853POPC   C1A57027   0.448  32.232   6.450
 8853POPC   D2A57028   0.426  32.285   6.750
 8853POPC   C3A57029   0.410  32.228   7.050
 8853POPC   C4A57030   0.421  32.273   7.350
 8853POPC   C1B57031   0.441  32.463   6.450
 8853POPC   C2B57032   0.434  32.533   6.750
 8853POPC   C3B57033   0.461  32.471   7.050
 8853POPC   C4B57034   0.444  32.534   7.350
 8854POPC   NC357035  37.721  19.844   5.550
 8854POPC   PO457036  37.708  19.785   5.850
 8854POPC   GL157037  37.678  19.877   6.150
 8854POPC   GL257038  37.786  19.878   6.150
 8854POPC   C1A57039  37.679  19.838   6.450
 8854POPC   D2A57040  37.657  19.861   6.750
 8854POPC   C3A57041  37.678  19.812   7.050
 8854POPC   C4A57042  37.664  19.802   7.350
 8854POPC   C1B57043  37.942  19.994   6.450
 8854POPC   C2B57044  37.845  19.951   6.750
 8854POPC   C3B57045  37.862  19.955   7.050
 8854POPC   C4B57046  37.918  19.928   7.350
 8855POPC   NC357047  19.821  29.956   5.550
 8855POPC   PO457048  19.824  29.899   5.850
 8855POPC   GL157049  19.796  29.908   6.150
 8855POPC   GL257050  19.842  29.806   6.150
 8855POPC   C1A57051  19.788  29.965   6.450
 8855POPC   D2A57052  19.877  29.909   6.750
 8855POPC   C3A57053  19.823  29.914   7.050
 8855POPC   C4A57054  19.842  29.946   7.350
 8855POPC   C1B57055  19.950  29.678   6.450
 8855POPC   C2B57056  19.940  29.633   6.750
 8855POPC   C3B57057  19.906  29.630   7.050
 8855POPC   C4B57058  19.923  29.717   7.350
 8856POPC   NC357059  22.949  19.800   5.550
 8856POPC   PO457060  22.907  19.820   5.850
 8856POPC   GL157061  22.986  19.792   6.150
 8856POPC   GL257062  22.843  19.949   6.150
 8856POPC   C1A57063  22.950  19.828   6.450
 8856POPC   D2A57064  22.929  19.801   6.750
 8856POPC   C3A57065  22.958  19.873   7.050
 8856POPC   C4A57066  22.962  19.804   7.350
 8856POPC   C1B57067  22.856  20.090   6.450
 8856POPC   C2B57068  22.872  20.078   6.750
 8856POPC   C3B57069  22.853  20.078   7.050
 8856POPC   C4B57070  22.801  20.060   7.350
 8857POPC   NC357071  36.142   9.008   5.550
 8857POPC   PO457072  36.128   8.947   5.850
 8857POPC   GL157073  36.124   8.998   6.150
 8857POPC   GL257074  36.068   8.921   6.150
 8857POPC   C1A57075  36.084   8.997   6.450
 8857POPC   D2A57076  36.142   8.961   6.750
 8857POPC   C3A57077  36.082   8.938   7.050
 8857POPC   C4A57078  36.097   8.946   7.350
 8857POPC   C1B57079  35.978   8.753   6.450
 8857POPC   C2B57080  35.957   8.811   6.750
 8857POPC   C3B57081  35.946   8.774   7.050
 8857POPC   C4B57082  35.953   8.810   7.350
 8858POPC   NC357083  27.635  44.636   5.550
 8858POPC   PO457084  27.578  44.662   5.850
 8858POPC   GL157085  27.570  44.614   6.150
 8858POPC   GL257086  27.564  44.826   6.150
 8858POPC   C1A57087  27.619  44.688   6.450
 8858POPC   D2A57088  27.612  44.703   6.750
 8858POPC   C3A57089  27.610  44.624   7.050
 8858POPC   C4A57090  27.640  44.640   7.350
 8858POPC   C1B57091  27.580  44.871   6.450
 8858POPC   C2B57092  27.576  44.897   6.750
 8858POPC   C3B57093  27.542  44.953   7.050
 8858POPC   C4B57094  27.585  44.912   7.350
 8859POPC   NC357095  13.664  18.313   5.550
 8859POPC   PO457096  13.604  18.312   5.850
 8859POPC   GL157097  13.676  18.318   6.150
 8859POPC   GL257098  13.522  18.228   6.150
 8859POPC   C1A57099  13.652  18.237   6.450
 8859POPC   D2A57100  13.603  18.288   6.750
 8859POPC   C3A57101  13.578  18.276   7.050
 8859POPC   C4A57102  13.635  18.246   7.350
 8859POPC   C1B57103  13.439  18.145   6.450
 8859POPC   C2B57104  13.466  18.052   6.750
 8859POPC   C3B57105  13.463  18.137   7.050
 8859POPC   C4B57106  13.481  18.069   7.350
 8860POPC   NC357107  30.685  26.063   5.550
 8860POPC   PO457108  30.739  26.024   5.850
 8860POPC   GL157109  30.690  26.025   6.150
 8860POPC   GL257110  30.748  26.145   6.150
 8860POPC   C1A57111  30.676  26.051   6.450
 8860POPC   D2A57112  30.709  26.018   6.750
 8860POPC   C3A57113  30.709  26.074   7.050
 8860POPC   C4A57114  30.713  26.002   7.350
 8860POPC   C1B57115  30.851  26.197   6.450
 8860POPC   C2B57116  30.913  26.242   6.750
 8860POPC   C3B57117  30.884  26.252   7.050
 8860POPC   C4B57118  30.890  26.245   7.350
 8861POPC   NC357119  25.269   4.350   5.550
 8861POPC   PO457120  25.295   4.348   5.850
 8861POPC   GL157121  25.263   4.341   6.150
 8861POPC   GL257122  25.251   4.201   6.150
 8861POPC   C1A57123  25.243   4.307   6.450
 8861POPC   D2A57124  25.295   4.326   6.750
 8861POPC   C3A57125  25.298   4.268   7.050
 8861POPC   C4A57126  25.239   4.298   7.350
 8861POPC   C1B57127  25.226   4.036   6.450
 8861POPC   C2B57128  25.224   4.101   6.750
 8861POPC   C3B57129  25.218   4.114   7.050
 8861POPC   C4B57130  25.176   4.041   7.350
 8862POPC   NC357131  37.634   4.364   5.550
 8862POPC   PO457132  37.636   4.330   5.850
 8862POPC   GL157133  37.684   4.283   6.150
 8862POPC   GL257134  37.731   4.407   6.150
 8862POPC   C1A57135  37.636   4.360   6.450
 8862POPC   D2A57136  37.706   4.329   6.750
 8862POPC   C3A57137  37.641   4.322   7.050
 8862POPC   C4A57138  37.680   4.329   7.350
 8862POPC   C1B57139  37.722   4.551   6.450
 8862POPC   C2B57140  37.700   4.565   6.750
 8862POPC   C3B57141  37.687   4.570   7.050
 8862POPC   C4B57142  37.745   4.540   7.350
 8863POPC   NC357143   9.746  33.050   5.550
 8863POPC   PO457144   9.757  33.067   5.850
 8863POPC   GL157145   9.763  33.072   6.150
 8863POPC   GL257146   9.805  32.999   6.150
 8863POPC   C1A57147   9.753  33.031   6.450
 8863POPC   D2A57148   9.769  33.010   6.750
 8863POPC   C3A57149   9.764  33.021   7.050
 8863POPC   C4A57150   9.789  32.991   7.350
 8863POPC   C1B57151   9.924  32.905   6.450
 8863POPC   C2B57152   9.942  32.830   6.750
 8863POPC   C3B57153   9.920  32.904   7.050
 8863POPC   C4B57154   9.940  32.872   7.350
 8864POPC   NC357155  31.432  10.530   5.550
 8864POPC   PO457156  31.449  10.552   5.850
 8864POPC   GL157157  31.455  10.530   6.150
 8864POPC   GL257158  31.473  10.373   6.150
 8864POPC   C1A57159  31.453  10.555   6.450
 8864POPC   D2A57160  31.452  10.528   6.750
 8864POPC   C3A57161  31.457  10.566   7.050
 8864POPC   C4A57162  31.519  10.563   7.350
 8864POPC   C1B57163  31.570  10.330   6.450
 8864POPC   C2B57164  31.509  10.271   6.750
 8864POPC   C3B57165  31.540  10.288   7.050
 8864POPC   C4B57166  31.601  10.327   7.350
 8865POPC   NC357167  29.963   2.806   5.550
 8865POPC   PO457168  29.944   2.721   5.850
 8865POPC   GL157169  29.954   2.808   6.150
 8865POPC   GL257170  29.819   2.703   6.150
 8865POPC   C1A57171  29.918   2.762   6.450
 8865POPC   D2A57172  29.969   2.813   6.750
 8865POPC   C3A57173  29.908   2.785   7.050
 8865POPC   C4A57174  29.911   2.774   7.350
 8865POPC   C1B57175  29.682   2.660   6.450
 8865POPC   C2B57176  29.724   2.611   6.750
 8865POPC   C3B57177  29.762   2.592   7.050
 8865POPC   C4B57178  29.705   2.595   7.350
 8866POPC   NC357179  15.960  38.487   5.550
 8866POPC   PO457180  16.003  38.478   5.850
 8866POPC   GL157181  15.993  38.414   6.150
 8866POPC   GL257182  16.102  38.391   6.150
 8866POPC   C1A57183  15.919  38.413   6.450
 8866POPC   D2A57184  15.938  38.413   6.750
 8866POPC   C3A57185  15.956  38.443   7.050
 8866POPC   C4A57186  15.948  38.431   7.350
 8866POPC   C1B57187  16.206  38.407   6.450
 8866POPC   C2B57188  16.167  38.325   6.750
 8866POPC   C3B57189  16.231  38.386   7.050
 8866POPC   C4B57190  16.173  38.318   7.350
 8867POPC   NC357191  29.173   1.182   5.550
 8867POPC   PO457192  29.147   1.218   5.850
 8867POPC   GL157193  29.101   1.222   6.150
 8867POPC   GL257194  29.220   1.060   6.150
 8867POPC   C1A57195  29.106   1.166   6.450
 8867POPC   D2A57196  29.185   1.171   6.750
 8867POPC   C3A57197  29.165   1.237   7.050
 8867POPC   C4A57198  29.105   1.195   7.350
 8867POPC   C1B57199  29.318   0.970   6.450
 8867POPC   C2B57200  29.319   1.024   6.750
 8867POPC   C3B57201  29.276   1.019   7.050
 8867POPC   C4B57202  29.318   0.976   7.350
 8868POPC   NC357203  39.238  19.828   5.550
 8868POPC   PO457204  39.181  19.877   5.850
 8868POPC   GL157205  39.236  19.856   6.150
 8868POPC   GL257206  39.124  19.897   6.150
 8868POPC   C1A57207  39.256  19.844   6.450
 8868POPC   D2A57208  39.243  19.813   6.750
 8868POPC   C3A57209  39.279  19.845   7.050
 8868POPC   C4A57210  39.221  19.827   7.350
 8868POPC   C1B57211  38.974  19.911   6.450
 8868POPC   C2B57212  38.971  19.917   6.750
 8868POPC   C3B57213  39.036  19.893   7.050
 8868POPC   C4B57214  38.955  19.872   7.350
 8869POPC   NC357215   2.751  29.965   5.550
 8869POPC   PO457216   2.801  29.961   5.850
 8869POPC   GL157217   2.770  29.891   6.150
 8869POPC   GL257218   2.815  29.985   6.150
 8869POPC   C1A57219   2.769  29.931   6.450
 8869POPC   D2A57220   2.770  29.911   6.750
 8869POPC   C3A57221   2.780  29.921   7.050
 8869POPC   C4A57222   2.756  29.882   7.350
 8869POPC   C1B57223   2.836  30.136   6.450
 8869POPC   C2B57224   2.873  30.185   6.750
 8869POPC   C3B57225   2.885  30.139   7.050
 8869POPC   C4B57226   2.831  30.162   7.350
 8870POPC   NC357227  36.854  33.060   5.550
 8870POPC   PO457228  36.910  32.996   5.850
 8870POPC   GL157229  36.947  33.009   6.150
 8870POPC   GL257230  36.968  32.860   6.150
 8870POPC   C1A57231  36.873  33.041   6.450
 8870POPC   D2A57232  36.860  33.072   6.750
 8870POPC   C3A57233  36.890  33.052   7.050
 8870POPC   C4A57234  36.919  33.065   7.350
 8870POPC   C1B57235  36.895  32.782   6.450
 8870POPC   C2B57236  36.938  32.749   6.750
 8870POPC   C3B57237  36.987  32.778   7.050
 8870POPC   C4B57238  36.900  32.787   7.350
 8871POPC   NC357239  22.161   1.217   5.550
 8871POPC   PO457240  22.193   1.223   5.850
 8871POPC   GL157241  22.184   1.237   6.150
 8871POPC   GL257242  22.264   1.257   6.150
 8871POPC   C1A57243  22.154   1.235   6.450
 8871POPC   D2A57244  22.209   1.167   6.750
 8871POPC   C3A57245  22.156   1.237   7.050
 8871POPC   C4A57246  22.186   1.201   7.350
 8871POPC   C1B57247  22.425   1.286   6.450
 8871POPC   C2B57248  22.360   1.214   6.750
 8871POPC   C3B57249  22.458   1.255   7.050
 8871POPC   C4B57250  22.402   1.274   7.350
 8872POPC   NC357251  27.552   3.528   5.550
 8872POPC   PO457252  27.552   3.502   5.850
 8872POPC   GL157253  27.608   3.583   6.150
 8872POPC   GL257254  27.450   3.507   6.150
 8872POPC   C1A57255  27.560   3.496   6.450
 8872POPC   D2A57256  27.615   3.585   6.750
 8872POPC   C3A57257  27.637   3.568   7.050
 8872POPC   C4A57258  27.605   3.581   7.350
 8872POPC   C1B57259  27.366   3.361   6.450
 8872POPC   C2B57260  27.395   3.393   6.750
 8872POPC   C3B57261  27.410   3.369   7.050
 8872POPC   C4B57262  27.393   3.398   7.350
 8873POPC   NC357263   5.117   6.667   5.550
 8873POPC   PO457264   5.048   6.604   5.850
 8873POPC   GL157265   5.071   6.670   6.150
 8873POPC   GL257266   5.122   6.732   6.150
 8873POPC   C1A57267   5.132   6.687   6.450
 8873POPC   D2A57268   5.097   6.597   6.750
 8873POPC   C3A57269   5.052   6.597   7.050
 8873POPC   C4A57270   5.109   6.677   7.350
 8873POPC   C1B57271   5.090   6.857   6.450
 8873POPC   C2B57272   5.136   6.850   6.750
 8873POPC   C3B57273   5.087   6.867   7.050
 8873POPC   C4B57274   5.125   6.860   7.350
 8874POPC   NC357275  36.174  27.557   5.550
 8874POPC   PO457276  36.144  27.547   5.850
 8874POPC   GL157277  36.173  27.586   6.150
 8874POPC   GL257278  36.226  27.458   6.150
 8874POPC   C1A57279  36.080  27.568   6.450
 8874POPC   D2A57280  36.115  27.584   6.750
 8874POPC   C3A57281  36.151  27.639   7.050
 8874POPC   C4A57282  36.079  27.618   7.350
 8874POPC   C1B57283  36.250  27.357   6.450
 8874POPC   C2B57284  36.244  27.406   6.750
 8874POPC   C3B57285  36.236  27.334   7.050
 8874POPC   C4B57286  36.214  27.319   7.350
 8875POPC   NC357287  43.082  10.567   5.550
 8875POPC   PO457288  43.109  10.482   5.850
 8875POPC   GL157289  43.133  10.487   6.150
 8875POPC   GL257290  43.079  10.378   6.150
 8875POPC   C1A57291  43.097  10.483   6.450
 8875POPC   D2A57292  43.064  10.520   6.750
 8875POPC   C3A57293  43.128  10.553   7.050
 8875POPC   C4A57294  43.132  10.559   7.350
 8875POPC   C1B57295  42.953  10.315   6.450
 8875POPC   C2B57296  42.997  10.342   6.750
 8875POPC   C3B57297  42.952  10.293   7.050
 8875POPC   C4B57298  42.997  10.266   7.350
 8876POPC   NC357299   5.061   2.752   5.550
 8876POPC   PO457300   5.100   2.814   5.850
 8876POPC   GL157301   5.059   2.777   6.150
 8876POPC   GL257302   4.994   2.718   6.150
 8876POPC   C1A57303   5.043   2.741   6.450
 8876POPC   D2A57304   5.107   2.718   6.750
 8876POPC   C3A57305   5.063   2.788   7.050
 8876POPC   C4A57306   5.049   2.768   7.350
 8876POPC   C1B57307   4.881   2.688   6.450
 8876POPC   C2B57308   4.896   2.690   6.750
 8876POPC   C3B57309   4.811   2.687   7.050
 8876POPC   C4B57310   4.894   2.661   7.350
 8877POPC   NC357311  31.504   5.105   5.550
 8877POPC   PO457312  31.436   5.078   5.850
 8877POPC   GL157313  31.428   5.117   6.150
 8877POPC   GL257314  31.543   5.010   6.150
 8877POPC   C1A57315  31.439   5.092   6.450
 8877POPC   D2A57316  31.432   5.133   6.750
 8877POPC   C3A57317  31.463   5.119   7.050
 8877POPC   C4A57318  31.511   5.103   7.350
 8877POPC   C1B57319  31.669   4.940   6.450
 8877POPC   C2B57320  31.635   4.891   6.750
 8877POPC   C3B57321  31.680   4.928   7.050
 8877POPC   C4B57322  31.626   4.876   7.350
 8878POPC   NC357323  32.210   5.827   5.550
 8878POPC   PO457324  32.277   5.840   5.850
 8878POPC   GL157325  32.261   5.891   6.150
 8878POPC   GL257326  32.288   5.745   6.150
 8878POPC   C1A57327  32.268   5.862   6.450
 8878POPC   D2A57328  32.259   5.837   6.750
 8878POPC   C3A57329  32.244   5.849   7.050
 8878POPC   C4A57330  32.279   5.842   7.350
 8878POPC   C1B57331  32.279   5.662   6.450
 8878POPC   C2B57332  32.278   5.583   6.750
 8878POPC   C3B57333  32.279   5.658   7.050
 8878POPC   C4B57334  32.323   5.653   7.350
 8879POPC   NC357335  33.055  36.100   5.550
 8879POPC   PO457336  33.061  36.174   5.850
 8879POPC   GL157337  33.057  36.111   6.150
 8879POPC   GL257338  33.168  36.068   6.150
 8879POPC   C1A57339  33.005  36.120   6.450
 8879POPC   D2A57340  33.074  36.081   6.750
 8879POPC   C3A57341  33.035  36.166   7.050
 8879POPC   C4A57342  33.057  36.171   7.350
 8879POPC   C1B57343  33.174  35.936   6.450
 8879POPC   C2B57344  33.192  35.957   6.750
 8879POPC   C3B57345  33.264  35.986   7.050
 8879POPC   C4B57346  33.239  36.020   7.350
 8880POPC   NC357347   2.036  43.933   5.550
 8880POPC   PO457348   1.946  43.862   5.850
 8880POPC   GL157349   1.950  43.879   6.150
 8880POPC   GL257350   1.878  44.010   6.150
 8880POPC   C1A57351   1.987  43.873   6.450
 8880POPC   D2A57352   1.998  43.929   6.750
 8880POPC   C3A57353   2.005  43.856   7.050
 8880POPC   C4A57354   2.007  43.913   7.350
 8880POPC   C1B57355   1.824  44.005   6.450
 8880POPC   C2B57356   1.783  44.021   6.750
 8880POPC   C3B57357   1.781  44.018   7.050
 8880POPC   C4B57358   1.837  44.060   7.350
 8881POPC   NC357359  29.193  22.126   5.550
 8881POPC   PO457360  29.106  22.117   5.850
 8881POPC   GL157361  29.130  22.169   6.150
 8881POPC   GL257362  29.136  22.262   6.150
 8881POPC   C1A57363  29.157  22.127   6.450
 8881POPC   D2A57364  29.143  22.133   6.750
 8881POPC   C3A57365  29.110  22.125   7.050
 8881POPC   C4A57366  29.189  22.166   7.350
 8881POPC   C1B57367  29.022  22.422   6.450
 8881POPC   C2B57368  29.013  22.395   6.750
 8881POPC   C3B57369  29.036  22.390   7.050
 8881POPC   C4B57370  29.080  22.347   7.350
 8882POPC   NC357371  14.433  33.025   5.550
 8882POPC   PO457372  14.451  32.975   5.850
 8882POPC   GL157373  14.438  33.025   6.150
 8882POPC   GL257374  14.266  32.995   6.150
 8882POPC   C1A57375  14.363  33.073   6.450
 8882POPC   D2A57376  14.403  33.065   6.750
 8882POPC   C3A57377  14.363  33.070   7.050
 8882POPC   C4A57378  14.425  32.979   7.350
 8882POPC   C1B57379  14.209  32.891   6.450
 8882POPC   C2B57380  14.217  32.880   6.750
 8882POPC   C3B57381  14.179  32.919   7.050
 8882POPC   C4B57382  14.195  32.948   7.350
 8883POPC   NC357383  43.919   4.283   5.550
 8883POPC   PO457384  43.900   4.363   5.850
 8883POPC   GL157385  43.842   4.363   6.150
 8883POPC   GL257386  43.932   4.172   6.150
 8883POPC   C1A57387  43.907   4.351   6.450
 8883POPC   D2A57388  43.914   4.358   6.750
 8883POPC   C3A57389  43.883   4.329   7.050
 8883POPC   C4A57390  43.910   4.276   7.350
 8883POPC   C1B57391  43.948   4.063   6.450
 8883POPC   C2B57392  43.928   4.037   6.750
 8883POPC   C3B57393  43.969   4.055   7.050
 8883POPC   C4B57394  43.942   4.096   7.350
 8884POPC   NC357395  15.163  44.632   5.550
 8884POPC   PO457396  15.177  44.615   5.850
 8884POPC   GL157397  15.139  44.642   6.150
 8884POPC   GL257398  15.261  44.714   6.150
 8884POPC   C1A57399  15.166  44.663   6.450
 8884POPC   D2A57400  15.137  44.635   6.750
 8884POPC   C3A57401  15.131  44.643   7.050
 8884POPC   C4A57402  15.207  44.629   7.350
 8884POPC   C1B57403  15.471  44.691   6.450
 8884POPC   C2B57404  15.411  44.726   6.750
 8884POPC   C3B57405  15.414  44.675   7.050
 8884POPC   C4B57406  15.390  44.685   7.350
 8885POPC   NC357407   7.398  21.428   5.550
 8885POPC   PO457408   7.406  21.431   5.850
 8885POPC   GL157409   7.451  21.418   6.150
 8885POPC   GL257410   7.479  21.212   6.150
 8885POPC   C1A57411   7.466  21.369   6.450
 8885POPC   D2A57412   7.405  21.397   6.750
 8885POPC   C3A57413   7.396  21.435   7.050
 8885POPC   C4A57414   7.400  21.404   7.350
 8885POPC   C1B57415   7.503  21.136   6.450
 8885POPC   C2B57416   7.492  21.178   6.750
 8885POPC   C3B57417   7.462  21.096   7.050
 8885POPC   C4B57418   7.497  21.121   7.350
 8886POPC   NC357419  12.889   1.963   5.550
 8886POPC   PO457420  12.886   1.992   5.850
 8886POPC   GL157421  12.871   1.943   6.150
 8886POPC   GL257422  12.983   1.945   6.150
 8886POPC   C1A57423  12.808   2.034   6.450
 8886POPC   D2A57424  12.836   1.952   6.750
 8886POPC   C3A57425  12.817   2.010   7.050
 8886POPC   C4A57426  12.878   1.958   7.350
 8886POPC   C1B57427  13.106   1.903   6.450
 8886POPC   C2B57428  13.141   1.929   6.750
 8886POPC   C3B57429  13.142   1.955   7.050
 8886POPC   C4B57430  13.136   1.917   7.350
 8887POPC   NC357431   1.250  40.742   5.550
 8887POPC   PO457432   1.261  40.757   5.850
 8887POPC   GL157433   1.244  40.785   6.150
 8887POPC   GL257434   1.281  40.680   6.150
 8887POPC   C1A57435   1.223  40.736   6.450
 8887POPC   D2A57436   1.179  40.765   6.750
 8887POPC   C3A57437   1.232  40.811   7.050
 8887POPC   C4A57438   1.182  40.749   7.350
 8887POPC   C1B57439   1.390  40.607   6.450
 8887POPC   C2B57440   1.392  40.634   6.750
 8887POPC   C3B57441   1.418  40.632   7.050
 8887POPC   C4B57442   1.395  40.560   7.350
 8888POPC   NC357443  10.549  33.003   5.550
 8888POPC   PO457444  10.558  32.993   5.850
 8888POPC   GL157445  10.510  33.020   6.150
 8888POPC   GL257446  10.463  33.093   6.150
 8888POPC   C1A57447  10.538  33.005   6.450
 8888POPC   D2A57448  10.507  33.050   6.750
 8888POPC   C3A57449  10.533  32.977   7.050
 8888POPC   C4A57450  10.556  33.068   7.350
 8888POPC   C1B57451  10.374  33.170   6.450
 8888POPC   C2B57452  10.297  33.174   6.750
 8888POPC   C3B57453  10.316  33.148   7.050
 8888POPC   C4B57454  10.354  33.175   7.350
 8889POPC   NC357455   8.979  17.482   5.550
 8889POPC   PO457456   8.928  17.499   5.850
 8889POPC   GL157457   9.022  17.471   6.150
 8889POPC   GL257458   8.831  17.587   6.150
 8889POPC   C1A57459   8.938  17.530   6.450
 8889POPC   D2A57460   8.931  17.520   6.750
 8889POPC   C3A57461   8.969  17.523   7.050
 8889POPC   C4A57462   9.013  17.482   7.350
 8889POPC   C1B57463   8.764  17.586   6.450
 8889POPC   C2B57464   8.738  17.608   6.750
 8889POPC   C3B57465   8.706  17.528   7.050
 8889POPC   C4B57466   8.770  17.575   7.350
 8890POPC   NC357467  33.026  24.524   5.550
 8890POPC   PO457468  33.069  24.531   5.850
 8890POPC   GL157469  32.994  24.535   6.150
 8890POPC   GL257470  32.913  24.559   6.150
 8890POPC   C1A57471  33.037  24.462   6.450
 8890POPC   D2A57472  33.035  24.488   6.750
 8890POPC   C3A57473  33.011  24.456   7.050
 8890POPC   C4A57474  33.046  24.509   7.350
 8890POPC   C1B57475  32.818  24.648   6.450
 8890POPC   C2B57476  32.856  24.649   6.750
 8890POPC   C3B57477  32.891  24.671   7.050
 8890POPC   C4B57478  32.869  24.721   7.350
 8891POPC   NC357479  36.105  23.669   5.550
 8891POPC   PO457480  36.147  23.746   5.850
 8891POPC   GL157481  36.160  23.742   6.150
 8891POPC   GL257482  36.087  23.551   6.150
 8891POPC   C1A57483  36.172  23.737   6.450
 8891POPC   D2A57484  36.103  23.674   6.750
 8891POPC   C3A57485  36.126  23.691   7.050
 8891POPC   C4A57486  36.176  23.760   7.350
 8891POPC   C1B57487  36.035  23.528   6.450
 8891POPC   C2B57488  36.067  23.447   6.750
 8891POPC   C3B57489  36.074  23.463   7.050
 8891POPC   C4B57490  35.986  23.439   7.350
 8892POPC   NC357491  26.808  14.383   5.550
 8892POPC   PO457492  26.780  14.429   5.850
 8892POPC   GL157493  26.865  14.387   6.150
 8892POPC   GL257494  26.918  14.429   6.150
 8892POPC   C1A57495  26.807  14.415   6.450
 8892POPC   D2A57496  26.779  14.369   6.750
 8892POPC   C3A57497  26.772  14.360   7.050
 8892POPC   C4A57498  26.806  14.390   7.350
 8892POPC   C1B57499  27.110  14.387   6.450
 8892POPC   C2B57500  27.116  14.355   6.750
 8892POPC   C3B57501  27.083  14.418   7.050
 8892POPC   C4B57502  27.017  14.333   7.350
 8893POPC   NC357503  18.315   1.992   5.550
 8893POPC   PO457504  18.298   1.947   5.850
 8893POPC   GL157505  18.321   1.953   6.150
 8893POPC   GL257506  18.241   1.829   6.150
 8893POPC   C1A57507  18.284   1.975   6.450
 8893POPC   D2A57508  18.263   1.975   6.750
 8893POPC   C3A57509  18.271   2.037   7.050
 8893POPC   C4A57510  18.270   2.026   7.350
 8893POPC   C1B57511  18.248   1.769   6.450
 8893POPC   C2B57512  18.279   1.731   6.750
 8893POPC   C3B57513  18.247   1.764   7.050
 8893POPC   C4B57514  18.252   1.762   7.350
 8894POPC   NC357515   9.706   2.758   5.550
 8894POPC   PO457516   9.773   2.725   5.850
 8894POPC   GL157517   9.719   2.744   6.150
 8894POPC   GL257518   9.837   2.733   6.150
 8894POPC   C1A57519   9.795   2.741   6.450
 8894POPC   D2A57520   9.730   2.742   6.750
 8894POPC   C3A57521   9.700   2.792   7.050
 8894POPC   C4A57522   9.747   2.759   7.350
 8894POPC   C1B57523  10.038   2.760   6.450
 8894POPC   C2B57524   9.950   2.758   6.750
 8894POPC   C3B57525   9.990   2.758   7.050
 8894POPC   C4B57526   9.958   2.711   7.350
 8895POPC   NC357527  36.137  36.156   5.550
 8895POPC   PO457528  36.158  36.173   5.850
 8895POPC   GL157529  36.154  36.162   6.150
 8895POPC   GL257530  36.271  36.063   6.150
 8895POPC   C1A57531  36.099  36.083   6.450
 8895POPC   D2A57532  36.086  36.122   6.750
 8895POPC   C3A57533  36.164  36.142   7.050
 8895POPC   C4A57534  36.081  36.146   7.350
 8895POPC   C1B57535  36.405  36.080   6.450
 8895POPC   C2B57536  36.401  36.068   6.750
 8895POPC   C3B57537  36.378  36.117   7.050
 8895POPC   C4B57538  36.336  36.124   7.350
 8896POPC   NC357539  30.691  25.218   5.550
 8896POPC   PO457540  30.725  25.309   5.850
 8896POPC   GL157541  30.707  25.277   6.150
 8896POPC   GL257542  30.589  25.307   6.150
 8896POPC   C1A57543  30.731  25.247   6.450
 8896POPC   D2A57544  30.684  25.261   6.750
 8896POPC   C3A57545  30.738  25.267   7.050
 8896POPC   C4A57546  30.709  25.305   7.350
 8896POPC   C1B57547  30.540  25.391   6.450
 8896POPC   C2B57548  30.536  25.434   6.750
 8896POPC   C3B57549  30.495  25.393   7.050
 8896POPC   C4B57550  30.493  25.394   7.350
 8897POPC   NC357551  32.258  25.297   5.550
 8897POPC   PO457552  32.246  25.231   5.850
 8897POPC   GL157553  32.295  25.247   6.150
 8897POPC   GL257554  32.318  25.111   6.150
 8897POPC   C1A57555  32.266  25.222   6.450
 8897POPC   D2A57556  32.212  25.227   6.750
 8897POPC   C3A57557  32.237  25.303   7.050
 8897POPC   C4A57558  32.262  25.239   7.350
 8897POPC   C1B57559  32.347  25.021   6.450
 8897POPC   C2B57560  32.338  25.040   6.750
 8897POPC   C3B57561  32.328  25.080   7.050
 8897POPC   C4B57562  32.401  25.019   7.350
 8898POPC   NC357563  31.462   9.753   5.550
 8898POPC   PO457564  31.440   9.720   5.850
 8898POPC   GL157565  31.471   9.720   6.150
 8898POPC   GL257566  31.576   9.770   6.150
 8898POPC   C1A57567  31.474   9.751   6.450
 8898POPC   D2A57568  31.433   9.755   6.750
 8898POPC   C3A57569  31.443   9.739   7.050
 8898POPC   C4A57570  31.516   9.766   7.350
 8898POPC   C1B57571  31.700   9.710   6.450
 8898POPC   C2B57572  31.760   9.767   6.750
 8898POPC   C3B57573  31.740   9.745   7.050
 8898POPC   C4B57574  31.745   9.750   7.350
 8899POPC   NC357575  29.905  18.298   5.550
 8899POPC   PO457576  29.956  18.243   5.850
 8899POPC   GL157577  29.953  18.249   6.150
 8899POPC   GL257578  29.767  18.298   6.150
 8899POPC   C1A57579  29.920  18.317   6.450
 8899POPC   D2A57580  29.883  18.282   6.750
 8899POPC   C3A57581  29.924  18.250   7.050
 8899POPC   C4A57582  29.938  18.246   7.350
 8899POPC   C1B57583  29.675  18.250   6.450
 8899POPC   C2B57584  29.701  18.278   6.750
 8899POPC   C3B57585  29.651  18.293   7.050
 8899POPC   C4B57586  29.698  18.253   7.350
 8900POPC   NC357587   1.173   7.453   5.550
 8900POPC   PO457588   1.223   7.417   5.850
 8900POPC   GL157589   1.183   7.429   6.150
 8900POPC   GL257590   1.346   7.390   6.150
 8900POPC   C1A57591   1.232   7.466   6.450
 8900POPC   D2A57592   1.245   7.464   6.750
 8900POPC   C3A57593   1.227   7.466   7.050
 8900POPC   C4A57594   1.165   7.409   7.350
 8900POPC   C1B57595   1.461   7.262   6.450
 8900POPC   C2B57596   1.390   7.282   6.750
 8900POPC   C3B57597   1.415   7.290   7.050
 8900POPC   C4B57598   1.455   7.312   7.350
 8901POPC   NC357599   1.225  36.108   5.550
 8901POPC   PO457600   1.241  36.161   5.850
 8901POPC   GL157601   1.262  36.129   6.150
 8901POPC   GL257602   1.219  36.270   6.150
 8901POPC   C1A57603   1.218  36.128   6.450
 8901POPC   D2A57604   1.239  36.124   6.750
 8901POPC   C3A57605   1.228  36.082   7.050
 8901POPC   C4A57606   1.230  36.132   7.350
 8901POPC   C1B57607   1.161  36.322   6.450
 8901POPC   C2B57608   1.123  36.397   6.750
 8901POPC   C3B57609   1.140  36.347   7.050
 8901POPC   C4B57610   1.139  36.358   7.350
 8902POPC   NC357611  26.827   4.301   5.550
 8902POPC   PO457612  26.770   4.280   5.850
 8902POPC   GL157613  26.788   4.271   6.150
 8902POPC   GL257614  26.709   4.377   6.150
 8902POPC   C1A57615  26.792   4.344   6.450
 8902POPC   D2A57616  26.833   4.340   6.750
 8902POPC   C3A57617  26.860   4.319   7.050
 8902POPC   C4A57618  26.778   4.307   7.350
 8902POPC   C1B57619  26.645   4.425   6.450
 8902POPC   C2B57620  26.565   4.424   6.750
 8902POPC   C3B57621  26.591   4.452   7.050
 8902POPC   C4B57622  26.612   4.460   7.350
 8903POPC   NC357623  21.431   3.499   5.550
 8903POPC   PO457624  21.409   3.536   5.850
 8903POPC   GL157625  21.405   3.576   6.150
 8903POPC   GL257626  21.500   3.519   6.150
 8903POPC   C1A57627  21.410   3.577   6.450
 8903POPC   D2A57628  21.429   3.551   6.750
 8903POPC   C3A57629  21.422   3.578   7.050
 8903POPC   C4A57630  21.354   3.577   7.350
 8903POPC   C1B57631  21.662   3.492   6.450
 8903POPC   C2B57632  21.595   3.507   6.750
 8903POPC   C3B57633  21.677   3.480   7.050
 8903POPC   C4B57634  21.603   3.527   7.350
 8904POPC   NC357635  12.080  37.647   5.550
 8904POPC   PO457636  12.116  37.710   5.850
 8904POPC   GL157637  12.120  37.680   6.150
 8904POPC   GL257638  12.094  37.590   6.150
 8904POPC   C1A57639  12.028  37.694   6.450
 8904POPC   D2A57640  12.079  37.695   6.750
 8904POPC   C3A57641  12.045  37.677   7.050
 8904POPC   C4A57642  12.053  37.662   7.350
 8904POPC   C1B57643  12.119  37.406   6.450
 8904POPC   C2B57644  12.073  37.470   6.750
 8904POPC   C3B57645  12.080  37.416   7.050
 8904POPC   C4B57646  12.087  37.451   7.350
 8905POPC   NC357647  20.606  19.048   5.550
 8905POPC   PO457648  20.610  19.080   5.850
 8905POPC   GL157649  20.590  19.027   6.150
 8905POPC   GL257650  20.680  19.155   6.150
 8905POPC   C1A57651  20.605  19.039   6.450
 8905POPC   D2A57652  20.585  19.069   6.750
 8905POPC   C3A57653  20.651  19.105   7.050
 8905POPC   C4A57654  20.638  19.051   7.350
 8905POPC   C1B57655  20.646  19.319   6.450
 8905POPC   C2B57656  20.637  19.343   6.750
 8905POPC   C3B57657  20.629  19.258   7.050
 8905POPC   C4B57658  20.625  19.276   7.350
 8906POPC   NC357659  19.047  41.563   5.550
 8906POPC   PO457660  19.083  41.524   5.850
 8906POPC   GL157661  19.098  41.600   6.150
 8906POPC   GL257662  18.990  41.457   6.150
 8906POPC   C1A57663  19.066  41.564   6.450
 8906POPC   D2A57664  19.058  41.514   6.750
 8906POPC   C3A57665  19.010  41.568   7.050
 8906POPC   C4A57666  19.051  41.534   7.350
 8906POPC   C1B57667  19.005  41.301   6.450
 8906POPC   C2B57668  19.046  41.323   6.750
 8906POPC   C3B57669  19.009  41.322   7.050
 8906POPC   C4B57670  19.009  41.350   7.350
 8907POPC   NC357671  29.953  19.060   5.550
 8907POPC   PO457672  29.884  19.090   5.850
 8907POPC   GL157673  29.919  19.029   6.150
 8907POPC   GL257674  29.865  18.991   6.150
 8907POPC   C1A57675  29.915  19.050   6.450
 8907POPC   D2A57676  29.919  19.063   6.750
 8907POPC   C3A57677  29.964  19.087   7.050
 8907POPC   C4A57678  29.895  19.069   7.350
 8907POPC   C1B57679  29.769  18.872   6.450
 8907POPC   C2B57680  29.765  18.915   6.750
 8907POPC   C3B57681  29.796  18.847   7.050
 8907POPC   C4B57682  29.760  18.894   7.350
 8908POPC   NC357683  21.356   1.955   5.550
 8908POPC   PO457684  21.408   2.017   5.850
 8908POPC   GL157685  21.354   1.964   6.150
 8908POPC   GL257686  21.254   2.026   6.150
 8908POPC   C1A57687  21.436   1.951   6.450
 8908POPC   D2A57688  21.382   2.020   6.750
 8908POPC   C3A57689  21.433   1.997   7.050
 8908POPC   C4A57690  21.346   2.000   7.350
 8908POPC   C1B57691  21.176   2.055   6.450
 8908POPC   C2B57692  21.140   2.012   6.750
 8908POPC   C3B57693  21.178   2.092   7.050
 8908POPC   C4B57694  21.115   2.044   7.350
 8909POPC   NC357695  22.156   0.455   5.550
 8909POPC   PO457696  22.200   0.464   5.850
 8909POPC   GL157697  22.195   0.391   6.150
 8909POPC   GL257698  22.075   0.356   6.150
 8909POPC   C1A57699  22.195   0.455   6.450
 8909POPC   D2A57700  22.169   0.388   6.750
 8909POPC   C3A57701  22.164   0.484   7.050
 8909POPC   C4A57702  22.121   0.401   7.350
 8909POPC   C1B57703  21.935   0.403   6.450
 8909POPC   C2B57704  21.875   0.317   6.750
 8909POPC   C3B57705  21.945   0.320   7.050
 8909POPC   C4B57706  21.944   0.400   7.350
 8910POPC   NC357707  34.594  22.182   5.550
 8910POPC   PO457708  34.561  22.196   5.850
 8910POPC   GL157709  34.545  22.179   6.150
 8910POPC   GL257710  34.724  22.194   6.150
 8910POPC   C1A57711  34.575  22.127   6.450
 8910POPC   D2A57712  34.564  22.156   6.750
 8910POPC   C3A57713  34.596  22.122   7.050
 8910POPC   C4A57714  34.547  22.187   7.350
 8910POPC   C1B57715  34.749  22.320   6.450
 8910POPC   C2B57716  34.814  22.356   6.750
 8910POPC   C3B57717  34.810  22.356   7.050
 8910POPC   C4B57718  34.813  22.347   7.350
 8911POPC   NC357719   5.069  15.997   5.550
 8911POPC   PO457720   5.131  15.978   5.850
 8911POPC   GL157721   5.128  15.947   6.150
 8911POPC   GL257722   5.130  15.794   6.150
 8911POPC   C1A57723   5.095  15.928   6.450
 8911POPC   D2A57724   5.100  16.004   6.750
 8911POPC   C3A57725   5.076  15.975   7.050
 8911POPC   C4A57726   5.062  15.969   7.350
 8911POPC   C1B57727   5.235  15.778   6.450
 8911POPC   C2B57728   5.180  15.749   6.750
 8911POPC   C3B57729   5.239  15.769   7.050
 8911POPC   C4B57730   5.176  15.738   7.350
 8912POPC   NC357731   5.141   8.154   5.550
 8912POPC   PO457732   5.133   8.225   5.850
 8912POPC   GL157733   5.063   8.154   6.150
 8912POPC   GL257734   5.138   8.234   6.150
 8912POPC   C1A57735   5.049   8.180   6.450
 8912POPC   D2A57736   5.104   8.188   6.750
 8912POPC   C3A57737   5.098   8.230   7.050
 8912POPC   C4A57738   5.050   8.208   7.350
 8912POPC   C1B57739   5.318   8.401   6.450
 8912POPC   C2B57740   5.288   8.397   6.750
 8912POPC   C3B57741   5.298   8.325   7.050
 8912POPC   C4B57742   5.301   8.380   7.350
 8913POPC   NC357743  15.198  29.097   5.550
 8913POPC   PO457744  15.188  29.103   5.850
 8913POPC   GL157745  15.141  29.147   6.150
 8913POPC   GL257746  15.211  29.010   6.150
 8913POPC   C1A57747  15.196  29.118   6.450
 8913POPC   D2A57748  15.155  29.118   6.750
 8913POPC   C3A57749  15.198  29.114   7.050
 8913POPC   C4A57750  15.148  29.123   7.350
 8913POPC   C1B57751  15.281  28.965   6.450
 8913POPC   C2B57752  15.325  28.959   6.750
 8913POPC   C3B57753  15.310  28.963   7.050
 8913POPC   C4B57754  15.258  28.969   7.350
 8914POPC   NC357755  37.655  19.051   5.550
 8914POPC   PO457756  37.686  19.082   5.850
 8914POPC   GL157757  37.653  19.078   6.150
 8914POPC   GL257758  37.667  19.150   6.150
 8914POPC   C1A57759  37.670  19.022   6.450
 8914POPC   D2A57760  37.648  19.100   6.750
 8914POPC   C3A57761  37.663  19.027   7.050
 8914POPC   C4A57762  37.693  19.011   7.350
 8914POPC   C1B57763  37.656  19.289   6.450
 8914POPC   C2B57764  37.686  19.301   6.750
 8914POPC   C3B57765  37.679  19.317   7.050
 8914POPC   C4B57766  37.739  19.260   7.350
 8915POPC   NC357767  12.815  39.971   5.550
 8915POPC   PO457768  12.823  40.039   5.850
 8915POPC   GL157769  12.822  40.001   6.150
 8915POPC   GL257770  12.777  39.927   6.150
 8915POPC   C1A57771  12.865  40.022   6.450
 8915POPC   D2A57772  12.832  40.019   6.750
 8915POPC   C3A57773  12.833  39.991   7.050
 8915POPC   C4A57774  12.816  40.025   7.350
 8915POPC   C1B57775  12.742  39.803   6.450
 8915POPC   C2B57776  12.818  39.749   6.750
 8915POPC   C3B57777  12.798  39.749   7.050
 8915POPC   C4B57778  12.764  39.740   7.350
 8916POPC   NC357779  31.477  23.739   5.550
 8916POPC   PO457780  31.496  23.722   5.850
 8916POPC   GL157781  31.476  23.711   6.150
 8916POPC   GL257782  31.444  23.591   6.150
 8916POPC   C1A57783  31.467  23.735   6.450
 8916POPC   D2A57784  31.490  23.674   6.750
 8916POPC   C3A57785  31.520  23.756   7.050
 8916POPC   C4A57786  31.499  23.746   7.350
 8916POPC   C1B57787  31.400  23.511   6.450
 8916POPC   C2B57788  31.450  23.431   6.750
 8916POPC   C3B57789  31.390  23.499   7.050
 8916POPC   C4B57790  31.450  23.490   7.350
 8917POPC   NC357791  33.837  25.305   5.550
 8917POPC   PO457792  33.772  25.221   5.850
 8917POPC   GL157793  33.822  25.262   6.150
 8917POPC   GL257794  33.871  25.357   6.150
 8917POPC   C1A57795  33.764  25.293   6.450
 8917POPC   D2A57796  33.785  25.222   6.750
 8917POPC   C3A57797  33.821  25.261   7.050
 8917POPC   C4A57798  33.831  25.247   7.350
 8917POPC   C1B57799  34.003  25.465   6.450
 8917POPC   C2B57800  33.950  25.423   6.750
 8917POPC   C3B57801  33.969  25.429   7.050
 8917POPC   C4B57802  33.944  25.452   7.350
 8918POPC   NC357803  20.660  31.439   5.550
 8918POPC   PO457804  20.586  31.515   5.850
 8918POPC   GL157805  20.610  31.490   6.150
 8918POPC   GL257806  20.501  31.384   6.150
 8918POPC   C1A57807  20.642  31.510   6.450
 8918POPC   D2A57808  20.561  31.502   6.750
 8918POPC   C3A57809  20.593  31.508   7.050
 8918POPC   C4A57810  20.608  31.488   7.350
 8918POPC   C1B57811  20.477  31.279   6.450
 8918POPC   C2B57812  20.480  31.290   6.750
 8918POPC   C3B57813  20.412  31.256   7.050
 8918POPC   C4B57814  20.427  31.300   7.350
 8919POPC   NC357815  37.646  13.639   5.550
 8919POPC   PO457816  37.654  13.601   5.850
 8919POPC   GL157817  37.726  13.639   6.150
 8919POPC   GL257818  37.505  13.671   6.150
 8919POPC   C1A57819  37.656  13.669   6.450
 8919POPC   D2A57820  37.656  13.648   6.750
 8919POPC   C3A57821  37.670  13.661   7.050
 8919POPC   C4A57822  37.695  13.677   7.350
 8919POPC   C1B57823  37.447  13.700   6.450
 8919POPC   C2B57824  37.386  13.640   6.750
 8919POPC   C3B57825  37.417  13.607   7.050
 8919POPC   C4B57826  37.466  13.638   7.350
 8920POPC   NC357827  30.741  10.512   5.550
 8920POPC   PO457828  30.741  10.477   5.850
 8920POPC   GL157829  30.686  10.535   6.150
 8920POPC   GL257830  30.780  10.483   6.150
 8920POPC   C1A57831  30.687  10.525   6.450
 8920POPC   D2A57832  30.729  10.545   6.750
 8920POPC   C3A57833  30.665  10.493   7.050
 8920POPC   C4A57834  30.689  10.487   7.350
 8920POPC   C1B57835  30.966  10.383   6.450
 8920POPC   C2B57836  30.873  10.369   6.750
 8920POPC   C3B57837  30.921  10.424   7.050
 8920POPC   C4B57838  30.950  10.410   7.350
 8921POPC   NC357839   2.769  34.599   5.550
 8921POPC   PO457840   2.786  34.571   5.850
 8921POPC   GL157841   2.776  34.547   6.150
 8921POPC   GL257842   2.623  34.518   6.150
 8921POPC   C1A57843   2.797  34.588   6.450
 8921POPC   D2A57844   2.743  34.580   6.750
 8921POPC   C3A57845   2.750  34.572   7.050
 8921POPC   C4A57846   2.775  34.529   7.350
 8921POPC   C1B57847   2.536  34.574   6.450
 8921POPC   C2B57848   2.503  34.570   6.750
 8921POPC   C3B57849   2.530  34.483   7.050
 8921POPC   C4B57850   2.517  34.478   7.350
 8922POPC   NC357851   6.661   1.208   5.550
 8922POPC   PO457852   6.616   1.252   5.850
 8922POPC   GL157853   6.664   1.225   6.150
 8922POPC   GL257854   6.587   1.327   6.150
 8922POPC   C1A57855   6.684   1.205   6.450
 8922POPC   D2A57856   6.683   1.199   6.750
 8922POPC   C3A57857   6.656   1.217   7.050
 8922POPC   C4A57858   6.642   1.223   7.350
 8922POPC   C1B57859   6.462   1.333   6.450
 8922POPC   C2B57860   6.395   1.333   6.750
 8922POPC   C3B57861   6.393   1.372   7.050
 8922POPC   C4B57862   6.390   1.355   7.350
 8923POPC   NC357863  40.783   1.971   5.550
 8923POPC   PO457864  40.774   1.982   5.850
 8923POPC   GL157865  40.743   2.027   6.150
 8923POPC   GL257866  40.783   1.892   6.150
 8923POPC   C1A57867  40.737   1.981   6.450
 8923POPC   D2A57868  40.801   1.948   6.750
 8923POPC   C3A57869  40.775   2.020   7.050
 8923POPC   C4A57870  40.784   1.977   7.350
 8923POPC   C1B57871  40.853   1.770   6.450
 8923POPC   C2B57872  40.849   1.708   6.750
 8923POPC   C3B57873  40.809   1.747   7.050
 8923POPC   C4B57874  40.851   1.764   7.350
 8924POPC   NC357875  30.693   5.882   5.550
 8924POPC   PO457876  30.670   5.849   5.850
 8924POPC   GL157877  30.670   5.837   6.150
 8924POPC   GL257878  30.828   5.827   6.150
 8924POPC   C1A57879  30.682   5.907   6.450
 8924POPC   D2A57880  30.671   5.878   6.750
 8924POPC   C3A57881  30.687   5.829   7.050
 8924POPC   C4A57882  30.660   5.912   7.350
 8924POPC   C1B57883  30.839   5.662   6.450
 8924POPC   C2B57884  30.859   5.646   6.750
 8924POPC   C3B57885  30.885   5.661   7.050
 8924POPC   C4B57886  30.862   5.728   7.350
 8925POPC   NC357887  34.618   8.927   5.550
 8925POPC   PO457888  34.557   9.010   5.850
 8925POPC   GL157889  34.564   9.005   6.150
 8925POPC   GL257890  34.663   9.047   6.150
 8925POPC   C1A57891  34.530   8.988   6.450
 8925POPC   D2A57892  34.568   9.022   6.750
 8925POPC   C3A57893  34.567   9.000   7.050
 8925POPC   C4A57894  34.548   8.923   7.350
 8925POPC   C1B57895  34.749   9.126   6.450
 8925POPC   C2B57896  34.725   9.182   6.750
 8925POPC   C3B57897  34.713   9.125   7.050
 8925POPC   C4B57898  34.773   9.173   7.350
 8926POPC   NC357899   1.993  15.155   5.550
 8926POPC   PO457900   1.993  15.135   5.850
 8926POPC   GL157901   2.001  15.135   6.150
 8926POPC   GL257902   1.880  15.124   6.150
 8926POPC   C1A57903   1.959  15.178   6.450
 8926POPC   D2A57904   1.950  15.144   6.750
 8926POPC   C3A57905   1.949  15.158   7.050
 8926POPC   C4A57906   1.994  15.178   7.350
 8926POPC   C1B57907   1.731  15.178   6.450
 8926POPC   C2B57908   1.772  15.130   6.750
 8926POPC   C3B57909   1.707  15.131   7.050
 8926POPC   C4B57910   1.760  15.192   7.350
 8927POPC   NC357911  22.921  26.024   5.550
 8927POPC   PO457912  22.924  25.995   5.850
 8927POPC   GL157913  22.935  26.018   6.150
 8927POPC   GL257914  22.967  25.895   6.150
 8927POPC   C1A57915  22.971  26.038   6.450
 8927POPC   D2A57916  22.892  25.998   6.750
 8927POPC   C3A57917  22.911  26.050   7.050
 8927POPC   C4A57918  22.936  26.016   7.350
 8927POPC   C1B57919  22.896  25.839   6.450
 8927POPC   C2B57920  22.869  25.817   6.750
 8927POPC   C3B57921  22.874  25.808   7.050
 8927POPC   C4B57922  22.920  25.786   7.350
 8928POPC   NC357923  37.645  18.332   5.550
 8928POPC   PO457924  37.685  18.329   5.850
 8928POPC   GL157925  37.718  18.301   6.150
 8928POPC   GL257926  37.692  18.147   6.150
 8928POPC   C1A57927  37.667  18.249   6.450
 8928POPC   D2A57928  37.718  18.330   6.750
 8928POPC   C3A57929  37.716  18.277   7.050
 8928POPC   C4A57930  37.660  18.241   7.350
 8928POPC   C1B57931  37.797  18.032   6.450
 8928POPC   C2B57932  37.783  18.099   6.750
 8928POPC   C3B57933  37.782  18.089   7.050
 8928POPC   C4B57934  37.762  18.077   7.350
 8929POPC   NC357935   8.988  20.602   5.550
 8929POPC   PO457936   8.946  20.642   5.850
 8929POPC   GL157937   9.019  20.584   6.150
 8929POPC   GL257938   9.085  20.558   6.150
 8929POPC   C1A57939   8.985  20.597   6.450
 8929POPC   D2A57940   8.979  20.593   6.750
 8929POPC   C3A57941   9.002  20.658   7.050
 8929POPC   C4A57942   8.926  20.628   7.350
 8929POPC   C1B57943   9.253  20.563   6.450
 8929POPC   C2B57944   9.196  20.590   6.750
 8929POPC   C3B57945   9.233  20.622   7.050
 8929POPC   C4B57946   9.245  20.612   7.350
 8930POPC   NC357947  38.454  33.834   5.550
 8930POPC   PO457948  38.417  33.822   5.850
 8930POPC   GL157949  38.407  33.829   6.150
 8930POPC   GL257950  38.415  33.677   6.150
 8930POPC   C1A57951  38.449  33.758   6.450
 8930POPC   D2A57952  38.442  33.809   6.750
 8930POPC   C3A57953  38.500  33.841   7.050
 8930POPC   C4A57954  38.496  33.819   7.350
 8930POPC   C1B57955  38.308  33.632   6.450
 8930POPC   C2B57956  38.258  33.642   6.750
 8930POPC   C3B57957  38.242  33.596   7.050
 8930POPC   C4B57958  38.319  33.621   7.350
 8931POPC   NC357959   4.278  24.511   5.550
 8931POPC   PO457960   4.349  24.479   5.850
 8931POPC   GL157961   4.340  24.519   6.150
 8931POPC   GL257962   4.347  24.645   6.150
 8931POPC   C1A57963   4.304  24.444   6.450
 8931POPC   D2A57964   4.337  24.501   6.750
 8931POPC   C3A57965   4.329  24.469   7.050
 8931POPC   C4A57966   4.321  24.527   7.350
 8931POPC   C1B57967   4.444  24.711   6.450
 8931POPC   C2B57968   4.403  24.661   6.750
 8931POPC   C3B57969   4.462  24.710   7.050
 8931POPC   C4B57970   4.454  24.689   7.350
 8932POPC   NC357971  12.888  18.309   5.550
 8932POPC   PO457972  12.834  18.312   5.850
 8932POPC   GL157973  12.826  18.241   6.150
 8932POPC   GL257974  12.887  18.182   6.150
 8932POPC   C1A57975  12.804  18.275   6.450
 8932POPC   D2A57976  12.849  18.320   6.750
 8932POPC   C3A57977  12.805  18.240   7.050
 8932POPC   C4A57978  12.892  18.331   7.350
 8932POPC   C1B57979  12.863  18.019   6.450
 8932POPC   C2B57980  12.910  18.017   6.750
 8932POPC   C3B57981  12.866  18.039   7.050
 8932POPC   C4B57982  12.936  18.053   7.350
 8933POPC   NC357983   4.267   8.211   5.550
 8933POPC   PO457984   4.364   8.231   5.850
 8933POPC   GL157985   4.328   8.164   6.150
 8933POPC   GL257986   4.371   8.318   6.150
 8933POPC   C1A57987   4.361   8.241   6.450
 8933POPC   D2A57988   4.316   8.236   6.750
 8933POPC   C3A57989   4.356   8.192   7.050
 8933POPC   C4A57990   4.302   8.194   7.350
 8933POPC   C1B57991   4.387   8.454   6.450
 8933POPC   C2B57992   4.405   8.405   6.750
 8933POPC   C3B57993   4.362   8.432   7.050
 8933POPC   C4B57994   4.351   8.464   7.350
 8934POPC   NC357995  43.895  40.806   5.550
 8934POPC   PO457996  43.912  40.748   5.850
 8934POPC   GL157997  43.861  40.765   6.150
 8934POPC   GL257998  43.838  40.858   6.150
 8934POPC   C1A57999  43.837  40.757   6.450
 8934POPC   D2A58000  43.910  40.733   6.750
 8934POPC   C3A58001  43.842  40.741   7.050
 8934POPC   C4A58002  43.919  40.800   7.350
 8934POPC   C1B58003  43.699  40.962   6.450
 8934POPC   C2B58004  43.721  41.009   6.750
 8934POPC   C3B58005  43.692  41.011   7.050
 8934POPC   C4B58006  43.722  40.946   7.350
 8935POPC   NC358007  20.574  34.556   5.550
 8935POPC   PO458008  20.567  34.615   5.850
 8935POPC   GL158009  20.565  34.528   6.150
 8935POPC   GL258010  20.704  34.559   6.150
 8935POPC   C1A58011  20.644  34.534   6.450
 8935POPC   D2A58012  20.657  34.531   6.750
 8935POPC   C3A58013  20.584  34.566   7.050
 8935POPC   C4A58014  20.575  34.551   7.350
 8935POPC   C1B58015  20.826  34.470   6.450
 8935POPC   C2B58016  20.820  34.398   6.750
 8935POPC   C3B58017  20.871  34.423   7.050
 8935POPC   C4B58018  20.868  34.407   7.350
 8936POPC   NC358019  19.094  23.700   5.550
 8936POPC   PO458020  19.013  23.675   5.850
 8936POPC   GL158021  19.054  23.713   6.150
 8936POPC   GL258022  18.950  23.807   6.150
 8936POPC   C1A58023  19.018  23.717   6.450
 8936POPC   D2A58024  19.102  23.698   6.750
 8936POPC   C3A58025  19.090  23.761   7.050
 8936POPC   C4A58026  19.072  23.744   7.350
 8936POPC   C1B58027  18.864  23.908   6.450
 8936POPC   C2B58028  18.869  23.851   6.750
 8936POPC   C3B58029  18.904  23.915   7.050
 8936POPC   C4B58030  18.903  23.935   7.350
 8937POPC   NC358031  15.920  11.260   5.550
 8937POPC   PO458032  15.916  11.308   5.850
 8937POPC   GL158033  15.918  11.267   6.150
 8937POPC   GL258034  15.899  11.203   6.150
 8937POPC   C1A58035  15.956  11.345   6.450
 8937POPC   D2A58036  15.963  11.347   6.750
 8937POPC   C3A58037  15.994  11.310   7.050
 8937POPC   C4A58038  15.910  11.277   7.350
 8937POPC   C1B58039  15.889  11.054   6.450
 8937POPC   C2B58040  15.857  11.042   6.750
 8937POPC   C3B58041  15.796  11.078   7.050
 8937POPC   C4B58042  15.842  11.117   7.350
 8938POPC   NC358043  18.270  44.705   5.550
 8938POPC   PO458044  18.293  44.641   5.850
 8938POPC   GL158045  18.317  44.624   6.150
 8938POPC   GL258046  18.283  44.796   6.150
 8938POPC   C1A58047  18.259  44.652   6.450
 8938POPC   D2A58048  18.295  44.684   6.750
 8938POPC   C3A58049  18.311  44.693   7.050
 8938POPC   C4A58050  18.258  44.649   7.350
 8938POPC   C1B58051  18.355  44.885   6.450
 8938POPC   C2B58052  18.376  44.871   6.750
 8938POPC   C3B58053  18.312  44.865   7.050
 8938POPC   C4B58054  18.376  44.884   7.350
 8939POPC   NC358055   7.448  37.646   5.550
 8939POPC   PO458056   7.471  37.644   5.850
 8939POPC   GL158057   7.433  37.671   6.150
 8939POPC   GL258058   7.506  37.542   6.150
 8939POPC   C1A58059   7.434  37.683   6.450
 8939POPC   D2A58060   7.448  37.699   6.750
 8939POPC   C3A58061   7.396  37.704   7.050
 8939POPC   C4A58062   7.401  37.687   7.350
 8939POPC   C1B58063   7.620  37.502   6.450
 8939POPC   C2B58064   7.547  37.463   6.750
 8939POPC   C3B58065   7.609  37.454   7.050
 8939POPC   C4B58066   7.537  37.474   7.350
 8940POPC   NC358067  40.825  26.822   5.550
 8940POPC   PO458068  40.781  26.776   5.850
 8940POPC   GL158069  40.799  26.830   6.150
 8940POPC   GL258070  40.642  26.761   6.150
 8940POPC   C1A58071  40.785  26.864   6.450
 8940POPC   D2A58072  40.763  26.794   6.750
 8940POPC   C3A58073  40.759  26.781   7.050
 8940POPC   C4A58074  40.789  26.788   7.350
 8940POPC   C1B58075  40.561  26.678   6.450
 8940POPC   C2B58076  40.567  26.631   6.750
 8940POPC   C3B58077  40.542  26.622   7.050
 8940POPC   C4B58078  40.572  26.648   7.350
 8941POPC   NC358079  32.994  39.963   5.550
 8941POPC   PO458080  32.975  39.991   5.850
 8941POPC   GL158081  33.049  40.031   6.150
 8941POPC   GL258082  33.038  40.103   6.150
 8941POPC   C1A58083  32.980  40.000   6.450
 8941POPC   D2A58084  33.020  40.015   6.750
 8941POPC   C3A58085  33.016  40.034   7.050
 8941POPC   C4A58086  33.067  40.000   7.350
 8941POPC   C1B58087  33.064  40.295   6.450
 8941POPC   C2B58088  33.034  40.298   6.750
 8941POPC   C3B58089  33.048  40.245   7.050
 8941POPC   C4B58090  33.000  40.259   7.350
 8942POPC   NC358091  10.492   4.357   5.550
 8942POPC   PO458092  10.509   4.365   5.850
 8942POPC   GL158093  10.480   4.301   6.150
 8942POPC   GL258094  10.501   4.165   6.150
 8942POPC   C1A58095  10.520   4.310   6.450
 8942POPC   D2A58096  10.572   4.296   6.750
 8942POPC   C3A58097  10.496   4.311   7.050
 8942POPC   C4A58098  10.482   4.309   7.350
 8942POPC   C1B58099  10.460   4.053   6.450
 8942POPC   C2B58100  10.434   4.088   6.750
 8942POPC   C3B58101  10.451   4.095   7.050
 8942POPC   C4B58102  10.449   4.124   7.350
 8943POPC   NC358103  30.736  16.733   5.550
 8943POPC   PO458104  30.714  16.763   5.850
 8943POPC   GL158105  30.687  16.707   6.150
 8943POPC   GL258106  30.561  16.729   6.150
 8943POPC   C1A58107  30.725  16.758   6.450
 8943POPC   D2A58108  30.724  16.771   6.750
 8943POPC   C3A58109  30.720  16.735   7.050
 8943POPC   C4A58110  30.658  16.757   7.350
 8943POPC   C1B58111  30.414  16.848   6.450
 8943POPC   C2B58112  30.459  16.801   6.750
 8943POPC   C3B58113  30.504  16.858   7.050
 8943POPC   C4B58114  30.496  16.864   7.350
 8944POPC   NC358115  37.710  15.181   5.550
 8944POPC   PO458116  37.635  15.219   5.850
 8944POPC   GL158117  37.662  15.221   6.150
 8944POPC   GL258118  37.804  15.144   6.150
 8944POPC   C1A58119  37.652  15.191   6.450
 8944POPC   D2A58120  37.692  15.163   6.750
 8944POPC   C3A58121  37.663  15.199   7.050
 8944POPC   C4A58122  37.667  15.154   7.350
 8944POPC   C1B58123  37.967  15.170   6.450
 8944POPC   C2B58124  37.911  15.203   6.750
 8944POPC   C3B58125  37.968  15.153   7.050
 8944POPC   C4B58126  37.959  15.132   7.350
 8945POPC   NC358127  21.351  29.136   5.550
 8945POPC   PO458128  21.357  29.119   5.850
 8945POPC   GL158129  21.404  29.099   6.150
 8945POPC   GL258130  21.432  29.223   6.150
 8945POPC   C1A58131  21.405  29.155   6.450
 8945POPC   D2A58132  21.374  29.116   6.750
 8945POPC   C3A58133  21.365  29.095   7.050
 8945POPC   C4A58134  21.425  29.130   7.350
 8945POPC   C1B58135  21.429  29.369   6.450
 8945POPC   C2B58136  21.454  29.329   6.750
 8945POPC   C3B58137  21.480  29.391   7.050
 8945POPC   C4B58138  21.471  29.351   7.350
 8946POPC   NC358139  27.559  32.982   5.550
 8946POPC   PO458140  27.568  32.984   5.850
 8946POPC   GL158141  27.553  33.042   6.150
 8946POPC   GL258142  27.518  33.131   6.150
 8946POPC   C1A58143  27.547  33.009   6.450
 8946POPC   D2A58144  27.621  33.063   6.750
 8946POPC   C3A58145  27.551  33.061   7.050
 8946POPC   C4A58146  27.589  33.029   7.350
 8946POPC   C1B58147  27.459  33.180   6.450
 8946POPC   C2B58148  27.440  33.205   6.750
 8946POPC   C3B58149  27.373  33.246   7.050
 8946POPC   C4B58150  27.417  33.218   7.350
 8947POPC   NC358151   9.768  14.453   5.550
 8947POPC   PO458152   9.734  14.378   5.850
 8947POPC   GL158153   9.772  14.390   6.150
 8947POPC   GL258154   9.666  14.323   6.150
 8947POPC   C1A58155   9.731  14.395   6.450
 8947POPC   D2A58156   9.791  14.435   6.750
 8947POPC   C3A58157   9.735  14.430   7.050
 8947POPC   C4A58158   9.704  14.406   7.350
 8947POPC   C1B58159   9.597  14.198   6.450
 8947POPC   C2B58160   9.586  14.165   6.750
 8947POPC   C3B58161   9.583  14.152   7.050
 8947POPC   C4B58162   9.629  14.157   7.350
 8948POPC   NC358163  15.949  25.310   5.550
 8948POPC   PO458164  15.950  25.225   5.850
 8948POPC   GL158165  15.945  25.244   6.150
 8948POPC   GL258166  15.920  25.432   6.150
 8948POPC   C1A58167  15.963  25.287   6.450
 8948POPC   D2A58168  15.993  25.315   6.750
 8948POPC   C3A58169  15.974  25.218   7.050
 8948POPC   C4A58170  15.972  25.243   7.350
 8948POPC   C1B58171  15.929  25.492   6.450
 8948POPC   C2B58172  15.900  25.545   6.750
 8948POPC   C3B58173  15.936  25.506   7.050
 8948POPC   C4B58174  15.933  25.466   7.350
 8949POPC   NC358175  36.178  31.465   5.550
 8949POPC   PO458176  36.177  31.425   5.850
 8949POPC   GL158177  36.117  31.473   6.150
 8949POPC   GL258178  36.209  31.482   6.150
 8949POPC   C1A58179  36.171  31.497   6.450
 8949POPC   D2A58180  36.105  31.507   6.750
 8949POPC   C3A58181  36.148  31.521   7.050
 8949POPC   C4A58182  36.133  31.489   7.350
 8949POPC   C1B58183  36.380  31.569   6.450
 8949POPC   C2B58184  36.361  31.504   6.750
 8949POPC   C3B58185  36.323  31.573   7.050
 8949POPC   C4B58186  36.397  31.504   7.350
 8950POPC   NC358187  11.292  32.278   5.550
 8950POPC   PO458188  11.281  32.205   5.850
 8950POPC   GL158189  11.264  32.254   6.150
 8950POPC   GL258190  11.385  32.328   6.150
 8950POPC   C1A58191  11.290  32.267   6.450
 8950POPC   D2A58192  11.253  32.280   6.750
 8950POPC   C3A58193  11.284  32.215   7.050
 8950POPC   C4A58194  11.290  32.254   7.350
 8950POPC   C1B58195  11.455  32.396   6.450
 8950POPC   C2B58196  11.484  32.463   6.750
 8950POPC   C3B58197  11.496  32.433   7.050
 8950POPC   C4B58198  11.464  32.391   7.350
 8951POPC   NC358199   8.949   8.993   5.550
 8951POPC   PO458200   8.926   8.933   5.850
 8951POPC   GL158201   8.979   9.011   6.150
 8951POPC   GL258202   8.874   8.878   6.150
 8951POPC   C1A58203   8.934   9.019   6.450
 8951POPC   D2A58204   8.942   9.005   6.750
 8951POPC   C3A58205   8.929   8.976   7.050
 8951POPC   C4A58206   8.941   8.966   7.350
 8951POPC   C1B58207   8.751   8.817   6.450
 8951POPC   C2B58208   8.763   8.779   6.750
 8951POPC   C3B58209   8.770   8.834   7.050
 8951POPC   C4B58210   8.760   8.806   7.350
 8952POPC   NC358211   8.184  44.651   5.550
 8952POPC   PO458212   8.221  44.614   5.850
 8952POPC   GL158213   8.184  44.640   6.150
 8952POPC   GL258214   8.362  44.587   6.150
 8952POPC   C1A58215   8.189  44.646   6.450
 8952POPC   D2A58216   8.186  44.643   6.750
 8952POPC   C3A58217   8.201  44.622   7.050
 8952POPC   C4A58218   8.158  44.672   7.350
 8952POPC   C1B58219   8.435  44.565   6.450
 8952POPC   C2B58220   8.440  44.650   6.750
 8952POPC   C3B58221   8.434  44.635   7.050
 8952POPC   C4B58222   8.398  44.558   7.350
 8953POPC   NC358223  23.731  35.353   5.550
 8953POPC   PO458224  23.721  35.315   5.850
 8953POPC   GL158225  23.734  35.376   6.150
 8953POPC   GL258226  23.797  35.288   6.150
 8953POPC   C1A58227  23.742  35.382   6.450
 8953POPC   D2A58228  23.680  35.369   6.750
 8953POPC   C3A58229  23.737  35.388   7.050
 8953POPC   C4A58230  23.694  35.341   7.350
 8953POPC   C1B58231  23.935  35.219   6.450
 8953POPC   C2B58232  23.878  35.158   6.750
 8953POPC   C3B58233  23.913  35.153   7.050
 8953POPC   C4B58234  23.907  35.200   7.350
 8954POPC   NC358235   2.731  37.632   5.550
 8954POPC   PO458236   2.790  37.650   5.850
 8954POPC   GL158237   2.756  37.662   6.150
 8954POPC   GL258238   2.839  37.566   6.150
 8954POPC   C1A58239   2.759  37.691   6.450
 8954POPC   D2A58240   2.795  37.713   6.750
 8954POPC   C3A58241   2.783  37.639   7.050
 8954POPC   C4A58242   2.780  37.717   7.350
 8954POPC   C1B58243   2.908  37.525   6.450
 8954POPC   C2B58244   2.959  37.566   6.750
 8954POPC   C3B58245   2.952  37.492   7.050
 8954POPC   C4B58246   2.933  37.494   7.350
 8955POPC   NC358247  10.562  32.288   5.550
 8955POPC   PO458248  10.573  32.208   5.850
 8955POPC   GL158249  10.506  32.208   6.150
 8955POPC   GL258250  10.595  32.288   6.150
 8955POPC   C1A58251  10.537  32.277   6.450
 8955POPC   D2A58252  10.504  32.285   6.750
 8955POPC   C3A58253  10.514  32.251   7.050
 8955POPC   C4A58254  10.536  32.265   7.350
 8955POPC   C1B58255  10.725  32.404   6.450
 8955POPC   C2B58256  10.709  32.381   6.750
 8955POPC   C3B58257  10.759  32.367   7.050
 8955POPC   C4B58258  10.762  32.409   7.350
 8956POPC   NC358259   1.969  15.979   5.550
 8956POPC   PO458260   2.032  15.975   5.850
 8956POPC   GL158261   1.940  15.931   6.150
 8956POPC   GL258262   2.149  15.888   6.150
 8956POPC   C1A58263   1.966  15.976   6.450
 8956POPC   D2A58264   1.948  15.989   6.750
 8956POPC   C3A58265   1.995  15.911   7.050
 8956POPC   C4A58266   2.029  15.942   7.350
 8956POPC   C1B58267   2.216  15.861   6.450
 8956POPC   C2B58268   2.175  15.814   6.750
 8956POPC   C3B58269   2.259  15.820   7.050
 8956POPC   C4B58270   2.199  15.823   7.350
 8957POPC   NC358271  36.856  19.085   5.550
 8957POPC   PO458272  36.947  19.079   5.850
 8957POPC   GL158273  36.952  19.012   6.150
 8957POPC   GL258274  36.886  18.932   6.150
 8957POPC   C1A58275  36.912  19.087   6.450
 8957POPC   D2A58276  36.946  19.015   6.750
 8957POPC   C3A58277  36.873  19.058   7.050
 8957POPC   C4A58278  36.939  19.041   7.350
 8957POPC   C1B58279  36.833  18.847   6.450
 8957POPC   C2B58280  36.892  18.855   6.750
 8957POPC   C3B58281  36.911  18.857   7.050
 8957POPC   C4B58282  36.857  18.783   7.350
 8958POPC   NC358283   2.751   0.389   5.550
 8958POPC   PO458284   2.751   0.474   5.850
 8958POPC   GL158285   2.722   0.398   6.150
 8958POPC   GL258286   2.707   0.363   6.150
 8958POPC   C1A58287   2.799   0.482   6.450
 8958POPC   D2A58288   2.736   0.467   6.750
 8958POPC   C3A58289   2.727   0.432   7.050
 8958POPC   C4A58290   2.803   0.475   7.350
 8958POPC   C1B58291   2.654   0.204   6.450
 8958POPC   C2B58292   2.626   0.257   6.750
 8958POPC   C3B58293   2.578   0.208   7.050
 8958POPC   C4B58294   2.565   0.205   7.350
 8959POPC   NC358295   4.342   5.854   5.550
 8959POPC   PO458296   4.271   5.893   5.850
 8959POPC   GL158297   4.336   5.824   6.150
 8959POPC   GL258298   4.237   5.886   6.150
 8959POPC   C1A58299   4.315   5.900   6.450
 8959POPC   D2A58300   4.277   5.912   6.750
 8959POPC   C3A58301   4.339   5.876   7.050
 8959POPC   C4A58302   4.285   5.834   7.350
 8959POPC   C1B58303   4.103   5.872   6.450
 8959POPC   C2B58304   4.107   5.906   6.750
 8959POPC   C3B58305   4.088   5.932   7.050
 8959POPC   C4B58306   4.055   5.908   7.350
 8960POPC   NC358307  36.909   4.281   5.550
 8960POPC   PO458308  36.950   4.288   5.850
 8960POPC   GL158309  36.873   4.353   6.150
 8960POPC   GL258310  36.769   4.342   6.150
 8960POPC   C1A58311  36.937   4.343   6.450
 8960POPC   D2A58312  36.935   4.307   6.750
 8960POPC   C3A58313  36.864   4.355   7.050
 8960POPC   C4A58314  36.895   4.349   7.350
 8960POPC   C1B58315  36.627   4.400   6.450
 8960POPC   C2B58316  36.699   4.422   6.750
 8960POPC   C3B58317  36.682   4.402   7.050
 8960POPC   C4B58318  36.693   4.386   7.350
 8961POPC   NC358319  29.932   4.333   5.550
 8961POPC   PO458320  29.918   4.277   5.850
 8961POPC   GL158321  29.933   4.284   6.150
 8961POPC   GL258322  30.016   4.197   6.150
 8961POPC   C1A58323  29.878   4.362   6.450
 8961POPC   D2A58324  29.955   4.331   6.750
 8961POPC   C3A58325  29.895   4.360   7.050
 8961POPC   C4A58326  29.952   4.308   7.350
 8961POPC   C1B58327  30.039   4.160   6.450
 8961POPC   C2B58328  30.079   4.143   6.750
 8961POPC   C3B58329  30.113   4.138   7.050
 8961POPC   C4B58330  30.048   4.071   7.350
 8962POPC   NC358331  21.353  33.794   5.550
 8962POPC   PO458332  21.353  33.834   5.850
 8962POPC   GL158333  21.420  33.795   6.150
 8962POPC   GL258334  21.393  33.701   6.150
 8962POPC   C1A58335  21.383  33.755   6.450
 8962POPC   D2A58336  21.397  33.834   6.750
 8962POPC   C3A58337  21.370  33.784   7.050
 8962POPC   C4A58338  21.370  33.783   7.350
 8962POPC   C1B58339  21.355  33.600   6.450
 8962POPC   C2B58340  21.351  33.560   6.750
 8962POPC   C3B58341  21.347  33.570   7.050
 8962POPC   C4B58342  21.426  33.575   7.350
 8963POPC   NC358343   8.975  25.237   5.550
 8963POPC   PO458344   8.972  25.314   5.850
 8963POPC   GL158345   8.970  25.281   6.150
 8963POPC   GL258346   9.042  25.344   6.150
 8963POPC   C1A58347   8.992  25.228   6.450
 8963POPC   D2A58348   8.970  25.282   6.750
 8963POPC   C3A58349   8.973  25.297   7.050
 8963POPC   C4A58350   8.982  25.252   7.350
 8963POPC   C1B58351   9.230  25.431   6.450
 8963POPC   C2B58352   9.188  25.371   6.750
 8963POPC   C3B58353   9.218  25.442   7.050
 8963POPC   C4B58354   9.155  25.368   7.350
 8964POPC   NC358355  19.108  11.261   5.550
 8964POPC   PO458356  19.064  11.314   5.850
 8964POPC   GL158357  19.056  11.329   6.150
 8964POPC   GL258358  19.114  11.426   6.150
 8964POPC   C1A58359  19.082  11.321   6.450
 8964POPC   D2A58360  19.094  11.294   6.750
 8964POPC   C3A58361  19.084  11.277   7.050
 8964POPC   C4A58362  19.065  11.254   7.350
 8964POPC   C1B58363  19.179  11.545   6.450
 8964POPC   C2B58364  19.183  11.575   6.750
 8964POPC   C3B58365  19.181  11.490   7.050
 8964POPC   C4B58366  19.124  11.532   7.350
 8965POPC   NC358367  12.032  20.576   5.550
 8965POPC   PO458368  12.055  20.637   5.850
 8965POPC   GL158369  12.033  20.588   6.150
 8965POPC   GL258370  12.158  20.537   6.150
 8965POPC   C1A58371  12.096  20.570   6.450
 8965POPC   D2A58372  12.122  20.601   6.750
 8965POPC   C3A58373  12.042  20.654   7.050
 8965POPC   C4A58374  12.065  20.567   7.350
 8965POPC   C1B58375  12.245  20.463   6.450
 8965POPC   C2B58376  12.300  20.440   6.750
 8965POPC   C3B58377  12.286  20.423   7.050
 8965POPC   C4B58378  12.304  20.433   7.350
 8966POPC   NC358379  40.748  19.036   5.550
 8966POPC   PO458380  40.752  19.073   5.850
 8966POPC   GL158381  40.832  19.050   6.150
 8966POPC   GL258382  40.680  19.106   6.150
 8966POPC   C1A58383  40.830  19.108   6.450
 8966POPC   D2A58384  40.734  19.016   6.750
 8966POPC   C3A58385  40.737  19.032   7.050
 8966POPC   C4A58386  40.789  19.047   7.350
 8966POPC   C1B58387  40.615  19.250   6.450
 8966POPC   C2B58388  40.617  19.244   6.750
 8966POPC   C3B58389  40.650  19.244   7.050
 8966POPC   C4B58390  40.644  19.194   7.350
 8967POPC   NC358391  14.441  23.716   5.550
 8967POPC   PO458392  14.401  23.675   5.850
 8967POPC   GL158393  14.438  23.758   6.150
 8967POPC   GL258394  14.466  23.838   6.150
 8967POPC   C1A58395  14.359  23.693   6.450
 8967POPC   D2A58396  14.355  23.703   6.750
 8967POPC   C3A58397  14.439  23.689   7.050
 8967POPC   C4A58398  14.448  23.761   7.350
 8967POPC   C1B58399  14.510  23.969   6.450
 8967POPC   C2B58400  14.472  23.970   6.750
 8967POPC   C3B58401  14.500  23.956   7.050
 8967POPC   C4B58402  14.536  23.976   7.350
 8968POPC   NC358403  29.174   5.105   5.550
 8968POPC   PO458404  29.116   5.051   5.850
 8968POPC   GL158405  29.106   5.095   6.150
 8968POPC   GL258406  29.284   5.144   6.150
 8968POPC   C1A58407  29.145   5.107   6.450
 8968POPC   D2A58408  29.174   5.059   6.750
 8968POPC   C3A58409  29.137   5.111   7.050
 8968POPC   C4A58410  29.159   5.108   7.350
 8968POPC   C1B58411  29.417   5.131   6.450
 8968POPC   C2B58412  29.420   5.174   6.750
 8968POPC   C3B58413  29.331   5.151   7.050
 8968POPC   C4B58414  29.419   5.222   7.350
 8969POPC   NC358415  19.051  19.053   5.550
 8969POPC   PO458416  19.037  19.079   5.850
 8969POPC   GL158417  19.051  19.090   6.150
 8969POPC   GL258418  19.207  19.017   6.150
 8969POPC   C1A58419  19.036  19.073   6.450
 8969POPC   D2A58420  19.076  19.048   6.750
 8969POPC   C3A58421  19.094  19.041   7.050
 8969POPC   C4A58422  19.068  19.070   7.350
 8969POPC   C1B58423  19.261  19.001   6.450
 8969POPC   C2B58424  19.310  19.063   6.750
 8969POPC   C3B58425  19.291  19.075   7.050
 8969POPC   C4B58426  19.333  18.991   7.350
 8970POPC   NC358427  21.404  21.392   5.550
 8970POPC   PO458428  21.392  21.348   5.850
 8970POPC   GL158429  21.385  21.378   6.150
 8970POPC   GL258430  21.426  21.290   6.150
 8970POPC   C1A58431  21.341  21.374   6.450
 8970POPC   D2A58432  21.355  21.411   6.750
 8970POPC   C3A58433  21.404  21.406   7.050
 8970POPC   C4A58434  21.426  21.412   7.350
 8970POPC   C1B58435  21.492  21.190   6.450
 8970POPC   C2B58436  21.429  21.144   6.750
 8970POPC   C3B58437  21.427  21.116   7.050
 8970POPC   C4B58438  21.490  21.152   7.350
 8971POPC   NC358439   6.599  28.370   5.550
 8971POPC   PO458440   6.631  28.399   5.850
 8971POPC   GL158441   6.638  28.359   6.150
 8971POPC   GL258442   6.674  28.507   6.150
 8971POPC   C1A58443   6.614  28.397   6.450
 8971POPC   D2A58444   6.652  28.391   6.750
 8971POPC   C3A58445   6.647  28.325   7.050
 8971POPC   C4A58446   6.622  28.358   7.350
 8971POPC   C1B58447   6.838  28.554   6.450
 8971POPC   C2B58448   6.832  28.538   6.750
 8971POPC   C3B58449   6.759  28.610   7.050
 8971POPC   C4B58450   6.781  28.567   7.350
 8972POPC   NC358451  42.308  12.118   5.550
 8972POPC   PO458452  42.342  12.032   5.850
 8972POPC   GL158453  42.338  12.073   6.150
 8972POPC   GL258454  42.303  11.995   6.150
 8972POPC   C1A58455  42.335  12.050   6.450
 8972POPC   D2A58456  42.369  12.067   6.750
 8972POPC   C3A58457  42.335  12.051   7.050
 8972POPC   C4A58458  42.331  12.058   7.350
 8972POPC   C1B58459  42.305  11.844   6.450
 8972POPC   C2B58460  42.319  11.817   6.750
 8972POPC   C3B58461  42.360  11.869   7.050
 8972POPC   C4B58462  42.338  11.848   7.350
 8973POPC   NC358463  26.078  33.056   5.550
 8973POPC   PO458464  26.021  33.034   5.850
 8973POPC   GL158465  26.038  32.977   6.150
 8973POPC   GL258466  26.208  32.976   6.150
 8973POPC   C1A58467  26.003  33.016   6.450
 8973POPC   D2A58468  26.079  32.994   6.750
 8973POPC   C3A58469  26.031  33.049   7.050
 8973POPC   C4A58470  26.021  33.051   7.350
 8973POPC   C1B58471  26.306  32.955   6.450
 8973POPC   C2B58472  26.307  32.964   6.750
 8973POPC   C3B58473  26.318  33.048   7.050
 8973POPC   C4B58474  26.289  32.981   7.350
 8974POPC   NC358475  15.960   7.399   5.550
 8974POPC   PO458476  16.002   7.406   5.850
 8974POPC   GL158477  15.956   7.464   6.150
 8974POPC   GL258478  16.059   7.354   6.150
 8974POPC   C1A58479  15.999   7.446   6.450
 8974POPC   D2A58480  15.923   7.451   6.750
 8974POPC   C3A58481  15.921   7.457   7.050
 8974POPC   C4A58482  15.914   7.418   7.350
 8974POPC   C1B58483  16.193   7.323   6.450
 8974POPC   C2B58484  16.150   7.348   6.750
 8974POPC   C3B58485  16.178   7.395   7.050
 8974POPC   C4B58486  16.240   7.389   7.350
 8975POPC   NC358487  15.227  11.321   5.550
 8975POPC   PO458488  15.165  11.300   5.850
 8975POPC   GL158489  15.142  11.284   6.150
 8975POPC   GL258490  15.169  11.129   6.150
 8975POPC   C1A58491  15.148  11.341   6.450
 8975POPC   D2A58492  15.149  11.268   6.750
 8975POPC   C3A58493  15.221  11.266   7.050
 8975POPC   C4A58494  15.228  11.265   7.350
 8975POPC   C1B58495  15.139  11.096   6.450
 8975POPC   C2B58496  15.127  11.079   6.750
 8975POPC   C3B58497  15.086  11.037   7.050
 8975POPC   C4B58498  15.140  11.042   7.350
 8976POPC   NC358499  22.141   5.828   5.550
 8976POPC   PO458500  22.173   5.840   5.850
 8976POPC   GL158501  22.118   5.893   6.150
 8976POPC   GL258502  22.094   5.800   6.150
 8976POPC   C1A58503  22.169   5.873   6.450
 8976POPC   D2A58504  22.117   5.830   6.750
 8976POPC   C3A58505  22.200   5.914   7.050
 8976POPC   C4A58506  22.123   5.853   7.350
 8976POPC   C1B58507  22.040   5.626   6.450
 8976POPC   C2B58508  22.050   5.588   6.750
 8976POPC   C3B58509  22.044   5.630   7.050
 8976POPC   C4B58510  22.114   5.618   7.350
 8977POPC   NC358511   5.116   8.936   5.550
 8977POPC   PO458512   5.108   8.995   5.850
 8977POPC   GL158513   5.094   8.954   6.150
 8977POPC   GL258514   5.238   8.885   6.150
 8977POPC   C1A58515   5.092   8.929   6.450
 8977POPC   D2A58516   5.081   9.006   6.750
 8977POPC   C3A58517   5.135   9.021   7.050
 8977POPC   C4A58518   5.112   9.016   7.350
 8977POPC   C1B58519   5.335   8.859   6.450
 8977POPC   C2B58520   5.339   8.883   6.750
 8977POPC   C3B58521   5.335   8.857   7.050
 8977POPC   C4B58522   5.366   8.840   7.350
 8978POPC   NC358523  33.005  25.229   5.550
 8978POPC   PO458524  32.986  25.237   5.850
 8978POPC   GL158525  33.030  25.253   6.150
 8978POPC   GL258526  33.109  25.382   6.150
 8978POPC   C1A58527  33.072  25.311   6.450
 8978POPC   D2A58528  33.064  25.277   6.750
 8978POPC   C3A58529  32.995  25.297   7.050
 8978POPC   C4A58530  33.065  25.243   7.350
 8978POPC   C1B58531  33.146  25.519   6.450
 8978POPC   C2B58532  33.119  25.476   6.750
 8978POPC   C3B58533  33.112  25.514   7.050
 8978POPC   C4B58534  33.169  25.455   7.350
 8979POPC   NC358535  14.423   0.391   5.550
 8979POPC   PO458536  14.357   0.417   5.850
 8979POPC   GL158537  14.403   0.395   6.150
 8979POPC   GL258538  14.410   0.582   6.150
 8979POPC   C1A58539  14.388   0.439   6.450
 8979POPC   D2A58540  14.397   0.389   6.750
 8979POPC   C3A58541  14.389   0.431   7.050
 8979POPC   C4A58542  14.411   0.437   7.350
 8979POPC   C1B58543  14.379   0.643   6.450
 8979POPC   C2B58544  14.387   0.667   6.750
 8979POPC   C3B58545  14.313   0.648   7.050
 8979POPC   C4B58546  14.391   0.689   7.350
 8980POPC   NC358547  26.852   1.184   5.550
 8980POPC   PO458548  26.852   1.249   5.850
 8980POPC   GL158549  26.860   1.205   6.150
 8980POPC   GL258550  26.826   1.059   6.150
 8980POPC   C1A58551  26.817   1.216   6.450
 8980POPC   D2A58552  26.856   1.170   6.750
 8980POPC   C3A58553  26.797   1.224   7.050
 8980POPC   C4A58554  26.863   1.210   7.350
 8980POPC   C1B58555  26.899   1.001   6.450
 8980POPC   C2B58556  26.881   0.932   6.750
 8980POPC   C3B58557  26.842   0.948   7.050
 8980POPC   C4B58558  26.847   1.019   7.350
 8981POPC   NC358559  30.652  18.297   5.550
 8981POPC   PO458560  30.682  18.271   5.850
 8981POPC   GL158561  30.731  18.296   6.150
 8981POPC   GL258562  30.612  18.150   6.150
 8981POPC   C1A58563  30.685  18.321   6.450
 8981POPC   D2A58564  30.702  18.249   6.750
 8981POPC   C3A58565  30.716  18.256   7.050
 8981POPC   C4A58566  30.663  18.259   7.350
 8981POPC   C1B58567  30.602  18.053   6.450
 8981POPC   C2B58568  30.614  18.076   6.750
 8981POPC   C3B58569  30.641  18.091   7.050
 8981POPC   C4B58570  30.605  18.101   7.350
 8982POPC   NC358571  18.265   8.994   5.550
 8982POPC   PO458572  18.310   8.982   5.850
 8982POPC   GL158573  18.308   9.002   6.150
 8982POPC   GL258574  18.282   9.107   6.150
 8982POPC   C1A58575  18.328   9.019   6.450
 8982POPC   D2A58576  18.275   8.942   6.750
 8982POPC   C3A58577  18.255   9.009   7.050
 8982POPC   C4A58578  18.330   8.956   7.350
 8982POPC   C1B58579  18.266   9.227   6.450
 8982POPC   C2B58580  18.354   9.226   6.750
 8982POPC   C3B58581  18.282   9.261   7.050
 8982POPC   C4B58582  18.292   9.174   7.350
 8983POPC   NC358583   8.155  22.889   5.550
 8983POPC   PO458584   8.212  22.946   5.850
 8983POPC   GL158585   8.228  22.949   6.150
 8983POPC   GL258586   8.306  22.893   6.150
 8983POPC   C1A58587   8.236  22.979   6.450
 8983POPC   D2A58588   8.242  22.954   6.750
 8983POPC   C3A58589   8.216  22.944   7.050
 8983POPC   C4A58590   8.196  22.973   7.350
 8983POPC   C1B58591   8.340  22.819   6.450
 8983POPC   C2B58592   8.396  22.758   6.750
 8983POPC   C3B58593   8.350  22.770   7.050
 8983POPC   C4B58594   8.405  22.756   7.350
 8984POPC   NC358595   3.552  19.855   5.550
 8984POPC   PO458596   3.585  19.798   5.850
 8984POPC   GL158597   3.565  19.883   6.150
 8984POPC   GL258598   3.607  19.735   6.150
 8984POPC   C1A58599   3.495  19.825   6.450
 8984POPC   D2A58600   3.589  19.833   6.750
 8984POPC   C3A58601   3.589  19.877   7.050
 8984POPC   C4A58602   3.536  19.860   7.350
 8984POPC   C1B58603   3.632  19.551   6.450
 8984POPC   C2B58604   3.579  19.577   6.750
 8984POPC   C3B58605   3.597  19.628   7.050
 8984POPC   C4B58606   3.587  19.612   7.350
 8985POPC   NC358607  32.249   6.607   5.550
 8985POPC   PO458608  32.229   6.665   5.850
 8985POPC   GL158609  32.277   6.602   6.150
 8985POPC   GL258610  32.185   6.741   6.150
 8985POPC   C1A58611  32.261   6.678   6.450
 8985POPC   D2A58612  32.287   6.663   6.750
 8985POPC   C3A58613  32.270   6.634   7.050
 8985POPC   C4A58614  32.245   6.693   7.350
 8985POPC   C1B58615  32.214   6.901   6.450
 8985POPC   C2B58616  32.147   6.892   6.750
 8985POPC   C3B58617  32.172   6.931   7.050
 8985POPC   C4B58618  32.174   6.856   7.350
 8986POPC   NC358619  26.046  18.316   5.550
 8986POPC   PO458620  26.012  18.233   5.850
 8986POPC   GL158621  26.011  18.290   6.150
 8986POPC   GL258622  26.053  18.409   6.150
 8986POPC   C1A58623  26.044  18.317   6.450
 8986POPC   D2A58624  26.048  18.284   6.750
 8986POPC   C3A58625  26.040  18.282   7.050
 8986POPC   C4A58626  26.021  18.289   7.350
 8986POPC   C1B58627  25.975  18.579   6.450
 8986POPC   C2B58628  26.035  18.521   6.750
 8986POPC   C3B58629  25.965  18.502   7.050
 8986POPC   C4B58630  26.019  18.576   7.350
 8987POPC   NC358631  34.621  24.444   5.550
 8987POPC   PO458632  34.570  24.446   5.850
 8987POPC   GL158633  34.569  24.508   6.150
 8987POPC   GL258634  34.660  24.612   6.150
 8987POPC   C1A58635  34.574  24.479   6.450
 8987POPC   D2A58636  34.546  24.489   6.750
 8987POPC   C3A58637  34.626  24.508   7.050
 8987POPC   C4A58638  34.591  24.496   7.350
 8987POPC   C1B58639  34.703  24.678   6.450
 8987POPC   C2B58640  34.700  24.765   6.750
 8987POPC   C3B58641  34.662  24.744   7.050
 8987POPC   C4B58642  34.704  24.687   7.350
 8988POPC   NC358643  11.310  20.582   5.550
 8988POPC   PO458644  11.342  20.634   5.850
 8988POPC   GL158645  11.253  20.577   6.150
 8988POPC   GL258646  11.268  20.705   6.150
 8988POPC   C1A58647  11.316  20.584   6.450
 8988POPC   D2A58648  11.299  20.657   6.750
 8988POPC   C3A58649  11.325  20.570   7.050
 8988POPC   C4A58650  11.299  20.583   7.350
 8988POPC   C1B58651  11.328  20.905   6.450
 8988POPC   C2B58652  11.315  20.896   6.750
 8988POPC   C3B58653  11.351  20.908   7.050
 8988POPC   C4B58654  11.364  20.841   7.350
 8989POPC   NC358655  39.959  15.962   5.550
 8989POPC   PO458656  40.037  15.913   5.850
 8989POPC   GL158657  40.035  15.933   6.150
 8989POPC   GL258658  40.069  16.040   6.150
 8989POPC   C1A58659  39.975  15.919   6.450
 8989POPC   D2A58660  40.043  16.001   6.750
 8989POPC   C3A58661  40.003  15.996   7.050
 8989POPC   C4A58662  39.959  15.916   7.350
 8989POPC   C1B58663  40.149  16.226   6.450
 8989POPC   C2B58664  40.099  16.137   6.750
 8989POPC   C3B58665  40.074  16.201   7.050
 8989POPC   C4B58666  40.130  16.224   7.350
 8990POPC   NC358667  19.837  25.286   5.550
 8990POPC   PO458668  19.883  25.254   5.850
 8990POPC   GL158669  19.869  25.238   6.150
 8990POPC   GL258670  19.832  25.417   6.150
 8990POPC   C1A58671  19.793  25.301   6.450
 8990POPC   D2A58672  19.864  25.219   6.750
 8990POPC   C3A58673  19.868  25.281   7.050
 8990POPC   C4A58674  19.883  25.229   7.350
 8990POPC   C1B58675  19.748  25.525   6.450
 8990POPC   C2B58676  19.823  25.522   6.750
 8990POPC   C3B58677  19.839  25.475   7.050
 8990POPC   C4B58678  19.754  25.477   7.350
 8991POPC   NC358679  43.868  31.472   5.550
 8991POPC   PO458680  43.916  31.501   5.850
 8991POPC   GL158681  43.879  31.519   6.150
 8991POPC   GL258682  43.945  31.561   6.150
 8991POPC   C1A58683  43.896  31.428   6.450
 8991POPC   D2A58684  43.888  31.473   6.750
 8991POPC   C3A58685  43.881  31.455   7.050
 8991POPC   C4A58686  43.924  31.425   7.350
 8991POPC   C1B58687  43.873  31.701   6.450
 8991POPC   C2B58688  43.911  31.721   6.750
 8991POPC   C3B58689  43.895  31.764   7.050
 8991POPC   C4B58690  43.926  31.758   7.350
 8992POPC   NC358691  18.318  35.393   5.550
 8992POPC   PO458692  18.295  35.352   5.850
 8992POPC   GL158693  18.243  35.390   6.150
 8992POPC   GL258694  18.171  35.389   6.150
 8992POPC   C1A58695  18.313  35.357   6.450
 8992POPC   D2A58696  18.305  35.400   6.750
 8992POPC   C3A58697  18.251  35.322   7.050
 8992POPC   C4A58698  18.260  35.335   7.350
 8992POPC   C1B58699  18.062  35.500   6.450
 8992POPC   C2B58700  18.078  35.547   6.750
 8992POPC   C3B58701  18.036  35.524   7.050
 8992POPC   C4B58702  18.066  35.511   7.350
 8993POPC   NC358703  36.169   5.856   5.550
 8993POPC   PO458704  36.112   5.844   5.850
 8993POPC   GL158705  36.137   5.917   6.150
 8993POPC   GL258706  36.272   5.868   6.150
 8993POPC   C1A58707  36.144   5.831   6.450
 8993POPC   D2A58708  36.095   5.918   6.750
 8993POPC   C3A58709  36.177   5.836   7.050
 8993POPC   C4A58710  36.151   5.899   7.350
 8993POPC   C1B58711  36.351   5.824   6.450
 8993POPC   C2B58712  36.421   5.871   6.750
 8993POPC   C3B58713  36.390   5.816   7.050
 8993POPC   C4B58714  36.373   5.780   7.350
 8994POPC   NC358715  43.904  10.561   5.550
 8994POPC   PO458716  43.890  10.560   5.850
 8994POPC   GL158717  43.883  10.544   6.150
 8994POPC   GL258718  43.857  10.356   6.150
 8994POPC   C1A58719  43.877  10.566   6.450
 8994POPC   D2A58720  43.837  10.553   6.750
 8994POPC   C3A58721  43.923  10.558   7.050
 8994POPC   C4A58722  43.837  10.532   7.350
 8994POPC   C1B58723  43.864  10.271   6.450
 8994POPC   C2B58724  43.919  10.320   6.750
 8994POPC   C3B58725  43.882  10.318   7.050
 8994POPC   C4B58726  43.870  10.303   7.350
 8995POPC   NC358727  44.665   8.207   5.550
 8995POPC   PO458728  44.617   8.174   5.850
 8995POPC   GL158729  44.684   8.151   6.150
 8995POPC   GL258730  44.703   8.103   6.150
 8995POPC   C1A58731  44.697   8.234   6.450
 8995POPC   D2A58732  44.635   8.173   6.750
 8995POPC   C3A58733  44.642   8.167   7.050
 8995POPC   C4A58734  44.683   8.196   7.350
 8995POPC   C1B58735  44.806   7.974   6.450
 8995POPC   C2B58736  44.784   8.009   6.750
 8995POPC   C3B58737  44.802   7.982   7.050
 8995POPC   C4B58738  44.828   7.994   7.350
 8996POPC   NC358739  18.308   1.231   5.550
 8996POPC   PO458740  18.328   1.246   5.850
 8996POPC   GL158741  18.293   1.260   6.150
 8996POPC   GL258742  18.369   1.148   6.150
 8996POPC   C1A58743  18.239   1.241   6.450
 8996POPC   D2A58744  18.292   1.210   6.750
 8996POPC   C3A58745  18.329   1.262   7.050
 8996POPC   C4A58746  18.330   1.205   7.350
 8996POPC   C1B58747  18.516   1.052   6.450
 8996POPC   C2B58748  18.508   1.054   6.750
 8996POPC   C3B58749  18.500   1.076   7.050
 8996POPC   C4B58750  18.466   1.065   7.350
 8997POPC   NC358751  15.990  15.150   5.550
 8997POPC   PO458752  15.923  15.214   5.850
 8997POPC   GL158753  15.921  15.209   6.150
 8997POPC   GL258754  16.041  15.201   6.150
 8997POPC   C1A58755  15.973  15.137   6.450
 8997POPC   D2A58756  15.916  15.204   6.750
 8997POPC   C3A58757  15.996  15.191   7.050
 8997POPC   C4A58758  15.994  15.131   7.350
 8997POPC   C1B58759  16.158  15.121   6.450
 8997POPC   C2B58760  16.200  15.162   6.750
 8997POPC   C3B58761  16.247  15.127   7.050
 8997POPC   C4B58762  16.172  15.132   7.350
 8998POPC   NC358763  38.416  35.395   5.550
 8998POPC   PO458764  38.445  35.303   5.850
 8998POPC   GL158765  38.496  35.360   6.150
 8998POPC   GL258766  38.306  35.336   6.150
 8998POPC   C1A58767  38.480  35.368   6.450
 8998POPC   D2A58768  38.458  35.362   6.750
 8998POPC   C3A58769  38.439  35.374   7.050
 8998POPC   C4A58770  38.504  35.377   7.350
 8998POPC   C1B58771  38.200  35.302   6.450
 8998POPC   C2B58772  38.257  35.312   6.750
 8998POPC   C3B58773  38.208  35.313   7.050
 8998POPC   C4B58774  38.190  35.319   7.350
 8999POPC   NC358775  15.130  43.923   5.550
 8999POPC   PO458776  15.204  43.906   5.850
 8999POPC   GL158777  15.199  43.921   6.150
 8999POPC   GL258778  15.025  43.893   6.150
 8999POPC   C1A58779  15.158  43.887   6.450
 8999POPC   D2A58780  15.208  43.934   6.750
 8999POPC   C3A58781  15.184  43.839   7.050
 8999POPC   C4A58782  15.208  43.847   7.350
 8999POPC   C1B58783  14.963  43.811   6.450
 8999POPC   C2B58784  14.976  43.864   6.750
 8999POPC   C3B58785  14.908  43.859   7.050
 8999POPC   C4B58786  14.984  43.802   7.350
 9000POPC   NC358787  43.936   2.764   5.550
 9000POPC   PO458788  43.879   2.762   5.850
 9000POPC   GL158789  43.926   2.811   6.150
 9000POPC   GL258790  43.924   2.851   6.150
 9000POPC   C1A58791  43.914   2.785   6.450
 9000POPC   D2A58792  43.890   2.738   6.750
 9000POPC   C3A58793  43.837   2.759   7.050
 9000POPC   C4A58794  43.857   2.740   7.350
 9000POPC   C1B58795  44.043   2.928   6.450
 9000POPC   C2B58796  44.054   2.963   6.750
 9000POPC   C3B58797  44.053   2.917   7.050
 9000POPC   C4B58798  44.018   2.979   7.350
 9001POPC   NC358799  15.192  37.723   5.550
 9001POPC   PO458800  15.217  37.688   5.850
 9001POPC   GL158801  15.229  37.713   6.150
 9001POPC   GL258802  15.235  37.602   6.150
 9001POPC   C1A58803  15.222  37.680   6.450
 9001POPC   D2A58804  15.144  37.699   6.750
 9001POPC   C3A58805  15.171  37.640   7.050
 9001POPC   C4A58806  15.217  37.652   7.350
 9001POPC   C1B58807  15.222  37.445   6.450
 9001POPC   C2B58808  15.271  37.413   6.750
 9001POPC   C3B58809  15.264  37.461   7.050
 9001POPC   C4B58810  15.256  37.482   7.350
 9002POPC   NC358811  22.178   9.781   5.550
 9002POPC   PO458812  22.194   9.756   5.850
 9002POPC   GL158813  22.189   9.701   6.150
 9002POPC   GL258814  22.237   9.840   6.150
 9002POPC   C1A58815  22.205   9.766   6.450
 9002POPC   D2A58816  22.150   9.769   6.750
 9002POPC   C3A58817  22.209   9.772   7.050
 9002POPC   C4A58818  22.120   9.767   7.350
 9002POPC   C1B58819  22.299   9.966   6.450
 9002POPC   C2B58820  22.289   9.998   6.750
 9002POPC   C3B58821  22.329  10.005   7.050
 9002POPC   C4B58822  22.297   9.950   7.350
 9003POPC   NC358823  26.824  40.820   5.550
 9003POPC   PO458824  26.832  40.769   5.850
 9003POPC   GL158825  26.802  40.737   6.150
 9003POPC   GL258826  26.767  40.650   6.150
 9003POPC   C1A58827  26.859  40.785   6.450
 9003POPC   D2A58828  26.839  40.823   6.750
 9003POPC   C3A58829  26.850  40.788   7.050
 9003POPC   C4A58830  26.808  40.777   7.350
 9003POPC   C1B58831  26.849  40.519   6.450
 9003POPC   C2B58832  26.767  40.548   6.750
 9003POPC   C3B58833  26.815  40.501   7.050
 9003POPC   C4B58834  26.778  40.575   7.350
 9004POPC   NC358835   5.128   4.272   5.550
 9004POPC   PO458836   5.140   4.299   5.850
 9004POPC   GL158837   5.114   4.346   6.150
 9004POPC   GL258838   4.985   4.260   6.150
 9004POPC   C1A58839   5.098   4.292   6.450
 9004POPC   D2A58840   5.095   4.327   6.750
 9004POPC   C3A58841   5.139   4.290   7.050
 9004POPC   C4A58842   5.113   4.281   7.350
 9004POPC   C1B58843   4.934   4.135   6.450
 9004POPC   C2B58844   4.907   4.100   6.750
 9004POPC   C3B58845   4.875   4.129   7.050
 9004POPC   C4B58846   4.930   4.132   7.350
 9005POPC   NC358847  26.827  36.156   5.550
 9005POPC   PO458848  26.844  36.141   5.850
 9005POPC   GL158849  26.809  36.163   6.150
 9005POPC   GL258850  26.788  36.297   6.150
 9005POPC   C1A58851  26.779  36.136   6.450
 9005POPC   D2A58852  26.769  36.082   6.750
 9005POPC   C3A58853  26.806  36.103   7.050
 9005POPC   C4A58854  26.836  36.164   7.350
 9005POPC   C1B58855  26.871  36.337   6.450
 9005POPC   C2B58856  26.888  36.353   6.750
 9005POPC   C3B58857  26.894  36.420   7.050
 9005POPC   C4B58858  26.816  36.352   7.350
 9006POPC   NC358859  36.878  24.507   5.550
 9006POPC   PO458860  36.903  24.456   5.850
 9006POPC   GL158861  36.903  24.503   6.150
 9006POPC   GL258862  36.784  24.429   6.150
 9006POPC   C1A58863  36.894  24.519   6.450
 9006POPC   D2A58864  36.881  24.513   6.750
 9006POPC   C3A58865  36.885  24.465   7.050
 9006POPC   C4A58866  36.864  24.533   7.350
 9006POPC   C1B58867  36.710  24.316   6.450
 9006POPC   C2B58868  36.748  24.335   6.750
 9006POPC   C3B58869  36.752  24.324   7.050
 9006POPC   C4B58870  36.722  24.315   7.350
 9007POPC   NC358871  36.874  25.230   5.550
 9007POPC   PO458872  36.944  25.226   5.850
 9007POPC   GL158873  36.854  25.296   6.150
 9007POPC   GL258874  36.833  25.408   6.150
 9007POPC   C1A58875  36.915  25.234   6.450
 9007POPC   D2A58876  36.880  25.299   6.750
 9007POPC   C3A58877  36.886  25.247   7.050
 9007POPC   C4A58878  36.941  25.284   7.350
 9007POPC   C1B58879  36.837  25.462   6.450
 9007POPC   C2B58880  36.762  25.484   6.750
 9007POPC   C3B58881  36.808  25.484   7.050
 9007POPC   C4B58882  36.767  25.450   7.350
 9008POPC   NC358883  28.371  35.305   5.550
 9008POPC   PO458884  28.332  35.351   5.850
 9008POPC   GL158885  28.415  35.312   6.150
 9008POPC   GL258886  28.477  35.386   6.150
 9008POPC   C1A58887  28.343  35.308   6.450
 9008POPC   D2A58888  28.335  35.319   6.750
 9008POPC   C3A58889  28.406  35.308   7.050
 9008POPC   C4A58890  28.407  35.316   7.350
 9008POPC   C1B58891  28.573  35.441   6.450
 9008POPC   C2B58892  28.614  35.461   6.750
 9008POPC   C3B58893  28.640  35.475   7.050
 9008POPC   C4B58894  28.581  35.412   7.350
 9009POPC   NC358895  36.123  38.481   5.550
 9009POPC   PO458896  36.160  38.468   5.850
 9009POPC   GL158897  36.078  38.469   6.150
 9009POPC   GL258898  36.018  38.396   6.150
 9009POPC   C1A58899  36.136  38.469   6.450
 9009POPC   D2A58900  36.157  38.418   6.750
 9009POPC   C3A58901  36.089  38.424   7.050
 9009POPC   C4A58902  36.173  38.500   7.350
 9009POPC   C1B58903  35.999  38.281   6.450
 9009POPC   C2B58904  35.956  38.220   6.750
 9009POPC   C3B58905  36.011  38.297   7.050
 9009POPC   C4B58906  35.959  38.301   7.350
 9010POPC   NC358907  36.945  38.477   5.550
 9010POPC   PO458908  36.936  38.406   5.850
 9010POPC   GL158909  36.914  38.428   6.150
 9010POPC   GL258910  36.823  38.308   6.150
 9010POPC   C1A58911  36.894  38.463   6.450
 9010POPC   D2A58912  36.874  38.414   6.750
 9010POPC   C3A58913  36.862  38.491   7.050
 9010POPC   C4A58914  36.880  38.460   7.350
 9010POPC   C1B58915  36.822  38.205   6.450
 9010POPC   C2B58916  36.820  38.210   6.750
 9010POPC   C3B58917  36.791  38.184   7.050
 9010POPC   C4B58918  36.782  38.212   7.350
 9011POPC   NC358919   2.029   0.422   5.550
 9011POPC   PO458920   1.958   0.434   5.850
 9011POPC   GL158921   1.952   0.450   6.150
 9011POPC   GL258922   2.066   0.568   6.150
 9011POPC   C1A58923   1.981   0.433   6.450
 9011POPC   D2A58924   1.955   0.488   6.750
 9011POPC   C3A58925   2.035   0.407   7.050
 9011POPC   C4A58926   2.006   0.483   7.350
 9011POPC   C1B58927   2.069   0.672   6.450
 9011POPC   C2B58928   2.067   0.658   6.750
 9011POPC   C3B58929   2.102   0.668   7.050
 9011POPC   C4B58930   2.099   0.665   7.350
 9012POPC   NC358931  10.504  36.154   5.550
 9012POPC   PO458932  10.481  36.132   5.850
 9012POPC   GL158933  10.496  36.140   6.150
 9012POPC   GL258934  10.614  36.201   6.150
 9012POPC   C1A58935  10.548  36.126   6.450
 9012POPC   D2A58936  10.570  36.167   6.750
 9012POPC   C3A58937  10.561  36.142   7.050
 9012POPC   C4A58938  10.518  36.166   7.350
 9012POPC   C1B58939  10.770  36.237   6.450
 9012POPC   C2B58940  10.732  36.252   6.750
 9012POPC   C3B58941  10.776  36.227   7.050
 9012POPC   C4B58942  10.731  36.265   7.350
 9013POPC   NC358943  39.214  37.661   5.550
 9013POPC   PO458944  39.239  37.714   5.850
 9013POPC   GL158945  39.276  37.695   6.150
 9013POPC   GL258946  39.158  37.839   6.150
 9013POPC   C1A58947  39.215  37.654   6.450
 9013POPC   D2A58948  39.190  37.672   6.750
 9013POPC   C3A58949  39.273  37.660   7.050
 9013POPC   C4A58950  39.184  37.644   7.350
 9013POPC   C1B58951  39.204  37.897   6.450
 9013POPC   C2B58952  39.149  37.893   6.750
 9013POPC   C3B58953  39.187  37.939   7.050
 9013POPC   C4B58954  39.189  37.909   7.350
 9014POPC   NC358955  29.108  33.808   5.550
 9014POPC   PO458956  29.103  33.813   5.850
 9014POPC   GL158957  29.157  33.801   6.150
 9014POPC   GL258958  29.306  33.834   6.150
 9014POPC   C1A58959  29.154  33.753   6.450
 9014POPC   D2A58960  29.140  33.781   6.750
 9014POPC   C3A58961  29.187  33.782   7.050
 9014POPC   C4A58962  29.123  33.841   7.350
 9014POPC   C1B58963  29.389  33.799   6.450
 9014POPC   C2B58964  29.391  33.853   6.750
 9014POPC   C3B58965  29.405  33.824   7.050
 9014POPC   C4B58966  29.388  33.867   7.350
 9015POPC   NC358967  18.311   5.823   5.550
 9015POPC   PO458968  18.254   5.833   5.850
 9015POPC   GL158969  18.268   5.858   6.150
 9015POPC   GL258970  18.337   5.948   6.150
 9015POPC   C1A58971  18.301   5.909   6.450
 9015POPC   D2A58972  18.243   5.819   6.750
 9015POPC   C3A58973  18.271   5.919   7.050
 9015POPC   C4A58974  18.281   5.823   7.350
 9015POPC   C1B58975  18.466   6.053   6.450
 9015POPC   C2B58976  18.436   5.985   6.750
 9015POPC   C3B58977  18.516   5.987   7.050
 9015POPC   C4B58978  18.464   6.080   7.350
 9016POPC   NC358979   0.449  39.238   5.550
 9016POPC   PO458980   0.459  39.263   5.850
 9016POPC   GL158981   0.443  39.270   6.150
 9016POPC   GL258982   0.550  39.309   6.150
 9016POPC   C1A58983   0.447  39.190   6.450
 9016POPC   D2A58984   0.481  39.260   6.750
 9016POPC   C3A58985   0.432  39.198   7.050
 9016POPC   C4A58986   0.473  39.200   7.350
 9016POPC   C1B58987   0.669  39.343   6.450
 9016POPC   C2B58988   0.624  39.367   6.750
 9016POPC   C3B58989   0.650  39.371   7.050
 9016POPC   C4B58990   0.622  39.286   7.350
 9017POPC   NC358991  34.569  36.873   5.550
 9017POPC   PO458992  34.544  36.952   5.850
 9017POPC   GL158993  34.575  36.952   6.150
 9017POPC   GL258994  34.730  37.000   6.150
 9017POPC   C1A58995  34.531  36.914   6.450
 9017POPC   D2A58996  34.604  36.933   6.750
 9017POPC   C3A58997  34.554  36.926   7.050
 9017POPC   C4A58998  34.569  36.871   7.350
 9017POPC   C1B58999  34.831  37.041   6.450
 9017POPC   C2B59000  34.764  37.049   6.750
 9017POPC   C3B59001  34.754  37.033   7.050
 9017POPC   C4B59002  34.779  36.968   7.350
 9018POPC   NC359003  19.814  41.596   5.550
 9018POPC   PO459004  19.824  41.510   5.850
 9018POPC   GL159005  19.850  41.554   6.150
 9018POPC   GL259006  19.886  41.472   6.150
 9018POPC   C1A59007  19.797  41.552   6.450
 9018POPC   D2A59008  19.853  41.555   6.750
 9018POPC   C3A59009  19.874  41.529   7.050
 9018POPC   C4A59010  19.881  41.518   7.350
 9018POPC   C1B59011  19.931  41.359   6.450
 9018POPC   C2B59012  19.984  41.331   6.750
 9018POPC   C3B59013  19.992  41.378   7.050
 9018POPC   C4B59014  19.957  41.290   7.350
 9019POPC   NC359015  28.415  23.702   5.550
 9019POPC   PO459016  28.414  23.756   5.850
 9019POPC   GL159017  28.377  23.701   6.150
 9019POPC   GL259018  28.498  23.806   6.150
 9019POPC   C1A59019  28.330  23.726   6.450
 9019POPC   D2A59020  28.349  23.679   6.750
 9019POPC   C3A59021  28.354  23.750   7.050
 9019POPC   C4A59022  28.355  23.751   7.350
 9019POPC   C1B59023  28.588  23.835   6.450
 9019POPC   C2B59024  28.581  23.872   6.750
 9019POPC   C3B59025  28.629  23.825   7.050
 9019POPC   C4B59026  28.610  23.832   7.350
 9020POPC   NC359027  29.966  12.817   5.550
 9020POPC   PO459028  29.882  12.861   5.850
 9020POPC   GL159029  29.926  12.884   6.150
 9020POPC   GL259030  29.882  12.720   6.150
 9020POPC   C1A59031  29.889  12.858   6.450
 9020POPC   D2A59032  29.882  12.851   6.750
 9020POPC   C3A59033  29.887  12.876   7.050
 9020POPC   C4A59034  29.902  12.829   7.350
 9020POPC   C1B59035  29.810  12.598   6.450
 9020POPC   C2B59036  29.796  12.651   6.750
 9020POPC   C3B59037  29.783  12.659   7.050
 9020POPC   C4B59038  29.813  12.662   7.350
 9021POPC   NC359039  32.260  42.352   5.550
 9021POPC   PO459040  32.280  42.332   5.850
 9021POPC   GL159041  32.229  42.373   6.150
 9021POPC   GL259042  32.269  42.502   6.150
 9021POPC   C1A59043  32.199  42.290   6.450
 9021POPC   D2A59044  32.209  42.349   6.750
 9021POPC   C3A59045  32.281  42.286   7.050
 9021POPC   C4A59046  32.266  42.380   7.350
 9021POPC   C1B59047  32.179  42.606   6.450
 9021POPC   C2B59048  32.251  42.536   6.750
 9021POPC   C3B59049  32.245  42.615   7.050
 9021POPC   C4B59050  32.190  42.603   7.350
 9022POPC   NC359051   0.446  17.529   5.550
 9022POPC   PO459052   0.478  17.466   5.850
 9022POPC   GL159053   0.464  17.517   6.150
 9022POPC   GL259054   0.582  17.501   6.150
 9022POPC   C1A59055   0.425  17.460   6.450
 9022POPC   D2A59056   0.388  17.484   6.750
 9022POPC   C3A59057   0.444  17.536   7.050
 9022POPC   C4A59058   0.481  17.517   7.350
 9022POPC   C1B59059   0.666  17.591   6.450
 9022POPC   C2B59060   0.630  17.546   6.750
 9022POPC   C3B59061   0.691  17.533   7.050
 9022POPC   C4B59062   0.632  17.584   7.350
 9023POPC   NC359063  28.363  24.478   5.550
 9023POPC   PO459064  28.406  24.528   5.850
 9023POPC   GL159065  28.329  24.533   6.150
 9023POPC   GL259066  28.208  24.480   6.150
 9023POPC   C1A59067  28.347  24.469   6.450
 9023POPC   D2A59068  28.414  24.508   6.750
 9023POPC   C3A59069  28.417  24.486   7.050
 9023POPC   C4A59070  28.322  24.455   7.350
 9023POPC   C1B59071  28.177  24.521   6.450
 9023POPC   C2B59072  28.170  24.520   6.750
 9023POPC   C3B59073  28.115  24.575   7.050
 9023POPC   C4B59074  28.144  24.518   7.350
 9024POPC   NC359075  42.308  39.211   5.550
 9024POPC   PO459076  42.301  39.219   5.850
 9024POPC   GL159077  42.343  39.222   6.150
 9024POPC   GL259078  42.200  39.253   6.150
 9024POPC   C1A59079  42.349  39.224   6.450
 9024POPC   D2A59080  42.317  39.212   6.750
 9024POPC   C3A59081  42.370  39.244   7.050
 9024POPC   C4A59082  42.358  39.240   7.350
 9024POPC   C1B59083  42.121  39.308   6.450
 9024POPC   C2B59084  42.151  39.399   6.750
 9024POPC   C3B59085  42.076  39.354   7.050
 9024POPC   C4B59086  42.085  39.397   7.350
 9025POPC   NC359087  37.721  12.114   5.550
 9025POPC   PO459088  37.662  12.039   5.850
 9025POPC   GL159089  37.709  12.038   6.150
 9025POPC   GL259090  37.741  12.153   6.150
 9025POPC   C1A59091  37.642  12.041   6.450
 9025POPC   D2A59092  37.724  12.110   6.750
 9025POPC   C3A59093  37.651  12.106   7.050
 9025POPC   C4A59094  37.668  12.110   7.350
 9025POPC   C1B59095  37.840  12.264   6.450
 9025POPC   C2B59096  37.800  12.282   6.750
 9025POPC   C3B59097  37.777  12.308   7.050
 9025POPC   C4B59098  37.783  12.318   7.350
 9026POPC   NC359099  12.888  20.591   5.550
 9026POPC   PO459100  12.876  20.639   5.850
 9026POPC   GL159101  12.827  20.639   6.150
 9026POPC   GL259102  12.979  20.622   6.150
 9026POPC   C1A59103  12.840  20.569   6.450
 9026POPC   D2A59104  12.862  20.647   6.750
 9026POPC   C3A59105  12.859  20.618   7.050
 9026POPC   C4A59106  12.833  20.587   7.350
 9026POPC   C1B59107  13.138  20.556   6.450
 9026POPC   C2B59108  13.124  20.520   6.750
 9026POPC   C3B59109  13.102  20.516   7.050
 9026POPC   C4B59110  13.087  20.530   7.350
 9027POPC   NC359111  26.054  43.918   5.550
 9027POPC   PO459112  26.025  43.912   5.850
 9027POPC   GL159113  26.066  43.909   6.150
 9027POPC   GL259114  25.912  43.954   6.150
 9027POPC   C1A59115  26.079  43.846   6.450
 9027POPC   D2A59116  26.070  43.848   6.750
 9027POPC   C3A59117  26.019  43.885   7.050
 9027POPC   C4A59118  26.009  43.915   7.350
 9027POPC   C1B59119  25.771  43.892   6.450
 9027POPC   C2B59120  25.775  43.929   6.750
 9027POPC   C3B59121  25.783  43.888   7.050
 9027POPC   C4B59122  25.788  43.876   7.350
 9028POPC   NC359123   5.819  25.307   5.550
 9028POPC   PO459124   5.863  25.290   5.850
 9028POPC   GL159125   5.854  25.230   6.150
 9028POPC   GL259126   5.942  25.372   6.150
 9028POPC   C1A59127   5.918  25.232   6.450
 9028POPC   D2A59128   5.832  25.305   6.750
 9028POPC   C3A59129   5.884  25.251   7.050
 9028POPC   C4A59130   5.836  25.237   7.350
 9028POPC   C1B59131   5.937  25.459   6.450
 9028POPC   C2B59132   6.020  25.448   6.750
 9028POPC   C3B59133   5.971  25.473   7.050
 9028POPC   C4B59134   6.019  25.444   7.350
 9029POPC   NC359135  16.710  37.683   5.550
 9029POPC   PO459136  16.741  37.690   5.850
 9029POPC   GL159137  16.756  37.651   6.150
 9029POPC   GL259138  16.698  37.573   6.150
 9029POPC   C1A59139  16.713  37.686   6.450
 9029POPC   D2A59140  16.737  37.712   6.750
 9029POPC   C3A59141  16.714  37.662   7.050
 9029POPC   C4A59142  16.718  37.677   7.350
 9029POPC   C1B59143  16.781  37.383   6.450
 9029POPC   C2B59144  16.772  37.394   6.750
 9029POPC   C3B59145  16.775  37.455   7.050
 9029POPC   C4B59146  16.786  37.453   7.350
 9030POPC   NC359147  29.166  35.338   5.550
 9030POPC   PO459148  29.141  35.374   5.850
 9030POPC   GL159149  29.167  35.350   6.150
 9030POPC   GL259150  29.181  35.205   6.150
 9030POPC   C1A59151  29.188  35.339   6.450
 9030POPC   D2A59152  29.107  35.332   6.750
 9030POPC   C3A59153  29.149  35.339   7.050
 9030POPC   C4A59154  29.097  35.386   7.350
 9030POPC   C1B59155  29.133  35.067   6.450
 9030POPC   C2B59156  29.118  35.089   6.750
 9030POPC   C3B59157  29.125  35.142   7.050
 9030POPC   C4B59158  29.108  35.136   7.350
 9031POPC   NC359159  32.257  30.743   5.550
 9031POPC   PO459160  32.243  30.652   5.850
 9031POPC   GL159161  32.242  30.652   6.150
 9031POPC   GL259162  32.202  30.621   6.150
 9031POPC   C1A59163  32.202  30.703   6.450
 9031POPC   D2A59164  32.273  30.692   6.750
 9031POPC   C3A59165  32.285  30.737   7.050
 9031POPC   C4A59166  32.248  30.663   7.350
 9031POPC   C1B59167  32.186  30.466   6.450
 9031POPC   C2B59168  32.204  30.473   6.750
 9031POPC   C3B59169  32.164  30.470   7.050
 9031POPC   C4B59170  32.199  30.452   7.350
 9032POPC   NC359171  25.255  40.016   5.550
 9032POPC   PO459172  25.291  39.988   5.850
 9032POPC   GL159173  25.242  39.968   6.150
 9032POPC   GL259174  25.142  40.020   6.150
 9032POPC   C1A59175  25.232  39.970   6.450
 9032POPC   D2A59176  25.270  39.995   6.750
 9032POPC   C3A59177  25.268  40.019   7.050
 9032POPC   C4A59178  25.242  39.980   7.350
 9032POPC   C1B59179  24.993  39.979   6.450
 9032POPC   C2B59180  25.047  39.972   6.750
 9032POPC   C3B59181  25.047  39.971   7.050
 9032POPC   C4B59182  25.069  39.944   7.350
 9033POPC   NC359183  31.511  43.864   5.550
 9033POPC   PO459184  31.425  43.865   5.850
 9033POPC   GL159185  31.474  43.847   6.150
 9033POPC   GL259186  31.532  43.805   6.150
 9033POPC   C1A59187  31.501  43.930   6.450
 9033POPC   D2A59188  31.450  43.861   6.750
 9033POPC   C3A59189  31.436  43.870   7.050
 9033POPC   C4A59190  31.521  43.918   7.350
 9033POPC   C1B59191  31.651  43.712   6.450
 9033POPC   C2B59192  31.659  43.725   6.750
 9033POPC   C3B59193  31.631  43.704   7.050
 9033POPC   C4B59194  31.597  43.755   7.350
 9034POPC   NC359195  19.882   9.732   5.550
 9034POPC   PO459196  19.792   9.764   5.850
 9034POPC   GL159197  19.813   9.723   6.150
 9034POPC   GL259198  19.954   9.639   6.150
 9034POPC   C1A59199  19.867   9.730   6.450
 9034POPC   D2A59200  19.830   9.772   6.750
 9034POPC   C3A59201  19.863   9.718   7.050
 9034POPC   C4A59202  19.848   9.793   7.350
 9034POPC   C1B59203  20.075   9.596   6.450
 9034POPC   C2B59204  19.995   9.566   6.750
 9034POPC   C3B59205  20.086   9.606   7.050
 9034POPC   C4B59206  20.043   9.598   7.350
 9035POPC   NC359207  38.443   3.547   5.550
 9035POPC   PO459208  38.486   3.536   5.850
 9035POPC   GL159209  38.486   3.591   6.150
 9035POPC   GL259210  38.435   3.369   6.150
 9035POPC   C1A59211  38.443   3.505   6.450
 9035POPC   D2A59212  38.485   3.569   6.750
 9035POPC   C3A59213  38.455   3.492   7.050
 9035POPC   C4A59214  38.502   3.520   7.350
 9035POPC   C1B59215  38.501   3.338   6.450
 9035POPC   C2B59216  38.534   3.333   6.750
 9035POPC   C3B59217  38.485   3.304   7.050
 9035POPC   C4B59218  38.468   3.264   7.350
 9036POPC   NC359219  29.959   1.207   5.550
 9036POPC   PO459220  29.892   1.185   5.850
 9036POPC   GL159221  29.939   1.234   6.150
 9036POPC   GL259222  29.918   1.102   6.150
 9036POPC   C1A59223  29.886   1.253   6.450
 9036POPC   D2A59224  29.929   1.193   6.750
 9036POPC   C3A59225  29.947   1.205   7.050
 9036POPC   C4A59226  29.907   1.220   7.350
 9036POPC   C1B59227  30.001   0.993   6.450
 9036POPC   C2B59228  29.945   0.980   6.750
 9036POPC   C3B59229  29.910   0.944   7.050
 9036POPC   C4B59230  29.998   0.995   7.350
 9037POPC   NC359231  29.888  40.812   5.550
 9037POPC   PO459232  29.962  40.812   5.850
 9037POPC   GL159233  29.889  40.829   6.150
 9037POPC   GL259234  29.832  40.723   6.150
 9037POPC   C1A59235  29.896  40.746   6.450
 9037POPC   D2A59236  29.958  40.734   6.750
 9037POPC   C3A59237  29.917  40.795   7.050
 9037POPC   C4A59238  29.910  40.812   7.350
 9037POPC   C1B59239  29.722  40.577   6.450
 9037POPC   C2B59240  29.747  40.617   6.750
 9037POPC   C3B59241  29.720  40.631   7.050
 9037POPC   C4B59242  29.740  40.559   7.350
 9038POPC   NC359243  10.568  40.788   5.550
 9038POPC   PO459244  10.542  40.831   5.850
 9038POPC   GL159245  10.496  40.818   6.150
 9038POPC   GL259246  10.405  40.840   6.150
 9038POPC   C1A59247  10.559  40.791   6.450
 9038POPC   D2A59248  10.522  40.797   6.750
 9038POPC   C3A59249  10.554  40.818   7.050
 9038POPC   C4A59250  10.548  40.800   7.350
 9038POPC   C1B59251  10.319  40.818   6.450
 9038POPC   C2B59252  10.242  40.825   6.750
 9038POPC   C3B59253  10.333  40.892   7.050
 9038POPC   C4B59254  10.307  40.899   7.350
 9039POPC   NC359255  33.023  19.808   5.550
 9039POPC   PO459256  33.012  19.836   5.850
 9039POPC   GL159257  33.069  19.820   6.150
 9039POPC   GL259258  32.932  19.784   6.150
 9039POPC   C1A59259  33.003  19.803   6.450
 9039POPC   D2A59260  32.988  19.786   6.750
 9039POPC   C3A59261  33.058  19.870   7.050
 9039POPC   C4A59262  33.046  19.850   7.350
 9039POPC   C1B59263  32.825  19.691   6.450
 9039POPC   C2B59264  32.829  19.650   6.750
 9039POPC   C3B59265  32.810  19.684   7.050
 9039POPC   C4B59266  32.852  19.638   7.350
 9040POPC   NC359267  21.385  31.480   5.550
 9040POPC   PO459268  21.351  31.505   5.850
 9040POPC   GL159269  21.357  31.517   6.150
 9040POPC   GL259270  21.461  31.622   6.150
 9040POPC   C1A59271  21.426  31.456   6.450
 9040POPC   D2A59272  21.409  31.457   6.750
 9040POPC   C3A59273  21.435  31.486   7.050
 9040POPC   C4A59274  21.350  31.474   7.350
 9040POPC   C1B59275  21.442  31.760   6.450
 9040POPC   C2B59276  21.434  31.694   6.750
 9040POPC   C3B59277  21.478  31.753   7.050
 9040POPC   C4B59278  21.441  31.694   7.350
 9041POPC   NC359279   8.986  36.109   5.550
 9041POPC   PO459280   8.978  36.126   5.850
 9041POPC   GL159281   8.955  36.133   6.150
 9041POPC   GL259282   8.994  35.995   6.150
 9041POPC   C1A59283   9.021  36.152   6.450
 9041POPC   D2A59284   8.988  36.157   6.750
 9041POPC   C3A59285   9.006  36.134   7.050
 9041POPC   C4A59286   8.980  36.102   7.350
 9041POPC   C1B59287   8.941  35.910   6.450
 9041POPC   C2B59288   8.967  35.863   6.750
 9041POPC   C3B59289   8.950  35.836   7.050
 9041POPC   C4B59290   8.936  35.867   7.350
 9042POPC   NC359291  39.226  20.608   5.550
 9042POPC   PO459292  39.220  20.561   5.850
 9042POPC   GL159293  39.187  20.592   6.150
 9042POPC   GL259294  39.130  20.701   6.150
 9042POPC   C1A59295  39.279  20.628   6.450
 9042POPC   D2A59296  39.249  20.596   6.750
 9042POPC   C3A59297  39.217  20.587   7.050
 9042POPC   C4A59298  39.226  20.616   7.350
 9042POPC   C1B59299  39.064  20.736   6.450
 9042POPC   C2B59300  39.076  20.778   6.750
 9042POPC   C3B59301  39.065  20.708   7.050
 9042POPC   C4B59302  39.014  20.707   7.350
 9043POPC   NC359303  11.337  15.161   5.550
 9043POPC   PO459304  11.251  15.172   5.850
 9043POPC   GL159305  11.328  15.175   6.150
 9043POPC   GL259306  11.384  15.143   6.150
 9043POPC   C1A59307  11.258  15.204   6.450
 9043POPC   D2A59308  11.319  15.138   6.750
 9043POPC   C3A59309  11.300  15.219   7.050
 9043POPC   C4A59310  11.268  15.197   7.350
 9043POPC   C1B59311  11.511  15.044   6.450
 9043POPC   C2B59312  11.537  15.073   6.750
 9043POPC   C3B59313  11.508  15.093   7.050
 9043POPC   C4B59314  11.481  15.108   7.350
 9044POPC   NC359315   5.893  31.428   5.550
 9044POPC   PO459316   5.912  31.487   5.850
 9044POPC   GL159317   5.879  31.463   6.150
 9044POPC   GL259318   5.974  31.492   6.150
 9044POPC   C1A59319   5.891  31.436   6.450
 9044POPC   D2A59320   5.917  31.426   6.750
 9044POPC   C3A59321   5.832  31.489   7.050
 9044POPC   C4A59322   5.894  31.443   7.350
 9044POPC   C1B59323   6.060  31.597   6.450
 9044POPC   C2B59324   6.038  31.576   6.750
 9044POPC   C3B59325   6.064  31.634   7.050
 9044POPC   C4B59326   6.110  31.580   7.350
 9045POPC   NC359327  40.802  15.145   5.550
 9045POPC   PO459328  40.816  15.153   5.850
 9045POPC   GL159329  40.758  15.160   6.150
 9045POPC   GL259330  40.953  15.147   6.150
 9045POPC   C1A59331  40.783  15.198   6.450
 9045POPC   D2A59332  40.814  15.173   6.750
 9045POPC   C3A59333  40.776  15.152   7.050
 9045POPC   C4A59334  40.752  15.145   7.350
 9045POPC   C1B59335  41.013  15.136   6.450
 9045POPC   C2B59336  41.062  15.158   6.750
 9045POPC   C3B59337  41.010  15.124   7.050
 9045POPC   C4B59338  40.981  15.164   7.350
 9046POPC   NC359339  19.037  29.911   5.550
 9046POPC   PO459340  19.073  29.949   5.850
 9046POPC   GL159341  19.089  29.901   6.150
 9046POPC   GL259342  18.946  29.836   6.150
 9046POPC   C1A59343  19.086  29.895   6.450
 9046POPC   D2A59344  19.039  29.923   6.750
 9046POPC   C3A59345  19.055  29.929   7.050
 9046POPC   C4A59346  19.065  29.892   7.350
 9046POPC   C1B59347  18.899  29.739   6.450
 9046POPC   C2B59348  18.958  29.673   6.750
 9046POPC   C3B59349  18.887  29.695   7.050
 9046POPC   C4B59350  18.880  29.708   7.350
 9047POPC   NC359351  29.141  29.164   5.550
 9047POPC   PO459352  29.168  29.166   5.850
 9047POPC   GL159353  29.115  29.151   6.150
 9047POPC   GL259354  29.258  29.214   6.150
 9047POPC   C1A59355  29.131  29.116   6.450
 9047POPC   D2A59356  29.127  29.121   6.750
 9047POPC   C3A59357  29.124  29.162   7.050
 9047POPC   C4A59358  29.111  29.177   7.350
 9047POPC   C1B59359  29.359  29.289   6.450
 9047POPC   C2B59360  29.313  29.340   6.750
 9047POPC   C3B59361  29.375  29.324   7.050
 9047POPC   C4B59362  29.328  29.312   7.350
 9048POPC   NC359363  42.309  19.864   5.550
 9048POPC   PO459364  42.336  19.801   5.850
 9048POPC   GL159365  42.294  19.843   6.150
 9048POPC   GL259366  42.217  19.717   6.150
 9048POPC   C1A59367  42.306  19.836   6.450
 9048POPC   D2A59368  42.303  19.830   6.750
 9048POPC   C3A59369  42.372  19.808   7.050
 9048POPC   C4A59370  42.334  19.808   7.350
 9048POPC   C1B59371  42.139  19.600   6.450
 9048POPC   C2B59372  42.193  19.666   6.750
 9048POPC   C3B59373  42.215  19.673   7.050
 9048POPC   C4B59374  42.121  19.618   7.350
 9049POPC   NC359375  29.108  23.728   5.550
 9049POPC   PO459376  29.179  23.721   5.850
 9049POPC   GL159377  29.174  23.739   6.150
 9049POPC   GL259378  29.192  23.817   6.150
 9049POPC   C1A59379  29.150  23.705   6.450
 9049POPC   D2A59380  29.152  23.683   6.750
 9049POPC   C3A59381  29.120  23.685   7.050
 9049POPC   C4A59382  29.164  23.760   7.350
 9049POPC   C1B59383  29.264  23.978   6.450
 9049POPC   C2B59384  29.279  23.986   6.750
 9049POPC   C3B59385  29.212  23.923   7.050
 9049POPC   C4B59386  29.259  23.956   7.350
 9050POPC   NC359387   6.668   2.765   5.550
 9050POPC   PO459388   6.679   2.735   5.850
 9050POPC   GL159389   6.606   2.765   6.150
 9050POPC   GL259390   6.559   2.754   6.150
 9050POPC   C1A59391   6.613   2.777   6.450
 9050POPC   D2A59392   6.645   2.758   6.750
 9050POPC   C3A59393   6.641   2.744   7.050
 9050POPC   C4A59394   6.639   2.799   7.350
 9050POPC   C1B59395   6.431   2.649   6.450
 9050POPC   C2B59396   6.365   2.674   6.750
 9050POPC   C3B59397   6.400   2.720   7.050
 9050POPC   C4B59398   6.435   2.703   7.350
 9051POPC   NC359399  28.393  18.273   5.550
 9051POPC   PO459400  28.325  18.254   5.850
 9051POPC   GL159401  28.388  18.273   6.150
 9051POPC   GL259402  28.432  18.147   6.150
 9051POPC   C1A59403  28.365  18.252   6.450
 9051POPC   D2A59404  28.326  18.295   6.750
 9051POPC   C3A59405  28.402  18.285   7.050
 9051POPC   C4A59406  28.393  18.297   7.350
 9051POPC   C1B59407  28.372  18.015   6.450
 9051POPC   C2B59408  28.382  18.082   6.750
 9051POPC   C3B59409  28.368  18.061   7.050
 9051POPC   C4B59410  28.451  18.018   7.350
 9052POPC   NC359411  22.910   6.598   5.550
 9052POPC   PO459412  22.943   6.625   5.850
 9052POPC   GL159413  22.916   6.686   6.150
 9052POPC   GL259414  23.035   6.726   6.150
 9052POPC   C1A59415  22.951   6.595   6.450
 9052POPC   D2A59416  22.963   6.597   6.750
 9052POPC   C3A59417  22.906   6.634   7.050
 9052POPC   C4A59418  22.915   6.634   7.350
 9052POPC   C1B59419  23.089   6.791   6.450
 9052POPC   C2B59420  23.083   6.823   6.750
 9052POPC   C3B59421  23.155   6.850   7.050
 9052POPC   C4B59422  23.087   6.836   7.350
 9053POPC   NC359423  35.346  19.049   5.550
 9053POPC   PO459424  35.349  19.061   5.850
 9053POPC   GL159425  35.344  19.029   6.150
 9053POPC   GL259426  35.328  18.944   6.150
 9053POPC   C1A59427  35.311  19.070   6.450
 9053POPC   D2A59428  35.376  19.079   6.750
 9053POPC   C3A59429  35.367  19.039   7.050
 9053POPC   C4A59430  35.389  19.041   7.350
 9053POPC   C1B59431  35.355  18.780   6.450
 9053POPC   C2B59432  35.385  18.845   6.750
 9053POPC   C3B59433  35.356  18.841   7.050
 9053POPC   C4B59434  35.313  18.825   7.350
 9054POPC   NC359435   2.734  15.966   5.550
 9054POPC   PO459436   2.761  16.005   5.850
 9054POPC   GL159437   2.723  15.911   6.150
 9054POPC   GL259438   2.681  15.840   6.150
 9054POPC   C1A59439   2.747  15.996   6.450
 9054POPC   D2A59440   2.722  15.957   6.750
 9054POPC   C3A59441   2.724  15.976   7.050
 9054POPC   C4A59442   2.752  15.930   7.350
 9054POPC   C1B59443   2.598  15.794   6.450
 9054POPC   C2B59444   2.641  15.758   6.750
 9054POPC   C3B59445   2.641  15.758   7.050
 9054POPC   C4B59446   2.629  15.756   7.350
 9055POPC   NC359447  22.937  33.044   5.550
 9055POPC   PO459448  22.979  33.053   5.850
 9055POPC   GL159449  22.971  33.036   6.150
 9055POPC   GL259450  23.026  33.150   6.150
 9055POPC   C1A59451  22.954  32.994   6.450
 9055POPC   D2A59452  22.951  33.013   6.750
 9055POPC   C3A59453  22.907  33.050   7.050
 9055POPC   C4A59454  22.911  33.068   7.350
 9055POPC   C1B59455  23.062  33.213   6.450
 9055POPC   C2B59456  23.145  33.183   6.750
 9055POPC   C3B59457  23.147  33.170   7.050
 9055POPC   C4B59458  23.150  33.188   7.350
 9056POPC   NC359459  26.001   6.600   5.550
 9056POPC   PO459460  26.080   6.665   5.850
 9056POPC   GL159461  26.059   6.640   6.150
 9056POPC   GL259462  26.159   6.556   6.150
 9056POPC   C1A59463  26.015   6.654   6.450
 9056POPC   D2A59464  26.066   6.666   6.750
 9056POPC   C3A59465  26.017   6.694   7.050
 9056POPC   C4A59466  26.019   6.603   7.350
 9056POPC   C1B59467  26.279   6.541   6.450
 9056POPC   C2B59468  26.265   6.535   6.750
 9056POPC   C3B59469  26.204   6.553   7.050
 9056POPC   C4B59470  26.201   6.467   7.350
 9057POPC   NC359471   5.079  16.765   5.550
 9057POPC   PO459472   5.088  16.719   5.850
 9057POPC   GL159473   5.105  16.693   6.150
 9057POPC   GL259474   5.196  16.620   6.150
 9057POPC   C1A59475   5.094  16.699   6.450
 9057POPC   D2A59476   5.116  16.776   6.750
 9057POPC   C3A59477   5.101  16.697   7.050
 9057POPC   C4A59478   5.128  16.699   7.350
 9057POPC   C1B59479   5.248  16.460   6.450
 9057POPC   C2B59480   5.186  16.518   6.750
 9057POPC   C3B59481   5.211  16.553   7.050
 9057POPC   C4B59482   5.246  16.468   7.350
 9058POPC   NC359483  12.105   1.227   5.550
 9058POPC   PO459484  12.063   1.249   5.850
 9058POPC   GL159485  12.055   1.238   6.150
 9058POPC   GL259486  12.140   1.346   6.150
 9058POPC   C1A59487  12.068   1.167   6.450
 9058POPC   D2A59488  12.108   1.186   6.750
 9058POPC   C3A59489  12.115   1.217   7.050
 9058POPC   C4A59490  12.104   1.213   7.350
 9058POPC   C1B59491  12.105   1.436   6.450
 9058POPC   C2B59492  12.152   1.420   6.750
 9058POPC   C3B59493  12.108   1.451   7.050
 9058POPC   C4B59494  12.109   1.462   7.350
 9059POPC   NC359495  24.488  18.306   5.550
 9059POPC   PO459496  24.523  18.328   5.850
 9059POPC   GL159497  24.505  18.257   6.150
 9059POPC   GL259498  24.377  18.196   6.150
 9059POPC   C1A59499  24.533  18.307   6.450
 9059POPC   D2A59500  24.508  18.267   6.750
 9059POPC   C3A59501  24.514  18.299   7.050
 9059POPC   C4A59502  24.476  18.290   7.350
 9059POPC   C1B59503  24.276  18.161   6.450
 9059POPC   C2B59504  24.261  18.088   6.750
 9059POPC   C3B59505  24.333  18.150   7.050
 9059POPC   C4B59506  24.292  18.090   7.350
 9060POPC   NC359507  13.618   8.202   5.550
 9060POPC   PO459508  13.622   8.171   5.850
 9060POPC   GL159509  13.649   8.165   6.150
 9060POPC   GL259510  13.710   8.118   6.150
 9060POPC   C1A59511  13.645   8.217   6.450
 9060POPC   D2A59512  13.651   8.218   6.750
 9060POPC   C3A59513  13.657   8.187   7.050
 9060POPC   C4A59514  13.627   8.225   7.350
 9060POPC   C1B59515  13.659   8.003   6.450
 9060POPC   C2B59516  13.738   7.909   6.750
 9060POPC   C3B59517  13.651   7.990   7.050
 9060POPC   C4B59518  13.697   7.927   7.350
 9061POPC   NC359519  14.441  22.137   5.550
 9061POPC   PO459520  14.360  22.118   5.850
 9061POPC   GL159521  14.375  22.198   6.150
 9061POPC   GL259522  14.380  22.241   6.150
 9061POPC   C1A59523  14.382  22.144   6.450
 9061POPC   D2A59524  14.450  22.189   6.750
 9061POPC   C3A59525  14.357  22.141   7.050
 9061POPC   C4A59526  14.443  22.156   7.350
 9061POPC   C1B59527  14.443  22.384   6.450
 9061POPC   C2B59528  14.446  22.433   6.750
 9061POPC   C3B59529  14.464  22.367   7.050
 9061POPC   C4B59530  14.442  22.423   7.350
 9062POPC   NC359531  37.693  39.227   5.550
 9062POPC   PO459532  37.707  39.213   5.850
 9062POPC   GL159533  37.655  39.182   6.150
 9062POPC   GL259534  37.691  39.082   6.150
 9062POPC   C1A59535  37.717  39.223   6.450
 9062POPC   D2A59536  37.696  39.226   6.750
 9062POPC   C3A59537  37.637  39.246   7.050
 9062POPC   C4A59538  37.683  39.205   7.350
 9062POPC   C1B59539  37.710  38.979   6.450
 9062POPC   C2B59540  37.744  38.944   6.750
 9062POPC   C3B59541  37.782  38.974   7.050
 9062POPC   C4B59542  37.775  38.975   7.350
 9063POPC   NC359543  16.721   1.194   5.550
 9063POPC   PO459544  16.746   1.219   5.850
 9063POPC   GL159545  16.689   1.239   6.150
 9063POPC   GL259546  16.886   1.209   6.150
 9063POPC   C1A59547  16.720   1.221   6.450
 9063POPC   D2A59548  16.727   1.202   6.750
 9063POPC   C3A59549  16.688   1.257   7.050
 9063POPC   C4A59550  16.780   1.233   7.350
 9063POPC   C1B59551  17.013   1.212   6.450
 9063POPC   C2B59552  16.962   1.246   6.750
 9063POPC   C3B59553  16.971   1.163   7.050
 9063POPC   C4B59554  16.940   1.164   7.350
 9064POPC   NC359555  22.933   5.859   5.550
 9064POPC   PO459556  22.947   5.857   5.850
 9064POPC   GL159557  22.920   5.825   6.150
 9064POPC   GL259558  22.857   5.819   6.150
 9064POPC   C1A59559  22.985   5.919   6.450
 9064POPC   D2A59560  22.984   5.859   6.750
 9064POPC   C3A59561  22.947   5.884   7.050
 9064POPC   C4A59562  22.951   5.825   7.350
 9064POPC   C1B59563  22.744   5.667   6.450
 9064POPC   C2B59564  22.771   5.694   6.750
 9064POPC   C3B59565  22.760   5.735   7.050
 9064POPC   C4B59566  22.809   5.661   7.350
 9065POPC   NC359567  25.298  15.938   5.550
 9065POPC   PO459568  25.312  15.907   5.850
 9065POPC   GL159569  25.264  15.923   6.150
 9065POPC   GL259570  25.213  15.925   6.150
 9065POPC   C1A59571  25.312  15.919   6.450
 9065POPC   D2A59572  25.218  15.990   6.750
 9065POPC   C3A59573  25.252  15.952   7.050
 9065POPC   C4A59574  25.253  15.928   7.350
 9065POPC   C1B59575  25.044  15.770   6.450
 9065POPC   C2B59576  25.108  15.830   6.750
 9065POPC   C3B59577  25.033  15.834   7.050
 9065POPC   C4B59578  25.110  15.822   7.350
 9066POPC   NC359579  37.630   2.028   5.550
 9066POPC   PO459580  37.697   2.013   5.850
 9066POPC   GL159581  37.699   1.975   6.150
 9066POPC   GL259582  37.638   1.926   6.150
 9066POPC   C1A59583  37.640   2.036   6.450
 9066POPC   D2A59584  37.709   1.953   6.750
 9066POPC   C3A59585  37.662   1.967   7.050
 9066POPC   C4A59586  37.703   1.962   7.350
 9066POPC   C1B59587  37.546   1.822   6.450
 9066POPC   C2B59588  37.563   1.760   6.750
 9066POPC   C3B59589  37.574   1.751   7.050
 9066POPC   C4B59590  37.537   1.812   7.350
 9067POPC   NC359591   1.251   2.754   5.550
 9067POPC   PO459592   1.226   2.770   5.850
 9067POPC   GL159593   1.217   2.780   6.150
 9067POPC   GL259594   1.215   2.926   6.150
 9067POPC   C1A59595   1.205   2.762   6.450
 9067POPC   D2A59596   1.237   2.789   6.750
 9067POPC   C3A59597   1.207   2.769   7.050
 9067POPC   C4A59598   1.183   2.812   7.350
 9067POPC   C1B59599   1.148   3.049   6.450
 9067POPC   C2B59600   1.153   2.978   6.750
 9067POPC   C3B59601   1.182   2.964   7.050
 9067POPC   C4B59602   1.173   3.020   7.350
 9068POPC   NC359603  33.784  11.269   5.550
 9068POPC   PO459604  33.810  11.251   5.850
 9068POPC   GL159605  33.810  11.350   6.150
 9068POPC   GL259606  33.735  11.220   6.150
 9068POPC   C1A59607  33.770  11.349   6.450
 9068POPC   D2A59608  33.787  11.344   6.750
 9068POPC   C3A59609  33.792  11.309   7.050
 9068POPC   C4A59610  33.844  11.300   7.350
 9068POPC   C1B59611  33.697  11.014   6.450
 9068POPC   C2B59612  33.775  11.098   6.750
 9068POPC   C3B59613  33.712  11.021   7.050
 9068POPC   C4B59614  33.741  11.104   7.350
 9069POPC   NC359615  15.913  33.042   5.550
 9069POPC   PO459616  15.987  33.001   5.850
 9069POPC   GL159617  15.996  32.978   6.150
 9069POPC   GL259618  15.868  32.914   6.150
 9069POPC   C1A59619  15.956  33.072   6.450
 9069POPC   D2A59620  15.995  32.996   6.750
 9069POPC   C3A59621  15.957  33.032   7.050
 9069POPC   C4A59622  15.915  33.053   7.350
 9069POPC   C1B59623  15.783  32.839   6.450
 9069POPC   C2B59624  15.765  32.823   6.750
 9069POPC   C3B59625  15.830  32.867   7.050
 9069POPC   C4B59626  15.845  32.862   7.350
 9070POPC   NC359627   1.242  29.909   5.550
 9070POPC   PO459628   1.206  29.926   5.850
 9070POPC   GL159629   1.257  29.923   6.150
 9070POPC   GL259630   1.122  29.888   6.150
 9070POPC   C1A59631   1.202  29.899   6.450
 9070POPC   D2A59632   1.200  29.906   6.750
 9070POPC   C3A59633   1.250  29.883   7.050
 9070POPC   C4A59634   1.263  29.937   7.350
 9070POPC   C1B59635   0.952  29.926   6.450
 9070POPC   C2B59636   0.949  29.850   6.750
 9070POPC   C3B59637   0.979  29.940   7.050
 9070POPC   C4B59638   0.954  29.895   7.350
 9071POPC   NC359639  39.957  10.495   5.550
 9071POPC   PO459640  39.994  10.510   5.850
 9071POPC   GL159641  40.014  10.501   6.150
 9071POPC   GL259642  40.142  10.571   6.150
 9071POPC   C1A59643  39.981  10.476   6.450
 9071POPC   D2A59644  39.965  10.476   6.750
 9071POPC   C3A59645  40.028  10.516   7.050
 9071POPC   C4A59646  40.030  10.527   7.350
 9071POPC   C1B59647  40.188  10.713   6.450
 9071POPC   C2B59648  40.226  10.694   6.750
 9071POPC   C3B59649  40.174  10.701   7.050
 9071POPC   C4B59650  40.207  10.664   7.350
 9072POPC   NC359651   6.655  36.142   5.550
 9072POPC   PO459652   6.595  36.128   5.850
 9072POPC   GL159653   6.619  36.128   6.150
 9072POPC   GL259654   6.567  36.112   6.150
 9072POPC   C1A59655   6.626  36.094   6.450
 9072POPC   D2A59656   6.689  36.170   6.750
 9072POPC   C3A59657   6.617  36.136   7.050
 9072POPC   C4A59658   6.691  36.100   7.350
 9072POPC   C1B59659   6.420  36.068   6.450
 9072POPC   C2B59660   6.384  36.141   6.750
 9072POPC   C3B59661   6.415  36.156   7.050
 9072POPC   C4B59662   6.364  36.148   7.350
 9073POPC   NC359663  28.334  20.577   5.550
 9073POPC   PO459664  28.359  20.636   5.850
 9073POPC   GL159665  28.409  20.577   6.150
 9073POPC   GL259666  28.374  20.485   6.150
 9073POPC   C1A59667  28.413  20.641   6.450
 9073POPC   D2A59668  28.337  20.585   6.750
 9073POPC   C3A59669  28.347  20.617   7.050
 9073POPC   C4A59670  28.361  20.563   7.350
 9073POPC   C1B59671  28.300  20.342   6.450
 9073POPC   C2B59672  28.301  20.334   6.750
 9073POPC   C3B59673  28.318  20.364   7.050
 9073POPC   C4B59674  28.317  20.393   7.350
 9074POPC   NC359675  43.140   7.379   5.550
 9074POPC   PO459676  43.137   7.373   5.850
 9074POPC   GL159677  43.140   7.417   6.150
 9074POPC   GL259678  43.187   7.416   6.150
 9074POPC   C1A59679  43.107   7.396   6.450
 9074POPC   D2A59680  43.150   7.437   6.750
 9074POPC   C3A59681  43.063   7.392   7.050
 9074POPC   C4A59682  43.085   7.398   7.350
 9074POPC   C1B59683  43.371   7.391   6.450
 9074POPC   C2B59684  43.328   7.414   6.750
 9074POPC   C3B59685  43.351   7.361   7.050
 9074POPC   C4B59686  43.327   7.366   7.350
 9075POPC   NC359687  12.848  27.592   5.550
 9075POPC   PO459688  12.851  27.612   5.850
 9075POPC   GL159689  12.873  27.612   6.150
 9075POPC   GL259690  12.846  27.747   6.150
 9075POPC   C1A59691  12.839  27.562   6.450
 9075POPC   D2A59692  12.833  27.639   6.750
 9075POPC   C3A59693  12.806  27.630   7.050
 9075POPC   C4A59694  12.898  27.589   7.350
 9075POPC   C1B59695  12.938  27.806   6.450
 9075POPC   C2B59696  12.930  27.880   6.750
 9075POPC   C3B59697  12.955  27.858   7.050
 9075POPC   C4B59698  12.941  27.812   7.350
 9076POPC   NC359699   2.000  21.381   5.550
 9076POPC   PO459700   1.975  21.401   5.850
 9076POPC   GL159701   2.025  21.380   6.150
 9076POPC   GL259702   1.983  21.473   6.150
 9076POPC   C1A59703   2.012  21.365   6.450
 9076POPC   D2A59704   1.981  21.348   6.750
 9076POPC   C3A59705   1.976  21.410   7.050
 9076POPC   C4A59706   2.009  21.397   7.350
 9076POPC   C1B59707   2.075  21.663   6.450
 9076POPC   C2B59708   2.041  21.673   6.750
 9076POPC   C3B59709   2.063  21.600   7.050
 9076POPC   C4B59710   2.033  21.639   7.350
 9077POPC   NC359711  33.039  23.755   5.550
 9077POPC   PO459712  33.042  23.711   5.850
 9077POPC   GL159713  33.071  23.720   6.150
 9077POPC   GL259714  32.922  23.751   6.150
 9077POPC   C1A59715  32.993  23.741   6.450
 9077POPC   D2A59716  33.035  23.755   6.750
 9077POPC   C3A59717  32.981  23.709   7.050
 9077POPC   C4A59718  32.985  23.734   7.350
 9077POPC   C1B59719  32.751  23.778   6.450
 9077POPC   C2B59720  32.752  23.786   6.750
 9077POPC   C3B59721  32.802  23.828   7.050
 9077POPC   C4B59722  32.758  23.790   7.350
 9078POPC   NC359723   2.021  10.488   5.550
 9078POPC   PO459724   1.959  10.509   5.850
 9078POPC   GL159725   2.004  10.492   6.150
 9078POPC   GL259726   1.979  10.620   6.150
 9078POPC   C1A59727   1.977  10.510   6.450
 9078POPC   D2A59728   2.007  10.483   6.750
 9078POPC   C3A59729   1.981  10.486   7.050
 9078POPC   C4A59730   1.940  10.500   7.350
 9078POPC   C1B59731   1.951  10.815   6.450
 9078POPC   C2B59732   1.972  10.775   6.750
 9078POPC   C3B59733   1.935  10.752   7.050
 9078POPC   C4B59734   1.936  10.794   7.350
 9079POPC   NC359735  15.966  22.175   5.550
 9079POPC   PO459736  15.969  22.211   5.850
 9079POPC   GL159737  15.944  22.188   6.150
 9079POPC   GL259738  16.030  22.210   6.150
 9079POPC   C1A59739  15.920  22.174   6.450
 9079POPC   D2A59740  15.993  22.113   6.750
 9079POPC   C3A59741  15.939  22.192   7.050
 9079POPC   C4A59742  15.955  22.202   7.350
 9079POPC   C1B59743  16.124  22.237   6.450
 9079POPC   C2B59744  16.223  22.252   6.750
 9079POPC   C3B59745  16.194  22.316   7.050
 9079POPC   C4B59746  16.147  22.243   7.350
 9080POPC   NC359747  26.858  15.978   5.550
 9080POPC   PO459748  26.851  15.979   5.850
 9080POPC   GL159749  26.779  15.925   6.150
 9080POPC   GL259750  26.662  15.857   6.150
 9080POPC   C1A59751  26.863  15.944   6.450
 9080POPC   D2A59752  26.834  16.004   6.750
 9080POPC   C3A59753  26.834  15.908   7.050
 9080POPC   C4A59754  26.803  15.965   7.350
 9080POPC   C1B59755  26.605  15.804   6.450
 9080POPC   C2B59756  26.604  15.835   6.750
 9080POPC   C3B59757  26.550  15.868   7.050
 9080POPC   C4B59758  26.599  15.855   7.350
 9081POPC   NC359759  12.861  15.189   5.550
 9081POPC   PO459760  12.837  15.163   5.850
 9081POPC   GL159761  12.869  15.181   6.150
 9081POPC   GL259762  12.890  15.263   6.150
 9081POPC   C1A59763  12.829  15.176   6.450
 9081POPC   D2A59764  12.825  15.165   6.750
 9081POPC   C3A59765  12.855  15.186   7.050
 9081POPC   C4A59766  12.803  15.194   7.350
 9081POPC   C1B59767  13.011  15.396   6.450
 9081POPC   C2B59768  12.985  15.361   6.750
 9081POPC   C3B59769  12.978  15.402   7.050
 9081POPC   C4B59770  12.960  15.444   7.350
 9082POPC   NC359771  32.283  20.576   5.550
 9082POPC   PO459772  32.285  20.584   5.850
 9082POPC   GL159773  32.266  20.593   6.150
 9082POPC   GL259774  32.390  20.594   6.150
 9082POPC   C1A59775  32.206  20.658   6.450
 9082POPC   D2A59776  32.256  20.608   6.750
 9082POPC   C3A59777  32.271  20.644   7.050
 9082POPC   C4A59778  32.231  20.580   7.350
 9082POPC   C1B59779  32.495  20.565   6.450
 9082POPC   C2B59780  32.464  20.537   6.750
 9082POPC   C3B59781  32.456  20.528   7.050
 9082POPC   C4B59782  32.523  20.512   7.350
 9083POPC   NC359783  11.334  40.825   5.550
 9083POPC   PO459784  11.266  40.790   5.850
 9083POPC   GL159785  11.309  40.825   6.150
 9083POPC   GL259786  11.313  40.916   6.150
 9083POPC   C1A59787  11.256  40.749   6.450
 9083POPC   D2A59788  11.277  40.821   6.750
 9083POPC   C3A59789  11.297  40.826   7.050
 9083POPC   C4A59790  11.295  40.740   7.350
 9083POPC   C1B59791  11.404  41.052   6.450
 9083POPC   C2B59792  11.383  40.966   6.750
 9083POPC   C3B59793  11.385  41.025   7.050
 9083POPC   C4B59794  11.410  40.990   7.350
 9084POPC   NC359795  14.378  12.870   5.550
 9084POPC   PO459796  14.386  12.833   5.850
 9084POPC   GL159797  14.368  12.898   6.150
 9084POPC   GL259798  14.244  12.862   6.150
 9084POPC   C1A59799  14.361  12.842   6.450
 9084POPC   D2A59800  14.420  12.872   6.750
 9084POPC   C3A59801  14.436  12.880   7.050
 9084POPC   C4A59802  14.382  12.896   7.350
 9084POPC   C1B59803  14.128  12.828   6.450
 9084POPC   C2B59804  14.143  12.865   6.750
 9084POPC   C3B59805  14.123  12.887   7.050
 9084POPC   C4B59806  14.180  12.838   7.350
 9085POPC   NC359807  40.039   1.262   5.550
 9085POPC   PO459808  40.048   1.217   5.850
 9085POPC   GL159809  40.056   1.165   6.150
 9085POPC   GL259810  39.984   1.102   6.150
 9085POPC   C1A59811  39.967   1.206   6.450
 9085POPC   D2A59812  39.986   1.188   6.750
 9085POPC   C3A59813  39.988   1.204   7.050
 9085POPC   C4A59814  39.979   1.224   7.350
 9085POPC   C1B59815  39.859   1.008   6.450
 9085POPC   C2B59816  39.860   1.046   6.750
 9085POPC   C3B59817  39.862   0.979   7.050
 9085POPC   C4B59818  39.834   1.046   7.350
 9086POPC   NC359819  35.325  16.739   5.550
 9086POPC   PO459820  35.318  16.749   5.850
 9086POPC   GL159821  35.323  16.696   6.150
 9086POPC   GL259822  35.268  16.692   6.150
 9086POPC   C1A59823  35.386  16.740   6.450
 9086POPC   D2A59824  35.396  16.730   6.750
 9086POPC   C3A59825  35.368  16.736   7.050
 9086POPC   C4A59826  35.305  16.724   7.350
 9086POPC   C1B59827  35.174  16.569   6.450
 9086POPC   C2B59828  35.101  16.617   6.750
 9086POPC   C3B59829  35.182  16.602   7.050
 9086POPC   C4B59830  35.179  16.625   7.350
 9087POPC   NC359831  26.772  21.372   5.550
 9087POPC   PO459832  26.826  21.433   5.850
 9087POPC   GL159833  26.768  21.349   6.150
 9087POPC   GL259834  26.907  21.471   6.150
 9087POPC   C1A59835  26.828  21.433   6.450
 9087POPC   D2A59836  26.777  21.398   6.750
 9087POPC   C3A59837  26.789  21.414   7.050
 9087POPC   C4A59838  26.852  21.389   7.350
 9087POPC   C1B59839  27.052  21.509   6.450
 9087POPC   C2B59840  27.006  21.565   6.750
 9087POPC   C3B59841  26.978  21.545   7.050
 9087POPC   C4B59842  27.025  21.527   7.350
 9088POPC   NC359843  13.623  27.606   5.550
 9088POPC   PO459844  13.619  27.579   5.850
 9088POPC   GL159845  13.643  27.559   6.150
 9088POPC   GL259846  13.679  27.450   6.150
 9088POPC   C1A59847  13.651  27.566   6.450
 9088POPC   D2A59848  13.603  27.627   6.750
 9088POPC   C3A59849  13.665  27.590   7.050
 9088POPC   C4A59850  13.589  27.608   7.350
 9088POPC   C1B59851  13.673  27.364   6.450
 9088POPC   C2B59852  13.609  27.304   6.750
 9088POPC   C3B59853  13.621  27.304   7.050
 9088POPC   C4B59854  13.659  27.319   7.350
 9089POPC   NC359855  23.667  33.053   5.550
 9089POPC   PO459856  23.753  33.037   5.850
 9089POPC   GL159857  23.681  33.070   6.150
 9089POPC   GL259858  23.671  32.963   6.150
 9089POPC   C1A59859  23.687  32.987   6.450
 9089POPC   D2A59860  23.742  33.067   6.750
 9089POPC   C3A59861  23.664  32.992   7.050
 9089POPC   C4A59862  23.748  33.034   7.350
 9089POPC   C1B59863  23.639  32.847   6.450
 9089POPC   C2B59864  23.617  32.785   6.750
 9089POPC   C3B59865  23.562  32.838   7.050
 9089POPC   C4B59866  23.563  32.793   7.350
 9090POPC   NC359867   1.242  39.217   5.550
 9090POPC   PO459868   1.204  39.219   5.850
 9090POPC   GL159869   1.231  39.275   6.150
 9090POPC   GL259870   1.143  39.301   6.150
 9090POPC   C1A59871   1.225  39.276   6.450
 9090POPC   D2A59872   1.201  39.277   6.750
 9090POPC   C3A59873   1.245  39.192   7.050
 9090POPC   C4A59874   1.213  39.209   7.350
 9090POPC   C1B59875   1.033  39.417   6.450
 9090POPC   C2B59876   1.043  39.350   6.750
 9090POPC   C3B59877   1.063  39.372   7.050
 9090POPC   C4B59878   1.010  39.429   7.350
 9091POPC   NC359879  10.555   6.648   5.550
 9091POPC   PO459880  10.568   6.618   5.850
 9091POPC   GL159881  10.507   6.683   6.150
 9091POPC   GL259882  10.442   6.647   6.150
 9091POPC   C1A59883  10.503   6.668   6.450
 9091POPC   D2A59884  10.497   6.649   6.750
 9091POPC   C3A59885  10.536   6.683   7.050
 9091POPC   C4A59886  10.540   6.618   7.350
 9091POPC   C1B59887  10.244   6.739   6.450
 9091POPC   C2B59888  10.262   6.766   6.750
 9091POPC   C3B59889  10.305   6.787   7.050
 9091POPC   C4B59890  10.244   6.711   7.350
 9092POPC   NC359891  22.157   7.389   5.550
 9092POPC   PO459892  22.178   7.469   5.850
 9092POPC   GL159893  22.170   7.404   6.150
 9092POPC   GL259894  22.106   7.344   6.150
 9092POPC   C1A59895  22.129   7.441   6.450
 9092POPC   D2A59896  22.208   7.389   6.750
 9092POPC   C3A59897  22.194   7.431   7.050
 9092POPC   C4A59898  22.172   7.424   7.350
 9092POPC   C1B59899  21.944   7.278   6.450
 9092POPC   C2B59900  21.978   7.275   6.750
 9092POPC   C3B59901  22.011   7.239   7.050
 9092POPC   C4B59902  22.009   7.237   7.350
 9093POPC   NC359903  29.876   6.624   5.550
 9093POPC   PO459904  29.940   6.615   5.850
 9093POPC   GL159905  29.951   6.673   6.150
 9093POPC   GL259906  29.989   6.539   6.150
 9093POPC   C1A59907  29.886   6.686   6.450
 9093POPC   D2A59908  29.939   6.687   6.750
 9093POPC   C3A59909  29.933   6.610   7.050
 9093POPC   C4A59910  29.915   6.596   7.350
 9093POPC   C1B59911  30.119   6.482   6.450
 9093POPC   C2B59912  30.046   6.478   6.750
 9093POPC   C3B59913  30.116   6.450   7.050
 9093POPC   C4B59914  30.073   6.511   7.350
 9094POPC   NC359915  36.145  39.259   5.550
 9094POPC   PO459916  36.127  39.229   5.850
 9094POPC   GL159917  36.154  39.281   6.150
 9094POPC   GL259918  36.037  39.335   6.150
 9094POPC   C1A59919  36.137  39.217   6.450
 9094POPC   D2A59920  36.142  39.206   6.750
 9094POPC   C3A59921  36.130  39.259   7.050
 9094POPC   C4A59922  36.093  39.192   7.350
 9094POPC   C1B59923  35.982  39.446   6.450
 9094POPC   C2B59924  36.027  39.407   6.750
 9094POPC   C3B59925  36.004  39.471   7.050
 9094POPC   C4B59926  35.958  39.404   7.350
 9095POPC   NC359927  39.227  16.709   5.550
 9095POPC   PO459928  39.193  16.741   5.850
 9095POPC   GL159929  39.278  16.741   6.150
 9095POPC   GL259930  39.350  16.718   6.150
 9095POPC   C1A59931  39.251  16.690   6.450
 9095POPC   D2A59932  39.224  16.773   6.750
 9095POPC   C3A59933  39.224  16.711   7.050
 9095POPC   C4A59934  39.251  16.758   7.350
 9095POPC   C1B59935  39.521  16.685   6.450
 9095POPC   C2B59936  39.459  16.699   6.750
 9095POPC   C3B59937  39.461  16.700   7.050
 9095POPC   C4B59938  39.469  16.644   7.350
 9096POPC   NC359939   5.837  19.026   5.550
 9096POPC   PO459940   5.914  19.077   5.850
 9096POPC   GL159941   5.892  19.014   6.150
 9096POPC   GL259942   5.813  19.170   6.150
 9096POPC   C1A59943   5.845  19.053   6.450
 9096POPC   D2A59944   5.915  19.055   6.750
 9096POPC   C3A59945   5.830  19.108   7.050
 9096POPC   C4A59946   5.897  19.079   7.350
 9096POPC   C1B59947   5.721  19.205   6.450
 9096POPC   C2B59948   5.668  19.256   6.750
 9096POPC   C3B59949   5.738  19.277   7.050
 9096POPC   C4B59950   5.699  19.223   7.350
 9097POPC   NC359951   3.501  16.779   5.550
 9097POPC   PO459952   3.567  16.695   5.850
 9097POPC   GL159953   3.522  16.757   6.150
 9097POPC   GL259954   3.615  16.677   6.150
 9097POPC   C1A59955   3.567  16.709   6.450
 9097POPC   D2A59956   3.541  16.703   6.750
 9097POPC   C3A59957   3.528  16.761   7.050
 9097POPC   C4A59958   3.535  16.766   7.350
 9097POPC   C1B59959   3.739  16.579   6.450
 9097POPC   C2B59960   3.716  16.510   6.750
 9097POPC   C3B59961   3.671  16.551   7.050
 9097POPC   C4B59962   3.728  16.541   7.350
 9098POPC   NC359963   2.022  12.080   5.550
 9098POPC   PO459964   1.974  12.057   5.850
 9098POPC   GL159965   1.959  12.113   6.150
 9098POPC   GL259966   1.857  12.125   6.150
 9098POPC   C1A59967   1.942  12.120   6.450
 9098POPC   D2A59968   1.964  12.082   6.750
 9098POPC   C3A59969   1.986  12.107   7.050
 9098POPC   C4A59970   1.998  12.100   7.350
 9098POPC   C1B59971   1.798  12.305   6.450
 9098POPC   C2B59972   1.860  12.297   6.750
 9098POPC   C3B59973   1.816  12.261   7.050
 9098POPC   C4B59974   1.827  12.229   7.350
 9099POPC   NC359975  43.909  43.859   5.550
 9099POPC   PO459976  43.862  43.861   5.850
 9099POPC   GL159977  43.888  43.870   6.150
 9099POPC   GL259978  43.947  43.791   6.150
 9099POPC   C1A59979  43.884  43.925   6.450
 9099POPC   D2A59980  43.931  43.922   6.750
 9099POPC   C3A59981  43.896  43.855   7.050
 9099POPC   C4A59982  43.878  43.861   7.350
 9099POPC   C1B59983  44.024  43.697   6.450
 9099POPC   C2B59984  43.991  43.673   6.750
 9099POPC   C3B59985  44.016  43.619   7.050
 9099POPC   C4B59986  44.045  43.640   7.350
 9100POPC   NC359987  22.933  20.575   5.550
 9100POPC   PO459988  22.901  20.653   5.850
 9100POPC   GL159989  22.934  20.649   6.150
 9100POPC   GL259990  23.045  20.540   6.150
 9100POPC   C1A59991  22.986  20.584   6.450
 9100POPC   D2A59992  22.953  20.633   6.750
 9100POPC   C3A59993  22.891  20.625   7.050
 9100POPC   C4A59994  22.902  20.624   7.350
 9100POPC   C1B59995  23.160  20.501   6.450
 9100POPC   C2B59996  23.159  20.479   6.750
 9100POPC   C3B59997  23.185  20.441   7.050
 9100POPC   C4B59998  23.103  20.459   7.350
 9101POPC   NC359999  43.080  15.202   5.550
 9101POPC   PO460000  43.072  15.206   5.850
 9101POPC   GL160001  43.141  15.151   6.150
 9101POPC   GL260002  43.129  15.307   6.150
 9101POPC   C1A60003  43.146  15.171   6.450
 9101POPC   D2A60004  43.148  15.182   6.750
 9101POPC   C3A60005  43.147  15.163   7.050
 9101POPC   C4A60006  43.097  15.185   7.350
 9101POPC   C1B60007  43.123  15.457   6.450
 9101POPC   C2B60008  43.102  15.423   6.750
 9101POPC   C3B60009  43.149  15.440   7.050
 9101POPC   C4B60010  43.177  15.389   7.350
 9102POPC   NC360011   6.631  44.682   5.550
 9102POPC   PO460012   6.598  44.669   5.850
 9102POPC   GL160013   6.664  44.653   6.150
 9102POPC   GL260014   6.747  44.742   6.150
 9102POPC   C1A60015   6.674  44.621   6.450
 9102POPC   D2A60016   6.602  44.625   6.750
 9102POPC   C3A60017   6.617  44.654   7.050
 9102POPC   C4A60018   6.619  44.685   7.350
 9102POPC   C1B60019   6.761  44.906   6.450
 9102POPC   C2B60020   6.721  44.912   6.750
 9102POPC   C3B60021   6.721  44.872   7.050
 9102POPC   C4B60022   6.761  44.876   7.350
 9103POPC   NC360023  12.803  22.162   5.550
 9103POPC   PO460024  12.862  22.121   5.850
 9103POPC   GL160025  12.870  22.166   6.150
 9103POPC   GL260026  12.705  22.201   6.150
 9103POPC   C1A60027  12.897  22.202   6.450
 9103POPC   D2A60028  12.817  22.204   6.750
 9103POPC   C3A60029  12.875  22.157   7.050
 9103POPC   C4A60030  12.851  22.143   7.350
 9103POPC   C1B60031  12.572  22.212   6.450
 9103POPC   C2B60032  12.601  22.257   6.750
 9103POPC   C3B60033  12.657  22.190   7.050
 9103POPC   C4B60034  12.629  22.208   7.350
 9104POPC   NC360035  11.298   8.951   5.550
 9104POPC   PO460036  11.277   8.935   5.850
 9104POPC   GL160037  11.303   8.927   6.150
 9104POPC   GL260038  11.151   8.966   6.150
 9104POPC   C1A60039  11.278   9.020   6.450
 9104POPC   D2A60040  11.326   8.962   6.750
 9104POPC   C3A60041  11.299   8.963   7.050
 9104POPC   C4A60042  11.348   8.981   7.350
 9104POPC   C1B60043  11.028   9.023   6.450
 9104POPC   C2B60044  11.018   9.036   6.750
 9104POPC   C3B60045  11.054   9.046   7.050
 9104POPC   C4B60046  11.070   9.004   7.350
 9105POPC   NC360047   5.099  33.006   5.550
 9105POPC   PO460048   5.103  33.010   5.850
 9105POPC   GL160049   5.076  33.073   6.150
 9105POPC   GL260050   5.225  32.907   6.150
 9105POPC   C1A60051   5.123  33.019   6.450
 9105POPC   D2A60052   5.088  32.997   6.750
 9105POPC   C3A60053   5.081  33.039   7.050
 9105POPC   C4A60054   5.116  32.974   7.350
 9105POPC   C1B60055   5.271  32.849   6.450
 9105POPC   C2B60056   5.295  32.857   6.750
 9105POPC   C3B60057   5.293  32.853   7.050
 9105POPC   C4B60058   5.324  32.892   7.350
 9106POPC   NC360059   7.378  28.351   5.550
 9106POPC   PO460060   7.379  28.342   5.850
 9106POPC   GL160061   7.409  28.387   6.150
 9106POPC   GL260062   7.493  28.461   6.150
 9106POPC   C1A60063   7.386  28.332   6.450
 9106POPC   D2A60064   7.444  28.335   6.750
 9106POPC   C3A60065   7.433  28.374   7.050
 9106POPC   C4A60066   7.454  28.413   7.350
 9106POPC   C1B60067   7.668  28.501   6.450
 9106POPC   C2B60068   7.669  28.466   6.750
 9106POPC   C3B60069   7.633  28.502   7.050
 9106POPC   C4B60070   7.626  28.542   7.350
 9107POPC   NC360071  43.883   9.796   5.550
 9107POPC   PO460072  43.891   9.754   5.850
 9107POPC   GL160073  43.936   9.707   6.150
 9107POPC   GL260074  43.795   9.766   6.150
 9107POPC   C1A60075  43.889   9.699   6.450
 9107POPC   D2A60076  43.880   9.726   6.750
 9107POPC   C3A60077  43.864   9.708   7.050
 9107POPC   C4A60078  43.847   9.767   7.350
 9107POPC   C1B60079  43.667   9.695   6.450
 9107POPC   C2B60080  43.635   9.725   6.750
 9107POPC   C3B60081  43.626   9.744   7.050
 9107POPC   C4B60082  43.591   9.676   7.350
 9108POPC   NC360083  35.320  36.148   5.550
 9108POPC   PO460084  35.372  36.092   5.850
 9108POPC   GL160085  35.305  36.099   6.150
 9108POPC   GL260086  35.190  36.157   6.150
 9108POPC   C1A60087  35.371  36.132   6.450
 9108POPC   D2A60088  35.400  36.139   6.750
 9108POPC   C3A60089  35.367  36.177   7.050
 9108POPC   C4A60090  35.330  36.121   7.350
 9108POPC   C1B60091  35.154  36.141   6.450
 9108POPC   C2B60092  35.127  36.208   6.750
 9108POPC   C3B60093  35.136  36.175   7.050
 9108POPC   C4B60094  35.095  36.144   7.350
 9109POPC   NC360095  36.924   2.735   5.550
 9109POPC   PO460096  36.879   2.785   5.850
 9109POPC   GL160097  36.907   2.785   6.150
 9109POPC   GL260098  37.041   2.719   6.150
 9109POPC   C1A60099  36.918   2.795   6.450
 9109POPC   D2A60100  36.902   2.728   6.750
 9109POPC   C3A60101  36.938   2.719   7.050
 9109POPC   C4A60102  36.883   2.778   7.350
 9109POPC   C1B60103  37.108   2.742   6.450
 9109POPC   C2B60104  37.139   2.737   6.750
 9109POPC   C3B60105  37.165   2.688   7.050
 9109POPC   C4B60106  37.128   2.727   7.350
 9110POPC   NC360107  23.752  24.493   5.550
 9110POPC   PO460108  23.697  24.494   5.850
 9110POPC   GL160109  23.731  24.530   6.150
 9110POPC   GL260110  23.756  24.588   6.150
 9110POPC   C1A60111  23.739  24.500   6.450
 9110POPC   D2A60112  23.755  24.499   6.750
 9110POPC   C3A60113  23.755  24.527   7.050
 9110POPC   C4A60114  23.744  24.507   7.350
 9110POPC   C1B60115  23.927  24.690   6.450
 9110POPC   C2B60116  23.941  24.652   6.750
 9110POPC   C3B60117  23.876  24.617   7.050
 9110POPC   C4B60118  23.905  24.692   7.350
 9111POPC   NC360119  16.771  28.325   5.550
 9111POPC   PO460120  16.711  28.396   5.850
 9111POPC   GL160121  16.736  28.395   6.150
 9111POPC   GL260122  16.645  28.493   6.150
 9111POPC   C1A60123  16.715  28.385   6.450
 9111POPC   D2A60124  16.733  28.398   6.750
 9111POPC   C3A60125  16.715  28.372   7.050
 9111POPC   C4A60126  16.731  28.322   7.350
 9111POPC   C1B60127  16.573  28.606   6.450
 9111POPC   C2B60128  16.618  28.544   6.750
 9111POPC   C3B60129  16.573  28.621   7.050
 9111POPC   C4B60130  16.552  28.597   7.350
 9112POPC   NC360131   1.981   5.076   5.550
 9112POPC   PO460132   1.981   5.059   5.850
 9112POPC   GL160133   1.990   5.094   6.150
 9112POPC   GL260134   1.938   4.968   6.150
 9112POPC   C1A60135   1.968   5.098   6.450
 9112POPC   D2A60136   1.963   5.126   6.750
 9112POPC   C3A60137   1.988   5.137   7.050
 9112POPC   C4A60138   1.952   5.050   7.350
 9112POPC   C1B60139   2.003   4.821   6.450
 9112POPC   C2B60140   1.947   4.848   6.750
 9112POPC   C3B60141   2.006   4.806   7.050
 9112POPC   C4B60142   1.942   4.834   7.350
 9113POPC   NC360143   2.750  20.647   5.550
 9113POPC   PO460144   2.752  20.607   5.850
 9113POPC   GL160145   2.721  20.645   6.150
 9113POPC   GL260146   2.831  20.675   6.150
 9113POPC   C1A60147   2.754  20.611   6.450
 9113POPC   D2A60148   2.770  20.657   6.750
 9113POPC   C3A60149   2.792  20.564   7.050
 9113POPC   C4A60150   2.804  20.646   7.350
 9113POPC   C1B60151   2.856  20.876   6.450
 9113POPC   C2B60152   2.863  20.790   6.750
 9113POPC   C3B60153   2.920  20.869   7.050
 9113POPC   C4B60154   2.849  20.856   7.350
 9114POPC   NC360155  10.517  19.040   5.550
 9114POPC   PO460156  10.573  19.011   5.850
 9114POPC   GL160157  10.570  19.050   6.150
 9114POPC   GL260158  10.640  18.999   6.150
 9114POPC   C1A60159  10.560  19.043   6.450
 9114POPC   D2A60160  10.524  19.040   6.750
 9114POPC   C3A60161  10.550  19.067   7.050
 9114POPC   C4A60162  10.551  19.103   7.350
 9114POPC   C1B60163  10.760  18.934   6.450
 9114POPC   C2B60164  10.781  18.873   6.750
 9114POPC   C3B60165  10.745  18.903   7.050
 9114POPC   C4B60166  10.699  18.940   7.350
 9115POPC   NC360167   5.894  29.167   5.550
 9115POPC   PO460168   5.899  29.161   5.850
 9115POPC   GL160169   5.853  29.113   6.150
 9115POPC   GL260170   5.959  29.232   6.150
 9115POPC   C1A60171   5.839  29.179   6.450
 9115POPC   D2A60172   5.821  29.194   6.750
 9115POPC   C3A60173   5.856  29.157   7.050
 9115POPC   C4A60174   5.844  29.156   7.350
 9115POPC   C1B60175   6.131  29.285   6.450
 9115POPC   C2B60176   6.096  29.234   6.750
 9115POPC   C3B60177   6.117  29.255   7.050
 9115POPC   C4B60178   6.084  29.256   7.350
 9116POPC   NC360179  36.879  29.140   5.550
 9116POPC   PO460180  36.909  29.143   5.850
 9116POPC   GL160181  36.889  29.167   6.150
 9116POPC   GL260182  36.798  29.021   6.150
 9116POPC   C1A60183  36.856  29.150   6.450
 9116POPC   D2A60184  36.864  29.163   6.750
 9116POPC   C3A60185  36.893  29.128   7.050
 9116POPC   C4A60186  36.874  29.112   7.350
 9116POPC   C1B60187  36.706  28.935   6.450
 9116POPC   C2B60188  36.729  28.973   6.750
 9116POPC   C3B60189  36.688  28.979   7.050
 9116POPC   C4B60190  36.681  28.934   7.350
 9117POPC   NC360191  12.040  29.967   5.550
 9117POPC   PO460192  12.076  29.964   5.850
 9117POPC   GL160193  12.122  29.910   6.150
 9117POPC   GL260194  12.001  29.803   6.150
 9117POPC   C1A60195  12.084  29.953   6.450
 9117POPC   D2A60196  12.102  29.965   6.750
 9117POPC   C3A60197  12.069  29.886   7.050
 9117POPC   C4A60198  12.125  29.879   7.350
 9117POPC   C1B60199  12.005  29.719   6.450
 9117POPC   C2B60200  11.977  29.660   6.750
 9117POPC   C3B60201  11.982  29.718   7.050
 9117POPC   C4B60202  12.013  29.687   7.350
 9118POPC   NC360203   0.444   1.215   5.550
 9118POPC   PO460204   0.421   1.219   5.850
 9118POPC   GL160205   0.445   1.248   6.150
 9118POPC   GL260206   0.309   1.145   6.150
 9118POPC   C1A60207   0.455   1.263   6.450
 9118POPC   D2A60208   0.470   1.185   6.750
 9118POPC   C3A60209   0.395   1.178   7.050
 9118POPC   C4A60210   0.430   1.220   7.350
 9118POPC   C1B60211   0.196   1.065   6.450
 9118POPC   C2B60212   0.240   1.096   6.750
 9118POPC   C3B60213   0.284   1.018   7.050
 9118POPC   C4B60214   0.222   1.026   7.350
 9119POPC   NC360215  24.509  22.929   5.550
 9119POPC   PO460216  24.524  22.954   5.850
 9119POPC   GL160217  24.455  22.952   6.150
 9119POPC   GL260218  24.584  22.973   6.150
 9119POPC   C1A60219  24.498  22.934   6.450
 9119POPC   D2A60220  24.509  22.959   6.750
 9119POPC   C3A60221  24.494  22.933   7.050
 9119POPC   C4A60222  24.529  22.939   7.350
 9119POPC   C1B60223  24.670  23.071   6.450
 9119POPC   C2B60224  24.766  23.035   6.750
 9119POPC   C3B60225  24.744  23.072   7.050
 9119POPC   C4B60226  24.715  22.999   7.350
 9120POPC   NC360227  20.636  18.269   5.550
 9120POPC   PO460228  20.580  18.258   5.850
 9120POPC   GL160229  20.623  18.302   6.150
 9120POPC   GL260230  20.525  18.300   6.150
 9120POPC   C1A60231  20.618  18.286   6.450
 9120POPC   D2A60232  20.638  18.245   6.750
 9120POPC   C3A60233  20.648  18.321   7.050
 9120POPC   C4A60234  20.620  18.274   7.350
 9120POPC   C1B60235  20.357  18.411   6.450
 9120POPC   C2B60236  20.333  18.361   6.750
 9120POPC   C3B60237  20.404  18.370   7.050
 9120POPC   C4B60238  20.423  18.350   7.350
 9121POPC   NC360239  15.970  32.239   5.550
 9121POPC   PO460240  15.976  32.249   5.850
 9121POPC   GL160241  15.970  32.223   6.150
 9121POPC   GL260242  16.100  32.199   6.150
 9121POPC   C1A60243  15.921  32.240   6.450
 9121POPC   D2A60244  15.926  32.237   6.750
 9121POPC   C3A60245  15.922  32.209   7.050
 9121POPC   C4A60246  15.948  32.221   7.350
 9121POPC   C1B60247  16.206  32.166   6.450
 9121POPC   C2B60248  16.228  32.193   6.750
 9121POPC   C3B60249  16.228  32.144   7.050
 9121POPC   C4B60250  16.204  32.140   7.350
 9122POPC   NC360251  19.081   3.588   5.550
 9122POPC   PO460252  19.041   3.533   5.850
 9122POPC   GL160253  19.068   3.514   6.150
 9122POPC   GL260254  19.120   3.450   6.150
 9122POPC   C1A60255  19.019   3.497   6.450
 9122POPC   D2A60256  19.064   3.503   6.750
 9122POPC   C3A60257  19.066   3.572   7.050
 9122POPC   C4A60258  19.031   3.525   7.350
 9122POPC   C1B60259  19.263   3.352   6.450
 9122POPC   C2B60260  19.250   3.367   6.750
 9122POPC   C3B60261  19.241   3.351   7.050
 9122POPC   C4B60262  19.182   3.398   7.350
 9123POPC   NC360263  24.446  15.194   5.550
 9123POPC   PO460264  24.457  15.132   5.850
 9123POPC   GL160265  24.473  15.186   6.150
 9123POPC   GL260266  24.425  15.129   6.150
 9123POPC   C1A60267  24.475  15.196   6.450
 9123POPC   D2A60268  24.532  15.162   6.750
 9123POPC   C3A60269  24.531  15.184   7.050
 9123POPC   C4A60270  24.538  15.180   7.350
 9123POPC   C1B60271  24.325  15.065   6.450
 9123POPC   C2B60272  24.240  15.058   6.750
 9123POPC   C3B60273  24.314  15.004   7.050
 9123POPC   C4B60274  24.239  15.053   7.350
 9124POPC   NC360275  32.261   8.167   5.550
 9124POPC   PO460276  32.225   8.234   5.850
 9124POPC   GL160277  32.243   8.241   6.150
 9124POPC   GL260278  32.225   8.056   6.150
 9124POPC   C1A60279  32.202   8.189   6.450
 9124POPC   D2A60280  32.236   8.162   6.750
 9124POPC   C3A60281  32.205   8.156   7.050
 9124POPC   C4A60282  32.201   8.196   7.350
 9124POPC   C1B60283  32.228   7.955   6.450
 9124POPC   C2B60284  32.227   7.984   6.750
 9124POPC   C3B60285  32.184   7.973   7.050
 9124POPC   C4B60286  32.234   7.960   7.350
 9125POPC   NC360287  43.138  16.758   5.550
 9125POPC   PO460288  43.084  16.767   5.850
 9125POPC   GL160289  43.133  16.733   6.150
 9125POPC   GL260290  42.999  16.699   6.150
 9125POPC   C1A60291  43.109  16.753   6.450
 9125POPC   D2A60292  43.143  16.773   6.750
 9125POPC   C3A60293  43.100  16.708   7.050
 9125POPC   C4A60294  43.091  16.766   7.350
 9125POPC   C1B60295  42.854  16.709   6.450
 9125POPC   C2B60296  42.868  16.754   6.750
 9125POPC   C3B60297  42.896  16.678   7.050
 9125POPC   C4B60298  42.853  16.730   7.350
 9126POPC   NC360299  33.023  29.151   5.550
 9126POPC   PO460300  33.067  29.186   5.850
 9126POPC   GL160301  33.053  29.162   6.150
 9126POPC   GL260302  33.094  29.083   6.150
 9126POPC   C1A60303  33.008  29.129   6.450
 9126POPC   D2A60304  33.015  29.173   6.750
 9126POPC   C3A60305  32.984  29.131   7.050
 9126POPC   C4A60306  33.004  29.131   7.350
 9126POPC   C1B60307  33.196  28.913   6.450
 9126POPC   C2B60308  33.161  28.902   6.750
 9126POPC   C3B60309  33.154  28.906   7.050
 9126POPC   C4B60310  33.196  28.945   7.350
 9127POPC   NC360311   2.797  39.240   5.550
 9127POPC   PO460312   2.775  39.215   5.850
 9127POPC   GL160313   2.796  39.189   6.150
 9127POPC   GL260314   2.797  39.293   6.150
 9127POPC   C1A60315   2.744  39.195   6.450
 9127POPC   D2A60316   2.750  39.185   6.750
 9127POPC   C3A60317   2.727  39.237   7.050
 9127POPC   C4A60318   2.768  39.236   7.350
 9127POPC   C1B60319   2.876  39.431   6.450
 9127POPC   C2B60320   2.846  39.482   6.750
 9127POPC   C3B60321   2.904  39.421   7.050
 9127POPC   C4B60322   2.896  39.419   7.350
 9128POPC   NC360323   8.972   3.508   5.550
 9128POPC   PO460324   8.950   3.555   5.850
 9128POPC   GL160325   9.006   3.569   6.150
 9128POPC   GL260326   9.087   3.575   6.150
 9128POPC   C1A60327   8.954   3.511   6.450
 9128POPC   D2A60328   8.929   3.527   6.750
 9128POPC   C3A60329   8.972   3.577   7.050
 9128POPC   C4A60330   8.987   3.527   7.350
 9128POPC   C1B60331   9.205   3.545   6.450
 9128POPC   C2B60332   9.220   3.559   6.750
 9128POPC   C3B60333   9.244   3.538   7.050
 9128POPC   C4B60334   9.245   3.625   7.350
 9129POPC   NC360335  27.627  19.805   5.550
 9129POPC   PO460336  27.576  19.813   5.850
 9129POPC   GL160337  27.568  19.807   6.150
 9129POPC   GL260338  27.532  20.002   6.150
 9129POPC   C1A60339  27.615  19.862   6.450
 9129POPC   D2A60340  27.641  19.844   6.750
 9129POPC   C3A60341  27.600  19.805   7.050
 9129POPC   C4A60342  27.600  19.788   7.350
 9129POPC   C1B60343  27.489  20.112   6.450
 9129POPC   C2B60344  27.489  20.046   6.750
 9129POPC   C3B60345  27.537  20.056   7.050
 9129POPC   C4B60346  27.505  20.098   7.350
 9130POPC   NC360347   3.569  40.748   5.550
 9130POPC   PO460348   3.496  40.770   5.850
 9130POPC   GL160349   3.531  40.774   6.150
 9130POPC   GL260350   3.405  40.730   6.150
 9130POPC   C1A60351   3.562  40.777   6.450
 9130POPC   D2A60352   3.511  40.808   6.750
 9130POPC   C3A60353   3.562  40.753   7.050
 9130POPC   C4A60354   3.558  40.780   7.350
 9130POPC   C1B60355   3.355  40.605   6.450
 9130POPC   C2B60356   3.345  40.640   6.750
 9130POPC   C3B60357   3.335  40.644   7.050
 9130POPC   C4B60358   3.307  40.624   7.350
 9131POPC   NC360359  43.144   2.795   5.550
 9131POPC   PO460360  43.087   2.720   5.850
 9131POPC   GL160361  43.135   2.798   6.150
 9131POPC   GL260362  43.078   2.845   6.150
 9131POPC   C1A60363  43.075   2.812   6.450
 9131POPC   D2A60364  43.102   2.773   6.750
 9131POPC   C3A60365  43.067   2.730   7.050
 9131POPC   C4A60366  43.108   2.787   7.350
 9131POPC   C1B60367  43.156   3.023   6.450
 9131POPC   C2B60368  43.105   3.022   6.750
 9131POPC   C3B60369  43.150   3.023   7.050
 9131POPC   C4B60370  43.121   2.994   7.350
 9132POPC   NC360371  32.237  22.958   5.550
 9132POPC   PO460372  32.200  22.895   5.850
 9132POPC   GL160373  32.250  22.897   6.150
 9132POPC   GL260374  32.160  22.943   6.150
 9132POPC   C1A60375  32.286  22.918   6.450
 9132POPC   D2A60376  32.211  22.956   6.750
 9132POPC   C3A60377  32.233  22.913   7.050
 9132POPC   C4A60378  32.250  22.952   7.350
 9132POPC   C1B60379  32.039  22.922   6.450
 9132POPC   C2B60380  32.008  22.918   6.750
 9132POPC   C3B60381  32.023  22.891   7.050
 9132POPC   C4B60382  32.017  22.926   7.350
 9133POPC   NC360383  15.997  10.509   5.550
 9133POPC   PO460384  15.950  10.519   5.850
 9133POPC   GL160385  15.971  10.529   6.150
 9133POPC   GL260386  15.894  10.591   6.150
 9133POPC   C1A60387  16.001  10.566   6.450
 9133POPC   D2A60388  15.991  10.497   6.750
 9133POPC   C3A60389  15.997  10.484   7.050
 9133POPC   C4A60390  15.941  10.550   7.350
 9133POPC   C1B60391  15.799  10.671   6.450
 9133POPC   C2B60392  15.772  10.710   6.750
 9133POPC   C3B60393  15.734  10.655   7.050
 9133POPC   C4B60394  15.776  10.644   7.350
 9134POPC   NC360395   8.193  33.802   5.550
 9134POPC   PO460396   8.166  33.824   5.850
 9134POPC   GL160397   8.172  33.770   6.150
 9134POPC   GL260398   8.264  33.672   6.150
 9134POPC   C1A60399   8.246  33.801   6.450
 9134POPC   D2A60400   8.219  33.826   6.750
 9134POPC   C3A60401   8.221  33.781   7.050
 9134POPC   C4A60402   8.245  33.828   7.350
 9134POPC   C1B60403   8.310  33.540   6.450
 9134POPC   C2B60404   8.350  33.614   6.750
 9134POPC   C3B60405   8.311  33.627   7.050
 9134POPC   C4B60406   8.285  33.578   7.350
 9135POPC   NC360407  19.053   1.238   5.550
 9135POPC   PO460408  19.038   1.228   5.850
 9135POPC   GL160409  19.104   1.168   6.150
 9135POPC   GL260410  19.148   1.316   6.150
 9135POPC   C1A60411  19.044   1.187   6.450
 9135POPC   D2A60412  19.027   1.226   6.750
 9135POPC   C3A60413  19.105   1.174   7.050
 9135POPC   C4A60414  19.015   1.177   7.350
 9135POPC   C1B60415  19.249   1.317   6.450
 9135POPC   C2B60416  19.234   1.296   6.750
 9135POPC   C3B60417  19.259   1.311   7.050
 9135POPC   C4B60418  19.272   1.365   7.350
 9136POPC   NC360419  41.519  13.654   5.550
 9136POPC   PO460420  41.540  13.653   5.850
 9136POPC   GL160421  41.601  13.619   6.150
 9136POPC   GL260422  41.575  13.717   6.150
 9136POPC   C1A60423  41.534  13.650   6.450
 9136POPC   D2A60424  41.590  13.581   6.750
 9136POPC   C3A60425  41.570  13.616   7.050
 9136POPC   C4A60426  41.573  13.656   7.350
 9136POPC   C1B60427  41.624  13.831   6.450
 9136POPC   C2B60428  41.587  13.857   6.750
 9136POPC   C3B60429  41.567  13.893   7.050
 9136POPC   C4B60430  41.594  13.904   7.350
 9137POPC   NC360431   2.028  40.800   5.550
 9137POPC   PO460432   1.994  40.782   5.850
 9137POPC   GL160433   1.967  40.807   6.150
 9137POPC   GL260434   1.890  40.701   6.150
 9137POPC   C1A60435   2.031  40.773   6.450
 9137POPC   D2A60436   2.016  40.750   6.750
 9137POPC   C3A60437   1.956  40.783   7.050
 9137POPC   C4A60438   2.018  40.772   7.350
 9137POPC   C1B60439   1.815  40.627   6.450
 9137POPC   C2B60440   1.815  40.666   6.750
 9137POPC   C3B60441   1.762  40.628   7.050
 9137POPC   C4B60442   1.802  40.657   7.350
 9138POPC   NC360443  17.543  22.200   5.550
 9138POPC   PO460444  17.548  22.118   5.850
 9138POPC   GL160445  17.528  22.192   6.150
 9138POPC   GL260446  17.655  22.207   6.150
 9138POPC   C1A60447  17.458  22.164   6.450
 9138POPC   D2A60448  17.461  22.201   6.750
 9138POPC   C3A60449  17.512  22.199   7.050
 9138POPC   C4A60450  17.537  22.190   7.350
 9138POPC   C1B60451  17.731  22.165   6.450
 9138POPC   C2B60452  17.799  22.156   6.750
 9138POPC   C3B60453  17.717  22.172   7.050
 9138POPC   C4B60454  17.788  22.219   7.350
 9139POPC   NC360455  44.620  11.264   5.550
 9139POPC   PO460456  44.630  11.338   5.850
 9139POPC   GL160457  44.616  11.261   6.150
 9139POPC   GL260458  44.773  11.295   6.150
 9139POPC   C1A60459  44.656  11.348   6.450
 9139POPC   D2A60460  44.623  11.278   6.750
 9139POPC   C3A60461  44.644  11.282   7.050
 9139POPC   C4A60462  44.631  11.292   7.350
 9139POPC   C1B60463  44.869  11.280   6.450
 9139POPC   C2B60464  44.904  11.323   6.750
 9139POPC   C3B60465  44.885  11.308   7.050
 9139POPC   C4B60466  44.954  11.251   7.350
 9140POPC   NC360467  43.899   3.567   5.550
 9140POPC   PO460468  43.900   3.511   5.850
 9140POPC   GL160469  43.910   3.533   6.150
 9140POPC   GL260470  44.034   3.601   6.150
 9140POPC   C1A60471  43.856   3.574   6.450
 9140POPC   D2A60472  43.929   3.526   6.750
 9140POPC   C3A60473  43.923   3.524   7.050
 9140POPC   C4A60474  43.841   3.554   7.350
 9140POPC   C1B60475  44.127   3.568   6.450
 9140POPC   C2B60476  44.096   3.661   6.750
 9140POPC   C3B60477  44.164   3.574   7.050
 9140POPC   C4B60478  44.159   3.609   7.350
 9141POPC   NC360479   5.060  35.358   5.550
 9141POPC   PO460480   5.058  35.316   5.850
 9141POPC   GL160481   5.120  35.363   6.150
 9141POPC   GL260482   4.936  35.248   6.150
 9141POPC   C1A60483   5.094  35.306   6.450
 9141POPC   D2A60484   5.100  35.376   6.750
 9141POPC   C3A60485   5.120  35.342   7.050
 9141POPC   C4A60486   5.111  35.379   7.350
 9141POPC   C1B60487   4.846  35.198   6.450
 9141POPC   C2B60488   4.906  35.253   6.750
 9141POPC   C3B60489   4.861  35.261   7.050
 9141POPC   C4B60490   4.893  35.252   7.350
 9142POPC   NC360491   4.301  11.343   5.550
 9142POPC   PO460492   4.331  11.324   5.850
 9142POPC   GL160493   4.282  11.268   6.150
 9142POPC   GL260494   4.198  11.349   6.150
 9142POPC   C1A60495   4.332  11.294   6.450
 9142POPC   D2A60496   4.275  11.339   6.750
 9142POPC   C3A60497   4.285  11.341   7.050
 9142POPC   C4A60498   4.288  11.302   7.350
 9142POPC   C1B60499   4.098  11.315   6.450
 9142POPC   C2B60500   4.093  11.342   6.750
 9142POPC   C3B60501   4.082  11.326   7.050
 9142POPC   C4B60502   4.060  11.336   7.350
 9143POPC   NC360503  24.535   8.994   5.550
 9143POPC   PO460504  24.509   9.008   5.850
 9143POPC   GL160505  24.520   8.989   6.150
 9143POPC   GL260506  24.585   9.027   6.150
 9143POPC   C1A60507  24.531   8.994   6.450
 9143POPC   D2A60508  24.528   8.940   6.750
 9143POPC   C3A60509  24.463   8.982   7.050
 9143POPC   C4A60510  24.442   9.017   7.350
 9143POPC   C1B60511  24.620   9.189   6.450
 9143POPC   C2B60512  24.663   9.174   6.750
 9143POPC   C3B60513  24.676   9.139   7.050
 9143POPC   C4B60514  24.685   9.146   7.350
 9144POPC   NC360515  23.749   1.172   5.550
 9144POPC   PO460516  23.703   1.227   5.850
 9144POPC   GL160517  23.708   1.257   6.150
 9144POPC   GL260518  23.864   1.300   6.150
 9144POPC   C1A60519  23.721   1.242   6.450
 9144POPC   D2A60520  23.738   1.173   6.750
 9144POPC   C3A60521  23.735   1.174   7.050
 9144POPC   C4A60522  23.670   1.217   7.350
 9144POPC   C1B60523  23.962   1.318   6.450
 9144POPC   C2B60524  23.976   1.296   6.750
 9144POPC   C3B60525  23.972   1.326   7.050
 9144POPC   C4B60526  23.954   1.258   7.350
 9145POPC   NC360527  23.756  17.530   5.550
 9145POPC   PO460528  23.699  17.475   5.850
 9145POPC   GL160529  23.710  17.483   6.150
 9145POPC   GL260530  23.828  17.414   6.150
 9145POPC   C1A60531  23.679  17.526   6.450
 9145POPC   D2A60532  23.741  17.548   6.750
 9145POPC   C3A60533  23.665  17.512   7.050
 9145POPC   C4A60534  23.719  17.498   7.350
 9145POPC   C1B60535  23.902  17.322   6.450
 9145POPC   C2B60536  23.918  17.329   6.750
 9145POPC   C3B60537  23.887  17.365   7.050
 9145POPC   C4B60538  23.900  17.324   7.350
 9146POPC   NC360539  13.660  33.053   5.550
 9146POPC   PO460540  13.674  33.021   5.850
 9146POPC   GL160541  13.667  33.069   6.150
 9146POPC   GL260542  13.768  32.922   6.150
 9146POPC   C1A60543  13.631  33.071   6.450
 9146POPC   D2A60544  13.620  33.074   6.750
 9146POPC   C3A60545  13.639  33.017   7.050
 9146POPC   C4A60546  13.634  33.032   7.350
 9146POPC   C1B60547  13.853  32.943   6.450
 9146POPC   C2B60548  13.892  32.892   6.750
 9146POPC   C3B60549  13.843  32.903   7.050
 9146POPC   C4B60550  13.821  32.936   7.350
 9147POPC   NC360551  40.761  30.689   5.550
 9147POPC   PO460552  40.737  30.652   5.850
 9147POPC   GL160553  40.828  30.696   6.150
 9147POPC   GL260554  40.878  30.617   6.150
 9147POPC   C1A60555  40.806  30.672   6.450
 9147POPC   D2A60556  40.808  30.742   6.750
 9147POPC   C3A60557  40.815  30.720   7.050
 9147POPC   C4A60558  40.749  30.672   7.350
 9147POPC   C1B60559  41.043  30.584   6.450
 9147POPC   C2B60560  41.043  30.632   6.750
 9147POPC   C3B60561  41.018  30.624   7.050
 9147POPC   C4B60562  41.009  30.641   7.350
 9148POPC   NC360563  10.538  15.223   5.550
 9148POPC   PO460564  10.555  15.136   5.850
 9148POPC   GL160565  10.475  15.202   6.150
 9148POPC   GL260566  10.506  15.262   6.150
 9148POPC   C1A60567  10.525  15.152   6.450
 9148POPC   D2A60568  10.529  15.209   6.750
 9148POPC   C3A60569  10.565  15.220   7.050
 9148POPC   C4A60570  10.492  15.187   7.350
 9148POPC   C1B60571  10.439  15.463   6.450
 9148POPC   C2B60572  10.534  15.434   6.750
 9148POPC   C3B60573  10.501  15.383   7.050
 9148POPC   C4B60574  10.463  15.469   7.350
 9149POPC   NC360575   1.958  24.533   5.550
 9149POPC   PO460576   1.963  24.492   5.850
 9149POPC   GL160577   1.994  24.442   6.150
 9149POPC   GL260578   2.101  24.520   6.150
 9149POPC   C1A60579   2.018  24.521   6.450
 9149POPC   D2A60580   1.975  24.449   6.750
 9149POPC   C3A60581   2.003  24.505   7.050
 9149POPC   C4A60582   2.009  24.480   7.350
 9149POPC   C1B60583   2.215  24.430   6.450
 9149POPC   C2B60584   2.266  24.438   6.750
 9149POPC   C3B60585   2.224  24.448   7.050
 9149POPC   C4B60586   2.210  24.463   7.350
 9150POPC   NC360587   1.948  27.543   5.550
 9150POPC   PO460588   2.003  27.612   5.850
 9150POPC   GL160589   1.971  27.628   6.150
 9150POPC   GL260590   2.146  27.500   6.150
 9150POPC   C1A60591   2.039  27.559   6.450
 9150POPC   D2A60592   1.974  27.600   6.750
 9150POPC   C3A60593   1.950  27.604   7.050
 9150POPC   C4A60594   2.009  27.613   7.350
 9150POPC   C1B60595   2.266  27.496   6.450
 9150POPC   C2B60596   2.220  27.535   6.750
 9150POPC   C3B60597   2.168  27.455   7.050
 9150POPC   C4B60598   2.172  27.531   7.350
 9151POPC   NC360599  42.382  15.183   5.550
 9151POPC   PO460600  42.364  15.147   5.850
 9151POPC   GL160601  42.335  15.165   6.150
 9151POPC   GL260602  42.456  15.309   6.150
 9151POPC   C1A60603  42.383  15.165   6.450
 9151POPC   D2A60604  42.285  15.158   6.750
 9151POPC   C3A60605  42.310  15.182   7.050
 9151POPC   C4A60606  42.363  15.185   7.350
 9151POPC   C1B60607  42.509  15.395   6.450
 9151POPC   C2B60608  42.511  15.365   6.750
 9151POPC   C3B60609  42.496  15.391   7.050
 9151POPC   C4B60610  42.483  15.381   7.350
 9152POPC   NC360611  12.842  30.718   5.550
 9152POPC   PO460612  12.829  30.681   5.850
 9152POPC   GL160613  12.815  30.737   6.150
 9152POPC   GL260614  12.753  30.844   6.150
 9152POPC   C1A60615  12.825  30.677   6.450
 9152POPC   D2A60616  12.834  30.708   6.750
 9152POPC   C3A60617  12.830  30.713   7.050
 9152POPC   C4A60618  12.815  30.705   7.350
 9152POPC   C1B60619  12.746  30.918   6.450
 9152POPC   C2B60620  12.687  30.878   6.750
 9152POPC   C3B60621  12.713  30.939   7.050
 9152POPC   C4B60622  12.728  30.923   7.350
 9153POPC   NC360623  13.607   8.934   5.550
 9153POPC   PO460624  13.645   8.990   5.850
 9153POPC   GL160625  13.595   8.977   6.150
 9153POPC   GL260626  13.577   8.849   6.150
 9153POPC   C1A60627  13.595   8.928   6.450
 9153POPC   D2A60628  13.660   8.982   6.750
 9153POPC   C3A60629  13.653   9.000   7.050
 9153POPC   C4A60630  13.675   8.946   7.350
 9153POPC   C1B60631  13.565   8.708   6.450
 9153POPC   C2B60632  13.599   8.762   6.750
 9153POPC   C3B60633  13.633   8.684   7.050
 9153POPC   C4B60634  13.590   8.710   7.350
 9154POPC   NC360635  33.828  21.398   5.550
 9154POPC   PO460636  33.840  21.433   5.850
 9154POPC   GL160637  33.813  21.351   6.150
 9154POPC   GL260638  33.890  21.353   6.150
 9154POPC   C1A60639  33.836  21.382   6.450
 9154POPC   D2A60640  33.803  21.344   6.750
 9154POPC   C3A60641  33.768  21.395   7.050
 9154POPC   C4A60642  33.839  21.396   7.350
 9154POPC   C1B60643  34.016  21.321   6.450
 9154POPC   C2B60644  34.040  21.242   6.750
 9154POPC   C3B60645  34.027  21.259   7.050
 9154POPC   C4B60646  34.062  21.328   7.350
 9155POPC   NC360647  12.090  19.866   5.550
 9155POPC   PO460648  12.058  19.812   5.850
 9155POPC   GL160649  12.028  19.820   6.150
 9155POPC   GL260650  11.971  19.952   6.150
 9155POPC   C1A60651  12.083  19.860   6.450
 9155POPC   D2A60652  12.044  19.853   6.750
 9155POPC   C3A60653  12.042  19.838   7.050
 9155POPC   C4A60654  12.067  19.843   7.350
 9155POPC   C1B60655  11.959  20.071   6.450
 9155POPC   C2B60656  11.958  20.089   6.750
 9155POPC   C3B60657  11.993  20.079   7.050
 9155POPC   C4B60658  11.977  20.088   7.350
 9156POPC   NC360659   6.646  19.797   5.550
 9156POPC   PO460660   6.600  19.821   5.850
 9156POPC   GL160661   6.670  19.883   6.150
 9156POPC   GL260662   6.716  19.906   6.150
 9156POPC   C1A60663   6.639  19.785   6.450
 9156POPC   D2A60664   6.661  19.800   6.750
 9156POPC   C3A60665   6.644  19.785   7.050
 9156POPC   C4A60666   6.648  19.811   7.350
 9156POPC   C1B60667   6.871  19.959   6.450
 9156POPC   C2B60668   6.871  19.962   6.750
 9156POPC   C3B60669   6.829  19.892   7.050
 9156POPC   C4B60670   6.862  19.946   7.350
 9157POPC   NC360671  44.666  10.535   5.550
 9157POPC   PO460672  44.709  10.498   5.850
 9157POPC   GL160673  44.704  10.539   6.150
 9157POPC   GL260674  44.533  10.600   6.150
 9157POPC   C1A60675  44.703  10.480   6.450
 9157POPC   D2A60676  44.664  10.545   6.750
 9157POPC   C3A60677  44.667  10.541   7.050
 9157POPC   C4A60678  44.699  10.500   7.350
 9157POPC   C1B60679  44.406  10.638   6.450
 9157POPC   C2B60680  44.403  10.618   6.750
 9157POPC   C3B60681  44.467  10.588   7.050
 9157POPC   C4B60682  44.474  10.599   7.350
 9158POPC   NC360683  25.306  22.204   5.550
 9158POPC   PO460684  25.257  22.120   5.850
 9158POPC   GL160685  25.294  22.123   6.150
 9158POPC   GL260686  25.207  22.262   6.150
 9158POPC   C1A60687  25.226  22.154   6.450
 9158POPC   D2A60688  25.282  22.129   6.750
 9158POPC   C3A60689  25.248  22.183   7.050
 9158POPC   C4A60690  25.301  22.117   7.350
 9158POPC   C1B60691  25.116  22.382   6.450
 9158POPC   C2B60692  25.156  22.398   6.750
 9158POPC   C3B60693  25.126  22.333   7.050
 9158POPC   C4B60694  25.169  22.407   7.350
 9159POPC   NC360695  35.375  37.701   5.550
 9159POPC   PO460696  35.367  37.673   5.850
 9159POPC   GL160697  35.314  37.634   6.150
 9159POPC   GL260698  35.467  37.667   6.150
 9159POPC   C1A60699  35.364  37.666   6.450
 9159POPC   D2A60700  35.360  37.676   6.750
 9159POPC   C3A60701  35.395  37.703   7.050
 9159POPC   C4A60702  35.320  37.696   7.350
 9159POPC   C1B60703  35.637  37.695   6.450
 9159POPC   C2B60704  35.600  37.704   6.750
 9159POPC   C3B60705  35.565  37.691   7.050
 9159POPC   C4B60706  35.596  37.680   7.350
 9160POPC   NC360707  37.666  31.503   5.550
 9160POPC   PO460708  37.670  31.497   5.850
 9160POPC   GL160709  37.658  31.513   6.150
 9160POPC   GL260710  37.721  31.593   6.150
 9160POPC   C1A60711  37.713  31.476   6.450
 9160POPC   D2A60712  37.645  31.490   6.750
 9160POPC   C3A60713  37.680  31.446   7.050
 9160POPC   C4A60714  37.729  31.453   7.350
 9160POPC   C1B60715  37.791  31.699   6.450
 9160POPC   C2B60716  37.787  31.722   6.750
 9160POPC   C3B60717  37.734  31.726   7.050
 9160POPC   C4B60718  37.744  31.685   7.350
 9161POPC   NC360719  30.652  17.461   5.550
 9161POPC   PO460720  30.718  17.536   5.850
 9161POPC   GL160721  30.684  17.470   6.150
 9161POPC   GL260722  30.617  17.434   6.150
 9161POPC   C1A60723  30.717  17.517   6.450
 9161POPC   D2A60724  30.727  17.512   6.750
 9161POPC   C3A60725  30.682  17.480   7.050
 9161POPC   C4A60726  30.713  17.503   7.350
 9161POPC   C1B60727  30.593  17.234   6.450
 9161POPC   C2B60728  30.606  17.243   6.750
 9161POPC   C3B60729  30.633  17.238   7.050
 9161POPC   C4B60730  30.596  17.258   7.350
 9162POPC   NC360731   9.760  42.378   5.550
 9162POPC   PO460732   9.726  42.327   5.850
 9162POPC   GL160733   9.763  42.326   6.150
 9162POPC   GL260734   9.848  42.382   6.150
 9162POPC   C1A60735   9.792  42.323   6.450
 9162POPC   D2A60736   9.753  42.359   6.750
 9162POPC   C3A60737   9.723  42.382   7.050
 9162POPC   C4A60738   9.711  42.300   7.350
 9162POPC   C1B60739   9.929  42.458   6.450
 9162POPC   C2B60740  10.010  42.444   6.750
 9162POPC   C3B60741   9.990  42.466   7.050
 9162POPC   C4B60742   9.943  42.430   7.350
 9163POPC   NC360743  38.426  40.053   5.550
 9163POPC   PO460744  38.478  40.020   5.850
 9163POPC   GL160745  38.419  40.041   6.150
 9163POPC   GL260746  38.359  39.859   6.150
 9163POPC   C1A60747  38.416  40.009   6.450
 9163POPC   D2A60748  38.453  40.031   6.750
 9163POPC   C3A60749  38.486  40.054   7.050
 9163POPC   C4A60750  38.440  40.054   7.350
 9163POPC   C1B60751  38.360  39.757   6.450
 9163POPC   C2B60752  38.321  39.752   6.750
 9163POPC   C3B60753  38.319  39.817   7.050
 9163POPC   C4B60754  38.284  39.803   7.350
 9164POPC   NC360755  28.337  21.345   5.550
 9164POPC   PO460756  28.394  21.345   5.850
 9164POPC   GL160757  28.361  21.339   6.150
 9164POPC   GL260758  28.452  21.309   6.150
 9164POPC   C1A60759  28.392  21.393   6.450
 9164POPC   D2A60760  28.399  21.426   6.750
 9164POPC   C3A60761  28.360  21.422   7.050
 9164POPC   C4A60762  28.364  21.401   7.350
 9164POPC   C1B60763  28.620  21.324   6.450
 9164POPC   C2B60764  28.622  21.330   6.750
 9164POPC   C3B60765  28.625  21.253   7.050
 9164POPC   C4B60766  28.628  21.271   7.350
 9165POPC   NC360767  30.734  11.314   5.550
 9165POPC   PO460768  30.729  11.259   5.850
 9165POPC   GL160769  30.684  11.268   6.150
 9165POPC   GL260770  30.857  11.243   6.150
 9165POPC   C1A60771  30.730  11.335   6.450
 9165POPC   D2A60772  30.730  11.254   6.750
 9165POPC   C3A60773  30.663  11.346   7.050
 9165POPC   C4A60774  30.655  11.253   7.350
 9165POPC   C1B60775  30.895  11.264   6.450
 9165POPC   C2B60776  30.952  11.258   6.750
 9165POPC   C3B60777  30.915  11.228   7.050
 9165POPC   C4B60778  30.898  11.234   7.350
 9166POPC   NC360779  10.478  16.765   5.550
 9166POPC   PO460780  10.499  16.710   5.850
 9166POPC   GL160781  10.516  16.727   6.150
 9166POPC   GL260782  10.465  16.857   6.150
 9166POPC   C1A60783  10.540  16.707   6.450
 9166POPC   D2A60784  10.492  16.701   6.750
 9166POPC   C3A60785  10.525  16.760   7.050
 9166POPC   C4A60786  10.479  16.738   7.350
 9166POPC   C1B60787  10.356  16.925   6.450
 9166POPC   C2B60788  10.360  16.971   6.750
 9166POPC   C3B60789  10.354  16.971   7.050
 9166POPC   C4B60790  10.352  16.933   7.350
 9167POPC   NC360791  17.540  10.517   5.550
 9167POPC   PO460792  17.539  10.496   5.850
 9167POPC   GL160793  17.547  10.494   6.150
 9167POPC   GL260794  17.368  10.518   6.150
 9167POPC   C1A60795  17.542  10.532   6.450
 9167POPC   D2A60796  17.479  10.478   6.750
 9167POPC   C3A60797  17.474  10.492   7.050
 9167POPC   C4A60798  17.530  10.568   7.350
 9167POPC   C1B60799  17.304  10.592   6.450
 9167POPC   C2B60800  17.228  10.608   6.750
 9167POPC   C3B60801  17.225  10.575   7.050
 9167POPC   C4B60802  17.240  10.560   7.350
 9168POPC   NC360803  11.277  22.117   5.550
 9168POPC   PO460804  11.258  22.124   5.850
 9168POPC   GL160805  11.308  22.157   6.150
 9168POPC   GL260806  11.313  22.306   6.150
 9168POPC   C1A60807  11.299  22.113   6.450
 9168POPC   D2A60808  11.277  22.155   6.750
 9168POPC   C3A60809  11.343  22.151   7.050
 9168POPC   C4A60810  11.320  22.114   7.350
 9168POPC   C1B60811  11.292  22.458   6.450
 9168POPC   C2B60812  11.338  22.420   6.750
 9168POPC   C3B60813  11.339  22.419   7.050
 9168POPC   C4B60814  11.240  22.367   7.350
 9169POPC   NC360815   9.784  28.389   5.550
 9169POPC   PO460816   9.730  28.400   5.850
 9169POPC   GL160817   9.764  28.364   6.150
 9169POPC   GL260818   9.647  28.253   6.150
 9169POPC   C1A60819   9.766  28.357   6.450
 9169POPC   D2A60820   9.710  28.390   6.750
 9169POPC   C3A60821   9.701  28.404   7.050
 9169POPC   C4A60822   9.711  28.382   7.350
 9169POPC   C1B60823   9.667  28.145   6.450
 9169POPC   C2B60824   9.664  28.159   6.750
 9169POPC   C3B60825   9.591  28.162   7.050
 9169POPC   C4B60826   9.636  28.126   7.350
 9170POPC   NC360827  41.544  12.892   5.550
 9170POPC   PO460828  41.558  12.878   5.850
 9170POPC   GL160829  41.588  12.844   6.150
 9170POPC   GL260830  41.416  12.937   6.150
 9170POPC   C1A60831  41.546  12.867   6.450
 9170POPC   D2A60832  41.582  12.901   6.750
 9170POPC   C3A60833  41.512  12.850   7.050
 9170POPC   C4A60834  41.567  12.807   7.350
 9170POPC   C1B60835  41.341  12.963   6.450
 9170POPC   C2B60836  41.364  12.986   6.750
 9170POPC   C3B60837  41.339  13.005   7.050
 9170POPC   C4B60838  41.372  12.986   7.350
 9171POPC   NC360839  22.966  36.925   5.550
 9171POPC   PO460840  22.964  36.885   5.850
 9171POPC   GL160841  22.933  36.883   6.150
 9171POPC   GL260842  22.917  36.980   6.150
 9171POPC   C1A60843  22.943  36.903   6.450
 9171POPC   D2A60844  22.949  36.880   6.750
 9171POPC   C3A60845  22.954  36.921   7.050
 9171POPC   C4A60846  22.967  36.902   7.350
 9171POPC   C1B60847  22.896  37.158   6.450
 9171POPC   C2B60848  22.881  37.179   6.750
 9171POPC   C3B60849  22.858  37.095   7.050
 9171POPC   C4B60850  22.847  37.117   7.350
 9172POPC   NC360851  10.485  38.481   5.550
 9172POPC   PO460852  10.563  38.459   5.850
 9172POPC   GL160853  10.529  38.502   6.150
 9172POPC   GL260854  10.369  38.446   6.150
 9172POPC   C1A60855  10.490  38.456   6.450
 9172POPC   D2A60856  10.527  38.439   6.750
 9172POPC   C3A60857  10.502  38.417   7.050
 9172POPC   C4A60858  10.498  38.448   7.350
 9172POPC   C1B60859  10.277  38.479   6.450
 9172POPC   C2B60860  10.256  38.424   6.750
 9172POPC   C3B60861  10.276  38.381   7.050
 9172POPC   C4B60862  10.247  38.471   7.350
 9173POPC   NC360863   4.301  34.581   5.550
 9173POPC   PO460864   4.318  34.574   5.850
 9173POPC   GL160865   4.361  34.554   6.150
 9173POPC   GL260866   4.363  34.728   6.150
 9173POPC   C1A60867   4.296  34.602   6.450
 9173POPC   D2A60868   4.324  34.611   6.750
 9173POPC   C3A60869   4.317  34.614   7.050
 9173POPC   C4A60870   4.303  34.533   7.350
 9173POPC   C1B60871   4.337  34.852   6.450
 9173POPC   C2B60872   4.339  34.822   6.750
 9173POPC   C3B60873   4.340  34.799   7.050
 9173POPC   C4B60874   4.323  34.846   7.350
 9174POPC   NC360875  43.094   0.421   5.550
 9174POPC   PO460876  43.080   0.483   5.850
 9174POPC   GL160877  43.099   0.439   6.150
 9174POPC   GL260878  43.153   0.341   6.150
 9174POPC   C1A60879  43.071   0.465   6.450
 9174POPC   D2A60880  43.141   0.411   6.750
 9174POPC   C3A60881  43.124   0.391   7.050
 9174POPC   C4A60882  43.101   0.434   7.350
 9174POPC   C1B60883  43.254   0.287   6.450
 9174POPC   C2B60884  43.263   0.217   6.750
 9174POPC   C3B60885  43.291   0.305   7.050
 9174POPC   C4B60886  43.315   0.300   7.350
 9175POPC   NC360887  21.346  33.014   5.550
 9175POPC   PO460888  21.376  33.056   5.850
 9175POPC   GL160889  21.383  33.039   6.150
 9175POPC   GL260890  21.472  32.904   6.150
 9175POPC   C1A60891  21.426  33.007   6.450
 9175POPC   D2A60892  21.412  33.018   6.750
 9175POPC   C3A60893  21.338  33.069   7.050
 9175POPC   C4A60894  21.400  33.044   7.350
 9175POPC   C1B60895  21.509  32.838   6.450
 9175POPC   C2B60896  21.485  32.763   6.750
 9175POPC   C3B60897  21.490  32.750   7.050
 9175POPC   C4B60898  21.481  32.766   7.350
 9176POPC   NC360899   9.757  19.033   5.550
 9176POPC   PO460900   9.776  19.078   5.850
 9176POPC   GL160901   9.792  19.041   6.150
 9176POPC   GL260902   9.825  19.049   6.150
 9176POPC   C1A60903   9.755  19.072   6.450
 9176POPC   D2A60904   9.779  19.012   6.750
 9176POPC   C3A60905   9.772  19.069   7.050
 9176POPC   C4A60906   9.747  19.108   7.350
 9176POPC   C1B60907   9.965  19.067   6.450
 9176POPC   C2B60908  10.044  19.078   6.750
 9176POPC   C3B60909  10.020  19.034   7.050
 9176POPC   C4B60910   9.993  19.011   7.350
 9177POPC   NC360911  13.650  10.480   5.550
 9177POPC   PO460912  13.594  10.514   5.850
 9177POPC   GL160913  13.580  10.529   6.150
 9177POPC   GL260914  13.593  10.460   6.150
 9177POPC   C1A60915  13.639  10.554   6.450
 9177POPC   D2A60916  13.596  10.496   6.750
 9177POPC   C3A60917  13.593  10.564   7.050
 9177POPC   C4A60918  13.659  10.489   7.350
 9177POPC   C1B60919  13.528  10.344   6.450
 9177POPC   C2B60920  13.545  10.309   6.750
 9177POPC   C3B60921  13.477  10.297   7.050
 9177POPC   C4B60922  13.514  10.284   7.350
 9178POPC   NC360923  35.374   9.020   5.550
 9178POPC   PO460924  35.327   8.937   5.850
 9178POPC   GL160925  35.378   9.008   6.150
 9178POPC   GL260926  35.347   9.129   6.150
 9178POPC   C1A60927  35.339   9.005   6.450
 9178POPC   D2A60928  35.309   8.992   6.750
 9178POPC   C3A60929  35.385   8.957   7.050
 9178POPC   C4A60930  35.316   8.930   7.350
 9178POPC   C1B60931  35.416   9.179   6.450
 9178POPC   C2B60932  35.364   9.264   6.750
 9178POPC   C3B60933  35.386   9.258   7.050
 9178POPC   C4B60934  35.402   9.234   7.350
 9179POPC   NC360935  32.991  32.979   5.550
 9179POPC   PO460936  32.979  33.049   5.850
 9179POPC   GL160937  32.986  33.019   6.150
 9179POPC   GL260938  33.079  32.885   6.150
 9179POPC   C1A60939  32.980  33.028   6.450
 9179POPC   D2A60940  33.026  33.041   6.750
 9179POPC   C3A60941  32.984  33.060   7.050
 9179POPC   C4A60942  33.057  33.031   7.350
 9179POPC   C1B60943  33.167  32.835   6.450
 9179POPC   C2B60944  33.201  32.861   6.750
 9179POPC   C3B60945  33.168  32.794   7.050
 9179POPC   C4B60946  33.165  32.775   7.350
 9180POPC   NC360947  26.804  13.589   5.550
 9180POPC   PO460948  26.793  13.600   5.850
 9180POPC   GL160949  26.855  13.606   6.150
 9180POPC   GL260950  26.756  13.489   6.150
 9180POPC   C1A60951  26.829  13.649   6.450
 9180POPC   D2A60952  26.793  13.658   6.750
 9180POPC   C3A60953  26.826  13.666   7.050
 9180POPC   C4A60954  26.793  13.591   7.350
 9180POPC   C1B60955  26.795  13.347   6.450
 9180POPC   C2B60956  26.832  13.362   6.750
 9180POPC   C3B60957  26.752  13.421   7.050
 9180POPC   C4B60958  26.754  13.422   7.350
 9181POPC   NC360959  30.683  15.925   5.550
 9181POPC   PO460960  30.658  15.996   5.850
 9181POPC   GL160961  30.702  15.949   6.150
 9181POPC   GL260962  30.756  16.093   6.150
 9181POPC   C1A60963  30.710  15.953   6.450
 9181POPC   D2A60964  30.697  15.950   6.750
 9181POPC   C3A60965  30.743  15.916   7.050
 9181POPC   C4A60966  30.727  15.915   7.350
 9181POPC   C1B60967  30.885  16.098   6.450
 9181POPC   C2B60968  30.866  16.179   6.750
 9181POPC   C3B60969  30.886  16.138   7.050
 9181POPC   C4B60970  30.914  16.096   7.350
 9182POPC   NC360971  44.636  22.953   5.550
 9182POPC   PO460972  44.649  22.968   5.850
 9182POPC   GL160973  44.710  22.944   6.150
 9182POPC   GL260974  44.735  22.846   6.150
 9182POPC   C1A60975  44.678  22.911   6.450
 9182POPC   D2A60976  44.692  22.967   6.750
 9182POPC   C3A60977  44.616  22.889   7.050
 9182POPC   C4A60978  44.635  22.948   7.350
 9182POPC   C1B60979  44.823  22.713   6.450
 9182POPC   C2B60980  44.829  22.731   6.750
 9182POPC   C3B60981  44.829  22.700   7.050
 9182POPC   C4B60982  44.810  22.696   7.350
 9183POPC   NC360983  13.664  22.142   5.550
 9183POPC   PO460984  13.665  22.204   5.850
 9183POPC   GL160985  13.622  22.148   6.150
 9183POPC   GL260986  13.714  22.185   6.150
 9183POPC   C1A60987  13.654  22.128   6.450
 9183POPC   D2A60988  13.667  22.120   6.750
 9183POPC   C3A60989  13.595  22.153   7.050
 9183POPC   C4A60990  13.648  22.179   7.350
 9183POPC   C1B60991  13.869  22.272   6.450
 9183POPC   C2B60992  13.855  22.265   6.750
 9183POPC   C3B60993  13.826  22.196   7.050
 9183POPC   C4B60994  13.904  22.274   7.350
 9184POPC   NC360995  44.648  29.923   5.550
 9184POPC   PO460996  44.652  29.909   5.850
 9184POPC   GL160997  44.639  29.958   6.150
 9184POPC   GL260998  44.768  29.814   6.150
 9184POPC   C1A60999  44.670  29.918   6.450
 9184POPC   D2A61000  44.668  29.959   6.750
 9184POPC   C3A61001  44.681  29.911   7.050
 9184POPC   C4A61002  44.628  29.957   7.350
 9184POPC   C1B61003  44.756  29.661   6.450
 9184POPC   C2B61004  44.822  29.672   6.750
 9184POPC   C3B61005  44.741  29.721   7.050
 9184POPC   C4B61006  44.822  29.657   7.350
 9185POPC   NC361007  24.498  33.801   5.550
 9185POPC   PO461008  24.489  33.759   5.850
 9185POPC   GL161009  24.518  33.763   6.150
 9185POPC   GL261010  24.616  33.707   6.150
 9185POPC   C1A61011  24.475  33.766   6.450
 9185POPC   D2A61012  24.448  33.789   6.750
 9185POPC   C3A61013  24.457  33.810   7.050
 9185POPC   C4A61014  24.485  33.790   7.350
 9185POPC   C1B61015  24.693  33.649   6.450
 9185POPC   C2B61016  24.722  33.659   6.750
 9185POPC   C3B61017  24.644  33.659   7.050
 9185POPC   C4B61018  24.720  33.683   7.350
 9186POPC   NC361019   8.929  38.428   5.550
 9186POPC   PO461020   9.009  38.458   5.850
 9186POPC   GL161021   8.994  38.487   6.150
 9186POPC   GL261022   8.854  38.340   6.150
 9186POPC   C1A61023   8.944  38.430   6.450
 9186POPC   D2A61024   8.955  38.480   6.750
 9186POPC   C3A61025   9.000  38.482   7.050
 9186POPC   C4A61026   8.939  38.475   7.350
 9186POPC   C1B61027   8.733  38.318   6.450
 9186POPC   C2B61028   8.715  38.332   6.750
 9186POPC   C3B61029   8.788  38.352   7.050
 9186POPC   C4B61030   8.714  38.273   7.350
 9187POPC   NC361031  43.120  12.835   5.550
 9187POPC   PO461032  43.144  12.842   5.850
 9187POPC   GL161033  43.076  12.874   6.150
 9187POPC   GL261034  43.035  12.996   6.150
 9187POPC   C1A61035  43.126  12.898   6.450
 9187POPC   D2A61036  43.061  12.876   6.750
 9187POPC   C3A61037  43.062  12.816   7.050
 9187POPC   C4A61038  43.087  12.827   7.350
 9187POPC   C1B61039  42.970  13.045   6.450
 9187POPC   C2B61040  43.044  13.120   6.750
 9187POPC   C3B61041  42.986  13.121   7.050
 9187POPC   C4B61042  43.055  13.110   7.350
 9188POPC   NC361043  27.566   0.418   5.550
 9188POPC   PO461044  27.607   0.398   5.850
 9188POPC   GL161045  27.599   0.464   6.150
 9188POPC   GL261046  27.708   0.531   6.150
 9188POPC   C1A61047  27.544   0.396   6.450
 9188POPC   D2A61048  27.553   0.469   6.750
 9188POPC   C3A61049  27.551   0.439   7.050
 9188POPC   C4A61050  27.637   0.455   7.350
 9188POPC   C1B61051  27.837   0.519   6.450
 9188POPC   C2B61052  27.851   0.517   6.750
 9188POPC   C3B61053  27.853   0.579   7.050
 9188POPC   C4B61054  27.821   0.557   7.350
 9189POPC   NC361055  30.679   3.518   5.550
 9189POPC   PO461056  30.697   3.527   5.850
 9189POPC   GL161057  30.737   3.573   6.150
 9189POPC   GL261058  30.654   3.403   6.150
 9189POPC   C1A61059  30.742   3.573   6.450
 9189POPC   D2A61060  30.727   3.543   6.750
 9189POPC   C3A61061  30.705   3.564   7.050
 9189POPC   C4A61062  30.709   3.571   7.350
 9189POPC   C1B61063  30.633   3.309   6.450
 9189POPC   C2B61064  30.588   3.308   6.750
 9189POPC   C3B61065  30.593   3.327   7.050
 9189POPC   C4B61066  30.673   3.254   7.350
 9190POPC   NC361067  35.364   5.055   5.550
 9190POPC   PO461068  35.354   5.113   5.850
 9190POPC   GL161069  35.330   5.086   6.150
 9190POPC   GL261070  35.431   5.091   6.150
 9190POPC   C1A61071  35.350   5.129   6.450
 9190POPC   D2A61072  35.327   5.047   6.750
 9190POPC   C3A61073  35.388   5.138   7.050
 9190POPC   C4A61074  35.310   5.086   7.350
 9190POPC   C1B61075  35.640   5.080   6.450
 9190POPC   C2B61076  35.590   5.069   6.750
 9190POPC   C3B61077  35.609   4.997   7.050
 9190POPC   C4B61078  35.644   4.986   7.350
 9191POPC   NC361079  33.052  20.571   5.550
 9191POPC   PO461080  32.994  20.579   5.850
 9191POPC   GL161081  32.988  20.635   6.150
 9191POPC   GL261082  32.864  20.572   6.150
 9191POPC   C1A61083  33.055  20.585   6.450
 9191POPC   D2A61084  32.974  20.590   6.750
 9191POPC   C3A61085  33.004  20.631   7.050
 9191POPC   C4A61086  33.038  20.636   7.350
 9191POPC   C1B61087  32.817  20.549   6.450
 9191POPC   C2B61088  32.847  20.473   6.750
 9191POPC   C3B61089  32.832  20.529   7.050
 9191POPC   C4B61090  32.822  20.498   7.350
 9192POPC   NC361091  11.251  41.566   5.550
 9192POPC   PO461092  11.287  41.601   5.850
 9192POPC   GL161093  11.349  41.572   6.150
 9192POPC   GL261094  11.236  41.406   6.150
 9192POPC   C1A61095  11.316  41.562   6.450
 9192POPC   D2A61096  11.255  41.524   6.750
 9192POPC   C3A61097  11.329  41.553   7.050
 9192POPC   C4A61098  11.313  41.554   7.350
 9192POPC   C1B61099  11.211  41.330   6.450
 9192POPC   C2B61100  11.257  41.330   6.750
 9192POPC   C3B61101  11.252  41.312   7.050
 9192POPC   C4B61102  11.236  41.361   7.350
 9193POPC   NC361103  29.133  42.317   5.550
 9193POPC   PO461104  29.194  42.342   5.850
 9193POPC   GL161105  29.170  42.350   6.150
 9193POPC   GL261106  28.975  42.332   6.150
 9193POPC   C1A61107  29.115  42.317   6.450
 9193POPC   D2A61108  29.108  42.370   6.750
 9193POPC   C3A61109  29.177  42.296   7.050
 9193POPC   C4A61110  29.183  42.371   7.350
 9193POPC   C1B61111  28.936  42.328   6.450
 9193POPC   C2B61112  28.936  42.354   6.750
 9193POPC   C3B61113  28.943  42.398   7.050
 9193POPC   C4B61114  28.933  42.414   7.350
 9194POPC   NC361115  16.731  20.648   5.550
 9194POPC   PO461116  16.778  20.640   5.850
 9194POPC   GL161117  16.719  20.595   6.150
 9194POPC   GL261118  16.856  20.568   6.150
 9194POPC   C1A61119  16.779  20.618   6.450
 9194POPC   D2A61120  16.744  20.621   6.750
 9194POPC   C3A61121  16.724  20.619   7.050
 9194POPC   C4A61122  16.720  20.647   7.350
 9194POPC   C1B61123  16.964  20.454   6.450
 9194POPC   C2B61124  16.906  20.411   6.750
 9194POPC   C3B61125  16.892  20.457   7.050
 9194POPC   C4B61126  16.960  20.458   7.350
 9195POPC   NC361127   7.378  27.549   5.550
 9195POPC   PO461128   7.411  27.568   5.850
 9195POPC   GL161129   7.409  27.578   6.150
 9195POPC   GL261130   7.310  27.535   6.150
 9195POPC   C1A61131   7.438  27.592   6.450
 9195POPC   D2A61132   7.375  27.589   6.750
 9195POPC   C3A61133   7.420  27.607   7.050
 9195POPC   C4A61134   7.379  27.637   7.350
 9195POPC   C1B61135   7.245  27.415   6.450
 9195POPC   C2B61136   7.263  27.450   6.750
 9195POPC   C3B61137   7.245  27.411   7.050
 9195POPC   C4B61138   7.184  27.390   7.350
 9196POPC   NC361139  12.827  28.370   5.550
 9196POPC   PO461140  12.850  28.329   5.850
 9196POPC   GL161141  12.834  28.409   6.150
 9196POPC   GL261142  12.762  28.427   6.150
 9196POPC   C1A61143  12.876  28.369   6.450
 9196POPC   D2A61144  12.824  28.415   6.750
 9196POPC   C3A61145  12.831  28.346   7.050
 9196POPC   C4A61146  12.835  28.409   7.350
 9196POPC   C1B61147  12.675  28.485   6.450
 9196POPC   C2B61148  12.648  28.475   6.750
 9196POPC   C3B61149  12.591  28.479   7.050
 9196POPC   C4B61150  12.643  28.498   7.350
 9197POPC   NC361151  29.182   1.973   5.550
 9197POPC   PO461152  29.097   1.987   5.850
 9197POPC   GL161153  29.164   2.017   6.150
 9197POPC   GL261154  29.105   2.067   6.150
 9197POPC   C1A61155  29.116   1.959   6.450
 9197POPC   D2A61156  29.118   1.980   6.750
 9197POPC   C3A61157  29.165   1.981   7.050
 9197POPC   C4A61158  29.113   2.016   7.350
 9197POPC   C1B61159  29.099   2.271   6.450
 9197POPC   C2B61160  29.112   2.210   6.750
 9197POPC   C3B61161  29.041   2.257   7.050
 9197POPC   C4B61162  29.096   2.192   7.350
 9198POPC   NC361163   8.174  19.875   5.550
 9198POPC   PO461164   8.157  19.864   5.850
 9198POPC   GL161165   8.150  19.876   6.150
 9198POPC   GL261166   8.289  19.699   6.150
 9198POPC   C1A61167   8.206  19.848   6.450
 9198POPC   D2A61168   8.149  19.874   6.750
 9198POPC   C3A61169   8.235  19.811   7.050
 9198POPC   C4A61170   8.236  19.870   7.350
 9198POPC   C1B61171   8.332  19.608   6.450
 9198POPC   C2B61172   8.390  19.657   6.750
 9198POPC   C3B61173   8.337  19.689   7.050
 9198POPC   C4B61174   8.382  19.677   7.350
 9199POPC   NC361175  35.315  34.625   5.550
 9199POPC   PO461176  35.395  34.569   5.850
 9199POPC   GL161177  35.325  34.580   6.150
 9199POPC   GL261178  35.477  34.657   6.150
 9199POPC   C1A61179  35.389  34.529   6.450
 9199POPC   D2A61180  35.385  34.615   6.750
 9199POPC   C3A61181  35.371  34.580   7.050
 9199POPC   C4A61182  35.334  34.596   7.350
 9199POPC   C1B61183  35.497  34.769   6.450
 9199POPC   C2B61184  35.514  34.792   6.750
 9199POPC   C3B61185  35.522  34.755   7.050
 9199POPC   C4B61186  35.504  34.819   7.350
 9200POPC   NC361187  43.062  18.304   5.550
 9200POPC   PO461188  43.143  18.261   5.850
 9200POPC   GL161189  43.136  18.294   6.150
 9200POPC   GL261190  43.087  18.204   6.150
 9200POPC   C1A61191  43.131  18.259   6.450
 9200POPC   D2A61192  43.141  18.289   6.750
 9200POPC   C3A61193  43.120  18.243   7.050
 9200POPC   C4A61194  43.061  18.329   7.350
 9200POPC   C1B61195  43.088  18.049   6.450
 9200POPC   C2B61196  43.119  18.015   6.750
 9200POPC   C3B61197  43.062  18.036   7.050
 9200POPC   C4B61198  43.126  18.042   7.350
 9201POPC   NC361199   1.202  22.966   5.550
 9201POPC   PO461200   1.176  22.975   5.850
 9201POPC   GL161201   1.210  22.923   6.150
 9201POPC   GL261202   1.227  22.832   6.150
 9201POPC   C1A61203   1.164  22.891   6.450
 9201POPC   D2A61204   1.260  22.946   6.750
 9201POPC   C3A61205   1.217  22.953   7.050
 9201POPC   C4A61206   1.208  22.912   7.350
 9201POPC   C1B61207   1.275  22.700   6.450
 9201POPC   C2B61208   1.232  22.693   6.750
 9201POPC   C3B61209   1.212  22.736   7.050
 9201POPC   C4B61210   1.189  22.695   7.350
 9202POPC   NC361211   5.142  28.389   5.550
 9202POPC   PO461212   5.098  28.355   5.850
 9202POPC   GL161213   5.105  28.405   6.150
 9202POPC   GL261214   4.952  28.330   6.150
 9202POPC   C1A61215   5.062  28.369   6.450
 9202POPC   D2A61216   5.103  28.349   6.750
 9202POPC   C3A61217   5.075  28.337   7.050
 9202POPC   C4A61218   5.059  28.332   7.350
 9202POPC   C1B61219   4.827  28.310   6.450
 9202POPC   C2B61220   4.810  28.339   6.750
 9202POPC   C3B61221   4.879  28.304   7.050
 9202POPC   C4B61222   4.814  28.327   7.350
 9203POPC   NC361223  11.321   7.385   5.550
 9203POPC   PO461224  11.260   7.438   5.850
 9203POPC   GL161225  11.349   7.444   6.150
 9203POPC   GL261226  11.248   7.496   6.150
 9203POPC   C1A61227  11.318   7.416   6.450
 9203POPC   D2A61228  11.294   7.392   6.750
 9203POPC   C3A61229  11.268   7.442   7.050
 9203POPC   C4A61230  11.346   7.384   7.350
 9203POPC   C1B61231  11.251   7.671   6.450
 9203POPC   C2B61232  11.231   7.682   6.750
 9203POPC   C3B61233  11.204   7.694   7.050
 9203POPC   C4B61234  11.224   7.675   7.350
 9204POPC   NC361235  30.680  31.514   5.550
 9204POPC   PO461236  30.710  31.456   5.850
 9204POPC   GL161237  30.658  31.491   6.150
 9204POPC   GL261238  30.704  31.636   6.150
 9204POPC   C1A61239  30.717  31.508   6.450
 9204POPC   D2A61240  30.727  31.497   6.750
 9204POPC   C3A61241  30.741  31.455   7.050
 9204POPC   C4A61242  30.676  31.454   7.350
 9204POPC   C1B61243  30.767  31.683   6.450
 9204POPC   C2B61244  30.760  31.765   6.750
 9204POPC   C3B61245  30.772  31.758   7.050
 9204POPC   C4B61246  30.714  31.717   7.350
 9205POPC   NC361247  29.171  34.573   5.550
 9205POPC   PO461248  29.098  34.550   5.850
 9205POPC   GL161249  29.170  34.549   6.150
 9205POPC   GL261250  29.163  34.667   6.150
 9205POPC   C1A61251  29.183  34.596   6.450
 9205POPC   D2A61252  29.123  34.599   6.750
 9205POPC   C3A61253  29.164  34.531   7.050
 9205POPC   C4A61254  29.123  34.577   7.350
 9205POPC   C1B61255  29.245  34.821   6.450
 9205POPC   C2B61256  29.203  34.821   6.750
 9205POPC   C3B61257  29.260  34.798   7.050
 9205POPC   C4B61258  29.215  34.828   7.350
 9206POPC   NC361259   5.112  38.438   5.550
 9206POPC   PO461260   5.074  38.502   5.850
 9206POPC   GL161261   5.142  38.487   6.150
 9206POPC   GL261262   4.947  38.502   6.150
 9206POPC   C1A61263   5.055  38.489   6.450
 9206POPC   D2A61264   5.119  38.469   6.750
 9206POPC   C3A61265   5.074  38.419   7.050
 9206POPC   C4A61266   5.081  38.432   7.350
 9206POPC   C1B61267   4.865  38.524   6.450
 9206POPC   C2B61268   4.865  38.585   6.750
 9206POPC   C3B61269   4.836  38.547   7.050
 9206POPC   C4B61270   4.897  38.569   7.350
 9207POPC   NC361271  17.506  18.257   5.550
 9207POPC   PO461272  17.476  18.272   5.850
 9207POPC   GL161273  17.495  18.250   6.150
 9207POPC   GL261274  17.386  18.234   6.150
 9207POPC   C1A61275  17.494  18.291   6.450
 9207POPC   D2A61276  17.488  18.316   6.750
 9207POPC   C3A61277  17.503  18.234   7.050
 9207POPC   C4A61278  17.552  18.332   7.350
 9207POPC   C1B61279  17.284  18.216   6.450
 9207POPC   C2B61280  17.212  18.283   6.750
 9207POPC   C3B61281  17.245  18.296   7.050
 9207POPC   C4B61282  17.225  18.294   7.350
 9208POPC   NC361283   5.062  21.406   5.550
 9208POPC   PO461284   5.063  21.359   5.850
 9208POPC   GL161285   5.117  21.425   6.150
 9208POPC   GL261286   4.998  21.469   6.150
 9208POPC   C1A61287   5.069  21.391   6.450
 9208POPC   D2A61288   5.072  21.366   6.750
 9208POPC   C3A61289   5.103  21.387   7.050
 9208POPC   C4A61290   5.093  21.377   7.350
 9208POPC   C1B61291   4.856  21.528   6.450
 9208POPC   C2B61292   4.849  21.486   6.750
 9208POPC   C3B61293   4.878  21.487   7.050
 9208POPC   C4B61294   4.909  21.485   7.350
 9209POPC   NC361295   5.874   1.254   5.550
 9209POPC   PO461296   5.822   1.193   5.850
 9209POPC   GL161297   5.887   1.223   6.150
 9209POPC   GL261298   5.951   1.277   6.150
 9209POPC   C1A61299   5.823   1.176   6.450
 9209POPC   D2A61300   5.823   1.246   6.750
 9209POPC   C3A61301   5.913   1.244   7.050
 9209POPC   C4A61302   5.895   1.229   7.350
 9209POPC   C1B61303   6.082   1.288   6.450
 9209POPC   C2B61304   6.089   1.293   6.750
 9209POPC   C3B61305   6.062   1.263   7.050
 9209POPC   C4B61306   6.129   1.301   7.350
 9210POPC   NC361307  42.344  13.599   5.550
 9210POPC   PO461308  42.359  13.593   5.850
 9210POPC   GL161309  42.349  13.676   6.150
 9210POPC   GL261310  42.327  13.470   6.150
 9210POPC   C1A61311  42.381  13.601   6.450
 9210POPC   D2A61312  42.325  13.625   6.750
 9210POPC   C3A61313  42.329  13.585   7.050
 9210POPC   C4A61314  42.370  13.676   7.350
 9210POPC   C1B61315  42.270  13.412   6.450
 9210POPC   C2B61316  42.295  13.347   6.750
 9210POPC   C3B61317  42.268  13.360   7.050
 9210POPC   C4B61318  42.228  13.361   7.350
 9211POPC   NC361319  33.004   0.483   5.550
 9211POPC   PO461320  33.027   0.467   5.850
 9211POPC   GL161321  32.988   0.411   6.150
 9211POPC   GL261322  32.935   0.418   6.150
 9211POPC   C1A61323  32.987   0.476   6.450
 9211POPC   D2A61324  33.065   0.479   6.750
 9211POPC   C3A61325  32.992   0.478   7.050
 9211POPC   C4A61326  32.976   0.474   7.350
 9211POPC   C1B61327  32.797   0.339   6.450
 9211POPC   C2B61328  32.830   0.330   6.750
 9211POPC   C3B61329  32.778   0.349   7.050
 9211POPC   C4B61330  32.817   0.334   7.350
 9212POPC   NC361331  33.762  27.544   5.550
 9212POPC   PO461332  33.819  27.568   5.850
 9212POPC   GL161333  33.827  27.629   6.150
 9212POPC   GL261334  33.923  27.625   6.150
 9212POPC   C1A61335  33.752  27.559   6.450
 9212POPC   D2A61336  33.805  27.552   6.750
 9212POPC   C3A61337  33.816  27.590   7.050
 9212POPC   C4A61338  33.832  27.582   7.350
 9212POPC   C1B61339  34.063  27.649   6.450
 9212POPC   C2B61340  34.020  27.636   6.750
 9212POPC   C3B61341  34.093  27.608   7.050
 9212POPC   C4B61342  34.083  27.603   7.350
 9213POPC   NC361343  36.907   8.246   5.550
 9213POPC   PO461344  36.874   8.156   5.850
 9213POPC   GL161345  36.933   8.208   6.150
 9213POPC   GL261346  36.915   8.030   6.150
 9213POPC   C1A61347  36.865   8.169   6.450
 9213POPC   D2A61348  36.928   8.184   6.750
 9213POPC   C3A61349  36.937   8.196   7.050
 9213POPC   C4A61350  36.907   8.151   7.350
 9213POPC   C1B61351  36.855   7.965   6.450
 9213POPC   C2B61352  36.934   7.973   6.750
 9213POPC   C3B61353  36.856   7.956   7.050
 9213POPC   C4B61354  36.894   7.900   7.350
 9214POPC   NC361355   9.704   3.516   5.550
 9214POPC   PO461356   9.786   3.544   5.850
 9214POPC   GL161357   9.774   3.537   6.150
 9214POPC   GL261358   9.656   3.533   6.150
 9214POPC   C1A61359   9.767   3.558   6.450
 9214POPC   D2A61360   9.772   3.533   6.750
 9214POPC   C3A61361   9.757   3.500   7.050
 9214POPC   C4A61362   9.739   3.533   7.350
 9214POPC   C1B61363   9.502   3.561   6.450
 9214POPC   C2B61364   9.480   3.595   6.750
 9214POPC   C3B61365   9.547   3.523   7.050
 9214POPC   C4B61366   9.460   3.520   7.350
 9215POPC   NC361367  42.307   4.349   5.550
 9215POPC   PO461368  42.316   4.332   5.850
 9215POPC   GL161369  42.354   4.337   6.150
 9215POPC   GL261370  42.446   4.343   6.150
 9215POPC   C1A61371  42.334   4.354   6.450
 9215POPC   D2A61372  42.285   4.335   6.750
 9215POPC   C3A61373  42.330   4.364   7.050
 9215POPC   C4A61374  42.367   4.366   7.350
 9215POPC   C1B61375  42.503   4.489   6.450
 9215POPC   C2B61376  42.508   4.499   6.750
 9215POPC   C3B61377  42.526   4.419   7.050
 9215POPC   C4B61378  42.552   4.477   7.350
 9216POPC   NC361379  27.633   5.088   5.550
 9216POPC   PO461380  27.571   5.069   5.850
 9216POPC   GL161381  27.580   5.074   6.150
 9216POPC   GL261382  27.576   5.201   6.150
 9216POPC   C1A61383  27.567   5.102   6.450
 9216POPC   D2A61384  27.590   5.086   6.750
 9216POPC   C3A61385  27.549   5.059   7.050
 9216POPC   C4A61386  27.545   5.111   7.350
 9216POPC   C1B61387  27.585   5.381   6.450
 9216POPC   C2B61388  27.553   5.321   6.750
 9216POPC   C3B61389  27.560   5.315   7.050
 9216POPC   C4B61390  27.606   5.356   7.350
 9217POPC   NC361391  28.355  27.572   5.550
 9217POPC   PO461392  28.359  27.638   5.850
 9217POPC   GL161393  28.406  27.628   6.150
 9217POPC   GL261394  28.370  27.474   6.150
 9217POPC   C1A61395  28.389  27.568   6.450
 9217POPC   D2A61396  28.353  27.572   6.750
 9217POPC   C3A61397  28.399  27.591   7.050
 9217POPC   C4A61398  28.336  27.551   7.350
 9217POPC   C1B61399  28.328  27.355   6.450
 9217POPC   C2B61400  28.344  27.351   6.750
 9217POPC   C3B61401  28.285  27.330   7.050
 9217POPC   C4B61402  28.286  27.363   7.350
 9218POPC   NC361403  18.303  42.361   5.550
 9218POPC   PO461404  18.278  42.367   5.850
 9218POPC   GL161405  18.293  42.301   6.150
 9218POPC   GL261406  18.168  42.365   6.150
 9218POPC   C1A61407  18.254  42.321   6.450
 9218POPC   D2A61408  18.238  42.381   6.750
 9218POPC   C3A61409  18.320  42.285   7.050
 9218POPC   C4A61410  18.247  42.303   7.350
 9218POPC   C1B61411  18.069  42.441   6.450
 9218POPC   C2B61412  18.088  42.442   6.750
 9218POPC   C3B61413  18.079  42.427   7.050
 9218POPC   C4B61414  18.088  42.451   7.350
 9219POPC   NC361415  10.545  33.788   5.550
 9219POPC   PO461416  10.507  33.829   5.850
 9219POPC   GL161417  10.479  33.821   6.150
 9219POPC   GL261418  10.467  33.964   6.150
 9219POPC   C1A61419  10.538  33.787   6.450
 9219POPC   D2A61420  10.559  33.782   6.750
 9219POPC   C3A61421  10.507  33.756   7.050
 9219POPC   C4A61422  10.505  33.839   7.350
 9219POPC   C1B61423  10.448  34.060   6.450
 9219POPC   C2B61424  10.501  33.991   6.750
 9219POPC   C3B61425  10.472  34.055   7.050
 9219POPC   C4B61426  10.426  34.044   7.350
 9220POPC   NC361427  31.447  25.253   5.550
 9220POPC   PO461428  31.509  25.224   5.850
 9220POPC   GL161429  31.447  25.271   6.150
 9220POPC   GL261430  31.434  25.163   6.150
 9220POPC   C1A61431  31.515  25.232   6.450
 9220POPC   D2A61432  31.520  25.300   6.750
 9220POPC   C3A61433  31.494  25.256   7.050
 9220POPC   C4A61434  31.448  25.297   7.350
 9220POPC   C1B61435  31.540  25.056   6.450
 9220POPC   C2B61436  31.539  24.997   6.750
 9220POPC   C3B61437  31.456  25.006   7.050
 9220POPC   C4B61438  31.485  24.999   7.350
 9221POPC   NC361439  31.492  11.309   5.550
 9221POPC   PO461440  31.517  11.258   5.850
 9221POPC   GL161441  31.452  11.259   6.150
 9221POPC   GL261442  31.380  11.379   6.150
 9221POPC   C1A61443  31.448  11.326   6.450
 9221POPC   D2A61444  31.489  11.343   6.750
 9221POPC   C3A61445  31.455  11.260   7.050
 9221POPC   C4A61446  31.505  11.344   7.350
 9221POPC   C1B61447  31.378  11.523   6.450
 9221POPC   C2B61448  31.361  11.511   6.750
 9221POPC   C3B61449  31.340  11.474   7.050
 9221POPC   C4B61450  31.305  11.473   7.350
 9222POPC   NC361451  38.452  39.248   5.550
 9222POPC   PO461452  38.491  39.263   5.850
 9222POPC   GL161453  38.466  39.196   6.150
 9222POPC   GL261454  38.608  39.215   6.150
 9222POPC   C1A61455  38.466  39.277   6.450
 9222POPC   D2A61456  38.448  39.226   6.750
 9222POPC   C3A61457  38.447  39.265   7.050
 9222POPC   C4A61458  38.457  39.189   7.350
 9222POPC   C1B61459  38.723  39.220   6.450
 9222POPC   C2B61460  38.650  39.136   6.750
 9222POPC   C3B61461  38.685  39.125   7.050
 9222POPC   C4B61462  38.662  39.159   7.350
 9223POPC   NC361463  25.315  41.544   5.550
 9223POPC   PO461464  25.279  41.543   5.850
 9223POPC   GL161465  25.232  41.596   6.150
 9223POPC   GL261466  25.382  41.608   6.150
 9223POPC   C1A61467  25.231  41.570   6.450
 9223POPC   D2A61468  25.288  41.604   6.750
 9223POPC   C3A61469  25.281  41.538   7.050
 9223POPC   C4A61470  25.245  41.578   7.350
 9223POPC   C1B61471  25.477  41.671   6.450
 9223POPC   C2B61472  25.531  41.708   6.750
 9223POPC   C3B61473  25.519  41.659   7.050
 9223POPC   C4B61474  25.460  41.700   7.350
 9224POPC   NC361475  37.661  16.749   5.550
 9224POPC   PO461476  37.707  16.696   5.850
 9224POPC   GL161477  37.683  16.723   6.150
 9224POPC   GL261478  37.746  16.840   6.150
 9224POPC   C1A61479  37.632  16.736   6.450
 9224POPC   D2A61480  37.651  16.714   6.750
 9224POPC   C3A61481  37.712  16.726   7.050
 9224POPC   C4A61482  37.648  16.768   7.350
 9224POPC   C1B61483  37.710  17.000   6.450
 9224POPC   C2B61484  37.734  16.978   6.750
 9224POPC   C3B61485  37.772  16.962   7.050
 9224POPC   C4B61486  37.777  17.017   7.350
 9225POPC   NC361487  14.378  36.173   5.550
 9225POPC   PO461488  14.380  36.093   5.850
 9225POPC   GL161489  14.398  36.159   6.150
 9225POPC   GL261490  14.513  36.120   6.150
 9225POPC   C1A61491  14.431  36.142   6.450
 9225POPC   D2A61492  14.383  36.142   6.750
 9225POPC   C3A61493  14.445  36.149   7.050
 9225POPC   C4A61494  14.376  36.113   7.350
 9225POPC   C1B61495  14.606  36.131   6.450
 9225POPC   C2B61496  14.631  36.098   6.750
 9225POPC   C3B61497  14.622  36.079   7.050
 9225POPC   C4B61498  14.696  36.139   7.350
 9226POPC   NC361499  28.356   2.790   5.550
 9226POPC   PO461500  28.349   2.779   5.850
 9226POPC   GL161501  28.380   2.749   6.150
 9226POPC   GL261502  28.349   2.889   6.150
 9226POPC   C1A61503  28.417   2.753   6.450
 9226POPC   D2A61504  28.384   2.807   6.750
 9226POPC   C3A61505  28.408   2.759   7.050
 9226POPC   C4A61506  28.365   2.717   7.350
 9226POPC   C1B61507  28.413   3.051   6.450
 9226POPC   C2B61508  28.433   3.036   6.750
 9226POPC   C3B61509  28.397   2.977   7.050
 9226POPC   C4B61510  28.453   2.963   7.350
 9227POPC   NC361511   0.427   4.311   5.550
 9227POPC   PO461512   0.481   4.312   5.850
 9227POPC   GL161513   0.474   4.346   6.150
 9227POPC   GL261514   0.576   4.316   6.150
 9227POPC   C1A61515   0.439   4.337   6.450
 9227POPC   D2A61516   0.454   4.292   6.750
 9227POPC   C3A61517   0.485   4.322   7.050
 9227POPC   C4A61518   0.447   4.305   7.350
 9227POPC   C1B61519   0.681   4.309   6.450
 9227POPC   C2B61520   0.663   4.376   6.750
 9227POPC   C3B61521   0.650   4.353   7.050
 9227POPC   C4B61522   0.706   4.375   7.350
 9228POPC   NC361523  16.730  39.182   5.550
 9228POPC   PO461524  16.751  39.259   5.850
 9228POPC   GL161525  16.694  39.243   6.150
 9228POPC   GL261526  16.660  39.378   6.150
 9228POPC   C1A61527  16.775  39.260   6.450
 9228POPC   D2A61528  16.730  39.243   6.750
 9228POPC   C3A61529  16.720  39.268   7.050
 9228POPC   C4A61530  16.747  39.222   7.350
 9228POPC   C1B61531  16.624  39.489   6.450
 9228POPC   C2B61532  16.653  39.439   6.750
 9228POPC   C3B61533  16.688  39.463   7.050
 9228POPC   C4B61534  16.662  39.520   7.350
 9229POPC   NC361535  28.368  29.932   5.550
 9229POPC   PO461536  28.329  29.952   5.850
 9229POPC   GL161537  28.394  29.956   6.150
 9229POPC   GL261538  28.292  29.847   6.150
 9229POPC   C1A61539  28.411  29.901   6.450
 9229POPC   D2A61540  28.378  29.970   6.750
 9229POPC   C3A61541  28.347  29.971   7.050
 9229POPC   C4A61542  28.395  29.927   7.350
 9229POPC   C1B61543  28.224  29.779   6.450
 9229POPC   C2B61544  28.200  29.769   6.750
 9229POPC   C3B61545  28.186  29.687   7.050
 9229POPC   C4B61546  28.164  29.771   7.350
 9230POPC   NC361547  23.757  22.893   5.550
 9230POPC   PO461548  23.687  22.936   5.850
 9230POPC   GL161549  23.703  22.919   6.150
 9230POPC   GL261550  23.824  22.895   6.150
 9230POPC   C1A61551  23.721  22.920   6.450
 9230POPC   D2A61552  23.729  22.946   6.750
 9230POPC   C3A61553  23.694  22.915   7.050
 9230POPC   C4A61554  23.758  22.913   7.350
 9230POPC   C1B61555  23.950  22.846   6.450
 9230POPC   C2B61556  23.918  22.793   6.750
 9230POPC   C3B61557  23.893  22.758   7.050
 9230POPC   C4B61558  23.910  22.787   7.350
 9231POPC   NC361559  18.239  27.624   5.550
 9231POPC   PO461560  18.332  27.598   5.850
 9231POPC   GL161561  18.317  27.640   6.150
 9231POPC   GL261562  18.341  27.509   6.150
 9231POPC   C1A61563  18.268  27.641   6.450
 9231POPC   D2A61564  18.328  27.613   6.750
 9231POPC   C3A61565  18.307  27.598   7.050
 9231POPC   C4A61566  18.304  27.614   7.350
 9231POPC   C1B61567  18.466  27.424   6.450
 9231POPC   C2B61568  18.427  27.443   6.750
 9231POPC   C3B61569  18.485  27.454   7.050
 9231POPC   C4B61570  18.477  27.405   7.350
 9232POPC   NC361571  39.208  33.014   5.550
 9232POPC   PO461572  39.230  33.063   5.850
 9232POPC   GL161573  39.191  32.987   6.150
 9232POPC   GL261574  39.160  32.951   6.150
 9232POPC   C1A61575  39.256  33.025   6.450
 9232POPC   D2A61576  39.269  33.004   6.750
 9232POPC   C3A61577  39.257  32.981   7.050
 9232POPC   C4A61578  39.193  33.025   7.350
 9232POPC   C1B61579  39.167  32.742   6.450
 9232POPC   C2B61580  39.171  32.822   6.750
 9232POPC   C3B61581  39.195  32.789   7.050
 9232POPC   C4B61582  39.186  32.794   7.350
 9233POPC   NC361583   4.315   1.183   5.550
 9233POPC   PO461584   4.313   1.218   5.850
 9233POPC   GL161585   4.333   1.244   6.150
 9233POPC   GL261586   4.465   1.143   6.150
 9233POPC   C1A61587   4.361   1.182   6.450
 9233POPC   D2A61588   4.314   1.194   6.750
 9233POPC   C3A61589   4.345   1.187   7.050
 9233POPC   C4A61590   4.361   1.198   7.350
 9233POPC   C1B61591   4.535   1.061   6.450
 9233POPC   C2B61592   4.489   1.061   6.750
 9233POPC   C3B61593   4.491   1.113   7.050
 9233POPC   C4B61594   4.520   1.101   7.350
 9234POPC   NC361595  31.469  42.304   5.550
 9234POPC   PO461596  31.427  42.362   5.850
 9234POPC   GL161597  31.495  42.377   6.150
 9234POPC   GL261598  31.588  42.413   6.150
 9234POPC   C1A61599  31.454  42.380   6.450
 9234POPC   D2A61600  31.486  42.295   6.750
 9234POPC   C3A61601  31.458  42.329   7.050
 9234POPC   C4A61602  31.499  42.290   7.350
 9234POPC   C1B61603  31.696  42.439   6.450
 9234POPC   C2B61604  31.684  42.493   6.750
 9234POPC   C3B61605  31.744  42.469   7.050
 9234POPC   C4B61606  31.710  42.398   7.350
 9235POPC   NC361607  24.459  34.623   5.550
 9235POPC   PO461608  24.452  34.590   5.850
 9235POPC   GL161609  24.531  34.591   6.150
 9235POPC   GL261610  24.650  34.628   6.150
 9235POPC   C1A61611  24.486  34.624   6.450
 9235POPC   D2A61612  24.470  34.532   6.750
 9235POPC   C3A61613  24.505  34.587   7.050
 9235POPC   C4A61614  24.480  34.625   7.350
 9235POPC   C1B61615  24.734  34.632   6.450
 9235POPC   C2B61616  24.752  34.645   6.750
 9235POPC   C3B61617  24.749  34.632   7.050
 9235POPC   C4B61618  24.778  34.666   7.350
 9236POPC   NC361619  42.288   8.944   5.550
 9236POPC   PO461620  42.303   8.985   5.850
 9236POPC   GL161621  42.307   8.957   6.150
 9236POPC   GL261622  42.501   8.975   6.150
 9236POPC   C1A61623  42.366   8.953   6.450
 9236POPC   D2A61624  42.311   8.934   6.750
 9236POPC   C3A61625  42.286   9.009   7.050
 9236POPC   C4A61626  42.289   8.925   7.350
 9236POPC   C1B61627  42.604   8.969   6.450
 9236POPC   C2B61628  42.600   8.914   6.750
 9236POPC   C3B61629  42.603   8.907   7.050
 9236POPC   C4B61630  42.615   8.922   7.350
 9237POPC   NC361631  15.156  36.941   5.550
 9237POPC   PO461632  15.211  36.950   5.850
 9237POPC   GL161633  15.183  36.943   6.150
 9237POPC   GL261634  15.331  36.990   6.150
 9237POPC   C1A61635  15.200  36.908   6.450
 9237POPC   D2A61636  15.207  36.920   6.750
 9237POPC   C3A61637  15.193  36.902   7.050
 9237POPC   C4A61638  15.184  36.879   7.350
 9237POPC   C1B61639  15.369  37.005   6.450
 9237POPC   C2B61640  15.399  37.010   6.750
 9237POPC   C3B61641  15.374  37.034   7.050
 9237POPC   C4B61642  15.386  36.960   7.350
 9238POPC   NC361643  29.173   4.299   5.550
 9238POPC   PO461644  29.105   4.286   5.850
 9238POPC   GL161645  29.181   4.268   6.150
 9238POPC   GL261646  28.988   4.337   6.150
 9238POPC   C1A61647  29.185   4.366   6.450
 9238POPC   D2A61648  29.118   4.358   6.750
 9238POPC   C3A61649  29.136   4.269   7.050
 9238POPC   C4A61650  29.148   4.328   7.350
 9238POPC   C1B61651  28.892   4.250   6.450
 9238POPC   C2B61652  28.895   4.213   6.750
 9238POPC   C3B61653  28.907   4.217   7.050
 9238POPC   C4B61654  28.896   4.299   7.350
 9239POPC   NC361655  11.271  43.896   5.550
 9239POPC   PO461656  11.303  43.916   5.850
 9239POPC   GL161657  11.281  43.909   6.150
 9239POPC   GL261658  11.362  43.946   6.150
 9239POPC   C1A61659  11.303  43.916   6.450
 9239POPC   D2A61660  11.318  43.876   6.750
 9239POPC   C3A61661  11.331  43.887   7.050
 9239POPC   C4A61662  11.302  43.915   7.350
 9239POPC   C1B61663  11.497  44.028   6.450
 9239POPC   C2B61664  11.511  44.047   6.750
 9239POPC   C3B61665  11.485  44.118   7.050
 9239POPC   C4B61666  11.480  44.046   7.350
 9240POPC   NC361667   6.687   7.462   5.550
 9240POPC   PO461668   6.617   7.434   5.850
 9240POPC   GL161669   6.682   7.415   6.150
 9240POPC   GL261670   6.599   7.506   6.150
 9240POPC   C1A61671   6.694   7.467   6.450
 9240POPC   D2A61672   6.677   7.407   6.750
 9240POPC   C3A61673   6.649   7.465   7.050
 9240POPC   C4A61674   6.693   7.450   7.350
 9240POPC   C1B61675   6.475   7.653   6.450
 9240POPC   C2B61676   6.488   7.628   6.750
 9240POPC   C3B61677   6.566   7.631   7.050
 9240POPC   C4B61678   6.567   7.675   7.350
 9241POPC   NC361679  13.625  21.421   5.550
 9241POPC   PO461680  13.644  21.416   5.850
 9241POPC   GL161681  13.672  21.379   6.150
 9241POPC   GL261682  13.749  21.314   6.150
 9241POPC   C1A61683  13.673  21.366   6.450
 9241POPC   D2A61684  13.595  21.395   6.750
 9241POPC   C3A61685  13.618  21.339   7.050
 9241POPC   C4A61686  13.675  21.380   7.350
 9241POPC   C1B61687  13.821  21.274   6.450
 9241POPC   C2B61688  13.878  21.272   6.750
 9241POPC   C3B61689  13.824  21.301   7.050
 9241POPC   C4B61690  13.827  21.302   7.350
 9242POPC   NC361691  15.210  21.410   5.550
 9242POPC   PO461692  15.134  21.428   5.850
 9242POPC   GL161693  15.181  21.357   6.150
 9242POPC   GL261694  15.254  21.486   6.150
 9242POPC   C1A61695  15.217  21.409   6.450
 9242POPC   D2A61696  15.176  21.365   6.750
 9242POPC   C3A61697  15.177  21.396   7.050
 9242POPC   C4A61698  15.192  21.352   7.350
 9242POPC   C1B61699  15.299  21.621   6.450
 9242POPC   C2B61700  15.299  21.663   6.750
 9242POPC   C3B61701  15.256  21.662   7.050
 9242POPC   C4B61702  15.269  21.674   7.350
 9243POPC   NC361703  27.571  40.774   5.550
 9243POPC   PO461704  27.552  40.820   5.850
 9243POPC   GL161705  27.581  40.798   6.150
 9243POPC   GL261706  27.617  40.911   6.150
 9243POPC   C1A61707  27.638  40.833   6.450
 9243POPC   D2A61708  27.621  40.811   6.750
 9243POPC   C3A61709  27.552  40.764   7.050
 9243POPC   C4A61710  27.618  40.768   7.350
 9243POPC   C1B61711  27.688  41.021   6.450
 9243POPC   C2B61712  27.680  41.028   6.750
 9243POPC   C3B61713  27.697  41.072   7.050
 9243POPC   C4B61714  27.654  41.063   7.350
 9244POPC   NC361715  41.531  17.516   5.550
 9244POPC   PO461716  41.529  17.552   5.850
 9244POPC   GL161717  41.569  17.548   6.150
 9244POPC   GL261718  41.488  17.553   6.150
 9244POPC   C1A61719  41.578  17.460   6.450
 9244POPC   D2A61720  41.539  17.517   6.750
 9244POPC   C3A61721  41.598  17.466   7.050
 9244POPC   C4A61722  41.531  17.507   7.350
 9244POPC   C1B61723  41.301  17.586   6.450
 9244POPC   C2B61724  41.365  17.567   6.750
 9244POPC   C3B61725  41.320  17.556   7.050
 9244POPC   C4B61726  41.361  17.562   7.350
 9245POPC   NC361727  32.278  41.516   5.550
 9245POPC   PO461728  32.215  41.525   5.850
 9245POPC   GL161729  32.256  41.589   6.150
 9245POPC   GL261730  32.238  41.664   6.150
 9245POPC   C1A61731  32.298  41.531   6.450
 9245POPC   D2A61732  32.220  41.526   6.750
 9245POPC   C3A61733  32.240  41.534   7.050
 9245POPC   C4A61734  32.244  41.602   7.350
 9245POPC   C1B61735  32.248  41.794   6.450
 9245POPC   C2B61736  32.318  41.778   6.750
 9245POPC   C3B61737  32.303  41.826   7.050
 9245POPC   C4B61738  32.302  41.857   7.350
 9246POPC   NC361739  44.642   3.567   5.550
 9246POPC   PO461740  44.654   3.520   5.850
 9246POPC   GL161741  44.639   3.567   6.150
 9246POPC   GL261742  44.760   3.614   6.150
 9246POPC   C1A61743  44.616   3.558   6.450
 9246POPC   D2A61744  44.685   3.570   6.750
 9246POPC   C3A61745  44.617   3.510   7.050
 9246POPC   C4A61746  44.621   3.575   7.350
 9246POPC   C1B61747  44.807   3.696   6.450
 9246POPC   C2B61748  44.817   3.700   6.750
 9246POPC   C3B61749  44.800   3.730   7.050
 9246POPC   C4B61750  44.831   3.715   7.350
 9247POPC   NC361751  34.586  21.408   5.550
 9247POPC   PO461752  34.574  21.381   5.850
 9247POPC   GL161753  34.575  21.426   6.150
 9247POPC   GL261754  34.454  21.378   6.150
 9247POPC   C1A61755  34.599  21.353   6.450
 9247POPC   D2A61756  34.536  21.408   6.750
 9247POPC   C3A61757  34.590  21.417   7.050
 9247POPC   C4A61758  34.560  21.390   7.350
 9247POPC   C1B61759  34.328  21.353   6.450
 9247POPC   C2B61760  34.318  21.334   6.750
 9247POPC   C3B61761  34.288  21.330   7.050
 9247POPC   C4B61762  34.311  21.317   7.350
 9248POPC   NC361763  30.736  32.225   5.550
 9248POPC   PO461764  30.659  32.237   5.850
 9248POPC   GL161765  30.694  32.290   6.150
 9248POPC   GL261766  30.718  32.358   6.150
 9248POPC   C1A61767  30.720  32.275   6.450
 9248POPC   D2A61768  30.672  32.298   6.750
 9248POPC   C3A61769  30.720  32.222   7.050
 9248POPC   C4A61770  30.679  32.252   7.350
 9248POPC   C1B61771  30.797  32.461   6.450
 9248POPC   C2B61772  30.717  32.532   6.750
 9248POPC   C3B61773  30.788  32.484   7.050
 9248POPC   C4B61774  30.745  32.509   7.350
 9249POPC   NC361775  44.618   1.944   5.550
 9249POPC   PO461776  44.706   1.957   5.850
 9249POPC   GL161777  44.621   2.018   6.150
 9249POPC   GL261778  44.738   1.934   6.150
 9249POPC   C1A61779  44.678   1.966   6.450
 9249POPC   D2A61780  44.705   1.954   6.750
 9249POPC   C3A61781  44.634   1.982   7.050
 9249POPC   C4A61782  44.643   2.040   7.350
 9249POPC   C1B61783  44.861   1.836   6.450
 9249POPC   C2B61784  44.855   1.786   6.750
 9249POPC   C3B61785  44.825   1.789   7.050
 9249POPC   C4B61786  44.827   1.852   7.350
 9250POPC   NC361787  15.130  30.710   5.550
 9250POPC   PO461788  15.184  30.664   5.850
 9250POPC   GL161789  15.171  30.650   6.150
 9250POPC   GL261790  15.148  30.574   6.150
 9250POPC   C1A61791  15.173  30.681   6.450
 9250POPC   D2A61792  15.185  30.745   6.750
 9250POPC   C3A61793  15.210  30.738   7.050
 9250POPC   C4A61794  15.131  30.667   7.350
 9250POPC   C1B61795  15.048  30.479   6.450
 9250POPC   C2B61796  15.086  30.526   6.750
 9250POPC   C3B61797  15.094  30.509   7.050
 9250POPC   C4B61798  15.055  30.505   7.350
 9251POPC   NC361799   2.721  25.303   5.550
 9251POPC   PO461800   2.771  25.249   5.850
 9251POPC   GL161801   2.735  25.278   6.150
 9251POPC   GL261802   2.800  25.390   6.150
 9251POPC   C1A61803   2.782  25.278   6.450
 9251POPC   D2A61804   2.765  25.226   6.750
 9251POPC   C3A61805   2.791  25.225   7.050
 9251POPC   C4A61806   2.748  25.279   7.350
 9251POPC   C1B61807   2.828  25.469   6.450
 9251POPC   C2B61808   2.794  25.558   6.750
 9251POPC   C3B61809   2.819  25.547   7.050
 9251POPC   C4B61810   2.758  25.495   7.350
 9252POPC   NC361811  22.147   8.233   5.550
 9252POPC   PO461812  22.177   8.152   5.850
 9252POPC   GL161813  22.197   8.158   6.150
 9252POPC   GL261814  22.202   8.340   6.150
 9252POPC   C1A61815  22.144   8.149   6.450
 9252POPC   D2A61816  22.130   8.217   6.750
 9252POPC   C3A61817  22.184   8.202   7.050
 9252POPC   C4A61818  22.196   8.163   7.350
 9252POPC   C1B61819  22.241   8.435   6.450
 9252POPC   C2B61820  22.170   8.399   6.750
 9252POPC   C3B61821  22.229   8.397   7.050
 9252POPC   C4B61822  22.171   8.398   7.350
 9253POPC   NC361823  28.416  32.211   5.550
 9253POPC   PO461824  28.417  32.260   5.850
 9253POPC   GL161825  28.384  32.265   6.150
 9253POPC   GL261826  28.469  32.314   6.150
 9253POPC   C1A61827  28.403  32.229   6.450
 9253POPC   D2A61828  28.404  32.297   6.750
 9253POPC   C3A61829  28.338  32.274   7.050
 9253POPC   C4A61830  28.326  32.208   7.350
 9253POPC   C1B61831  28.636  32.326   6.450
 9253POPC   C2B61832  28.600  32.301   6.750
 9253POPC   C3B61833  28.563  32.326   7.050
 9253POPC   C4B61834  28.584  32.354   7.350
 9254POPC   NC361835  26.816  23.749   5.550
 9254POPC   PO461836  26.851  23.708   5.850
 9254POPC   GL161837  26.787  23.718   6.150
 9254POPC   GL261838  26.882  23.625   6.150
 9254POPC   C1A61839  26.811  23.664   6.450
 9254POPC   D2A61840  26.778  23.703   6.750
 9254POPC   C3A61841  26.861  23.745   7.050
 9254POPC   C4A61842  26.856  23.677   7.350
 9254POPC   C1B61843  26.901  23.458   6.450
 9254POPC   C2B61844  26.840  23.514   6.750
 9254POPC   C3B61845  26.914  23.424   7.050
 9254POPC   C4B61846  26.888  23.515   7.350
 9255POPC   NC361847  18.275  29.120   5.550
 9255POPC   PO461848  18.243  29.115   5.850
 9255POPC   GL161849  18.310  29.166   6.150
 9255POPC   GL261850  18.202  29.300   6.150
 9255POPC   C1A61851  18.246  29.106   6.450
 9255POPC   D2A61852  18.301  29.098   6.750
 9255POPC   C3A61853  18.279  29.133   7.050
 9255POPC   C4A61854  18.309  29.157   7.350
 9255POPC   C1B61855  18.143  29.341   6.450
 9255POPC   C2B61856  18.214  29.405   6.750
 9255POPC   C3B61857  18.142  29.417   7.050
 9255POPC   C4B61858  18.176  29.328   7.350
 9256POPC   NC361859   3.520  42.329   5.550
 9256POPC   PO461860   3.504  42.315   5.850
 9256POPC   GL161861   3.588  42.378   6.150
 9256POPC   GL261862   3.496  42.229   6.150
 9256POPC   C1A61863   3.526  42.323   6.450
 9256POPC   D2A61864   3.575  42.330   6.750
 9256POPC   C3A61865   3.513  42.349   7.050
 9256POPC   C4A61866   3.551  42.360   7.350
 9256POPC   C1B61867   3.376  42.155   6.450
 9256POPC   C2B61868   3.347  42.164   6.750
 9256POPC   C3B61869   3.340  42.191   7.050
 9256POPC   C4B61870   3.366  42.169   7.350
 9257POPC   NC361871  27.564  35.381   5.550
 9257POPC   PO461872  27.586  35.362   5.850
 9257POPC   GL161873  27.570  35.330   6.150
 9257POPC   GL261874  27.688  35.471   6.150
 9257POPC   C1A61875  27.613  35.306   6.450
 9257POPC   D2A61876  27.553  35.331   6.750
 9257POPC   C3A61877  27.616  35.348   7.050
 9257POPC   C4A61878  27.638  35.304   7.350
 9257POPC   C1B61879  27.813  35.514   6.450
 9257POPC   C2B61880  27.746  35.540   6.750
 9257POPC   C3B61881  27.729  35.518   7.050
 9257POPC   C4B61882  27.802  35.552   7.350
 9258POPC   NC361883  26.841   3.548   5.550
 9258POPC   PO461884  26.859   3.527   5.850
 9258POPC   GL161885  26.809   3.555   6.150
 9258POPC   GL261886  26.874   3.417   6.150
 9258POPC   C1A61887  26.827   3.555   6.450
 9258POPC   D2A61888  26.814   3.556   6.750
 9258POPC   C3A61889  26.807   3.497   7.050
 9258POPC   C4A61890  26.848   3.500   7.350
 9258POPC   C1B61891  26.902   3.314   6.450
 9258POPC   C2B61892  26.904   3.271   6.750
 9258POPC   C3B61893  26.838   3.344   7.050
 9258POPC   C4B61894  26.883   3.292   7.350
 9259POPC   NC361895   1.191  29.138   5.550
 9259POPC   PO461896   1.198  29.150   5.850
 9259POPC   GL161897   1.224  29.129   6.150
 9259POPC   GL261898   1.090  29.249   6.150
 9259POPC   C1A61899   1.220  29.170   6.450
 9259POPC   D2A61900   1.235  29.162   6.750
 9259POPC   C3A61901   1.208  29.138   7.050
 9259POPC   C4A61902   1.173  29.096   7.350
 9259POPC   C1B61903   1.007  29.288   6.450
 9259POPC   C2B61904   0.997  29.281   6.750
 9259POPC   C3B61905   1.000  29.353   7.050
 9259POPC   C4B61906   1.009  29.350   7.350
 9260POPC   NC361907  18.297   7.429   5.550
 9260POPC   PO461908  18.286   7.377   5.850
 9260POPC   GL161909  18.273   7.405   6.150
 9260POPC   GL261910  18.198   7.434   6.150
 9260POPC   C1A61911  18.288   7.436   6.450
 9260POPC   D2A61912  18.262   7.375   6.750
 9260POPC   C3A61913  18.242   7.385   7.050
 9260POPC   C4A61914  18.318   7.428   7.350
 9260POPC   C1B61915  18.042   7.394   6.450
 9260POPC   C2B61916  18.027   7.395   6.750
 9260POPC   C3B61917  18.035   7.371   7.050
 9260POPC   C4B61918  18.024   7.382   7.350
 9261POPC   NC361919  42.338  17.512   5.550
 9261POPC   PO461920  42.313  17.514   5.850
 9261POPC   GL161921  42.367  17.485   6.150
 9261POPC   GL261922  42.446  17.539   6.150
 9261POPC   C1A61923  42.370  17.494   6.450
 9261POPC   D2A61924  42.305  17.523   6.750
 9261POPC   C3A61925  42.321  17.517   7.050
 9261POPC   C4A61926  42.310  17.505   7.350
 9261POPC   C1B61927  42.595  17.521   6.450
 9261POPC   C2B61928  42.537  17.539   6.750
 9261POPC   C3B61929  42.580  17.544   7.050
 9261POPC   C4B61930  42.563  17.516   7.350
 9262POPC   NC361931  35.393  43.927   5.550
 9262POPC   PO461932  35.314  43.918   5.850
 9262POPC   GL161933  35.338  43.935   6.150
 9262POPC   GL261934  35.428  43.941   6.150
 9262POPC   C1A61935  35.333  43.849   6.450
 9262POPC   D2A61936  35.351  43.929   6.750
 9262POPC   C3A61937  35.396  43.929   7.050
 9262POPC   C4A61938  35.324  43.867   7.350
 9262POPC   C1B61939  35.560  44.011   6.450
 9262POPC   C2B61940  35.530  44.077   6.750
 9262POPC   C3B61941  35.501  44.068   7.050
 9262POPC   C4B61942  35.546  44.000   7.350
 9263POPC   NC361943  28.408  31.459   5.550
 9263POPC   PO461944  28.417  31.440   5.850
 9263POPC   GL161945  28.333  31.445   6.150
 9263POPC   GL261946  28.214  31.397   6.150
 9263POPC   C1A61947  28.320  31.488   6.450
 9263POPC   D2A61948  28.360  31.444   6.750
 9263POPC   C3A61949  28.361  31.459   7.050
 9263POPC   C4A61950  28.363  31.468   7.350
 9263POPC   C1B61951  28.135  31.323   6.450
 9263POPC   C2B61952  28.131  31.324   6.750
 9263POPC   C3B61953  28.152  31.320   7.050
 9263POPC   C4B61954  28.171  31.324   7.350
 9264POPC   NC361955   4.280  32.245   5.550
 9264POPC   PO461956   4.362  32.233   5.850
 9264POPC   GL161957   4.327  32.264   6.150
 9264POPC   GL261958   4.251  32.328   6.150
 9264POPC   C1A61959   4.328  32.289   6.450
 9264POPC   D2A61960   4.357  32.270   6.750
 9264POPC   C3A61961   4.325  32.263   7.050
 9264POPC   C4A61962   4.361  32.226   7.350
 9264POPC   C1B61963   4.092  32.338   6.450
 9264POPC   C2B61964   4.116  32.333   6.750
 9264POPC   C3B61965   4.150  32.358   7.050
 9264POPC   C4B61966   4.096  32.415   7.350
 9265POPC   NC361967  22.195   1.971   5.550
 9265POPC   PO461968  22.210   2.016   5.850
 9265POPC   GL161969  22.137   2.010   6.150
 9265POPC   GL261970  22.049   1.923   6.150
 9265POPC   C1A61971  22.126   2.019   6.450
 9265POPC   D2A61972  22.139   1.983   6.750
 9265POPC   C3A61973  22.184   1.989   7.050
 9265POPC   C4A61974  22.210   1.991   7.350
 9265POPC   C1B61975  21.921   1.863   6.450
 9265POPC   C2B61976  21.998   1.897   6.750
 9265POPC   C3B61977  21.976   1.863   7.050
 9265POPC   C4B61978  21.967   1.842   7.350
 9266POPC   NC361979   3.577   6.608   5.550
 9266POPC   PO461980   3.571   6.608   5.850
 9266POPC   GL161981   3.576   6.612   6.150
 9266POPC   GL261982   3.430   6.583   6.150
 9266POPC   C1A61983   3.545   6.658   6.450
 9266POPC   D2A61984   3.497   6.678   6.750
 9266POPC   C3A61985   3.574   6.690   7.050
 9266POPC   C4A61986   3.549   6.607   7.350
 9266POPC   C1B61987   3.346   6.473   6.450
 9266POPC   C2B61988   3.411   6.433   6.750
 9266POPC   C3B61989   3.420   6.448   7.050
 9266POPC   C4B61990   3.394   6.495   7.350
 9267POPC   NC361991  22.184  19.801   5.550
 9267POPC   PO461992  22.138  19.829   5.850
 9267POPC   GL161993  22.167  19.806   6.150
 9267POPC   GL261994  22.068  19.795   6.150
 9267POPC   C1A61995  22.177  19.799   6.450
 9267POPC   D2A61996  22.123  19.876   6.750
 9267POPC   C3A61997  22.160  19.791   7.050
 9267POPC   C4A61998  22.159  19.786   7.350
 9267POPC   C1B61999  21.941  19.706   6.450
 9267POPC   C2B62000  22.011  19.705   6.750
 9267POPC   C3B62001  21.989  19.660   7.050
 9267POPC   C4B62002  21.960  19.632   7.350
 9268POPC   NC362003  33.836   9.751   5.550
 9268POPC   PO462004  33.803   9.751   5.850
 9268POPC   GL162005  33.764   9.706   6.150
 9268POPC   GL262006  33.922   9.736   6.150
 9268POPC   C1A62007  33.753   9.732   6.450
 9268POPC   D2A62008  33.800   9.759   6.750
 9268POPC   C3A62009  33.825   9.772   7.050
 9268POPC   C4A62010  33.767   9.704   7.350
 9268POPC   C1B62011  34.013   9.790   6.450
 9268POPC   C2B62012  34.056   9.786   6.750
 9268POPC   C3B62013  34.098   9.809   7.050
 9268POPC   C4B62014  34.024   9.744   7.350
 9269POPC   NC362015  20.569  28.335   5.550
 9269POPC   PO462016  20.567  28.408   5.850
 9269POPC   GL162017  20.575  28.385   6.150
 9269POPC   GL262018  20.778  28.297   6.150
 9269POPC   C1A62019  20.562  28.394   6.450
 9269POPC   D2A62020  20.656  28.364   6.750
 9269POPC   C3A62021  20.563  28.375   7.050
 9269POPC   C4A62022  20.657  28.366   7.350
 9269POPC   C1B62023  20.839  28.253   6.450
 9269POPC   C2B62024  20.892  28.336   6.750
 9269POPC   C3B62025  20.884  28.286   7.050
 9269POPC   C4B62026  20.852  28.303   7.350
 9270POPC   NC362027  27.576  42.305   5.550
 9270POPC   PO462028  27.561  42.353   5.850
 9270POPC   GL162029  27.623  42.376   6.150
 9270POPC   GL262030  27.445  42.255   6.150
 9270POPC   C1A62031  27.637  42.360   6.450
 9270POPC   D2A62032  27.628  42.349   6.750
 9270POPC   C3A62033  27.544  42.338   7.050
 9270POPC   C4A62034  27.569  42.333   7.350
 9270POPC   C1B62035  27.346  42.215   6.450
 9270POPC   C2B62036  27.335  42.203   6.750
 9270POPC   C3B62037  27.360  42.214   7.050
 9270POPC   C4B62038  27.346  42.174   7.350
 9271POPC   NC362039   0.475  41.579   5.550
 9271POPC   PO462040   0.484  41.602   5.850
 9271POPC   GL162041   0.393  41.545   6.150
 9271POPC   GL262042   0.531  41.489   6.150
 9271POPC   C1A62043   0.418  41.581   6.450
 9271POPC   D2A62044   0.451  41.579   6.750
 9271POPC   C3A62045   0.440  41.530   7.050
 9271POPC   C4A62046   0.410  41.534   7.350
 9271POPC   C1B62047   0.527  41.304   6.450
 9271POPC   C2B62048   0.549  41.382   6.750
 9271POPC   C3B62049   0.543  41.325   7.050
 9271POPC   C4B62050   0.546  41.382   7.350
 9272POPC   NC362051  31.508   4.312   5.550
 9272POPC   PO462052  31.430   4.347   5.850
 9272POPC   GL162053  31.487   4.338   6.150
 9272POPC   GL262054  31.610   4.316   6.150
 9272POPC   C1A62055  31.426   4.300   6.450
 9272POPC   D2A62056  31.450   4.329   6.750
 9272POPC   C3A62057  31.499   4.318   7.050
 9272POPC   C4A62058  31.476   4.274   7.350
 9272POPC   C1B62059  31.752   4.268   6.450
 9272POPC   C2B62060  31.771   4.282   6.750
 9272POPC   C3B62061  31.714   4.284   7.050
 9272POPC   C4B62062  31.676   4.336   7.350
 9273POPC   NC362063  10.559  31.487   5.550
 9273POPC   PO462064  10.509  31.424   5.850
 9273POPC   GL162065  10.522  31.482   6.150
 9273POPC   GL262066  10.570  31.407   6.150
 9273POPC   C1A62067  10.520  31.433   6.450
 9273POPC   D2A62068  10.482  31.515   6.750
 9273POPC   C3A62069  10.477  31.494   7.050
 9273POPC   C4A62070  10.567  31.474   7.350
 9273POPC   C1B62071  10.633  31.206   6.450
 9273POPC   C2B62072  10.667  31.198   6.750
 9273POPC   C3B62073  10.675  31.229   7.050
 9273POPC   C4B62074  10.585  31.204   7.350
 9274POPC   NC362075  13.635  40.040   5.550
 9274POPC   PO462076  13.603  40.053   5.850
 9274POPC   GL162077  13.660  39.981   6.150
 9274POPC   GL262078  13.537  39.869   6.150
 9274POPC   C1A62079  13.672  40.046   6.450
 9274POPC   D2A62080  13.583  40.022   6.750
 9274POPC   C3A62081  13.675  39.974   7.050
 9274POPC   C4A62082  13.590  40.048   7.350
 9274POPC   C1B62083  13.445  39.786   6.450
 9274POPC   C2B62084  13.487  39.852   6.750
 9274POPC   C3B62085  13.509  39.772   7.050
 9274POPC   C4B62086  13.427  39.846   7.350
 9275POPC   NC362087  38.410  29.897   5.550
 9275POPC   PO462088  38.488  29.925   5.850
 9275POPC   GL162089  38.480  29.951   6.150
 9275POPC   GL262090  38.601  29.908   6.150
 9275POPC   C1A62091  38.456  29.911   6.450
 9275POPC   D2A62092  38.439  29.880   6.750
 9275POPC   C3A62093  38.465  29.952   7.050
 9275POPC   C4A62094  38.418  29.919   7.350
 9275POPC   C1B62095  38.751  29.934   6.450
 9275POPC   C2B62096  38.727  29.875   6.750
 9275POPC   C3B62097  38.656  29.902   7.050
 9275POPC   C4B62098  38.734  29.895   7.350
 9276POPC   NC362099  29.880  16.781   5.550
 9276POPC   PO462100  29.905  16.755   5.850
 9276POPC   GL162101  29.939  16.685   6.150
 9276POPC   GL262102  29.976  16.769   6.150
 9276POPC   C1A62103  29.906  16.778   6.450
 9276POPC   D2A62104  29.873  16.730   6.750
 9276POPC   C3A62105  29.905  16.737   7.050
 9276POPC   C4A62106  29.917  16.729   7.350
 9276POPC   C1B62107  30.100  16.828   6.450
 9276POPC   C2B62108  30.117  16.916   6.750
 9276POPC   C3B62109  30.119  16.869   7.050
 9276POPC   C4B62110  30.131  16.899   7.350
 9277POPC   NC362111  33.823  39.231   5.550
 9277POPC   PO462112  33.827  39.240   5.850
 9277POPC   GL162113  33.792  39.193   6.150
 9277POPC   GL262114  33.860  39.284   6.150
 9277POPC   C1A62115  33.766  39.239   6.450
 9277POPC   D2A62116  33.772  39.258   6.750
 9277POPC   C3A62117  33.802  39.257   7.050
 9277POPC   C4A62118  33.848  39.259   7.350
 9277POPC   C1B62119  33.961  39.334   6.450
 9277POPC   C2B62120  33.970  39.402   6.750
 9277POPC   C3B62121  34.025  39.405   7.050
 9277POPC   C4B62122  33.987  39.353   7.350
 9278POPC   NC362123   7.372  19.062   5.550
 9278POPC   PO462124   7.385  19.014   5.850
 9278POPC   GL162125   7.468  19.090   6.150
 9278POPC   GL262126   7.300  19.033   6.150
 9278POPC   C1A62127   7.431  19.078   6.450
 9278POPC   D2A62128   7.399  19.013   6.750
 9278POPC   C3A62129   7.444  19.101   7.050
 9278POPC   C4A62130   7.397  19.104   7.350
 9278POPC   C1B62131   7.203  19.008   6.450
 9278POPC   C2B62132   7.215  18.930   6.750
 9278POPC   C3B62133   7.228  18.961   7.050
 9278POPC   C4B62134   7.228  18.996   7.350
 9279POPC   NC362135   1.235  33.770   5.550
 9279POPC   PO462136   1.204  33.760   5.850
 9279POPC   GL162137   1.261  33.813   6.150
 9279POPC   GL262138   1.120  33.861   6.150
 9279POPC   C1A62139   1.173  33.832   6.450
 9279POPC   D2A62140   1.221  33.847   6.750
 9279POPC   C3A62141   1.244  33.765   7.050
 9279POPC   C4A62142   1.176  33.820   7.350
 9279POPC   C1B62143   1.059  33.983   6.450
 9279POPC   C2B62144   1.023  33.962   6.750
 9279POPC   C3B62145   1.058  33.992   7.050
 9279POPC   C4B62146   1.086  34.003   7.350
 9280POPC   NC362147  10.477  13.630   5.550
 9280POPC   PO462148  10.489  13.592   5.850
 9280POPC   GL162149  10.491  13.582   6.150
 9280POPC   GL262150  10.461  13.543   6.150
 9280POPC   C1A62151  10.529  13.625   6.450
 9280POPC   D2A62152  10.500  13.628   6.750
 9280POPC   C3A62153  10.570  13.672   7.050
 9280POPC   C4A62154  10.539  13.622   7.350
 9280POPC   C1B62155  10.494  13.332   6.450
 9280POPC   C2B62156  10.475  13.427   6.750
 9280POPC   C3B62157  10.443  13.402   7.050
 9280POPC   C4B62158  10.508  13.351   7.350
 9281POPC   NC362159   7.434  44.702   5.550
 9281POPC   PO462160   7.467  44.630   5.850
 9281POPC   GL162161   7.403  44.619   6.150
 9281POPC   GL262162   7.504  44.582   6.150
 9281POPC   C1A62163   7.424  44.707   6.450
 9281POPC   D2A62164   7.380  44.630   6.750
 9281POPC   C3A62165   7.433  44.624   7.050
 9281POPC   C4A62166   7.417  44.669   7.350
 9281POPC   C1B62167   7.552  44.460   6.450
 9281POPC   C2B62168   7.590  44.488   6.750
 9281POPC   C3B62169   7.574  44.520   7.050
 9281POPC   C4B62170   7.605  44.465   7.350
 9282POPC   NC362171  22.172  22.163   5.550
 9282POPC   PO462172  22.117  22.188   5.850
 9282POPC   GL162173  22.171  22.186   6.150
 9282POPC   GL262174  22.213  22.024   6.150
 9282POPC   C1A62175  22.148  22.183   6.450
 9282POPC   D2A62176  22.140  22.142   6.750
 9282POPC   C3A62177  22.200  22.201   7.050
 9282POPC   C4A62178  22.118  22.170   7.350
 9282POPC   C1B62179  22.178  21.965   6.450
 9282POPC   C2B62180  22.223  21.887   6.750
 9282POPC   C3B62181  22.266  21.928   7.050
 9282POPC   C4B62182  22.222  21.889   7.350
 9283POPC   NC362183  13.616  34.604   5.550
 9283POPC   PO462184  13.603  34.540   5.850
 9283POPC   GL162185  13.592  34.604   6.150
 9283POPC   GL262186  13.735  34.696   6.150
 9283POPC   C1A62187  13.645  34.590   6.450
 9283POPC   D2A62188  13.677  34.610   6.750
 9283POPC   C3A62189  13.581  34.611   7.050
 9283POPC   C4A62190  13.652  34.556   7.350
 9283POPC   C1B62191  13.807  34.761   6.450
 9283POPC   C2B62192  13.742  34.779   6.750
 9283POPC   C3B62193  13.768  34.779   7.050
 9283POPC   C4B62194  13.839  34.758   7.350
 9284POPC   NC362195  35.390  11.274   5.550
 9284POPC   PO462196  35.362  11.340   5.850
 9284POPC   GL162197  35.365  11.337   6.150
 9284POPC   GL262198  35.351  11.216   6.150
 9284POPC   C1A62199  35.396  11.267   6.450
 9284POPC   D2A62200  35.369  11.266   6.750
 9284POPC   C3A62201  35.314  11.308   7.050
 9284POPC   C4A62202  35.305  11.294   7.350
 9284POPC   C1B62203  35.249  11.033   6.450
 9284POPC   C2B62204  35.280  11.076   6.750
 9284POPC   C3B62205  35.279  11.065   7.050
 9284POPC   C4B62206  35.317  11.083   7.350
 9285POPC   NC362207  20.577  36.122   5.550
 9285POPC   PO462208  20.572  36.085   5.850
 9285POPC   GL162209  20.598  36.148   6.150
 9285POPC   GL262210  20.558  36.259   6.150
 9285POPC   C1A62211  20.586  36.127   6.450
 9285POPC   D2A62212  20.620  36.115   6.750
 9285POPC   C3A62213  20.605  36.175   7.050
 9285POPC   C4A62214  20.620  36.137   7.350
 9285POPC   C1B62215  20.617  36.368   6.450
 9285POPC   C2B62216  20.608  36.425   6.750
 9285POPC   C3B62217  20.554  36.417   7.050
 9285POPC   C4B62218  20.647  36.388   7.350
 9286POPC   NC362219  16.691  29.126   5.550
 9286POPC   PO462220  16.696  29.117   5.850
 9286POPC   GL162221  16.729  29.127   6.150
 9286POPC   GL262222  16.767  29.018   6.150
 9286POPC   C1A62223  16.711  29.168   6.450
 9286POPC   D2A62224  16.712  29.191   6.750
 9286POPC   C3A62225  16.716  29.153   7.050
 9286POPC   C4A62226  16.746  29.189   7.350
 9286POPC   C1B62227  16.699  28.849   6.450
 9286POPC   C2B62228  16.763  28.906   6.750
 9286POPC   C3B62229  16.690  28.856   7.050
 9286POPC   C4B62230  16.753  28.871   7.350
 9287POPC   NC362231  41.545  31.514   5.550
 9287POPC   PO462232  41.574  31.519   5.850
 9287POPC   GL162233  41.526  31.465   6.150
 9287POPC   GL262234  41.536  31.571   6.150
 9287POPC   C1A62235  41.516  31.463   6.450
 9287POPC   D2A62236  41.516  31.493   6.750
 9287POPC   C3A62237  41.556  31.427   7.050
 9287POPC   C4A62238  41.551  31.497   7.350
 9287POPC   C1B62239  41.503  31.721   6.450
 9287POPC   C2B62240  41.520  31.689   6.750
 9287POPC   C3B62241  41.509  31.743   7.050
 9287POPC   C4B62242  41.540  31.735   7.350
 9288POPC   NC362243  20.599   2.805   5.550
 9288POPC   PO462244  20.640   2.764   5.850
 9288POPC   GL162245  20.597   2.773   6.150
 9288POPC   GL262246  20.457   2.760   6.150
 9288POPC   C1A62247  20.632   2.784   6.450
 9288POPC   D2A62248  20.599   2.794   6.750
 9288POPC   C3A62249  20.603   2.740   7.050
 9288POPC   C4A62250  20.651   2.722   7.350
 9288POPC   C1B62251  20.388   2.768   6.450
 9288POPC   C2B62252  20.347   2.793   6.750
 9288POPC   C3B62253  20.340   2.724   7.050
 9288POPC   C4B62254  20.410   2.761   7.350
 9289POPC   NC362255  32.264  39.966   5.550
 9289POPC   PO462256  32.263  40.017   5.850
 9289POPC   GL162257  32.242  39.976   6.150
 9289POPC   GL262258  32.194  40.099   6.150
 9289POPC   C1A62259  32.201  39.971   6.450
 9289POPC   D2A62260  32.223  39.985   6.750
 9289POPC   C3A62261  32.271  40.018   7.050
 9289POPC   C4A62262  32.200  40.056   7.350
 9289POPC   C1B62263  32.069  40.240   6.450
 9289POPC   C2B62264  32.118  40.150   6.750
 9289POPC   C3B62265  32.117  40.237   7.050
 9289POPC   C4B62266  32.130  40.244   7.350
 9290POPC   NC362267  38.420  19.017   5.550
 9290POPC   PO462268  38.407  19.055   5.850
 9290POPC   GL162269  38.442  19.052   6.150
 9290POPC   GL262270  38.420  19.141   6.150
 9290POPC   C1A62271  38.446  19.026   6.450
 9290POPC   D2A62272  38.445  19.088   6.750
 9290POPC   C3A62273  38.439  19.061   7.050
 9290POPC   C4A62274  38.457  19.028   7.350
 9290POPC   C1B62275  38.276  19.282   6.450
 9290POPC   C2B62276  38.357  19.250   6.750
 9290POPC   C3B62277  38.313  19.308   7.050
 9290POPC   C4B62278  38.269  19.263   7.350
 9291POPC   NC362279  36.111   5.044   5.550
 9291POPC   PO462280  36.112   5.142   5.850
 9291POPC   GL162281  36.084   5.054   6.150
 9291POPC   GL262282  36.212   5.067   6.150
 9291POPC   C1A62283  36.176   5.069   6.450
 9291POPC   D2A62284  36.099   5.070   6.750
 9291POPC   C3A62285  36.153   5.135   7.050
 9291POPC   C4A62286  36.165   5.079   7.350
 9291POPC   C1B62287  36.351   5.057   6.450
 9291POPC   C2B62288  36.370   5.047   6.750
 9291POPC   C3B62289  36.354   5.049   7.050
 9291POPC   C4B62290  36.418   5.013   7.350
 9292POPC   NC362291  13.605  20.568   5.550
 9292POPC   PO462292  13.620  20.639   5.850
 9292POPC   GL162293  13.591  20.606   6.150
 9292POPC   GL262294  13.688  20.728   6.150
 9292POPC   C1A62295  13.648  20.595   6.450
 9292POPC   D2A62296  13.638  20.616   6.750
 9292POPC   C3A62297  13.652  20.593   7.050
 9292POPC   C4A62298  13.594  20.631   7.350
 9292POPC   C1B62299  13.717  20.837   6.450
 9292POPC   C2B62300  13.723  20.807   6.750
 9292POPC   C3B62301  13.695  20.812   7.050
 9292POPC   C4B62302  13.705  20.882   7.350
 9293POPC   NC362303  28.322   5.075   5.550
 9293POPC   PO462304  28.333   5.107   5.850
 9293POPC   GL162305  28.361   5.117   6.150
 9293POPC   GL262306  28.507   5.082   6.150
 9293POPC   C1A62307  28.324   5.086   6.450
 9293POPC   D2A62308  28.360   5.087   6.750
 9293POPC   C3A62309  28.348   5.058   7.050
 9293POPC   C4A62310  28.370   5.080   7.350
 9293POPC   C1B62311  28.658   5.015   6.450
 9293POPC   C2B62312  28.630   5.062   6.750
 9293POPC   C3B62313  28.646   5.019   7.050
 9293POPC   C4B62314  28.594   5.076   7.350
 9294POPC   NC362315  19.878  44.664   5.550
 9294POPC   PO462316  19.839  44.669   5.850
 9294POPC   GL162317  19.857  44.704   6.150
 9294POPC   GL262318  19.733  44.568   6.150
 9294POPC   C1A62319  19.874  44.666   6.450
 9294POPC   D2A62320  19.818  44.625   6.750
 9294POPC   C3A62321  19.860  44.659   7.050
 9294POPC   C4A62322  19.853  44.619   7.350
 9294POPC   C1B62323  19.634  44.521   6.450
 9294POPC   C2B62324  19.618  44.473   6.750
 9294POPC   C3B62325  19.622  44.482   7.050
 9294POPC   C4B62326  19.623  44.449   7.350
 9295POPC   NC362327  33.801   2.020   5.550
 9295POPC   PO462328  33.837   1.996   5.850
 9295POPC   GL162329  33.818   1.994   6.150
 9295POPC   GL262330  33.639   2.061   6.150
 9295POPC   C1A62331  33.763   1.961   6.450
 9295POPC   D2A62332  33.788   2.013   6.750
 9295POPC   C3A62333  33.764   1.982   7.050
 9295POPC   C4A62334  33.836   2.003   7.350
 9295POPC   C1B62335  33.582   2.082   6.450
 9295POPC   C2B62336  33.570   2.030   6.750
 9295POPC   C3B62337  33.593   2.077   7.050
 9295POPC   C4B62338  33.564   2.043   7.350
 9296POPC   NC362339  30.702  28.336   5.550
 9296POPC   PO462340  30.678  28.372   5.850
 9296POPC   GL162341  30.709  28.375   6.150
 9296POPC   GL262342  30.696  28.263   6.150
 9296POPC   C1A62343  30.677  28.393   6.450
 9296POPC   D2A62344  30.658  28.400   6.750
 9296POPC   C3A62345  30.714  28.378   7.050
 9296POPC   C4A62346  30.699  28.371   7.350
 9296POPC   C1B62347  30.701  28.134   6.450
 9296POPC   C2B62348  30.657  28.128   6.750
 9296POPC   C3B62349  30.676  28.129   7.050
 9296POPC   C4B62350  30.623  28.087   7.350
 9297POPC   NC362351  26.841  39.227   5.550
 9297POPC   PO462352  26.839  39.235   5.850
 9297POPC   GL162353  26.829  39.192   6.150
 9297POPC   GL262354  26.706  39.223   6.150
 9297POPC   C1A62355  26.824  39.280   6.450
 9297POPC   D2A62356  26.839  39.194   6.750
 9297POPC   C3A62357  26.799  39.231   7.050
 9297POPC   C4A62358  26.771  39.263   7.350
 9297POPC   C1B62359  26.620  39.311   6.450
 9297POPC   C2B62360  26.533  39.246   6.750
 9297POPC   C3B62361  26.545  39.251   7.050
 9297POPC   C4B62362  26.584  39.332   7.350
 9298POPC   NC362363  26.821  27.547   5.550
 9298POPC   PO462364  26.824  27.626   5.850
 9298POPC   GL162365  26.843  27.570   6.150
 9298POPC   GL262366  26.882  27.527   6.150
 9298POPC   C1A62367  26.806  27.640   6.450
 9298POPC   D2A62368  26.831  27.610   6.750
 9298POPC   C3A62369  26.786  27.557   7.050
 9298POPC   C4A62370  26.790  27.586   7.350
 9298POPC   C1B62371  26.970  27.416   6.450
 9298POPC   C2B62372  26.904  27.378   6.750
 9298POPC   C3B62373  26.914  27.352   7.050
 9298POPC   C4B62374  26.955  27.410   7.350
 9299POPC   NC362375  33.018   5.894   5.550
 9299POPC   PO462376  33.034   5.890   5.850
 9299POPC   GL162377  33.053   5.913   6.150
 9299POPC   GL262378  33.039   5.789   6.150
 9299POPC   C1A62379  33.004   5.891   6.450
 9299POPC   D2A62380  32.997   5.912   6.750
 9299POPC   C3A62381  33.007   5.894   7.050
 9299POPC   C4A62382  33.027   5.836   7.350
 9299POPC   C1B62383  33.045   5.655   6.450
 9299POPC   C2B62384  33.048   5.642   6.750
 9299POPC   C3B62385  33.101   5.660   7.050
 9299POPC   C4B62386  33.072   5.625   7.350
 9300POPC   NC362387  40.737  15.910   5.550
 9300POPC   PO462388  40.780  15.924   5.850
 9300POPC   GL162389  40.751  15.955   6.150
 9300POPC   GL262390  40.778  16.075   6.150
 9300POPC   C1A62391  40.765  15.917   6.450
 9300POPC   D2A62392  40.747  15.905   6.750
 9300POPC   C3A62393  40.799  15.907   7.050
 9300POPC   C4A62394  40.824  15.975   7.350
 9300POPC   C1B62395  40.787  16.250   6.450
 9300POPC   C2B62396  40.765  16.238   6.750
 9300POPC   C3B62397  40.737  16.157   7.050
 9300POPC   C4B62398  40.711  16.170   7.350
 9301POPC   NC362399  26.082  19.793   5.550
 9301POPC   PO462400  26.046  19.853   5.850
 9301POPC   GL162401  26.059  19.877   6.150
 9301POPC   GL262402  25.989  19.922   6.150
 9301POPC   C1A62403  26.076  19.869   6.450
 9301POPC   D2A62404  26.053  19.800   6.750
 9301POPC   C3A62405  26.004  19.810   7.050
 9301POPC   C4A62406  26.010  19.851   7.350
 9301POPC   C1B62407  25.889  20.028   6.450
 9301POPC   C2B62408  25.928  20.072   6.750
 9301POPC   C3B62409  25.855  20.011   7.050
 9301POPC   C4B62410  25.911  20.034   7.350
 9302POPC   NC362411   8.926  35.365   5.550
 9302POPC   PO462412   8.934  35.360   5.850
 9302POPC   GL162413   8.953  35.328   6.150
 9302POPC   GL262414   9.007  35.487   6.150
 9302POPC   C1A62415   8.989  35.401   6.450
 9302POPC   D2A62416   9.006  35.397   6.750
 9302POPC   C3A62417   8.937  35.381   7.050
 9302POPC   C4A62418   8.951  35.338   7.350
 9302POPC   C1B62419   8.953  35.583   6.450
 9302POPC   C2B62420   8.934  35.629   6.750
 9302POPC   C3B62421   8.967  35.603   7.050
 9302POPC   C4B62422   9.000  35.628   7.350
 9303POPC   NC362423   0.438  29.153   5.550
 9303POPC   PO462424   0.393  29.141   5.850
 9303POPC   GL162425   0.445  29.102   6.150
 9303POPC   GL262426   0.359  29.068   6.150
 9303POPC   C1A62427   0.449  29.192   6.450
 9303POPC   D2A62428   0.461  29.147   6.750
 9303POPC   C3A62429   0.405  29.155   7.050
 9303POPC   C4A62430   0.451  29.117   7.350
 9303POPC   C1B62431   0.399  28.945   6.450
 9303POPC   C2B62432   0.384  28.879   6.750
 9303POPC   C3B62433   0.324  28.892   7.050
 9303POPC   C4B62434   0.395  28.896   7.350
 9304POPC   NC362435  19.817  43.867   5.550
 9304POPC   PO462436  19.789  43.928   5.850
 9304POPC   GL162437  19.819  43.900   6.150
 9304POPC   GL262438  19.833  43.754   6.150
 9304POPC   C1A62439  19.842  43.908   6.450
 9304POPC   D2A62440  19.843  43.863   6.750
 9304POPC   C3A62441  19.815  43.853   7.050
 9304POPC   C4A62442  19.851  43.849   7.350
 9304POPC   C1B62443  19.790  43.602   6.450
 9304POPC   C2B62444  19.851  43.666   6.750
 9304POPC   C3B62445  19.856  43.666   7.050
 9304POPC   C4B62446  19.799  43.612   7.350
 9305POPC   NC362447  39.972  31.509   5.550
 9305POPC   PO462448  40.044  31.502   5.850
 9305POPC   GL162449  40.039  31.501   6.150
 9305POPC   GL262450  39.923  31.406   6.150
 9305POPC   C1A62451  40.011  31.490   6.450
 9305POPC   D2A62452  40.001  31.424   6.750
 9305POPC   C3A62453  39.960  31.519   7.050
 9305POPC   C4A62454  40.021  31.493   7.350
 9305POPC   C1B62455  39.903  31.255   6.450
 9305POPC   C2B62456  39.846  31.270   6.750
 9305POPC   C3B62457  39.910  31.254   7.050
 9305POPC   C4B62458  39.908  31.280   7.350
 9306POPC   NC362459  44.646  20.632   5.550
 9306POPC   PO462460  44.624  20.599   5.850
 9306POPC   GL162461  44.647  20.629   6.150
 9306POPC   GL262462  44.647  20.745   6.150
 9306POPC   C1A62463  44.646  20.651   6.450
 9306POPC   D2A62464  44.633  20.597   6.750
 9306POPC   C3A62465  44.700  20.651   7.050
 9306POPC   C4A62466  44.671  20.617   7.350
 9306POPC   C1B62467  44.731  20.825   6.450
 9306POPC   C2B62468  44.653  20.882   6.750
 9306POPC   C3B62469  44.671  20.881   7.050
 9306POPC   C4B62470  44.677  20.810   7.350
 9307POPC   NC362471  23.692   5.121   5.550
 9307POPC   PO462472  23.711   5.142   5.850
 9307POPC   GL162473  23.736   5.061   6.150
 9307POPC   GL262474  23.805   4.987   6.150
 9307POPC   C1A62475  23.753   5.098   6.450
 9307POPC   D2A62476  23.747   5.128   6.750
 9307POPC   C3A62477  23.710   5.079   7.050
 9307POPC   C4A62478  23.669   5.047   7.350
 9307POPC   C1B62479  23.975   4.961   6.450
 9307POPC   C2B62480  23.970   4.994   6.750
 9307POPC   C3B62481  23.912   4.950   7.050
 9307POPC   C4B62482  23.950   4.957   7.350
 9308POPC   NC362483   1.964  26.806   5.550
 9308POPC   PO462484   1.999  26.839   5.850
 9308POPC   GL162485   1.999  26.835   6.150
 9308POPC   GL262486   2.032  26.663   6.150
 9308POPC   C1A62487   1.999  26.798   6.450
 9308POPC   D2A62488   1.977  26.861   6.750
 9308POPC   C3A62489   1.974  26.862   7.050
 9308POPC   C4A62490   2.003  26.844   7.350
 9308POPC   C1B62491   1.942  26.569   6.450
 9308POPC   C2B62492   1.973  26.542   6.750
 9308POPC   C3B62493   1.994  26.568   7.050
 9308POPC   C4B62494   1.983  26.583   7.350
 9309POPC   NC362495  22.113  21.372   5.550
 9309POPC   PO462496  22.195  21.366   5.850
 9309POPC   GL162497  22.185  21.425   6.150
 9309POPC   GL262498  22.075  21.491   6.150
 9309POPC   C1A62499  22.166  21.431   6.450
 9309POPC   D2A62500  22.157  21.410   6.750
 9309POPC   C3A62501  22.122  21.366   7.050
 9309POPC   C4A62502  22.120  21.427   7.350
 9309POPC   C1B62503  22.026  21.606   6.450
 9309POPC   C2B62504  22.053  21.549   6.750
 9309POPC   C3B62505  22.020  21.576   7.050
 9309POPC   C4B62506  22.054  21.554   7.350
 9310POPC   NC362507  25.232  15.191   5.550
 9310POPC   PO462508  25.228  15.154   5.850
 9310POPC   GL162509  25.247  15.163   6.150
 9310POPC   GL262510  25.201  15.291   6.150
 9310POPC   C1A62511  25.227  15.148   6.450
 9310POPC   D2A62512  25.228  15.221   6.750
 9310POPC   C3A62513  25.269  15.224   7.050
 9310POPC   C4A62514  25.230  15.191   7.350
 9310POPC   C1B62515  25.064  15.293   6.450
 9310POPC   C2B62516  25.045  15.289   6.750
 9310POPC   C3B62517  25.093  15.312   7.050
 9310POPC   C4B62518  25.060  15.319   7.350
 9311POPC   NC362519  29.921  34.571   5.550
 9311POPC   PO462520  29.965  34.543   5.850
 9311POPC   GL162521  29.952  34.557   6.150
 9311POPC   GL262522  30.032  34.546   6.150
 9311POPC   C1A62523  29.966  34.532   6.450
 9311POPC   D2A62524  29.927  34.624   6.750
 9311POPC   C3A62525  29.965  34.563   7.050
 9311POPC   C4A62526  29.918  34.556   7.350
 9311POPC   C1B62527  30.110  34.481   6.450
 9311POPC   C2B62528  30.174  34.478   6.750
 9311POPC   C3B62529  30.097  34.450   7.050
 9311POPC   C4B62530  30.110  34.442   7.350
 9312POPC   NC362531  29.104   9.012   5.550
 9312POPC   PO462532  29.171   9.014   5.850
 9312POPC   GL162533  29.191   8.935   6.150
 9312POPC   GL262534  29.140   8.812   6.150
 9312POPC   C1A62535  29.153   8.979   6.450
 9312POPC   D2A62536  29.141   9.020   6.750
 9312POPC   C3A62537  29.192   9.016   7.050
 9312POPC   C4A62538  29.122   8.962   7.350
 9312POPC   C1B62539  29.157   8.741   6.450
 9312POPC   C2B62540  29.187   8.757   6.750
 9312POPC   C3B62541  29.210   8.732   7.050
 9312POPC   C4B62542  29.135   8.728   7.350
 9313POPC   NC362543  21.373   1.218   5.550
 9313POPC   PO462544  21.421   1.255   5.850
 9313POPC   GL162545  21.410   1.187   6.150
 9313POPC   GL262546  21.453   1.340   6.150
 9313POPC   C1A62547  21.345   1.171   6.450
 9313POPC   D2A62548  21.366   1.222   6.750
 9313POPC   C3A62549  21.393   1.199   7.050
 9313POPC   C4A62550  21.402   1.215   7.350
 9313POPC   C1B62551  21.534   1.399   6.450
 9313POPC   C2B62552  21.493   1.413   6.750
 9313POPC   C3B62553  21.556   1.398   7.050
 9313POPC   C4B62554  21.485   1.460   7.350
 9314POPC   NC362555   2.791  22.132   5.550
 9314POPC   PO462556   2.752  22.135   5.850
 9314POPC   GL162557   2.751  22.131   6.150
 9314POPC   GL262558   2.826  22.290   6.150
 9314POPC   C1A62559   2.737  22.148   6.450
 9314POPC   D2A62560   2.776  22.118   6.750
 9314POPC   C3A62561   2.808  22.132   7.050
 9314POPC   C4A62562   2.768  22.155   7.350
 9314POPC   C1B62563   2.949  22.298   6.450
 9314POPC   C2B62564   2.902  22.308   6.750
 9314POPC   C3B62565   2.956  22.354   7.050
 9314POPC   C4B62566   2.957  22.320   7.350
 9315POPC   NC362567  37.694  37.658   5.550
 9315POPC   PO462568  37.650  37.658   5.850
 9315POPC   GL162569  37.716  37.694   6.150
 9315POPC   GL262570  37.725  37.591   6.150
 9315POPC   C1A62571  37.714  37.727   6.450
 9315POPC   D2A62572  37.699  37.644   6.750
 9315POPC   C3A62573  37.715  37.696   7.050
 9315POPC   C4A62574  37.649  37.727   7.350
 9315POPC   C1B62575  37.800  37.443   6.450
 9315POPC   C2B62576  37.786  37.520   6.750
 9315POPC   C3B62577  37.813  37.438   7.050
 9315POPC   C4B62578  37.798  37.460   7.350
 9316POPC   NC362579  39.960  19.090   5.550
 9316POPC   PO462580  39.963  19.013   5.850
 9316POPC   GL162581  39.969  19.036   6.150
 9316POPC   GL262582  39.937  18.969   6.150
 9316POPC   C1A62583  40.003  19.058   6.450
 9316POPC   D2A62584  40.020  19.028   6.750
 9316POPC   C3A62585  40.027  19.072   7.050
 9316POPC   C4A62586  39.982  19.036   7.350
 9316POPC   C1B62587  39.911  18.848   6.450
 9316POPC   C2B62588  39.970  18.821   6.750
 9316POPC   C3B62589  39.962  18.802   7.050
 9316POPC   C4B62590  40.003  18.828   7.350
 9317POPC   NC362591  42.367  12.874   5.550
 9317POPC   PO462592  42.336  12.898   5.850
 9317POPC   GL162593  42.340  12.812   6.150
 9317POPC   GL262594  42.242  12.762   6.150
 9317POPC   C1A62595  42.315  12.851   6.450
 9317POPC   D2A62596  42.324  12.896   6.750
 9317POPC   C3A62597  42.328  12.879   7.050
 9317POPC   C4A62598  42.289  12.879   7.350
 9317POPC   C1B62599  42.183  12.666   6.450
 9317POPC   C2B62600  42.121  12.705   6.750
 9317POPC   C3B62601  42.171  12.640   7.050
 9317POPC   C4B62602  42.106  12.691   7.350
 9318POPC   NC362603  12.829  32.230   5.550
 9318POPC   PO462604  12.834  32.200   5.850
 9318POPC   GL162605  12.893  32.229   6.150
 9318POPC   GL262606  12.927  32.130   6.150
 9318POPC   C1A62607  12.896  32.203   6.450
 9318POPC   D2A62608  12.805  32.262   6.750
 9318POPC   C3A62609  12.896  32.263   7.050
 9318POPC   C4A62610  12.899  32.214   7.350
 9318POPC   C1B62611  13.062  32.083   6.450
 9318POPC   C2B62612  13.013  32.078   6.750
 9318POPC   C3B62613  13.016  32.095   7.050
 9318POPC   C4B62614  13.018  32.136   7.350
 9319POPC   NC362615   4.300  41.593   5.550
 9319POPC   PO462616   4.303  41.566   5.850
 9319POPC   GL162617   4.355  41.537   6.150
 9319POPC   GL262618   4.344  41.436   6.150
 9319POPC   C1A62619   4.350  41.604   6.450
 9319POPC   D2A62620   4.362  41.511   6.750
 9319POPC   C3A62621   4.319  41.600   7.050
 9319POPC   C4A62622   4.332  41.521   7.350
 9319POPC   C1B62623   4.431  41.329   6.450
 9319POPC   C2B62624   4.400  41.318   6.750
 9319POPC   C3B62625   4.360  41.346   7.050
 9319POPC   C4B62626   4.381  41.328   7.350
 9320POPC   NC362627  26.057   2.036   5.550
 9320POPC   PO462628  26.028   1.965   5.850
 9320POPC   GL162629  26.055   2.020   6.150
 9320POPC   GL262630  26.071   2.143   6.150
 9320POPC   C1A62631  26.009   1.959   6.450
 9320POPC   D2A62632  26.067   1.996   6.750
 9320POPC   C3A62633  26.066   1.957   7.050
 9320POPC   C4A62634  26.072   2.011   7.350
 9320POPC   C1B62635  26.199   2.234   6.450
 9320POPC   C2B62636  26.141   2.180   6.750
 9320POPC   C3B62637  26.147   2.217   7.050
 9320POPC   C4B62638  26.172   2.231   7.350
 9321POPC   NC362639   5.855  20.610   5.550
 9321POPC   PO462640   5.871  20.635   5.850
 9321POPC   GL162641   5.875  20.648   6.150
 9321POPC   GL262642   5.979  20.713   6.150
 9321POPC   C1A62643   5.865  20.619   6.450
 9321POPC   D2A62644   5.852  20.597   6.750
 9321POPC   C3A62645   5.834  20.610   7.050
 9321POPC   C4A62646   5.864  20.617   7.350
 9321POPC   C1B62647   6.109  20.684   6.450
 9321POPC   C2B62648   6.091  20.726   6.750
 9321POPC   C3B62649   6.119  20.741   7.050
 9321POPC   C4B62650   6.121  20.747   7.350
 9322POPC   NC362651  27.626  43.884   5.550
 9322POPC   PO462652  27.578  43.873   5.850
 9322POPC   GL162653  27.575  43.844   6.150
 9322POPC   GL262654  27.642  44.023   6.150
 9322POPC   C1A62655  27.581  43.869   6.450
 9322POPC   D2A62656  27.634  43.839   6.750
 9322POPC   C3A62657  27.624  43.856   7.050
 9322POPC   C4A62658  27.600  43.896   7.350
 9322POPC   C1B62659  27.644  44.143   6.450
 9322POPC   C2B62660  27.553  44.179   6.750
 9322POPC   C3B62661  27.640  44.176   7.050
 9322POPC   C4B62662  27.628  44.178   7.350
 9323POPC   NC362663  14.419  10.479   5.550
 9323POPC   PO462664  14.442  10.557   5.850
 9323POPC   GL162665  14.385  10.571   6.150
 9323POPC   GL262666  14.552  10.486   6.150
 9323POPC   C1A62667  14.365  10.547   6.450
 9323POPC   D2A62668  14.426  10.561   6.750
 9323POPC   C3A62669  14.370  10.570   7.050
 9323POPC   C4A62670  14.446  10.501   7.350
 9323POPC   C1B62671  14.662  10.416   6.450
 9323POPC   C2B62672  14.611  10.418   6.750
 9323POPC   C3B62673  14.630  10.458   7.050
 9323POPC   C4B62674  14.659  10.465   7.350
 9324POPC   NC362675  43.138   5.829   5.550
 9324POPC   PO462676  43.094   5.904   5.850
 9324POPC   GL162677  43.096   5.828   6.150
 9324POPC   GL262678  43.170   5.799   6.150
 9324POPC   C1A62679  43.110   5.822   6.450
 9324POPC   D2A62680  43.135   5.894   6.750
 9324POPC   C3A62681  43.114   5.867   7.050
 9324POPC   C4A62682  43.156   5.869   7.350
 9324POPC   C1B62683  43.218   5.635   6.450
 9324POPC   C2B62684  43.168   5.655   6.750
 9324POPC   C3B62685  43.141   5.656   7.050
 9324POPC   C4B62686  43.139   5.669   7.350
 9325POPC   NC362687  22.182  43.123   5.550
 9325POPC   PO462688  22.151  43.131   5.850
 9325POPC   GL162689  22.174  43.151   6.150
 9325POPC   GL262690  22.220  43.197   6.150
 9325POPC   C1A62691  22.120  43.133   6.450
 9325POPC   D2A62692  22.161  43.116   6.750
 9325POPC   C3A62693  22.182  43.145   7.050
 9325POPC   C4A62694  22.119  43.117   7.350
 9325POPC   C1B62695  22.252  43.382   6.450
 9325POPC   C2B62696  22.259  43.298   6.750
 9325POPC   C3B62697  22.291  43.384   7.050
 9325POPC   C4B62698  22.278  43.343   7.350
 9326POPC   NC362699  36.904  43.133   5.550
 9326POPC   PO462700  36.907  43.101   5.850
 9326POPC   GL162701  36.861  43.123   6.150
 9326POPC   GL262702  36.961  43.003   6.150
 9326POPC   C1A62703  36.880  43.114   6.450
 9326POPC   D2A62704  36.859  43.085   6.750
 9326POPC   C3A62705  36.939  43.160   7.050
 9326POPC   C4A62706  36.936  43.114   7.350
 9326POPC   C1B62707  37.027  42.915   6.450
 9326POPC   C2B62708  36.976  42.926   6.750
 9326POPC   C3B62709  37.007  42.897   7.050
 9326POPC   C4B62710  36.966  42.835   7.350
 9327POPC   NC362711  18.284  41.601   5.550
 9327POPC   PO462712  18.237  41.540   5.850
 9327POPC   GL162713  18.328  41.544   6.150
 9327POPC   GL262714  18.253  41.701   6.150
 9327POPC   C1A62715  18.297  41.567   6.450
 9327POPC   D2A62716  18.283  41.546   6.750
 9327POPC   C3A62717  18.262  41.511   7.050
 9327POPC   C4A62718  18.281  41.528   7.350
 9327POPC   C1B62719  18.231  41.774   6.450
 9327POPC   C2B62720  18.204  41.786   6.750
 9327POPC   C3B62721  18.213  41.844   7.050
 9327POPC   C4B62722  18.193  41.837   7.350
 9328POPC   NC362723  32.994  27.585   5.550
 9328POPC   PO462724  33.074  27.619   5.850
 9328POPC   GL162725  33.049  27.612   6.150
 9328POPC   GL262726  32.961  27.504   6.150
 9328POPC   C1A62727  33.008  27.630   6.450
 9328POPC   D2A62728  33.049  27.567   6.750
 9328POPC   C3A62729  33.040  27.544   7.050
 9328POPC   C4A62730  33.045  27.567   7.350
 9328POPC   C1B62731  32.823  27.442   6.450
 9328POPC   C2B62732  32.830  27.441   6.750
 9328POPC   C3B62733  32.817  27.439   7.050
 9328POPC   C4B62734  32.789  27.511   7.350
 9329POPC   NC362735  43.840  15.165   5.550
 9329POPC   PO462736  43.893  15.183   5.850
 9329POPC   GL162737  43.935  15.165   6.150
 9329POPC   GL262738  43.939  15.053   6.150
 9329POPC   C1A62739  43.864  15.215   6.450
 9329POPC   D2A62740  43.856  15.186   6.750
 9329POPC   C3A62741  43.884  15.227   7.050
 9329POPC   C4A62742  43.922  15.179   7.350
 9329POPC   C1B62743  44.028  14.975   6.450
 9329POPC   C2B62744  44.031  14.922   6.750
 9329POPC   C3B62745  43.972  14.950   7.050
 9329POPC   C4B62746  43.992  14.988   7.350
 9330POPC   NC362747  12.861  38.481   5.550
 9330POPC   PO462748  12.871  38.472   5.850
 9330POPC   GL162749  12.859  38.495   6.150
 9330POPC   GL262750  12.953  38.507   6.150
 9330POPC   C1A62751  12.847  38.460   6.450
 9330POPC   D2A62752  12.803  38.487   6.750
 9330POPC   C3A62753  12.885  38.409   7.050
 9330POPC   C4A62754  12.820  38.505   7.350
 9330POPC   C1B62755  13.069  38.555   6.450
 9330POPC   C2B62756  13.068  38.534   6.750
 9330POPC   C3B62757  13.137  38.515   7.050
 9330POPC   C4B62758  13.095  38.558   7.350
 9331POPC   NC362759   2.779  32.227   5.550
 9331POPC   PO462760   2.803  32.258   5.850
 9331POPC   GL162761   2.717  32.266   6.150
 9331POPC   GL262762   2.842  32.285   6.150
 9331POPC   C1A62763   2.737  32.243   6.450
 9331POPC   D2A62764   2.736  32.285   6.750
 9331POPC   C3A62765   2.771  32.273   7.050
 9331POPC   C4A62766   2.742  32.285   7.350
 9331POPC   C1B62767   3.017  32.376   6.450
 9331POPC   C2B62768   2.950  32.310   6.750
 9331POPC   C3B62769   2.977  32.369   7.050
 9331POPC   C4B62770   3.030  32.376   7.350
 9332POPC   NC362771  12.055   2.745   5.550
 9332POPC   PO462772  12.106   2.775   5.850
 9332POPC   GL162773  12.117   2.729   6.150
 9332POPC   GL262774  11.946   2.776   6.150
 9332POPC   C1A62775  12.114   2.766   6.450
 9332POPC   D2A62776  12.110   2.764   6.750
 9332POPC   C3A62777  12.052   2.789   7.050
 9332POPC   C4A62778  12.066   2.813   7.350
 9332POPC   C1B62779  11.810   2.781   6.450
 9332POPC   C2B62780  11.805   2.730   6.750
 9332POPC   C3B62781  11.807   2.752   7.050
 9332POPC   C4B62782  11.800   2.718   7.350
 9333POPC   NC362783   8.191  40.002   5.550
 9333POPC   PO462784   8.217  40.040   5.850
 9333POPC   GL162785   8.171  39.985   6.150
 9333POPC   GL262786   8.136  40.104   6.150
 9333POPC   C1A62787   8.234  39.969   6.450
 9333POPC   D2A62788   8.245  39.974   6.750
 9333POPC   C3A62789   8.213  39.988   7.050
 9333POPC   C4A62790   8.219  39.968   7.350
 9333POPC   C1B62791   8.183  40.293   6.450
 9333POPC   C2B62792   8.132  40.209   6.750
 9333POPC   C3B62793   8.171  40.236   7.050
 9333POPC   C4B62794   8.189  40.291   7.350
 9334POPC   NC362795  16.731  22.947   5.550
 9334POPC   PO462796  16.711  22.958   5.850
 9334POPC   GL162797  16.769  22.924   6.150
 9334POPC   GL262798  16.637  23.005   6.150
 9334POPC   C1A62799  16.722  22.971   6.450
 9334POPC   D2A62800  16.772  22.899   6.750
 9334POPC   C3A62801  16.769  22.893   7.050
 9334POPC   C4A62802  16.766  22.895   7.350
 9334POPC   C1B62803  16.492  23.001   6.450
 9334POPC   C2B62804  16.485  23.062   6.750
 9334POPC   C3B62805  16.510  23.022   7.050
 9334POPC   C4B62806  16.528  23.054   7.350
 9335POPC   NC362807  11.280  39.235   5.550
 9335POPC   PO462808  11.285  39.277   5.850
 9335POPC   GL162809  11.279  39.212   6.150
 9335POPC   GL262810  11.354  39.156   6.150
 9335POPC   C1A62811  11.349  39.260   6.450
 9335POPC   D2A62812  11.289  39.225   6.750
 9335POPC   C3A62813  11.303  39.272   7.050
 9335POPC   C4A62814  11.273  39.254   7.350
 9335POPC   C1B62815  11.367  38.973   6.450
 9335POPC   C2B62816  11.339  38.942   6.750
 9335POPC   C3B62817  11.344  38.989   7.050
 9335POPC   C4B62818  11.327  38.995   7.350
 9336POPC   NC362819  12.085  40.820   5.550
 9336POPC   PO462820  12.097  40.807   5.850
 9336POPC   GL162821  12.033  40.825   6.150
 9336POPC   GL262822  12.129  40.701   6.150
 9336POPC   C1A62823  12.044  40.804   6.450
 9336POPC   D2A62824  12.107  40.819   6.750
 9336POPC   C3A62825  12.086  40.743   7.050
 9336POPC   C4A62826  12.111  40.764   7.350
 9336POPC   C1B62827  12.179  40.520   6.450
 9336POPC   C2B62828  12.142  40.516   6.750
 9336POPC   C3B62829  12.193  40.565   7.050
 9336POPC   C4B62830  12.098  40.567   7.350
 9337POPC   NC362831  31.459  26.065   5.550
 9337POPC   PO462832  31.423  26.076   5.850
 9337POPC   GL162833  31.504  26.044   6.150
 9337POPC   GL262834  31.479  25.903   6.150
 9337POPC   C1A62835  31.488  26.071   6.450
 9337POPC   D2A62836  31.438  26.075   6.750
 9337POPC   C3A62837  31.459  26.074   7.050
 9337POPC   C4A62838  31.465  26.053   7.350
 9337POPC   C1B62839  31.510  25.836   6.450
 9337POPC   C2B62840  31.577  25.823   6.750
 9337POPC   C3B62841  31.487  25.785   7.050
 9337POPC   C4B62842  31.498  25.824   7.350
 9338POPC   NC362843  13.593  32.265   5.550
 9338POPC   PO462844  13.605  32.214   5.850
 9338POPC   GL162845  13.582  32.267   6.150
 9338POPC   GL262846  13.660  32.368   6.150
 9338POPC   C1A62847  13.668  32.225   6.450
 9338POPC   D2A62848  13.579  32.216   6.750
 9338POPC   C3A62849  13.651  32.235   7.050
 9338POPC   C4A62850  13.641  32.214   7.350
 9338POPC   C1B62851  13.580  32.455   6.450
 9338POPC   C2B62852  13.579  32.532   6.750
 9338POPC   C3B62853  13.561  32.535   7.050
 9338POPC   C4B62854  13.549  32.536   7.350
 9339POPC   NC362855  22.972   4.295   5.550
 9339POPC   PO462856  22.915   4.357   5.850
 9339POPC   GL162857  22.956   4.331   6.150
 9339POPC   GL262858  22.908   4.231   6.150
 9339POPC   C1A62859  22.985   4.285   6.450
 9339POPC   D2A62860  22.950   4.283   6.750
 9339POPC   C3A62861  22.976   4.287   7.050
 9339POPC   C4A62862  22.968   4.366   7.350
 9339POPC   C1B62863  22.944   4.035   6.450
 9339POPC   C2B62864  22.909   4.041   6.750
 9339POPC   C3B62865  22.911   4.118   7.050
 9339POPC   C4B62866  22.934   4.061   7.350
 9340POPC   NC362867  12.065  32.296   5.550
 9340POPC   PO462868  12.060  32.294   5.850
 9340POPC   GL162869  12.125  32.296   6.150
 9340POPC   GL262870  12.229  32.200   6.150
 9340POPC   C1A62871  12.100  32.207   6.450
 9340POPC   D2A62872  12.033  32.201   6.750
 9340POPC   C3A62873  12.042  32.275   7.050
 9340POPC   C4A62874  12.065  32.298   7.350
 9340POPC   C1B62875  12.354  32.151   6.450
 9340POPC   C2B62876  12.301  32.175   6.750
 9340POPC   C3B62877  12.298  32.147   7.050
 9340POPC   C4B62878  12.359  32.204   7.350
 9341POPC   NC362879   9.016  31.518   5.550
 9341POPC   PO462880   8.925  31.515   5.850
 9341POPC   GL162881   8.940  31.516   6.150
 9341POPC   GL262882   8.897  31.541   6.150
 9341POPC   C1A62883   8.999  31.502   6.450
 9341POPC   D2A62884   8.968  31.423   6.750
 9341POPC   C3A62885   8.941  31.476   7.050
 9341POPC   C4A62886   8.936  31.443   7.350
 9341POPC   C1B62887   8.864  31.692   6.450
 9341POPC   C2B62888   8.830  31.675   6.750
 9341POPC   C3B62889   8.914  31.702   7.050
 9341POPC   C4B62890   8.848  31.667   7.350
 9342POPC   NC362891   7.440   5.086   5.550
 9342POPC   PO462892   7.456   5.098   5.850
 9342POPC   GL162893   7.446   5.127   6.150
 9342POPC   GL262894   7.315   5.083   6.150
 9342POPC   C1A62895   7.420   5.076   6.450
 9342POPC   D2A62896   7.450   5.066   6.750
 9342POPC   C3A62897   7.450   5.116   7.050
 9342POPC   C4A62898   7.388   5.068   7.350
 9342POPC   C1B62899   7.147   5.086   6.450
 9342POPC   C2B62900   7.179   5.079   6.750
 9342POPC   C3B62901   7.160   5.035   7.050
 9342POPC   C4B62902   7.214   5.077   7.350
 9343POPC   NC362903  12.900  12.838   5.550
 9343POPC   PO462904  12.818  12.877   5.850
 9343POPC   GL162905  12.877  12.816   6.150
 9343POPC   GL262906  12.708  12.891   6.150
 9343POPC   C1A62907  12.827  12.848   6.450
 9343POPC   D2A62908  12.894  12.809   6.750
 9343POPC   C3A62909  12.850  12.859   7.050
 9343POPC   C4A62910  12.822  12.811   7.350
 9343POPC   C1B62911  12.555  12.835   6.450
 9343POPC   C2B62912  12.630  12.903   6.750
 9343POPC   C3B62913  12.562  12.867   7.050
 9343POPC   C4B62914  12.636  12.853   7.350
 9344POPC   NC362915  35.365  33.815   5.550
 9344POPC   PO462916  35.321  33.779   5.850
 9344POPC   GL162917  35.345  33.835   6.150
 9344POPC   GL262918  35.333  33.720   6.150
 9344POPC   C1A62919  35.354  33.834   6.450
 9344POPC   D2A62920  35.359  33.809   6.750
 9344POPC   C3A62921  35.379  33.830   7.050
 9344POPC   C4A62922  35.346  33.841   7.350
 9344POPC   C1B62923  35.266  33.544   6.450
 9344POPC   C2B62924  35.232  33.571   6.750
 9344POPC   C3B62925  35.260  33.562   7.050
 9344POPC   C4B62926  35.252  33.515   7.350
 9345POPC   NC362927  29.912  15.930   5.550
 9345POPC   PO462928  29.936  15.967   5.850
 9345POPC   GL162929  29.943  15.996   6.150
 9345POPC   GL262930  29.893  16.073   6.150
 9345POPC   C1A62931  29.959  15.915   6.450
 9345POPC   D2A62932  29.936  15.936   6.750
 9345POPC   C3A62933  29.933  15.979   7.050
 9345POPC   C4A62934  29.904  15.996   7.350
 9345POPC   C1B62935  29.746  16.147   6.450
 9345POPC   C2B62936  29.820  16.189   6.750
 9345POPC   C3B62937  29.740  16.144   7.050
 9345POPC   C4B62938  29.784  16.199   7.350
 9346POPC   NC362939  20.631  42.313   5.550
 9346POPC   PO462940  20.602  42.356   5.850
 9346POPC   GL162941  20.660  42.355   6.150
 9346POPC   GL262942  20.472  42.313   6.150
 9346POPC   C1A62943  20.655  42.288   6.450
 9346POPC   D2A62944  20.629  42.322   6.750
 9346POPC   C3A62945  20.659  42.297   7.050
 9346POPC   C4A62946  20.574  42.299   7.350
 9346POPC   C1B62947  20.396  42.301   6.450
 9346POPC   C2B62948  20.345  42.311   6.750
 9346POPC   C3B62949  20.401  42.263   7.050
 9346POPC   C4B62950  20.380  42.318   7.350
 9347POPC   NC362951  25.301  19.792   5.550
 9347POPC   PO462952  25.249  19.786   5.850
 9347POPC   GL162953  25.251  19.838   6.150
 9347POPC   GL262954  25.127  19.916   6.150
 9347POPC   C1A62955  25.285  19.833   6.450
 9347POPC   D2A62956  25.255  19.858   6.750
 9347POPC   C3A62957  25.221  19.803   7.050
 9347POPC   C4A62958  25.276  19.834   7.350
 9347POPC   C1B62959  25.061  19.939   6.450
 9347POPC   C2B62960  25.058  19.922   6.750
 9347POPC   C3B62961  25.035  19.985   7.050
 9347POPC   C4B62962  25.053  19.973   7.350
 9348POPC   NC362963  34.601  20.654   5.550
 9348POPC   PO462964  34.582  20.622   5.850
 9348POPC   GL162965  34.575  20.647   6.150
 9348POPC   GL262966  34.673  20.547   6.150
 9348POPC   C1A62967  34.582  20.605   6.450
 9348POPC   D2A62968  34.553  20.570   6.750
 9348POPC   C3A62969  34.574  20.576   7.050
 9348POPC   C4A62970  34.575  20.656   7.350
 9348POPC   C1B62971  34.658  20.438   6.450
 9348POPC   C2B62972  34.731  20.367   6.750
 9348POPC   C3B62973  34.663  20.409   7.050
 9348POPC   C4B62974  34.702  20.427   7.350
 9349POPC   NC362975  42.352   0.451   5.550
 9349POPC   PO462976  42.348   0.481   5.850
 9349POPC   GL162977  42.369   0.424   6.150
 9349POPC   GL262978  42.310   0.359   6.150
 9349POPC   C1A62979  42.303   0.401   6.450
 9349POPC   D2A62980  42.293   0.388   6.750
 9349POPC   C3A62981  42.345   0.485   7.050
 9349POPC   C4A62982  42.371   0.451   7.350
 9349POPC   C1B62983  42.282   0.252   6.450
 9349POPC   C2B62984  42.244   0.157   6.750
 9349POPC   C3B62985  42.206   0.252   7.050
 9349POPC   C4B62986  42.281   0.257   7.350
 9350POPC   NC362987   3.565   2.796   5.550
 9350POPC   PO462988   3.539   2.743   5.850
 9350POPC   GL162989   3.567   2.721   6.150
 9350POPC   GL262990   3.368   2.745   6.150
 9350POPC   C1A62991   3.548   2.798   6.450
 9350POPC   D2A62992   3.515   2.782   6.750
 9350POPC   C3A62993   3.550   2.731   7.050
 9350POPC   C4A62994   3.528   2.723   7.350
 9350POPC   C1B62995   3.328   2.722   6.450
 9350POPC   C2B62996   3.286   2.759   6.750
 9350POPC   C3B62997   3.334   2.705   7.050
 9350POPC   C4B62998   3.288   2.734   7.350
 9351POPC   NC362999  23.666  22.166   5.550
 9351POPC   PO463000  23.688  22.144   5.850
 9351POPC   GL163001  23.758  22.159   6.150
 9351POPC   GL263002  23.746  22.056   6.150
 9351POPC   C1A63003  23.729  22.144   6.450
 9351POPC   D2A63004  23.759  22.114   6.750
 9351POPC   C3A63005  23.753  22.139   7.050
 9351POPC   C4A63006  23.741  22.182   7.350
 9351POPC   C1B63007  23.731  21.879   6.450
 9351POPC   C2B63008  23.712  21.947   6.750
 9351POPC   C3B63009  23.778  21.924   7.050
 9351POPC   C4B63010  23.795  21.889   7.350
 9352POPC   NC363011  21.393  23.708   5.550
 9352POPC   PO463012  21.339  23.742   5.850
 9352POPC   GL163013  21.385  23.740   6.150
 9352POPC   GL263014  21.350  23.631   6.150
 9352POPC   C1A63015  21.393  23.755   6.450
 9352POPC   D2A63016  21.391  23.720   6.750
 9352POPC   C3A63017  21.360  23.756   7.050
 9352POPC   C4A63018  21.435  23.733   7.350
 9352POPC   C1B63019  21.408  23.485   6.450
 9352POPC   C2B63020  21.435  23.417   6.750
 9352POPC   C3B63021  21.407  23.443   7.050
 9352POPC   C4B63022  21.445  23.464   7.350
 9353POPC   NC363023  15.975  22.974   5.550
 9353POPC   PO463024  16.001  22.984   5.850
 9353POPC   GL163025  15.974  22.955   6.150
 9353POPC   GL263026  16.033  23.029   6.150
 9353POPC   C1A63027  16.004  22.910   6.450
 9353POPC   D2A63028  15.930  22.915   6.750
 9353POPC   C3A63029  15.956  22.942   7.050
 9353POPC   C4A63030  15.957  22.952   7.350
 9353POPC   C1B63031  16.117  23.098   6.450
 9353POPC   C2B63032  16.076  23.178   6.750
 9353POPC   C3B63033  16.117  23.136   7.050
 9353POPC   C4B63034  16.140  23.176   7.350
 9354POPC   NC363035  36.949   8.930   5.550
 9354POPC   PO463036  36.914   8.968   5.850
 9354POPC   GL163037  36.942   8.983   6.150
 9354POPC   GL263038  37.014   9.067   6.150
 9354POPC   C1A63039  36.882   8.956   6.450
 9354POPC   D2A63040  36.903   8.974   6.750
 9354POPC   C3A63041  36.913   8.939   7.050
 9354POPC   C4A63042  36.879   8.979   7.350
 9354POPC   C1B63043  37.064   9.200   6.450
 9354POPC   C2B63044  37.118   9.162   6.750
 9354POPC   C3B63045  37.123   9.176   7.050
 9354POPC   C4B63046  37.076   9.116   7.350
 9355POPC   NC363047   7.400   8.242   5.550
 9355POPC   PO463048   7.408   8.187   5.850
 9355POPC   GL163049   7.420   8.166   6.150
 9355POPC   GL263050   7.280   8.178   6.150
 9355POPC   C1A63051   7.448   8.228   6.450
 9355POPC   D2A63052   7.440   8.225   6.750
 9355POPC   C3A63053   7.410   8.192   7.050
 9355POPC   C4A63054   7.448   8.197   7.350
 9355POPC   C1B63055   7.124   8.150   6.450
 9355POPC   C2B63056   7.206   8.176   6.750
 9355POPC   C3B63057   7.129   8.224   7.050
 9355POPC   C4B63058   7.145   8.236   7.350
 9356POPC   NC363059   2.726  10.557   5.550
 9356POPC   PO463060   2.723  10.545   5.850
 9356POPC   GL163061   2.736  10.517   6.150
 9356POPC   GL263062   2.686  10.554   6.150
 9356POPC   C1A63063   2.733  10.500   6.450
 9356POPC   D2A63064   2.752  10.541   6.750
 9356POPC   C3A63065   2.723  10.505   7.050
 9356POPC   C4A63066   2.776  10.565   7.350
 9356POPC   C1B63067   2.536  10.546   6.450
 9356POPC   C2B63068   2.534  10.567   6.750
 9356POPC   C3B63069   2.525  10.516   7.050
 9356POPC   C4B63070   2.556  10.543   7.350
 9357POPC   NC363071  34.551  40.034   5.550
 9357POPC   PO463072  34.605  40.002   5.850
 9357POPC   GL163073  34.577  39.991   6.150
 9357POPC   GL263074  34.432  40.032   6.150
 9357POPC   C1A63075  34.597  40.054   6.450
 9357POPC   D2A63076  34.601  39.987   6.750
 9357POPC   C3A63077  34.618  39.972   7.050
 9357POPC   C4A63078  34.607  40.007   7.350
 9357POPC   C1B63079  34.331  40.157   6.450
 9357POPC   C2B63080  34.326  40.198   6.750
 9357POPC   C3B63081  34.394  40.189   7.050
 9357POPC   C4B63082  34.348  40.152   7.350
 9358POPC   NC363083  26.086  13.665   5.550
 9358POPC   PO463084  26.061  13.653   5.850
 9358POPC   GL163085  26.073  13.670   6.150
 9358POPC   GL263086  26.166  13.719   6.150
 9358POPC   C1A63087  26.055  13.655   6.450
 9358POPC   D2A63088  26.038  13.674   6.750
 9358POPC   C3A63089  26.010  13.615   7.050
 9358POPC   C4A63090  26.087  13.634   7.350
 9358POPC   C1B63091  26.299  13.749   6.450
 9358POPC   C2B63092  26.217  13.724   6.750
 9358POPC   C3B63093  26.232  13.738   7.050
 9358POPC   C4B63094  26.225  13.751   7.350
 9359POPC   NC363095  43.841  11.279   5.550
 9359POPC   PO463096  43.841  11.325   5.850
 9359POPC   GL163097  43.908  11.349   6.150
 9359POPC   GL263098  43.810  11.348   6.150
 9359POPC   C1A63099  43.888  11.280   6.450
 9359POPC   D2A63100  43.898  11.296   6.750
 9359POPC   C3A63101  43.892  11.304   7.050
 9359POPC   C4A63102  43.882  11.293   7.350
 9359POPC   C1B63103  43.596  11.360   6.450
 9359POPC   C2B63104  43.658  11.368   6.750
 9359POPC   C3B63105  43.646  11.372   7.050
 9359POPC   C4B63106  43.684  11.344   7.350
 9360POPC   NC363107  35.393  39.967   5.550
 9360POPC   PO463108  35.342  40.056   5.850
 9360POPC   GL163109  35.345  39.975   6.150
 9360POPC   GL263110  35.203  39.989   6.150
 9360POPC   C1A63111  35.361  40.029   6.450
 9360POPC   D2A63112  35.305  39.983   6.750
 9360POPC   C3A63113  35.398  40.031   7.050
 9360POPC   C4A63114  35.399  40.040   7.350
 9360POPC   C1B63115  35.112  39.981   6.450
 9360POPC   C2B63116  35.106  39.991   6.750
 9360POPC   C3B63117  35.059  39.986   7.050
 9360POPC   C4B63118  35.093  39.938   7.350
 9361POPC   NC363119  38.453  33.067   5.550
 9361POPC   PO463120  38.439  33.004   5.850
 9361POPC   GL163121  38.419  32.986   6.150
 9361POPC   GL263122  38.441  33.124   6.150
 9361POPC   C1A63123  38.411  32.975   6.450
 9361POPC   D2A63124  38.413  33.070   6.750
 9361POPC   C3A63125  38.488  33.017   7.050
 9361POPC   C4A63126  38.502  32.977   7.350
 9361POPC   C1B63127  38.382  33.314   6.450
 9361POPC   C2B63128  38.471  33.263   6.750
 9361POPC   C3B63129  38.384  33.229   7.050
 9361POPC   C4B63130  38.459  33.275   7.350
 9362POPC   NC363131   2.033  38.423   5.550
 9362POPC   PO463132   1.966  38.442   5.850
 9362POPC   GL163133   2.031  38.489   6.150
 9362POPC   GL263134   2.037  38.340   6.150
 9362POPC   C1A63135   1.965  38.505   6.450
 9362POPC   D2A63136   2.014  38.484   6.750
 9362POPC   C3A63137   1.997  38.481   7.050
 9362POPC   C4A63138   2.000  38.496   7.350
 9362POPC   C1B63139   2.129  38.263   6.450
 9362POPC   C2B63140   2.106  38.219   6.750
 9362POPC   C3B63141   2.150  38.243   7.050
 9362POPC   C4B63142   2.154  38.270   7.350
 9363POPC   NC363143  39.252  36.140   5.550
 9363POPC   PO463144  39.203  36.165   5.850
 9363POPC   GL163145  39.247  36.094   6.150
 9363POPC   GL263146  39.354  36.104   6.150
 9363POPC   C1A63147  39.206  36.101   6.450
 9363POPC   D2A63148  39.220  36.102   6.750
 9363POPC   C3A63149  39.215  36.172   7.050
 9363POPC   C4A63150  39.215  36.172   7.350
 9363POPC   C1B63151  39.430  36.048   6.450
 9363POPC   C2B63152  39.450  36.012   6.750
 9363POPC   C3B63153  39.478  36.005   7.050
 9363POPC   C4B63154  39.474  35.979   7.350
 9364POPC   NC363155  26.858  44.692   5.550
 9364POPC   PO463156  26.844  44.632   5.850
 9364POPC   GL163157  26.837  44.670   6.150
 9364POPC   GL263158  26.881  44.601   6.150
 9364POPC   C1A63159  26.804  44.665   6.450
 9364POPC   D2A63160  26.795  44.646   6.750
 9364POPC   C3A63161  26.833  44.614   7.050
 9364POPC   C4A63162  26.835  44.660   7.350
 9364POPC   C1B63163  27.030  44.491   6.450
 9364POPC   C2B63164  26.964  44.522   6.750
 9364POPC   C3B63165  26.978  44.475   7.050
 9364POPC   C4B63166  26.982  44.469   7.350
 9365POPC   NC363167  19.872   8.194   5.550
 9365POPC   PO463168  19.841   8.239   5.850
 9365POPC   GL163169  19.877   8.209   6.150
 9365POPC   GL263170  19.843   8.032   6.150
 9365POPC   C1A63171  19.858   8.168   6.450
 9365POPC   D2A63172  19.845   8.236   6.750
 9365POPC   C3A63173  19.788   8.221   7.050
 9365POPC   C4A63174  19.818   8.151   7.350
 9365POPC   C1B63175  19.806   7.990   6.450
 9365POPC   C2B63176  19.800   7.967   6.750
 9365POPC   C3B63177  19.870   7.982   7.050
 9365POPC   C4B63178  19.864   7.913   7.350
 9366POPC   NC363179   5.881  37.711   5.550
 9366POPC   PO463180   5.882  37.666   5.850
 9366POPC   GL163181   5.823  37.677   6.150
 9366POPC   GL263182   5.756  37.578   6.150
 9366POPC   C1A63183   5.875  37.638   6.450
 9366POPC   D2A63184   5.908  37.630   6.750
 9366POPC   C3A63185   5.887  37.681   7.050
 9366POPC   C4A63186   5.897  37.666   7.350
 9366POPC   C1B63187   5.678  37.530   6.450
 9366POPC   C2B63188   5.597  37.556   6.750
 9366POPC   C3B63189   5.600  37.585   7.050
 9366POPC   C4B63190   5.651  37.547   7.350
 9367POPC   NC363191  23.761   5.848   5.550
 9367POPC   PO463192  23.708   5.858   5.850
 9367POPC   GL163193  23.713   5.822   6.150
 9367POPC   GL263194  23.670   5.966   6.150
 9367POPC   C1A63195  23.704   5.857   6.450
 9367POPC   D2A63196  23.700   5.879   6.750
 9367POPC   C3A63197  23.685   5.896   7.050
 9367POPC   C4A63198  23.746   5.903   7.350
 9367POPC   C1B63199  23.499   6.034   6.450
 9367POPC   C2B63200  23.559   6.077   6.750
 9367POPC   C3B63201  23.494   6.064   7.050
 9367POPC   C4B63202  23.501   6.008   7.350
 9368POPC   NC363203  30.731   5.075   5.550
 9368POPC   PO463204  30.731   5.063   5.850
 9368POPC   GL163205  30.702   5.139   6.150
 9368POPC   GL263206  30.610   5.082   6.150
 9368POPC   C1A63207  30.703   5.120   6.450
 9368POPC   D2A63208  30.716   5.114   6.750
 9368POPC   C3A63209  30.702   5.057   7.050
 9368POPC   C4A63210  30.721   5.074   7.350
 9368POPC   C1B63211  30.461   5.055   6.450
 9368POPC   C2B63212  30.453   5.092   6.750
 9368POPC   C3B63213  30.433   5.057   7.050
 9368POPC   C4B63214  30.431   5.106   7.350
 9369POPC   NC363215   9.707  18.318   5.550
 9369POPC   PO463216   9.760  18.282   5.850
 9369POPC   GL163217   9.707  18.290   6.150
 9369POPC   GL263218   9.652  18.420   6.150
 9369POPC   C1A63219   9.709  18.279   6.450
 9369POPC   D2A63220   9.793  18.304   6.750
 9369POPC   C3A63221   9.743  18.250   7.050
 9369POPC   C4A63222   9.705  18.244   7.350
 9369POPC   C1B63223   9.577  18.475   6.450
 9369POPC   C2B63224   9.623  18.481   6.750
 9369POPC   C3B63225   9.617  18.514   7.050
 9369POPC   C4B63226   9.646  18.478   7.350
 9370POPC   NC363227   5.057  43.892   5.550
 9370POPC   PO463228   5.047  43.913   5.850
 9370POPC   GL163229   5.136  43.930   6.150
 9370POPC   GL263230   5.010  43.747   6.150
 9370POPC   C1A63231   5.076  43.883   6.450
 9370POPC   D2A63232   5.109  43.871   6.750
 9370POPC   C3A63233   5.087  43.876   7.050
 9370POPC   C4A63234   5.100  43.905   7.350
 9370POPC   C1B63235   4.977  43.679   6.450
 9370POPC   C2B63236   4.961  43.677   6.750
 9370POPC   C3B63237   4.895  43.685   7.050
 9370POPC   C4B63238   4.936  43.690   7.350
 9371POPC   NC363239  33.794  36.936   5.550
 9371POPC   PO463240  33.833  36.930   5.850
 9371POPC   GL163241  33.797  36.874   6.150
 9371POPC   GL263242  33.663  36.843   6.150
 9371POPC   C1A63243  33.750  36.926   6.450
 9371POPC   D2A63244  33.802  36.935   6.750
 9371POPC   C3A63245  33.812  36.861   7.050
 9371POPC   C4A63246  33.835  36.866   7.350
 9371POPC   C1B63247  33.601  36.769   6.450
 9371POPC   C2B63248  33.585  36.818   6.750
 9371POPC   C3B63249  33.567  36.767   7.050
 9371POPC   C4B63250  33.559  36.751   7.350
 9372POPC   NC363251  42.357  14.395   5.550
 9372POPC   PO463252  42.382  14.399   5.850
 9372POPC   GL163253  42.345  14.423   6.150
 9372POPC   GL263254  42.296  14.283   6.150
 9372POPC   C1A63255  42.322  14.423   6.450
 9372POPC   D2A63256  42.339  14.419   6.750
 9372POPC   C3A63257  42.321  14.449   7.050
 9372POPC   C4A63258  42.376  14.392   7.350
 9372POPC   C1B63259  42.231  14.188   6.450
 9372POPC   C2B63260  42.223  14.140   6.750
 9372POPC   C3B63261  42.216  14.122   7.050
 9372POPC   C4B63262  42.229  14.196   7.350
 9373POPC   NC363263  13.580  16.771   5.550
 9373POPC   PO463264  13.584  16.762   5.850
 9373POPC   GL163265  13.584  16.725   6.150
 9373POPC   GL263266  13.777  16.697   6.150
 9373POPC   C1A63267  13.631  16.723   6.450
 9373POPC   D2A63268  13.631  16.719   6.750
 9373POPC   C3A63269  13.634  16.756   7.050
 9373POPC   C4A63270  13.630  16.707   7.350
 9373POPC   C1B63271  13.836  16.638   6.450
 9373POPC   C2B63272  13.845  16.628   6.750
 9373POPC   C3B63273  13.883  16.577   7.050
 9373POPC   C4B63274  13.884  16.567   7.350
 9374POPC   NC363275  18.332  34.563   5.550
 9374POPC   PO463276  18.320  34.582   5.850
 9374POPC   GL163277  18.311  34.550   6.150
 9374POPC   GL263278  18.205  34.487   6.150
 9374POPC   C1A63279  18.318  34.550   6.450
 9374POPC   D2A63280  18.253  34.576   6.750
 9374POPC   C3A63281  18.313  34.590   7.050
 9374POPC   C4A63282  18.275  34.594   7.350
 9374POPC   C1B63283  18.145  34.409   6.450
 9374POPC   C2B63284  18.064  34.359   6.750
 9374POPC   C3B63285  18.073  34.427   7.050
 9374POPC   C4B63286  18.089  34.441   7.350
 9375POPC   NC363287   0.469  26.781   5.550
 9375POPC   PO463288   0.480  26.855   5.850
 9375POPC   GL163289   0.466  26.843   6.150
 9375POPC   GL263290   0.498  26.953   6.150
 9375POPC   C1A63291   0.486  26.773   6.450
 9375POPC   D2A63292   0.421  26.847   6.750
 9375POPC   C3A63293   0.472  26.798   7.050
 9375POPC   C4A63294   0.450  26.846   7.350
 9375POPC   C1B63295   0.598  27.038   6.450
 9375POPC   C2B63296   0.599  27.028   6.750
 9375POPC   C3B63297   0.513  27.049   7.050
 9375POPC   C4B63298   0.566  27.059   7.350
 9376POPC   NC363299  18.318  20.602   5.550
 9376POPC   PO463300  18.315  20.574   5.850
 9376POPC   GL163301  18.272  20.605   6.150
 9376POPC   GL263302  18.254  20.683   6.150
 9376POPC   C1A63303  18.306  20.645   6.450
 9376POPC   D2A63304  18.315  20.581   6.750
 9376POPC   C3A63305  18.316  20.614   7.050
 9376POPC   C4A63306  18.241  20.643   7.350
 9376POPC   C1B63307  18.189  20.826   6.450
 9376POPC   C2B63308  18.149  20.865   6.750
 9376POPC   C3B63309  18.171  20.834   7.050
 9376POPC   C4B63310  18.186  20.790   7.350
 9377POPC   NC363311  11.348  18.332   5.550
 9377POPC   PO463312  11.296  18.240   5.850
 9377POPC   GL163313  11.311  18.235   6.150
 9377POPC   GL263314  11.184  18.295   6.150
 9377POPC   C1A63315  11.260  18.321   6.450
 9377POPC   D2A63316  11.272  18.321   6.750
 9377POPC   C3A63317  11.257  18.282   7.050
 9377POPC   C4A63318  11.258  18.276   7.350
 9377POPC   C1B63319  11.100  18.340   6.450
 9377POPC   C2B63320  11.046  18.354   6.750
 9377POPC   C3B63321  11.012  18.296   7.050
 9377POPC   C4B63322  11.059  18.318   7.350
 9378POPC   NC363323  24.538  24.492   5.550
 9378POPC   PO463324  24.484  24.475   5.850
 9378POPC   GL163325  24.502  24.459   6.150
 9378POPC   GL263326  24.378  24.541   6.150
 9378POPC   C1A63327  24.479  24.442   6.450
 9378POPC   D2A63328  24.528  24.489   6.750
 9378POPC   C3A63329  24.461  24.484   7.050
 9378POPC   C4A63330  24.465  24.508   7.350
 9378POPC   C1B63331  24.279  24.536   6.450
 9378POPC   C2B63332  24.269  24.482   6.750
 9378POPC   C3B63333  24.234  24.515   7.050
 9378POPC   C4B63334  24.269  24.457   7.350
 9379POPC   NC363335  34.529  44.686   5.550
 9379POPC   PO463336  34.602  44.685   5.850
 9379POPC   GL163337  34.556  44.640   6.150
 9379POPC   GL263338  34.584  44.805   6.150
 9379POPC   C1A63339  34.619  44.626   6.450
 9379POPC   D2A63340  34.534  44.650   6.750
 9379POPC   C3A63341  34.543  44.701   7.050
 9379POPC   C4A63342  34.539  44.702   7.350
 9379POPC   C1B63343  34.633  44.945   6.450
 9379POPC   C2B63344  34.672  44.914   6.750
 9379POPC   C3B63345  34.696  44.904   7.050
 9379POPC   C4B63346  34.712  44.918   7.350
 9380POPC   NC363347   5.104  24.524   5.550
 9380POPC   PO463348   5.125  24.538   5.850
 9380POPC   GL163349   5.142  24.529   6.150
 9380POPC   GL263350   4.981  24.560   6.150
 9380POPC   C1A63351   5.119  24.512   6.450
 9380POPC   D2A63352   5.075  24.495   6.750
 9380POPC   C3A63353   5.115  24.505   7.050
 9380POPC   C4A63354   5.065  24.477   7.350
 9380POPC   C1B63355   4.896  24.521   6.450
 9380POPC   C2B63356   4.897  24.559   6.750
 9380POPC   C3B63357   4.818  24.573   7.050
 9380POPC   C4B63358   4.839  24.560   7.350
 9381POPC   NC363359  12.055  31.460   5.550
 9381POPC   PO463360  12.112  31.479   5.850
 9381POPC   GL163361  12.097  31.487   6.150
 9381POPC   GL263362  12.002  31.388   6.150
 9381POPC   C1A63363  12.114  31.482   6.450
 9381POPC   D2A63364  12.028  31.489   6.750
 9381POPC   C3A63365  12.110  31.432   7.050
 9381POPC   C4A63366  12.094  31.501   7.350
 9381POPC   C1B63367  11.922  31.300   6.450
 9381POPC   C2B63368  11.902  31.242   6.750
 9381POPC   C3B63369  11.895  31.241   7.050
 9381POPC   C4B63370  11.937  31.247   7.350
 9382POPC   NC363371  43.123  19.833   5.550
 9382POPC   PO463372  43.093  19.875   5.850
 9382POPC   GL163373  43.085  19.848   6.150
 9382POPC   GL263374  42.970  19.834   6.150
 9382POPC   C1A63375  43.112  19.870   6.450
 9382POPC   D2A63376  43.098  19.845   6.750
 9382POPC   C3A63377  43.118  19.790   7.050
 9382POPC   C4A63378  43.127  19.811   7.350
 9382POPC   C1B63379  42.843  19.856   6.450
 9382POPC   C2B63380  42.908  19.924   6.750
 9382POPC   C3B63381  42.907  19.917   7.050
 9382POPC   C4B63382  42.831  19.883   7.350
 9383POPC   NC363383  29.915  37.682   5.550
 9383POPC   PO463384  29.959  37.703   5.850
 9383POPC   GL163385  29.877  37.664   6.150
 9383POPC   GL263386  30.036  37.791   6.150
 9383POPC   C1A63387  29.913  37.720   6.450
 9383POPC   D2A63388  29.913  37.636   6.750
 9383POPC   C3A63389  29.939  37.644   7.050
 9383POPC   C4A63390  29.910  37.688   7.350
 9383POPC   C1B63391  30.159  37.841   6.450
 9383POPC   C2B63392  30.099  37.803   6.750
 9383POPC   C3B63393  30.125  37.872   7.050
 9383POPC   C4B63394  30.092  37.780   7.350
 9384POPC   NC363395   9.701  24.491   5.550
 9384POPC   PO463396   9.737  24.468   5.850
 9384POPC   GL163397   9.713  24.516   6.150
 9384POPC   GL263398   9.842  24.428   6.150
 9384POPC   C1A63399   9.789  24.520   6.450
 9384POPC   D2A63400   9.755  24.467   6.750
 9384POPC   C3A63401   9.706  24.474   7.050
 9384POPC   C4A63402   9.720  24.442   7.350
 9384POPC   C1B63403   9.971  24.443   6.450
 9384POPC   C2B63404  10.003  24.391   6.750
 9384POPC   C3B63405   9.982  24.409   7.050
 9384POPC   C4B63406   9.936  24.445   7.350
 9385POPC   NC363407  22.162  44.644   5.550
 9385POPC   PO463408  22.147  44.684   5.850
 9385POPC   GL163409  22.179  44.621   6.150
 9385POPC   GL263410  22.063  44.688   6.150
 9385POPC   C1A63411  22.164  44.650   6.450
 9385POPC   D2A63412  22.190  44.697   6.750
 9385POPC   C3A63413  22.140  44.695   7.050
 9385POPC   C4A63414  22.174  44.636   7.350
 9385POPC   C1B63415  21.892  44.757   6.450
 9385POPC   C2B63416  21.899  44.749   6.750
 9385POPC   C3B63417  21.896  44.714   7.050
 9385POPC   C4B63418  21.966  44.693   7.350
 9386POPC   NC363419  10.550  22.920   5.550
 9386POPC   PO463420  10.524  22.897   5.850
 9386POPC   GL163421  10.491  22.906   6.150
 9386POPC   GL263422  10.424  22.826   6.150
 9386POPC   C1A63423  10.540  22.957   6.450
 9386POPC   D2A63424  10.553  22.946   6.750
 9386POPC   C3A63425  10.508  22.966   7.050
 9386POPC   C4A63426  10.522  22.962   7.350
 9386POPC   C1B63427  10.364  22.733   6.450
 9386POPC   C2B63428  10.339  22.783   6.750
 9386POPC   C3B63429  10.359  22.745   7.050
 9386POPC   C4B63430  10.376  22.731   7.350
 9387POPC   NC363431  17.489  11.344   5.550
 9387POPC   PO463432  17.458  11.285   5.850
 9387POPC   GL163433  17.506  11.322   6.150
 9387POPC   GL263434  17.404  11.248   6.150
 9387POPC   C1A63435  17.477  11.284   6.450
 9387POPC   D2A63436  17.553  11.253   6.750
 9387POPC   C3A63437  17.523  11.284   7.050
 9387POPC   C4A63438  17.471  11.335   7.350
 9387POPC   C1B63439  17.396  11.120   6.450
 9387POPC   C2B63440  17.360  11.065   6.750
 9387POPC   C3B63441  17.411  11.092   7.050
 9387POPC   C4B63442  17.324  11.053   7.350
 9388POPC   NC363443   6.628   3.554   5.550
 9388POPC   PO463444   6.605   3.520   5.850
 9388POPC   GL163445   6.617   3.585   6.150
 9388POPC   GL263446   6.716   3.391   6.150
 9388POPC   C1A63447   6.621   3.512   6.450
 9388POPC   D2A63448   6.622   3.575   6.750
 9388POPC   C3A63449   6.626   3.509   7.050
 9388POPC   C4A63450   6.663   3.503   7.350
 9388POPC   C1B63451   6.685   3.261   6.450
 9388POPC   C2B63452   6.700   3.330   6.750
 9388POPC   C3B63453   6.708   3.308   7.050
 9388POPC   C4B63454   6.729   3.334   7.350
 9389POPC   NC363455  14.377  26.845   5.550
 9389POPC   PO463456  14.400  26.832   5.850
 9389POPC   GL163457  14.371  26.791   6.150
 9389POPC   GL263458  14.345  26.911   6.150
 9389POPC   C1A63459  14.442  26.857   6.450
 9389POPC   D2A63460  14.364  26.863   6.750
 9389POPC   C3A63461  14.386  26.786   7.050
 9389POPC   C4A63462  14.388  26.855   7.350
 9389POPC   C1B63463  14.323  27.038   6.450
 9389POPC   C2B63464  14.338  27.047   6.750
 9389POPC   C3B63465  14.318  27.071   7.050
 9389POPC   C4B63466  14.342  27.080   7.350
 9390POPC   NC363467  37.712  24.468   5.550
 9390POPC   PO463468  37.644  24.443   5.850
 9390POPC   GL163469  37.665  24.458   6.150
 9390POPC   GL263470  37.650  24.547   6.150
 9390POPC   C1A63471  37.634  24.490   6.450
 9390POPC   D2A63472  37.727  24.486   6.750
 9390POPC   C3A63473  37.668  24.524   7.050
 9390POPC   C4A63474  37.706  24.455   7.350
 9390POPC   C1B63475  37.566  24.747   6.450
 9390POPC   C2B63476  37.511  24.665   6.750
 9390POPC   C3B63477  37.578  24.697   7.050
 9390POPC   C4B63478  37.560  24.696   7.350
 9391POPC   NC363479  29.935  27.580   5.550
 9391POPC   PO463480  29.965  27.615   5.850
 9391POPC   GL163481  29.897  27.595   6.150
 9391POPC   GL263482  29.876  27.649   6.150
 9391POPC   C1A63483  29.874  27.585   6.450
 9391POPC   D2A63484  29.936  27.552   6.750
 9391POPC   C3A63485  29.921  27.615   7.050
 9391POPC   C4A63486  29.916  27.573   7.350
 9391POPC   C1B63487  29.696  27.773   6.450
 9391POPC   C2B63488  29.737  27.793   6.750
 9391POPC   C3B63489  29.740  27.778   7.050
 9391POPC   C4B63490  29.756  27.800   7.350
 9392POPC   NC363491  22.146  22.971   5.550
 9392POPC   PO463492  22.192  22.965   5.850
 9392POPC   GL163493  22.197  22.932   6.150
 9392POPC   GL263494  22.224  22.992   6.150
 9392POPC   C1A63495  22.130  22.916   6.450
 9392POPC   D2A63496  22.188  22.966   6.750
 9392POPC   C3A63497  22.135  22.965   7.050
 9392POPC   C4A63498  22.207  22.974   7.350
 9392POPC   C1B63499  22.321  23.086   6.450
 9392POPC   C2B63500  22.374  23.115   6.750
 9392POPC   C3B63501  22.316  23.134   7.050
 9392POPC   C4B63502  22.370  23.133   7.350
 9393POPC   NC363503  17.514  33.830   5.550
 9393POPC   PO463504  17.555  33.802   5.850
 9393POPC   GL163505  17.468  33.754   6.150
 9393POPC   GL263506  17.529  33.946   6.150
 9393POPC   C1A63507  17.474  33.833   6.450
 9393POPC   D2A63508  17.457  33.832   6.750
 9393POPC   C3A63509  17.504  33.836   7.050
 9393POPC   C4A63510  17.538  33.775   7.350
 9393POPC   C1B63511  17.689  34.026   6.450
 9393POPC   C2B63512  17.678  33.982   6.750
 9393POPC   C3B63513  17.697  33.955   7.050
 9393POPC   C4B63514  17.614  34.027   7.350
 9394POPC   NC363515  40.031  26.014   5.550
 9394POPC   PO463516  40.004  26.023   5.850
 9394POPC   GL163517  40.055  26.073   6.150
 9394POPC   GL263518  39.964  26.173   6.150
 9394POPC   C1A63519  40.052  26.083   6.450
 9394POPC   D2A63520  40.046  26.070   6.750
 9394POPC   C3A63521  40.034  26.070   7.050
 9394POPC   C4A63522  39.974  26.038   7.350
 9394POPC   C1B63523  40.040  26.337   6.450
 9394POPC   C2B63524  40.002  26.300   6.750
 9394POPC   C3B63525  40.016  26.332   7.050
 9394POPC   C4B63526  40.048  26.335   7.350
 9395POPC   NC363527   7.422  36.922   5.550
 9395POPC   PO463528   7.432  36.951   5.850
 9395POPC   GL163529   7.425  36.952   6.150
 9395POPC   GL263530   7.580  36.900   6.150
 9395POPC   C1A63531   7.447  36.861   6.450
 9395POPC   D2A63532   7.460  36.884   6.750
 9395POPC   C3A63533   7.402  36.887   7.050
 9395POPC   C4A63534   7.467  36.943   7.350
 9395POPC   C1B63535   7.645  37.010   6.450
 9395POPC   C2B63536   7.702  36.969   6.750
 9395POPC   C3B63537   7.615  37.018   7.050
 9395POPC   C4B63538   7.657  36.958   7.350
 9396POPC   NC363539  25.285  34.560   5.550
 9396POPC   PO463540  25.315  34.584   5.850
 9396POPC   GL163541  25.295  34.556   6.150
 9396POPC   GL263542  25.188  34.478   6.150
 9396POPC   C1A63543  25.281  34.573   6.450
 9396POPC   D2A63544  25.223  34.541   6.750
 9396POPC   C3A63545  25.274  34.608   7.050
 9396POPC   C4A63546  25.281  34.551   7.350
 9396POPC   C1B63547  25.126  34.403   6.450
 9396POPC   C2B63548  25.054  34.446   6.750
 9396POPC   C3B63549  25.107  34.443   7.050
 9396POPC   C4B63550  25.059  34.377   7.350
 9397POPC   NC363551  30.700   2.734   5.550
 9397POPC   PO463552  30.668   2.804   5.850
 9397POPC   GL163553  30.731   2.806   6.150
 9397POPC   GL263554  30.770   2.696   6.150
 9397POPC   C1A63555  30.727   2.725   6.450
 9397POPC   D2A63556  30.733   2.814   6.750
 9397POPC   C3A63557  30.685   2.760   7.050
 9397POPC   C4A63558  30.670   2.792   7.350
 9397POPC   C1B63559  30.837   2.578   6.450
 9397POPC   C2B63560  30.854   2.622   6.750
 9397POPC   C3B63561  30.892   2.587   7.050
 9397POPC   C4B63562  30.845   2.606   7.350
 9398POPC   NC363563   0.465  42.319   5.550
 9398POPC   PO463564   0.475  42.347   5.850
 9398POPC   GL163565   0.457  42.341   6.150
 9398POPC   GL263566   0.326  42.370   6.150
 9398POPC   C1A63567   0.466  42.334   6.450
 9398POPC   D2A63568   0.395  42.315   6.750
 9398POPC   C3A63569   0.436  42.291   7.050
 9398POPC   C4A63570   0.431  42.374   7.350
 9398POPC   C1B63571   0.203  42.467   6.450
 9398POPC   C2B63572   0.210  42.467   6.750
 9398POPC   C3B63573   0.164  42.444   7.050
 9398POPC   C4B63574   0.251  42.404   7.350
 9399POPC   NC363575  14.441  44.700   5.550
 9399POPC   PO463576  14.384  44.702   5.850
 9399POPC   GL163577  14.426  44.625   6.150
 9399POPC   GL263578  14.410  44.583   6.150
 9399POPC   C1A63579  14.369  44.646   6.450
 9399POPC   D2A63580  14.404  44.620   6.750
 9399POPC   C3A63581  14.379  44.710   7.050
 9399POPC   C4A63582  14.389  44.670   7.350
 9399POPC   C1B63583  14.423  44.395   6.450
 9399POPC   C2B63584  14.437  44.401   6.750
 9399POPC   C3B63585  14.397  44.372   7.050
 9399POPC   C4B63586  14.466  44.421   7.350
 9400POPC   NC363587  12.098   1.991   5.550
 9400POPC   PO463588  12.039   1.968   5.850
 9400POPC   GL163589  12.110   1.940   6.150
 9400POPC   GL263590  11.927   2.001   6.150
 9400POPC   C1A63591  12.077   1.953   6.450
 9400POPC   D2A63592  12.091   1.966   6.750
 9400POPC   C3A63593  12.038   1.968   7.050
 9400POPC   C4A63594  12.121   2.022   7.350
 9400POPC   C1B63595  11.804   2.071   6.450
 9400POPC   C2B63596  11.862   2.014   6.750
 9400POPC   C3B63597  11.827   2.022   7.050
 9400POPC   C4B63598  11.833   2.028   7.350
 9401POPC   NC363599  12.051  32.991   5.550
 9401POPC   PO463600  12.118  33.032   5.850
 9401POPC   GL163601  12.026  33.060   6.150
 9401POPC   GL263602  11.966  32.968   6.150
 9401POPC   C1A63603  12.092  33.031   6.450
 9401POPC   D2A63604  12.039  33.053   6.750
 9401POPC   C3A63605  12.067  33.008   7.050
 9401POPC   C4A63606  12.092  33.033   7.350
 9401POPC   C1B63607  11.892  32.840   6.450
 9401POPC   C2B63608  11.834  32.905   6.750
 9401POPC   C3B63609  11.861  32.829   7.050
 9401POPC   C4B63610  11.838  32.905   7.350
 9402POPC   NC363611  44.617  19.804   5.550
 9402POPC   PO463612  44.650  19.808   5.850
 9402POPC   GL163613  44.622  19.813   6.150
 9402POPC   GL263614  44.524  19.848   6.150
 9402POPC   C1A63615  44.628  19.808   6.450
 9402POPC   D2A63616  44.652  19.831   6.750
 9402POPC   C3A63617  44.642  19.803   7.050
 9402POPC   C4A63618  44.694  19.870   7.350
 9402POPC   C1B63619  44.456  19.803   6.450
 9402POPC   C2B63620  44.436  19.809   6.750
 9402POPC   C3B63621  44.441  19.818   7.050
 9402POPC   C4B63622  44.388  19.859   7.350
 9403POPC   NC363623  36.874  37.678   5.550
 9403POPC   PO463624  36.929  37.632   5.850
 9403POPC   GL163625  36.937  37.652   6.150
 9403POPC   GL263626  36.822  37.726   6.150
 9403POPC   C1A63627  36.901  37.712   6.450
 9403POPC   D2A63628  36.915  37.682   6.750
 9403POPC   C3A63629  36.871  37.631   7.050
 9403POPC   C4A63630  36.912  37.694   7.350
 9403POPC   C1B63631  36.713  37.827   6.450
 9403POPC   C2B63632  36.720  37.886   6.750
 9403POPC   C3B63633  36.721  37.868   7.050
 9403POPC   C4B63634  36.710  37.895   7.350
 9404POPC   NC363635  17.503   9.731   5.550
 9404POPC   PO463636  17.507   9.764   5.850
 9404POPC   GL163637  17.542   9.756   6.150
 9404POPC   GL263638  17.572   9.865   6.150
 9404POPC   C1A63639  17.529   9.701   6.450
 9404POPC   D2A63640  17.529   9.721   6.750
 9404POPC   C3A63641  17.498   9.721   7.050
 9404POPC   C4A63642  17.478   9.786   7.350
 9404POPC   C1B63643  17.678   9.981   6.450
 9404POPC   C2B63644  17.623   9.922   6.750
 9404POPC   C3B63645  17.690   9.956   7.050
 9404POPC   C4B63646  17.688   9.926   7.350
 9405POPC   NC363647   3.577  26.819   5.550
 9405POPC   PO463648   3.504  26.782   5.850
 9405POPC   GL163649   3.540  26.840   6.150
 9405POPC   GL263650   3.369  26.791   6.150
 9405POPC   C1A63651   3.513  26.854   6.450
 9405POPC   D2A63652   3.535  26.799   6.750
 9405POPC   C3A63653   3.560  26.835   7.050
 9405POPC   C4A63654   3.499  26.834   7.350
 9405POPC   C1B63655   3.339  26.893   6.450
 9405POPC   C2B63656   3.338  26.841   6.750
 9405POPC   C3B63657   3.325  26.830   7.050
 9405POPC   C4B63658   3.335  26.858   7.350
 9406POPC   NC363659   2.039  36.117   5.550
 9406POPC   PO463660   2.019  36.159   5.850
 9406POPC   GL163661   1.949  36.122   6.150
 9406POPC   GL263662   2.040  36.265   6.150
 9406POPC   C1A63663   1.985  36.085   6.450
 9406POPC   D2A63664   1.972  36.094   6.750
 9406POPC   C3A63665   2.021  36.159   7.050
 9406POPC   C4A63666   1.999  36.095   7.350
 9406POPC   C1B63667   2.036  36.337   6.450
 9406POPC   C2B63668   2.035  36.348   6.750
 9406POPC   C3B63669   2.047  36.389   7.050
 9406POPC   C4B63670   2.091  36.384   7.350
 9407POPC   NC363671  26.845  39.988   5.550
 9407POPC   PO463672  26.807  40.018   5.850
 9407POPC   GL163673  26.854  39.958   6.150
 9407POPC   GL263674  26.933  39.969   6.150
 9407POPC   C1A63675  26.837  40.030   6.450
 9407POPC   D2A63676  26.859  40.031   6.750
 9407POPC   C3A63677  26.783  39.970   7.050
 9407POPC   C4A63678  26.846  39.960   7.350
 9407POPC   C1B63679  26.983  39.869   6.450
 9407POPC   C2B63680  27.043  39.919   6.750
 9407POPC   C3B63681  27.007  39.852   7.050
 9407POPC   C4B63682  26.992  39.851   7.350
 9408POPC   NC363683  17.545  41.569   5.550
 9408POPC   PO463684  17.504  41.556   5.850
 9408POPC   GL163685  17.536  41.560   6.150
 9408POPC   GL263686  17.416  41.526   6.150
 9408POPC   C1A63687  17.514  41.593   6.450
 9408POPC   D2A63688  17.532  41.599   6.750
 9408POPC   C3A63689  17.469  41.525   7.050
 9408POPC   C4A63690  17.486  41.582   7.350
 9408POPC   C1B63691  17.278  41.557   6.450
 9408POPC   C2B63692  17.221  41.578   6.750
 9408POPC   C3B63693  17.228  41.555   7.050
 9408POPC   C4B63694  17.275  41.524   7.350
 9409POPC   NC363695  27.608   4.286   5.550
 9409POPC   PO463696  27.570   4.300   5.850
 9409POPC   GL163697  27.584   4.343   6.150
 9409POPC   GL263698  27.624   4.386   6.150
 9409POPC   C1A63699  27.630   4.304   6.450
 9409POPC   D2A63700  27.623   4.277   6.750
 9409POPC   C3A63701  27.544   4.290   7.050
 9409POPC   C4A63702  27.590   4.294   7.350
 9409POPC   C1B63703  27.774   4.576   6.450
 9409POPC   C2B63704  27.710   4.483   6.750
 9409POPC   C3B63705  27.681   4.538   7.050
 9409POPC   C4B63706  27.739   4.555   7.350
 9410POPC   NC363707   1.256  25.269   5.550
 9410POPC   PO463708   1.170  25.243   5.850
 9410POPC   GL163709   1.216  25.275   6.150
 9410POPC   GL263710   1.162  25.438   6.150
 9410POPC   C1A63711   1.256  25.226   6.450
 9410POPC   D2A63712   1.223  25.254   6.750
 9410POPC   C3A63713   1.198  25.310   7.050
 9410POPC   C4A63714   1.184  25.263   7.350
 9410POPC   C1B63715   1.183  25.476   6.450
 9410POPC   C2B63716   1.165  25.498   6.750
 9410POPC   C3B63717   1.205  25.545   7.050
 9410POPC   C4B63718   1.167  25.522   7.350
 9411POPC   NC363719  29.911   5.074   5.550
 9411POPC   PO463720  29.942   5.124   5.850
 9411POPC   GL163721  29.920   5.117   6.150
 9411POPC   GL263722  29.821   5.136   6.150
 9411POPC   C1A63723  29.875   5.057   6.450
 9411POPC   D2A63724  29.929   5.064   6.750
 9411POPC   C3A63725  29.942   5.120   7.050
 9411POPC   C4A63726  29.877   5.056   7.350
 9411POPC   C1B63727  29.650   5.218   6.450
 9411POPC   C2B63728  29.692   5.189   6.750
 9411POPC   C3B63729  29.740   5.162   7.050
 9411POPC   C4B63730  29.722   5.207   7.350
 9412POPC   NC363731  34.552  35.334   5.550
 9412POPC   PO463732  34.592  35.389   5.850
 9412POPC   GL163733  34.572  35.310   6.150
 9412POPC   GL263734  34.488  35.485   6.150
 9412POPC   C1A63735  34.551  35.329   6.450
 9412POPC   D2A63736  34.598  35.317   6.750
 9412POPC   C3A63737  34.618  35.323   7.050
 9412POPC   C4A63738  34.535  35.346   7.350
 9412POPC   C1B63739  34.387  35.519   6.450
 9412POPC   C2B63740  34.468  35.574   6.750
 9412POPC   C3B63741  34.405  35.546   7.050
 9412POPC   C4B63742  34.456  35.520   7.350
 9413POPC   NC363743  12.068  33.756   5.550
 9413POPC   PO463744  12.105  33.849   5.850
 9413POPC   GL163745  12.038  33.831   6.150
 9413POPC   GL263746  12.056  33.724   6.150
 9413POPC   C1A63747  12.051  33.843   6.450
 9413POPC   D2A63748  12.060  33.780   6.750
 9413POPC   C3A63749  12.065  33.804   7.050
 9413POPC   C4A63750  12.056  33.797   7.350
 9413POPC   C1B63751  12.006  33.601   6.450
 9413POPC   C2B63752  12.043  33.570   6.750
 9413POPC   C3B63753  12.010  33.536   7.050
 9413POPC   C4B63754  11.974  33.583   7.350
 9414POPC   NC363755  17.479  30.690   5.550
 9414POPC   PO463756  17.531  30.715   5.850
 9414POPC   GL163757  17.513  30.672   6.150
 9414POPC   GL263758  17.591  30.784   6.150
 9414POPC   C1A63759  17.528  30.724   6.450
 9414POPC   D2A63760  17.464  30.738   6.750
 9414POPC   C3A63761  17.472  30.737   7.050
 9414POPC   C4A63762  17.516  30.732   7.350
 9414POPC   C1B63763  17.734  30.774   6.450
 9414POPC   C2B63764  17.707  30.770   6.750
 9414POPC   C3B63765  17.729  30.789   7.050
 9414POPC   C4B63766  17.768  30.836   7.350
 9415POPC   NC363767  42.369  29.124   5.550
 9415POPC   PO463768  42.294  29.178   5.850
 9415POPC   GL163769  42.320  29.125   6.150
 9415POPC   GL263770  42.194  29.138   6.150
 9415POPC   C1A63771  42.340  29.108   6.450
 9415POPC   D2A63772  42.376  29.151   6.750
 9415POPC   C3A63773  42.355  29.171   7.050
 9415POPC   C4A63774  42.368  29.171   7.350
 9415POPC   C1B63775  42.108  29.142   6.450
 9415POPC   C2B63776  42.041  29.187   6.750
 9415POPC   C3B63777  42.098  29.124   7.050
 9415POPC   C4B63778  42.060  29.125   7.350
 9416POPC   NC363779  14.415  36.871   5.550
 9416POPC   PO463780  14.397  36.952   5.850
 9416POPC   GL163781  14.400  36.945   6.150
 9416POPC   GL263782  14.358  36.972   6.150
 9416POPC   C1A63783  14.360  36.942   6.450
 9416POPC   D2A63784  14.413  36.924   6.750
 9416POPC   C3A63785  14.406  36.862   7.050
 9416POPC   C4A63786  14.439  36.901   7.350
 9416POPC   C1B63787  14.185  37.059   6.450
 9416POPC   C2B63788  14.207  37.050   6.750
 9416POPC   C3B63789  14.193  37.105   7.050
 9416POPC   C4B63790  14.261  37.052   7.350
 9417POPC   NC363791  11.296  36.871   5.550
 9417POPC   PO463792  11.289  36.909   5.850
 9417POPC   GL163793  11.302  36.871   6.150
 9417POPC   GL263794  11.305  36.775   6.150
 9417POPC   C1A63795  11.293  36.888   6.450
 9417POPC   D2A63796  11.299  36.950   6.750
 9417POPC   C3A63797  11.255  36.926   7.050
 9417POPC   C4A63798  11.339  36.863   7.350
 9417POPC   C1B63799  11.342  36.621   6.450
 9417POPC   C2B63800  11.293  36.702   6.750
 9417POPC   C3B63801  11.340  36.649   7.050
 9417POPC   C4B63802  11.310  36.690   7.350
 9418POPC   NC363803  22.930   2.788   5.550
 9418POPC   PO463804  22.957   2.730   5.850
 9418POPC   GL163805  22.945   2.748   6.150
 9418POPC   GL263806  22.903   2.847   6.150
 9418POPC   C1A63807  22.930   2.798   6.450
 9418POPC   D2A63808  22.930   2.760   6.750
 9418POPC   C3A63809  22.903   2.804   7.050
 9418POPC   C4A63810  22.922   2.808   7.350
 9418POPC   C1B63811  22.800   2.964   6.450
 9418POPC   C2B63812  22.740   2.940   6.750
 9418POPC   C3B63813  22.800   2.927   7.050
 9418POPC   C4B63814  22.786   2.988   7.350
 9419POPC   NC363815  33.765  33.753   5.550
 9419POPC   PO463816  33.822  33.783   5.850
 9419POPC   GL163817  33.792  33.793   6.150
 9419POPC   GL263818  33.950  33.736   6.150
 9419POPC   C1A63819  33.753  33.788   6.450
 9419POPC   D2A63820  33.810  33.785   6.750
 9419POPC   C3A63821  33.826  33.801   7.050
 9419POPC   C4A63822  33.819  33.840   7.350
 9419POPC   C1B63823  34.002  33.771   6.450
 9419POPC   C2B63824  34.084  33.763   6.750
 9419POPC   C3B63825  34.061  33.708   7.050
 9419POPC   C4B63826  34.035  33.769   7.350
 9420POPC   NC363827  12.091  17.512   5.550
 9420POPC   PO463828  12.030  17.470   5.850
 9420POPC   GL163829  12.058  17.515   6.150
 9420POPC   GL263830  12.195  17.447   6.150
 9420POPC   C1A63831  12.035  17.551   6.450
 9420POPC   D2A63832  12.101  17.484   6.750
 9420POPC   C3A63833  12.062  17.473   7.050
 9420POPC   C4A63834  12.067  17.506   7.350
 9420POPC   C1B63835  12.272  17.442   6.450
 9420POPC   C2B63836  12.310  17.366   6.750
 9420POPC   C3B63837  12.289  17.440   7.050
 9420POPC   C4B63838  12.286  17.453   7.350
 9421POPC   NC363839  15.908  40.801   5.550
 9421POPC   PO463840  15.914  40.760   5.850
 9421POPC   GL163841  15.908  40.757   6.150
 9421POPC   GL263842  15.863  40.897   6.150
 9421POPC   C1A63843  15.970  40.785   6.450
 9421POPC   D2A63844  15.982  40.770   6.750
 9421POPC   C3A63845  15.910  40.740   7.050
 9421POPC   C4A63846  15.963  40.828   7.350
 9421POPC   C1B63847  15.847  41.018   6.450
 9421POPC   C2B63848  15.776  41.014   6.750
 9421POPC   C3B63849  15.765  40.932   7.050
 9421POPC   C4B63850  15.815  40.943   7.350
 9422POPC   NC363851  29.892  14.373   5.550
 9422POPC   PO463852  29.914  14.440   5.850
 9422POPC   GL163853  29.940  14.442   6.150
 9422POPC   GL263854  29.877  14.536   6.150
 9422POPC   C1A63855  29.910  14.362   6.450
 9422POPC   D2A63856  29.917  14.402   6.750
 9422POPC   C3A63857  29.968  14.429   7.050
 9422POPC   C4A63858  29.896  14.423   7.350
 9422POPC   C1B63859  29.916  14.608   6.450
 9422POPC   C2B63860  29.931  14.690   6.750
 9422POPC   C3B63861  29.940  14.624   7.050
 9422POPC   C4B63862  29.910  14.606   7.350
 9423POPC   NC363863  15.914  39.190   5.550
 9423POPC   PO463864  15.912  39.248   5.850
 9423POPC   GL163865  15.933  39.281   6.150
 9423POPC   GL263866  15.877  39.130   6.150
 9423POPC   C1A63867  15.998  39.198   6.450
 9423POPC   D2A63868  15.981  39.211   6.750
 9423POPC   C3A63869  15.951  39.183   7.050
 9423POPC   C4A63870  15.959  39.241   7.350
 9423POPC   C1B63871  15.758  39.111   6.450
 9423POPC   C2B63872  15.781  39.124   6.750
 9423POPC   C3B63873  15.713  39.091   7.050
 9423POPC   C4B63874  15.700  39.067   7.350
 9424POPC   NC363875   3.499  12.052   5.550
 9424POPC   PO463876   3.541  12.073   5.850
 9424POPC   GL163877   3.582  12.066   6.150
 9424POPC   GL263878   3.535  11.996   6.150
 9424POPC   C1A63879   3.529  12.062   6.450
 9424POPC   D2A63880   3.572  12.125   6.750
 9424POPC   C3A63881   3.583  12.064   7.050
 9424POPC   C4A63882   3.576  12.081   7.350
 9424POPC   C1B63883   3.472  11.883   6.450
 9424POPC   C2B63884   3.407  11.877   6.750
 9424POPC   C3B63885   3.416  11.817   7.050
 9424POPC   C4B63886   3.448  11.831   7.350
 9425POPC   NC363887  14.414  19.019   5.550
 9425POPC   PO463888  14.410  19.054   5.850
 9425POPC   GL163889  14.416  19.089   6.150
 9425POPC   GL263890  14.331  19.002   6.150
 9425POPC   C1A63891  14.394  19.064   6.450
 9425POPC   D2A63892  14.400  19.069   6.750
 9425POPC   C3A63893  14.357  19.105   7.050
 9425POPC   C4A63894  14.440  19.028   7.350
 9425POPC   C1B63895  14.186  18.946   6.450
 9425POPC   C2B63896  14.217  18.945   6.750
 9425POPC   C3B63897  14.231  18.899   7.050
 9425POPC   C4B63898  14.173  18.898   7.350
 9426POPC   NC363899  42.369   2.758   5.550
 9426POPC   PO463900  42.335   2.729   5.850
 9426POPC   GL163901  42.300   2.726   6.150
 9426POPC   GL263902  42.471   2.787   6.150
 9426POPC   C1A63903  42.316   2.809   6.450
 9426POPC   D2A63904  42.370   2.797   6.750
 9426POPC   C3A63905  42.288   2.720   7.050
 9426POPC   C4A63906  42.298   2.768   7.350
 9426POPC   C1B63907  42.556   2.950   6.450
 9426POPC   C2B63908  42.540   2.897   6.750
 9426POPC   C3B63909  42.560   2.862   7.050
 9426POPC   C4B63910  42.569   2.873   7.350
 9427POPC   NC363911  38.429  20.568   5.550
 9427POPC   PO463912  38.419  20.611   5.850
 9427POPC   GL163913  38.410  20.619   6.150
 9427POPC   GL263914  38.306  20.594   6.150
 9427POPC   C1A63915  38.435  20.646   6.450
 9427POPC   D2A63916  38.487  20.619   6.750
 9427POPC   C3A63917  38.453  20.611   7.050
 9427POPC   C4A63918  38.480  20.635   7.350
 9427POPC   C1B63919  38.238  20.669   6.450
 9427POPC   C2B63920  38.226  20.697   6.750
 9427POPC   C3B63921  38.213  20.671   7.050
 9427POPC   C4B63922  38.198  20.689   7.350
 9428POPC   NC363923   0.397  35.329   5.550
 9428POPC   PO463924   0.479  35.320   5.850
 9428POPC   GL163925   0.455  35.335   6.150
 9428POPC   GL263926   0.387  35.490   6.150
 9428POPC   C1A63927   0.431  35.319   6.450
 9428POPC   D2A63928   0.488  35.306   6.750
 9428POPC   C3A63929   0.481  35.363   7.050
 9428POPC   C4A63930   0.440  35.390   7.350
 9428POPC   C1B63931   0.238  35.550   6.450
 9428POPC   C2B63932   0.229  35.540   6.750
 9428POPC   C3B63933   0.256  35.490   7.050
 9428POPC   C4B63934   0.321  35.542   7.350
 9429POPC   NC363935  36.079  21.426   5.550
 9429POPC   PO463936  36.142  21.429   5.850
 9429POPC   GL163937  36.107  21.418   6.150
 9429POPC   GL263938  36.148  21.299   6.150
 9429POPC   C1A63939  36.155  21.363   6.450
 9429POPC   D2A63940  36.144  21.347   6.750
 9429POPC   C3A63941  36.103  21.425   7.050
 9429POPC   C4A63942  36.170  21.368   7.350
 9429POPC   C1B63943  36.155  21.182   6.450
 9429POPC   C2B63944  36.199  21.130   6.750
 9429POPC   C3B63945  36.173  21.165   7.050
 9429POPC   C4B63946  36.161  21.099   7.350
 9430POPC   NC363947  10.514   5.845   5.550
 9430POPC   PO463948  10.558   5.916   5.850
 9430POPC   GL163949  10.525   5.867   6.150
 9430POPC   GL263950  10.617   5.912   6.150
 9430POPC   C1A63951  10.508   5.904   6.450
 9430POPC   D2A63952  10.544   5.821   6.750
 9430POPC   C3A63953  10.529   5.882   7.050
 9430POPC   C4A63954  10.546   5.865   7.350
 9430POPC   C1B63955  10.793   5.941   6.450
 9430POPC   C2B63956  10.772   5.886   6.750
 9430POPC   C3B63957  10.750   5.878   7.050
 9430POPC   C4B63958  10.803   5.870   7.350
 9431POPC   NC363959  17.482  39.185   5.550
 9431POPC   PO463960  17.521  39.188   5.850
 9431POPC   GL163961  17.496  39.224   6.150
 9431POPC   GL263962  17.476  39.389   6.150
 9431POPC   C1A63963  17.521  39.219   6.450
 9431POPC   D2A63964  17.531  39.190   6.750
 9431POPC   C3A63965  17.495  39.237   7.050
 9431POPC   C4A63966  17.470  39.239   7.350
 9431POPC   C1B63967  17.482  39.510   6.450
 9431POPC   C2B63968  17.535  39.456   6.750
 9431POPC   C3B63969  17.561  39.490   7.050
 9431POPC   C4B63970  17.522  39.521   7.350
 9432POPC   NC363971  27.559  43.096   5.550
 9432POPC   PO463972  27.556  43.155   5.850
 9432POPC   GL163973  27.571  43.077   6.150
 9432POPC   GL263974  27.679  43.152   6.150
 9432POPC   C1A63975  27.545  43.079   6.450
 9432POPC   D2A63976  27.632  43.065   6.750
 9432POPC   C3A63977  27.606  43.071   7.050
 9432POPC   C4A63978  27.608  43.154   7.350
 9432POPC   C1B63979  27.771  43.243   6.450
 9432POPC   C2B63980  27.778  43.242   6.750
 9432POPC   C3B63981  27.823  43.273   7.050
 9432POPC   C4B63982  27.765  43.244   7.350
 9433POPC   NC363983  19.043  10.544   5.550
 9433POPC   PO463984  19.061  10.571   5.850
 9433POPC   GL163985  19.009  10.487   6.150
 9433POPC   GL263986  18.974  10.561   6.150
 9433POPC   C1A63987  19.035  10.559   6.450
 9433POPC   D2A63988  19.054  10.479   6.750
 9433POPC   C3A63989  19.103  10.512   7.050
 9433POPC   C4A63990  19.017  10.552   7.350
 9433POPC   C1B63991  18.857  10.720   6.450
 9433POPC   C2B63992  18.844  10.647   6.750
 9433POPC   C3B63993  18.883  10.693   7.050
 9433POPC   C4B63994  18.875  10.664   7.350
 9434POPC   NC363995  35.304   6.666   5.550
 9434POPC   PO463996  35.322   6.597   5.850
 9434POPC   GL163997  35.342   6.605   6.150
 9434POPC   GL263998  35.460   6.657   6.150
 9434POPC   C1A63999  35.358   6.658   6.450
 9434POPC   D2A64000  35.400   6.664   6.750
 9434POPC   C3A64001  35.327   6.602   7.050
 9434POPC   C4A64002  35.391   6.691   7.350
 9434POPC   C1B64003  35.609   6.797   6.450
 9434POPC   C2B64004  35.584   6.802   6.750
 9434POPC   C3B64005  35.600   6.754   7.050
 9434POPC   C4B64006  35.535   6.715   7.350
 9435POPC   NC364007  24.466   1.976   5.550
 9435POPC   PO464008  24.499   1.967   5.850
 9435POPC   GL164009  24.463   2.002   6.150
 9435POPC   GL264010  24.388   2.037   6.150
 9435POPC   C1A64011  24.443   1.981   6.450
 9435POPC   D2A64012  24.494   2.031   6.750
 9435POPC   C3A64013  24.492   2.018   7.050
 9435POPC   C4A64014  24.528   1.962   7.350
 9435POPC   C1B64015  24.272   2.097   6.450
 9435POPC   C2B64016  24.226   2.099   6.750
 9435POPC   C3B64017  24.273   2.129   7.050
 9435POPC   C4B64018  24.300   2.076   7.350
 9436POPC   NC364019  12.838  34.564   5.550
 9436POPC   PO464020  12.869  34.589   5.850
 9436POPC   GL164021  12.819  34.608   6.150
 9436POPC   GL264022  12.982  34.586   6.150
 9436POPC   C1A64023  12.827  34.604   6.450
 9436POPC   D2A64024  12.811  34.583   6.750
 9436POPC   C3A64025  12.870  34.561   7.050
 9436POPC   C4A64026  12.838  34.580   7.350
 9436POPC   C1B64027  13.097  34.681   6.450
 9436POPC   C2B64028  13.099  34.700   6.750
 9436POPC   C3B64029  13.130  34.617   7.050
 9436POPC   C4B64030  13.134  34.698   7.350
 9437POPC   NC364031   8.217   2.748   5.550
 9437POPC   PO464032   8.189   2.777   5.850
 9437POPC   GL164033   8.214   2.814   6.150
 9437POPC   GL264034   8.209   2.884   6.150
 9437POPC   C1A64035   8.150   2.793   6.450
 9437POPC   D2A64036   8.206   2.752   6.750
 9437POPC   C3A64037   8.232   2.719   7.050
 9437POPC   C4A64038   8.160   2.775   7.350
 9437POPC   C1B64039   8.186   2.967   6.450
 9437POPC   C2B64040   8.274   3.063   6.750
 9437POPC   C3B64041   8.224   2.975   7.050
 9437POPC   C4B64042   8.185   3.000   7.350
 9438POPC   NC364043  22.157  26.045   5.550
 9438POPC   PO464044  22.147  26.081   5.850
 9438POPC   GL164045  22.207  26.027   6.150
 9438POPC   GL264046  22.078  26.088   6.150
 9438POPC   C1A64047  22.198  26.088   6.450
 9438POPC   D2A64048  22.115  26.042   6.750
 9438POPC   C3A64049  22.134  26.003   7.050
 9438POPC   C4A64050  22.210  26.038   7.350
 9438POPC   C1B64051  21.947  26.176   6.450
 9438POPC   C2B64052  21.926  26.187   6.750
 9438POPC   C3B64053  21.932  26.205   7.050
 9438POPC   C4B64054  21.981  26.231   7.350
 9439POPC   NC364055  33.767   8.151   5.550
 9439POPC   PO464056  33.802   8.180   5.850
 9439POPC   GL164057  33.820   8.188   6.150
 9439POPC   GL264058  33.725   8.109   6.150
 9439POPC   C1A64059  33.818   8.158   6.450
 9439POPC   D2A64060  33.785   8.234   6.750
 9439POPC   C3A64061  33.768   8.167   7.050
 9439POPC   C4A64062  33.781   8.194   7.350
 9439POPC   C1B64063  33.563   8.072   6.450
 9439POPC   C2B64064  33.595   8.121   6.750
 9439POPC   C3B64065  33.577   8.111   7.050
 9439POPC   C4B64066  33.535   8.104   7.350
 9440POPC   NC364067  26.031  34.561   5.550
 9440POPC   PO464068  26.041  34.579   5.850
 9440POPC   GL164069  26.080  34.569   6.150
 9440POPC   GL264070  26.143  34.676   6.150
 9440POPC   C1A64071  25.999  34.527   6.450
 9440POPC   D2A64072  25.992  34.543   6.750
 9440POPC   C3A64073  26.025  34.542   7.050
 9440POPC   C4A64074  26.048  34.564   7.350
 9440POPC   C1B64075  26.142  34.851   6.450
 9440POPC   C2B64076  26.137  34.830   6.750
 9440POPC   C3B64077  26.153  34.783   7.050
 9440POPC   C4B64078  26.186  34.796   7.350
 9441POPC   NC364079  26.087  26.048   5.550
 9441POPC   PO464080  25.996  26.020   5.850
 9441POPC   GL164081  26.000  26.025   6.150
 9441POPC   GL264082  26.110  26.111   6.150
 9441POPC   C1A64083  26.009  25.996   6.450
 9441POPC   D2A64084  26.041  26.077   6.750
 9441POPC   C3A64085  26.026  26.045   7.050
 9441POPC   C4A64086  26.083  25.994   7.350
 9441POPC   C1B64087  26.280  26.110   6.450
 9441POPC   C2B64088  26.231  26.118   6.750
 9441POPC   C3B64089  26.282  26.155   7.050
 9441POPC   C4B64090  26.238  26.172   7.350
 9442POPC   NC364091   4.328  29.890   5.550
 9442POPC   PO464092   4.283  29.901   5.850
 9442POPC   GL164093   4.347  29.886   6.150
 9442POPC   GL264094   4.305  29.814   6.150
 9442POPC   C1A64095   4.293  29.900   6.450
 9442POPC   D2A64096   4.327  29.904   6.750
 9442POPC   C3A64097   4.294  29.900   7.050
 9442POPC   C4A64098   4.331  29.904   7.350
 9442POPC   C1B64099   4.199  29.714   6.450
 9442POPC   C2B64100   4.196  29.728   6.750
 9442POPC   C3B64101   4.252  29.698   7.050
 9442POPC   C4B64102   4.187  29.700   7.350
 9443POPC   NC364103   5.097   5.901   5.550
 9443POPC   PO464104   5.070   5.912   5.850
 9443POPC   GL164105   5.128   5.837   6.150
 9443POPC   GL264106   5.011   5.906   6.150
 9443POPC   C1A64107   5.082   5.847   6.450
 9443POPC   D2A64108   5.105   5.918   6.750
 9443POPC   C3A64109   5.129   5.863   7.050
 9443POPC   C4A64110   5.105   5.860   7.350
 9443POPC   C1B64111   4.880   6.008   6.450
 9443POPC   C2B64112   4.849   6.063   6.750
 9443POPC   C3B64113   4.893   6.031   7.050
 9443POPC   C4B64114   4.905   6.024   7.350
 9444POPC   NC364115  26.068   1.200   5.550
 9444POPC   PO464116  26.025   1.253   5.850
 9444POPC   GL164117  26.006   1.171   6.150
 9444POPC   GL264118  26.023   1.125   6.150
 9444POPC   C1A64119  26.070   1.170   6.450
 9444POPC   D2A64120  26.061   1.189   6.750
 9444POPC   C3A64121  26.045   1.222   7.050
 9444POPC   C4A64122  26.060   1.221   7.350
 9444POPC   C1B64123  25.992   0.947   6.450
 9444POPC   C2B64124  26.062   0.931   6.750
 9444POPC   C3B64125  25.970   0.930   7.050
 9444POPC   C4B64126  26.021   0.953   7.350
 9445POPC   NC364127  19.817  28.393   5.550
 9445POPC   PO464128  19.829  28.390   5.850
 9445POPC   GL164129  19.825  28.403   6.150
 9445POPC   GL264130  19.908  28.376   6.150
 9445POPC   C1A64131  19.807  28.345   6.450
 9445POPC   D2A64132  19.807  28.383   6.750
 9445POPC   C3A64133  19.796  28.322   7.050
 9445POPC   C4A64134  19.858  28.372   7.350
 9445POPC   C1B64135  20.032  28.278   6.450
 9445POPC   C2B64136  20.058  28.320   6.750
 9445POPC   C3B64137  20.074  28.323   7.050
 9445POPC   C4B64138  20.106  28.320   7.350
 9446POPC   NC364139  33.826   7.411   5.550
 9446POPC   PO464140  33.802   7.398   5.850
 9446POPC   GL164141  33.767   7.454   6.150
 9446POPC   GL264142  33.752   7.385   6.150
 9446POPC   C1A64143  33.824   7.455   6.450
 9446POPC   D2A64144  33.785   7.421   6.750
 9446POPC   C3A64145  33.829   7.439   7.050
 9446POPC   C4A64146  33.843   7.411   7.350
 9446POPC   C1B64147  33.573   7.258   6.450
 9446POPC   C2B64148  33.593   7.219   6.750
 9446POPC   C3B64149  33.627   7.293   7.050
 9446POPC   C4B64150  33.655   7.219   7.350
 9447POPC   NC364151  16.724  12.887   5.550
 9447POPC   PO464152  16.755  12.874   5.850
 9447POPC   GL164153  16.732  12.818   6.150
 9447POPC   GL264154  16.651  12.832   6.150
 9447POPC   C1A64155  16.723  12.822   6.450
 9447POPC   D2A64156  16.706  12.889   6.750
 9447POPC   C3A64157  16.755  12.820   7.050
 9447POPC   C4A64158  16.719  12.803   7.350
 9447POPC   C1B64159  16.449  12.873   6.450
 9447POPC   C2B64160  16.457  12.909   6.750
 9447POPC   C3B64161  16.433  12.841   7.050
 9447POPC   C4B64162  16.482  12.908   7.350
 9448POPC   NC364163  41.514  19.788   5.550
 9448POPC   PO464164  41.566  19.825   5.850
 9448POPC   GL164165  41.544  19.800   6.150
 9448POPC   GL264166  41.541  19.981   6.150
 9448POPC   C1A64167  41.563  19.798   6.450
 9448POPC   D2A64168  41.532  19.867   6.750
 9448POPC   C3A64169  41.544  19.808   7.050
 9448POPC   C4A64170  41.566  19.840   7.350
 9448POPC   C1B64171  41.540  20.071   6.450
 9448POPC   C2B64172  41.477  20.093   6.750
 9448POPC   C3B64173  41.494  20.124   7.050
 9448POPC   C4B64174  41.528  20.084   7.350
 9449POPC   NC364175  26.835   0.414   5.550
 9449POPC   PO464176  26.777   0.425   5.850
 9449POPC   GL164177  26.810   0.480   6.150
 9449POPC   GL264178  26.794   0.293   6.150
 9449POPC   C1A64179  26.817   0.405   6.450
 9449POPC   D2A64180  26.854   0.445   6.750
 9449POPC   C3A64181  26.770   0.412   7.050
 9449POPC   C4A64182  26.843   0.443   7.350
 9449POPC   C1B64183  26.647   0.260   6.450
 9449POPC   C2B64184  26.639   0.183   6.750
 9449POPC   C3B64185  26.660   0.266   7.050
 9449POPC   C4B64186  26.638   0.262   7.350
 9450POPC   NC364187  22.959  32.227   5.550
 9450POPC   PO464188  22.945  32.271   5.850
 9450POPC   GL164189  22.966  32.273   6.150
 9450POPC   GL264190  22.980  32.386   6.150
 9450POPC   C1A64191  22.945  32.224   6.450
 9450POPC   D2A64192  22.903  32.217   6.750
 9450POPC   C3A64193  22.943  32.260   7.050
 9450POPC   C4A64194  22.899  32.276   7.350
 9450POPC   C1B64195  22.950  32.488   6.450
 9450POPC   C2B64196  22.963  32.468   6.750
 9450POPC   C3B64197  22.934  32.542   7.050
 9450POPC   C4B64198  22.949  32.504   7.350
 9451POPC   NC364199  28.406  38.505   5.550
 9451POPC   PO464200  28.337  38.461   5.850
 9451POPC   GL164201  28.416  38.428   6.150
 9451POPC   GL264202  28.378  38.629   6.150
 9451POPC   C1A64203  28.404  38.418   6.450
 9451POPC   D2A64204  28.364  38.451   6.750
 9451POPC   C3A64205  28.412  38.434   7.050
 9451POPC   C4A64206  28.376  38.496   7.350
 9451POPC   C1B64207  28.358  38.705   6.450
 9451POPC   C2B64208  28.413  38.722   6.750
 9451POPC   C3B64209  28.349  38.695   7.050
 9451POPC   C4B64210  28.418  38.739   7.350
 9452POPC   NC364211  18.311  26.866   5.550
 9452POPC   PO464212  18.264  26.803   5.850
 9452POPC   GL164213  18.295  26.854   6.150
 9452POPC   GL264214  18.142  26.845   6.150
 9452POPC   C1A64215  18.273  26.781   6.450
 9452POPC   D2A64216  18.280  26.783   6.750
 9452POPC   C3A64217  18.298  26.789   7.050
 9452POPC   C4A64218  18.316  26.834   7.350
 9452POPC   C1B64219  18.068  26.861   6.450
 9452POPC   C2B64220  18.076  26.886   6.750
 9452POPC   C3B64221  18.041  26.887   7.050
 9452POPC   C4B64222  18.054  26.796   7.350
 9453POPC   NC364223  19.041  37.722   5.550
 9453POPC   PO464224  19.059  37.724   5.850
 9453POPC   GL164225  19.057  37.711   6.150
 9453POPC   GL264226  19.070  37.513   6.150
 9453POPC   C1A64227  19.067  37.703   6.450
 9453POPC   D2A64228  19.080  37.673   6.750
 9453POPC   C3A64229  19.031  37.633   7.050
 9453POPC   C4A64230  19.049  37.712   7.350
 9453POPC   C1B64231  19.081  37.386   6.450
 9453POPC   C2B64232  19.066  37.392   6.750
 9453POPC   C3B64233  19.056  37.469   7.050
 9453POPC   C4B64234  19.019  37.419   7.350
 9454POPC   NC364235  43.155  27.597   5.550
 9454POPC   PO464236  43.094  27.611   5.850
 9454POPC   GL164237  43.093  27.620   6.150
 9454POPC   GL264238  43.025  27.507   6.150
 9454POPC   C1A64239  43.115  27.623   6.450
 9454POPC   D2A64240  43.133  27.620   6.750
 9454POPC   C3A64241  43.132  27.573   7.050
 9454POPC   C4A64242  43.087  27.606   7.350
 9454POPC   C1B64243  42.865  27.501   6.450
 9454POPC   C2B64244  42.946  27.418   6.750
 9454POPC   C3B64245  42.878  27.491   7.050
 9454POPC   C4B64246  42.878  27.453   7.350
 9455POPC   NC364247  44.613  26.770   5.550
 9455POPC   PO464248  44.688  26.864   5.850
 9455POPC   GL164249  44.659  26.796   6.150
 9455POPC   GL264250  44.624  26.673   6.150
 9455POPC   C1A64251  44.697  26.832   6.450
 9455POPC   D2A64252  44.616  26.778   6.750
 9455POPC   C3A64253  44.620  26.789   7.050
 9455POPC   C4A64254  44.690  26.812   7.350
 9455POPC   C1B64255  44.675  26.584   6.450
 9455POPC   C2B64256  44.636  26.579   6.750
 9455POPC   C3B64257  44.594  26.548   7.050
 9455POPC   C4B64258  44.686  26.585   7.350
 9456POPC   NC364259  38.422  29.099   5.550
 9456POPC   PO464260  38.465  29.148   5.850
 9456POPC   GL164261  38.426  29.098   6.150
 9456POPC   GL264262  38.474  29.223   6.150
 9456POPC   C1A64263  38.450  29.105   6.450
 9456POPC   D2A64264  38.439  29.143   6.750
 9456POPC   C3A64265  38.445  29.132   7.050
 9456POPC   C4A64266  38.494  29.118   7.350
 9456POPC   C1B64267  38.496  29.376   6.450
 9456POPC   C2B64268  38.445  29.376   6.750
 9456POPC   C3B64269  38.452  29.348   7.050
 9456POPC   C4B64270  38.516  29.433   7.350
 9457POPC   NC364271   4.311  25.226   5.550
 9457POPC   PO464272   4.305  25.249   5.850
 9457POPC   GL164273   4.274  25.283   6.150
 9457POPC   GL264274   4.230  25.409   6.150
 9457POPC   C1A64275   4.300  25.300   6.450
 9457POPC   D2A64276   4.307  25.246   6.750
 9457POPC   C3A64277   4.358  25.256   7.050
 9457POPC   C4A64278   4.304  25.225   7.350
 9457POPC   C1B64279   4.137  25.498   6.450
 9457POPC   C2B64280   4.146  25.517   6.750
 9457POPC   C3B64281   4.168  25.512   7.050
 9457POPC   C4B64282   4.155  25.454   7.350
 9458POPC   NC364283   2.736  23.739   5.550
 9458POPC   PO464284   2.757  23.686   5.850
 9458POPC   GL164285   2.800  23.716   6.150
 9458POPC   GL264286   2.864  23.678   6.150
 9458POPC   C1A64287   2.792  23.754   6.450
 9458POPC   D2A64288   2.795  23.667   6.750
 9458POPC   C3A64289   2.751  23.668   7.050
 9458POPC   C4A64290   2.789  23.761   7.350
 9458POPC   C1B64291   2.994  23.644   6.450
 9458POPC   C2B64292   3.028  23.732   6.750
 9458POPC   C3B64293   3.031  23.650   7.050
 9458POPC   C4B64294   3.063  23.698   7.350
 9459POPC   NC364295  24.467  19.855   5.550
 9459POPC   PO464296  24.487  19.792   5.850
 9459POPC   GL164297  24.443  19.845   6.150
 9459POPC   GL264298  24.483  19.957   6.150
 9459POPC   C1A64299  24.510  19.879   6.450
 9459POPC   D2A64300  24.521  19.881   6.750
 9459POPC   C3A64301  24.490  19.814   7.050
 9459POPC   C4A64302  24.497  19.850   7.350
 9459POPC   C1B64303  24.539  20.036   6.450
 9459POPC   C2B64304  24.541  20.060   6.750
 9459POPC   C3B64305  24.509  20.081   7.050
 9459POPC   C4B64306  24.487  20.055   7.350
 9460POPC   NC364307  33.017  37.653   5.550
 9460POPC   PO464308  33.063  37.652   5.850
 9460POPC   GL164309  33.033  37.679   6.150
 9460POPC   GL264310  33.134  37.622   6.150
 9460POPC   C1A64311  33.051  37.713   6.450
 9460POPC   D2A64312  32.979  37.702   6.750
 9460POPC   C3A64313  33.038  37.675   7.050
 9460POPC   C4A64314  33.014  37.724   7.350
 9460POPC   C1B64315  33.225  37.647   6.450
 9460POPC   C2B64316  33.256  37.607   6.750
 9460POPC   C3B64317  33.266  37.613   7.050
 9460POPC   C4B64318  33.266  37.661   7.350
 9461POPC   NC364319  26.044  39.258   5.550
 9461POPC   PO464320  26.072  39.239   5.850
 9461POPC   GL164321  26.084  39.190   6.150
 9461POPC   GL264322  26.129  39.079   6.150
 9461POPC   C1A64323  26.085  39.204   6.450
 9461POPC   D2A64324  26.055  39.186   6.750
 9461POPC   C3A64325  26.058  39.256   7.050
 9461POPC   C4A64326  26.071  39.224   7.350
 9461POPC   C1B64327  26.218  39.013   6.450
 9461POPC   C2B64328  26.207  39.069   6.750
 9461POPC   C3B64329  26.130  39.036   7.050
 9461POPC   C4B64330  26.203  38.988   7.350
 9462POPC   NC364331  21.344  25.230   5.550
 9462POPC   PO464332  21.433  25.297   5.850
 9462POPC   GL164333  21.364  25.262   6.150
 9462POPC   GL264334  21.280  25.248   6.150
 9462POPC   C1A64335  21.364  25.272   6.450
 9462POPC   D2A64336  21.406  25.258   6.750
 9462POPC   C3A64337  21.367  25.245   7.050
 9462POPC   C4A64338  21.363  25.286   7.350
 9462POPC   C1B64339  21.111  25.254   6.450
 9462POPC   C2B64340  21.189  25.249   6.750
 9462POPC   C3B64341  21.107  25.219   7.050
 9462POPC   C4B64342  21.095  25.160   7.350
 9463POPC   NC364343  42.368  28.379   5.550
 9463POPC   PO464344  42.355  28.329   5.850
 9463POPC   GL164345  42.348  28.357   6.150
 9463POPC   GL264346  42.295  28.464   6.150
 9463POPC   C1A64347  42.289  28.361   6.450
 9463POPC   D2A64348  42.334  28.351   6.750
 9463POPC   C3A64349  42.314  28.414   7.050
 9463POPC   C4A64350  42.285  28.347   7.350
 9463POPC   C1B64351  42.265  28.649   6.450
 9463POPC   C2B64352  42.290  28.593   6.750
 9463POPC   C3B64353  42.354  28.624   7.050
 9463POPC   C4B64354  42.339  28.609   7.350
 9464POPC   NC364355  30.651  22.190   5.550
 9464POPC   PO464356  30.654  22.140   5.850
 9464POPC   GL164357  30.649  22.134   6.150
 9464POPC   GL264358  30.781  22.217   6.150
 9464POPC   C1A64359  30.720  22.155   6.450
 9464POPC   D2A64360  30.692  22.135   6.750
 9464POPC   C3A64361  30.690  22.211   7.050
 9464POPC   C4A64362  30.683  22.118   7.350
 9464POPC   C1B64363  30.906  22.269   6.450
 9464POPC   C2B64364  30.956  22.257   6.750
 9464POPC   C3B64365  30.884  22.244   7.050
 9464POPC   C4B64366  30.947  22.243   7.350
 9465POPC   NC364367  13.646  14.446   5.550
 9465POPC   PO464368  13.630  14.387   5.850
 9465POPC   GL164369  13.591  14.425   6.150
 9465POPC   GL264370  13.728  14.290   6.150
 9465POPC   C1A64371  13.607  14.359   6.450
 9465POPC   D2A64372  13.597  14.390   6.750
 9465POPC   C3A64373  13.633  14.359   7.050
 9465POPC   C4A64374  13.614  14.365   7.350
 9465POPC   C1B64375  13.774  14.199   6.450
 9465POPC   C2B64376  13.832  14.201   6.750
 9465POPC   C3B64377  13.751  14.214   7.050
 9465POPC   C4B64378  13.773  14.183   7.350
 9466POPC   NC364379  39.219  33.826   5.550
 9466POPC   PO464380  39.281  33.799   5.850
 9466POPC   GL164381  39.230  33.815   6.150
 9466POPC   GL264382  39.190  33.930   6.150
 9466POPC   C1A64383  39.206  33.762   6.450
 9466POPC   D2A64384  39.205  33.773   6.750
 9466POPC   C3A64385  39.227  33.782   7.050
 9466POPC   C4A64386  39.271  33.827   7.350
 9466POPC   C1B64387  39.225  34.058   6.450
 9466POPC   C2B64388  39.238  34.046   6.750
 9466POPC   C3B64389  39.187  34.073   7.050
 9466POPC   C4B64390  39.180  34.071   7.350
 9467POPC   NC364391   1.969   6.635   5.550
 9467POPC   PO464392   1.976   6.672   5.850
 9467POPC   GL164393   1.995   6.665   6.150
 9467POPC   GL264394   2.152   6.545   6.150
 9467POPC   C1A64395   1.978   6.620   6.450
 9467POPC   D2A64396   2.022   6.693   6.750
 9467POPC   C3A64397   2.031   6.668   7.050
 9467POPC   C4A64398   1.945   6.613   7.350
 9467POPC   C1B64399   2.235   6.586   6.450
 9467POPC   C2B64400   2.219   6.542   6.750
 9467POPC   C3B64401   2.211   6.533   7.050
 9467POPC   C4B64402   2.214   6.515   7.350
 9468POPC   NC364403  17.533  27.557   5.550
 9468POPC   PO464404  17.463  27.545   5.850
 9468POPC   GL164405  17.503  27.641   6.150
 9468POPC   GL264406  17.670  27.542   6.150
 9468POPC   C1A64407  17.512  27.568   6.450
 9468POPC   D2A64408  17.512  27.566   6.750
 9468POPC   C3A64409  17.463  27.615   7.050
 9468POPC   C4A64410  17.466  27.566   7.350
 9468POPC   C1B64411  17.706  27.505   6.450
 9468POPC   C2B64412  17.788  27.557   6.750
 9468POPC   C3B64413  17.784  27.580   7.050
 9468POPC   C4B64414  17.795  27.508   7.350
 9469POPC   NC364415  11.298  10.516   5.550
 9469POPC   PO464416  11.335  10.500   5.850
 9469POPC   GL164417  11.331  10.525   6.150
 9469POPC   GL264418  11.225  10.479   6.150
 9469POPC   C1A64419  11.318  10.552   6.450
 9469POPC   D2A64420  11.323  10.527   6.750
 9469POPC   C3A64421  11.336  10.530   7.050
 9469POPC   C4A64422  11.260  10.486   7.350
 9469POPC   C1B64423  11.110  10.343   6.450
 9469POPC   C2B64424  11.119  10.403   6.750
 9469POPC   C3B64425  11.052  10.329   7.050
 9469POPC   C4B64426  11.076  10.346   7.350
 9470POPC   NC364427  28.411  15.992   5.550
 9470POPC   PO464428  28.328  15.946   5.850
 9470POPC   GL164429  28.392  15.962   6.150
 9470POPC   GL264430  28.531  15.951   6.150
 9470POPC   C1A64431  28.412  15.991   6.450
 9470POPC   D2A64432  28.370  15.906   6.750
 9470POPC   C3A64433  28.407  15.955   7.050
 9470POPC   C4A64434  28.341  15.935   7.350
 9470POPC   C1B64435  28.617  16.025   6.450
 9470POPC   C2B64436  28.597  15.991   6.750
 9470POPC   C3B64437  28.653  15.966   7.050
 9470POPC   C4B64438  28.625  16.056   7.350
 9471POPC   NC364439   3.524  39.230   5.550
 9471POPC   PO464440   3.552  39.197   5.850
 9471POPC   GL164441   3.510  39.203   6.150
 9471POPC   GL264442   3.478  39.297   6.150
 9471POPC   C1A64443   3.580  39.196   6.450
 9471POPC   D2A64444   3.494  39.195   6.750
 9471POPC   C3A64445   3.561  39.245   7.050
 9471POPC   C4A64446   3.585  39.278   7.350
 9471POPC   C1B64447   3.390  39.489   6.450
 9471POPC   C2B64448   3.438  39.441   6.750
 9471POPC   C3B64449   3.393  39.464   7.050
 9471POPC   C4B64450   3.419  39.402   7.350
 9472POPC   NC364451   5.916   7.373   5.550
 9472POPC   PO464452   5.837   7.444   5.850
 9472POPC   GL164453   5.899   7.373   6.150
 9472POPC   GL264454   6.018   7.442   6.150
 9472POPC   C1A64455   5.884   7.382   6.450
 9472POPC   D2A64456   5.908   7.440   6.750
 9472POPC   C3A64457   5.915   7.467   7.050
 9472POPC   C4A64458   5.833   7.387   7.350
 9472POPC   C1B64459   6.111   7.376   6.450
 9472POPC   C2B64460   6.112   7.376   6.750
 9472POPC   C3B64461   6.121   7.349   7.050
 9472POPC   C4B64462   6.125   7.365   7.350
 9473POPC   NC364463  23.748   6.686   5.550
 9473POPC   PO464464  23.751   6.673   5.850
 9473POPC   GL164465  23.744   6.595   6.150
 9473POPC   GL264466  23.826   6.696   6.150
 9473POPC   C1A64467  23.716   6.675   6.450
 9473POPC   D2A64468  23.748   6.666   6.750
 9473POPC   C3A64469  23.753   6.685   7.050
 9473POPC   C4A64470  23.732   6.637   7.350
 9473POPC   C1B64471  23.954   6.797   6.450
 9473POPC   C2B64472  23.859   6.852   6.750
 9473POPC   C3B64473  23.895   6.782   7.050
 9473POPC   C4B64474  23.954   6.758   7.350
 9474POPC   NC364475  15.966  33.833   5.550
 9474POPC   PO464476  15.912  33.783   5.850
 9474POPC   GL164477  15.919  33.753   6.150
 9474POPC   GL264478  16.003  33.720   6.150
 9474POPC   C1A64479  15.957  33.784   6.450
 9474POPC   D2A64480  15.994  33.843   6.750
 9474POPC   C3A64481  15.920  33.758   7.050
 9474POPC   C4A64482  15.942  33.823   7.350
 9474POPC   C1B64483  15.969  33.525   6.450
 9474POPC   C2B64484  15.987  33.559   6.750
 9474POPC   C3B64485  15.991  33.529   7.050
 9474POPC   C4B64486  16.025  33.579   7.350
 9475POPC   NC364487  37.668  22.184   5.550
 9475POPC   PO464488  37.634  22.167   5.850
 9475POPC   GL164489  37.679  22.131   6.150
 9475POPC   GL264490  37.805  22.252   6.150
 9475POPC   C1A64491  37.644  22.117   6.450
 9475POPC   D2A64492  37.710  22.148   6.750
 9475POPC   C3A64493  37.714  22.174   7.050
 9475POPC   C4A64494  37.672  22.131   7.350
 9475POPC   C1B64495  37.843  22.323   6.450
 9475POPC   C2B64496  37.879  22.350   6.750
 9475POPC   C3B64497  37.889  22.301   7.050
 9475POPC   C4B64498  37.891  22.332   7.350
 9476POPC   NC364499   2.755  19.856   5.550
 9476POPC   PO464500   2.718  19.821   5.850
 9476POPC   GL164501   2.756  19.866   6.150
 9476POPC   GL264502   2.615  19.870   6.150
 9476POPC   C1A64503   2.717  19.819   6.450
 9476POPC   D2A64504   2.793  19.842   6.750
 9476POPC   C3A64505   2.739  19.805   7.050
 9476POPC   C4A64506   2.796  19.844   7.350
 9476POPC   C1B64507   2.570  19.865   6.450
 9476POPC   C2B64508   2.532  19.849   6.750
 9476POPC   C3B64509   2.559  19.841   7.050
 9476POPC   C4B64510   2.493  19.891   7.350
 9477POPC   NC364511  20.642  43.836   5.550
 9477POPC   PO464512  20.588  43.885   5.850
 9477POPC   GL164513  20.572  43.888   6.150
 9477POPC   GL264514  20.746  43.975   6.150
 9477POPC   C1A64515  20.646  43.908   6.450
 9477POPC   D2A64516  20.622  43.934   6.750
 9477POPC   C3A64517  20.599  43.910   7.050
 9477POPC   C4A64518  20.639  43.914   7.350
 9477POPC   C1B64519  20.811  44.020   6.450
 9477POPC   C2B64520  20.885  43.963   6.750
 9477POPC   C3B64521  20.858  43.934   7.050
 9477POPC   C4B64522  20.800  43.979   7.350
 9478POPC   NC364523  36.883  36.890   5.550
 9478POPC   PO464524  36.940  36.870   5.850
 9478POPC   GL164525  36.922  36.896   6.150
 9478POPC   GL264526  36.787  36.873   6.150
 9478POPC   C1A64527  36.952  36.947   6.450
 9478POPC   D2A64528  36.921  36.923   6.750
 9478POPC   C3A64529  36.886  36.906   7.050
 9478POPC   C4A64530  36.870  36.857   7.350
 9478POPC   C1B64531  36.627  36.853   6.450
 9478POPC   C2B64532  36.654  36.850   6.750
 9478POPC   C3B64533  36.646  36.850   7.050
 9478POPC   C4B64534  36.690  36.856   7.350
 9479POPC   NC364535   5.101  22.191   5.550
 9479POPC   PO464536   5.118  22.210   5.850
 9479POPC   GL164537   5.132  22.119   6.150
 9479POPC   GL264538   5.146  22.290   6.150
 9479POPC   C1A64539   5.122  22.143   6.450
 9479POPC   D2A64540   5.112  22.181   6.750
 9479POPC   C3A64541   5.133  22.157   7.050
 9479POPC   C4A64542   5.141  22.140   7.350
 9479POPC   C1B64543   5.109  22.387   6.450
 9479POPC   C2B64544   5.138  22.404   6.750
 9479POPC   C3B64545   5.073  22.386   7.050
 9479POPC   C4B64546   5.142  22.440   7.350
 9480POPC   NC364547  32.293   2.026   5.550
 9480POPC   PO464548  32.243   1.964   5.850
 9480POPC   GL164549  32.216   2.019   6.150
 9480POPC   GL264550  32.094   2.103   6.150
 9480POPC   C1A64551  32.242   1.945   6.450
 9480POPC   D2A64552  32.286   1.984   6.750
 9480POPC   C3A64553  32.201   1.988   7.050
 9480POPC   C4A64554  32.264   1.962   7.350
 9480POPC   C1B64555  32.077   2.168   6.450
 9480POPC   C2B64556  32.047   2.096   6.750
 9480POPC   C3B64557  32.064   2.144   7.050
 9480POPC   C4B64558  32.081   2.149   7.350
 9481POPC   NC364559  11.301   9.709   5.550
 9481POPC   PO464560  11.342   9.787   5.850
 9481POPC   GL164561  11.259   9.724   6.150
 9481POPC   GL264562  11.399   9.815   6.150
 9481POPC   C1A64563  11.317   9.737   6.450
 9481POPC   D2A64564  11.320   9.796   6.750
 9481POPC   C3A64565  11.278   9.737   7.050
 9481POPC   C4A64566  11.297   9.784   7.350
 9481POPC   C1B64567  11.502   9.748   6.450
 9481POPC   C2B64568  11.581   9.840   6.750
 9481POPC   C3B64569  11.519   9.825   7.050
 9481POPC   C4B64570  11.511   9.768   7.350
 9482POPC   NC364571   1.998  25.313   5.550
 9482POPC   PO464572   2.030  25.286   5.850
 9482POPC   GL164573   2.021  25.291   6.150
 9482POPC   GL264574   1.878  25.302   6.150
 9482POPC   C1A64575   1.988  25.268   6.450
 9482POPC   D2A64576   1.973  25.286   6.750
 9482POPC   C3A64577   2.011  25.246   7.050
 9482POPC   C4A64578   2.009  25.243   7.350
 9482POPC   C1B64579   1.776  25.373   6.450
 9482POPC   C2B64580   1.776  25.308   6.750
 9482POPC   C3B64581   1.725  25.401   7.050
 9482POPC   C4B64582   1.729  25.331   7.350
 9483POPC   NC364583  12.080  25.221   5.550
 9483POPC   PO464584  12.097  25.237   5.850
 9483POPC   GL164585  12.071  25.292   6.150
 9483POPC   GL264586  12.162  25.319   6.150
 9483POPC   C1A64587  12.080  25.236   6.450
 9483POPC   D2A64588  12.062  25.272   6.750
 9483POPC   C3A64589  12.036  25.228   7.050
 9483POPC   C4A64590  12.042  25.217   7.350
 9483POPC   C1B64591  12.236  25.419   6.450
 9483POPC   C2B64592  12.236  25.410   6.750
 9483POPC   C3B64593  12.299  25.401   7.050
 9483POPC   C4B64594  12.213  25.438   7.350
 9484POPC   NC364595   0.440  12.812   5.550
 9484POPC   PO464596   0.427  12.864   5.850
 9484POPC   GL164597   0.389  12.806   6.150
 9484POPC   GL264598   0.533  12.798   6.150
 9484POPC   C1A64599   0.446  12.870   6.450
 9484POPC   D2A64600   0.390  12.816   6.750
 9484POPC   C3A64601   0.473  12.854   7.050
 9484POPC   C4A64602   0.428  12.850   7.350
 9484POPC   C1B64603   0.736  12.873   6.450
 9484POPC   C2B64604   0.712  12.779   6.750
 9484POPC   C3B64605   0.708  12.814   7.050
 9484POPC   C4B64606   0.678  12.819   7.350
 9485POPC   NC364607  27.603  19.042   5.550
 9485POPC   PO464608  27.610  19.013   5.850
 9485POPC   GL164609  27.592  19.030   6.150
 9485POPC   GL264610  27.587  19.158   6.150
 9485POPC   C1A64611  27.617  19.074   6.450
 9485POPC   D2A64612  27.553  19.108   6.750
 9485POPC   C3A64613  27.642  19.096   7.050
 9485POPC   C4A64614  27.546  19.026   7.350
 9485POPC   C1B64615  27.640  19.301   6.450
 9485POPC   C2B64616  27.661  19.310   6.750
 9485POPC   C3B64617  27.626  19.260   7.050
 9485POPC   C4B64618  27.607  19.329   7.350
 9486POPC   NC364619  43.138  14.362   5.550
 9486POPC   PO464620  43.114  14.452   5.850
 9486POPC   GL164621  43.075  14.386   6.150
 9486POPC   GL264622  43.037  14.532   6.150
 9486POPC   C1A64623  43.113  14.363   6.450
 9486POPC   D2A64624  43.135  14.409   6.750
 9486POPC   C3A64625  43.136  14.401   7.050
 9486POPC   C4A64626  43.103  14.413   7.350
 9486POPC   C1B64627  42.983  14.590   6.450
 9486POPC   C2B64628  42.951  14.539   6.750
 9486POPC   C3B64629  42.914  14.573   7.050
 9486POPC   C4B64630  42.953  14.572   7.350
 9487POPC   NC364631  16.703  39.959   5.550
 9487POPC   PO464632  16.777  39.978   5.850
 9487POPC   GL164633  16.733  39.963   6.150
 9487POPC   GL264634  16.837  39.896   6.150
 9487POPC   C1A64635  16.731  39.989   6.450
 9487POPC   D2A64636  16.698  40.045   6.750
 9487POPC   C3A64637  16.778  39.983   7.050
 9487POPC   C4A64638  16.742  40.003   7.350
 9487POPC   C1B64639  16.936  39.838   6.450
 9487POPC   C2B64640  16.901  39.884   6.750
 9487POPC   C3B64641  16.916  39.863   7.050
 9487POPC   C4B64642  16.968  39.864   7.350
 9488POPC   NC364643  15.978  36.859   5.550
 9488POPC   PO464644  15.964  36.917   5.850
 9488POPC   GL164645  16.003  36.862   6.150
 9488POPC   GL264646  16.054  36.801   6.150
 9488POPC   C1A64647  15.995  36.871   6.450
 9488POPC   D2A64648  15.973  36.921   6.750
 9488POPC   C3A64649  15.995  36.905   7.050
 9488POPC   C4A64650  15.928  36.910   7.350
 9488POPC   C1B64651  16.169  36.786   6.450
 9488POPC   C2B64652  16.171  36.802   6.750
 9488POPC   C3B64653  16.191  36.744   7.050
 9488POPC   C4B64654  16.150  36.733   7.350
 9489POPC   NC364655  20.651   1.943   5.550
 9489POPC   PO464656  20.650   1.967   5.850
 9489POPC   GL164657  20.633   2.005   6.150
 9489POPC   GL264658  20.608   2.106   6.150
 9489POPC   C1A64659  20.570   1.951   6.450
 9489POPC   D2A64660  20.648   1.957   6.750
 9489POPC   C3A64661  20.615   1.951   7.050
 9489POPC   C4A64662  20.638   1.957   7.350
 9489POPC   C1B64663  20.538   2.217   6.450
 9489POPC   C2B64664  20.543   2.203   6.750
 9489POPC   C3B64665  20.583   2.212   7.050
 9489POPC   C4B64666  20.505   2.232   7.350
 9490POPC   NC364667  15.973  12.125   5.550
 9490POPC   PO464668  15.984  12.090   5.850
 9490POPC   GL164669  15.994  12.122   6.150
 9490POPC   GL264670  16.026  11.929   6.150
 9490POPC   C1A64671  15.910  12.082   6.450
 9490POPC   D2A64672  15.972  12.069   6.750
 9490POPC   C3A64673  16.004  12.048   7.050
 9490POPC   C4A64674  15.953  12.027   7.350
 9490POPC   C1B64675  16.120  11.861   6.450
 9490POPC   C2B64676  16.158  11.854   6.750
 9490POPC   C3B64677  16.142  11.872   7.050
 9490POPC   C4B64678  16.157  11.870   7.350
 9491POPC   NC364679   1.212  12.819   5.550
 9491POPC   PO464680   1.251  12.831   5.850
 9491POPC   GL164681   1.228  12.881   6.150
 9491POPC   GL264682   1.244  12.718   6.150
 9491POPC   C1A64683   1.188  12.847   6.450
 9491POPC   D2A64684   1.257  12.865   6.750
 9491POPC   C3A64685   1.238  12.870   7.050
 9491POPC   C4A64686   1.248  12.872   7.350
 9491POPC   C1B64687   1.293  12.658   6.450
 9491POPC   C2B64688   1.329  12.646   6.750
 9491POPC   C3B64689   1.263  12.582   7.050
 9491POPC   C4B64690   1.327  12.668   7.350
 9492POPC   NC364691  43.102   8.979   5.550
 9492POPC   PO464692  43.107   9.006   5.850
 9492POPC   GL164693  43.084   8.998   6.150
 9492POPC   GL264694  43.207   9.042   6.150
 9492POPC   C1A64695  43.105   8.991   6.450
 9492POPC   D2A64696  43.102   8.948   6.750
 9492POPC   C3A64697  43.130   8.953   7.050
 9492POPC   C4A64698  43.098   8.979   7.350
 9492POPC   C1B64699  43.341   9.074   6.450
 9492POPC   C2B64700  43.388   8.994   6.750
 9492POPC   C3B64701  43.377   9.056   7.050
 9492POPC   C4B64702  43.309   9.024   7.350
 9493POPC   NC364703   2.721  31.479   5.550
 9493POPC   PO464704   2.796  31.434   5.850
 9493POPC   GL164705   2.794  31.424   6.150
 9493POPC   GL264706   2.726  31.537   6.150
 9493POPC   C1A64707   2.723  31.504   6.450
 9493POPC   D2A64708   2.772  31.452   6.750
 9493POPC   C3A64709   2.785  31.426   7.050
 9493POPC   C4A64710   2.768  31.462   7.350
 9493POPC   C1B64711   2.686  31.652   6.450
 9493POPC   C2B64712   2.662  31.674   6.750
 9493POPC   C3B64713   2.645  31.690   7.050
 9493POPC   C4B64714   2.620  31.678   7.350
 9494POPC   NC364715  29.148   3.546   5.550
 9494POPC   PO464716  29.101   3.544   5.850
 9494POPC   GL164717  29.102   3.535   6.150
 9494POPC   GL264718  29.224   3.410   6.150
 9494POPC   C1A64719  29.095   3.554   6.450
 9494POPC   D2A64720  29.101   3.542   6.750
 9494POPC   C3A64721  29.136   3.557   7.050
 9494POPC   C4A64722  29.162   3.527   7.350
 9494POPC   C1B64723  29.292   3.353   6.450
 9494POPC   C2B64724  29.301   3.337   6.750
 9494POPC   C3B64725  29.321   3.322   7.050
 9494POPC   C4B64726  29.295   3.344   7.350
 9495POPC   NC364727  37.676  23.722   5.550
 9495POPC   PO464728  37.679  23.718   5.850
 9495POPC   GL164729  37.631  23.689   6.150
 9495POPC   GL264730  37.625  23.836   6.150
 9495POPC   C1A64731  37.688  23.738   6.450
 9495POPC   D2A64732  37.668  23.705   6.750
 9495POPC   C3A64733  37.657  23.664   7.050
 9495POPC   C4A64734  37.711  23.685   7.350
 9495POPC   C1B64735  37.603  23.915   6.450
 9495POPC   C2B64736  37.591  23.945   6.750
 9495POPC   C3B64737  37.612  23.956   7.050
 9495POPC   C4B64738  37.643  23.956   7.350
 9496POPC   NC364739   6.674  43.908   5.550
 9496POPC   PO464740   6.617  43.909   5.850
 9496POPC   GL164741   6.622  43.860   6.150
 9496POPC   GL264742   6.670  44.004   6.150
 9496POPC   C1A64743   6.620  43.864   6.450
 9496POPC   D2A64744   6.627  43.888   6.750
 9496POPC   C3A64745   6.681  43.888   7.050
 9496POPC   C4A64746   6.671  43.893   7.350
 9496POPC   C1B64747   6.626  44.162   6.450
 9496POPC   C2B64748   6.647  44.165   6.750
 9496POPC   C3B64749   6.624  44.155   7.050
 9496POPC   C4B64750   6.668  44.156   7.350
 9497POPC   NC364751  28.325   4.337   5.550
 9497POPC   PO464752  28.396   4.321   5.850
 9497POPC   GL164753  28.392   4.339   6.150
 9497POPC   GL264754  28.367   4.155   6.150
 9497POPC   C1A64755  28.351   4.326   6.450
 9497POPC   D2A64756  28.412   4.309   6.750
 9497POPC   C3A64757  28.372   4.357   7.050
 9497POPC   C4A64758  28.372   4.286   7.350
 9497POPC   C1B64759  28.399   4.081   6.450
 9497POPC   C2B64760  28.363   4.078   6.750
 9497POPC   C3B64761  28.346   4.075   7.050
 9497POPC   C4B64762  28.349   4.056   7.350
 9498POPC   NC364763  40.043  33.061   5.550
 9498POPC   PO464764  40.004  33.009   5.850
 9498POPC   GL164765  40.022  33.035   6.150
 9498POPC   GL264766  39.935  33.164   6.150
 9498POPC   C1A64767  40.006  33.004   6.450
 9498POPC   D2A64768  40.020  33.021   6.750
 9498POPC   C3A64769  40.008  33.011   7.050
 9498POPC   C4A64770  40.044  33.037   7.350
 9498POPC   C1B64771  39.892  33.186   6.450
 9498POPC   C2B64772  39.820  33.214   6.750
 9498POPC   C3B64773  39.843  33.254   7.050
 9498POPC   C4B64774  39.828  33.167   7.350
 9499POPC   NC364775  30.733  44.635   5.550
 9499POPC   PO464776  30.659  44.665   5.850
 9499POPC   GL164777  30.710  44.656   6.150
 9499POPC   GL264778  30.698  44.566   6.150
 9499POPC   C1A64779  30.703  44.638   6.450
 9499POPC   D2A64780  30.696  44.621   6.750
 9499POPC   C3A64781  30.721  44.621   7.050
 9499POPC   C4A64782  30.689  44.708   7.350
 9499POPC   C1B64783  30.669  44.403   6.450
 9499POPC   C2B64784  30.685  44.369   6.750
 9499POPC   C3B64785  30.694  44.456   7.050
 9499POPC   C4B64786  30.689  44.412   7.350
 9500POPC   NC364787  30.726   9.004   5.550
 9500POPC   PO464788  30.717   8.940   5.850
 9500POPC   GL164789  30.692   8.949   6.150
 9500POPC   GL264790  30.650   9.084   6.150
 9500POPC   C1A64791  30.735   8.977   6.450
 9500POPC   D2A64792  30.693   8.947   6.750
 9500POPC   C3A64793  30.746   8.927   7.050
 9500POPC   C4A64794  30.667   8.925   7.350
 9500POPC   C1B64795  30.592   9.200   6.450
 9500POPC   C2B64796  30.646   9.188   6.750
 9500POPC   C3B64797  30.654   9.226   7.050
 9500POPC   C4B64798  30.591   9.249   7.350
 9501POPC   NC364799  40.830   7.391   5.550
 9501POPC   PO464800  40.769   7.440   5.850
 9501POPC   GL164801  40.791   7.385   6.150
 9501POPC   GL264802  40.850   7.285   6.150
 9501POPC   C1A64803  40.733   7.411   6.450
 9501POPC   D2A64804  40.826   7.379   6.750
 9501POPC   C3A64805  40.766   7.465   7.050
 9501POPC   C4A64806  40.784   7.441   7.350
 9501POPC   C1B64807  40.827   7.163   6.450
 9501POPC   C2B64808  40.853   7.169   6.750
 9501POPC   C3B64809  40.799   7.188   7.050
 9501POPC   C4B64810  40.877   7.147   7.350
 9502POPC   NC364811  35.326  40.816   5.550
 9502POPC   PO464812  35.311  40.754   5.850
 9502POPC   GL164813  35.328  40.825   6.150
 9502POPC   GL264814  35.440  40.851   6.150
 9502POPC   C1A64815  35.379  40.782   6.450
 9502POPC   D2A64816  35.386  40.771   6.750
 9502POPC   C3A64817  35.383  40.815   7.050
 9502POPC   C4A64818  35.332  40.777   7.350
 9502POPC   C1B64819  35.480  40.923   6.450
 9502POPC   C2B64820  35.567  40.990   6.750
 9502POPC   C3B64821  35.531  40.989   7.050
 9502POPC   C4B64822  35.523  40.993   7.350
 9503POPC   NC364823  20.626  22.950   5.550
 9503POPC   PO464824  20.642  22.948   5.850
 9503POPC   GL164825  20.601  22.941   6.150
 9503POPC   GL264826  20.515  23.018   6.150
 9503POPC   C1A64827  20.650  22.975   6.450
 9503POPC   D2A64828  20.649  22.958   6.750
 9503POPC   C3A64829  20.605  22.966   7.050
 9503POPC   C4A64830  20.644  22.890   7.350
 9503POPC   C1B64831  20.534  23.147   6.450
 9503POPC   C2B64832  20.459  23.198   6.750
 9503POPC   C3B64833  20.527  23.139   7.050
 9503POPC   C4B64834  20.520  23.200   7.350
 9504POPC   NC364835  43.078  38.497   5.550
 9504POPC   PO464836  43.132  38.474   5.850
 9504POPC   GL164837  43.082  38.493   6.150
 9504POPC   GL264838  43.209  38.500   6.150
 9504POPC   C1A64839  43.145  38.420   6.450
 9504POPC   D2A64840  43.084  38.483   6.750
 9504POPC   C3A64841  43.119  38.504   7.050
 9504POPC   C4A64842  43.076  38.415   7.350
 9504POPC   C1B64843  43.388  38.466   6.450
 9504POPC   C2B64844  43.359  38.494   6.750
 9504POPC   C3B64845  43.350  38.530   7.050
 9504POPC   C4B64846  43.397  38.537   7.350
 9505POPC   NC364847  43.927  13.581   5.550
 9505POPC   PO464848  43.856  13.635   5.850
 9505POPC   GL164849  43.917  13.596   6.150
 9505POPC   GL264850  43.964  13.493   6.150
 9505POPC   C1A64851  43.902  13.595   6.450
 9505POPC   D2A64852  43.907  13.591   6.750
 9505POPC   C3A64853  43.842  13.622   7.050
 9505POPC   C4A64854  43.879  13.664   7.350
 9505POPC   C1B64855  44.032  13.429   6.450
 9505POPC   C2B64856  44.067  13.420   6.750
 9505POPC   C3B64857  43.987  13.451   7.050
 9505POPC   C4B64858  44.067  13.372   7.350
 9506POPC   NC364859  14.396  39.252   5.550
 9506POPC   PO464860  14.441  39.254   5.850
 9506POPC   GL164861  14.438  39.208   6.150
 9506POPC   GL264862  14.369  39.154   6.150
 9506POPC   C1A64863  14.362  39.243   6.450
 9506POPC   D2A64864  14.372  39.221   6.750
 9506POPC   C3A64865  14.436  39.239   7.050
 9506POPC   C4A64866  14.425  39.271   7.350
 9506POPC   C1B64867  14.218  38.996   6.450
 9506POPC   C2B64868  14.283  39.042   6.750
 9506POPC   C3B64869  14.300  39.027   7.050
 9506POPC   C4B64870  14.307  39.048   7.350
 9507POPC   NC364871   9.718   5.842   5.550
 9507POPC   PO464872   9.766   5.840   5.850
 9507POPC   GL164873   9.777   5.880   6.150
 9507POPC   GL264874   9.580   5.810   6.150
 9507POPC   C1A64875   9.765   5.866   6.450
 9507POPC   D2A64876   9.711   5.851   6.750
 9507POPC   C3A64877   9.751   5.823   7.050
 9507POPC   C4A64878   9.747   5.865   7.350
 9507POPC   C1B64879   9.474   5.762   6.450
 9507POPC   C2B64880   9.511   5.777   6.750
 9507POPC   C3B64881   9.501   5.786   7.050
 9507POPC   C4B64882   9.466   5.799   7.350
 9508POPC   NC364883  43.919  44.645   5.550
 9508POPC   PO464884  43.849  44.691   5.850
 9508POPC   GL164885  43.908  44.684   6.150
 9508POPC   GL264886  43.867  44.827   6.150
 9508POPC   C1A64887  43.902  44.617   6.450
 9508POPC   D2A64888  43.884  44.709   6.750
 9508POPC   C3A64889  43.871  44.625   7.050
 9508POPC   C4A64890  43.842  44.653   7.350
 9508POPC   C1B64891  43.785  44.859   6.450
 9508POPC   C2B64892  43.750  44.898   6.750
 9508POPC   C3B64893  43.827  44.866   7.050
 9508POPC   C4B64894  43.800  44.875   7.350
 9509POPC   NC364895   4.275  16.698   5.550
 9509POPC   PO464896   4.329  16.755   5.850
 9509POPC   GL164897   4.307  16.688   6.150
 9509POPC   GL264898   4.409  16.757   6.150
 9509POPC   C1A64899   4.320  16.772   6.450
 9509POPC   D2A64900   4.277  16.755   6.750
 9509POPC   C3A64901   4.333  16.773   7.050
 9509POPC   C4A64902   4.319  16.718   7.350
 9509POPC   C1B64903   4.582  16.849   6.450
 9509POPC   C2B64904   4.582  16.846   6.750
 9509POPC   C3B64905   4.552  16.850   7.050
 9509POPC   C4B64906   4.576  16.820   7.350
 9510POPC   NC364907  11.343  44.679   5.550
 9510POPC   PO464908  11.337  44.680   5.850
 9510POPC   GL164909  11.295  44.651   6.150
 9510POPC   GL264910  11.414  44.708   6.150
 9510POPC   C1A64911  11.325  44.658   6.450
 9510POPC   D2A64912  11.250  44.627   6.750
 9510POPC   C3A64913  11.291  44.638   7.050
 9510POPC   C4A64914  11.301  44.615   7.350
 9510POPC   C1B64915  11.549  44.815   6.450
 9510POPC   C2B64916  11.485  44.757   6.750
 9510POPC   C3B64917  11.469  44.784   7.050
 9510POPC   C4B64918  11.465  44.816   7.350
 9511POPC   NC364919   7.371  20.625   5.550
 9511POPC   PO464920   7.453  20.568   5.850
 9511POPC   GL164921   7.442  20.635   6.150
 9511POPC   GL264922   7.411  20.694   6.150
 9511POPC   C1A64923   7.463  20.589   6.450
 9511POPC   D2A64924   7.420  20.634   6.750
 9511POPC   C3A64925   7.408  20.655   7.050
 9511POPC   C4A64926   7.390  20.620   7.350
 9511POPC   C1B64927   7.372  20.869   6.450
 9511POPC   C2B64928   7.449  20.840   6.750
 9511POPC   C3B64929   7.449  20.899   7.050
 9511POPC   C4B64930   7.441  20.824   7.350
 9512POPC   NC364931  39.232  15.170   5.550
 9512POPC   PO464932  39.193  15.169   5.850
 9512POPC   GL164933  39.209  15.205   6.150
 9512POPC   GL264934  39.233  15.007   6.150
 9512POPC   C1A64935  39.218  15.203   6.450
 9512POPC   D2A64936  39.268  15.217   6.750
 9512POPC   C3A64937  39.248  15.147   7.050
 9512POPC   C4A64938  39.231  15.204   7.350
 9512POPC   C1B64939  39.146  14.934   6.450
 9512POPC   C2B64940  39.164  14.964   6.750
 9512POPC   C3B64941  39.208  14.930   7.050
 9512POPC   C4B64942  39.199  14.894   7.350
 9513POPC   NC364943  21.344  24.456   5.550
 9513POPC   PO464944  21.433  24.518   5.850
 9513POPC   GL164945  21.338  24.535   6.150
 9513POPC   GL264946  21.259  24.560   6.150
 9513POPC   C1A64947  21.344  24.448   6.450
 9513POPC   D2A64948  21.404  24.527   6.750
 9513POPC   C3A64949  21.353  24.509   7.050
 9513POPC   C4A64950  21.378  24.459   7.350
 9513POPC   C1B64951  21.116  24.590   6.450
 9513POPC   C2B64952  21.165  24.543   6.750
 9513POPC   C3B64953  21.116  24.553   7.050
 9513POPC   C4B64954  21.146  24.577   7.350
 9514POPC   NC364955   1.954   3.542   5.550
 9514POPC   PO464956   1.982   3.493   5.850
 9514POPC   GL164957   1.999   3.494   6.150
 9514POPC   GL264958   2.083   3.655   6.150
 9514POPC   C1A64959   2.038   3.525   6.450
 9514POPC   D2A64960   2.025   3.520   6.750
 9514POPC   C3A64961   2.029   3.570   7.050
 9514POPC   C4A64962   2.013   3.565   7.350
 9514POPC   C1B64963   2.141   3.793   6.450
 9514POPC   C2B64964   2.119   3.748   6.750
 9514POPC   C3B64965   2.108   3.729   7.050
 9514POPC   C4B64966   2.142   3.779   7.350
 9515POPC   NC364967  27.566  32.277   5.550
 9515POPC   PO464968  27.590  32.260   5.850
 9515POPC   GL164969  27.640  32.247   6.150
 9515POPC   GL264970  27.620  32.148   6.150
 9515POPC   C1A64971  27.565  32.272   6.450
 9515POPC   D2A64972  27.615  32.281   6.750
 9515POPC   C3A64973  27.568  32.235   7.050
 9515POPC   C4A64974  27.586  32.262   7.350
 9515POPC   C1B64975  27.683  32.012   6.450
 9515POPC   C2B64976  27.739  32.009   6.750
 9515POPC   C3B64977  27.705  32.047   7.050
 9515POPC   C4B64978  27.720  31.995   7.350
 9516POPC   NC364979  25.235   2.747   5.550
 9516POPC   PO464980  25.299   2.740   5.850
 9516POPC   GL164981  25.225   2.765   6.150
 9516POPC   GL264982  25.359   2.865   6.150
 9516POPC   C1A64983  25.240   2.758   6.450
 9516POPC   D2A64984  25.312   2.717   6.750
 9516POPC   C3A64985  25.271   2.742   7.050
 9516POPC   C4A64986  25.300   2.765   7.350
 9516POPC   C1B64987  25.375   3.008   6.450
 9516POPC   C2B64988  25.398   2.963   6.750
 9516POPC   C3B64989  25.340   2.961   7.050
 9516POPC   C4B64990  25.360   3.013   7.350
 9517POPC   NC364991  22.901  22.920   5.550
 9517POPC   PO464992  22.946  22.954   5.850
 9517POPC   GL164993  22.940  22.889   6.150
 9517POPC   GL264994  23.086  22.864   6.150
 9517POPC   C1A64995  22.931  22.907   6.450
 9517POPC   D2A64996  22.980  22.963   6.750
 9517POPC   C3A64997  22.953  22.988   7.050
 9517POPC   C4A64998  22.918  22.964   7.350
 9517POPC   C1B64999  23.098  22.786   6.450
 9517POPC   C2B65000  23.176  22.812   6.750
 9517POPC   C3B65001  23.170  22.821   7.050
 9517POPC   C4B65002  23.152  22.841   7.350
 9518POPC   NC365003  20.617  33.850   5.550
 9518POPC   PO465004  20.608  33.817   5.850
 9518POPC   GL165005  20.641  33.820   6.150
 9518POPC   GL265006  20.661  33.730   6.150
 9518POPC   C1A65007  20.587  33.827   6.450
 9518POPC   D2A65008  20.560  33.815   6.750
 9518POPC   C3A65009  20.646  33.826   7.050
 9518POPC   C4A65010  20.597  33.816   7.350
 9518POPC   C1B65011  20.721  33.588   6.450
 9518POPC   C2B65012  20.755  33.613   6.750
 9518POPC   C3B65013  20.777  33.652   7.050
 9518POPC   C4B65014  20.793  33.638   7.350
 9519POPC   NC365015  12.839   9.786   5.550
 9519POPC   PO465016  12.859   9.780   5.850
 9519POPC   GL165017  12.804   9.798   6.150
 9519POPC   GL265018  12.783   9.685   6.150
 9519POPC   C1A65019  12.861   9.740   6.450
 9519POPC   D2A65020  12.833   9.755   6.750
 9519POPC   C3A65021  12.885   9.733   7.050
 9519POPC   C4A65022  12.837   9.704   7.350
 9519POPC   C1B65023  12.648   9.600   6.450
 9519POPC   C2B65024  12.607   9.621   6.750
 9519POPC   C3B65025  12.600   9.622   7.050
 9519POPC   C4B65026  12.616   9.588   7.350
 9520POPC   NC365027   8.178   5.053   5.550
 9520POPC   PO465028   8.155   5.123   5.850
 9520POPC   GL165029   8.232   5.059   6.150
 9520POPC   GL265030   8.234   5.251   6.150
 9520POPC   C1A65031   8.150   5.046   6.450
 9520POPC   D2A65032   8.223   5.136   6.750
 9520POPC   C3A65033   8.187   5.104   7.050
 9520POPC   C4A65034   8.148   5.129   7.350
 9520POPC   C1B65035   8.262   5.271   6.450
 9520POPC   C2B65036   8.310   5.335   6.750
 9520POPC   C3B65037   8.280   5.307   7.050
 9520POPC   C4B65038   8.342   5.342   7.350
 9521POPC   NC365039  12.072   9.733   5.550
 9521POPC   PO465040  12.067   9.732   5.850
 9521POPC   GL165041  12.115   9.763   6.150
 9521POPC   GL265042  12.171   9.665   6.150
 9521POPC   C1A65043  12.104   9.763   6.450
 9521POPC   D2A65044  12.104   9.789   6.750
 9521POPC   C3A65045  12.086   9.699   7.050
 9521POPC   C4A65046  12.059   9.721   7.350
 9521POPC   C1B65047  12.228   9.487   6.450
 9521POPC   C2B65048  12.150   9.510   6.750
 9521POPC   C3B65049  12.225   9.482   7.050
 9521POPC   C4B65050  12.209   9.506   7.350
 9522POPC   NC365051  10.548  26.004   5.550
 9522POPC   PO465052  10.547  26.015   5.850
 9522POPC   GL165053  10.535  26.013   6.150
 9522POPC   GL265054  10.585  25.869   6.150
 9522POPC   C1A65055  10.538  26.027   6.450
 9522POPC   D2A65056  10.502  26.015   6.750
 9522POPC   C3A65057  10.523  26.011   7.050
 9522POPC   C4A65058  10.548  26.085   7.350
 9522POPC   C1B65059  10.585  25.781   6.450
 9522POPC   C2B65060  10.558  25.807   6.750
 9522POPC   C3B65061  10.577  25.774   7.050
 9522POPC   C4B65062  10.585  25.798   7.350
 9523POPC   NC365063  38.447  31.515   5.550
 9523POPC   PO465064  38.487  31.427   5.850
 9523POPC   GL165065  38.450  31.474   6.150
 9523POPC   GL265066  38.361  31.395   6.150
 9523POPC   C1A65067  38.433  31.467   6.450
 9523POPC   D2A65068  38.432  31.454   6.750
 9523POPC   C3A65069  38.465  31.448   7.050
 9523POPC   C4A65070  38.428  31.466   7.350
 9523POPC   C1B65071  38.273  31.293   6.450
 9523POPC   C2B65072  38.276  31.312   6.750
 9523POPC   C3B65073  38.285  31.305   7.050
 9523POPC   C4B65074  38.291  31.273   7.350
 9524POPC   NC365075  11.270  12.098   5.550
 9524POPC   PO465076  11.269  12.120   5.850
 9524POPC   GL165077  11.263  12.114   6.150
 9524POPC   GL265078  11.268  12.204   6.150
 9524POPC   C1A65079  11.287  12.049   6.450
 9524POPC   D2A65080  11.303  12.075   6.750
 9524POPC   C3A65081  11.278  12.084   7.050
 9524POPC   C4A65082  11.300  12.062   7.350
 9524POPC   C1B65083  11.131  12.228   6.450
 9524POPC   C2B65084  11.163  12.285   6.750
 9524POPC   C3B65085  11.183  12.296   7.050
 9524POPC   C4B65086  11.101  12.233   7.350
 9525POPC   NC365087  19.063   7.403   5.550
 9525POPC   PO465088  19.075   7.395   5.850
 9525POPC   GL165089  19.032   7.427   6.150
 9525POPC   GL265090  19.033   7.291   6.150
 9525POPC   C1A65091  19.087   7.454   6.450
 9525POPC   D2A65092  19.051   7.395   6.750
 9525POPC   C3A65093  19.014   7.385   7.050
 9525POPC   C4A65094  19.103   7.468   7.350
 9525POPC   C1B65095  19.023   7.201   6.450
 9525POPC   C2B65096  19.060   7.204   6.750
 9525POPC   C3B65097  19.021   7.196   7.050
 9525POPC   C4B65098  19.063   7.146   7.350
 9526POPC   NC365099  28.323  26.796   5.550
 9526POPC   PO465100  28.368  26.791   5.850
 9526POPC   GL165101  28.417  26.825   6.150
 9526POPC   GL265102  28.340  26.714   6.150
 9526POPC   C1A65103  28.389  26.856   6.450
 9526POPC   D2A65104  28.389  26.779   6.750
 9526POPC   C3A65105  28.386  26.850   7.050
 9526POPC   C4A65106  28.372  26.812   7.350
 9526POPC   C1B65107  28.313  26.591   6.450
 9526POPC   C2B65108  28.338  26.584   6.750
 9526POPC   C3B65109  28.371  26.557   7.050
 9526POPC   C4B65110  28.312  26.533   7.350
 9527POPC   NC365111  28.402  34.603   5.550
 9527POPC   PO465112  28.320  34.582   5.850
 9527POPC   GL165113  28.385  34.575   6.150
 9527POPC   GL265114  28.391  34.462   6.150
 9527POPC   C1A65115  28.376  34.551   6.450
 9527POPC   D2A65116  28.380  34.558   6.750
 9527POPC   C3A65117  28.347  34.602   7.050
 9527POPC   C4A65118  28.395  34.586   7.350
 9527POPC   C1B65119  28.477  34.394   6.450
 9527POPC   C2B65120  28.459  34.315   6.750
 9527POPC   C3B65121  28.482  34.391   7.050
 9527POPC   C4B65122  28.433  34.302   7.350
 9528POPC   NC365123  12.122  39.228   5.550
 9528POPC   PO465124  12.039  39.191   5.850
 9528POPC   GL165125  12.061  39.200   6.150
 9528POPC   GL265126  12.077  39.334   6.150
 9528POPC   C1A65127  12.122  39.215   6.450
 9528POPC   D2A65128  12.107  39.248   6.750
 9528POPC   C3A65129  12.090  39.192   7.050
 9528POPC   C4A65130  12.104  39.245   7.350
 9528POPC   C1B65131  12.074  39.520   6.450
 9528POPC   C2B65132  12.076  39.491   6.750
 9528POPC   C3B65133  12.026  39.479   7.050
 9528POPC   C4B65134  12.100  39.485   7.350
 9529POPC   NC365135  16.753  40.800   5.550
 9529POPC   PO465136  16.720  40.763   5.850
 9529POPC   GL165137  16.750  40.817   6.150
 9529POPC   GL265138  16.652  40.877   6.150
 9529POPC   C1A65139  16.739  40.778   6.450
 9529POPC   D2A65140  16.750  40.795   6.750
 9529POPC   C3A65141  16.772  40.808   7.050
 9529POPC   C4A65142  16.738  40.795   7.350
 9529POPC   C1B65143  16.525  40.911   6.450
 9529POPC   C2B65144  16.536  40.882   6.750
 9529POPC   C3B65145  16.518  40.869   7.050
 9529POPC   C4B65146  16.465  40.879   7.350
 9530POPC   NC365147  28.400  16.781   5.550
 9530POPC   PO465148  28.352  16.726   5.850
 9530POPC   GL165149  28.354  16.723   6.150
 9530POPC   GL265150  28.247  16.674   6.150
 9530POPC   C1A65151  28.344  16.744   6.450
 9530POPC   D2A65152  28.406  16.707   6.750
 9530POPC   C3A65153  28.339  16.771   7.050
 9530POPC   C4A65154  28.369  16.694   7.350
 9530POPC   C1B65155  28.216  16.568   6.450
 9530POPC   C2B65156  28.137  16.581   6.750
 9530POPC   C3B65157  28.165  16.541   7.050
 9530POPC   C4B65158  28.165  16.583   7.350
 9531POPC   NC365159  12.098  12.117   5.550
 9531POPC   PO465160  12.065  12.093   5.850
 9531POPC   GL165161  12.027  12.032   6.150
 9531POPC   GL265162  11.957  12.075   6.150
 9531POPC   C1A65163  12.041  12.060   6.450
 9531POPC   D2A65164  12.075  12.120   6.750
 9531POPC   C3A65165  12.072  12.049   7.050
 9531POPC   C4A65166  12.120  12.092   7.350
 9531POPC   C1B65167  11.870  12.069   6.450
 9531POPC   C2B65168  11.790  12.035   6.750
 9531POPC   C3B65169  11.852  11.999   7.050
 9531POPC   C4B65170  11.784  12.005   7.350
 9532POPC   NC365171  27.583  17.495   5.550
 9532POPC   PO465172  27.574  17.485   5.850
 9532POPC   GL165173  27.593  17.466   6.150
 9532POPC   GL265174  27.455  17.588   6.150
 9532POPC   C1A65175  27.549  17.542   6.450
 9532POPC   D2A65176  27.625  17.529   6.750
 9532POPC   C3A65177  27.624  17.530   7.050
 9532POPC   C4A65178  27.573  17.513   7.350
 9532POPC   C1B65179  27.415  17.649   6.450
 9532POPC   C2B65180  27.354  17.673   6.750
 9532POPC   C3B65181  27.394  17.656   7.050
 9532POPC   C4B65182  27.392  17.642   7.350
 9533POPC   NC365183   3.569  37.695   5.550
 9533POPC   PO465184   3.575  37.699   5.850
 9533POPC   GL165185   3.516  37.651   6.150
 9533POPC   GL265186   3.605  37.720   6.150
 9533POPC   C1A65187   3.551  37.682   6.450
 9533POPC   D2A65188   3.588  37.678   6.750
 9533POPC   C3A65189   3.585  37.650   7.050
 9533POPC   C4A65190   3.545  37.675   7.350
 9533POPC   C1B65191   3.730  37.803   6.450
 9533POPC   C2B65192   3.816  37.809   6.750
 9533POPC   C3B65193   3.755  37.819   7.050
 9533POPC   C4B65194   3.735  37.792   7.350
 9534POPC   NC365195   2.716  22.913   5.550
 9534POPC   PO465196   2.779  22.965   5.850
 9534POPC   GL165197   2.748  22.936   6.150
 9534POPC   GL265198   2.846  22.940   6.150
 9534POPC   C1A65199   2.811  22.923   6.450
 9534POPC   D2A65200   2.804  22.924   6.750
 9534POPC   C3A65201   2.760  22.949   7.050
 9534POPC   C4A65202   2.717  22.934   7.350
 9534POPC   C1B65203   3.026  22.987   6.450
 9534POPC   C2B65204   3.010  23.012   6.750
 9534POPC   C3B65205   2.999  23.021   7.050
 9534POPC   C4B65206   2.992  22.978   7.350
 9535POPC   NC365207  23.667  25.314   5.550
 9535POPC   PO465208  23.690  25.258   5.850
 9535POPC   GL165209  23.702  25.250   6.150
 9535POPC   GL265210  23.808  25.151   6.150
 9535POPC   C1A65211  23.731  25.244   6.450
 9535POPC   D2A65212  23.728  25.294   6.750
 9535POPC   C3A65213  23.712  25.243   7.050
 9535POPC   C4A65214  23.708  25.284   7.350
 9535POPC   C1B65215  23.932  25.037   6.450
 9535POPC   C2B65216  23.839  25.125   6.750
 9535POPC   C3B65217  23.883  25.047   7.050
 9535POPC   C4B65218  23.908  25.114   7.350
 9536POPC   NC365219  36.129  10.559   5.550
 9536POPC   PO465220  36.160  10.526   5.850
 9536POPC   GL165221  36.100  10.538   6.150
 9536POPC   GL265222  36.020  10.572   6.150
 9536POPC   C1A65223  36.144  10.545   6.450
 9536POPC   D2A65224  36.128  10.570   6.750
 9536POPC   C3A65225  36.094  10.542   7.050
 9536POPC   C4A65226  36.143  10.505   7.350
 9536POPC   C1B65227  35.889  10.659   6.450
 9536POPC   C2B65228  35.903  10.679   6.750
 9536POPC   C3B65229  35.876  10.628   7.050
 9536POPC   C4B65230  35.891  10.683   7.350
 9537POPC   NC365231  31.440   1.177   5.550
 9537POPC   PO465232  31.486   1.233   5.850
 9537POPC   GL165233  31.423   1.207   6.150
 9537POPC   GL265234  31.477   1.312   6.150
 9537POPC   C1A65235  31.425   1.239   6.450
 9537POPC   D2A65236  31.489   1.186   6.750
 9537POPC   C3A65237  31.481   1.169   7.050
 9537POPC   C4A65238  31.464   1.191   7.350
 9537POPC   C1B65239  31.476   1.471   6.450
 9537POPC   C2B65240  31.470   1.453   6.750
 9537POPC   C3B65241  31.468   1.449   7.050
 9537POPC   C4B65242  31.510   1.468   7.350
 9538POPC   NC365243  25.277  42.309   5.550
 9538POPC   PO465244  25.268  42.299   5.850
 9538POPC   GL165245  25.247  42.309   6.150
 9538POPC   GL265246  25.102  42.294   6.150
 9538POPC   C1A65247  25.242  42.287   6.450
 9538POPC   D2A65248  25.311  42.322   6.750
 9538POPC   C3A65249  25.314  42.304   7.050
 9538POPC   C4A65250  25.265  42.349   7.350
 9538POPC   C1B65251  24.976  42.265   6.450
 9538POPC   C2B65252  24.975  42.254   6.750
 9538POPC   C3B65253  25.022  42.261   7.050
 9538POPC   C4B65254  25.018  42.228   7.350
 9539POPC   NC365255  29.136  21.362   5.550
 9539POPC   PO465256  29.108  21.352   5.850
 9539POPC   GL165257  29.185  21.345   6.150
 9539POPC   GL265258  28.988  21.376   6.150
 9539POPC   C1A65259  29.100  21.362   6.450
 9539POPC   D2A65260  29.189  21.394   6.750
 9539POPC   C3A65261  29.151  21.354   7.050
 9539POPC   C4A65262  29.195  21.358   7.350
 9539POPC   C1B65263  28.902  21.408   6.450
 9539POPC   C2B65264  28.858  21.410   6.750
 9539POPC   C3B65265  28.850  21.350   7.050
 9539POPC   C4B65266  28.884  21.368   7.350
 9540POPC   NC365267  10.482  23.739   5.550
 9540POPC   PO465268  10.563  23.712   5.850
 9540POPC   GL165269  10.508  23.703   6.150
 9540POPC   GL265270  10.508  23.606   6.150
 9540POPC   C1A65271  10.496  23.682   6.450
 9540POPC   D2A65272  10.526  23.756   6.750
 9540POPC   C3A65273  10.511  23.713   7.050
 9540POPC   C4A65274  10.556  23.725   7.350
 9540POPC   C1B65275  10.492  23.506   6.450
 9540POPC   C2B65276  10.494  23.438   6.750
 9540POPC   C3B65277  10.526  23.438   7.050
 9540POPC   C4B65278  10.496  23.490   7.350
 9541POPC   NC365279  29.162  24.457   5.550
 9541POPC   PO465280  29.132  24.538   5.850
 9541POPC   GL165281  29.179  24.489   6.150
 9541POPC   GL265282  29.038  24.374   6.150
 9541POPC   C1A65283  29.177  24.535   6.450
 9541POPC   D2A65284  29.173  24.447   6.750
 9541POPC   C3A65285  29.132  24.513   7.050
 9541POPC   C4A65286  29.161  24.501   7.350
 9541POPC   C1B65287  28.976  24.305   6.450
 9541POPC   C2B65288  28.959  24.284   6.750
 9541POPC   C3B65289  29.003  24.341   7.050
 9541POPC   C4B65290  28.953  24.319   7.350
 9542POPC   NC365291  33.838  44.666   5.550
 9542POPC   PO465292  33.771  44.687   5.850
 9542POPC   GL165293  33.772  44.667   6.150
 9542POPC   GL265294  33.815  44.545   6.150
 9542POPC   C1A65295  33.828  44.705   6.450
 9542POPC   D2A65296  33.802  44.678   6.750
 9542POPC   C3A65297  33.836  44.645   7.050
 9542POPC   C4A65298  33.832  44.655   7.350
 9542POPC   C1B65299  33.858  44.422   6.450
 9542POPC   C2B65300  33.888  44.440   6.750
 9542POPC   C3B65301  33.866  44.407   7.050
 9542POPC   C4B65302  33.905  44.399   7.350
 9543POPC   NC365303  19.020  34.595   5.550
 9543POPC   PO465304  19.082  34.623   5.850
 9543POPC   GL165305  19.099  34.618   6.150
 9543POPC   GL265306  19.084  34.656   6.150
 9543POPC   C1A65307  19.067  34.563   6.450
 9543POPC   D2A65308  19.108  34.620   6.750
 9543POPC   C3A65309  19.016  34.580   7.050
 9543POPC   C4A65310  19.095  34.537   7.350
 9543POPC   C1B65311  19.115  34.861   6.450
 9543POPC   C2B65312  19.054  34.846   6.750
 9543POPC   C3B65313  19.100  34.784   7.050
 9543POPC   C4B65314  19.030  34.858   7.350
 9544POPC   NC365315  35.353  19.823   5.550
 9544POPC   PO465316  35.309  19.847   5.850
 9544POPC   GL165317  35.335  19.830   6.150
 9544POPC   GL265318  35.339  19.914   6.150
 9544POPC   C1A65319  35.338  19.877   6.450
 9544POPC   D2A65320  35.389  19.824   6.750
 9544POPC   C3A65321  35.368  19.862   7.050
 9544POPC   C4A65322  35.388  19.860   7.350
 9544POPC   C1B65323  35.406  20.092   6.450
 9544POPC   C2B65324  35.407  20.132   6.750
 9544POPC   C3B65325  35.336  20.046   7.050
 9544POPC   C4B65326  35.372  20.072   7.350
 9545POPC   NC365327   2.736  41.541   5.550
 9545POPC   PO465328   2.723  41.608   5.850
 9545POPC   GL165329   2.741  41.589   6.150
 9545POPC   GL265330   2.644  41.604   6.150
 9545POPC   C1A65331   2.794  41.603   6.450
 9545POPC   D2A65332   2.813  41.524   6.750
 9545POPC   C3A65333   2.721  41.523   7.050
 9545POPC   C4A65334   2.763  41.596   7.350
 9545POPC   C1B65335   2.548  41.566   6.450
 9545POPC   C2B65336   2.542  41.573   6.750
 9545POPC   C3B65337   2.528  41.616   7.050
 9545POPC   C4B65338   2.529  41.581   7.350
 9546POPC   NC365339  21.336  26.803   5.550
 9546POPC   PO465340  21.419  26.831   5.850
 9546POPC   GL165341  21.346  26.793   6.150
 9546POPC   GL265342  21.369  26.962   6.150
 9546POPC   C1A65343  21.419  26.825   6.450
 9546POPC   D2A65344  21.339  26.774   6.750
 9546POPC   C3A65345  21.339  26.863   7.050
 9546POPC   C4A65346  21.396  26.861   7.350
 9546POPC   C1B65347  21.437  27.105   6.450
 9546POPC   C2B65348  21.461  27.112   6.750
 9546POPC   C3B65349  21.387  27.081   7.050
 9546POPC   C4B65350  21.464  27.016   7.350
 9547POPC   NC365351  19.017   5.127   5.550
 9547POPC   PO465352  19.052   5.129   5.850
 9547POPC   GL165353  19.018   5.071   6.150
 9547POPC   GL265354  19.167   5.180   6.150
 9547POPC   C1A65355  19.096   5.059   6.450
 9547POPC   D2A65356  19.082   5.055   6.750
 9547POPC   C3A65357  19.104   5.138   7.050
 9547POPC   C4A65358  19.057   5.094   7.350
 9547POPC   C1B65359  19.282   5.236   6.450
 9547POPC   C2B65360  19.288   5.283   6.750
 9547POPC   C3B65361  19.285   5.287   7.050
 9547POPC   C4B65362  19.294   5.209   7.350
 9548POPC   NC365363  26.055  20.599   5.550
 9548POPC   PO465364  26.054  20.594   5.850
 9548POPC   GL165365  26.085  20.622   6.150
 9548POPC   GL265366  25.992  20.485   6.150
 9548POPC   C1A65367  26.077  20.609   6.450
 9548POPC   D2A65368  26.014  20.581   6.750
 9548POPC   C3A65369  26.029  20.634   7.050
 9548POPC   C4A65370  26.055  20.614   7.350
 9548POPC   C1B65371  26.009  20.366   6.450
 9548POPC   C2B65372  26.036  20.331   6.750
 9548POPC   C3B65373  26.027  20.322   7.050
 9548POPC   C4B65374  25.996  20.334   7.350
 9549POPC   NC365375  33.802  43.112   5.550
 9549POPC   PO465376  33.809  43.093   5.850
 9549POPC   GL165377  33.796  43.155   6.150
 9549POPC   GL265378  33.782  43.173   6.150
 9549POPC   C1A65379  33.844  43.112   6.450
 9549POPC   D2A65380  33.820  43.137   6.750
 9549POPC   C3A65381  33.816  43.060   7.050
 9549POPC   C4A65382  33.825  43.137   7.350
 9549POPC   C1B65383  33.709  43.330   6.450
 9549POPC   C2B65384  33.683  43.364   6.750
 9549POPC   C3B65385  33.642  43.350   7.050
 9549POPC   C4B65386  33.683  43.278   7.350
 9550POPC   NC365387  44.622  22.142   5.550
 9550POPC   PO465388  44.682  22.211   5.850
 9550POPC   GL165389  44.615  22.147   6.150
 9550POPC   GL265390  44.793  22.068   6.150
 9550POPC   C1A65391  44.670  22.186   6.450
 9550POPC   D2A65392  44.632  22.184   6.750
 9550POPC   C3A65393  44.644  22.197   7.050
 9550POPC   C4A65394  44.658  22.187   7.350
 9550POPC   C1B65395  44.842  22.000   6.450
 9550POPC   C2B65396  44.828  21.955   6.750
 9550POPC   C3B65397  44.845  21.945   7.050
 9550POPC   C4B65398  44.850  22.013   7.350
 9551POPC   NC365399   8.221  41.573   5.550
 9551POPC   PO465400   8.175  41.519   5.850
 9551POPC   GL165401   8.162  41.588   6.150
 9551POPC   GL265402   8.288  41.599   6.150
 9551POPC   C1A65403   8.217  41.606   6.450
 9551POPC   D2A65404   8.208  41.509   6.750
 9551POPC   C3A65405   8.181  41.528   7.050
 9551POPC   C4A65406   8.154  41.540   7.350
 9551POPC   C1B65407   8.460  41.596   6.450
 9551POPC   C2B65408   8.477  41.535   6.750
 9551POPC   C3B65409   8.449  41.517   7.050
 9551POPC   C4B65410   8.408  41.575   7.350
 9552POPC   NC365411  42.339   5.084   5.550
 9552POPC   PO465412  42.304   5.101   5.850
 9552POPC   GL165413  42.292   5.073   6.150
 9552POPC   GL265414  42.178   5.152   6.150
 9552POPC   C1A65415  42.292   5.083   6.450
 9552POPC   D2A65416  42.370   5.127   6.750
 9552POPC   C3A65417  42.288   5.061   7.050
 9552POPC   C4A65418  42.352   5.066   7.350
 9552POPC   C1B65419  42.102   5.200   6.450
 9552POPC   C2B65420  42.125   5.229   6.750
 9552POPC   C3B65421  42.127   5.163   7.050
 9552POPC   C4B65422  42.057   5.223   7.350
 9553POPC   NC365423  15.187  13.670   5.550
 9553POPC   PO465424  15.206  13.609   5.850
 9553POPC   GL165425  15.195  13.602   6.150
 9553POPC   GL265426  15.109  13.782   6.150
 9553POPC   C1A65427  15.190  13.623   6.450
 9553POPC   D2A65428  15.188  13.643   6.750
 9553POPC   C3A65429  15.176  13.664   7.050
 9553POPC   C4A65430  15.220  13.601   7.350
 9553POPC   C1B65431  15.056  13.860   6.450
 9553POPC   C2B65432  15.048  13.832   6.750
 9553POPC   C3B65433  15.070  13.872   7.050
 9553POPC   C4B65434  15.109  13.864   7.350
 9554POPC   NC365435  37.684  32.233   5.550
 9554POPC   PO465436  37.714  32.259   5.850
 9554POPC   GL165437  37.723  32.285   6.150
 9554POPC   GL265438  37.704  32.102   6.150
 9554POPC   C1A65439  37.698  32.207   6.450
 9554POPC   D2A65440  37.634  32.260   6.750
 9554POPC   C3A65441  37.697  32.258   7.050
 9554POPC   C4A65442  37.707  32.231   7.350
 9554POPC   C1B65443  37.646  31.957   6.450
 9554POPC   C2B65444  37.662  32.019   6.750
 9554POPC   C3B65445  37.643  32.036   7.050
 9554POPC   C4B65446  37.674  32.013   7.350
 9555POPC   NC365447   1.206   5.104   5.550
 9555POPC   PO465448   1.216   5.068   5.850
 9555POPC   GL165449   1.235   5.049   6.150
 9555POPC   GL265450   1.191   4.933   6.150
 9555POPC   C1A65451   1.227   5.142   6.450
 9555POPC   D2A65452   1.259   5.053   6.750
 9555POPC   C3A65453   1.189   5.063   7.050
 9555POPC   C4A65454   1.255   5.097   7.350
 9555POPC   C1B65455   1.079   4.911   6.450
 9555POPC   C2B65456   1.095   4.856   6.750
 9555POPC   C3B65457   1.083   4.846   7.050
 9555POPC   C4B65458   1.109   4.875   7.350
 9556POPC   NC365459   8.925  27.635   5.550
 9556POPC   PO465460   8.934  27.615   5.850
 9556POPC   GL165461   9.002  27.640   6.150
 9556POPC   GL265462   8.892  27.686   6.150
 9556POPC   C1A65463   9.002  27.578   6.450
 9556POPC   D2A65464   8.981  27.580   6.750
 9556POPC   C3A65465   8.950  27.561   7.050
 9556POPC   C4A65466   8.997  27.602   7.350
 9556POPC   C1B65467   8.785  27.651   6.450
 9556POPC   C2B65468   8.765  27.708   6.750
 9556POPC   C3B65469   8.794  27.670   7.050
 9556POPC   C4B65470   8.729  27.667   7.350
 9557POPC   NC365471  43.909   1.204   5.550
 9557POPC   PO465472  43.927   1.224   5.850
 9557POPC   GL165473  43.845   1.191   6.150
 9557POPC   GL265474  43.942   1.153   6.150
 9557POPC   C1A65475  43.909   1.210   6.450
 9557POPC   D2A65476  43.899   1.224   6.750
 9557POPC   C3A65477  43.892   1.245   7.050
 9557POPC   C4A65478  43.890   1.174   7.350
 9557POPC   C1B65479  44.139   1.045   6.450
 9557POPC   C2B65480  44.137   1.095   6.750
 9557POPC   C3B65481  44.116   1.096   7.050
 9557POPC   C4B65482  44.127   1.108   7.350
 9558POPC   NC365483  33.806  43.931   5.550
 9558POPC   PO465484  33.844  43.857   5.850
 9558POPC   GL165485  33.847  43.896   6.150
 9558POPC   GL265486  33.649  43.926   6.150
 9558POPC   C1A65487  33.790  43.905   6.450
 9558POPC   D2A65488  33.782  43.910   6.750
 9558POPC   C3A65489  33.810  43.898   7.050
 9558POPC   C4A65490  33.812  43.927   7.350
 9558POPC   C1B65491  33.619  44.020   6.450
 9558POPC   C2B65492  33.584  43.993   6.750
 9558POPC   C3B65493  33.524  44.004   7.050
 9558POPC   C4B65494  33.567  43.951   7.350
 9559POPC   NC365495  37.719  29.963   5.550
 9559POPC   PO465496  37.634  29.941   5.850
 9559POPC   GL165497  37.645  29.953   6.150
 9559POPC   GL265498  37.715  29.754   6.150
 9559POPC   C1A65499  37.643  29.926   6.450
 9559POPC   D2A65500  37.641  29.888   6.750
 9559POPC   C3A65501  37.726  29.917   7.050
 9559POPC   C4A65502  37.650  29.936   7.350
 9559POPC   C1B65503  37.655  29.720   6.450
 9559POPC   C2B65504  37.737  29.652   6.750
 9559POPC   C3B65505  37.673  29.673   7.050
 9559POPC   C4B65506  37.649  29.712   7.350
 9560POPC   NC365507  35.384  43.086   5.550
 9560POPC   PO465508  35.351  43.090   5.850
 9560POPC   GL165509  35.378  43.155   6.150
 9560POPC   GL265510  35.411  43.035   6.150
 9560POPC   C1A65511  35.341  43.143   6.450
 9560POPC   D2A65512  35.334  43.064   6.750
 9560POPC   C3A65513  35.352  43.120   7.050
 9560POPC   C4A65514  35.371  43.061   7.350
 9560POPC   C1B65515  35.430  42.924   6.450
 9560POPC   C2B65516  35.485  42.849   6.750
 9560POPC   C3B65517  35.438  42.849   7.050
 9560POPC   C4B65518  35.439  42.903   7.350
 9561POPC   NC365519  19.848   4.274   5.550
 9561POPC   PO465520  19.797   4.360   5.850
 9561POPC   GL165521  19.845   4.338   6.150
 9561POPC   GL265522  19.762   4.182   6.150
 9561POPC   C1A65523  19.857   4.292   6.450
 9561POPC   D2A65524  19.858   4.277   6.750
 9561POPC   C3A65525  19.859   4.343   7.050
 9561POPC   C4A65526  19.850   4.279   7.350
 9561POPC   C1B65527  19.681   4.112   6.450
 9561POPC   C2B65528  19.646   4.144   6.750
 9561POPC   C3B65529  19.712   4.064   7.050
 9561POPC   C4B65530  19.739   4.121   7.350
 9562POPC   NC365531  17.500  12.094   5.550
 9562POPC   PO465532  17.528  12.033   5.850
 9562POPC   GL165533  17.470  12.111   6.150
 9562POPC   GL265534  17.423  12.216   6.150
 9562POPC   C1A65535  17.533  12.045   6.450
 9562POPC   D2A65536  17.469  12.063   6.750
 9562POPC   C3A65537  17.511  12.033   7.050
 9562POPC   C4A65538  17.511  12.114   7.350
 9562POPC   C1B65539  17.365  12.319   6.450
 9562POPC   C2B65540  17.326  12.295   6.750
 9562POPC   C3B65541  17.397  12.284   7.050
 9562POPC   C4B65542  17.375  12.290   7.350
 9563POPC   NC365543  30.654  24.483   5.550
 9563POPC   PO465544  30.709  24.505   5.850
 9563POPC   GL165545  30.701  24.461   6.150
 9563POPC   GL265546  30.858  24.453   6.150
 9563POPC   C1A65547  30.654  24.487   6.450
 9563POPC   D2A65548  30.669  24.508   6.750
 9563POPC   C3A65549  30.681  24.524   7.050
 9563POPC   C4A65550  30.656  24.470   7.350
 9563POPC   C1B65551  30.933  24.442   6.450
 9563POPC   C2B65552  30.931  24.525   6.750
 9563POPC   C3B65553  30.916  24.464   7.050
 9563POPC   C4B65554  30.911  24.500   7.350
 9564POPC   NC365555  32.254   4.342   5.550
 9564POPC   PO465556  32.250   4.291   5.850
 9564POPC   GL165557  32.199   4.309   6.150
 9564POPC   GL265558  32.338   4.292   6.150
 9564POPC   C1A65559  32.278   4.317   6.450
 9564POPC   D2A65560  32.234   4.366   6.750
 9564POPC   C3A65561  32.227   4.268   7.050
 9564POPC   C4A65562  32.286   4.364   7.350
 9564POPC   C1B65563  32.461   4.310   6.450
 9564POPC   C2B65564  32.526   4.271   6.750
 9564POPC   C3B65565  32.542   4.290   7.050
 9564POPC   C4B65566  32.472   4.321   7.350
 9565POPC   NC365567  25.276  39.277   5.550
 9565POPC   PO465568  25.294  39.208   5.850
 9565POPC   GL165569  25.275  39.201   6.150
 9565POPC   GL265570  25.285  39.324   6.150
 9565POPC   C1A65571  25.262  39.198   6.450
 9565POPC   D2A65572  25.242  39.271   6.750
 9565POPC   C3A65573  25.267  39.261   7.050
 9565POPC   C4A65574  25.270  39.269   7.350
 9565POPC   C1B65575  25.190  39.465   6.450
 9565POPC   C2B65576  25.233  39.432   6.750
 9565POPC   C3B65577  25.264  39.481   7.050
 9565POPC   C4B65578  25.190  39.504   7.350
 9566POPC   NC365579  35.384  31.515   5.550
 9566POPC   PO465580  35.312  31.509   5.850
 9566POPC   GL165581  35.344  31.441   6.150
 9566POPC   GL265582  35.478  31.485   6.150
 9566POPC   C1A65583  35.344  31.429   6.450
 9566POPC   D2A65584  35.381  31.518   6.750
 9566POPC   C3A65585  35.377  31.437   7.050
 9566POPC   C4A65586  35.317  31.490   7.350
 9566POPC   C1B65587  35.568  31.521   6.450
 9566POPC   C2B65588  35.583  31.573   6.750
 9566POPC   C3B65589  35.579  31.550   7.050
 9566POPC   C4B65590  35.539  31.555   7.350
 9567POPC   NC365591  10.491  26.845   5.550
 9567POPC   PO465592  10.483  26.769   5.850
 9567POPC   GL165593  10.502  26.799   6.150
 9567POPC   GL265594  10.630  26.809   6.150
 9567POPC   C1A65595  10.571  26.806   6.450
 9567POPC   D2A65596  10.486  26.780   6.750
 9567POPC   C3A65597  10.518  26.850   7.050
 9567POPC   C4A65598  10.512  26.779   7.350
 9567POPC   C1B65599  10.777  26.709   6.450
 9567POPC   C2B65600  10.725  26.727   6.750
 9567POPC   C3B65601  10.800  26.697   7.050
 9567POPC   C4B65602  10.737  26.749   7.350
 9568POPC   NC365603  22.969  43.921   5.550
 9568POPC   PO465604  22.961  43.900   5.850
 9568POPC   GL165605  22.963  43.896   6.150
 9568POPC   GL265606  23.042  43.979   6.150
 9568POPC   C1A65607  22.960  43.860   6.450
 9568POPC   D2A65608  22.936  43.858   6.750
 9568POPC   C3A65609  22.918  43.895   7.050
 9568POPC   C4A65610  22.903  43.854   7.350
 9568POPC   C1B65611  23.207  43.956   6.450
 9568POPC   C2B65612  23.115  43.948   6.750
 9568POPC   C3B65613  23.210  43.976   7.050
 9568POPC   C4B65614  23.140  44.006   7.350
 9569POPC   NC365615   8.192   6.630   5.550
 9569POPC   PO465616   8.150   6.683   5.850
 9569POPC   GL165617   8.154   6.625   6.150
 9569POPC   GL265618   8.346   6.619   6.150
 9569POPC   C1A65619   8.227   6.651   6.450
 9569POPC   D2A65620   8.170   6.650   6.750
 9569POPC   C3A65621   8.227   6.627   7.050
 9569POPC   C4A65622   8.212   6.644   7.350
 9569POPC   C1B65623   8.475   6.585   6.450
 9569POPC   C2B65624   8.419   6.558   6.750
 9569POPC   C3B65625   8.398   6.610   7.050
 9569POPC   C4B65626   8.424   6.552   7.350
 9570POPC   NC365627  44.691  15.997   5.550
 9570POPC   PO465628  44.656  15.956   5.850
 9570POPC   GL165629  44.706  15.931   6.150
 9570POPC   GL265630  44.542  15.825   6.150
 9570POPC   C1A65631  44.688  15.967   6.450
 9570POPC   D2A65632  44.613  16.002   6.750
 9570POPC   C3A65633  44.672  15.938   7.050
 9570POPC   C4A65634  44.614  15.937   7.350
 9570POPC   C1B65635  44.530  15.784   6.450
 9570POPC   C2B65636  44.556  15.736   6.750
 9570POPC   C3B65637  44.545  15.757   7.050
 9570POPC   C4B65638  44.512  15.718   7.350
 9571POPC   NC365639  43.870  22.936   5.550
 9571POPC   PO465640  43.867  22.948   5.850
 9571POPC   GL165641  43.849  22.899   6.150
 9571POPC   GL265642  43.828  23.025   6.150
 9571POPC   C1A65643  43.866  22.919   6.450
 9571POPC   D2A65644  43.910  22.984   6.750
 9571POPC   C3A65645  43.884  22.914   7.050
 9571POPC   C4A65646  43.850  22.927   7.350
 9571POPC   C1B65647  43.740  23.210   6.450
 9571POPC   C2B65648  43.783  23.147   6.750
 9571POPC   C3B65649  43.814  23.158   7.050
 9571POPC   C4B65650  43.749  23.177   7.350
 9572POPC   NC365651   2.725  40.753   5.550
 9572POPC   PO465652   2.779  40.770   5.850
 9572POPC   GL165653   2.745  40.827   6.150
 9572POPC   GL265654   2.872  40.739   6.150
 9572POPC   C1A65655   2.799  40.794   6.450
 9572POPC   D2A65656   2.743  40.736   6.750
 9572POPC   C3A65657   2.749  40.749   7.050
 9572POPC   C4A65658   2.751  40.821   7.350
 9572POPC   C1B65659   3.053  40.830   6.450
 9572POPC   C2B65660   3.031  40.807   6.750
 9572POPC   C3B65661   2.988  40.791   7.050
 9572POPC   C4B65662   2.968  40.740   7.350
 9573POPC   NC365663  43.932  40.046   5.550
 9573POPC   PO465664  43.849  40.029   5.850
 9573POPC   GL165665  43.932  39.999   6.150
 9573POPC   GL265666  43.914  39.837   6.150
 9573POPC   C1A65667  43.921  39.984   6.450
 9573POPC   D2A65668  43.890  39.957   6.750
 9573POPC   C3A65669  43.888  40.049   7.050
 9573POPC   C4A65670  43.897  39.968   7.350
 9573POPC   C1B65671  43.905  39.788   6.450
 9573POPC   C2B65672  43.888  39.772   6.750
 9573POPC   C3B65673  43.929  39.784   7.050
 9573POPC   C4B65674  43.953  39.782   7.350
 9574POPC   NC365675  23.667   1.973   5.550
 9574POPC   PO465676  23.736   1.958   5.850
 9574POPC   GL165677  23.708   1.960   6.150
 9574POPC   GL265678  23.560   1.997   6.150
 9574POPC   C1A65679  23.746   1.979   6.450
 9574POPC   D2A65680  23.684   2.026   6.750
 9574POPC   C3A65681  23.664   2.036   7.050
 9574POPC   C4A65682  23.726   2.000   7.350
 9574POPC   C1B65683  23.516   2.006   6.450
 9574POPC   C2B65684  23.495   2.072   6.750
 9574POPC   C3B65685  23.445   2.045   7.050
 9574POPC   C4B65686  23.463   2.013   7.350
 9575POPC   NC365687  11.326  19.835   5.550
 9575POPC   PO465688  11.325  19.798   5.850
 9575POPC   GL165689  11.298  19.826   6.150
 9575POPC   GL265690  11.240  19.966   6.150
 9575POPC   C1A65691  11.293  19.827   6.450
 9575POPC   D2A65692  11.258  19.854   6.750
 9575POPC   C3A65693  11.252  19.820   7.050
 9575POPC   C4A65694  11.337  19.856   7.350
 9575POPC   C1B65695  11.254  20.059   6.450
 9575POPC   C2B65696  11.263  20.073   6.750
 9575POPC   C3B65697  11.248  20.068   7.050
 9575POPC   C4B65698  11.280  20.110   7.350
 9576POPC   NC365699  29.171  40.770   5.550
 9576POPC   PO465700  29.105  40.772   5.850
 9576POPC   GL165701  29.100  40.789   6.150
 9576POPC   GL265702  29.265  40.724   6.150
 9576POPC   C1A65703  29.163  40.821   6.450
 9576POPC   D2A65704  29.119  40.778   6.750
 9576POPC   C3A65705  29.192  40.741   7.050
 9576POPC   C4A65706  29.186  40.798   7.350
 9576POPC   C1B65707  29.307  40.651   6.450
 9576POPC   C2B65708  29.272  40.625   6.750
 9576POPC   C3B65709  29.362  40.627   7.050
 9576POPC   C4B65710  29.313  40.649   7.350
 9577POPC   NC365711  27.614  20.573   5.550
 9577POPC   PO465712  27.642  20.617   5.850
 9577POPC   GL165713  27.573  20.562   6.150
 9577POPC   GL265714  27.592  20.497   6.150
 9577POPC   C1A65715  27.553  20.642   6.450
 9577POPC   D2A65716  27.545  20.634   6.750
 9577POPC   C3A65717  27.601  20.569   7.050
 9577POPC   C4A65718  27.608  20.642   7.350
 9577POPC   C1B65719  27.618  20.316   6.450
 9577POPC   C2B65720  27.664  20.337   6.750
 9577POPC   C3B65721  27.634  20.312   7.050
 9577POPC   C4B65722  27.663  20.337   7.350
 9578POPC   NC365723   4.311   5.069   5.550
 9578POPC   PO465724   4.367   5.057   5.850
 9578POPC   GL165725   4.284   5.084   6.150
 9578POPC   GL265726   4.425   5.186   6.150
 9578POPC   C1A65727   4.329   5.059   6.450
 9578POPC   D2A65728   4.353   5.075   6.750
 9578POPC   C3A65729   4.332   5.061   7.050
 9578POPC   C4A65730   4.349   5.087   7.350
 9578POPC   C1B65731   4.568   5.240   6.450
 9578POPC   C2B65732   4.551   5.190   6.750
 9578POPC   C3B65733   4.540   5.221   7.050
 9578POPC   C4B65734   4.520   5.246   7.350
 9579POPC   NC365735   6.660  17.537   5.550
 9579POPC   PO465736   6.671  17.469   5.850
 9579POPC   GL165737   6.676  17.532   6.150
 9579POPC   GL265738   6.593  17.558   6.150
 9579POPC   C1A65739   6.690  17.470   6.450
 9579POPC   D2A65740   6.665  17.520   6.750
 9579POPC   C3A65741   6.649  17.519   7.050
 9579POPC   C4A65742   6.603  17.476   7.350
 9579POPC   C1B65743   6.452  17.632   6.450
 9579POPC   C2B65744   6.446  17.664   6.750
 9579POPC   C3B65745   6.487  17.701   7.050
 9579POPC   C4B65746   6.456  17.620   7.350
 9580POPC   NC365747  22.949  12.049   5.550
 9580POPC   PO465748  22.935  12.061   5.850
 9580POPC   GL165749  22.951  12.052   6.150
 9580POPC   GL265750  23.007  12.147   6.150
 9580POPC   C1A65751  22.929  12.099   6.450
 9580POPC   D2A65752  22.896  12.071   6.750
 9580POPC   C3A65753  22.986  12.087   7.050
 9580POPC   C4A65754  22.919  12.039   7.350
 9580POPC   C1B65755  23.196  12.246   6.450
 9580POPC   C2B65756  23.129  12.214   6.750
 9580POPC   C3B65757  23.101  12.194   7.050
 9580POPC   C4B65758  23.113  12.243   7.350
 9581POPC   NC365759   8.943  34.533   5.550
 9581POPC   PO465760   9.016  34.600   5.850
 9581POPC   GL165761   9.003  34.610   6.150
 9581POPC   GL265762   8.943  34.681   6.150
 9581POPC   C1A65763   8.967  34.594   6.450
 9581POPC   D2A65764   8.960  34.560   6.750
 9581POPC   C3A65765   8.980  34.610   7.050
 9581POPC   C4A65766   8.995  34.589   7.350
 9581POPC   C1B65767   8.984  34.831   6.450
 9581POPC   C2B65768   8.901  34.854   6.750
 9581POPC   C3B65769   8.949  34.801   7.050
 9581POPC   C4B65770   8.967  34.865   7.350
 9582POPC   NC365771  34.611   5.075   5.550
 9582POPC   PO465772  34.577   5.128   5.850
 9582POPC   GL165773  34.605   5.070   6.150
 9582POPC   GL265774  34.456   5.158   6.150
 9582POPC   C1A65775  34.536   5.130   6.450
 9582POPC   D2A65776  34.592   5.119   6.750
 9582POPC   C3A65777  34.621   5.051   7.050
 9582POPC   C4A65778  34.613   5.111   7.350
 9582POPC   C1B65779  34.358   5.205   6.450
 9582POPC   C2B65780  34.327   5.218   6.750
 9582POPC   C3B65781  34.297   5.220   7.050
 9582POPC   C4B65782  34.381   5.171   7.350
 9583POPC   NC365783  36.952   7.411   5.550
 9583POPC   PO465784  36.854   7.439   5.850
 9583POPC   GL165785  36.888   7.430   6.150
 9583POPC   GL265786  37.052   7.383   6.150
 9583POPC   C1A65787  36.895   7.405   6.450
 9583POPC   D2A65788  36.888   7.432   6.750
 9583POPC   C3A65789  36.941   7.383   7.050
 9583POPC   C4A65790  36.936   7.390   7.350
 9583POPC   C1B65791  37.161   7.395   6.450
 9583POPC   C2B65792  37.114   7.351   6.750
 9583POPC   C3B65793  37.099   7.365   7.050
 9583POPC   C4B65794  37.152   7.346   7.350
 9584POPC   NC365795  43.920  27.617   5.550
 9584POPC   PO465796  43.852  27.575   5.850
 9584POPC   GL165797  43.869  27.544   6.150
 9584POPC   GL265798  43.779  27.669   6.150
 9584POPC   C1A65799  43.916  27.568   6.450
 9584POPC   D2A65800  43.875  27.593   6.750
 9584POPC   C3A65801  43.936  27.613   7.050
 9584POPC   C4A65802  43.860  27.582   7.350
 9584POPC   C1B65803  43.696  27.791   6.450
 9584POPC   C2B65804  43.678  27.739   6.750
 9584POPC   C3B65805  43.669  27.791   7.050
 9584POPC   C4B65806  43.685  27.777   7.350
 9585POPC   NC365807  35.370  21.433   5.550
 9585POPC   PO465808  35.390  21.414   5.850
 9585POPC   GL165809  35.335  21.362   6.150
 9585POPC   GL265810  35.371  21.267   6.150
 9585POPC   C1A65811  35.326  21.402   6.450
 9585POPC   D2A65812  35.341  21.392   6.750
 9585POPC   C3A65813  35.320  21.337   7.050
 9585POPC   C4A65814  35.384  21.428   7.350
 9585POPC   C1B65815  35.469  21.143   6.450
 9585POPC   C2B65816  35.454  21.206   6.750
 9585POPC   C3B65817  35.433  21.170   7.050
 9585POPC   C4B65818  35.471  21.143   7.350
 9586POPC   NC365819  29.893  11.278   5.550
 9586POPC   PO465820  29.944  11.264   5.850
 9586POPC   GL165821  29.918  11.337   6.150
 9586POPC   GL265822  30.035  11.333   6.150
 9586POPC   C1A65823  29.927  11.342   6.450
 9586POPC   D2A65824  29.959  11.265   6.750
 9586POPC   C3A65825  29.922  11.290   7.050
 9586POPC   C4A65826  29.970  11.303   7.350
 9586POPC   C1B65827  30.132  11.478   6.450
 9586POPC   C2B65828  30.110  11.472   6.750
 9586POPC   C3B65829  30.149  11.492   7.050
 9586POPC   C4B65830  30.172  11.489   7.350
 9587POPC   NC365831  43.896  17.466   5.550
 9587POPC   PO465832  43.890  17.502   5.850
 9587POPC   GL165833  43.836  17.476   6.150
 9587POPC   GL265834  43.962  17.362   6.150
 9587POPC   C1A65835  43.929  17.538   6.450
 9587POPC   D2A65836  43.842  17.545   6.750
 9587POPC   C3A65837  43.905  17.551   7.050
 9587POPC   C4A65838  43.858  17.549   7.350
 9587POPC   C1B65839  43.939  17.287   6.450
 9587POPC   C2B65840  43.920  17.240   6.750
 9587POPC   C3B65841  43.952  17.279   7.050
 9587POPC   C4B65842  43.966  17.256   7.350
 9588POPC   NC365843  31.444  30.649   5.550
 9588POPC   PO465844  31.461  30.725   5.850
 9588POPC   GL165845  31.458  30.653   6.150
 9588POPC   GL265846  31.554  30.730   6.150
 9588POPC   C1A65847  31.481  30.721   6.450
 9588POPC   D2A65848  31.510  30.685   6.750
 9588POPC   C3A65849  31.480  30.716   7.050
 9588POPC   C4A65850  31.512  30.714   7.350
 9588POPC   C1B65851  31.688  30.819   6.450
 9588POPC   C2B65852  31.665  30.855   6.750
 9588POPC   C3B65853  31.657  30.810   7.050
 9588POPC   C4B65854  31.697  30.802   7.350
 9589POPC   NC365855  14.430   2.023   5.550
 9589POPC   PO465856  14.404   2.039   5.850
 9589POPC   GL165857  14.413   1.998   6.150
 9589POPC   GL265858  14.332   2.070   6.150
 9589POPC   C1A65859  14.354   1.972   6.450
 9589POPC   D2A65860  14.397   1.943   6.750
 9589POPC   C3A65861  14.385   1.944   7.050
 9589POPC   C4A65862  14.439   2.037   7.350
 9589POPC   C1B65863  14.131   2.054   6.450
 9589POPC   C2B65864  14.183   2.064   6.750
 9589POPC   C3B65865  14.199   2.072   7.050
 9589POPC   C4B65866  14.160   2.074   7.350
 9590POPC   NC365867  44.621  12.882   5.550
 9590POPC   PO465868  44.666  12.818   5.850
 9590POPC   GL165869  44.690  12.842   6.150
 9590POPC   GL265870  44.615  12.988   6.150
 9590POPC   C1A65871  44.681  12.871   6.450
 9590POPC   D2A65872  44.647  12.802   6.750
 9590POPC   C3A65873  44.632  12.856   7.050
 9590POPC   C4A65874  44.664  12.842   7.350
 9590POPC   C1B65875  44.666  13.085   6.450
 9590POPC   C2B65876  44.656  13.069   6.750
 9590POPC   C3B65877  44.675  13.085   7.050
 9590POPC   C4B65878  44.617  13.104   7.350
 9591POPC   NC365879  36.121   4.348   5.550
 9591POPC   PO465880  36.110   4.317   5.850
 9591POPC   GL165881  36.100   4.319   6.150
 9591POPC   GL265882  36.153   4.405   6.150
 9591POPC   C1A65883  36.103   4.287   6.450
 9591POPC   D2A65884  36.092   4.315   6.750
 9591POPC   C3A65885  36.127   4.318   7.050
 9591POPC   C4A65886  36.174   4.290   7.350
 9591POPC   C1B65887  36.297   4.494   6.450
 9591POPC   C2B65888  36.296   4.491   6.750
 9591POPC   C3B65889  36.306   4.510   7.050
 9591POPC   C4B65890  36.267   4.482   7.350
 9592POPC   NC365891  11.284  27.574   5.550
 9592POPC   PO465892  11.255  27.618   5.850
 9592POPC   GL165893  11.277  27.548   6.150
 9592POPC   GL265894  11.304  27.750   6.150
 9592POPC   C1A65895  11.292  27.556   6.450
 9592POPC   D2A65896  11.294  27.593   6.750
 9592POPC   C3A65897  11.322  27.626   7.050
 9592POPC   C4A65898  11.324  27.607   7.350
 9592POPC   C1B65899  11.326  27.831   6.450
 9592POPC   C2B65900  11.314  27.873   6.750
 9592POPC   C3B65901  11.244  27.869   7.050
 9592POPC   C4B65902  11.338  27.889   7.350
 9593POPC   NC365903  27.585  26.005   5.550
 9593POPC   PO465904  27.638  26.050   5.850
 9593POPC   GL165905  27.554  26.052   6.150
 9593POPC   GL265906  27.515  26.165   6.150
 9593POPC   C1A65907  27.601  25.997   6.450
 9593POPC   D2A65908  27.626  26.017   6.750
 9593POPC   C3A65909  27.565  26.033   7.050
 9593POPC   C4A65910  27.557  26.068   7.350
 9593POPC   C1B65911  27.436  26.147   6.450
 9593POPC   C2B65912  27.414  26.148   6.750
 9593POPC   C3B65913  27.418  26.206   7.050
 9593POPC   C4B65914  27.350  26.184   7.350
 9594POPC   NC365915  14.396  18.264   5.550
 9594POPC   PO465916  14.414  18.274   5.850
 9594POPC   GL165917  14.421  18.322   6.150
 9594POPC   GL265918  14.472  18.439   6.150
 9594POPC   C1A65919  14.378  18.299   6.450
 9594POPC   D2A65920  14.414  18.241   6.750
 9594POPC   C3A65921  14.430  18.262   7.050
 9594POPC   C4A65922  14.409  18.280   7.350
 9594POPC   C1B65923  14.460  18.505   6.450
 9594POPC   C2B65924  14.510  18.516   6.750
 9594POPC   C3B65925  14.470  18.561   7.050
 9594POPC   C4B65926  14.509  18.479   7.350
 9595POPC   NC365927  16.724  16.702   5.550
 9595POPC   PO465928  16.681  16.706   5.850
 9595POPC   GL165929  16.739  16.693   6.150
 9595POPC   GL265930  16.655  16.760   6.150
 9595POPC   C1A65931  16.705  16.767   6.450
 9595POPC   D2A65932  16.720  16.760   6.750
 9595POPC   C3A65933  16.745  16.757   7.050
 9595POPC   C4A65934  16.691  16.735   7.350
 9595POPC   C1B65935  16.484  16.715   6.450
 9595POPC   C2B65936  16.515  16.707   6.750
 9595POPC   C3B65937  16.455  16.640   7.050
 9595POPC   C4B65938  16.444  16.663   7.350
 9596POPC   NC365939  33.020  43.844   5.550
 9596POPC   PO465940  33.064  43.844   5.850
 9596POPC   GL165941  33.050  43.853   6.150
 9596POPC   GL265942  32.932  43.736   6.150
 9596POPC   C1A65943  33.000  43.870   6.450
 9596POPC   D2A65944  33.001  43.923   6.750
 9596POPC   C3A65945  33.006  43.853   7.050
 9596POPC   C4A65946  33.025  43.935   7.350
 9596POPC   C1B65947  32.921  43.691   6.450
 9596POPC   C2B65948  32.894  43.699   6.750
 9596POPC   C3B65949  32.920  43.712   7.050
 9596POPC   C4B65950  32.911  43.695   7.350
 9597POPC   NC365951  11.291   5.142   5.550
 9597POPC   PO465952  11.320   5.102   5.850
 9597POPC   GL165953  11.345   5.134   6.150
 9597POPC   GL265954  11.332   4.952   6.150
 9597POPC   C1A65955  11.285   5.143   6.450
 9597POPC   D2A65956  11.337   5.079   6.750
 9597POPC   C3A65957  11.307   5.110   7.050
 9597POPC   C4A65958  11.256   5.121   7.350
 9597POPC   C1B65959  11.403   4.819   6.450
 9597POPC   C2B65960  11.332   4.850   6.750
 9597POPC   C3B65961  11.318   4.815   7.050
 9597POPC   C4B65962  11.355   4.855   7.350
 9598POPC   NC365963  37.691   8.979   5.550
 9598POPC   PO465964  37.670   8.940   5.850
 9598POPC   GL165965  37.660   8.939   6.150
 9598POPC   GL265966  37.597   8.926   6.150
 9598POPC   C1A65967  37.728   8.987   6.450
 9598POPC   D2A65968  37.672   8.923   6.750
 9598POPC   C3A65969  37.706   8.980   7.050
 9598POPC   C4A65970  37.705   9.022   7.350
 9598POPC   C1B65971  37.497   8.819   6.450
 9598POPC   C2B65972  37.468   8.872   6.750
 9598POPC   C3B65973  37.455   8.831   7.050
 9598POPC   C4B65974  37.489   8.853   7.350
 9599POPC   NC365975   9.699  17.470   5.550
 9599POPC   PO465976   9.768  17.536   5.850
 9599POPC   GL165977   9.705  17.470   6.150
 9599POPC   GL265978   9.666  17.388   6.150
 9599POPC   C1A65979   9.753  17.545   6.450
 9599POPC   D2A65980   9.777  17.552   6.750
 9599POPC   C3A65981   9.734  17.459   7.050
 9599POPC   C4A65982   9.772  17.521   7.350
 9599POPC   C1B65983   9.656  17.277   6.450
 9599POPC   C2B65984   9.712  17.252   6.750
 9599POPC   C3B65985   9.689  17.305   7.050
 9599POPC   C4B65986   9.692  17.238   7.350
 9600POPC   NC365987  38.486  26.792   5.550
 9600POPC   PO465988  38.489  26.808   5.850
 9600POPC   GL165989  38.473  26.850   6.150
 9600POPC   GL265990  38.332  26.836   6.150
 9600POPC   C1A65991  38.432  26.813   6.450
 9600POPC   D2A65992  38.406  26.837   6.750
 9600POPC   C3A65993  38.485  26.849   7.050
 9600POPC   C4A65994  38.406  26.796   7.350
 9600POPC   C1B65995  38.231  26.798   6.450
 9600POPC   C2B65996  38.259  26.737   6.750
 9600POPC   C3B65997  38.204  26.762   7.050
 9600POPC   C4B65998  38.256  26.749   7.350
 9601POPC   NC365999  26.076  23.686   5.550
 9601POPC   PO466000  26.030  23.714   5.850
 9601POPC   GL166001  26.089  23.678   6.150
 9601POPC   GL266002  26.151  23.747   6.150
 9601POPC   C1A66003  26.031  23.740   6.450
 9601POPC   D2A66004  26.087  23.735   6.750
 9601POPC   C3A66005  26.044  23.679   7.050
 9601POPC   C4A66006  26.060  23.692   7.350
 9601POPC   C1B66007  26.258  23.738   6.450
 9601POPC   C2B66008  26.306  23.650   6.750
 9601POPC   C3B66009  26.277  23.701   7.050
 9601POPC   C4B66010  26.254  23.725   7.350
 9602POPC   NC366011  39.251   5.841   5.550
 9602POPC   PO466012  39.256   5.838   5.850
 9602POPC   GL166013  39.216   5.841   6.150
 9602POPC   GL266014  39.207   5.796   6.150
 9602POPC   C1A66015  39.240   5.866   6.450
 9602POPC   D2A66016  39.182   5.866   6.750
 9602POPC   C3A66017  39.264   5.841   7.050
 9602POPC   C4A66018  39.181   5.840   7.350
 9602POPC   C1B66019  39.108   5.610   6.450
 9602POPC   C2B66020  39.110   5.687   6.750
 9602POPC   C3B66021  39.067   5.618   7.050
 9602POPC   C4B66022  39.136   5.653   7.350
 9603POPC   NC366023   9.786   7.390   5.550
 9603POPC   PO466024   9.744   7.452   5.850
 9603POPC   GL166025   9.707   7.461   6.150
 9603POPC   GL266026   9.672   7.411   6.150
 9603POPC   C1A66027   9.790   7.452   6.450
 9603POPC   D2A66028   9.790   7.440   6.750
 9603POPC   C3A66029   9.749   7.375   7.050
 9603POPC   C4A66030   9.746   7.378   7.350
 9603POPC   C1B66031   9.556   7.331   6.450
 9603POPC   C2B66032   9.506   7.361   6.750
 9603POPC   C3B66033   9.561   7.334   7.050
 9603POPC   C4B66034   9.519   7.284   7.350
 9604POPC   NC366035  26.048  22.190   5.550
 9604POPC   PO466036  25.999  22.186   5.850
 9604POPC   GL166037  26.076  22.142   6.150
 9604POPC   GL266038  25.959  22.083   6.150
 9604POPC   C1A66039  26.070  22.126   6.450
 9604POPC   D2A66040  26.058  22.146   6.750
 9604POPC   C3A66041  26.079  22.180   7.050
 9604POPC   C4A66042  26.043  22.192   7.350
 9604POPC   C1B66043  25.958  21.979   6.450
 9604POPC   C2B66044  25.967  21.950   6.750
 9604POPC   C3B66045  25.936  21.939   7.050
 9604POPC   C4B66046  25.968  21.937   7.350
 9605POPC   NC366047  37.635  38.408   5.550
 9605POPC   PO466048  37.649  38.468   5.850
 9605POPC   GL166049  37.727  38.469   6.150
 9605POPC   GL266050  37.589  38.550   6.150
 9605POPC   C1A66051  37.669  38.479   6.450
 9605POPC   D2A66052  37.729  38.483   6.750
 9605POPC   C3A66053  37.653  38.452   7.050
 9605POPC   C4A66054  37.711  38.467   7.350
 9605POPC   C1B66055  37.465  38.533   6.450
 9605POPC   C2B66056  37.476  38.570   6.750
 9605POPC   C3B66057  37.438  38.611   7.050
 9605POPC   C4B66058  37.511  38.545   7.350
 9606POPC   NC366059  26.778  19.016   5.550
 9606POPC   PO466060  26.772  19.101   5.850
 9606POPC   GL166061  26.783  19.033   6.150
 9606POPC   GL266062  26.810  19.157   6.150
 9606POPC   C1A66063  26.836  19.088   6.450
 9606POPC   D2A66064  26.808  19.104   6.750
 9606POPC   C3A66065  26.826  19.038   7.050
 9606POPC   C4A66066  26.783  19.073   7.350
 9606POPC   C1B66067  26.727  19.290   6.450
 9606POPC   C2B66068  26.786  19.310   6.750
 9606POPC   C3B66069  26.742  19.292   7.050
 9606POPC   C4B66070  26.781  19.341   7.350
 9607POPC   NC366071  34.566  33.778   5.550
 9607POPC   PO466072  34.537  33.836   5.850
 9607POPC   GL166073  34.564  33.809   6.150
 9607POPC   GL266074  34.466  33.863   6.150
 9607POPC   C1A66075  34.554  33.783   6.450
 9607POPC   D2A66076  34.587  33.809   6.750
 9607POPC   C3A66077  34.581  33.822   7.050
 9607POPC   C4A66078  34.575  33.773   7.350
 9607POPC   C1B66079  34.480  34.029   6.450
 9607POPC   C2B66080  34.470  34.033   6.750
 9607POPC   C3B66081  34.427  34.008   7.050
 9607POPC   C4B66082  34.402  33.990   7.350
 9608POPC   NC366083   1.941  29.130   5.550
 9608POPC   PO466084   2.006  29.186   5.850
 9608POPC   GL166085   2.035  29.168   6.150
 9608POPC   GL266086   2.019  29.031   6.150
 9608POPC   C1A66087   1.983  29.130   6.450
 9608POPC   D2A66088   1.980  29.101   6.750
 9608POPC   C3A66089   1.950  29.144   7.050
 9608POPC   C4A66090   1.987  29.163   7.350
 9608POPC   C1B66091   2.061  28.886   6.450
 9608POPC   C2B66092   2.047  28.930   6.750
 9608POPC   C3B66093   2.065  28.881   7.050
 9608POPC   C4B66094   1.985  28.878   7.350
 9609POPC   NC366095  23.689  12.823   5.550
 9609POPC   PO466096  23.688  12.809   5.850
 9609POPC   GL166097  23.690  12.808   6.150
 9609POPC   GL266098  23.566  12.864   6.150
 9609POPC   C1A66099  23.698  12.845   6.450
 9609POPC   D2A66100  23.720  12.850   6.750
 9609POPC   C3A66101  23.735  12.862   7.050
 9609POPC   C4A66102  23.731  12.887   7.350
 9609POPC   C1B66103  23.423  12.776   6.450
 9609POPC   C2B66104  23.463  12.778   6.750
 9609POPC   C3B66105  23.510  12.797   7.050
 9609POPC   C4B66106  23.436  12.835   7.350
 9610POPC   NC366107  15.944   8.224   5.550
 9610POPC   PO466108  15.976   8.234   5.850
 9610POPC   GL166109  15.963   8.220   6.150
 9610POPC   GL266110  15.882   8.065   6.150
 9610POPC   C1A66111  15.947   8.233   6.450
 9610POPC   D2A66112  15.948   8.240   6.750
 9610POPC   C3A66113  15.994   8.205   7.050
 9610POPC   C4A66114  15.960   8.173   7.350
 9610POPC   C1B66115  15.774   8.013   6.450
 9610POPC   C2B66116  15.826   8.001   6.750
 9610POPC   C3B66117  15.842   8.003   7.050
 9610POPC   C4B66118  15.845   7.971   7.350
 9611POPC   NC366119  19.808   2.783   5.550
 9611POPC   PO466120  19.796   2.740   5.850
 9611POPC   GL166121  19.860   2.805   6.150
 9611POPC   GL266122  19.770   2.853   6.150
 9611POPC   C1A66123  19.863   2.789   6.450
 9611POPC   D2A66124  19.827   2.736   6.750
 9611POPC   C3A66125  19.813   2.776   7.050
 9611POPC   C4A66126  19.804   2.750   7.350
 9611POPC   C1B66127  19.675   2.920   6.450
 9611POPC   C2B66128  19.695   2.925   6.750
 9611POPC   C3B66129  19.642   2.962   7.050
 9611POPC   C4B66130  19.656   2.945   7.350
 9612POPC   NC366131  27.584  28.335   5.550
 9612POPC   PO466132  27.640  28.340   5.850
 9612POPC   GL166133  27.592  28.360   6.150
 9612POPC   GL266134  27.460  28.232   6.150
 9612POPC   C1A66135  27.591  28.406   6.450
 9612POPC   D2A66136  27.633  28.409   6.750
 9612POPC   C3A66137  27.638  28.373   7.050
 9612POPC   C4A66138  27.553  28.371   7.350
 9612POPC   C1B66139  27.409  28.153   6.450
 9612POPC   C2B66140  27.396  28.145   6.750
 9612POPC   C3B66141  27.426  28.191   7.050
 9612POPC   C4B66142  27.378  28.226   7.350
 9613POPC   NC366143  27.578  39.223   5.550
 9613POPC   PO466144  27.567  39.197   5.850
 9613POPC   GL166145  27.577  39.270   6.150
 9613POPC   GL266146  27.523  39.289   6.150
 9613POPC   C1A66147  27.596  39.197   6.450
 9613POPC   D2A66148  27.631  39.209   6.750
 9613POPC   C3A66149  27.545  39.184   7.050
 9613POPC   C4A66150  27.545  39.215   7.350
 9613POPC   C1B66151  27.411  39.343   6.450
 9613POPC   C2B66152  27.365  39.335   6.750
 9613POPC   C3B66153  27.374  39.371   7.050
 9613POPC   C4B66154  27.429  39.334   7.350
 9614POPC   NC366155  13.614  36.942   5.550
 9614POPC   PO466156  13.640  36.934   5.850
 9614POPC   GL166157  13.625  36.860   6.150
 9614POPC   GL266158  13.711  36.795   6.150
 9614POPC   C1A66159  13.582  36.926   6.450
 9614POPC   D2A66160  13.582  36.861   6.750
 9614POPC   C3A66161  13.649  36.916   7.050
 9614POPC   C4A66162  13.595  36.931   7.350
 9614POPC   C1B66163  13.758  36.654   6.450
 9614POPC   C2B66164  13.721  36.721   6.750
 9614POPC   C3B66165  13.787  36.703   7.050
 9614POPC   C4B66166  13.708  36.696   7.350
 9615POPC   NC366167  27.617  27.608   5.550
 9615POPC   PO466168  27.621  27.544   5.850
 9615POPC   GL166169  27.624  27.635   6.150
 9615POPC   GL266170  27.614  27.760   6.150
 9615POPC   C1A66171  27.642  27.611   6.450
 9615POPC   D2A66172  27.608  27.543   6.750
 9615POPC   C3A66173  27.547  27.570   7.050
 9615POPC   C4A66174  27.593  27.554   7.350
 9615POPC   C1B66175  27.577  27.880   6.450
 9615POPC   C2B66176  27.564  27.796   6.750
 9615POPC   C3B66177  27.590  27.862   7.050
 9615POPC   C4B66178  27.534  27.878   7.350
 9616POPC   NC366179  13.671  37.709   5.550
 9616POPC   PO466180  13.582  37.693   5.850
 9616POPC   GL166181  13.612  37.728   6.150
 9616POPC   GL266182  13.635  37.756   6.150
 9616POPC   C1A66183  13.592  37.671   6.450
 9616POPC   D2A66184  13.638  37.633   6.750
 9616POPC   C3A66185  13.603  37.687   7.050
 9616POPC   C4A66186  13.642  37.723   7.350
 9616POPC   C1B66187  13.610  37.976   6.450
 9616POPC   C2B66188  13.582  37.904   6.750
 9616POPC   C3B66189  13.632  37.927   7.050
 9616POPC   C4B66190  13.571  37.967   7.350
 9617POPC   NC366191  15.142  15.208   5.550
 9617POPC   PO466192  15.209  15.191   5.850
 9617POPC   GL166193  15.176  15.178   6.150
 9617POPC   GL266194  15.157  15.239   6.150
 9617POPC   C1A66195  15.212  15.203   6.450
 9617POPC   D2A66196  15.155  15.188   6.750
 9617POPC   C3A66197  15.222  15.159   7.050
 9617POPC   C4A66198  15.166  15.224   7.350
 9617POPC   C1B66199  15.051  15.354   6.450
 9617POPC   C2B66200  15.073  15.404   6.750
 9617POPC   C3B66201  15.025  15.351   7.050
 9617POPC   C4B66202  15.048  15.439   7.350
 9618POPC   NC366203   7.397  36.099   5.550
 9618POPC   PO466204   7.396  36.143   5.850
 9618POPC   GL166205   7.371  36.095   6.150
 9618POPC   GL266206   7.525  36.031   6.150
 9618POPC   C1A66207   7.432  36.098   6.450
 9618POPC   D2A66208   7.416  36.090   6.750
 9618POPC   C3A66209   7.371  36.085   7.050
 9618POPC   C4A66210   7.433  36.151   7.350
 9618POPC   C1B66211   7.613  36.054   6.450
 9618POPC   C2B66212   7.634  36.055   6.750
 9618POPC   C3B66213   7.690  36.039   7.050
 9618POPC   C4B66214   7.602  36.025   7.350
 9619POPC   NC366215  33.047  11.291   5.550
 9619POPC   PO466216  33.072  11.293   5.850
 9619POPC   GL166217  33.039  11.312   6.150
 9619POPC   GL266218  33.045  11.211   6.150
 9619POPC   C1A66219  32.991  11.304   6.450
 9619POPC   D2A66220  33.023  11.347   6.750
 9619POPC   C3A66221  33.002  11.323   7.050
 9619POPC   C4A66222  33.008  11.332   7.350
 9619POPC   C1B66223  33.115  11.031   6.450
 9619POPC   C2B66224  33.061  11.047   6.750
 9619POPC   C3B66225  33.140  11.106   7.050
 9619POPC   C4B66226  33.093  11.024   7.350
 9620POPC   NC366227  14.354  33.797   5.550
 9620POPC   PO466228  14.407  33.775   5.850
 9620POPC   GL166229  14.404  33.824   6.150
 9620POPC   GL266230  14.256  33.833   6.150
 9620POPC   C1A66231  14.369  33.798   6.450
 9620POPC   D2A66232  14.387  33.787   6.750
 9620POPC   C3A66233  14.365  33.791   7.050
 9620POPC   C4A66234  14.374  33.791   7.350
 9620POPC   C1B66235  14.137  33.851   6.450
 9620POPC   C2B66236  14.188  33.846   6.750
 9620POPC   C3B66237  14.112  33.817   7.050
 9620POPC   C4B66238  14.180  33.851   7.350
 9621POPC   NC366239  20.636  12.082   5.550
 9621POPC   PO466240  20.659  12.102   5.850
 9621POPC   GL166241  20.620  12.092   6.150
 9621POPC   GL266242  20.630  12.221   6.150
 9621POPC   C1A66243  20.588  12.099   6.450
 9621POPC   D2A66244  20.604  12.038   6.750
 9621POPC   C3A66245  20.644  12.098   7.050
 9621POPC   C4A66246  20.652  12.084   7.350
 9621POPC   C1B66247  20.590  12.345   6.450
 9621POPC   C2B66248  20.573  12.279   6.750
 9621POPC   C3B66249  20.567  12.367   7.050
 9621POPC   C4B66250  20.626  12.295   7.350
 9622POPC   NC366251  33.013  42.342   5.550
 9622POPC   PO466252  33.049  42.309   5.850
 9622POPC   GL166253  33.008  42.348   6.150
 9622POPC   GL266254  33.037  42.420   6.150
 9622POPC   C1A66255  33.037  42.339   6.450
 9622POPC   D2A66256  33.050  42.358   6.750
 9622POPC   C3A66257  33.018  42.327   7.050
 9622POPC   C4A66258  33.040  42.291   7.350
 9622POPC   C1B66259  33.085  42.609   6.450
 9622POPC   C2B66260  33.066  42.582   6.750
 9622POPC   C3B66261  33.066  42.553   7.050
 9622POPC   C4B66262  33.087  42.606   7.350
 9623POPC   NC366263  42.381  11.264   5.550
 9623POPC   PO466264  42.301  11.324   5.850
 9623POPC   GL166265  42.326  11.341   6.150
 9623POPC   GL266266  42.243  11.238   6.150
 9623POPC   C1A66267  42.333  11.308   6.450
 9623POPC   D2A66268  42.366  11.348   6.750
 9623POPC   C3A66269  42.320  11.258   7.050
 9623POPC   C4A66270  42.296  11.253   7.350
 9623POPC   C1B66271  42.107  11.236   6.450
 9623POPC   C2B66272  42.057  11.241   6.750
 9623POPC   C3B66273  42.082  11.244   7.050
 9623POPC   C4B66274  42.059  11.183   7.350
 9624POPC   NC366275  29.149  13.584   5.550
 9624POPC   PO466276  29.172  13.579   5.850
 9624POPC   GL166277  29.156  13.595   6.150
 9624POPC   GL266278  29.121  13.475   6.150
 9624POPC   C1A66279  29.140  13.638   6.450
 9624POPC   D2A66280  29.167  13.608   6.750
 9624POPC   C3A66281  29.136  13.607   7.050
 9624POPC   C4A66282  29.100  13.611   7.350
 9624POPC   C1B66283  29.172  13.377   6.450
 9624POPC   C2B66284  29.189  13.398   6.750
 9624POPC   C3B66285  29.148  13.356   7.050
 9624POPC   C4B66286  29.215  13.361   7.350
 9625POPC   NC366287  43.125   4.293   5.550
 9625POPC   PO466288  43.152   4.272   5.850
 9625POPC   GL166289  43.063   4.350   6.150
 9625POPC   GL266290  43.006   4.264   6.150
 9625POPC   C1A66291  43.074   4.337   6.450
 9625POPC   D2A66292  43.121   4.270   6.750
 9625POPC   C3A66293  43.129   4.328   7.050
 9625POPC   C4A66294  43.063   4.366   7.350
 9625POPC   C1B66295  42.871   4.131   6.450
 9625POPC   C2B66296  42.940   4.190   6.750
 9625POPC   C3B66297  42.912   4.185   7.050
 9625POPC   C4B66298  42.872   4.161   7.350
 9626POPC   NC366299  41.603   3.554   5.550
 9626POPC   PO466300  41.542   3.506   5.850
 9626POPC   GL166301  41.608   3.560   6.150
 9626POPC   GL266302  41.575   3.689   6.150
 9626POPC   C1A66303  41.511   3.579   6.450
 9626POPC   D2A66304  41.588   3.584   6.750
 9626POPC   C3A66305  41.519   3.539   7.050
 9626POPC   C4A66306  41.600   3.528   7.350
 9626POPC   C1B66307  41.663   3.709   6.450
 9626POPC   C2B66308  41.683   3.781   6.750
 9626POPC   C3B66309  41.712   3.796   7.050
 9626POPC   C4B66310  41.715   3.726   7.350
 9627POPC   NC366311  36.937  16.748   5.550
 9627POPC   PO466312  36.942  16.683   5.850
 9627POPC   GL166313  36.856  16.780   6.150
 9627POPC   GL266314  37.032  16.659   6.150
 9627POPC   C1A66315  36.859  16.759   6.450
 9627POPC   D2A66316  36.924  16.773   6.750
 9627POPC   C3A66317  36.881  16.770   7.050
 9627POPC   C4A66318  36.946  16.759   7.350
 9627POPC   C1B66319  37.062  16.577   6.450
 9627POPC   C2B66320  37.126  16.591   6.750
 9627POPC   C3B66321  37.077  16.576   7.050
 9627POPC   C4B66322  37.032  16.572   7.350
 9628POPC   NC366323  19.819   8.953   5.550
 9628POPC   PO466324  19.823   9.013   5.850
 9628POPC   GL166325  19.844   8.933   6.150
 9628POPC   GL266326  19.988   9.010   6.150
 9628POPC   C1A66327  19.871   8.971   6.450
 9628POPC   D2A66328  19.822   9.012   6.750
 9628POPC   C3A66329  19.842   8.977   7.050
 9628POPC   C4A66330  19.836   8.954   7.350
 9628POPC   C1B66331  20.091   9.111   6.450
 9628POPC   C2B66332  20.044   9.052   6.750
 9628POPC   C3B66333  20.016   9.108   7.050
 9628POPC   C4B66334  20.021   9.064   7.350
 9629POPC   NC366335   7.394   1.971   5.550
 9629POPC   PO466336   7.427   2.019   5.850
 9629POPC   GL166337   7.431   2.013   6.150
 9629POPC   GL266338   7.332   2.080   6.150
 9629POPC   C1A66339   7.431   2.032   6.450
 9629POPC   D2A66340   7.389   2.008   6.750
 9629POPC   C3A66341   7.393   2.020   7.050
 9629POPC   C4A66342   7.438   2.015   7.350
 9629POPC   C1B66343   7.205   2.127   6.450
 9629POPC   C2B66344   7.161   2.113   6.750
 9629POPC   C3B66345   7.214   2.042   7.050
 9629POPC   C4B66346   7.194   2.075   7.350
 9630POPC   NC366347   5.838  21.370   5.550
 9630POPC   PO466348   5.876  21.417   5.850
 9630POPC   GL166349   5.899  21.407   6.150
 9630POPC   GL266350   5.936  21.274   6.150
 9630POPC   C1A66351   5.856  21.419   6.450
 9630POPC   D2A66352   5.894  21.404   6.750
 9630POPC   C3A66353   5.915  21.420   7.050
 9630POPC   C4A66354   5.859  21.394   7.350
 9630POPC   C1B66355   6.007  21.211   6.450
 9630POPC   C2B66356   5.985  21.228   6.750
 9630POPC   C3B66357   5.976  21.144   7.050
 9630POPC   C4B66358   5.975  21.134   7.350
 9631POPC   NC366359  12.124  23.737   5.550
 9631POPC   PO466360  12.049  23.760   5.850
 9631POPC   GL166361  12.045  23.667   6.150
 9631POPC   GL266362  12.117  23.864   6.150
 9631POPC   C1A66363  12.050  23.736   6.450
 9631POPC   D2A66364  12.071  23.718   6.750
 9631POPC   C3A66365  12.048  23.671   7.050
 9631POPC   C4A66366  12.092  23.699   7.350
 9631POPC   C1B66367  12.114  24.003   6.450
 9631POPC   C2B66368  12.113  23.927   6.750
 9631POPC   C3B66369  12.117  23.994   7.050
 9631POPC   C4B66370  12.115  23.965   7.350
 9632POPC   NC366371  37.727  40.736   5.550
 9632POPC   PO466372  37.692  40.816   5.850
 9632POPC   GL166373  37.680  40.755   6.150
 9632POPC   GL266374  37.531  40.835   6.150
 9632POPC   C1A66375  37.687  40.753   6.450
 9632POPC   D2A66376  37.676  40.816   6.750
 9632POPC   C3A66377  37.686  40.737   7.050
 9632POPC   C4A66378  37.667  40.739   7.350
 9632POPC   C1B66379  37.420  40.900   6.450
 9632POPC   C2B66380  37.459  40.919   6.750
 9632POPC   C3B66381  37.437  40.887   7.050
 9632POPC   C4B66382  37.479  40.958   7.350
 9633POPC   NC366383  19.821  33.827   5.550
 9633POPC   PO466384  19.827  33.799   5.850
 9633POPC   GL166385  19.787  33.754   6.150
 9633POPC   GL266386  19.910  33.865   6.150
 9633POPC   C1A66387  19.855  33.762   6.450
 9633POPC   D2A66388  19.879  33.791   6.750
 9633POPC   C3A66389  19.803  33.849   7.050
 9633POPC   C4A66390  19.826  33.812   7.350
 9633POPC   C1B66391  19.993  33.935   6.450
 9633POPC   C2B66392  19.971  33.980   6.750
 9633POPC   C3B66393  20.042  34.000   7.050
 9633POPC   C4B66394  19.959  34.031   7.350
 9634POPC   NC366395  26.052  17.518   5.550
 9634POPC   PO466396  26.089  17.526   5.850
 9634POPC   GL166397  26.035  17.493   6.150
 9634POPC   GL266398  25.892  17.496   6.150
 9634POPC   C1A66399  26.064  17.493   6.450
 9634POPC   D2A66400  26.057  17.458   6.750
 9634POPC   C3A66401  26.002  17.500   7.050
 9634POPC   C4A66402  26.075  17.470   7.350
 9634POPC   C1B66403  25.783  17.565   6.450
 9634POPC   C2B66404  25.772  17.486   6.750
 9634POPC   C3B66405  25.797  17.480   7.050
 9634POPC   C4B66406  25.823  17.529   7.350
 9635POPC   NC366407   4.290  27.603   5.550
 9635POPC   PO466408   4.349  27.606   5.850
 9635POPC   GL166409   4.315  27.611   6.150
 9635POPC   GL266410   4.316  27.489   6.150
 9635POPC   C1A66411   4.349  27.584   6.450
 9635POPC   D2A66412   4.336  27.622   6.750
 9635POPC   C3A66413   4.340  27.590   7.050
 9635POPC   C4A66414   4.345  27.610   7.350
 9635POPC   C1B66415   4.416  27.391   6.450
 9635POPC   C2B66416   4.352  27.404   6.750
 9635POPC   C3B66417   4.385  27.352   7.050
 9635POPC   C4B66418   4.392  27.305   7.350
 9636POPC   NC366419  44.613  28.343   5.550
 9636POPC   PO466420  44.707  28.325   5.850
 9636POPC   GL166421  44.684  28.382   6.150
 9636POPC   GL266422  44.641  28.209   6.150
 9636POPC   C1A66423  44.666  28.386   6.450
 9636POPC   D2A66424  44.638  28.345   6.750
 9636POPC   C3A66425  44.613  28.397   7.050
 9636POPC   C4A66426  44.629  28.394   7.350
 9636POPC   C1B66427  44.656  28.160   6.450
 9636POPC   C2B66428  44.618  28.150   6.750
 9636POPC   C3B66429  44.687  28.151   7.050
 9636POPC   C4B66430  44.681  28.148   7.350
 9637POPC   NC366431  15.201  42.331   5.550
 9637POPC   PO466432  15.145  42.317   5.850
 9637POPC   GL166433  15.193  42.332   6.150
 9637POPC   GL266434  15.179  42.203   6.150
 9637POPC   C1A66435  15.160  42.308   6.450
 9637POPC   D2A66436  15.179  42.351   6.750
 9637POPC   C3A66437  15.141  42.340   7.050
 9637POPC   C4A66438  15.138  42.343   7.350
 9637POPC   C1B66439  15.079  42.121   6.450
 9637POPC   C2B66440  15.166  42.116   6.750
 9637POPC   C3B66441  15.160  42.051   7.050
 9637POPC   C4B66442  15.170  42.070   7.350
 9638POPC   NC366443   9.780   9.018   5.550
 9638POPC   PO466444   9.754   8.970   5.850
 9638POPC   GL166445   9.760   8.988   6.150
 9638POPC   GL266446   9.698   9.103   6.150
 9638POPC   C1A66447   9.786   8.976   6.450
 9638POPC   D2A66448   9.760   9.020   6.750
 9638POPC   C3A66449   9.740   8.995   7.050
 9638POPC   C4A66450   9.744   8.995   7.350
 9638POPC   C1B66451   9.733   9.184   6.450
 9638POPC   C2B66452   9.683   9.250   6.750
 9638POPC   C3B66453   9.735   9.193   7.050
 9638POPC   C4B66454   9.735   9.237   7.350
 9639POPC   NC366455  12.879  15.910   5.550
 9639POPC   PO466456  12.836  15.991   5.850
 9639POPC   GL166457  12.806  15.995   6.150
 9639POPC   GL266458  13.007  15.912   6.150
 9639POPC   C1A66459  12.891  15.938   6.450
 9639POPC   D2A66460  12.883  15.942   6.750
 9639POPC   C3A66461  12.897  15.988   7.050
 9639POPC   C4A66462  12.859  15.951   7.350
 9639POPC   C1B66463  13.079  15.825   6.450
 9639POPC   C2B66464  13.115  15.869   6.750
 9639POPC   C3B66465  13.117  15.884   7.050
 9639POPC   C4B66466  13.102  15.843   7.350
 9640POPC   NC366467  29.193  19.811   5.550
 9640POPC   PO466468  29.164  19.817   5.850
 9640POPC   GL166469  29.189  19.878   6.150
 9640POPC   GL266470  29.229  19.833   6.150
 9640POPC   C1A66471  29.116  19.798   6.450
 9640POPC   D2A66472  29.152  19.812   6.750
 9640POPC   C3A66473  29.177  19.801   7.050
 9640POPC   C4A66474  29.100  19.860   7.350
 9640POPC   C1B66475  29.365  19.947   6.450
 9640POPC   C2B66476  29.376  19.907   6.750
 9640POPC   C3B66477  29.428  19.912   7.050
 9640POPC   C4B66478  29.381  19.928   7.350
 9641POPC   NC366479  41.582  39.990   5.550
 9641POPC   PO466480  41.558  40.036   5.850
 9641POPC   GL166481  41.529  40.039   6.150
 9641POPC   GL266482  41.438  40.035   6.150
 9641POPC   C1A66483  41.595  39.997   6.450
 9641POPC   D2A66484  41.582  40.016   6.750
 9641POPC   C3A66485  41.604  39.960   7.050
 9641POPC   C4A66486  41.590  39.993   7.350
 9641POPC   C1B66487  41.386  40.169   6.450
 9641POPC   C2B66488  41.295  40.179   6.750
 9641POPC   C3B66489  41.392  40.105   7.050
 9641POPC   C4B66490  41.349  40.156   7.350
 9642POPC   NC366491  30.747  12.895   5.550
 9642POPC   PO466492  30.653  12.899   5.850
 9642POPC   GL166493  30.732  12.900   6.150
 9642POPC   GL266494  30.805  12.984   6.150
 9642POPC   C1A66495  30.725  12.837   6.450
 9642POPC   D2A66496  30.652  12.819   6.750
 9642POPC   C3A66497  30.676  12.874   7.050
 9642POPC   C4A66498  30.726  12.830   7.350
 9642POPC   C1B66499  30.855  13.056   6.450
 9642POPC   C2B66500  30.847  13.042   6.750
 9642POPC   C3B66501  30.870  13.005   7.050
 9642POPC   C4B66502  30.819  13.024   7.350
 9643POPC   NC366503  37.661  22.900   5.550
 9643POPC   PO466504  37.634  22.982   5.850
 9643POPC   GL166505  37.685  22.926   6.150
 9643POPC   GL266506  37.574  22.961   6.150
 9643POPC   C1A66507  37.703  22.920   6.450
 9643POPC   D2A66508  37.693  22.891   6.750
 9643POPC   C3A66509  37.699  22.909   7.050
 9643POPC   C4A66510  37.698  22.915   7.350
 9643POPC   C1B66511  37.435  23.105   6.450
 9643POPC   C2B66512  37.466  23.052   6.750
 9643POPC   C3B66513  37.439  23.081   7.050
 9643POPC   C4B66514  37.492  23.070   7.350
 9644POPC   NC366515  13.611  44.677   5.550
 9644POPC   PO466516  13.649  44.663   5.850
 9644POPC   GL166517  13.627  44.651   6.150
 9644POPC   GL266518  13.477  44.652   6.150
 9644POPC   C1A66519  13.603  44.634   6.450
 9644POPC   D2A66520  13.664  44.702   6.750
 9644POPC   C3A66521  13.631  44.650   7.050
 9644POPC   C4A66522  13.628  44.626   7.350
 9644POPC   C1B66523  13.419  44.544   6.450
 9644POPC   C2B66524  13.363  44.541   6.750
 9644POPC   C3B66525  13.352  44.565   7.050
 9644POPC   C4B66526  13.387  44.614   7.350
 9645POPC   NC366527  16.005  27.633   5.550
 9645POPC   PO466528  15.947  27.604   5.850
 9645POPC   GL166529  16.003  27.572   6.150
 9645POPC   GL266530  15.864  27.714   6.150
 9645POPC   C1A66531  15.930  27.597   6.450
 9645POPC   D2A66532  16.002  27.573   6.750
 9645POPC   C3A66533  15.911  27.582   7.050
 9645POPC   C4A66534  15.951  27.641   7.350
 9645POPC   C1B66535  15.901  27.778   6.450
 9645POPC   C2B66536  15.904  27.851   6.750
 9645POPC   C3B66537  15.902  27.778   7.050
 9645POPC   C4B66538  15.816  27.859   7.350
 9646POPC   NC366539  22.173   5.045   5.550
 9646POPC   PO466540  22.166   5.065   5.850
 9646POPC   GL166541  22.182   5.075   6.150
 9646POPC   GL266542  22.322   5.083   6.150
 9646POPC   C1A66543  22.199   5.124   6.450
 9646POPC   D2A66544  22.197   5.141   6.750
 9646POPC   C3A66545  22.156   5.047   7.050
 9646POPC   C4A66546  22.119   5.096   7.350
 9646POPC   C1B66547  22.364   5.087   6.450
 9646POPC   C2B66548  22.394   5.040   6.750
 9646POPC   C3B66549  22.389   5.033   7.050
 9646POPC   C4B66550  22.442   5.045   7.350
 9647POPC   NC366551  43.908  18.321   5.550
 9647POPC   PO466552  43.836  18.250   5.850
 9647POPC   GL166553  43.914  18.323   6.150
 9647POPC   GL266554  44.035  18.301   6.150
 9647POPC   C1A66555  43.856  18.247   6.450
 9647POPC   D2A66556  43.931  18.283   6.750
 9647POPC   C3A66557  43.927  18.331   7.050
 9647POPC   C4A66558  43.868  18.280   7.350
 9647POPC   C1B66559  44.100  18.363   6.450
 9647POPC   C2B66560  44.144  18.346   6.750
 9647POPC   C3B66561  44.113  18.345   7.050
 9647POPC   C4B66562  44.070  18.345   7.350
 9648POPC   NC366563  43.136   5.141   5.550
 9648POPC   PO466564  43.121   5.072   5.850
 9648POPC   GL166565  43.135   5.128   6.150
 9648POPC   GL266566  43.232   5.101   6.150
 9648POPC   C1A66567  43.075   5.091   6.450
 9648POPC   D2A66568  43.160   5.055   6.750
 9648POPC   C3A66569  43.111   5.053   7.050
 9648POPC   C4A66570  43.072   5.123   7.350
 9648POPC   C1B66571  43.294   5.241   6.450
 9648POPC   C2B66572  43.309   5.205   6.750
 9648POPC   C3B66573  43.296   5.164   7.050
 9648POPC   C4B66574  43.334   5.211   7.350
 9649POPC   NC366575  38.417  16.002   5.550
 9649POPC   PO466576  38.459  15.991   5.850
 9649POPC   GL166577  38.442  15.986   6.150
 9649POPC   GL266578  38.366  15.866   6.150
 9649POPC   C1A66579  38.477  15.998   6.450
 9649POPC   D2A66580  38.430  15.990   6.750
 9649POPC   C3A66581  38.470  15.982   7.050
 9649POPC   C4A66582  38.451  15.957   7.350
 9649POPC   C1B66583  38.322  15.784   6.450
 9649POPC   C2B66584  38.304  15.714   6.750
 9649POPC   C3B66585  38.363  15.739   7.050
 9649POPC   C4B66586  38.348  15.756   7.350
 9650POPC   NC366587  26.817  32.236   5.550
 9650POPC   PO466588  26.857  32.249   5.850
 9650POPC   GL166589  26.835  32.240   6.150
 9650POPC   GL266590  26.872  32.305   6.150
 9650POPC   C1A66591  26.787  32.282   6.450
 9650POPC   D2A66592  26.822  32.245   6.750
 9650POPC   C3A66593  26.856  32.239   7.050
 9650POPC   C4A66594  26.858  32.207   7.350
 9650POPC   C1B66595  26.913  32.469   6.450
 9650POPC   C2B66596  26.926  32.500   6.750
 9650POPC   C3B66597  26.920  32.454   7.050
 9650POPC   C4B66598  26.930  32.427   7.350
 9651POPC   NC366599  22.956  43.083   5.550
 9651POPC   PO466600  22.980  43.126   5.850
 9651POPC   GL166601  22.946  43.126   6.150
 9651POPC   GL266602  23.101  43.106   6.150
 9651POPC   C1A66603  22.897  43.062   6.450
 9651POPC   D2A66604  22.932  43.130   6.750
 9651POPC   C3A66605  22.951  43.139   7.050
 9651POPC   C4A66606  22.910  43.099   7.350
 9651POPC   C1B66607  23.145  43.039   6.450
 9651POPC   C2B66608  23.209  43.083   6.750
 9651POPC   C3B66609  23.218  43.055   7.050
 9651POPC   C4B66610  23.179  43.064   7.350
 9652POPC   NC366611  18.241  32.293   5.550
 9652POPC   PO466612  18.253  32.295   5.850
 9652POPC   GL166613  18.308  32.227   6.150
 9652POPC   GL266614  18.383  32.287   6.150
 9652POPC   C1A66615  18.266  32.218   6.450
 9652POPC   D2A66616  18.309  32.273   6.750
 9652POPC   C3A66617  18.250  32.263   7.050
 9652POPC   C4A66618  18.288  32.228   7.350
 9652POPC   C1B66619  18.439  32.440   6.450
 9652POPC   C2B66620  18.497  32.444   6.750
 9652POPC   C3B66621  18.450  32.432   7.050
 9652POPC   C4B66622  18.453  32.385   7.350
 9653POPC   NC366623  32.209  19.788   5.550
 9653POPC   PO466624  32.298  19.823   5.850
 9653POPC   GL166625  32.214  19.870   6.150
 9653POPC   GL266626  32.119  19.729   6.150
 9653POPC   C1A66627  32.270  19.881   6.450
 9653POPC   D2A66628  32.235  19.820   6.750
 9653POPC   C3A66629  32.238  19.842   7.050
 9653POPC   C4A66630  32.202  19.869   7.350
 9653POPC   C1B66631  32.039  19.645   6.450
 9653POPC   C2B66632  32.047  19.648   6.750
 9653POPC   C3B66633  32.113  19.700   7.050
 9653POPC   C4B66634  32.055  19.675   7.350
 9654POPC   NC366635   9.760  25.264   5.550
 9654POPC   PO466636   9.774  25.217   5.850
 9654POPC   GL166637   9.711  25.295   6.150
 9654POPC   GL266638   9.660  25.397   6.150
 9654POPC   C1A66639   9.699  25.263   6.450
 9654POPC   D2A66640   9.765  25.304   6.750
 9654POPC   C3A66641   9.754  25.275   7.050
 9654POPC   C4A66642   9.774  25.241   7.350
 9654POPC   C1B66643   9.615  25.490   6.450
 9654POPC   C2B66644   9.590  25.448   6.750
 9654POPC   C3B66645   9.595  25.522   7.050
 9654POPC   C4B66646   9.599  25.525   7.350
 9655POPC   NC366647  42.293  29.886   5.550
 9655POPC   PO466648  42.348  29.915   5.850
 9655POPC   GL166649  42.324  29.919   6.150
 9655POPC   GL266650  42.336  30.031   6.150
 9655POPC   C1A66651  42.317  29.921   6.450
 9655POPC   D2A66652  42.290  29.947   6.750
 9655POPC   C3A66653  42.301  29.956   7.050
 9655POPC   C4A66654  42.289  29.928   7.350
 9655POPC   C1B66655  42.369  30.182   6.450
 9655POPC   C2B66656  42.386  30.175   6.750
 9655POPC   C3B66657  42.408  30.187   7.050
 9655POPC   C4B66658  42.398  30.154   7.350
 9656POPC   NC366659   0.431  43.100   5.550
 9656POPC   PO466660   0.416  43.097   5.850
 9656POPC   GL166661   0.422  43.104   6.150
 9656POPC   GL266662   0.299  43.052   6.150
 9656POPC   C1A66663   0.398  43.156   6.450
 9656POPC   D2A66664   0.473  43.087   6.750
 9656POPC   C3A66665   0.458  43.109   7.050
 9656POPC   C4A66666   0.421  43.074   7.350
 9656POPC   C1B66667   0.208  43.101   6.450
 9656POPC   C2B66668   0.147  43.069   6.750
 9656POPC   C3B66669   0.195  43.063   7.050
 9656POPC   C4B66670   0.207  43.052   7.350
 9657POPC   NC366671  22.909  15.162   5.550
 9657POPC   PO466672  22.955  15.211   5.850
 9657POPC   GL166673  22.890  15.213   6.150
 9657POPC   GL266674  22.958  15.271   6.150
 9657POPC   C1A66675  22.916  15.200   6.450
 9657POPC   D2A66676  22.981  15.167   6.750
 9657POPC   C3A66677  22.928  15.197   7.050
 9657POPC   C4A66678  22.941  15.221   7.350
 9657POPC   C1B66679  23.039  15.438   6.450
 9657POPC   C2B66680  23.043  15.463   6.750
 9657POPC   C3B66681  23.072  15.426   7.050
 9657POPC   C4B66682  23.074  15.382   7.350
 9658POPC   NC366683   7.395  29.159   5.550
 9658POPC   PO466684   7.381  29.154   5.850
 9658POPC   GL166685   7.399  29.160   6.150
 9658POPC   GL266686   7.290  29.141   6.150
 9658POPC   C1A66687   7.417  29.134   6.450
 9658POPC   D2A66688   7.409  29.128   6.750
 9658POPC   C3A66689   7.453  29.131   7.050
 9658POPC   C4A66690   7.396  29.140   7.350
 9658POPC   C1B66691   7.125  29.184   6.450
 9658POPC   C2B66692   7.195  29.117   6.750
 9658POPC   C3B66693   7.205  29.122   7.050
 9658POPC   C4B66694   7.135  29.131   7.350
 9659POPC   NC366695  15.154  33.002   5.550
 9659POPC   PO466696  15.156  33.051   5.850
 9659POPC   GL166697  15.205  33.019   6.150
 9659POPC   GL266698  15.025  32.931   6.150
 9659POPC   C1A66699  15.136  33.007   6.450
 9659POPC   D2A66700  15.148  33.069   6.750
 9659POPC   C3A66701  15.163  33.013   7.050
 9659POPC   C4A66702  15.159  32.974   7.350
 9659POPC   C1B66703  14.979  32.898   6.450
 9659POPC   C2B66704  15.002  32.862   6.750
 9659POPC   C3B66705  14.923  32.918   7.050
 9659POPC   C4B66706  14.985  32.863   7.350
 9660POPC   NC366707  11.253  16.752   5.550
 9660POPC   PO466708  11.309  16.724   5.850
 9660POPC   GL166709  11.314  16.705   6.150
 9660POPC   GL266710  11.313  16.613   6.150
 9660POPC   C1A66711  11.298  16.697   6.450
 9660POPC   D2A66712  11.252  16.686   6.750
 9660POPC   C3A66713  11.257  16.700   7.050
 9660POPC   C4A66714  11.263  16.708   7.350
 9660POPC   C1B66715  11.348  16.453   6.450
 9660POPC   C2B66716  11.385  16.471   6.750
 9660POPC   C3B66717  11.408  16.495   7.050
 9660POPC   C4B66718  11.404  16.517   7.350
 9661POPC   NC366719  17.527  43.065   5.550
 9661POPC   PO466720  17.516  43.108   5.850
 9661POPC   GL166721  17.545  43.141   6.150
 9661POPC   GL266722  17.385  42.984   6.150
 9661POPC   C1A66723  17.457  43.146   6.450
 9661POPC   D2A66724  17.518  43.061   6.750
 9661POPC   C3A66725  17.542  43.081   7.050
 9661POPC   C4A66726  17.478  43.067   7.350
 9661POPC   C1B66727  17.347  42.968   6.450
 9661POPC   C2B66728  17.341  42.902   6.750
 9661POPC   C3B66729  17.374  42.985   7.050
 9661POPC   C4B66730  17.293  42.903   7.350
 9662POPC   NC366731  31.465  39.268   5.550
 9662POPC   PO466732  31.451  39.267   5.850
 9662POPC   GL166733  31.472  39.246   6.150
 9662POPC   GL266734  31.553  39.221   6.150
 9662POPC   C1A66735  31.437  39.274   6.450
 9662POPC   D2A66736  31.437  39.246   6.750
 9662POPC   C3A66737  31.494  39.231   7.050
 9662POPC   C4A66738  31.505  39.237   7.350
 9662POPC   C1B66739  31.761  39.161   6.450
 9662POPC   C2B66740  31.690  39.112   6.750
 9662POPC   C3B66741  31.716  39.162   7.050
 9662POPC   C4B66742  31.701  39.160   7.350
 9663POPC   NC366743  22.920  19.017   5.550
 9663POPC   PO466744  22.983  19.078   5.850
 9663POPC   GL166745  22.929  19.087   6.150
 9663POPC   GL266746  22.796  19.007   6.150
 9663POPC   C1A66747  22.926  19.011   6.450
 9663POPC   D2A66748  22.976  19.093   6.750
 9663POPC   C3A66749  22.894  19.100   7.050
 9663POPC   C4A66750  22.941  19.021   7.350
 9663POPC   C1B66751  22.694  18.910   6.450
 9663POPC   C2B66752  22.697  18.995   6.750
 9663POPC   C3B66753  22.706  18.971   7.050
 9663POPC   C4B66754  22.746  18.931   7.350
 9664POPC   NC366755  40.019  12.042   5.550
 9664POPC   PO466756  40.022  12.116   5.850
 9664POPC   GL166757  40.055  12.031   6.150
 9664POPC   GL266758  40.056  12.191   6.150
 9664POPC   C1A66759  40.052  12.090   6.450
 9664POPC   D2A66760  40.011  12.125   6.750
 9664POPC   C3A66761  40.002  12.078   7.050
 9664POPC   C4A66762  40.011  12.087   7.350
 9664POPC   C1B66763  40.169  12.262   6.450
 9664POPC   C2B66764  40.177  12.268   6.750
 9664POPC   C3B66765  40.189  12.267   7.050
 9664POPC   C4B66766  40.157  12.230   7.350
 9665POPC   NC366767   0.474  36.140   5.550
 9665POPC   PO466768   0.389  36.146   5.850
 9665POPC   GL166769   0.416  36.165   6.150
 9665POPC   GL266770   0.499  36.058   6.150
 9665POPC   C1A66771   0.446  36.094   6.450
 9665POPC   D2A66772   0.442  36.085   6.750
 9665POPC   C3A66773   0.478  36.081   7.050
 9665POPC   C4A66774   0.415  36.105   7.350
 9665POPC   C1B66775   0.654  35.924   6.450
 9665POPC   C2B66776   0.628  35.979   6.750
 9665POPC   C3B66777   0.653  35.952   7.050
 9665POPC   C4B66778   0.619  35.912   7.350
 9666POPC   NC366779  22.137  23.685   5.550
 9666POPC   PO466780  22.118  23.704   5.850
 9666POPC   GL166781  22.195  23.679   6.150
 9666POPC   GL266782  22.199  23.633   6.150
 9666POPC   C1A66783  22.172  23.699   6.450
 9666POPC   D2A66784  22.121  23.717   6.750
 9666POPC   C3A66785  22.154  23.719   7.050
 9666POPC   C4A66786  22.193  23.720   7.350
 9666POPC   C1B66787  22.317  23.466   6.450
 9666POPC   C2B66788  22.259  23.464   6.750
 9666POPC   C3B66789  22.319  23.556   7.050
 9666POPC   C4B66790  22.313  23.552   7.350
 9667POPC   NC366791  20.570  26.078   5.550
 9667POPC   PO466792  20.608  26.065   5.850
 9667POPC   GL166793  20.585  26.052   6.150
 9667POPC   GL266794  20.720  26.036   6.150
 9667POPC   C1A66795  20.631  26.003   6.450
 9667POPC   D2A66796  20.629  26.085   6.750
 9667POPC   C3A66797  20.597  26.040   7.050
 9667POPC   C4A66798  20.564  26.048   7.350
 9667POPC   C1B66799  20.834  26.128   6.450
 9667POPC   C2B66800  20.863  26.163   6.750
 9667POPC   C3B66801  20.864  26.115   7.050
 9667POPC   C4B66802  20.891  26.120   7.350
 9668POPC   NC366803   7.397  38.451   5.550
 9668POPC   PO466804   7.450  38.448   5.850
 9668POPC   GL166805   7.465  38.451   6.150
 9668POPC   GL266806   7.396  38.563   6.150
 9668POPC   C1A66807   7.434  38.444   6.450
 9668POPC   D2A66808   7.461  38.432   6.750
 9668POPC   C3A66809   7.380  38.417   7.050
 9668POPC   C4A66810   7.371  38.505   7.350
 9668POPC   C1B66811   7.416  38.726   6.450
 9668POPC   C2B66812   7.406  38.737   6.750
 9668POPC   C3B66813   7.438  38.683   7.050
 9668POPC   C4B66814   7.410  38.658   7.350
 9669POPC   NC366815  37.689  36.877   5.550
 9669POPC   PO466816  37.665  36.857   5.850
 9669POPC   GL166817  37.635  36.868   6.150
 9669POPC   GL266818  37.530  36.924   6.150
 9669POPC   C1A66819  37.692  36.930   6.450
 9669POPC   D2A66820  37.658  36.952   6.750
 9669POPC   C3A66821  37.647  36.942   7.050
 9669POPC   C4A66822  37.697  36.903   7.350
 9669POPC   C1B66823  37.444  36.901   6.450
 9669POPC   C2B66824  37.453  36.908   6.750
 9669POPC   C3B66825  37.448  36.897   7.050
 9669POPC   C4B66826  37.478  36.903   7.350
 9670POPC   NC366827  30.697   6.668   5.550
 9670POPC   PO466828  30.741   6.622   5.850
 9670POPC   GL166829  30.723   6.687   6.150
 9670POPC   GL266830  30.587   6.653   6.150
 9670POPC   C1A66831  30.714   6.694   6.450
 9670POPC   D2A66832  30.718   6.647   6.750
 9670POPC   C3A66833  30.722   6.678   7.050
 9670POPC   C4A66834  30.716   6.607   7.350
 9670POPC   C1B66835  30.419   6.692   6.450
 9670POPC   C2B66836  30.458   6.658   6.750
 9670POPC   C3B66837  30.420   6.707   7.050
 9670POPC   C4B66838  30.420   6.720   7.350
 9671POPC   NC366839   5.075   5.141   5.550
 9671POPC   PO466840   5.118   5.142   5.850
 9671POPC   GL166841   5.051   5.082   6.150
 9671POPC   GL266842   5.149   5.224   6.150
 9671POPC   C1A66843   5.077   5.136   6.450
 9671POPC   D2A66844   5.103   5.102   6.750
 9671POPC   C3A66845   5.052   5.137   7.050
 9671POPC   C4A66846   5.116   5.077   7.350
 9671POPC   C1B66847   5.283   5.265   6.450
 9671POPC   C2B66848   5.310   5.223   6.750
 9671POPC   C3B66849   5.264   5.230   7.050
 9671POPC   C4B66850   5.276   5.285   7.350
 9672POPC   NC366851  31.476   5.892   5.550
 9672POPC   PO466852  31.435   5.839   5.850
 9672POPC   GL166853  31.447   5.872   6.150
 9672POPC   GL266854  31.387   5.708   6.150
 9672POPC   C1A66855  31.452   5.916   6.450
 9672POPC   D2A66856  31.457   5.915   6.750
 9672POPC   C3A66857  31.436   5.918   7.050
 9672POPC   C4A66858  31.467   5.899   7.350
 9672POPC   C1B66859  31.379   5.685   6.450
 9672POPC   C2B66860  31.331   5.613   6.750
 9672POPC   C3B66861  31.398   5.641   7.050
 9672POPC   C4B66862  31.409   5.688   7.350
 9673POPC   NC366863  15.969  23.717   5.550
 9673POPC   PO466864  15.991  23.684   5.850
 9673POPC   GL166865  15.966  23.742   6.150
 9673POPC   GL266866  16.113  23.706   6.150
 9673POPC   C1A66867  15.961  23.667   6.450
 9673POPC   D2A66868  15.986  23.676   6.750
 9673POPC   C3A66869  15.980  23.664   7.050
 9673POPC   C4A66870  15.951  23.742   7.350
 9673POPC   C1B66871  16.222  23.666   6.450
 9673POPC   C2B66872  16.169  23.695   6.750
 9673POPC   C3B66873  16.226  23.702   7.050
 9673POPC   C4B66874  16.187  23.701   7.350
 9674POPC   NC366875  15.940  16.702   5.550
 9674POPC   PO466876  15.967  16.721   5.850
 9674POPC   GL166877  15.921  16.725   6.150
 9674POPC   GL266878  15.949  16.818   6.150
 9674POPC   C1A66879  15.925  16.726   6.450
 9674POPC   D2A66880  15.976  16.763   6.750
 9674POPC   C3A66881  15.914  16.724   7.050
 9674POPC   C4A66882  15.990  16.779   7.350
 9674POPC   C1B66883  15.909  16.978   6.450
 9674POPC   C2B66884  15.881  17.005   6.750
 9674POPC   C3B66885  15.932  16.959   7.050
 9674POPC   C4B66886  15.888  16.936   7.350
 9675POPC   NC366887  14.386  35.336   5.550
 9675POPC   PO466888  14.383  35.366   5.850
 9675POPC   GL166889  14.450  35.351   6.150
 9675POPC   GL266890  14.409  35.492   6.150
 9675POPC   C1A66891  14.428  35.324   6.450
 9675POPC   D2A66892  14.364  35.314   6.750
 9675POPC   C3A66893  14.428  35.347   7.050
 9675POPC   C4A66894  14.415  35.307   7.350
 9675POPC   C1B66895  14.478  35.561   6.450
 9675POPC   C2B66896  14.491  35.564   6.750
 9675POPC   C3B66897  14.518  35.608   7.050
 9675POPC   C4B66898  14.460  35.630   7.350
 9676POPC   NC366899   6.661  31.506   5.550
 9676POPC   PO466900   6.679  31.459   5.850
 9676POPC   GL166901   6.670  31.473   6.150
 9676POPC   GL266902   6.736  31.368   6.150
 9676POPC   C1A66903   6.602  31.424   6.450
 9676POPC   D2A66904   6.658  31.499   6.750
 9676POPC   C3A66905   6.639  31.479   7.050
 9676POPC   C4A66906   6.611  31.434   7.350
 9676POPC   C1B66907   6.811  31.362   6.450
 9676POPC   C2B66908   6.793  31.306   6.750
 9676POPC   C3B66909   6.830  31.271   7.050
 9676POPC   C4B66910   6.800  31.351   7.350
 9677POPC   NC366911   6.686  33.828   5.550
 9677POPC   PO466912   6.645  33.815   5.850
 9677POPC   GL166913   6.637  33.782   6.150
 9677POPC   GL266914   6.806  33.815   6.150
 9677POPC   C1A66915   6.595  33.817   6.450
 9677POPC   D2A66916   6.614  33.850   6.750
 9677POPC   C3A66917   6.622  33.836   7.050
 9677POPC   C4A66918   6.623  33.752   7.350
 9677POPC   C1B66919   6.855  33.776   6.450
 9677POPC   C2B66920   6.889  33.710   6.750
 9677POPC   C3B66921   6.869  33.782   7.050
 9677POPC   C4B66922   6.898  33.704   7.350
 9678POPC   NC366923  13.670  41.529   5.550
 9678POPC   PO466924  13.634  41.565   5.850
 9678POPC   GL166925  13.658  41.600   6.150
 9678POPC   GL266926  13.538  41.454   6.150
 9678POPC   C1A66927  13.578  41.598   6.450
 9678POPC   D2A66928  13.664  41.510   6.750
 9678POPC   C3A66929  13.580  41.538   7.050
 9678POPC   C4A66930  13.583  41.549   7.350
 9678POPC   C1B66931  13.426  41.490   6.450
 9678POPC   C2B66932  13.361  41.492   6.750
 9678POPC   C3B66933  13.364  41.465   7.050
 9678POPC   C4B66934  13.436  41.484   7.350
 9679POPC   NC366935  34.537  40.826   5.550
 9679POPC   PO466936  34.571  40.773   5.850
 9679POPC   GL166937  34.605  40.788   6.150
 9679POPC   GL266938  34.441  40.780   6.150
 9679POPC   C1A66939  34.540  40.797   6.450
 9679POPC   D2A66940  34.561  40.750   6.750
 9679POPC   C3A66941  34.568  40.793   7.050
 9679POPC   C4A66942  34.548  40.806   7.350
 9679POPC   C1B66943  34.314  40.715   6.450
 9679POPC   C2B66944  34.302  40.748   6.750
 9679POPC   C3B66945  34.349  40.675   7.050
 9679POPC   C4B66946  34.373  40.699   7.350
 9680POPC   NC366947  36.935  30.659   5.550
 9680POPC   PO466948  36.944  30.736   5.850
 9680POPC   GL166949  36.933  30.737   6.150
 9680POPC   GL266950  36.938  30.578   6.150
 9680POPC   C1A66951  36.933  30.735   6.450
 9680POPC   D2A66952  36.952  30.665   6.750
 9680POPC   C3A66953  36.864  30.680   7.050
 9680POPC   C4A66954  36.935  30.681   7.350
 9680POPC   C1B66955  36.945  30.492   6.450
 9680POPC   C2B66956  36.977  30.467   6.750
 9680POPC   C3B66957  36.976  30.449   7.050
 9680POPC   C4B66958  37.017  30.418   7.350
 9681POPC   NC366959  29.189  12.825   5.550
 9681POPC   PO466960  29.109  12.870   5.850
 9681POPC   GL166961  29.141  12.835   6.150
 9681POPC   GL266962  29.314  12.831   6.150
 9681POPC   C1A66963  29.162  12.820   6.450
 9681POPC   D2A66964  29.168  12.834   6.750
 9681POPC   C3A66965  29.157  12.859   7.050
 9681POPC   C4A66966  29.097  12.869   7.350
 9681POPC   C1B66967  29.351  12.841   6.450
 9681POPC   C2B66968  29.429  12.932   6.750
 9681POPC   C3B66969  29.350  12.901   7.050
 9681POPC   C4B66970  29.374  12.903   7.350
 9682POPC   NC366971  43.127   6.638   5.550
 9682POPC   PO466972  43.147   6.694   5.850
 9682POPC   GL166973  43.142   6.599   6.150
 9682POPC   GL266974  43.032   6.744   6.150
 9682POPC   C1A66975  43.065   6.655   6.450
 9682POPC   D2A66976  43.131   6.631   6.750
 9682POPC   C3A66977  43.092   6.687   7.050
 9682POPC   C4A66978  43.097   6.643   7.350
 9682POPC   C1B66979  42.902   6.803   6.450
 9682POPC   C2B66980  42.909   6.815   6.750
 9682POPC   C3B66981  42.874   6.811   7.050
 9682POPC   C4B66982  42.922   6.779   7.350
 9683POPC   NC366983   6.672  24.526   5.550
 9683POPC   PO466984   6.633  24.466   5.850
 9683POPC   GL166985   6.659  24.485   6.150
 9683POPC   GL266986   6.642  24.399   6.150
 9683POPC   C1A66987   6.676  24.488   6.450
 9683POPC   D2A66988   6.639  24.529   6.750
 9683POPC   C3A66989   6.642  24.522   7.050
 9683POPC   C4A66990   6.625  24.539   7.350
 9683POPC   C1B66991   6.722  24.237   6.450
 9683POPC   C2B66992   6.713  24.267   6.750
 9683POPC   C3B66993   6.685  24.293   7.050
 9683POPC   C4B66994   6.671  24.264   7.350
 9684POPC   NC366995   5.819  39.184   5.550
 9684POPC   PO466996   5.885  39.281   5.850
 9684POPC   GL166997   5.875  39.274   6.150
 9684POPC   GL266998   6.000  39.183   6.150
 9684POPC   C1A66999   5.820  39.216   6.450
 9684POPC   D2A67000   5.901  39.202   6.750
 9684POPC   C3A67001   5.894  39.232   7.050
 9684POPC   C4A67002   5.898  39.254   7.350
 9684POPC   C1B67003   6.123  39.152   6.450
 9684POPC   C2B67004   6.101  39.141   6.750
 9684POPC   C3B67005   6.129  39.179   7.050
 9684POPC   C4B67006   6.106  39.158   7.350
 9685POPC   NC367007  34.564  34.553   5.550
 9685POPC   PO467008  34.538  34.533   5.850
 9685POPC   GL167009  34.604  34.533   6.150
 9685POPC   GL267010  34.522  34.405   6.150
 9685POPC   C1A67011  34.611  34.542   6.450
 9685POPC   D2A67012  34.608  34.599   6.750
 9685POPC   C3A67013  34.555  34.567   7.050
 9685POPC   C4A67014  34.596  34.559   7.350
 9685POPC   C1B67015  34.523  34.362   6.450
 9685POPC   C2B67016  34.550  34.335   6.750
 9685POPC   C3B67017  34.588  34.291   7.050
 9685POPC   C4B67018  34.535  34.370   7.350
 9686POPC   NC367019   0.482  12.117   5.550
 9686POPC   PO467020   0.409  12.034   5.850
 9686POPC   GL167021   0.394  12.059   6.150
 9686POPC   GL267022   0.589  12.184   6.150
 9686POPC   C1A67023   0.448  12.095   6.450
 9686POPC   D2A67024   0.413  12.027   6.750
 9686POPC   C3A67025   0.458  12.038   7.050
 9686POPC   C4A67026   0.480  12.042   7.350
 9686POPC   C1B67027   0.686  12.237   6.450
 9686POPC   C2B67028   0.670  12.224   6.750
 9686POPC   C3B67029   0.597  12.180   7.050
 9686POPC   C4B67030   0.671  12.231   7.350
 9687POPC   NC367031   4.301  43.061   5.550
 9687POPC   PO467032   4.313  43.120   5.850
 9687POPC   GL167033   4.335  43.091   6.150
 9687POPC   GL267034   4.481  43.104   6.150
 9687POPC   C1A67035   4.271  43.150   6.450
 9687POPC   D2A67036   4.305  43.112   6.750
 9687POPC   C3A67037   4.339  43.074   7.050
 9687POPC   C4A67038   4.344  43.102   7.350
 9687POPC   C1B67039   4.593  43.165   6.450
 9687POPC   C2B67040   4.523  43.156   6.750
 9687POPC   C3B67041   4.528  43.182   7.050
 9687POPC   C4B67042   4.530  43.137   7.350
 9688POPC   NC367043  40.006  28.342   5.550
 9688POPC   PO467044  40.033  28.377   5.850
 9688POPC   GL167045  40.042  28.383   6.150
 9688POPC   GL267046  39.949  28.233   6.150
 9688POPC   C1A67047  40.019  28.368   6.450
 9688POPC   D2A67048  40.035  28.385   6.750
 9688POPC   C3A67049  39.999  28.382   7.050
 9688POPC   C4A67050  39.974  28.343   7.350
 9688POPC   C1B67051  39.826  28.168   6.450
 9688POPC   C2B67052  39.882  28.221   6.750
 9688POPC   C3B67053  39.851  28.197   7.050
 9688POPC   C4B67054  39.869  28.182   7.350
 9689POPC   NC367055  12.101  42.306   5.550
 9689POPC   PO467056  12.040  42.321   5.850
 9689POPC   GL167057  12.092  42.329   6.150
 9689POPC   GL267058  11.918  42.310   6.150
 9689POPC   C1A67059  12.092  42.347   6.450
 9689POPC   D2A67060  12.099  42.375   6.750
 9689POPC   C3A67061  12.076  42.285   7.050
 9689POPC   C4A67062  12.035  42.318   7.350
 9689POPC   C1B67063  11.818  42.351   6.450
 9689POPC   C2B67064  11.789  42.340   6.750
 9689POPC   C3B67065  11.779  42.304   7.050
 9689POPC   C4B67066  11.826  42.342   7.350
 9690POPC   NC367067  40.767   5.090   5.550
 9690POPC   PO467068  40.796   5.081   5.850
 9690POPC   GL167069  40.737   5.112   6.150
 9690POPC   GL267070  40.756   5.177   6.150
 9690POPC   C1A67071  40.763   5.101   6.450
 9690POPC   D2A67072  40.736   5.078   6.750
 9690POPC   C3A67073  40.776   5.117   7.050
 9690POPC   C4A67074  40.778   5.065   7.350
 9690POPC   C1B67075  40.791   5.290   6.450
 9690POPC   C2B67076  40.703   5.368   6.750
 9690POPC   C3B67077  40.701   5.358   7.050
 9690POPC   C4B67078  40.762   5.339   7.350
 9691POPC   NC367079   2.787  27.597   5.550
 9691POPC   PO467080   2.790  27.579   5.850
 9691POPC   GL167081   2.780  27.624   6.150
 9691POPC   GL267082   2.722  27.516   6.150
 9691POPC   C1A67083   2.791  27.587   6.450
 9691POPC   D2A67084   2.762  27.599   6.750
 9691POPC   C3A67085   2.809  27.621   7.050
 9691POPC   C4A67086   2.751  27.616   7.350
 9691POPC   C1B67087   2.751  27.339   6.450
 9691POPC   C2B67088   2.716  27.355   6.750
 9691POPC   C3B67089   2.763  27.360   7.050
 9691POPC   C4B67090   2.708  27.343   7.350
 9692POPC   NC367091  36.126   3.533   5.550
 9692POPC   PO467092  36.121   3.588   5.850
 9692POPC   GL167093  36.134   3.577   6.150
 9692POPC   GL267094  36.035   3.602   6.150
 9692POPC   C1A67095  36.145   3.529   6.450
 9692POPC   D2A67096  36.127   3.579   6.750
 9692POPC   C3A67097  36.127   3.521   7.050
 9692POPC   C4A67098  36.144   3.502   7.350
 9692POPC   C1B67099  35.908   3.595   6.450
 9692POPC   C2B67100  35.883   3.611   6.750
 9692POPC   C3B67101  35.925   3.612   7.050
 9692POPC   C4B67102  35.896   3.684   7.350
 9693POPC   NC367103  29.187  43.898   5.550
 9693POPC   PO467104  29.148  43.857   5.850
 9693POPC   GL167105  29.152  43.837   6.150
 9693POPC   GL267106  29.131  43.747   6.150
 9693POPC   C1A67107  29.143  43.936   6.450
 9693POPC   D2A67108  29.131  43.846   6.750
 9693POPC   C3A67109  29.103  43.855   7.050
 9693POPC   C4A67110  29.153  43.861   7.350
 9693POPC   C1B67111  29.193  43.661   6.450
 9693POPC   C2B67112  29.197  43.624   6.750
 9693POPC   C3B67113  29.204  43.648   7.050
 9693POPC   C4B67114  29.173  43.670   7.350
 9694POPC   NC367115  12.081  40.039   5.550
 9694POPC   PO467116  12.038  39.962   5.850
 9694POPC   GL167117  12.062  39.990   6.150
 9694POPC   GL267118  11.944  39.994   6.150
 9694POPC   C1A67119  12.118  39.986   6.450
 9694POPC   D2A67120  12.061  40.024   6.750
 9694POPC   C3A67121  12.056  40.032   7.050
 9694POPC   C4A67122  12.042  39.968   7.350
 9694POPC   C1B67123  11.823  39.992   6.450
 9694POPC   C2B67124  11.802  39.979   6.750
 9694POPC   C3B67125  11.817  39.969   7.050
 9694POPC   C4B67126  11.807  39.900   7.350
 9695POPC   NC367127  31.444  15.974   5.550
 9695POPC   PO467128  31.505  15.964   5.850
 9695POPC   GL167129  31.495  15.943   6.150
 9695POPC   GL267130  31.633  15.993   6.150
 9695POPC   C1A67131  31.458  16.001   6.450
 9695POPC   D2A67132  31.480  15.939   6.750
 9695POPC   C3A67133  31.465  15.937   7.050
 9695POPC   C4A67134  31.461  15.999   7.350
 9695POPC   C1B67135  31.742  15.965   6.450
 9695POPC   C2B67136  31.702  16.010   6.750
 9695POPC   C3B67137  31.719  16.008   7.050
 9695POPC   C4B67138  31.694  16.027   7.350
 9696POPC   NC367139   3.560  21.362   5.550
 9696POPC   PO467140   3.518  21.422   5.850
 9696POPC   GL167141   3.529  21.424   6.150
 9696POPC   GL267142   3.434  21.329   6.150
 9696POPC   C1A67143   3.508  21.430   6.450
 9696POPC   D2A67144   3.567  21.417   6.750
 9696POPC   C3A67145   3.524  21.384   7.050
 9696POPC   C4A67146   3.512  21.425   7.350
 9696POPC   C1B67147   3.405  21.182   6.450
 9696POPC   C2B67148   3.405  21.181   6.750
 9696POPC   C3B67149   3.386  21.212   7.050
 9696POPC   C4B67150   3.312  21.197   7.350
 9697POPC   NC367151  39.272   8.152   5.550
 9697POPC   PO467152  39.211   8.188   5.850
 9697POPC   GL167153  39.222   8.222   6.150
 9697POPC   GL267154  39.291   8.139   6.150
 9697POPC   C1A67155  39.264   8.163   6.450
 9697POPC   D2A67156  39.246   8.173   6.750
 9697POPC   C3A67157  39.206   8.230   7.050
 9697POPC   C4A67158  39.276   8.206   7.350
 9697POPC   C1B67159  39.401   8.005   6.450
 9697POPC   C2B67160  39.403   8.034   6.750
 9697POPC   C3B67161  39.324   8.017   7.050
 9697POPC   C4B67162  39.378   7.952   7.350
 9698POPC   NC367163  39.231  34.620   5.550
 9698POPC   PO467164  39.256  34.621   5.850
 9698POPC   GL167165  39.226  34.540   6.150
 9698POPC   GL267166  39.314  34.681   6.150
 9698POPC   C1A67167  39.218  34.601   6.450
 9698POPC   D2A67168  39.278  34.561   6.750
 9698POPC   C3A67169  39.196  34.538   7.050
 9698POPC   C4A67170  39.193  34.593   7.350
 9698POPC   C1B67171  39.456  34.717   6.450
 9698POPC   C2B67172  39.457  34.708   6.750
 9698POPC   C3B67173  39.386  34.740   7.050
 9698POPC   C4B67174  39.467  34.720   7.350
 9699POPC   NC367175  35.363  32.247   5.550
 9699POPC   PO467176  35.369  32.225   5.850
 9699POPC   GL167177  35.327  32.239   6.150
 9699POPC   GL267178  35.491  32.203   6.150
 9699POPC   C1A67179  35.328  32.256   6.450
 9699POPC   D2A67180  35.346  32.277   6.750
 9699POPC   C3A67181  35.303  32.245   7.050
 9699POPC   C4A67182  35.365  32.271   7.350
 9699POPC   C1B67183  35.611  32.212   6.450
 9699POPC   C2B67184  35.567  32.153   6.750
 9699POPC   C3B67185  35.567  32.143   7.050
 9699POPC   C4B67186  35.555  32.224   7.350
 9700POPC   NC367187   8.173  29.940   5.550
 9700POPC   PO467188   8.150  29.877   5.850
 9700POPC   GL167189   8.206  29.884   6.150
 9700POPC   GL267190   8.253  30.026   6.150
 9700POPC   C1A67191   8.157  29.903   6.450
 9700POPC   D2A67192   8.191  29.939   6.750
 9700POPC   C3A67193   8.221  29.929   7.050
 9700POPC   C4A67194   8.177  29.963   7.350
 9700POPC   C1B67195   8.311  30.152   6.450
 9700POPC   C2B67196   8.330  30.112   6.750
 9700POPC   C3B67197   8.321  30.142   7.050
 9700POPC   C4B67198   8.324  30.174   7.350
 9701POPC   NC367199  15.133  33.847   5.550
 9701POPC   PO467200  15.178  33.760   5.850
 9701POPC   GL167201  15.195  33.795   6.150
 9701POPC   GL267202  15.308  33.860   6.150
 9701POPC   C1A67203  15.157  33.793   6.450
 9701POPC   D2A67204  15.162  33.834   6.750
 9701POPC   C3A67205  15.186  33.790   7.050
 9701POPC   C4A67206  15.159  33.842   7.350
 9701POPC   C1B67207  15.372  33.882   6.450
 9701POPC   C2B67208  15.377  33.900   6.750
 9701POPC   C3B67209  15.368  33.875   7.050
 9701POPC   C4B67210  15.418  33.931   7.350
 9702POPC   NC367211  23.722   7.413   5.550
 9702POPC   PO467212  23.676   7.424   5.850
 9702POPC   GL167213  23.727   7.418   6.150
 9702POPC   GL267214  23.792   7.474   6.150
 9702POPC   C1A67215  23.723   7.396   6.450
 9702POPC   D2A67216  23.691   7.416   6.750
 9702POPC   C3A67217  23.702   7.403   7.050
 9702POPC   C4A67218  23.675   7.454   7.350
 9702POPC   C1B67219  23.987   7.490   6.450
 9702POPC   C2B67220  23.947   7.458   6.750
 9702POPC   C3B67221  23.968   7.454   7.050
 9702POPC   C4B67222  23.917   7.486   7.350
 9703POPC   NC367223  40.009  38.435   5.550
 9703POPC   PO467224  40.009  38.418   5.850
 9703POPC   GL167225  40.047  38.494   6.150
 9703POPC   GL267226  40.117  38.367   6.150
 9703POPC   C1A67227  40.008  38.480   6.450
 9703POPC   D2A67228  40.005  38.478   6.750
 9703POPC   C3A67229  39.964  38.503   7.050
 9703POPC   C4A67230  39.998  38.503   7.350
 9703POPC   C1B67231  40.207  38.233   6.450
 9703POPC   C2B67232  40.157  38.220   6.750
 9703POPC   C3B67233  40.161  38.291   7.050
 9703POPC   C4B67234  40.125  38.307   7.350
 9704POPC   NC367235  19.859  30.724   5.550
 9704POPC   PO467236  19.882  30.672   5.850
 9704POPC   GL167237  19.811  30.648   6.150
 9704POPC   GL267238  19.924  30.573   6.150
 9704POPC   C1A67239  19.787  30.693   6.450
 9704POPC   D2A67240  19.853  30.658   6.750
 9704POPC   C3A67241  19.850  30.651   7.050
 9704POPC   C4A67242  19.830  30.719   7.350
 9704POPC   C1B67243  19.977  30.444   6.450
 9704POPC   C2B67244  19.963  30.501   6.750
 9704POPC   C3B67245  19.922  30.424   7.050
 9704POPC   C4B67246  19.952  30.479   7.350
 9705POPC   NC367247   9.714  40.030   5.550
 9705POPC   PO467248   9.710  39.965   5.850
 9705POPC   GL167249   9.752  40.001   6.150
 9705POPC   GL267250   9.828  40.039   6.150
 9705POPC   C1A67251   9.794  40.023   6.450
 9705POPC   D2A67252   9.707  40.027   6.750
 9705POPC   C3A67253   9.751  39.978   7.050
 9705POPC   C4A67254   9.759  40.046   7.350
 9705POPC   C1B67255   9.978  40.157   6.450
 9705POPC   C2B67256   9.958  40.146   6.750
 9705POPC   C3B67257   9.917  40.121   7.050
 9705POPC   C4B67258   9.908  40.171   7.350
 9706POPC   NC367259  14.428  19.813   5.550
 9706POPC   PO467260  14.360  19.881   5.850
 9706POPC   GL167261  14.412  19.848   6.150
 9706POPC   GL267262  14.358  19.929   6.150
 9706POPC   C1A67263  14.390  19.822   6.450
 9706POPC   D2A67264  14.363  19.874   6.750
 9706POPC   C3A67265  14.444  19.825   7.050
 9706POPC   C4A67266  14.450  19.860   7.350
 9706POPC   C1B67267  14.313  20.072   6.450
 9706POPC   C2B67268  14.315  20.113   6.750
 9706POPC   C3B67269  14.304  20.037   7.050
 9706POPC   C4B67270  14.303  20.074   7.350
 9707POPC   NC367271  25.281  37.660   5.550
 9707POPC   PO467272  25.218  37.709   5.850
 9707POPC   GL167273  25.225  37.666   6.150
 9707POPC   GL267274  25.405  37.745   6.150
 9707POPC   C1A67275  25.258  37.662   6.450
 9707POPC   D2A67276  25.299  37.704   6.750
 9707POPC   C3A67277  25.227  37.684   7.050
 9707POPC   C4A67278  25.249  37.698   7.350
 9707POPC   C1B67279  25.438  37.860   6.450
 9707POPC   C2B67280  25.497  37.865   6.750
 9707POPC   C3B67281  25.514  37.800   7.050
 9707POPC   C4B67282  25.448  37.842   7.350
 9708POPC   NC367283  40.783   8.156   5.550
 9708POPC   PO467284  40.758   8.200   5.850
 9708POPC   GL167285  40.786   8.221   6.150
 9708POPC   GL267286  40.734   8.263   6.150
 9708POPC   C1A67287  40.792   8.214   6.450
 9708POPC   D2A67288  40.745   8.152   6.750
 9708POPC   C3A67289  40.814   8.216   7.050
 9708POPC   C4A67290  40.740   8.208   7.350
 9708POPC   C1B67291  40.561   8.405   6.450
 9708POPC   C2B67292  40.607   8.406   6.750
 9708POPC   C3B67293  40.608   8.385   7.050
 9708POPC   C4B67294  40.588   8.364   7.350
 9709POPC   NC367295  12.030  19.052   5.550
 9709POPC   PO467296  12.043  19.088   5.850
 9709POPC   GL167297  12.099  19.043   6.150
 9709POPC   GL267298  12.143  18.905   6.150
 9709POPC   C1A67299  12.038  19.099   6.450
 9709POPC   D2A67300  12.108  19.048   6.750
 9709POPC   C3A67301  12.082  19.093   7.050
 9709POPC   C4A67302  12.062  19.055   7.350
 9709POPC   C1B67303  12.224  18.845   6.450
 9709POPC   C2B67304  12.230  18.838   6.750
 9709POPC   C3B67305  12.224  18.794   7.050
 9709POPC   C4B67306  12.233  18.800   7.350
 9710POPC   NC367307  30.711  43.904   5.550
 9710POPC   PO467308  30.649  43.848   5.850
 9710POPC   GL167309  30.700  43.866   6.150
 9710POPC   GL267310  30.833  43.940   6.150
 9710POPC   C1A67311  30.695  43.886   6.450
 9710POPC   D2A67312  30.690  43.871   6.750
 9710POPC   C3A67313  30.701  43.853   7.050
 9710POPC   C4A67314  30.730  43.890   7.350
 9710POPC   C1B67315  30.919  43.867   6.450
 9710POPC   C2B67316  30.992  43.885   6.750
 9710POPC   C3B67317  30.945  43.923   7.050
 9710POPC   C4B67318  30.988  43.901   7.350
 9711POPC   NC367319  29.179  28.322   5.550
 9711POPC   PO467320  29.104  28.329   5.850
 9711POPC   GL167321  29.157  28.357   6.150
 9711POPC   GL267322  29.036  28.474   6.150
 9711POPC   C1A67323  29.183  28.334   6.450
 9711POPC   D2A67324  29.144  28.402   6.750
 9711POPC   C3A67325  29.192  28.382   7.050
 9711POPC   C4A67326  29.141  28.386   7.350
 9711POPC   C1B67327  28.975  28.540   6.450
 9711POPC   C2B67328  28.887  28.518   6.750
 9711POPC   C3B67329  28.913  28.523   7.050
 9711POPC   C4B67330  28.981  28.502   7.350
 9712POPC   NC367331   0.421  29.887   5.550
 9712POPC   PO467332   0.403  29.961   5.850
 9712POPC   GL167333   0.452  29.938   6.150
 9712POPC   GL267334   0.529  29.994   6.150
 9712POPC   C1A67335   0.399  29.925   6.450
 9712POPC   D2A67336   0.477  29.914   6.750
 9712POPC   C3A67337   0.476  29.939   7.050
 9712POPC   C4A67338   0.432  29.957   7.350
 9712POPC   C1B67339   0.526  30.111   6.450
 9712POPC   C2B67340   0.486  30.111   6.750
 9712POPC   C3B67341   0.558  30.141   7.050
 9712POPC   C4B67342   0.567  30.112   7.350
 9713POPC   NC367343  27.550  41.603   5.550
 9713POPC   PO467344  27.600  41.536   5.850
 9713POPC   GL167345  27.629  41.568   6.150
 9713POPC   GL267346  27.605  41.469   6.150
 9713POPC   C1A67347  27.608  41.519   6.450
 9713POPC   D2A67348  27.603  41.587   6.750
 9713POPC   C3A67349  27.604  41.515   7.050
 9713POPC   C4A67350  27.607  41.607   7.350
 9713POPC   C1B67351  27.647  41.307   6.450
 9713POPC   C2B67352  27.635  41.303   6.750
 9713POPC   C3B67353  27.678  41.343   7.050
 9713POPC   C4B67354  27.666  41.326   7.350
 9714POPC   NC367355  39.199  31.515   5.550
 9714POPC   PO467356  39.242  31.459   5.850
 9714POPC   GL167357  39.243  31.511   6.150
 9714POPC   GL267358  39.126  31.540   6.150
 9714POPC   C1A67359  39.274  31.472   6.450
 9714POPC   D2A67360  39.221  31.483   6.750
 9714POPC   C3A67361  39.222  31.476   7.050
 9714POPC   C4A67362  39.263  31.441   7.350
 9714POPC   C1B67363  38.959  31.569   6.450
 9714POPC   C2B67364  38.974  31.518   6.750
 9714POPC   C3B67365  38.959  31.531   7.050
 9714POPC   C4B67366  38.958  31.560   7.350
 9715POPC   NC367367  18.277  22.987   5.550
 9715POPC   PO467368  18.324  22.915   5.850
 9715POPC   GL167369  18.308  22.971   6.150
 9715POPC   GL267370  18.427  22.953   6.150
 9715POPC   C1A67371  18.243  22.953   6.450
 9715POPC   D2A67372  18.250  22.942   6.750
 9715POPC   C3A67373  18.277  22.892   7.050
 9715POPC   C4A67374  18.260  22.959   7.350
 9715POPC   C1B67375  18.547  23.063   6.450
 9715POPC   C2B67376  18.510  23.056   6.750
 9715POPC   C3B67377  18.505  23.054   7.050
 9715POPC   C4B67378  18.473  23.019   7.350
 9716POPC   NC367379   1.991  32.296   5.550
 9716POPC   PO467380   2.027  32.277   5.850
 9716POPC   GL167381   1.983  32.260   6.150
 9716POPC   GL267382   1.999  32.142   6.150
 9716POPC   C1A67383   2.022  32.276   6.450
 9716POPC   D2A67384   1.970  32.280   6.750
 9716POPC   C3A67385   1.970  32.296   7.050
 9716POPC   C4A67386   1.964  32.225   7.350
 9716POPC   C1B67387   2.040  32.016   6.450
 9716POPC   C2B67388   2.022  32.026   6.750
 9716POPC   C3B67389   2.034  31.999   7.050
 9716POPC   C4B67390   1.962  31.949   7.350
 9717POPC   NC367391  15.916  40.018   5.550
 9717POPC   PO467392  16.004  39.961   5.850
 9717POPC   GL167393  15.910  40.009   6.150
 9717POPC   GL267394  16.079  40.075   6.150
 9717POPC   C1A67395  15.994  40.025   6.450
 9717POPC   D2A67396  15.919  39.971   6.750
 9717POPC   C3A67397  15.945  40.045   7.050
 9717POPC   C4A67398  15.990  39.984   7.350
 9717POPC   C1B67399  16.146  40.207   6.450
 9717POPC   C2B67400  16.186  40.194   6.750
 9717POPC   C3B67401  16.177  40.197   7.050
 9717POPC   C4B67402  16.112  40.172   7.350
 9718POPC   NC367403  30.685  33.804   5.550
 9718POPC   PO467404  30.721  33.850   5.850
 9718POPC   GL167405  30.744  33.770   6.150
 9718POPC   GL267406  30.660  33.678   6.150
 9718POPC   C1A67407  30.651  33.802   6.450
 9718POPC   D2A67408  30.723  33.828   6.750
 9718POPC   C3A67409  30.676  33.776   7.050
 9718POPC   C4A67410  30.681  33.770   7.350
 9718POPC   C1B67411  30.558  33.637   6.450
 9718POPC   C2B67412  30.545  33.608   6.750
 9718POPC   C3B67413  30.503  33.661   7.050
 9718POPC   C4B67414  30.527  33.597   7.350
 9719POPC   NC367415   2.783   1.970   5.550
 9719POPC   PO467416   2.765   1.978   5.850
 9719POPC   GL167417   2.755   1.995   6.150
 9719POPC   GL267418   2.884   1.931   6.150
 9719POPC   C1A67419   2.781   1.957   6.450
 9719POPC   D2A67420   2.752   1.975   6.750
 9719POPC   C3A67421   2.734   1.980   7.050
 9719POPC   C4A67422   2.738   2.029   7.350
 9719POPC   C1B67423   2.994   1.919   6.450
 9719POPC   C2B67424   3.010   1.949   6.750
 9719POPC   C3B67425   3.019   1.866   7.050
 9719POPC   C4B67426   2.955   1.948   7.350
 9720POPC   NC367427  15.223  26.774   5.550
 9720POPC   PO467428  15.201  26.786   5.850
 9720POPC   GL167429  15.151  26.836   6.150
 9720POPC   GL267430  15.142  26.945   6.150
 9720POPC   C1A67431  15.223  26.852   6.450
 9720POPC   D2A67432  15.219  26.812   6.750
 9720POPC   C3A67433  15.220  26.790   7.050
 9720POPC   C4A67434  15.131  26.863   7.350
 9720POPC   C1B67435  15.114  27.076   6.450
 9720POPC   C2B67436  15.091  27.085   6.750
 9720POPC   C3B67437  15.107  26.999   7.050
 9720POPC   C4B67438  15.075  27.015   7.350
 9721POPC   NC367439  17.556   3.544   5.550
 9721POPC   PO467440  17.511   3.512   5.850
 9721POPC   GL167441  17.545   3.528   6.150
 9721POPC   GL267442  17.401   3.408   6.150
 9721POPC   C1A67443  17.496   3.572   6.450
 9721POPC   D2A67444  17.506   3.510   6.750
 9721POPC   C3A67445  17.488   3.548   7.050
 9721POPC   C4A67446  17.537   3.571   7.350
 9721POPC   C1B67447  17.314   3.325   6.450
 9721POPC   C2B67448  17.295   3.352   6.750
 9721POPC   C3B67449  17.307   3.394   7.050
 9721POPC   C4B67450  17.337   3.412   7.350
 9722POPC   NC367451   4.363  33.058   5.550
 9722POPC   PO467452   4.344  32.989   5.850
 9722POPC   GL167453   4.361  33.070   6.150
 9722POPC   GL267454   4.346  32.966   6.150
 9722POPC   C1A67455   4.340  33.008   6.450
 9722POPC   D2A67456   4.307  33.038   6.750
 9722POPC   C3A67457   4.366  32.985   7.050
 9722POPC   C4A67458   4.342  33.042   7.350
 9722POPC   C1B67459   4.501  32.857   6.450
 9722POPC   C2B67460   4.411  32.818   6.750
 9722POPC   C3B67461   4.441  32.862   7.050
 9722POPC   C4B67462   4.510  32.796   7.350
 9723POPC   NC367463  15.164  28.415   5.550
 9723POPC   PO467464  15.146  28.366   5.850
 9723POPC   GL167465  15.200  28.394   6.150
 9723POPC   GL267466  15.118  28.393   6.150
 9723POPC   C1A67467  15.134  28.399   6.450
 9723POPC   D2A67468  15.176  28.414   6.750
 9723POPC   C3A67469  15.196  28.323   7.050
 9723POPC   C4A67470  15.172  28.368   7.350
 9723POPC   C1B67471  14.943  28.532   6.450
 9723POPC   C2B67472  14.956  28.531   6.750
 9723POPC   C3B67473  14.988  28.498   7.050
 9723POPC   C4B67474  14.925  28.468   7.350
 9724POPC   NC367475  33.816  39.989   5.550
 9724POPC   PO467476  33.842  40.016   5.850
 9724POPC   GL167477  33.829  40.040   6.150
 9724POPC   GL267478  33.795  40.107   6.150
 9724POPC   C1A67479  33.786  40.001   6.450
 9724POPC   D2A67480  33.823  39.972   6.750
 9724POPC   C3A67481  33.842  39.973   7.050
 9724POPC   C4A67482  33.756  40.017   7.350
 9724POPC   C1B67483  33.875  40.214   6.450
 9724POPC   C2B67484  33.830  40.209   6.750
 9724POPC   C3B67485  33.872  40.269   7.050
 9724POPC   C4B67486  33.878  40.223   7.350
 9725POPC   NC367487   4.323  19.826   5.550
 9725POPC   PO467488   4.344  19.870   5.850
 9725POPC   GL167489   4.365  19.836   6.150
 9725POPC   GL267490   4.299  19.715   6.150
 9725POPC   C1A67491   4.299  19.875   6.450
 9725POPC   D2A67492   4.314  19.811   6.750
 9725POPC   C3A67493   4.290  19.849   7.050
 9725POPC   C4A67494   4.364  19.789   7.350
 9725POPC   C1B67495   4.150  19.654   6.450
 9725POPC   C2B67496   4.195  19.585   6.750
 9725POPC   C3B67497   4.145  19.662   7.050
 9725POPC   C4B67498   4.156  19.619   7.350
 9726POPC   NC367499  13.626  19.098   5.550
 9726POPC   PO467500  13.672  19.080   5.850
 9726POPC   GL167501  13.676  19.047   6.150
 9726POPC   GL267502  13.736  18.926   6.150
 9726POPC   C1A67503  13.640  19.048   6.450
 9726POPC   D2A67504  13.578  19.109   6.750
 9726POPC   C3A67505  13.664  19.029   7.050
 9726POPC   C4A67506  13.645  19.051   7.350
 9726POPC   C1B67507  13.823  18.858   6.450
 9726POPC   C2B67508  13.796  18.829   6.750
 9726POPC   C3B67509  13.843  18.909   7.050
 9726POPC   C4B67510  13.823  18.859   7.350
 9727POPC   NC367511   3.516  29.137   5.550
 9727POPC   PO467512   3.550  29.141   5.850
 9727POPC   GL167513   3.542  29.150   6.150
 9727POPC   GL267514   3.706  29.134   6.150
 9727POPC   C1A67515   3.517  29.188   6.450
 9727POPC   D2A67516   3.528  29.195   6.750
 9727POPC   C3A67517   3.499  29.167   7.050
 9727POPC   C4A67518   3.572  29.145   7.350
 9727POPC   C1B67519   3.839  29.222   6.450
 9727POPC   C2B67520   3.823  29.205   6.750
 9727POPC   C3B67521   3.810  29.188   7.050
 9727POPC   C4B67522   3.746  29.184   7.350
 9728POPC   NC367523  35.325   5.902   5.550
 9728POPC   PO467524  35.369   5.836   5.850
 9728POPC   GL167525  35.360   5.843   6.150
 9728POPC   GL267526  35.275   5.873   6.150
 9728POPC   C1A67527  35.322   5.838   6.450
 9728POPC   D2A67528  35.333   5.830   6.750
 9728POPC   C3A67529  35.385   5.912   7.050
 9728POPC   C4A67530  35.338   5.823   7.350
 9728POPC   C1B67531  35.113   5.992   6.450
 9728POPC   C2B67532  35.126   5.957   6.750
 9728POPC   C3B67533  35.159   5.938   7.050
 9728POPC   C4B67534  35.078   5.989   7.350
 9729POPC   NC367535   9.701  22.917   5.550
 9729POPC   PO467536   9.745  22.908   5.850
 9729POPC   GL167537   9.699  22.973   6.150
 9729POPC   GL267538   9.593  22.868   6.150
 9729POPC   C1A67539   9.732  22.929   6.450
 9729POPC   D2A67540   9.731  22.983   6.750
 9729POPC   C3A67541   9.753  22.913   7.050
 9729POPC   C4A67542   9.749  22.904   7.350
 9729POPC   C1B67543   9.527  22.779   6.450
 9729POPC   C2B67544   9.557  22.775   6.750
 9729POPC   C3B67545   9.507  22.833   7.050
 9729POPC   C4B67546   9.575  22.838   7.350
 9730POPC   NC367547   5.858  14.420   5.550
 9730POPC   PO467548   5.851  14.395   5.850
 9730POPC   GL167549   5.833  14.434   6.150
 9730POPC   GL267550   5.905  14.325   6.150
 9730POPC   C1A67551   5.874  14.418   6.450
 9730POPC   D2A67552   5.888  14.362   6.750
 9730POPC   C3A67553   5.848  14.445   7.050
 9730POPC   C4A67554   5.834  14.418   7.350
 9730POPC   C1B67555   5.875  14.188   6.450
 9730POPC   C2B67556   5.848  14.165   6.750
 9730POPC   C3B67557   5.890  14.202   7.050
 9730POPC   C4B67558   5.821  14.147   7.350
 9731POPC   NC367559  32.224  28.360   5.550
 9731POPC   PO467560  32.259  28.387   5.850
 9731POPC   GL167561  32.232  28.374   6.150
 9731POPC   GL267562  32.303  28.257   6.150
 9731POPC   C1A67563  32.210  28.371   6.450
 9731POPC   D2A67564  32.247  28.413   6.750
 9731POPC   C3A67565  32.256  28.351   7.050
 9731POPC   C4A67566  32.216  28.363   7.350
 9731POPC   C1B67567  32.344  28.123   6.450
 9731POPC   C2B67568  32.323  28.128   6.750
 9731POPC   C3B67569  32.353  28.102   7.050
 9731POPC   C4B67570  32.308  28.124   7.350
 9732POPC   NC367571  27.589  12.832   5.550
 9732POPC   PO467572  27.620  12.892   5.850
 9732POPC   GL167573  27.555  12.818   6.150
 9732POPC   GL267574  27.474  12.904   6.150
 9732POPC   C1A67575  27.556  12.857   6.450
 9732POPC   D2A67576  27.642  12.868   6.750
 9732POPC   C3A67577  27.564  12.867   7.050
 9732POPC   C4A67578  27.594  12.814   7.350
 9732POPC   C1B67579  27.366  12.925   6.450
 9732POPC   C2B67580  27.342  12.997   6.750
 9732POPC   C3B67581  27.366  12.983   7.050
 9732POPC   C4B67582  27.389  12.923   7.350
 9733POPC   NC367583  32.272  29.143   5.550
 9733POPC   PO467584  32.284  29.101   5.850
 9733POPC   GL167585  32.205  29.099   6.150
 9733POPC   GL267586  32.102  29.099   6.150
 9733POPC   C1A67587  32.285  29.099   6.450
 9733POPC   D2A67588  32.289  29.140   6.750
 9733POPC   C3A67589  32.222  29.173   7.050
 9733POPC   C4A67590  32.282  29.108   7.350
 9733POPC   C1B67591  31.979  29.005   6.450
 9733POPC   C2B67592  32.001  29.018   6.750
 9733POPC   C3B67593  32.039  29.012   7.050
 9733POPC   C4B67594  32.032  29.013   7.350
 9734POPC   NC367595  13.591  26.838   5.550
 9734POPC   PO467596  13.674  26.818   5.850
 9734POPC   GL167597  13.606  26.834   6.150
 9734POPC   GL267598  13.657  26.731   6.150
 9734POPC   C1A67599  13.603  26.789   6.450
 9734POPC   D2A67600  13.608  26.810   6.750
 9734POPC   C3A67601  13.589  26.828   7.050
 9734POPC   C4A67602  13.657  26.779   7.350
 9734POPC   C1B67603  13.664  26.521   6.450
 9734POPC   C2B67604  13.624  26.521   6.750
 9734POPC   C3B67605  13.598  26.554   7.050
 9734POPC   C4B67606  13.581  26.580   7.350
 9735POPC   NC367607  22.133  17.522   5.550
 9735POPC   PO467608  22.159  17.502   5.850
 9735POPC   GL167609  22.156  17.540   6.150
 9735POPC   GL267610  22.220  17.625   6.150
 9735POPC   C1A67611  22.129  17.493   6.450
 9735POPC   D2A67612  22.160  17.486   6.750
 9735POPC   C3A67613  22.207  17.499   7.050
 9735POPC   C4A67614  22.172  17.524   7.350
 9735POPC   C1B67615  22.290  17.709   6.450
 9735POPC   C2B67616  22.286  17.731   6.750
 9735POPC   C3B67617  22.270  17.686   7.050
 9735POPC   C4B67618  22.246  17.693   7.350
 9736POPC   NC367619  44.624  31.446   5.550
 9736POPC   PO467620  44.691  31.464   5.850
 9736POPC   GL167621  44.639  31.522   6.150
 9736POPC   GL267622  44.709  31.579   6.150
 9736POPC   C1A67623  44.706  31.489   6.450
 9736POPC   D2A67624  44.617  31.426   6.750
 9736POPC   C3A67625  44.708  31.433   7.050
 9736POPC   C4A67626  44.659  31.496   7.350
 9736POPC   C1B67627  44.786  31.731   6.450
 9736POPC   C2B67628  44.835  31.682   6.750
 9736POPC   C3B67629  44.837  31.659   7.050
 9736POPC   C4B67630  44.781  31.722   7.350
 9737POPC   NC367631  22.902  36.163   5.550
 9737POPC   PO467632  22.914  36.127   5.850
 9737POPC   GL167633  22.970  36.117   6.150
 9737POPC   GL267634  23.022  36.277   6.150
 9737POPC   C1A67635  22.905  36.120   6.450
 9737POPC   D2A67636  22.957  36.173   6.750
 9737POPC   C3A67637  22.979  36.106   7.050
 9737POPC   C4A67638  22.938  36.168   7.350
 9737POPC   C1B67639  23.044  36.317   6.450
 9737POPC   C2B67640  23.094  36.344   6.750
 9737POPC   C3B67641  23.059  36.306   7.050
 9737POPC   C4B67642  23.007  36.319   7.350
 9738POPC   NC367643  29.879  40.051   5.550
 9738POPC   PO467644  29.957  39.979   5.850
 9738POPC   GL167645  29.928  40.047   6.150
 9738POPC   GL267646  29.889  39.890   6.150
 9738POPC   C1A67647  29.872  39.963   6.450
 9738POPC   D2A67648  29.888  39.976   6.750
 9738POPC   C3A67649  29.884  40.054   7.050
 9738POPC   C4A67650  29.971  40.008   7.350
 9738POPC   C1B67651  29.832  39.716   6.450
 9738POPC   C2B67652  29.886  39.736   6.750
 9738POPC   C3B67653  29.826  39.732   7.050
 9738POPC   C4B67654  29.830  39.739   7.350
 9739POPC   NC367655   6.617  39.216   5.550
 9739POPC   PO467656   6.650  39.245   5.850
 9739POPC   GL167657   6.613  39.191   6.150
 9739POPC   GL267658   6.609  39.350   6.150
 9739POPC   C1A67659   6.612  39.272   6.450
 9739POPC   D2A67660   6.614  39.230   6.750
 9739POPC   C3A67661   6.644  39.203   7.050
 9739POPC   C4A67662   6.609  39.232   7.350
 9739POPC   C1B67663   6.451  39.441   6.450
 9739POPC   C2B67664   6.512  39.394   6.750
 9739POPC   C3B67665   6.434  39.432   7.050
 9739POPC   C4B67666   6.445  39.426   7.350
 9740POPC   NC367667  31.425   8.187   5.550
 9740POPC   PO467668  31.458   8.198   5.850
 9740POPC   GL167669  31.436   8.188   6.150
 9740POPC   GL267670  31.362   8.271   6.150
 9740POPC   C1A67671  31.444   8.215   6.450
 9740POPC   D2A67672  31.423   8.188   6.750
 9740POPC   C3A67673  31.491   8.173   7.050
 9740POPC   C4A67674  31.486   8.165   7.350
 9740POPC   C1B67675  31.284   8.394   6.450
 9740POPC   C2B67676  31.305   8.389   6.750
 9740POPC   C3B67677  31.294   8.384   7.050
 9740POPC   C4B67678  31.285   8.412   7.350
 9741POPC   NC367679  38.441  30.745   5.550
 9741POPC   PO467680  38.427  30.716   5.850
 9741POPC   GL167681  38.455  30.700   6.150
 9741POPC   GL267682  38.338  30.667   6.150
 9741POPC   C1A67683  38.467  30.710   6.450
 9741POPC   D2A67684  38.431  30.740   6.750
 9741POPC   C3A67685  38.501  30.702   7.050
 9741POPC   C4A67686  38.487  30.680   7.350
 9741POPC   C1B67687  38.288  30.541   6.450
 9741POPC   C2B67688  38.255  30.535   6.750
 9741POPC   C3B67689  38.208  30.564   7.050
 9741POPC   C4B67690  38.288  30.582   7.350
 9742POPC   NC367691  39.182   6.669   5.550
 9742POPC   PO467692  39.196   6.688   5.850
 9742POPC   GL167693  39.277   6.640   6.150
 9742POPC   GL267694  39.224   6.572   6.150
 9742POPC   C1A67695  39.272   6.650   6.450
 9742POPC   D2A67696  39.226   6.639   6.750
 9742POPC   C3A67697  39.203   6.653   7.050
 9742POPC   C4A67698  39.268   6.664   7.350
 9742POPC   C1B67699  39.094   6.432   6.450
 9742POPC   C2B67700  39.089   6.447   6.750
 9742POPC   C3B67701  39.097   6.418   7.050
 9742POPC   C4B67702  39.160   6.419   7.350
 9743POPC   NC367703  41.597   1.947   5.550
 9743POPC   PO467704  41.575   1.943   5.850
 9743POPC   GL167705  41.578   1.978   6.150
 9743POPC   GL267706  41.454   1.858   6.150
 9743POPC   C1A67707  41.595   1.957   6.450
 9743POPC   D2A67708  41.553   2.036   6.750
 9743POPC   C3A67709  41.561   2.005   7.050
 9743POPC   C4A67710  41.565   2.018   7.350
 9743POPC   C1B67711  41.416   1.770   6.450
 9743POPC   C2B67712  41.404   1.859   6.750
 9743POPC   C3B67713  41.361   1.782   7.050
 9743POPC   C4B67714  41.373   1.857   7.350
 9744POPC   NC367715   3.535  33.770   5.550
 9744POPC   PO467716   3.537  33.782   5.850
 9744POPC   GL167717   3.519  33.797   6.150
 9744POPC   GL267718   3.705  33.787   6.150
 9744POPC   C1A67719   3.561  33.834   6.450
 9744POPC   D2A67720   3.501  33.780   6.750
 9744POPC   C3A67721   3.570  33.808   7.050
 9744POPC   C4A67722   3.537  33.771   7.350
 9744POPC   C1B67723   3.729  33.668   6.450
 9744POPC   C2B67724   3.739  33.667   6.750
 9744POPC   C3B67725   3.810  33.666   7.050
 9744POPC   C4B67726   3.779  33.721   7.350
 9745POPC   NC367727  27.587  30.737   5.550
 9745POPC   PO467728  27.636  30.676   5.850
 9745POPC   GL167729  27.560  30.743   6.150
 9745POPC   GL267730  27.636  30.779   6.150
 9745POPC   C1A67731  27.558  30.672   6.450
 9745POPC   D2A67732  27.584  30.740   6.750
 9745POPC   C3A67733  27.571  30.707   7.050
 9745POPC   C4A67734  27.570  30.702   7.350
 9745POPC   C1B67735  27.687  30.875   6.450
 9745POPC   C2B67736  27.681  30.968   6.750
 9745POPC   C3B67737  27.738  30.877   7.050
 9745POPC   C4B67738  27.744  30.965   7.350
 9746POPC   NC367739  33.821  36.154   5.550
 9746POPC   PO467740  33.798  36.105   5.850
 9746POPC   GL167741  33.755  36.103   6.150
 9746POPC   GL267742  33.802  36.242   6.150
 9746POPC   C1A67743  33.807  36.166   6.450
 9746POPC   D2A67744  33.799  36.163   6.750
 9746POPC   C3A67745  33.803  36.138   7.050
 9746POPC   C4A67746  33.753  36.145   7.350
 9746POPC   C1B67747  33.888  36.414   6.450
 9746POPC   C2B67748  33.908  36.395   6.750
 9746POPC   C3B67749  33.893  36.411   7.050
 9746POPC   C4B67750  33.848  36.416   7.350
 9747POPC   NC367751  29.125  15.938   5.550
 9747POPC   PO467752  29.194  15.924   5.850
 9747POPC   GL167753  29.180  15.917   6.150
 9747POPC   GL267754  29.167  16.062   6.150
 9747POPC   C1A67755  29.098  15.935   6.450
 9747POPC   D2A67756  29.147  15.987   6.750
 9747POPC   C3A67757  29.139  15.988   7.050
 9747POPC   C4A67758  29.162  15.971   7.350
 9747POPC   C1B67759  29.162  16.238   6.450
 9747POPC   C2B67760  29.135  16.209   6.750
 9747POPC   C3B67761  29.208  16.207   7.050
 9747POPC   C4B67762  29.167  16.249   7.350
 9748POPC   NC367763  21.391   9.007   5.550
 9748POPC   PO467764  21.430   8.974   5.850
 9748POPC   GL167765  21.341   9.007   6.150
 9748POPC   GL267766  21.510   9.071   6.150
 9748POPC   C1A67767  21.422   8.924   6.450
 9748POPC   D2A67768  21.434   8.958   6.750
 9748POPC   C3A67769  21.401   8.967   7.050
 9748POPC   C4A67770  21.410   8.933   7.350
 9748POPC   C1B67771  21.628   9.081   6.450
 9748POPC   C2B67772  21.592   9.086   6.750
 9748POPC   C3B67773  21.569   9.095   7.050
 9748POPC   C4B67774  21.662   9.118   7.350
 9749POPC   NC367775  32.215  37.647   5.550
 9749POPC   PO467776  32.253  37.700   5.850
 9749POPC   GL167777  32.291  37.675   6.150
 9749POPC   GL267778  32.153  37.617   6.150
 9749POPC   C1A67779  32.295  37.632   6.450
 9749POPC   D2A67780  32.294  37.700   6.750
 9749POPC   C3A67781  32.256  37.673   7.050
 9749POPC   C4A67782  32.258  37.689   7.350
 9749POPC   C1B67783  32.022  37.678   6.450
 9749POPC   C2B67784  31.992  37.641   6.750
 9749POPC   C3B67785  32.010  37.635   7.050
 9749POPC   C4B67786  31.981  37.675   7.350
 9750POPC   NC367787  16.753  34.529   5.550
 9750POPC   PO467788  16.739  34.527   5.850
 9750POPC   GL167789  16.713  34.591   6.150
 9750POPC   GL267790  16.843  34.574   6.150
 9750POPC   C1A67791  16.716  34.531   6.450
 9750POPC   D2A67792  16.705  34.549   6.750
 9750POPC   C3A67793  16.690  34.577   7.050
 9750POPC   C4A67794  16.724  34.575   7.350
 9750POPC   C1B67795  16.939  34.534   6.450
 9750POPC   C2B67796  16.952  34.564   6.750
 9750POPC   C3B67797  16.980  34.514   7.050
 9750POPC   C4B67798  16.950  34.574   7.350
 9751POPC   NC367799  44.642   9.758   5.550
 9751POPC   PO467800  44.669   9.764   5.850
 9751POPC   GL167801  44.699   9.798   6.150
 9751POPC   GL267802  44.633   9.873   6.150
 9751POPC   C1A67803  44.683   9.760   6.450
 9751POPC   D2A67804  44.634   9.731   6.750
 9751POPC   C3A67805  44.617   9.760   7.050
 9751POPC   C4A67806  44.674   9.796   7.350
 9751POPC   C1B67807  44.636   9.953   6.450
 9751POPC   C2B67808  44.678  10.016   6.750
 9751POPC   C3B67809  44.721  10.028   7.050
 9751POPC   C4B67810  44.666  10.037   7.350
 9752POPC   NC367811  32.290   3.575   5.550
 9752POPC   PO467812  32.287   3.561   5.850
 9752POPC   GL167813  32.214   3.565   6.150
 9752POPC   GL267814  32.152   3.585   6.150
 9752POPC   C1A67815  32.294   3.557   6.450
 9752POPC   D2A67816  32.294   3.509   6.750
 9752POPC   C3A67817  32.232   3.495   7.050
 9752POPC   C4A67818  32.295   3.533   7.350
 9752POPC   C1B67819  32.081   3.731   6.450
 9752POPC   C2B67820  32.035   3.732   6.750
 9752POPC   C3B67821  32.024   3.676   7.050
 9752POPC   C4B67822  32.018   3.671   7.350
 9753POPC   NC367823  36.905  33.817   5.550
 9753POPC   PO467824  36.876  33.823   5.850
 9753POPC   GL167825  36.953  33.848   6.150
 9753POPC   GL267826  36.845  33.702   6.150
 9753POPC   C1A67827  36.877  33.834   6.450
 9753POPC   D2A67828  36.928  33.818   6.750
 9753POPC   C3A67829  36.911  33.756   7.050
 9753POPC   C4A67830  36.902  33.820   7.350
 9753POPC   C1B67831  36.792  33.569   6.450
 9753POPC   C2B67832  36.871  33.576   6.750
 9753POPC   C3B67833  36.819  33.581   7.050
 9753POPC   C4B67834  36.834  33.574   7.350
 9754POPC   NC367835  21.419  27.564   5.550
 9754POPC   PO467836  21.356  27.560   5.850
 9754POPC   GL167837  21.378  27.570   6.150
 9754POPC   GL267838  21.484  27.650   6.150
 9754POPC   C1A67839  21.368  27.562   6.450
 9754POPC   D2A67840  21.372  27.586   6.750
 9754POPC   C3A67841  21.391  27.577   7.050
 9754POPC   C4A67842  21.394  27.628   7.350
 9754POPC   C1B67843  21.649  27.709   6.450
 9754POPC   C2B67844  21.611  27.671   6.750
 9754POPC   C3B67845  21.643  27.698   7.050
 9754POPC   C4B67846  21.608  27.720   7.350
 9755POPC   NC367847  36.141   7.452   5.550
 9755POPC   PO467848  36.153   7.389   5.850
 9755POPC   GL167849  36.176   7.443   6.150
 9755POPC   GL267850  36.269   7.342   6.150
 9755POPC   C1A67851  36.133   7.457   6.450
 9755POPC   D2A67852  36.153   7.382   6.750
 9755POPC   C3A67853  36.163   7.437   7.050
 9755POPC   C4A67854  36.126   7.429   7.350
 9755POPC   C1B67855  36.287   7.312   6.450
 9755POPC   C2B67856  36.274   7.258   6.750
 9755POPC   C3B67857  36.341   7.271   7.050
 9755POPC   C4B67858  36.285   7.267   7.350
 9756POPC   NC367859   7.469   2.760   5.550
 9756POPC   PO467860   7.379   2.721   5.850
 9756POPC   GL167861   7.466   2.737   6.150
 9756POPC   GL267862   7.480   2.868   6.150
 9756POPC   C1A67863   7.430   2.735   6.450
 9756POPC   D2A67864   7.419   2.802   6.750
 9756POPC   C3A67865   7.395   2.736   7.050
 9756POPC   C4A67866   7.459   2.781   7.350
 9756POPC   C1B67867   7.583   3.023   6.450
 9756POPC   C2B67868   7.556   2.963   6.750
 9756POPC   C3B67869   7.579   2.939   7.050
 9756POPC   C4B67870   7.584   2.969   7.350
 9757POPC   NC367871  11.307  19.029   5.550
 9757POPC   PO467872  11.325  19.100   5.850
 9757POPC   GL167873  11.268  19.047   6.150
 9757POPC   GL267874  11.237  19.188   6.150
 9757POPC   C1A67875  11.311  19.103   6.450
 9757POPC   D2A67876  11.253  19.021   6.750
 9757POPC   C3A67877  11.291  19.010   7.050
 9757POPC   C4A67878  11.286  19.087   7.350
 9757POPC   C1B67879  11.152  19.212   6.450
 9757POPC   C2B67880  11.125  19.291   6.750
 9757POPC   C3B67881  11.144  19.263   7.050
 9757POPC   C4B67882  11.098  19.238   7.350
 9758POPC   NC367883  13.647   7.399   5.550
 9758POPC   PO467884  13.611   7.440   5.850
 9758POPC   GL167885  13.669   7.444   6.150
 9758POPC   GL267886  13.691   7.485   6.150
 9758POPC   C1A67887  13.662   7.405   6.450
 9758POPC   D2A67888  13.669   7.386   6.750
 9758POPC   C3A67889  13.593   7.389   7.050
 9758POPC   C4A67890  13.669   7.392   7.350
 9758POPC   C1B67891  13.788   7.589   6.450
 9758POPC   C2B67892  13.722   7.637   6.750
 9758POPC   C3B67893  13.761   7.685   7.050
 9758POPC   C4B67894  13.717   7.602   7.350
 9759POPC   NC367895  15.998  34.542   5.550
 9759POPC   PO467896  15.947  34.572   5.850
 9759POPC   GL167897  15.982  34.574   6.150
 9759POPC   GL267898  15.905  34.646   6.150
 9759POPC   C1A67899  15.972  34.572   6.450
 9759POPC   D2A67900  15.990  34.564   6.750
 9759POPC   C3A67901  15.968  34.581   7.050
 9759POPC   C4A67902  15.993  34.580   7.350
 9759POPC   C1B67903  15.839  34.849   6.450
 9759POPC   C2B67904  15.882  34.827   6.750
 9759POPC   C3B67905  15.829  34.840   7.050
 9759POPC   C4B67906  15.848  34.797   7.350
 9760POPC   NC367907  19.087   9.727   5.550
 9760POPC   PO467908  19.082   9.777   5.850
 9760POPC   GL167909  19.040   9.716   6.150
 9760POPC   GL267910  19.058   9.871   6.150
 9760POPC   C1A67911  19.086   9.768   6.450
 9760POPC   D2A67912  19.017   9.749   6.750
 9760POPC   C3A67913  19.027   9.711   7.050
 9760POPC   C4A67914  19.082   9.722   7.350
 9760POPC   C1B67915  19.085   9.960   6.450
 9760POPC   C2B67916  19.108  10.029   6.750
 9760POPC   C3B67917  19.090  10.033   7.050
 9760POPC   C4B67918  19.068   9.956   7.350
 9761POPC   NC367919   5.865  15.910   5.550
 9761POPC   PO467920   5.893  15.997   5.850
 9761POPC   GL167921   5.845  15.909   6.150
 9761POPC   GL267922   5.947  15.968   6.150
 9761POPC   C1A67923   5.879  15.997   6.450
 9761POPC   D2A67924   5.914  15.993   6.750
 9761POPC   C3A67925   5.903  15.930   7.050
 9761POPC   C4A67926   5.910  15.977   7.350
 9761POPC   C1B67927   6.159  15.928   6.450
 9761POPC   C2B67928   6.115  15.954   6.750
 9761POPC   C3B67929   6.149  15.955   7.050
 9761POPC   C4B67930   6.106  15.909   7.350
 9762POPC   NC367931   4.314  37.686   5.550
 9762POPC   PO467932   4.308  37.683   5.850
 9762POPC   GL167933   4.268  37.653   6.150
 9762POPC   GL267934   4.243  37.644   6.150
 9762POPC   C1A67935   4.299  37.659   6.450
 9762POPC   D2A67936   4.291  37.716   6.750
 9762POPC   C3A67937   4.345  37.637   7.050
 9762POPC   C4A67938   4.311  37.706   7.350
 9762POPC   C1B67939   4.111  37.752   6.450
 9762POPC   C2B67940   4.029  37.754   6.750
 9762POPC   C3B67941   4.117  37.744   7.050
 9762POPC   C4B67942   4.069  37.677   7.350
 9763POPC   NC367943  39.240  26.791   5.550
 9763POPC   PO467944  39.256  26.819   5.850
 9763POPC   GL167945  39.237  26.773   6.150
 9763POPC   GL267946  39.135  26.820   6.150
 9763POPC   C1A67947  39.187  26.809   6.450
 9763POPC   D2A67948  39.189  26.854   6.750
 9763POPC   C3A67949  39.239  26.859   7.050
 9763POPC   C4A67950  39.207  26.810   7.350
 9763POPC   C1B67951  38.991  26.882   6.450
 9763POPC   C2B67952  38.963  26.904   6.750
 9763POPC   C3B67953  38.993  26.874   7.050
 9763POPC   C4B67954  38.976  26.895   7.350
 9764POPC   NC367955  18.306  36.154   5.550
 9764POPC   PO467956  18.269  36.106   5.850
 9764POPC   GL167957  18.300  36.137   6.150
 9764POPC   GL267958  18.162  36.066   6.150
 9764POPC   C1A67959  18.330  36.166   6.450
 9764POPC   D2A67960  18.266  36.121   6.750
 9764POPC   C3A67961  18.329  36.108   7.050
 9764POPC   C4A67962  18.249  36.174   7.350
 9764POPC   C1B67963  18.040  35.973   6.450
 9764POPC   C2B67964  18.017  35.992   6.750
 9764POPC   C3B67965  18.103  35.988   7.050
 9764POPC   C4B67966  18.080  36.068   7.350
 9765POPC   NC367967  28.411  17.534   5.550
 9765POPC   PO467968  28.382  17.477   5.850
 9765POPC   GL167969  28.337  17.468   6.150
 9765POPC   GL267970  28.282  17.446   6.150
 9765POPC   C1A67971  28.390  17.486   6.450
 9765POPC   D2A67972  28.328  17.501   6.750
 9765POPC   C3A67973  28.419  17.459   7.050
 9765POPC   C4A67974  28.401  17.515   7.350
 9765POPC   C1B67975  28.142  17.508   6.450
 9765POPC   C2B67976  28.075  17.520   6.750
 9765POPC   C3B67977  28.169  17.524   7.050
 9765POPC   C4B67978  28.102  17.519   7.350
 9766POPC   NC367979  23.683  16.761   5.550
 9766POPC   PO467980  23.685  16.770   5.850
 9766POPC   GL167981  23.741  16.703   6.150
 9766POPC   GL267982  23.675  16.886   6.150
 9766POPC   C1A67983  23.725  16.744   6.450
 9766POPC   D2A67984  23.705  16.736   6.750
 9766POPC   C3A67985  23.667  16.755   7.050
 9766POPC   C4A67986  23.714  16.729   7.350
 9766POPC   C1B67987  23.612  16.964   6.450
 9766POPC   C2B67988  23.645  17.018   6.750
 9766POPC   C3B67989  23.630  16.951   7.050
 9766POPC   C4B67990  23.625  16.954   7.350
 9767POPC   NC367991  30.669   4.328   5.550
 9767POPC   PO467992  30.664   4.269   5.850
 9767POPC   GL167993  30.651   4.272   6.150
 9767POPC   GL267994  30.592   4.434   6.150
 9767POPC   C1A67995  30.723   4.361   6.450
 9767POPC   D2A67996  30.715   4.366   6.750
 9767POPC   C3A67997  30.658   4.282   7.050
 9767POPC   C4A67998  30.705   4.285   7.350
 9767POPC   C1B67999  30.469   4.471   6.450
 9767POPC   C2B68000  30.483   4.486   6.750
 9767POPC   C3B68001  30.471   4.506   7.050
 9767POPC   C4B68002  30.538   4.504   7.350
 9768POPC   NC368003  37.640  25.312   5.550
 9768POPC   PO468004  37.695  25.229   5.850
 9768POPC   GL168005  37.683  25.256   6.150
 9768POPC   GL268006  37.741  25.307   6.150
 9768POPC   C1A68007  37.656  25.217   6.450
 9768POPC   D2A68008  37.657  25.234   6.750
 9768POPC   C3A68009  37.642  25.249   7.050
 9768POPC   C4A68010  37.638  25.283   7.350
 9768POPC   C1B68011  37.910  25.404   6.450
 9768POPC   C2B68012  37.897  25.445   6.750
 9768POPC   C3B68013  37.910  25.391   7.050
 9768POPC   C4B68014  37.913  25.453   7.350
 9769POPC   NC368015   5.872   5.101   5.550
 9769POPC   PO468016   5.839   5.062   5.850
 9769POPC   GL168017   5.864   5.111   6.150
 9769POPC   GL268018   5.875   5.183   6.150
 9769POPC   C1A68019   5.859   5.090   6.450
 9769POPC   D2A68020   5.834   5.126   6.750
 9769POPC   C3A68021   5.856   5.121   7.050
 9769POPC   C4A68022   5.846   5.092   7.350
 9769POPC   C1B68023   5.873   5.321   6.450
 9769POPC   C2B68024   5.921   5.366   6.750
 9769POPC   C3B68025   5.902   5.344   7.050
 9769POPC   C4B68026   5.938   5.345   7.350
 9770POPC   NC368027  44.665  41.594   5.550
 9770POPC   PO468028  44.650  41.573   5.850
 9770POPC   GL168029  44.664  41.562   6.150
 9770POPC   GL268030  44.803  41.636   6.150
 9770POPC   C1A68031  44.699  41.562   6.450
 9770POPC   D2A68032  44.698  41.577   6.750
 9770POPC   C3A68033  44.623  41.529   7.050
 9770POPC   C4A68034  44.647  41.574   7.350
 9770POPC   C1B68035  44.884  41.732   6.450
 9770POPC   C2B68036  44.917  41.645   6.750
 9770POPC   C3B68037  44.879  41.678   7.050
 9770POPC   C4B68038  44.890  41.636   7.350
 9771POPC   NC368039  18.255  22.183   5.550
 9771POPC   PO468040  18.285  22.166   5.850
 9771POPC   GL168041  18.275  22.154   6.150
 9771POPC   GL268042  18.320  22.288   6.150
 9771POPC   C1A68043  18.311  22.129   6.450
 9771POPC   D2A68044  18.253  22.136   6.750
 9771POPC   C3A68045  18.321  22.126   7.050
 9771POPC   C4A68046  18.293  22.180   7.350
 9771POPC   C1B68047  18.336  22.428   6.450
 9771POPC   C2B68048  18.308  22.442   6.750
 9771POPC   C3B68049  18.292  22.450   7.050
 9771POPC   C4B68050  18.299  22.373   7.350
 9772POPC   NC368051  11.256  42.339   5.550
 9772POPC   PO468052  11.345  42.316   5.850
 9772POPC   GL168053  11.350  42.362   6.150
 9772POPC   GL268054  11.318  42.476   6.150
 9772POPC   C1A68055  11.269  42.342   6.450
 9772POPC   D2A68056  11.251  42.295   6.750
 9772POPC   C3A68057  11.309  42.310   7.050
 9772POPC   C4A68058  11.298  42.372   7.350
 9772POPC   C1B68059  11.302  42.626   6.450
 9772POPC   C2B68060  11.267  42.620   6.750
 9772POPC   C3B68061  11.300  42.536   7.050
 9772POPC   C4B68062  11.294  42.584   7.350
 9773POPC   NC368063  43.100  42.376   5.550
 9773POPC   PO468064  43.082  42.316   5.850
 9773POPC   GL168065  43.086  42.328   6.150
 9773POPC   GL268066  43.156  42.502   6.150
 9773POPC   C1A68067  43.089  42.347   6.450
 9773POPC   D2A68068  43.081  42.287   6.750
 9773POPC   C3A68069  43.151  42.308   7.050
 9773POPC   C4A68070  43.110  42.309   7.350
 9773POPC   C1B68071  43.177  42.575   6.450
 9773POPC   C2B68072  43.195  42.561   6.750
 9773POPC   C3B68073  43.202  42.541   7.050
 9773POPC   C4B68074  43.207  42.554   7.350
 9774POPC   NC368075   3.507  43.925   5.550
 9774POPC   PO468076   3.546  43.926   5.850
 9774POPC   GL168077   3.514  43.889   6.150
 9774POPC   GL268078   3.491  43.742   6.150
 9774POPC   C1A68079   3.544  43.903   6.450
 9774POPC   D2A68080   3.521  43.923   6.750
 9774POPC   C3A68081   3.527  43.853   7.050
 9774POPC   C4A68082   3.502  43.852   7.350
 9774POPC   C1B68083   3.513  43.651   6.450
 9774POPC   C2B68084   3.465  43.681   6.750
 9774POPC   C3B68085   3.533  43.628   7.050
 9774POPC   C4B68086   3.477  43.657   7.350
 9775POPC   NC368087  29.892  36.170   5.550
 9775POPC   PO468088  29.881  36.161   5.850
 9775POPC   GL168089  29.950  36.149   6.150
 9775POPC   GL268090  30.003  35.996   6.150
 9775POPC   C1A68091  29.890  36.155   6.450
 9775POPC   D2A68092  29.900  36.114   6.750
 9775POPC   C3A68093  29.878  36.132   7.050
 9775POPC   C4A68094  29.944  36.109   7.350
 9775POPC   C1B68095  30.113  35.898   6.450
 9775POPC   C2B68096  30.110  35.934   6.750
 9775POPC   C3B68097  30.143  35.951   7.050
 9775POPC   C4B68098  30.100  35.911   7.350
 9776POPC   NC368099   5.891  22.914   5.550
 9776POPC   PO468100   5.842  22.907   5.850
 9776POPC   GL168101   5.870  22.942   6.150
 9776POPC   GL268102   6.008  22.939   6.150
 9776POPC   C1A68103   5.886  22.982   6.450
 9776POPC   D2A68104   5.893  22.975   6.750
 9776POPC   C3A68105   5.908  22.950   7.050
 9776POPC   C4A68106   5.866  22.936   7.350
 9776POPC   C1B68107   6.126  22.938   6.450
 9776POPC   C2B68108   6.161  22.973   6.750
 9776POPC   C3B68109   6.168  22.914   7.050
 9776POPC   C4B68110   6.145  22.952   7.350
 9777POPC   NC368111  33.822  26.837   5.550
 9777POPC   PO468112  33.818  26.845   5.850
 9777POPC   GL168113  33.796  26.778   6.150
 9777POPC   GL268114  33.898  26.843   6.150
 9777POPC   C1A68115  33.811  26.788   6.450
 9777POPC   D2A68116  33.791  26.850   6.750
 9777POPC   C3A68117  33.849  26.782   7.050
 9777POPC   C4A68118  33.771  26.817   7.350
 9777POPC   C1B68119  34.053  26.770   6.450
 9777POPC   C2B68120  33.996  26.731   6.750
 9777POPC   C3B68121  34.088  26.791   7.050
 9777POPC   C4B68122  34.064  26.791   7.350
 9778POPC   NC368123  33.803  37.683   5.550
 9778POPC   PO468124  33.756  37.642   5.850
 9778POPC   GL168125  33.847  37.703   6.150
 9778POPC   GL268126  33.729  37.749   6.150
 9778POPC   C1A68127  33.785  37.712   6.450
 9778POPC   D2A68128  33.769  37.694   6.750
 9778POPC   C3A68129  33.827  37.668   7.050
 9778POPC   C4A68130  33.816  37.677   7.350
 9778POPC   C1B68131  33.579  37.761   6.450
 9778POPC   C2B68132  33.533  37.795   6.750
 9778POPC   C3B68133  33.552  37.760   7.050
 9778POPC   C4B68134  33.604  37.759   7.350
 9779POPC   NC368135  19.014  36.125   5.550
 9779POPC   PO468136  19.074  36.129   5.850
 9779POPC   GL168137  19.039  36.130   6.150
 9779POPC   GL268138  19.041  36.261   6.150
 9779POPC   C1A68139  19.038  36.093   6.450
 9779POPC   D2A68140  19.035  36.176   6.750
 9779POPC   C3A68141  19.042  36.164   7.050
 9779POPC   C4A68142  19.053  36.106   7.350
 9779POPC   C1B68143  19.013  36.353   6.450
 9779POPC   C2B68144  19.015  36.396   6.750
 9779POPC   C3B68145  18.999  36.336   7.050
 9779POPC   C4B68146  18.943  36.413   7.350
 9780POPC   NC368147  22.936  24.501   5.550
 9780POPC   PO468148  22.948  24.459   5.850
 9780POPC   GL168149  22.986  24.440   6.150
 9780POPC   GL268150  22.935  24.379   6.150
 9780POPC   C1A68151  22.892  24.444   6.450
 9780POPC   D2A68152  22.947  24.526   6.750
 9780POPC   C3A68153  22.897  24.520   7.050
 9780POPC   C4A68154  22.908  24.524   7.350
 9780POPC   C1B68155  22.928  24.288   6.450
 9780POPC   C2B68156  22.952  24.273   6.750
 9780POPC   C3B68157  22.934  24.211   7.050
 9780POPC   C4B68158  22.982  24.224   7.350
 9781POPC   NC368159  22.148   9.010   5.550
 9781POPC   PO468160  22.119   8.962   5.850
 9781POPC   GL168161  22.113   8.945   6.150
 9781POPC   GL268162  22.160   8.865   6.150
 9781POPC   C1A68163  22.155   8.973   6.450
 9781POPC   D2A68164  22.114   8.923   6.750
 9781POPC   C3A68165  22.161   8.926   7.050
 9781POPC   C4A68166  22.204   9.013   7.350
 9781POPC   C1B68167  22.099   8.767   6.450
 9781POPC   C2B68168  22.129   8.685   6.750
 9781POPC   C3B68169  22.092   8.777   7.050
 9781POPC   C4B68170  22.061   8.742   7.350
 9782POPC   NC368171  26.842  37.630   5.550
 9782POPC   PO468172  26.824  37.712   5.850
 9782POPC   GL168173  26.837  37.695   6.150
 9782POPC   GL268174  26.652  37.739   6.150
 9782POPC   C1A68175  26.777  37.682   6.450
 9782POPC   D2A68176  26.768  37.648   6.750
 9782POPC   C3A68177  26.794  37.655   7.050
 9782POPC   C4A68178  26.865  37.645   7.350
 9782POPC   C1B68179  26.549  37.735   6.450
 9782POPC   C2B68180  26.620  37.746   6.750
 9782POPC   C3B68181  26.575  37.756   7.050
 9782POPC   C4B68182  26.538  37.754   7.350
 9783POPC   NC368183  19.858   6.618   5.550
 9783POPC   PO468184  19.856   6.682   5.850
 9783POPC   GL168185  19.821   6.638   6.150
 9783POPC   GL268186  19.894   6.534   6.150
 9783POPC   C1A68187  19.820   6.685   6.450
 9783POPC   D2A68188  19.874   6.664   6.750
 9783POPC   C3A68189  19.870   6.679   7.050
 9783POPC   C4A68190  19.798   6.670   7.350
 9783POPC   C1B68191  19.989   6.470   6.450
 9783POPC   C2B68192  19.972   6.450   6.750
 9783POPC   C3B68193  20.005   6.439   7.050
 9783POPC   C4B68194  20.006   6.475   7.350
 9784POPC   NC368195  37.641   1.210   5.550
 9784POPC   PO468196  37.665   1.200   5.850
 9784POPC   GL168197  37.699   1.218   6.150
 9784POPC   GL268198  37.527   1.266   6.150
 9784POPC   C1A68199  37.660   1.210   6.450
 9784POPC   D2A68200  37.663   1.210   6.750
 9784POPC   C3A68201  37.675   1.216   7.050
 9784POPC   C4A68202  37.675   1.253   7.350
 9784POPC   C1B68203  37.481   1.298   6.450
 9784POPC   C2B68204  37.448   1.322   6.750
 9784POPC   C3B68205  37.461   1.368   7.050
 9784POPC   C4B68206  37.451   1.311   7.350
 9785POPC   NC368207  44.664   6.647   5.550
 9785POPC   PO468208  44.703   6.610   5.850
 9785POPC   GL168209  44.624   6.631   6.150
 9785POPC   GL268210  44.755   6.635   6.150
 9785POPC   C1A68211  44.629   6.646   6.450
 9785POPC   D2A68212  44.643   6.682   6.750
 9785POPC   C3A68213  44.622   6.657   7.050
 9785POPC   C4A68214  44.670   6.607   7.350
 9785POPC   C1B68215  44.923   6.687   6.450
 9785POPC   C2B68216  44.950   6.700   6.750
 9785POPC   C3B68217  44.897   6.647   7.050
 9785POPC   C4B68218  44.961   6.691   7.350
 9786POPC   NC368219  15.928   0.395   5.550
 9786POPC   PO468220  15.975   0.446   5.850
 9786POPC   GL168221  15.947   0.396   6.150
 9786POPC   GL268222  15.984   0.522   6.150
 9786POPC   C1A68223  15.966   0.477   6.450
 9786POPC   D2A68224  15.925   0.412   6.750
 9786POPC   C3A68225  15.972   0.389   7.050
 9786POPC   C4A68226  15.960   0.462   7.350
 9786POPC   C1B68227  16.032   0.695   6.450
 9786POPC   C2B68228  16.044   0.705   6.750
 9786POPC   C3B68229  16.008   0.706   7.050
 9786POPC   C4B68230  15.987   0.650   7.350
 9787POPC   NC368231  44.666  21.345   5.550
 9787POPC   PO468232  44.701  21.370   5.850
 9787POPC   GL168233  44.684  21.345   6.150
 9787POPC   GL268234  44.531  21.346   6.150
 9787POPC   C1A68235  44.623  21.386   6.450
 9787POPC   D2A68236  44.655  21.401   6.750
 9787POPC   C3A68237  44.676  21.389   7.050
 9787POPC   C4A68238  44.671  21.403   7.350
 9787POPC   C1B68239  44.423  21.273   6.450
 9787POPC   C2B68240  44.428  21.231   6.750
 9787POPC   C3B68241  44.401  21.276   7.050
 9787POPC   C4B68242  44.451  21.294   7.350
 9788POPC   NC368243   5.843  36.090   5.550
 9788POPC   PO468244   5.914  36.151   5.850
 9788POPC   GL168245   5.861  36.090   6.150
 9788POPC   GL268246   5.883  36.054   6.150
 9788POPC   C1A68247   5.909  36.090   6.450
 9788POPC   D2A68248   5.838  36.119   6.750
 9788POPC   C3A68249   5.845  36.132   7.050
 9788POPC   C4A68250   5.880  36.143   7.350
 9788POPC   C1B68251   5.923  35.896   6.450
 9788POPC   C2B68252   5.918  35.863   6.750
 9788POPC   C3B68253   5.929  35.849   7.050
 9788POPC   C4B68254   5.964  35.899   7.350
 9789POPC   NC368255  41.560  15.959   5.550
 9789POPC   PO468256  41.569  15.923   5.850
 9789POPC   GL168257  41.524  15.919   6.150
 9789POPC   GL268258  41.524  15.813   6.150
 9789POPC   C1A68259  41.595  15.959   6.450
 9789POPC   D2A68260  41.578  15.922   6.750
 9789POPC   C3A68261  41.529  15.971   7.050
 9789POPC   C4A68262  41.524  15.913   7.350
 9789POPC   C1B68263  41.383  15.707   6.450
 9789POPC   C2B68264  41.424  15.789   6.750
 9789POPC   C3B68265  41.364  15.737   7.050
 9789POPC   C4B68266  41.380  15.709   7.350
 9790POPC   NC368267  18.264  38.440   5.550
 9790POPC   PO468268  18.244  38.408   5.850
 9790POPC   GL168269  18.309  38.476   6.150
 9790POPC   GL268270  18.308  38.623   6.150
 9790POPC   C1A68271  18.309  38.412   6.450
 9790POPC   D2A68272  18.322  38.480   6.750
 9790POPC   C3A68273  18.307  38.437   7.050
 9790POPC   C4A68274  18.251  38.501   7.350
 9790POPC   C1B68275  18.332  38.707   6.450
 9790POPC   C2B68276  18.302  38.744   6.750
 9790POPC   C3B68277  18.282  38.754   7.050
 9790POPC   C4B68278  18.332  38.722   7.350
 9791POPC   NC368279  13.673  15.993   5.550
 9791POPC   PO468280  13.654  15.928   5.850
 9791POPC   GL168281  13.625  15.925   6.150
 9791POPC   GL268282  13.665  15.867   6.150
 9791POPC   C1A68283  13.621  16.000   6.450
 9791POPC   D2A68284  13.655  15.952   6.750
 9791POPC   C3A68285  13.627  15.953   7.050
 9791POPC   C4A68286  13.580  15.918   7.350
 9791POPC   C1B68287  13.739  15.721   6.450
 9791POPC   C2B68288  13.754  15.747   6.750
 9791POPC   C3B68289  13.789  15.754   7.050
 9791POPC   C4B68290  13.721  15.742   7.350
 9792POPC   NC368291  23.683  30.663   5.550
 9792POPC   PO468292  23.731  30.669   5.850
 9792POPC   GL168293  23.721  30.663   6.150
 9792POPC   GL268294  23.668  30.795   6.150
 9792POPC   C1A68295  23.707  30.726   6.450
 9792POPC   D2A68296  23.746  30.669   6.750
 9792POPC   C3A68297  23.736  30.694   7.050
 9792POPC   C4A68298  23.692  30.675   7.350
 9792POPC   C1B68299  23.650  30.959   6.450
 9792POPC   C2B68300  23.712  30.922   6.750
 9792POPC   C3B68301  23.684  30.990   7.050
 9792POPC   C4B68302  23.655  30.914   7.350
 9793POPC   NC368303  12.116   8.233   5.550
 9793POPC   PO468304  12.064   8.202   5.850
 9793POPC   GL168305  12.061   8.191   6.150
 9793POPC   GL268306  12.163   8.144   6.150
 9793POPC   C1A68307  12.120   8.151   6.450
 9793POPC   D2A68308  12.079   8.201   6.750
 9793POPC   C3A68309  12.091   8.214   7.050
 9793POPC   C4A68310  12.048   8.176   7.350
 9793POPC   C1B68311  12.197   7.967   6.450
 9793POPC   C2B68312  12.190   8.035   6.750
 9793POPC   C3B68313  12.224   7.964   7.050
 9793POPC   C4B68314  12.189   7.960   7.350
 9794POPC   NC368315  29.121  31.435   5.550
 9794POPC   PO468316  29.136  31.464   5.850
 9794POPC   GL168317  29.102  31.444   6.150
 9794POPC   GL268318  29.192  31.626   6.150
 9794POPC   C1A68319  29.160  31.468   6.450
 9794POPC   D2A68320  29.187  31.506   6.750
 9794POPC   C3A68321  29.191  31.467   7.050
 9794POPC   C4A68322  29.145  31.469   7.350
 9794POPC   C1B68323  29.273  31.712   6.450
 9794POPC   C2B68324  29.254  31.667   6.750
 9794POPC   C3B68325  29.233  31.723   7.050
 9794POPC   C4B68326  29.177  31.688   7.350
 9795POPC   NC368327  13.616  29.189   5.550
 9795POPC   PO468328  13.675  29.146   5.850
 9795POPC   GL168329  13.608  29.097   6.150
 9795POPC   GL268330  13.633  29.241   6.150
 9795POPC   C1A68331  13.635  29.120   6.450
 9795POPC   D2A68332  13.604  29.126   6.750
 9795POPC   C3A68333  13.635  29.147   7.050
 9795POPC   C4A68334  13.607  29.177   7.350
 9795POPC   C1B68335  13.593  29.368   6.450
 9795POPC   C2B68336  13.526  29.346   6.750
 9795POPC   C3B68337  13.559  29.373   7.050
 9795POPC   C4B68338  13.572  29.386   7.350
 9796POPC   NC368339  32.994   6.639   5.550
 9796POPC   PO468340  33.011   6.635   5.850
 9796POPC   GL168341  32.979   6.663   6.150
 9796POPC   GL268342  32.949   6.799   6.150
 9796POPC   C1A68343  33.058   6.597   6.450
 9796POPC   D2A68344  32.990   6.694   6.750
 9796POPC   C3A68345  33.053   6.656   7.050
 9796POPC   C4A68346  33.013   6.684   7.350
 9796POPC   C1B68347  32.961   6.858   6.450
 9796POPC   C2B68348  32.967   6.865   6.750
 9796POPC   C3B68349  32.967   6.840   7.050
 9796POPC   C4B68350  33.003   6.863   7.350
 9797POPC   NC368351  12.859   8.953   5.550
 9797POPC   PO468352  12.833   8.976   5.850
 9797POPC   GL168353  12.868   8.933   6.150
 9797POPC   GL268354  12.975   8.986   6.150
 9797POPC   C1A68355  12.808   9.009   6.450
 9797POPC   D2A68356  12.875   9.008   6.750
 9797POPC   C3A68357  12.864   8.939   7.050
 9797POPC   C4A68358  12.835   8.980   7.350
 9797POPC   C1B68359  13.114   8.904   6.450
 9797POPC   C2B68360  13.105   8.945   6.750
 9797POPC   C3B68361  13.149   8.997   7.050
 9797POPC   C4B68362  13.081   8.919   7.350
 9798POPC   NC368363  40.801  11.298   5.550
 9798POPC   PO468364  40.816  11.348   5.850
 9798POPC   GL168365  40.823  11.260   6.150
 9798POPC   GL268366  40.709  11.361   6.150
 9798POPC   C1A68367  40.797  11.251   6.450
 9798POPC   D2A68368  40.797  11.338   6.750
 9798POPC   C3A68369  40.816  11.268   7.050
 9798POPC   C4A68370  40.791  11.290   7.350
 9798POPC   C1B68371  40.577  11.399   6.450
 9798POPC   C2B68372  40.586  11.465   6.750
 9798POPC   C3B68373  40.610  11.413   7.050
 9798POPC   C4B68374  40.554  11.486   7.350
 9799POPC   NC368375  19.034  25.265   5.550
 9799POPC   PO468376  19.036  25.256   5.850
 9799POPC   GL168377  19.096  25.246   6.150
 9799POPC   GL268378  19.013  25.356   6.150
 9799POPC   C1A68379  19.102  25.290   6.450
 9799POPC   D2A68380  19.107  25.296   6.750
 9799POPC   C3A68381  19.009  25.280   7.050
 9799POPC   C4A68382  19.083  25.216   7.350
 9799POPC   C1B68383  19.066  25.562   6.450
 9799POPC   C2B68384  19.111  25.472   6.750
 9799POPC   C3B68385  19.070  25.488   7.050
 9799POPC   C4B68386  19.021  25.506   7.350
 9800POPC   NC368387  40.812  38.445   5.550
 9800POPC   PO468388  40.744  38.409   5.850
 9800POPC   GL168389  40.738  38.414   6.150
 9800POPC   GL268390  40.700  38.518   6.150
 9800POPC   C1A68391  40.777  38.415   6.450
 9800POPC   D2A68392  40.733  38.439   6.750
 9800POPC   C3A68393  40.795  38.465   7.050
 9800POPC   C4A68394  40.781  38.415   7.350
 9800POPC   C1B68395  40.530  38.525   6.450
 9800POPC   C2B68396  40.564  38.551   6.750
 9800POPC   C3B68397  40.517  38.513   7.050
 9800POPC   C4B68398  40.522  38.551   7.350
 9801POPC   NC368399  25.252  16.761   5.550
 9801POPC   PO468400  25.262  16.732   5.850
 9801POPC   GL168401  25.226  16.763   6.150
 9801POPC   GL268402  25.233  16.574   6.150
 9801POPC   C1A68403  25.306  16.723   6.450
 9801POPC   D2A68404  25.313  16.728   6.750
 9801POPC   C3A68405  25.286  16.729   7.050
 9801POPC   C4A68406  25.299  16.722   7.350
 9801POPC   C1B68407  25.138  16.520   6.450
 9801POPC   C2B68408  25.194  16.529   6.750
 9801POPC   C3B68409  25.117  16.486   7.050
 9801POPC   C4B68410  25.122  16.465   7.350
 9802POPC   NC368411  36.930  20.578   5.550
 9802POPC   PO468412  36.862  20.611   5.850
 9802POPC   GL168413  36.919  20.647   6.150
 9802POPC   GL268414  36.961  20.514   6.150
 9802POPC   C1A68415  36.891  20.583   6.450
 9802POPC   D2A68416  36.886  20.570   6.750
 9802POPC   C3A68417  36.896  20.642   7.050
 9802POPC   C4A68418  36.862  20.604   7.350
 9802POPC   C1B68419  37.014  20.397   6.450
 9802POPC   C2B68420  37.067  20.400   6.750
 9802POPC   C3B68421  36.975  20.401   7.050
 9802POPC   C4B68422  37.047  20.429   7.350
 9803POPC   NC368423  39.185   1.169   5.550
 9803POPC   PO468424  39.206   1.241   5.850
 9803POPC   GL168425  39.209   1.178   6.150
 9803POPC   GL268426  39.276   1.106   6.150
 9803POPC   C1A68427  39.244   1.248   6.450
 9803POPC   D2A68428  39.231   1.252   6.750
 9803POPC   C3A68429  39.280   1.169   7.050
 9803POPC   C4A68430  39.206   1.196   7.350
 9803POPC   C1B68431  39.346   0.988   6.450
 9803POPC   C2B68432  39.413   0.971   6.750
 9803POPC   C3B68433  39.392   0.973   7.050
 9803POPC   C4B68434  39.402   1.021   7.350
 9804POPC   NC368435   5.113  23.745   5.550
 9804POPC   PO468436   5.095  23.686   5.850
 9804POPC   GL168437   5.074  23.679   6.150
 9804POPC   GL268438   5.047  23.568   6.150
 9804POPC   C1A68439   5.086  23.677   6.450
 9804POPC   D2A68440   5.057  23.719   6.750
 9804POPC   C3A68441   5.066  23.740   7.050
 9804POPC   C4A68442   5.140  23.687   7.350
 9804POPC   C1B68443   5.054  23.453   6.450
 9804POPC   C2B68444   5.067  23.498   6.750
 9804POPC   C3B68445   5.031  23.502   7.050
 9804POPC   C4B68446   5.039  23.509   7.350
 9805POPC   NC368447  13.652  30.738   5.550
 9805POPC   PO468448  13.621  30.671   5.850
 9805POPC   GL168449  13.650  30.705   6.150
 9805POPC   GL268450  13.599  30.819   6.150
 9805POPC   C1A68451  13.615  30.719   6.450
 9805POPC   D2A68452  13.670  30.651   6.750
 9805POPC   C3A68453  13.622  30.658   7.050
 9805POPC   C4A68454  13.587  30.715   7.350
 9805POPC   C1B68455  13.697  30.911   6.450
 9805POPC   C2B68456  13.709  30.964   6.750
 9805POPC   C3B68457  13.700  30.907   7.050
 9805POPC   C4B68458  13.662  30.983   7.350
 9806POPC   NC368459  40.813  29.097   5.550
 9806POPC   PO468460  40.761  29.187   5.850
 9806POPC   GL168461  40.769  29.149   6.150
 9806POPC   GL268462  40.852  29.274   6.150
 9806POPC   C1A68463  40.807  29.182   6.450
 9806POPC   D2A68464  40.821  29.126   6.750
 9806POPC   C3A68465  40.786  29.167   7.050
 9806POPC   C4A68466  40.757  29.189   7.350
 9806POPC   C1B68467  40.937  29.376   6.450
 9806POPC   C2B68468  40.981  29.347   6.750
 9806POPC   C3B68469  40.955  29.384   7.050
 9806POPC   C4B68470  40.905  29.361   7.350
 9807POPC   NC368471  38.493   4.269   5.550
 9807POPC   PO468472  38.505   4.269   5.850
 9807POPC   GL168473  38.467   4.321   6.150
 9807POPC   GL268474  38.618   4.296   6.150
 9807POPC   C1A68475  38.438   4.310   6.450
 9807POPC   D2A68476  38.453   4.280   6.750
 9807POPC   C3A68477  38.430   4.325   7.050
 9807POPC   C4A68478  38.459   4.276   7.350
 9807POPC   C1B68479  38.731   4.322   6.450
 9807POPC   C2B68480  38.671   4.279   6.750
 9807POPC   C3B68481  38.660   4.325   7.050
 9807POPC   C4B68482  38.747   4.255   7.350
 9808POPC   NC368483  39.205   5.047   5.550
 9808POPC   PO468484  39.193   5.110   5.850
 9808POPC   GL168485  39.209   5.045   6.150
 9808POPC   GL268486  39.294   5.017   6.150
 9808POPC   C1A68487  39.278   5.135   6.450
 9808POPC   D2A68488  39.198   5.068   6.750
 9808POPC   C3A68489  39.234   5.077   7.050
 9808POPC   C4A68490  39.263   5.084   7.350
 9808POPC   C1B68491  39.453   4.929   6.450
 9808POPC   C2B68492  39.491   4.992   6.750
 9808POPC   C3B68493  39.402   5.009   7.050
 9808POPC   C4B68494  39.481   4.977   7.350
 9809POPC   NC368495   3.552  29.891   5.550
 9809POPC   PO468496   3.499  29.951   5.850
 9809POPC   GL168497   3.584  29.884   6.150
 9809POPC   GL268498   3.647  29.808   6.150
 9809POPC   C1A68499   3.505  29.940   6.450
 9809POPC   D2A68500   3.524  29.935   6.750
 9809POPC   C3A68501   3.583  29.953   7.050
 9809POPC   C4A68502   3.544  29.964   7.350
 9809POPC   C1B68503   3.765  29.810   6.450
 9809POPC   C2B68504   3.788  29.820   6.750
 9809POPC   C3B68505   3.711  29.779   7.050
 9809POPC   C4B68506   3.781  29.780   7.350
 9810POPC   NC368507  12.105  13.581   5.550
 9810POPC   PO468508  12.098  13.650   5.850
 9810POPC   GL168509  12.041  13.615   6.150
 9810POPC   GL268510  12.076  13.483   6.150
 9810POPC   C1A68511  12.080  13.654   6.450
 9810POPC   D2A68512  12.094  13.618   6.750
 9810POPC   C3A68513  12.032  13.673   7.050
 9810POPC   C4A68514  12.075  13.606   7.350
 9810POPC   C1B68515  12.035  13.380   6.450
 9810POPC   C2B68516  12.024  13.406   6.750
 9810POPC   C3B68517  12.041  13.419   7.050
 9810POPC   C4B68518  11.974  13.381   7.350
 9811POPC   NC368519  37.721  28.365   5.550
 9811POPC   PO468520  37.697  28.385   5.850
 9811POPC   GL168521  37.696  28.348   6.150
 9811POPC   GL268522  37.542  28.336   6.150
 9811POPC   C1A68523  37.634  28.386   6.450
 9811POPC   D2A68524  37.701  28.370   6.750
 9811POPC   C3A68525  37.673  28.338   7.050
 9811POPC   C4A68526  37.698  28.342   7.350
 9811POPC   C1B68527  37.461  28.406   6.450
 9811POPC   C2B68528  37.419  28.350   6.750
 9811POPC   C3B68529  37.423  28.408   7.050
 9811POPC   C4B68530  37.393  28.376   7.350
 9812POPC   NC368531   3.571  17.554   5.550
 9812POPC   PO468532   3.504  17.461   5.850
 9812POPC   GL168533   3.585  17.497   6.150
 9812POPC   GL268534   3.585  17.601   6.150
 9812POPC   C1A68535   3.510  17.517   6.450
 9812POPC   D2A68536   3.500  17.517   6.750
 9812POPC   C3A68537   3.582  17.478   7.050
 9812POPC   C4A68538   3.524  17.538   7.350
 9812POPC   C1B68539   3.698  17.691   6.450
 9812POPC   C2B68540   3.608  17.781   6.750
 9812POPC   C3B68541   3.680  17.749   7.050
 9812POPC   C4B68542   3.607  17.732   7.350
 9813POPC   NC368543  24.480  10.527   5.550
 9813POPC   PO468544  24.445  10.539   5.850
 9813POPC   GL168545  24.508  10.539   6.150
 9813POPC   GL268546  24.545  10.463   6.150
 9813POPC   C1A68547  24.481  10.529   6.450
 9813POPC   D2A68548  24.446  10.485   6.750
 9813POPC   C3A68549  24.477  10.544   7.050
 9813POPC   C4A68550  24.453  10.552   7.350
 9813POPC   C1B68551  24.656  10.338   6.450
 9813POPC   C2B68552  24.681  10.371   6.750
 9813POPC   C3B68553  24.678  10.412   7.050
 9813POPC   C4B68554  24.681  10.355   7.350
 9814POPC   NC368555  41.539  32.246   5.550
 9814POPC   PO468556  41.587  32.247   5.850
 9814POPC   GL168557  41.529  32.258   6.150
 9814POPC   GL268558  41.457  32.164   6.150
 9814POPC   C1A68559  41.518  32.200   6.450
 9814POPC   D2A68560  41.560  32.201   6.750
 9814POPC   C3A68561  41.581  32.202   7.050
 9814POPC   C4A68562  41.535  32.237   7.350
 9814POPC   C1B68563  41.415  32.076   6.450
 9814POPC   C2B68564  41.384  32.078   6.750
 9814POPC   C3B68565  41.416  32.043   7.050
 9814POPC   C4B68566  41.395  32.107   7.350
 9815POPC   NC368567   4.351  29.120   5.550
 9815POPC   PO468568   4.273  29.130   5.850
 9815POPC   GL168569   4.355  29.178   6.150
 9815POPC   GL268570   4.208  29.216   6.150
 9815POPC   C1A68571   4.314  29.100   6.450
 9815POPC   D2A68572   4.358  29.167   6.750
 9815POPC   C3A68573   4.366  29.159   7.050
 9815POPC   C4A68574   4.279  29.138   7.350
 9815POPC   C1B68575   4.087  29.239   6.450
 9815POPC   C2B68576   4.119  29.203   6.750
 9815POPC   C3B68577   4.069  29.181   7.050
 9815POPC   C4B68578   4.121  29.275   7.350
 9816POPC   NC368579  19.053  22.174   5.550
 9816POPC   PO468580  19.031  22.122   5.850
 9816POPC   GL168581  19.032  22.204   6.150
 9816POPC   GL268582  19.177  22.225   6.150
 9816POPC   C1A68583  19.052  22.155   6.450
 9816POPC   D2A68584  19.027  22.130   6.750
 9816POPC   C3A68585  19.037  22.154   7.050
 9816POPC   C4A68586  19.098  22.115   7.350
 9816POPC   C1B68587  19.286  22.310   6.450
 9816POPC   C2B68588  19.216  22.346   6.750
 9816POPC   C3B68589  19.279  22.278   7.050
 9816POPC   C4B68590  19.270  22.353   7.350
 9817POPC   NC368591  22.987   8.223   5.550
 9817POPC   PO468592  22.944   8.233   5.850
 9817POPC   GL168593  22.898   8.210   6.150
 9817POPC   GL268594  22.903   8.052   6.150
 9817POPC   C1A68595  22.897   8.224   6.450
 9817POPC   D2A68596  22.932   8.179   6.750
 9817POPC   C3A68597  22.960   8.193   7.050
 9817POPC   C4A68598  22.907   8.169   7.350
 9817POPC   C1B68599  22.887   7.996   6.450
 9817POPC   C2B68600  22.902   7.969   6.750
 9817POPC   C3B68601  22.906   7.950   7.050
 9817POPC   C4B68602  22.842   7.914   7.350
 9818POPC   NC368603   8.213  19.021   5.550
 9818POPC   PO468604   8.156  19.087   5.850
 9818POPC   GL168605   8.172  19.027   6.150
 9818POPC   GL268606   8.262  19.141   6.150
 9818POPC   C1A68607   8.197  19.087   6.450
 9818POPC   D2A68608   8.197  19.013   6.750
 9818POPC   C3A68609   8.212  19.049   7.050
 9818POPC   C4A68610   8.185  19.033   7.350
 9818POPC   C1B68611   8.339  19.275   6.450
 9818POPC   C2B68612   8.355  19.291   6.750
 9818POPC   C3B68613   8.332  19.236   7.050
 9818POPC   C4B68614   8.371  19.276   7.350
 9819POPC   NC368615  20.627  11.321   5.550
 9819POPC   PO468616  20.563  11.270   5.850
 9819POPC   GL168617  20.611  11.311   6.150
 9819POPC   GL268618  20.497  11.216   6.150
 9819POPC   C1A68619  20.619  11.266   6.450
 9819POPC   D2A68620  20.606  11.262   6.750
 9819POPC   C3A68621  20.591  11.260   7.050
 9819POPC   C4A68622  20.602  11.341   7.350
 9819POPC   C1B68623  20.384  11.239   6.450
 9819POPC   C2B68624  20.351  11.184   6.750
 9819POPC   C3B68625  20.412  11.188   7.050
 9819POPC   C4B68626  20.385  11.172   7.350
 9820POPC   NC368627  12.095  35.345   5.550
 9820POPC   PO468628  12.124  35.393   5.850
 9820POPC   GL168629  12.047  35.366   6.150
 9820POPC   GL268630  12.030  35.181   6.150
 9820POPC   C1A68631  12.099  35.306   6.450
 9820POPC   D2A68632  12.111  35.380   6.750
 9820POPC   C3A68633  12.063  35.342   7.050
 9820POPC   C4A68634  12.103  35.368   7.350
 9820POPC   C1B68635  12.074  35.056   6.450
 9820POPC   C2B68636  12.103  35.144   6.750
 9820POPC   C3B68637  12.088  35.071   7.050
 9820POPC   C4B68638  12.029  35.079   7.350
 9821POPC   NC368639  23.683  21.422   5.550
 9821POPC   PO468640  23.665  21.391   5.850
 9821POPC   GL168641  23.763  21.412   6.150
 9821POPC   GL268642  23.828  21.273   6.150
 9821POPC   C1A68643  23.702  21.433   6.450
 9821POPC   D2A68644  23.735  21.348   6.750
 9821POPC   C3A68645  23.700  21.380   7.050
 9821POPC   C4A68646  23.685  21.346   7.350
 9821POPC   C1B68647  23.900  21.214   6.450
 9821POPC   C2B68648  23.891  21.248   6.750
 9821POPC   C3B68649  23.944  21.217   7.050
 9821POPC   C4B68650  23.883  21.223   7.350
 9822POPC   NC368651  38.454  22.208   5.550
 9822POPC   PO468652  38.431  22.172   5.850
 9822POPC   GL168653  38.467  22.126   6.150
 9822POPC   GL268654  38.432  22.010   6.150
 9822POPC   C1A68655  38.440  22.174   6.450
 9822POPC   D2A68656  38.407  22.132   6.750
 9822POPC   C3A68657  38.496  22.138   7.050
 9822POPC   C4A68658  38.472  22.122   7.350
 9822POPC   C1B68659  38.413  21.876   6.450
 9822POPC   C2B68660  38.381  21.906   6.750
 9822POPC   C3B68661  38.363  21.871   7.050
 9822POPC   C4B68662  38.364  21.899   7.350
 9823POPC   NC368663  35.338  28.360   5.550
 9823POPC   PO468664  35.324  28.323   5.850
 9823POPC   GL168665  35.374  28.336   6.150
 9823POPC   GL268666  35.246  28.387   6.150
 9823POPC   C1A68667  35.346  28.377   6.450
 9823POPC   D2A68668  35.371  28.377   6.750
 9823POPC   C3A68669  35.334  28.322   7.050
 9823POPC   C4A68670  35.338  28.345   7.350
 9823POPC   C1B68671  35.062  28.378   6.450
 9823POPC   C2B68672  35.129  28.402   6.750
 9823POPC   C3B68673  35.089  28.359   7.050
 9823POPC   C4B68674  35.130  28.321   7.350
 9824POPC   NC368675  11.253  14.440   5.550
 9824POPC   PO468676  11.263  14.424   5.850
 9824POPC   GL168677  11.312  14.407   6.150
 9824POPC   GL268678  11.259  14.310   6.150
 9824POPC   C1A68679  11.336  14.395   6.450
 9824POPC   D2A68680  11.294  14.366   6.750
 9824POPC   C3A68681  11.332  14.370   7.050
 9824POPC   C4A68682  11.294  14.419   7.350
 9824POPC   C1B68683  11.170  14.176   6.450
 9824POPC   C2B68684  11.130  14.184   6.750
 9824POPC   C3B68685  11.214  14.229   7.050
 9824POPC   C4B68686  11.214  14.182   7.350
 9825POPC   NC368687  21.400  35.399   5.550
 9825POPC   PO468688  21.344  35.362   5.850
 9825POPC   GL168689  21.369  35.344   6.150
 9825POPC   GL268690  21.532  35.337   6.150
 9825POPC   C1A68691  21.366  35.401   6.450
 9825POPC   D2A68692  21.428  35.373   6.750
 9825POPC   C3A68693  21.369  35.311   7.050
 9825POPC   C4A68694  21.423  35.393   7.350
 9825POPC   C1B68695  21.632  35.285   6.450
 9825POPC   C2B68696  21.672  35.316   6.750
 9825POPC   C3B68697  21.639  35.258   7.050
 9825POPC   C4B68698  21.638  35.247   7.350
 9826POPC   NC368699  20.620   5.111   5.550
 9826POPC   PO468700  20.619   5.120   5.850
 9826POPC   GL168701  20.613   5.060   6.150
 9826POPC   GL268702  20.758   5.194   6.150
 9826POPC   C1A68703  20.601   5.102   6.450
 9826POPC   D2A68704  20.561   5.114   6.750
 9826POPC   C3A68705  20.636   5.073   7.050
 9826POPC   C4A68706  20.573   5.052   7.350
 9826POPC   C1B68707  20.826   5.263   6.450
 9826POPC   C2B68708  20.789   5.225   6.750
 9826POPC   C3B68709  20.796   5.224   7.050
 9826POPC   C4B68710  20.775   5.210   7.350
 9827POPC   NC368711   8.994  30.681   5.550
 9827POPC   PO468712   8.944  30.662   5.850
 9827POPC   GL168713   9.015  30.710   6.150
 9827POPC   GL268714   8.941  30.790   6.150
 9827POPC   C1A68715   8.954  30.716   6.450
 9827POPC   D2A68716   9.010  30.668   6.750
 9827POPC   C3A68717   8.952  30.727   7.050
 9827POPC   C4A68718   8.980  30.664   7.350
 9827POPC   C1B68719   8.837  30.878   6.450
 9827POPC   C2B68720   8.836  30.878   6.750
 9827POPC   C3B68721   8.906  30.917   7.050
 9827POPC   C4B68722   8.871  30.890   7.350
 9828POPC   NC368723  30.667   7.433   5.550
 9828POPC   PO468724  30.677   7.404   5.850
 9828POPC   GL168725  30.683   7.453   6.150
 9828POPC   GL268726  30.542   7.359   6.150
 9828POPC   C1A68727  30.664   7.461   6.450
 9828POPC   D2A68728  30.693   7.465   6.750
 9828POPC   C3A68729  30.720   7.433   7.050
 9828POPC   C4A68730  30.659   7.416   7.350
 9828POPC   C1B68731  30.499   7.315   6.450
 9828POPC   C2B68732  30.457   7.324   6.750
 9828POPC   C3B68733  30.482   7.312   7.050
 9828POPC   C4B68734  30.458   7.348   7.350
 9829POPC   NC368735   8.223  29.159   5.550
 9829POPC   PO468736   8.174  29.179   5.850
 9829POPC   GL168737   8.218  29.154   6.150
 9829POPC   GL268738   8.122  29.209   6.150
 9829POPC   C1A68739   8.163  29.165   6.450
 9829POPC   D2A68740   8.168  29.154   6.750
 9829POPC   C3A68741   8.195  29.194   7.050
 9829POPC   C4A68742   8.212  29.187   7.350
 9829POPC   C1B68743   8.015  29.320   6.450
 9829POPC   C2B68744   8.049  29.339   6.750
 9829POPC   C3B68745   8.056  29.276   7.050
 9829POPC   C4B68746   8.041  29.316   7.350
 9830POPC   NC368747  36.866  26.065   5.550
 9830POPC   PO468748  36.943  26.043   5.850
 9830POPC   GL168749  36.874  25.992   6.150
 9830POPC   GL268750  36.878  25.962   6.150
 9830POPC   C1A68751  36.953  26.040   6.450
 9830POPC   D2A68752  36.898  26.013   6.750
 9830POPC   C3A68753  36.947  26.005   7.050
 9830POPC   C4A68754  36.867  26.072   7.350
 9830POPC   C1B68755  36.877  25.823   6.450
 9830POPC   C2B68756  36.843  25.758   6.750
 9830POPC   C3B68757  36.867  25.843   7.050
 9830POPC   C4B68758  36.919  25.764   7.350
 9831POPC   NC368759  17.519  22.957   5.550
 9831POPC   PO468760  17.530  22.920   5.850
 9831POPC   GL168761  17.536  22.974   6.150
 9831POPC   GL268762  17.559  22.868   6.150
 9831POPC   C1A68763  17.495  22.904   6.450
 9831POPC   D2A68764  17.470  22.957   6.750
 9831POPC   C3A68765  17.544  22.902   7.050
 9831POPC   C4A68766  17.486  22.967   7.350
 9831POPC   C1B68767  17.652  22.748   6.450
 9831POPC   C2B68768  17.630  22.788   6.750
 9831POPC   C3B68769  17.626  22.709   7.050
 9831POPC   C4B68770  17.685  22.753   7.350
 9832POPC   NC368771  31.521  18.248   5.550
 9832POPC   PO468772  31.435  18.293   5.850
 9832POPC   GL168773  31.429  18.289   6.150
 9832POPC   GL268774  31.334  18.184   6.150
 9832POPC   C1A68775  31.434  18.237   6.450
 9832POPC   D2A68776  31.428  18.284   6.750
 9832POPC   C3A68777  31.469  18.244   7.050
 9832POPC   C4A68778  31.473  18.262   7.350
 9832POPC   C1B68779  31.294  18.215   6.450
 9832POPC   C2B68780  31.267  18.179   6.750
 9832POPC   C3B68781  31.197  18.165   7.050
 9832POPC   C4B68782  31.206  18.205   7.350
 9833POPC   NC368783  43.106  40.802   5.550
 9833POPC   PO468784  43.132  40.828   5.850
 9833POPC   GL168785  43.160  40.762   6.150
 9833POPC   GL268786  43.244  40.733   6.150
 9833POPC   C1A68787  43.116  40.787   6.450
 9833POPC   D2A68788  43.095  40.809   6.750
 9833POPC   C3A68789  43.121  40.759   7.050
 9833POPC   C4A68790  43.099  40.742   7.350
 9833POPC   C1B68791  43.272  40.610   6.450
 9833POPC   C2B68792  43.276  40.620   6.750
 9833POPC   C3B68793  43.350  40.573   7.050
 9833POPC   C4B68794  43.291  40.623   7.350
 9834POPC   NC368795  19.821  29.160   5.550
 9834POPC   PO468796  19.852  29.162   5.850
 9834POPC   GL168797  19.814  29.172   6.150
 9834POPC   GL268798  19.960  29.217   6.150
 9834POPC   C1A68799  19.793  29.099   6.450
 9834POPC   D2A68800  19.854  29.104   6.750
 9834POPC   C3A68801  19.815  29.148   7.050
 9834POPC   C4A68802  19.855  29.115   7.350
 9834POPC   C1B68803  20.037  29.321   6.450
 9834POPC   C2B68804  20.004  29.320   6.750
 9834POPC   C3B68805  19.984  29.258   7.050
 9834POPC   C4B68806  19.982  29.285   7.350
 9835POPC   NC368807  24.537  39.188   5.550
 9835POPC   PO468808  24.507  39.199   5.850
 9835POPC   GL168809  24.471  39.197   6.150
 9835POPC   GL268810  24.377  39.313   6.150
 9835POPC   C1A68811  24.455  39.220   6.450
 9835POPC   D2A68812  24.539  39.249   6.750
 9835POPC   C3A68813  24.521  39.260   7.050
 9835POPC   C4A68814  24.534  39.260   7.350
 9835POPC   C1B68815  24.199  39.327   6.450
 9835POPC   C2B68816  24.226  39.339   6.750
 9835POPC   C3B68817  24.293  39.253   7.050
 9835POPC   C4B68818  24.217  39.258   7.350
 9836POPC   NC368819  40.754  32.203   5.550
 9836POPC   PO468820  40.762  32.245   5.850
 9836POPC   GL168821  40.741  32.215   6.150
 9836POPC   GL268822  40.786  32.130   6.150
 9836POPC   C1A68823  40.822  32.270   6.450
 9836POPC   D2A68824  40.783  32.290   6.750
 9836POPC   C3A68825  40.832  32.289   7.050
 9836POPC   C4A68826  40.770  32.285   7.350
 9836POPC   C1B68827  40.705  32.042   6.450
 9836POPC   C2B68828  40.780  32.016   6.750
 9836POPC   C3B68829  40.775  31.973   7.050
 9836POPC   C4B68830  40.725  31.970   7.350
 9837POPC   NC368831  36.931   9.748   5.550
 9837POPC   PO468832  36.946   9.795   5.850
 9837POPC   GL168833  36.891   9.786   6.150
 9837POPC   GL268834  36.862   9.872   6.150
 9837POPC   C1A68835  36.900   9.780   6.450
 9837POPC   D2A68836  36.916   9.708   6.750
 9837POPC   C3A68837  36.889   9.751   7.050
 9837POPC   C4A68838  36.883   9.701   7.350
 9837POPC   C1B68839  36.706   9.907   6.450
 9837POPC   C2B68840  36.698   9.896   6.750
 9837POPC   C3B68841  36.784   9.890   7.050
 9837POPC   C4B68842  36.708   9.923   7.350
 9838POPC   NC368843  23.676   2.716   5.550
 9838POPC   PO468844  23.669   2.729   5.850
 9838POPC   GL168845  23.739   2.765   6.150
 9838POPC   GL268846  23.853   2.673   6.150
 9838POPC   C1A68847  23.731   2.727   6.450
 9838POPC   D2A68848  23.680   2.728   6.750
 9838POPC   C3A68849  23.705   2.721   7.050
 9838POPC   C4A68850  23.747   2.719   7.350
 9838POPC   C1B68851  23.891   2.569   6.450
 9838POPC   C2B68852  23.892   2.634   6.750
 9838POPC   C3B68853  23.914   2.640   7.050
 9838POPC   C4B68854  23.925   2.580   7.350
 9839POPC   NC368855  25.307  19.024   5.550
 9839POPC   PO468856  25.265  19.025   5.850
 9839POPC   GL168857  25.306  19.062   6.150
 9839POPC   GL268858  25.158  19.185   6.150
 9839POPC   C1A68859  25.288  19.033   6.450
 9839POPC   D2A68860  25.310  19.096   6.750
 9839POPC   C3A68861  25.231  19.062   7.050
 9839POPC   C4A68862  25.248  19.026   7.350
 9839POPC   C1B68863  25.153  19.251   6.450
 9839POPC   C2B68864  25.164  19.291   6.750
 9839POPC   C3B68865  25.135  19.308   7.050
 9839POPC   C4B68866  25.148  19.310   7.350
 9840POPC   NC368867  12.875  19.034   5.550
 9840POPC   PO468868  12.804  19.105   5.850
 9840POPC   GL168869  12.842  19.069   6.150
 9840POPC   GL268870  12.945  19.134   6.150
 9840POPC   C1A68871  12.825  19.057   6.450
 9840POPC   D2A68872  12.898  19.037   6.750
 9840POPC   C3A68873  12.878  19.016   7.050
 9840POPC   C4A68874  12.811  19.034   7.350
 9840POPC   C1B68875  13.056  19.215   6.450
 9840POPC   C2B68876  13.086  19.211   6.750
 9840POPC   C3B68877  13.074  19.227   7.050
 9840POPC   C4B68878  13.061  19.181   7.350
 9841POPC   NC368879  44.640  32.287   5.550
 9841POPC   PO468880  44.623  32.216   5.850
 9841POPC   GL168881  44.648  32.262   6.150
 9841POPC   GL268882  44.676  32.152   6.150
 9841POPC   C1A68883  44.702  32.289   6.450
 9841POPC   D2A68884  44.615  32.201   6.750
 9841POPC   C3A68885  44.696  32.266   7.050
 9841POPC   C4A68886  44.652  32.201   7.350
 9841POPC   C1B68887  44.643  32.028   6.450
 9841POPC   C2B68888  44.638  31.998   6.750
 9841POPC   C3B68889  44.607  31.980   7.050
 9841POPC   C4B68890  44.651  32.006   7.350
 9842POPC   NC368891  27.618  36.091   5.550
 9842POPC   PO468892  27.571  36.170   5.850
 9842POPC   GL168893  27.614  36.145   6.150
 9842POPC   GL268894  27.505  36.074   6.150
 9842POPC   C1A68895  27.582  36.082   6.450
 9842POPC   D2A68896  27.597  36.107   6.750
 9842POPC   C3A68897  27.557  36.170   7.050
 9842POPC   C4A68898  27.599  36.124   7.350
 9842POPC   C1B68899  27.361  35.998   6.450
 9842POPC   C2B68900  27.421  35.957   6.750
 9842POPC   C3B68901  27.435  35.995   7.050
 9842POPC   C4B68902  27.416  35.974   7.350
 9843POPC   NC368903   1.964  26.060   5.550
 9843POPC   PO468904   1.947  26.011   5.850
 9843POPC   GL168905   1.985  25.998   6.150
 9843POPC   GL268906   1.831  26.069   6.150
 9843POPC   C1A68907   1.975  26.077   6.450
 9843POPC   D2A68908   1.999  26.024   6.750
 9843POPC   C3A68909   1.963  26.036   7.050
 9843POPC   C4A68910   1.967  25.993   7.350
 9843POPC   C1B68911   1.764  26.165   6.450
 9843POPC   C2B68912   1.743  26.153   6.750
 9843POPC   C3B68913   1.770  26.126   7.050
 9843POPC   C4B68914   1.739  26.111   7.350
 9844POPC   NC368915  29.964  29.879   5.550
 9844POPC   PO468916  29.970  29.948   5.850
 9844POPC   GL168917  29.956  29.959   6.150
 9844POPC   GL268918  29.893  30.024   6.150
 9844POPC   C1A68919  29.931  29.967   6.450
 9844POPC   D2A68920  29.878  29.945   6.750
 9844POPC   C3A68921  29.888  29.956   7.050
 9844POPC   C4A68922  29.950  29.909   7.350
 9844POPC   C1B68923  29.883  30.187   6.450
 9844POPC   C2B68924  29.909  30.165   6.750
 9844POPC   C3B68925  29.941  30.144   7.050
 9844POPC   C4B68926  29.902  30.209   7.350
 9845POPC   NC368927  29.106  32.230   5.550
 9845POPC   PO468928  29.109  32.275   5.850
 9845POPC   GL168929  29.102  32.224   6.150
 9845POPC   GL268930  29.083  32.362   6.150
 9845POPC   C1A68931  29.110  32.221   6.450
 9845POPC   D2A68932  29.185  32.219   6.750
 9845POPC   C3A68933  29.190  32.226   7.050
 9845POPC   C4A68934  29.111  32.267   7.350
 9845POPC   C1B68935  29.002  32.421   6.450
 9845POPC   C2B68936  29.001  32.387   6.750
 9845POPC   C3B68937  28.957  32.393   7.050
 9845POPC   C4B68938  28.959  32.405   7.350
 9846POPC   NC368939  25.278  36.124   5.550
 9846POPC   PO468940  25.258  36.134   5.850
 9846POPC   GL168941  25.282  36.089   6.150
 9846POPC   GL268942  25.230  35.979   6.150
 9846POPC   C1A68943  25.280  36.139   6.450
 9846POPC   D2A68944  25.264  36.100   6.750
 9846POPC   C3A68945  25.221  36.094   7.050
 9846POPC   C4A68946  25.219  36.130   7.350
 9846POPC   C1B68947  25.153  35.903   6.450
 9846POPC   C2B68948  25.089  35.964   6.750
 9846POPC   C3B68949  25.154  35.927   7.050
 9846POPC   C4B68950  25.104  35.964   7.350
 9847POPC   NC368951  29.102  15.190   5.550
 9847POPC   PO468952  29.116  15.229   5.850
 9847POPC   GL168953  29.142  15.215   6.150
 9847POPC   GL268954  29.104  15.037   6.150
 9847POPC   C1A68955  29.143  15.195   6.450
 9847POPC   D2A68956  29.157  15.142   6.750
 9847POPC   C3A68957  29.182  15.185   7.050
 9847POPC   C4A68958  29.170  15.161   7.350
 9847POPC   C1B68959  29.136  14.953   6.450
 9847POPC   C2B68960  29.072  14.970   6.750
 9847POPC   C3B68961  29.154  14.962   7.050
 9847POPC   C4B68962  29.083  14.955   7.350
 9848POPC   NC368963  41.549   9.701   5.550
 9848POPC   PO468964  41.548   9.767   5.850
 9848POPC   GL168965  41.512   9.751   6.150
 9848POPC   GL268966  41.700   9.681   6.150
 9848POPC   C1A68967  41.518   9.716   6.450
 9848POPC   D2A68968  41.553   9.796   6.750
 9848POPC   C3A68969  41.595   9.737   7.050
 9848POPC   C4A68970  41.571   9.714   7.350
 9848POPC   C1B68971  41.730   9.569   6.450
 9848POPC   C2B68972  41.736   9.655   6.750
 9848POPC   C3B68973  41.727   9.605   7.050
 9848POPC   C4B68974  41.813   9.589   7.350
 9849POPC   NC368975   0.459  19.830   5.550
 9849POPC   PO468976   0.390  19.846   5.850
 9849POPC   GL168977   0.399  19.859   6.150
 9849POPC   GL268978   0.506  19.717   6.150
 9849POPC   C1A68979   0.458  19.875   6.450
 9849POPC   D2A68980   0.458  19.827   6.750
 9849POPC   C3A68981   0.391  19.874   7.050
 9849POPC   C4A68982   0.461  19.853   7.350
 9849POPC   C1B68983   0.602  19.628   6.450
 9849POPC   C2B68984   0.669  19.721   6.750
 9849POPC   C3B68985   0.611  19.632   7.050
 9849POPC   C4B68986   0.659  19.672   7.350
 9850POPC   NC368987  19.790   5.141   5.550
 9850POPC   PO468988  19.842   5.066   5.850
 9850POPC   GL168989  19.843   5.108   6.150
 9850POPC   GL268990  19.942   5.086   6.150
 9850POPC   C1A68991  19.805   5.062   6.450
 9850POPC   D2A68992  19.799   5.113   6.750
 9850POPC   C3A68993  19.866   5.104   7.050
 9850POPC   C4A68994  19.844   5.048   7.350
 9850POPC   C1B68995  20.095   5.096   6.450
 9850POPC   C2B68996  20.060   5.174   6.750
 9850POPC   C3B68997  20.034   5.139   7.050
 9850POPC   C4B68998  20.119   5.085   7.350
 9851POPC   NC368999  28.365   5.893   5.550
 9851POPC   PO469000  28.353   5.858   5.850
 9851POPC   GL169001  28.416   5.879   6.150
 9851POPC   GL269002  28.300   5.752   6.150
 9851POPC   C1A69003  28.323   5.916   6.450
 9851POPC   D2A69004  28.319   5.874   6.750
 9851POPC   C3A69005  28.325   5.874   7.050
 9851POPC   C4A69006  28.365   5.848   7.350
 9851POPC   C1B69007  28.164   5.742   6.450
 9851POPC   C2B69008  28.208   5.683   6.750
 9851POPC   C3B69009  28.145   5.696   7.050
 9851POPC   C4B69010  28.219   5.683   7.350
 9852POPC   NC369011  19.038  32.280   5.550
 9852POPC   PO469012  19.084  32.214   5.850
 9852POPC   GL169013  19.016  32.245   6.150
 9852POPC   GL269014  18.984  32.196   6.150
 9852POPC   C1A69015  19.101  32.276   6.450
 9852POPC   D2A69016  19.040  32.241   6.750
 9852POPC   C3A69017  19.106  32.229   7.050
 9852POPC   C4A69018  19.052  32.239   7.350
 9852POPC   C1B69019  18.863  32.120   6.450
 9852POPC   C2B69020  18.888  32.125   6.750
 9852POPC   C3B69021  18.841  32.153   7.050
 9852POPC   C4B69022  18.808  32.124   7.350
 9853POPC   NC369023  20.615  30.695   5.550
 9853POPC   PO469024  20.615  30.720   5.850
 9853POPC   GL169025  20.602  30.711   6.150
 9853POPC   GL269026  20.561  30.633   6.150
 9853POPC   C1A69027  20.561  30.712   6.450
 9853POPC   D2A69028  20.610  30.683   6.750
 9853POPC   C3A69029  20.636  30.666   7.050
 9853POPC   C4A69030  20.604  30.729   7.350
 9853POPC   C1B69031  20.396  30.567   6.450
 9853POPC   C2B69032  20.438  30.517   6.750
 9853POPC   C3B69033  20.384  30.535   7.050
 9853POPC   C4B69034  20.381  30.538   7.350
 9854POPC   NC369035   8.938   0.456   5.550
 9854POPC   PO469036   8.956   0.483   5.850
 9854POPC   GL169037   9.015   0.469   6.150
 9854POPC   GL269038   9.088   0.362   6.150
 9854POPC   C1A69039   8.999   0.428   6.450
 9854POPC   D2A69040   9.000   0.446   6.750
 9854POPC   C3A69041   9.000   0.394   7.050
 9854POPC   C4A69042   8.936   0.482   7.350
 9854POPC   C1B69043   9.179   0.347   6.450
 9854POPC   C2B69044   9.237   0.364   6.750
 9854POPC   C3B69045   9.250   0.321   7.050
 9854POPC   C4B69046   9.232   0.390   7.350
 9855POPC   NC369047  20.645  23.761   5.550
 9855POPC   PO469048  20.573  23.728   5.850
 9855POPC   GL169049  20.564  23.707   6.150
 9855POPC   GL269050  20.457  23.776   6.150
 9855POPC   C1A69051  20.580  23.734   6.450
 9855POPC   D2A69052  20.602  23.678   6.750
 9855POPC   C3A69053  20.594  23.671   7.050
 9855POPC   C4A69054  20.570  23.679   7.350
 9855POPC   C1B69055  20.430  23.778   6.450
 9855POPC   C2B69056  20.392  23.843   6.750
 9855POPC   C3B69057  20.395  23.859   7.050
 9855POPC   C4B69058  20.399  23.828   7.350
 9856POPC   NC369059  23.694  43.912   5.550
 9856POPC   PO469060  23.732  43.932   5.850
 9856POPC   GL169061  23.704  43.906   6.150
 9856POPC   GL269062  23.607  43.907   6.150
 9856POPC   C1A69063  23.697  43.871   6.450
 9856POPC   D2A69064  23.738  43.838   6.750
 9856POPC   C3A69065  23.719  43.862   7.050
 9856POPC   C4A69066  23.699  43.930   7.350
 9856POPC   C1B69067  23.423  43.943   6.450
 9856POPC   C2B69068  23.473  43.944   6.750
 9856POPC   C3B69069  23.469  43.924   7.050
 9856POPC   C4B69070  23.454  43.916   7.350
 9857POPC   NC369071   1.199  34.604   5.550
 9857POPC   PO469072   1.255  34.536   5.850
 9857POPC   GL169073   1.218  34.574   6.150
 9857POPC   GL269074   1.253  34.649   6.150
 9857POPC   C1A69075   1.210  34.571   6.450
 9857POPC   D2A69076   1.222  34.578   6.750
 9857POPC   C3A69077   1.210  34.609   7.050
 9857POPC   C4A69078   1.214  34.533   7.350
 9857POPC   C1B69079   1.322  34.857   6.450
 9857POPC   C2B69080   1.307  34.809   6.750
 9857POPC   C3B69081   1.257  34.823   7.050
 9857POPC   C4B69082   1.294  34.863   7.350
 9858POPC   NC369083  38.495  10.568   5.550
 9858POPC   PO469084  38.481  10.509   5.850
 9858POPC   GL169085  38.458  10.537   6.150
 9858POPC   GL269086  38.596  10.496   6.150
 9858POPC   C1A69087  38.447  10.496   6.450
 9858POPC   D2A69088  38.436  10.561   6.750
 9858POPC   C3A69089  38.430  10.531   7.050
 9858POPC   C4A69090  38.465  10.479   7.350
 9858POPC   C1B69091  38.720  10.559   6.450
 9858POPC   C2B69092  38.689  10.497   6.750
 9858POPC   C3B69093  38.667  10.562   7.050
 9858POPC   C4B69094  38.714  10.516   7.350
 9859POPC   NC369095  36.122   2.010   5.550
 9859POPC   PO469096  36.105   1.993   5.850
 9859POPC   GL169097  36.098   1.959   6.150
 9859POPC   GL269098  36.214   1.997   6.150
 9859POPC   C1A69099  36.097   1.973   6.450
 9859POPC   D2A69100  36.102   1.969   6.750
 9859POPC   C3A69101  36.092   2.028   7.050
 9859POPC   C4A69102  36.083   2.016   7.350
 9859POPC   C1B69103  36.402   2.002   6.450
 9859POPC   C2B69104  36.353   1.950   6.750
 9859POPC   C3B69105  36.368   2.011   7.050
 9859POPC   C4B69106  36.329   1.970   7.350
 9860POPC   NC369107  28.376   6.669   5.550
 9860POPC   PO469108  28.377   6.604   5.850
 9860POPC   GL169109  28.330   6.618   6.150
 9860POPC   GL269110  28.443   6.512   6.150
 9860POPC   C1A69111  28.321   6.637   6.450
 9860POPC   D2A69112  28.341   6.599   6.750
 9860POPC   C3A69113  28.414   6.650   7.050
 9860POPC   C4A69114  28.320   6.684   7.350
 9860POPC   C1B69115  28.595   6.491   6.450
 9860POPC   C2B69116  28.512   6.454   6.750
 9860POPC   C3B69117  28.507   6.445   7.050
 9860POPC   C4B69118  28.545   6.500   7.350
 9861POPC   NC369119   8.233  16.762   5.550
 9861POPC   PO469120   8.207  16.721   5.850
 9861POPC   GL169121   8.231  16.737   6.150
 9861POPC   GL269122   8.132  16.808   6.150
 9861POPC   C1A69123   8.210  16.773   6.450
 9861POPC   D2A69124   8.170  16.681   6.750
 9861POPC   C3A69125   8.181  16.779   7.050
 9861POPC   C4A69126   8.162  16.713   7.350
 9861POPC   C1B69127   8.129  17.005   6.450
 9861POPC   C2B69128   8.159  17.021   6.750
 9861POPC   C3B69129   8.173  17.010   7.050
 9861POPC   C4B69130   8.129  16.999   7.350
 9862POPC   NC369131   8.952  16.730   5.550
 9862POPC   PO469132   8.937  16.691   5.850
 9862POPC   GL169133   8.966  16.730   6.150
 9862POPC   GL269134   9.043  16.648   6.150
 9862POPC   C1A69135   8.930  16.681   6.450
 9862POPC   D2A69136   8.955  16.760   6.750
 9862POPC   C3A69137   8.983  16.702   7.050
 9862POPC   C4A69138   8.969  16.748   7.350
 9862POPC   C1B69139   9.202  16.682   6.450
 9862POPC   C2B69140   9.204  16.614   6.750
 9862POPC   C3B69141   9.181  16.675   7.050
 9862POPC   C4B69142   9.216  16.604   7.350
 9863POPC   NC369143  19.789  24.479   5.550
 9863POPC   PO469144  19.873  24.452   5.850
 9863POPC   GL169145  19.869  24.493   6.150
 9863POPC   GL269146  19.731  24.514   6.150
 9863POPC   C1A69147  19.851  24.478   6.450
 9863POPC   D2A69148  19.823  24.489   6.750
 9863POPC   C3A69149  19.856  24.536   7.050
 9863POPC   C4A69150  19.831  24.457   7.350
 9863POPC   C1B69151  19.653  24.625   6.450
 9863POPC   C2B69152  19.605  24.583   6.750
 9863POPC   C3B69153  19.582  24.653   7.050
 9863POPC   C4B69154  19.605  24.658   7.350
 9864POPC   NC369155  35.331  39.219   5.550
 9864POPC   PO469156  35.378  39.241   5.850
 9864POPC   GL169157  35.330  39.233   6.150
 9864POPC   GL269158  35.179  39.198   6.150
 9864POPC   C1A69159  35.392  39.233   6.450
 9864POPC   D2A69160  35.361  39.193   6.750
 9864POPC   C3A69161  35.307  39.259   7.050
 9864POPC   C4A69162  35.368  39.276   7.350
 9864POPC   C1B69163  35.056  39.194   6.450
 9864POPC   C2B69164  35.108  39.193   6.750
 9864POPC   C3B69165  35.059  39.191   7.050
 9864POPC   C4B69166  35.063  39.193   7.350
 9865POPC   NC369167  36.104  41.551   5.550
 9865POPC   PO469168  36.148  41.580   5.850
 9865POPC   GL169169  36.150  41.574   6.150
 9865POPC   GL269170  36.185  41.456   6.150
 9865POPC   C1A69171  36.150  41.522   6.450
 9865POPC   D2A69172  36.132  41.521   6.750
 9865POPC   C3A69173  36.161  41.568   7.050
 9865POPC   C4A69174  36.152  41.518   7.350
 9865POPC   C1B69175  36.354  41.361   6.450
 9865POPC   C2B69176  36.335  41.437   6.750
 9865POPC   C3B69177  36.350  41.401   7.050
 9865POPC   C4B69178  36.354  41.375   7.350
 9866POPC   NC369179  27.551  24.504   5.550
 9866POPC   PO469180  27.583  24.525   5.850
 9866POPC   GL169181  27.580  24.520   6.150
 9866POPC   GL269182  27.711  24.374   6.150
 9866POPC   C1A69183  27.564  24.449   6.450
 9866POPC   D2A69184  27.571  24.458   6.750
 9866POPC   C3A69185  27.619  24.513   7.050
 9866POPC   C4A69186  27.576  24.449   7.350
 9866POPC   C1B69187  27.746  24.323   6.450
 9866POPC   C2B69188  27.812  24.321   6.750
 9866POPC   C3B69189  27.742  24.345   7.050
 9866POPC   C4B69190  27.788  24.364   7.350
 9867POPC   NC369191  31.482  43.063   5.550
 9867POPC   PO469192  31.454  43.139   5.850
 9867POPC   GL169193  31.490  43.155   6.150
 9867POPC   GL269194  31.366  43.109   6.150
 9867POPC   C1A69195  31.439  43.130   6.450
 9867POPC   D2A69196  31.516  43.086   6.750
 9867POPC   C3A69197  31.520  43.094   7.050
 9867POPC   C4A69198  31.505  43.140   7.350
 9867POPC   C1B69199  31.186  43.038   6.450
 9867POPC   C2B69200  31.209  43.101   6.750
 9867POPC   C3B69201  31.271  43.111   7.050
 9867POPC   C4B69202  31.220  43.034   7.350
 9868POPC   NC369203  10.501  29.156   5.550
 9868POPC   PO469204  10.539  29.125   5.850
 9868POPC   GL169205  10.490  29.112   6.150
 9868POPC   GL269206  10.554  29.291   6.150
 9868POPC   C1A69207  10.478  29.179   6.450
 9868POPC   D2A69208  10.518  29.170   6.750
 9868POPC   C3A69209  10.557  29.187   7.050
 9868POPC   C4A69210  10.495  29.110   7.350
 9868POPC   C1B69211  10.611  29.346   6.450
 9868POPC   C2B69212  10.621  29.338   6.750
 9868POPC   C3B69213  10.608  29.348   7.050
 9868POPC   C4B69214  10.608  29.401   7.350
 9869POPC   NC369215  26.826  41.550   5.550
 9869POPC   PO469216  26.793  41.515   5.850
 9869POPC   GL169217  26.861  41.572   6.150
 9869POPC   GL269218  26.778  41.417   6.150
 9869POPC   C1A69219  26.862  41.554   6.450
 9869POPC   D2A69220  26.851  41.594   6.750
 9869POPC   C3A69221  26.852  41.569   7.050
 9869POPC   C4A69222  26.860  41.582   7.350
 9869POPC   C1B69223  26.694  41.350   6.450
 9869POPC   C2B69224  26.707  41.345   6.750
 9869POPC   C3B69225  26.761  41.306   7.050
 9869POPC   C4B69226  26.754  41.331   7.350
 9870POPC   NC369227  13.653  31.472   5.550
 9870POPC   PO469228  13.583  31.431   5.850
 9870POPC   GL169229  13.650  31.478   6.150
 9870POPC   GL269230  13.580  31.593   6.150
 9870POPC   C1A69231  13.677  31.453   6.450
 9870POPC   D2A69232  13.645  31.494   6.750
 9870POPC   C3A69233  13.659  31.503   7.050
 9870POPC   C4A69234  13.607  31.474   7.350
 9870POPC   C1B69235  13.440  31.673   6.450
 9870POPC   C2B69236  13.485  31.652   6.750
 9870POPC   C3B69237  13.427  31.682   7.050
 9870POPC   C4B69238  13.435  31.614   7.350
 9871POPC   NC369239  19.108  43.865   5.550
 9871POPC   PO469240  19.100  43.916   5.850
 9871POPC   GL169241  19.098  43.893   6.150
 9871POPC   GL269242  19.027  44.044   6.150
 9871POPC   C1A69243  19.071  43.853   6.450
 9871POPC   D2A69244  19.019  43.895   6.750
 9871POPC   C3A69245  19.097  43.838   7.050
 9871POPC   C4A69246  19.069  43.888   7.350
 9871POPC   C1B69247  18.975  44.118   6.450
 9871POPC   C2B69248  18.926  44.129   6.750
 9871POPC   C3B69249  18.959  44.095   7.050
 9871POPC   C4B69250  18.956  44.141   7.350
 9872POPC   NC369251  31.437  41.537   5.550
 9872POPC   PO469252  31.490  41.516   5.850
 9872POPC   GL169253  31.456  41.571   6.150
 9872POPC   GL269254  31.454  41.451   6.150
 9872POPC   C1A69255  31.450  41.580   6.450
 9872POPC   D2A69256  31.517  41.596   6.750
 9872POPC   C3A69257  31.493  41.516   7.050
 9872POPC   C4A69258  31.439  41.524   7.350
 9872POPC   C1B69259  31.313  41.367   6.450
 9872POPC   C2B69260  31.389  41.395   6.750
 9872POPC   C3B69261  31.339  41.308   7.050
 9872POPC   C4B69262  31.309  41.375   7.350
 9873POPC   NC369263  27.619   5.861   5.550
 9873POPC   PO469264  27.623   5.826   5.850
 9873POPC   GL169265  27.547   5.840   6.150
 9873POPC   GL269266  27.703   5.910   6.150
 9873POPC   C1A69267  27.560   5.856   6.450
 9873POPC   D2A69268  27.588   5.856   6.750
 9873POPC   C3A69269  27.582   5.840   7.050
 9873POPC   C4A69270  27.561   5.829   7.350
 9873POPC   C1B69271  27.811   5.944   6.450
 9873POPC   C2B69272  27.783   5.910   6.750
 9873POPC   C3B69273  27.851   5.915   7.050
 9873POPC   C4B69274  27.780   5.957   7.350
 9874POPC   NC369275  10.559  24.497   5.550
 9874POPC   PO469276  10.510  24.538   5.850
 9874POPC   GL169277  10.502  24.506   6.150
 9874POPC   GL269278  10.430  24.500   6.150
 9874POPC   C1A69279  10.570  24.506   6.450
 9874POPC   D2A69280  10.519  24.506   6.750
 9874POPC   C3A69281  10.563  24.448   7.050
 9874POPC   C4A69282  10.476  24.450   7.350
 9874POPC   C1B69283  10.316  24.515   6.450
 9874POPC   C2B69284  10.227  24.469   6.750
 9874POPC   C3B69285  10.303  24.462   7.050
 9874POPC   C4B69286  10.292  24.510   7.350
 9875POPC   NC369287  13.658  40.820   5.550
 9875POPC   PO469288  13.669  40.777   5.850
 9875POPC   GL169289  13.634  40.826   6.150
 9875POPC   GL269290  13.546  40.740   6.150
 9875POPC   C1A69291  13.589  40.735   6.450
 9875POPC   D2A69292  13.604  40.755   6.750
 9875POPC   C3A69293  13.649  40.819   7.050
 9875POPC   C4A69294  13.623  40.789   7.350
 9875POPC   C1B69295  13.367  40.737   6.450
 9875POPC   C2B69296  13.423  40.653   6.750
 9875POPC   C3B69297  13.420  40.662   7.050
 9875POPC   C4B69298  13.441  40.714   7.350
 9876POPC   NC369299  31.471  36.170   5.550
 9876POPC   PO469300  31.423  36.101   5.850
 9876POPC   GL169301  31.492  36.090   6.150
 9876POPC   GL269302  31.386  36.210   6.150
 9876POPC   C1A69303  31.469  36.135   6.450
 9876POPC   D2A69304  31.499  36.078   6.750
 9876POPC   C3A69305  31.444  36.173   7.050
 9876POPC   C4A69306  31.431  36.126   7.350
 9876POPC   C1B69307  31.305  36.300   6.450
 9876POPC   C2B69308  31.308  36.237   6.750
 9876POPC   C3B69309  31.306  36.258   7.050
 9876POPC   C4B69310  31.304  36.252   7.350
 9877POPC   NC369311  21.376  22.934   5.550
 9877POPC   PO469312  21.375  22.914   5.850
 9877POPC   GL169313  21.372  22.976   6.150
 9877POPC   GL269314  21.270  22.849   6.150
 9877POPC   C1A69315  21.404  22.958   6.450
 9877POPC   D2A69316  21.339  22.976   6.750
 9877POPC   C3A69317  21.339  22.986   7.050
 9877POPC   C4A69318  21.408  22.890   7.350
 9877POPC   C1B69319  21.225  22.788   6.450
 9877POPC   C2B69320  21.182  22.840   6.750
 9877POPC   C3B69321  21.197  22.843   7.050
 9877POPC   C4B69322  21.174  22.849   7.350
 9878POPC   NC369323   7.375  22.895   5.550
 9878POPC   PO469324   7.386  22.926   5.850
 9878POPC   GL169325   7.420  22.925   6.150
 9878POPC   GL269326   7.415  23.075   6.150
 9878POPC   C1A69327   7.431  22.916   6.450
 9878POPC   D2A69328   7.376  22.982   6.750
 9878POPC   C3A69329   7.405  22.977   7.050
 9878POPC   C4A69330   7.394  22.975   7.350
 9878POPC   C1B69331   7.438  23.196   6.450
 9878POPC   C2B69332   7.482  23.200   6.750
 9878POPC   C3B69333   7.518  23.139   7.050
 9878POPC   C4B69334   7.433  23.215   7.350
 9879POPC   NC369335  27.575  16.683   5.550
 9879POPC   PO469336  27.595  16.760   5.850
 9879POPC   GL169337  27.636  16.780   6.150
 9879POPC   GL269338  27.745  16.842   6.150
 9879POPC   C1A69339  27.576  16.691   6.450
 9879POPC   D2A69340  27.572  16.711   6.750
 9879POPC   C3A69341  27.547  16.713   7.050
 9879POPC   C4A69342  27.632  16.690   7.350
 9879POPC   C1B69343  27.850  16.865   6.450
 9879POPC   C2B69344  27.792  16.826   6.750
 9879POPC   C3B69345  27.767  16.810   7.050
 9879POPC   C4B69346  27.858  16.874   7.350
 9880POPC   NC369347   5.050  29.916   5.550
 9880POPC   PO469348   5.095  29.934   5.850
 9880POPC   GL169349   5.075  29.926   6.150
 9880POPC   GL269350   5.038  29.821   6.150
 9880POPC   C1A69351   5.084  29.950   6.450
 9880POPC   D2A69352   5.114  29.958   6.750
 9880POPC   C3A69353   5.081  29.909   7.050
 9880POPC   C4A69354   5.114  29.893   7.350
 9880POPC   C1B69355   4.864  29.781   6.450
 9880POPC   C2B69356   4.863  29.721   6.750
 9880POPC   C3B69357   4.886  29.819   7.050
 9880POPC   C4B69358   4.904  29.814   7.350
 9881POPC   NC369359  33.027   2.786   5.550
 9881POPC   PO469360  33.066   2.781   5.850
 9881POPC   GL169361  32.984   2.762   6.150
 9881POPC   GL269362  32.882   2.798   6.150
 9881POPC   C1A69363  32.975   2.797   6.450
 9881POPC   D2A69364  33.064   2.765   6.750
 9881POPC   C3A69365  33.026   2.718   7.050
 9881POPC   C4A69366  33.009   2.760   7.350
 9881POPC   C1B69367  32.779   2.916   6.450
 9881POPC   C2B69368  32.795   2.901   6.750
 9881POPC   C3B69369  32.818   2.847   7.050
 9881POPC   C4B69370  32.824   2.906   7.350
 9882POPC   NC369371   5.127   1.263   5.550
 9882POPC   PO469372   5.099   1.253   5.850
 9882POPC   GL169373   5.131   1.244   6.150
 9882POPC   GL269374   5.054   1.354   6.150
 9882POPC   C1A69375   5.114   1.186   6.450
 9882POPC   D2A69376   5.109   1.179   6.750
 9882POPC   C3A69377   5.123   1.250   7.050
 9882POPC   C4A69378   5.126   1.209   7.350
 9882POPC   C1B69379   4.974   1.413   6.450
 9882POPC   C2B69380   4.971   1.445   6.750
 9882POPC   C3B69381   4.960   1.375   7.050
 9882POPC   C4B69382   4.976   1.415   7.350
 9883POPC   NC369383  18.276  19.838   5.550
 9883POPC   PO469384  18.270  19.795   5.850
 9883POPC   GL169385  18.318  19.823   6.150
 9883POPC   GL269386  18.401  19.744   6.150
 9883POPC   C1A69387  18.332  19.871   6.450
 9883POPC   D2A69388  18.293  19.786   6.750
 9883POPC   C3A69389  18.311  19.874   7.050
 9883POPC   C4A69390  18.322  19.844   7.350
 9883POPC   C1B69391  18.420  19.638   6.450
 9883POPC   C2B69392  18.399  19.655   6.750
 9883POPC   C3B69393  18.401  19.656   7.050
 9883POPC   C4B69394  18.479  19.683   7.350
 9884POPC   NC369395  26.778  43.091   5.550
 9884POPC   PO469396  26.788  43.099   5.850
 9884POPC   GL169397  26.858  43.154   6.150
 9884POPC   GL269398  26.922  43.189   6.150
 9884POPC   C1A69399  26.844  43.090   6.450
 9884POPC   D2A69400  26.862  43.088   6.750
 9884POPC   C3A69401  26.770  43.069   7.050
 9884POPC   C4A69402  26.768  43.081   7.350
 9884POPC   C1B69403  27.010  43.253   6.450
 9884POPC   C2B69404  26.998  43.279   6.750
 9884POPC   C3B69405  27.074  43.194   7.050
 9884POPC   C4B69406  27.075  43.239   7.350
 9885POPC   NC369407  11.307  15.973   5.550
 9885POPC   PO469408  11.330  15.935   5.850
 9885POPC   GL169409  11.259  15.990   6.150
 9885POPC   GL269410  11.454  15.880   6.150
 9885POPC   C1A69411  11.326  15.940   6.450
 9885POPC   D2A69412  11.304  16.004   6.750
 9885POPC   C3A69413  11.296  15.955   7.050
 9885POPC   C4A69414  11.265  15.979   7.350
 9885POPC   C1B69415  11.479  15.871   6.450
 9885POPC   C2B69416  11.506  15.880   6.750
 9885POPC   C3B69417  11.520  15.784   7.050
 9885POPC   C4B69418  11.518  15.796   7.350
 9886POPC   NC369419  24.483   2.747   5.550
 9886POPC   PO469420  24.466   2.814   5.850
 9886POPC   GL169421  24.469   2.810   6.150
 9886POPC   GL269422  24.361   2.792   6.150
 9886POPC   C1A69423  24.441   2.735   6.450
 9886POPC   D2A69424  24.528   2.802   6.750
 9886POPC   C3A69425  24.532   2.807   7.050
 9886POPC   C4A69426  24.508   2.809   7.350
 9886POPC   C1B69427  24.256   2.884   6.450
 9886POPC   C2B69428  24.277   2.923   6.750
 9886POPC   C3B69429  24.324   2.894   7.050
 9886POPC   C4B69430  24.227   2.932   7.350
 9887POPC   NC369431  29.890  29.157   5.550
 9887POPC   PO469432  29.961  29.109   5.850
 9887POPC   GL169433  29.923  29.097   6.150
 9887POPC   GL269434  30.003  29.110   6.150
 9887POPC   C1A69435  29.937  29.172   6.450
 9887POPC   D2A69436  29.896  29.181   6.750
 9887POPC   C3A69437  29.959  29.121   7.050
 9887POPC   C4A69438  29.885  29.109   7.350
 9887POPC   C1B69439  30.143  29.013   6.450
 9887POPC   C2B69440  30.110  28.974   6.750
 9887POPC   C3B69441  30.076  28.971   7.050
 9887POPC   C4B69442  30.095  29.012   7.350
 9888POPC   NC369443   6.678  15.139   5.550
 9888POPC   PO469444   6.692  15.161   5.850
 9888POPC   GL169445   6.663  15.150   6.150
 9888POPC   GL269446   6.553  15.147   6.150
 9888POPC   C1A69447   6.617  15.181   6.450
 9888POPC   D2A69448   6.677  15.198   6.750
 9888POPC   C3A69449   6.693  15.198   7.050
 9888POPC   C4A69450   6.659  15.162   7.350
 9888POPC   C1B69451   6.364  15.065   6.450
 9888POPC   C2B69452   6.422  15.135   6.750
 9888POPC   C3B69453   6.397  15.105   7.050
 9888POPC   C4B69454   6.385  15.049   7.350
 9889POPC   NC369455  40.786  33.015   5.550
 9889POPC   PO469456  40.829  33.020   5.850
 9889POPC   GL169457  40.813  32.998   6.150
 9889POPC   GL269458  40.913  33.055   6.150
 9889POPC   C1A69459  40.780  33.050   6.450
 9889POPC   D2A69460  40.806  33.037   6.750
 9889POPC   C3A69461  40.831  33.074   7.050
 9889POPC   C4A69462  40.804  33.059   7.350
 9889POPC   C1B69463  41.021  33.069   6.450
 9889POPC   C2B69464  41.045  33.052   6.750
 9889POPC   C3B69465  41.011  33.117   7.050
 9889POPC   C4B69466  41.011  33.117   7.350
 9890POPC   NC369467  34.561  10.539   5.550
 9890POPC   PO469468  34.618  10.573   5.850
 9890POPC   GL169469  34.530  10.489   6.150
 9890POPC   GL269470  34.606  10.443   6.150
 9890POPC   C1A69471  34.570  10.501   6.450
 9890POPC   D2A69472  34.581  10.484   6.750
 9890POPC   C3A69473  34.571  10.559   7.050
 9890POPC   C4A69474  34.551  10.565   7.350
 9890POPC   C1B69475  34.641  10.320   6.450
 9890POPC   C2B69476  34.644  10.276   6.750
 9890POPC   C3B69477  34.604  10.258   7.050
 9890POPC   C4B69478  34.648  10.321   7.350
 9891POPC   NC369479  22.170  43.919   5.550
 9891POPC   PO469480  22.183  43.910   5.850
 9891POPC   GL169481  22.116  43.928   6.150
 9891POPC   GL269482  22.136  43.819   6.150
 9891POPC   C1A69483  22.183  43.841   6.450
 9891POPC   D2A69484  22.131  43.888   6.750
 9891POPC   C3A69485  22.160  43.899   7.050
 9891POPC   C4A69486  22.195  43.899   7.350
 9891POPC   C1B69487  22.098  43.702   6.450
 9891POPC   C2B69488  22.071  43.705   6.750
 9891POPC   C3B69489  22.108  43.633   7.050
 9891POPC   C4B69490  22.096  43.646   7.350
 9892POPC   NC369491  12.042   6.616   5.550
 9892POPC   PO469492  12.105   6.623   5.850
 9892POPC   GL169493  12.103   6.640   6.150
 9892POPC   GL269494  12.167   6.755   6.150
 9892POPC   C1A69495  12.057   6.675   6.450
 9892POPC   D2A69496  12.104   6.612   6.750
 9892POPC   C3A69497  12.067   6.663   7.050
 9892POPC   C4A69498  12.035   6.636   7.350
 9892POPC   C1B69499  12.323   6.835   6.450
 9892POPC   C2B69500  12.314   6.803   6.750
 9892POPC   C3B69501  12.280   6.828   7.050
 9892POPC   C4B69502  12.245   6.774   7.350
 9893POPC   NC369503   8.214  36.151   5.550
 9893POPC   PO469504   8.207  36.123   5.850
 9893POPC   GL169505   8.237  36.122   6.150
 9893POPC   GL269506   8.231  35.993   6.150
 9893POPC   C1A69507   8.190  36.164   6.450
 9893POPC   D2A69508   8.185  36.115   6.750
 9893POPC   C3A69509   8.218  36.158   7.050
 9893POPC   C4A69510   8.175  36.150   7.350
 9893POPC   C1B69511   8.318  35.920   6.450
 9893POPC   C2B69512   8.361  35.890   6.750
 9893POPC   C3B69513   8.301  35.915   7.050
 9893POPC   C4B69514   8.320  35.908   7.350
 9894POPC   NC369515  29.176  26.064   5.550
 9894POPC   PO469516  29.106  26.016   5.850
 9894POPC   GL169517  29.184  26.048   6.150
 9894POPC   GL269518  29.299  26.025   6.150
 9894POPC   C1A69519  29.158  26.061   6.450
 9894POPC   D2A69520  29.145  26.080   6.750
 9894POPC   C3A69521  29.112  26.090   7.050
 9894POPC   C4A69522  29.152  26.076   7.350
 9894POPC   C1B69523  29.367  25.953   6.450
 9894POPC   C2B69524  29.369  25.912   6.750
 9894POPC   C3B69525  29.425  25.947   7.050
 9894POPC   C4B69526  29.344  25.986   7.350
 9895POPC   NC369527  36.168   1.210   5.550
 9895POPC   PO469528  36.165   1.239   5.850
 9895POPC   GL169529  36.172   1.194   6.150
 9895POPC   GL269530  36.078   1.327   6.150
 9895POPC   C1A69531  36.135   1.217   6.450
 9895POPC   D2A69532  36.148   1.195   6.750
 9895POPC   C3A69533  36.170   1.220   7.050
 9895POPC   C4A69534  36.161   1.201   7.350
 9895POPC   C1B69535  35.939   1.411   6.450
 9895POPC   C2B69536  35.950   1.414   6.750
 9895POPC   C3B69537  35.921   1.419   7.050
 9895POPC   C4B69538  35.957   1.382   7.350
 9896POPC   NC369539  43.082  20.616   5.550
 9896POPC   PO469540  43.085  20.631   5.850
 9896POPC   GL169541  43.158  20.648   6.150
 9896POPC   GL269542  43.043  20.697   6.150
 9896POPC   C1A69543  43.078  20.622   6.450
 9896POPC   D2A69544  43.132  20.592   6.750
 9896POPC   C3A69545  43.147  20.602   7.050
 9896POPC   C4A69546  43.132  20.600   7.350
 9896POPC   C1B69547  42.948  20.851   6.450
 9896POPC   C2B69548  42.963  20.857   6.750
 9896POPC   C3B69549  43.004  20.847   7.050
 9896POPC   C4B69550  42.933  20.847   7.350
 9897POPC   NC369551  23.750  11.330   5.550
 9897POPC   PO469552  23.685  11.326   5.850
 9897POPC   GL169553  23.670  11.338   6.150
 9897POPC   GL269554  23.833  11.352   6.150
 9897POPC   C1A69555  23.669  11.303   6.450
 9897POPC   D2A69556  23.751  11.338   6.750
 9897POPC   C3A69557  23.699  11.286   7.050
 9897POPC   C4A69558  23.693  11.327   7.350
 9897POPC   C1B69559  23.890  11.464   6.450
 9897POPC   C2B69560  23.978  11.369   6.750
 9897POPC   C3B69561  23.953  11.373   7.050
 9897POPC   C4B69562  23.973  11.382   7.350
 9898POPC   NC369563  19.856   3.569   5.550
 9898POPC   PO469564  19.863   3.586   5.850
 9898POPC   GL169565  19.866   3.567   6.150
 9898POPC   GL269566  19.743   3.525   6.150
 9898POPC   C1A69567  19.796   3.544   6.450
 9898POPC   D2A69568  19.792   3.559   6.750
 9898POPC   C3A69569  19.846   3.566   7.050
 9898POPC   C4A69570  19.877   3.511   7.350
 9898POPC   C1B69571  19.606   3.577   6.450
 9898POPC   C2B69572  19.616   3.524   6.750
 9898POPC   C3B69573  19.598   3.540   7.050
 9898POPC   C4B69574  19.584   3.593   7.350
 9899POPC   NC369575  32.998  32.248   5.550
 9899POPC   PO469576  33.050  32.205   5.850
 9899POPC   GL169577  33.020  32.265   6.150
 9899POPC   GL269578  33.080  32.325   6.150
 9899POPC   C1A69579  33.000  32.205   6.450
 9899POPC   D2A69580  33.056  32.231   6.750
 9899POPC   C3A69581  33.033  32.236   7.050
 9899POPC   C4A69582  33.018  32.215   7.350
 9899POPC   C1B69583  33.155  32.521   6.450
 9899POPC   C2B69584  33.124  32.497   6.750
 9899POPC   C3B69585  33.183  32.425   7.050
 9899POPC   C4B69586  33.144  32.515   7.350
 9900POPC   NC369587  33.014  26.057   5.550
 9900POPC   PO469588  32.975  26.024   5.850
 9900POPC   GL169589  32.975  26.005   6.150
 9900POPC   GL269590  32.874  26.033   6.150
 9900POPC   C1A69591  33.039  26.023   6.450
 9900POPC   D2A69592  33.030  26.084   6.750
 9900POPC   C3A69593  33.033  25.995   7.050
 9900POPC   C4A69594  33.055  26.089   7.350
 9900POPC   C1B69595  32.798  25.970   6.450
 9900POPC   C2B69596  32.798  25.996   6.750
 9900POPC   C3B69597  32.737  26.032   7.050
 9900POPC   C4B69598  32.779  25.984   7.350
 9901POPC   NC369599   5.847  29.927   5.550
 9901POPC   PO469600   5.825  29.954   5.850
 9901POPC   GL169601   5.832  29.930   6.150
 9901POPC   GL269602   5.852  30.080   6.150
 9901POPC   C1A69603   5.842  29.957   6.450
 9901POPC   D2A69604   5.852  29.950   6.750
 9901POPC   C3A69605   5.888  29.929   7.050
 9901POPC   C4A69606   5.901  29.881   7.350
 9901POPC   C1B69607   5.835  30.114   6.450
 9901POPC   C2B69608   5.835  30.205   6.750
 9901POPC   C3B69609   5.830  30.187   7.050
 9901POPC   C4B69610   5.841  30.135   7.350
 9902POPC   NC369611  11.308  39.958   5.550
 9902POPC   PO469612  11.323  39.997   5.850
 9902POPC   GL169613  11.274  40.012   6.150
 9902POPC   GL269614  11.440  40.037   6.150
 9902POPC   C1A69615  11.327  40.022   6.450
 9902POPC   D2A69616  11.311  40.013   6.750
 9902POPC   C3A69617  11.273  40.010   7.050
 9902POPC   C4A69618  11.279  39.987   7.350
 9902POPC   C1B69619  11.545  40.096   6.450
 9902POPC   C2B69620  11.515  40.105   6.750
 9902POPC   C3B69621  11.547  40.078   7.050
 9902POPC   C4B69622  11.503  40.075   7.350
 9903POPC   NC369623   6.679  32.983   5.550
 9903POPC   PO469624   6.673  32.978   5.850
 9903POPC   GL169625   6.641  33.074   6.150
 9903POPC   GL269626   6.792  32.982   6.150
 9903POPC   C1A69627   6.628  33.053   6.450
 9903POPC   D2A69628   6.688  33.016   6.750
 9903POPC   C3A69629   6.602  32.976   7.050
 9903POPC   C4A69630   6.599  33.052   7.350
 9903POPC   C1B69631   6.825  32.907   6.450
 9903POPC   C2B69632   6.858  32.925   6.750
 9903POPC   C3B69633   6.876  32.905   7.050
 9903POPC   C4B69634   6.855  32.938   7.350
 9904POPC   NC369635   8.193  22.159   5.550
 9904POPC   PO469636   8.156  22.210   5.850
 9904POPC   GL169637   8.200  22.203   6.150
 9904POPC   GL269638   8.270  22.277   6.150
 9904POPC   C1A69639   8.172  22.123   6.450
 9904POPC   D2A69640   8.198  22.178   6.750
 9904POPC   C3A69641   8.184  22.167   7.050
 9904POPC   C4A69642   8.185  22.116   7.350
 9904POPC   C1B69643   8.366  22.329   6.450
 9904POPC   C2B69644   8.428  22.270   6.750
 9904POPC   C3B69645   8.420  22.326   7.050
 9904POPC   C4B69646   8.410  22.286   7.350
 9905POPC   NC369647  15.925  28.353   5.550
 9905POPC   PO469648  15.907  28.354   5.850
 9905POPC   GL169649  15.937  28.346   6.150
 9905POPC   GL269650  15.916  28.458   6.150
 9905POPC   C1A69651  15.917  28.403   6.450
 9905POPC   D2A69652  15.991  28.369   6.750
 9905POPC   C3A69653  15.974  28.377   7.050
 9905POPC   C4A69654  15.949  28.321   7.350
 9905POPC   C1B69655  15.954  28.583   6.450
 9905POPC   C2B69656  15.958  28.649   6.750
 9905POPC   C3B69657  15.945  28.619   7.050
 9905POPC   C4B69658  15.889  28.652   7.350
 9906POPC   NC369659  16.714  30.692   5.550
 9906POPC   PO469660  16.739  30.715   5.850
 9906POPC   GL169661  16.715  30.697   6.150
 9906POPC   GL269662  16.625  30.697   6.150
 9906POPC   C1A69663  16.744  30.689   6.450
 9906POPC   D2A69664  16.746  30.663   6.750
 9906POPC   C3A69665  16.781  30.718   7.050
 9906POPC   C4A69666  16.697  30.670   7.350
 9906POPC   C1B69667  16.515  30.781   6.450
 9906POPC   C2B69668  16.480  30.829   6.750
 9906POPC   C3B69669  16.531  30.781   7.050
 9906POPC   C4B69670  16.507  30.785   7.350
 9907POPC   NC369671   6.602  32.229   5.550
 9907POPC   PO469672   6.635  32.240   5.850
 9907POPC   GL169673   6.671  32.238   6.150
 9907POPC   GL269674   6.534  32.139   6.150
 9907POPC   C1A69675   6.636  32.250   6.450
 9907POPC   D2A69676   6.654  32.271   6.750
 9907POPC   C3A69677   6.643  32.218   7.050
 9907POPC   C4A69678   6.691  32.266   7.350
 9907POPC   C1B69679   6.486  32.137   6.450
 9907POPC   C2B69680   6.424  32.126   6.750
 9907POPC   C3B69681   6.478  32.139   7.050
 9907POPC   C4B69682   6.488  32.072   7.350
 9908POPC   NC369683  26.082   2.736   5.550
 9908POPC   PO469684  26.071   2.757   5.850
 9908POPC   GL169685  26.036   2.790   6.150
 9908POPC   GL269686  26.145   2.754   6.150
 9908POPC   C1A69687  26.007   2.750   6.450
 9908POPC   D2A69688  25.999   2.775   6.750
 9908POPC   C3A69689  26.048   2.749   7.050
 9908POPC   C4A69690  25.992   2.748   7.350
 9908POPC   C1B69691  26.276   2.810   6.450
 9908POPC   C2B69692  26.243   2.780   6.750
 9908POPC   C3B69693  26.237   2.846   7.050
 9908POPC   C4B69694  26.249   2.776   7.350
 9909POPC   NC369695  43.890  42.359   5.550
 9909POPC   PO469696  43.882  42.368   5.850
 9909POPC   GL169697  43.930  42.345   6.150
 9909POPC   GL269698  43.806  42.280   6.150
 9909POPC   C1A69699  43.849  42.338   6.450
 9909POPC   D2A69700  43.901  42.316   6.750
 9909POPC   C3A69701  43.882  42.380   7.050
 9909POPC   C4A69702  43.853  42.295   7.350
 9909POPC   C1B69703  43.741  42.133   6.450
 9909POPC   C2B69704  43.731  42.176   6.750
 9909POPC   C3B69705  43.649  42.205   7.050
 9909POPC   C4B69706  43.671  42.212   7.350
 9910POPC   NC369707  36.855  41.554   5.550
 9910POPC   PO469708  36.898  41.573   5.850
 9910POPC   GL169709  36.901  41.564   6.150
 9910POPC   GL269710  36.943  41.686   6.150
 9910POPC   C1A69711  36.893  41.563   6.450
 9910POPC   D2A69712  36.908  41.514   6.750
 9910POPC   C3A69713  36.913  41.604   7.050
 9910POPC   C4A69714  36.947  41.554   7.350
 9910POPC   C1B69715  37.003  41.812   6.450
 9910POPC   C2B69716  37.048  41.780   6.750
 9910POPC   C3B69717  36.980  41.811   7.050
 9910POPC   C4B69718  37.055  41.749   7.350
 9911POPC   NC369719  40.036  29.960   5.550
 9911POPC   PO469720  40.032  29.875   5.850
 9911POPC   GL169721  39.991  29.918   6.150
 9911POPC   GL269722  40.128  29.874   6.150
 9911POPC   C1A69723  39.999  29.963   6.450
 9911POPC   D2A69724  40.056  29.958   6.750
 9911POPC   C3A69725  40.038  29.907   7.050
 9911POPC   C4A69726  39.978  29.890   7.350
 9911POPC   C1B69727  40.183  29.746   6.450
 9911POPC   C2B69728  40.228  29.767   6.750
 9911POPC   C3B69729  40.203  29.799   7.050
 9911POPC   C4B69730  40.206  29.748   7.350
 9912POPC   NC369731  12.033   9.014   5.550
 9912POPC   PO469732  12.096   9.000   5.850
 9912POPC   GL169733  12.041   8.944   6.150
 9912POPC   GL269734  12.046   8.855   6.150
 9912POPC   C1A69735  12.064   8.931   6.450
 9912POPC   D2A69736  12.039   8.953   6.750
 9912POPC   C3A69737  12.041   8.956   7.050
 9912POPC   C4A69738  12.109   8.959   7.350
 9912POPC   C1B69739  11.985   8.742   6.450
 9912POPC   C2B69740  11.931   8.759   6.750
 9912POPC   C3B69741  11.912   8.760   7.050
 9912POPC   C4B69742  11.923   8.805   7.350
 9913POPC   NC369743  10.502  30.740   5.550
 9913POPC   PO469744  10.496  30.731   5.850
 9913POPC   GL169745  10.485  30.708   6.150
 9913POPC   GL269746  10.389  30.611   6.150
 9913POPC   C1A69747  10.534  30.657   6.450
 9913POPC   D2A69748  10.483  30.681   6.750
 9913POPC   C3A69749  10.475  30.732   7.050
 9913POPC   C4A69750  10.556  30.674   7.350
 9913POPC   C1B69751  10.296  30.578   6.450
 9913POPC   C2B69752  10.270  30.598   6.750
 9913POPC   C3B69753  10.324  30.653   7.050
 9913POPC   C4B69754  10.267  30.628   7.350
 9914POPC   NC369755  12.827  37.658   5.550
 9914POPC   PO469756  12.858  37.676   5.850
 9914POPC   GL169757  12.862  37.650   6.150
 9914POPC   GL269758  12.857  37.780   6.150
 9914POPC   C1A69759  12.853  37.643   6.450
 9914POPC   D2A69760  12.828  37.701   6.750
 9914POPC   C3A69761  12.829  37.667   7.050
 9914POPC   C4A69762  12.879  37.700   7.350
 9914POPC   C1B69763  12.799  37.914   6.450
 9914POPC   C2B69764  12.834  37.951   6.750
 9914POPC   C3B69765  12.781  37.942   7.050
 9914POPC   C4B69766  12.836  37.961   7.350
 9915POPC   NC369767  28.347  41.579   5.550
 9915POPC   PO469768  28.391  41.511   5.850
 9915POPC   GL169769  28.364  41.588   6.150
 9915POPC   GL269770  28.454  41.647   6.150
 9915POPC   C1A69771  28.398  41.519   6.450
 9915POPC   D2A69772  28.372  41.582   6.750
 9915POPC   C3A69773  28.330  41.590   7.050
 9915POPC   C4A69774  28.325  41.574   7.350
 9915POPC   C1B69775  28.505  41.815   6.450
 9915POPC   C2B69776  28.438  41.749   6.750
 9915POPC   C3B69777  28.507  41.830   7.050
 9915POPC   C4B69778  28.481  41.820   7.350
 9916POPC   NC369779   5.133   7.387   5.550
 9916POPC   PO469780   5.050   7.468   5.850
 9916POPC   GL169781   5.080   7.390   6.150
 9916POPC   GL269782   5.022   7.569   6.150
 9916POPC   C1A69783   5.099   7.441   6.450
 9916POPC   D2A69784   5.119   7.400   6.750
 9916POPC   C3A69785   5.130   7.422   7.050
 9916POPC   C4A69786   5.116   7.463   7.350
 9916POPC   C1B69787   5.028   7.636   6.450
 9916POPC   C2B69788   5.065   7.613   6.750
 9916POPC   C3B69789   4.991   7.617   7.050
 9916POPC   C4B69790   5.001   7.684   7.350
 9917POPC   NC369791  44.648  16.713   5.550
 9917POPC   PO469792  44.639  16.690   5.850
 9917POPC   GL169793  44.631  16.753   6.150
 9917POPC   GL269794  44.758  16.826   6.150
 9917POPC   C1A69795  44.613  16.692   6.450
 9917POPC   D2A69796  44.639  16.763   6.750
 9917POPC   C3A69797  44.701  16.755   7.050
 9917POPC   C4A69798  44.691  16.747   7.350
 9917POPC   C1B69799  44.777  16.942   6.450
 9917POPC   C2B69800  44.717  16.931   6.750
 9917POPC   C3B69801  44.739  16.981   7.050
 9917POPC   C4B69802  44.742  16.999   7.350
 9918POPC   NC369803  16.682  36.932   5.550
 9918POPC   PO469804  16.734  36.907   5.850
 9918POPC   GL169805  16.756  36.884   6.150
 9918POPC   GL269806  16.609  36.881   6.150
 9918POPC   C1A69807  16.753  36.855   6.450
 9918POPC   D2A69808  16.774  36.940   6.750
 9918POPC   C3A69809  16.714  36.923   7.050
 9918POPC   C4A69810  16.737  36.869   7.350
 9918POPC   C1B69811  16.546  36.774   6.450
 9918POPC   C2B69812  16.468  36.819   6.750
 9918POPC   C3B69813  16.546  36.742   7.050
 9918POPC   C4B69814  16.549  36.794   7.350
 9919POPC   NC369815  31.482  37.712   5.550
 9919POPC   PO469816  31.439  37.655   5.850
 9919POPC   GL169817  31.462  37.653   6.150
 9919POPC   GL269818  31.445  37.592   6.150
 9919POPC   C1A69819  31.453  37.677   6.450
 9919POPC   D2A69820  31.428  37.659   6.750
 9919POPC   C3A69821  31.442  37.636   7.050
 9919POPC   C4A69822  31.435  37.678   7.350
 9919POPC   C1B69823  31.408  37.405   6.450
 9919POPC   C2B69824  31.440  37.457   6.750
 9919POPC   C3B69825  31.444  37.475   7.050
 9919POPC   C4B69826  31.410  37.472   7.350
 9920POPC   NC369827  27.639  13.598   5.550
 9920POPC   PO469828  27.600  13.619   5.850
 9920POPC   GL169829  27.572  13.662   6.150
 9920POPC   GL269830  27.685  13.664   6.150
 9920POPC   C1A69831  27.588  13.609   6.450
 9920POPC   D2A69832  27.612  13.596   6.750
 9920POPC   C3A69833  27.551  13.606   7.050
 9920POPC   C4A69834  27.570  13.579   7.350
 9920POPC   C1B69835  27.771  13.802   6.450
 9920POPC   C2B69836  27.749  13.831   6.750
 9920POPC   C3B69837  27.765  13.833   7.050
 9920POPC   C4B69838  27.816  13.780   7.350
 9921POPC   NC369839   8.992  28.391   5.550
 9921POPC   PO469840   9.018  28.338   5.850
 9921POPC   GL169841   8.933  28.405   6.150
 9921POPC   GL269842   8.840  28.434   6.150
 9921POPC   C1A69843   8.959  28.392   6.450
 9921POPC   D2A69844   9.018  28.378   6.750
 9921POPC   C3A69845   8.938  28.387   7.050
 9921POPC   C4A69846   8.954  28.371   7.350
 9921POPC   C1B69847   8.765  28.466   6.450
 9921POPC   C2B69848   8.697  28.426   6.750
 9921POPC   C3B69849   8.696  28.506   7.050
 9921POPC   C4B69850   8.770  28.457   7.350
 9922POPC   NC369851  23.717  13.584   5.550
 9922POPC   PO469852  23.746  13.602   5.850
 9922POPC   GL169853  23.712  13.673   6.150
 9922POPC   GL269854  23.680  13.734   6.150
 9922POPC   C1A69855  23.710  13.603   6.450
 9922POPC   D2A69856  23.718  13.593   6.750
 9922POPC   C3A69857  23.698  13.650   7.050
 9922POPC   C4A69858  23.698  13.606   7.350
 9922POPC   C1B69859  23.635  13.852   6.450
 9922POPC   C2B69860  23.636  13.924   6.750
 9922POPC   C3B69861  23.671  13.877   7.050
 9922POPC   C4B69862  23.636  13.825   7.350
 9923POPC   NC369863  43.883  32.271   5.550
 9923POPC   PO469864  43.907  32.213   5.850
 9923POPC   GL169865  43.837  32.225   6.150
 9923POPC   GL269866  44.033  32.335   6.150
 9923POPC   C1A69867  43.935  32.281   6.450
 9923POPC   D2A69868  43.913  32.223   6.750
 9923POPC   C3A69869  43.936  32.254   7.050
 9923POPC   C4A69870  43.840  32.205   7.350
 9923POPC   C1B69871  44.103  32.318   6.450
 9923POPC   C2B69872  44.106  32.368   6.750
 9923POPC   C3B69873  44.143  32.299   7.050
 9923POPC   C4B69874  44.165  32.384   7.350
 9924POPC   NC369875  35.324  35.381   5.550
 9924POPC   PO469876  35.390  35.396   5.850
 9924POPC   GL169877  35.381  35.315   6.150
 9924POPC   GL269878  35.276  35.413   6.150
 9924POPC   C1A69879  35.356  35.400   6.450
 9924POPC   D2A69880  35.341  35.377   6.750
 9924POPC   C3A69881  35.379  35.338   7.050
 9924POPC   C4A69882  35.303  35.334   7.350
 9924POPC   C1B69883  35.098  35.485   6.450
 9924POPC   C2B69884  35.178  35.472   6.750
 9924POPC   C3B69885  35.102  35.505   7.050
 9924POPC   C4B69886  35.115  35.489   7.350
 9925POPC   NC369887  33.790   0.485   5.550
 9925POPC   PO469888  33.795   0.479   5.850
 9925POPC   GL169889  33.776   0.416   6.150
 9925POPC   GL269890  33.645   0.389   6.150
 9925POPC   C1A69891  33.813   0.407   6.450
 9925POPC   D2A69892  33.770   0.409   6.750
 9925POPC   C3A69893  33.846   0.478   7.050
 9925POPC   C4A69894  33.802   0.465   7.350
 9925POPC   C1B69895  33.554   0.430   6.450
 9925POPC   C2B69896  33.524   0.397   6.750
 9925POPC   C3B69897  33.533   0.416   7.050
 9925POPC   C4B69898  33.576   0.417   7.350
 9926POPC   NC369899  28.409   2.020   5.550
 9926POPC   PO469900  28.352   2.032   5.850
 9926POPC   GL169901  28.406   1.963   6.150
 9926POPC   GL269902  28.335   2.134   6.150
 9926POPC   C1A69903  28.383   1.940   6.450
 9926POPC   D2A69904  28.324   2.039   6.750
 9926POPC   C3A69905  28.322   2.025   7.050
 9926POPC   C4A69906  28.415   1.947   7.350
 9926POPC   C1B69907  28.320   2.240   6.450
 9926POPC   C2B69908  28.264   2.185   6.750
 9926POPC   C3B69909  28.334   2.195   7.050
 9926POPC   C4B69910  28.253   2.238   7.350
 9927POPC   NC369911  21.385   9.778   5.550
 9927POPC   PO469912  21.342   9.778   5.850
 9927POPC   GL169913  21.346   9.739   6.150
 9927POPC   GL269914  21.521   9.690   6.150
 9927POPC   C1A69915  21.346   9.766   6.450
 9927POPC   D2A69916  21.419   9.738   6.750
 9927POPC   C3A69917  21.391   9.724   7.050
 9927POPC   C4A69918  21.428   9.716   7.350
 9927POPC   C1B69919  21.512   9.612   6.450
 9927POPC   C2B69920  21.534   9.520   6.750
 9927POPC   C3B69921  21.569   9.541   7.050
 9927POPC   C4B69922  21.578   9.616   7.350
 9928POPC   NC369923  14.372  11.289   5.550
 9928POPC   PO469924  14.401  11.310   5.850
 9928POPC   GL169925  14.374  11.291   6.150
 9928POPC   GL269926  14.249  11.357   6.150
 9928POPC   C1A69927  14.436  11.278   6.450
 9928POPC   D2A69928  14.449  11.277   6.750
 9928POPC   C3A69929  14.385  11.286   7.050
 9928POPC   C4A69930  14.367  11.284   7.350
 9928POPC   C1B69931  14.197  11.374   6.450
 9928POPC   C2B69932  14.198  11.445   6.750
 9928POPC   C3B69933  14.223  11.400   7.050
 9928POPC   C4B69934  14.218  11.372   7.350
 9929POPC   NC369935  15.922  19.041   5.550
 9929POPC   PO469936  15.970  19.026   5.850
 9929POPC   GL169937  15.961  19.010   6.150
 9929POPC   GL269938  15.931  19.128   6.150
 9929POPC   C1A69939  15.970  19.098   6.450
 9929POPC   D2A69940  15.963  19.065   6.750
 9929POPC   C3A69941  15.955  19.014   7.050
 9929POPC   C4A69942  15.948  19.035   7.350
 9929POPC   C1B69943  15.790  19.288   6.450
 9929POPC   C2B69944  15.785  19.287   6.750
 9929POPC   C3B69945  15.830  19.247   7.050
 9929POPC   C4B69946  15.863  19.236   7.350
 9930POPC   NC369947  22.144  11.333   5.550
 9930POPC   PO469948  22.174  11.251   5.850
 9930POPC   GL169949  22.182  11.343   6.150
 9930POPC   GL269950  22.288  11.250   6.150
 9930POPC   C1A69951  22.206  11.328   6.450
 9930POPC   D2A69952  22.127  11.321   6.750
 9930POPC   C3A69953  22.141  11.286   7.050
 9930POPC   C4A69954  22.116  11.274   7.350
 9930POPC   C1B69955  22.352  11.200   6.450
 9930POPC   C2B69956  22.366  11.170   6.750
 9930POPC   C3B69957  22.377  11.213   7.050
 9930POPC   C4B69958  22.396  11.233   7.350
 9931POPC   NC369959  44.629  26.062   5.550
 9931POPC   PO469960  44.627  26.050   5.850
 9931POPC   GL169961  44.673  25.991   6.150
 9931POPC   GL269962  44.760  26.124   6.150
 9931POPC   C1A69963  44.706  26.017   6.450
 9931POPC   D2A69964  44.614  26.032   6.750
 9931POPC   C3A69965  44.641  25.997   7.050
 9931POPC   C4A69966  44.656  26.005   7.350
 9931POPC   C1B69967  44.895  26.159   6.450
 9931POPC   C2B69968  44.889  26.194   6.750
 9931POPC   C3B69969  44.848  26.190   7.050
 9931POPC   C4B69970  44.845  26.151   7.350
 9932POPC   NC369971  30.730  36.854   5.550
 9932POPC   PO469972  30.675  36.903   5.850
 9932POPC   GL169973  30.729  36.857   6.150
 9932POPC   GL269974  30.726  36.757   6.150
 9932POPC   C1A69975  30.692  36.884   6.450
 9932POPC   D2A69976  30.660  36.875   6.750
 9932POPC   C3A69977  30.717  36.907   7.050
 9932POPC   C4A69978  30.658  36.864   7.350
 9932POPC   C1B69979  30.800  36.679   6.450
 9932POPC   C2B69980  30.799  36.698   6.750
 9932POPC   C3B69981  30.861  36.683   7.050
 9932POPC   C4B69982  30.839  36.668   7.350
 9933POPC   NC369983  29.877  31.475   5.550
 9933POPC   PO469984  29.898  31.472   5.850
 9933POPC   GL169985  29.944  31.490   6.150
 9933POPC   GL269986  29.940  31.640   6.150
 9933POPC   C1A69987  29.963  31.459   6.450
 9933POPC   D2A69988  29.935  31.443   6.750
 9933POPC   C3A69989  29.902  31.509   7.050
 9933POPC   C4A69990  29.956  31.461   7.350
 9933POPC   C1B69991  29.941  31.688   6.450
 9933POPC   C2B69992  29.996  31.678   6.750
 9933POPC   C3B69993  29.959  31.695   7.050
 9933POPC   C4B69994  29.952  31.708   7.350
 9934POPC   NC369995   8.940   2.719   5.550
 9934POPC   PO469996   8.965   2.801   5.850
 9934POPC   GL169997   9.019   2.776   6.150
 9934POPC   GL269998   8.835   2.737   6.150
 9934POPC   C1A69999   8.942   2.800   6.450
 9934POPC   D2A70000   8.982   2.794   6.750
 9934POPC   C3A70001   8.982   2.757   7.050
 9934POPC   C4A70002   9.003   2.795   7.350
 9934POPC   C1B70003   8.692   2.743   6.450
 9934POPC   C2B70004   8.765   2.752   6.750
 9934POPC   C3B70005   8.766   2.766   7.050
 9934POPC   C4B70006   8.747   2.756   7.350
 9935POPC   NC370007  33.045   3.589   5.550
 9935POPC   PO470008  33.030   3.522   5.850
 9935POPC   GL170009  33.051   3.541   6.150
 9935POPC   GL270010  32.855   3.558   6.150
 9935POPC   C1A70011  33.042   3.544   6.450
 9935POPC   D2A70012  32.995   3.528   6.750
 9935POPC   C3A70013  32.997   3.579   7.050
 9935POPC   C4A70014  32.999   3.536   7.350
 9935POPC   C1B70015  32.739   3.459   6.450
 9935POPC   C2B70016  32.808   3.438   6.750
 9935POPC   C3B70017  32.785   3.484   7.050
 9935POPC   C4B70018  32.746   3.493   7.350
 9936POPC   NC370019  26.050  12.863   5.550
 9936POPC   PO470020  26.032  12.883   5.850
 9936POPC   GL170021  26.051  12.807   6.150
 9936POPC   GL270022  26.010  12.921   6.150
 9936POPC   C1A70023  26.051  12.847   6.450
 9936POPC   D2A70024  25.997  12.844   6.750
 9936POPC   C3A70025  26.091  12.844   7.050
 9936POPC   C4A70026  25.992  12.901   7.350
 9936POPC   C1B70027  25.911  13.086   6.450
 9936POPC   C2B70028  25.924  13.102   6.750
 9936POPC   C3B70029  25.958  13.081   7.050
 9936POPC   C4B70030  25.985  13.096   7.350
 9937POPC   NC370031  43.899   5.865   5.550
 9937POPC   PO470032  43.886   5.872   5.850
 9937POPC   GL170033  43.850   5.854   6.150
 9937POPC   GL270034  43.773   5.783   6.150
 9937POPC   C1A70035  43.876   5.897   6.450
 9937POPC   D2A70036  43.884   5.877   6.750
 9937POPC   C3A70037  43.861   5.855   7.050
 9937POPC   C4A70038  43.894   5.886   7.350
 9937POPC   C1B70039  43.622   5.773   6.450
 9937POPC   C2B70040  43.640   5.755   6.750
 9937POPC   C3B70041  43.675   5.816   7.050
 9937POPC   C4B70042  43.664   5.774   7.350
 9938POPC   NC370043  18.293  40.803   5.550
 9938POPC   PO470044  18.300  40.819   5.850
 9938POPC   GL170045  18.246  40.780   6.150
 9938POPC   GL270046  18.314  40.700   6.150
 9938POPC   C1A70047  18.267  40.800   6.450
 9938POPC   D2A70048  18.256  40.747   6.750
 9938POPC   C3A70049  18.314  40.762   7.050
 9938POPC   C4A70050  18.323  40.812   7.350
 9938POPC   C1B70051  18.412  40.532   6.450
 9938POPC   C2B70052  18.338  40.540   6.750
 9938POPC   C3B70053  18.408  40.498   7.050
 9938POPC   C4B70054  18.384  40.567   7.350
 9939POPC   NC370055   3.521  31.514   5.550
 9939POPC   PO470056   3.549  31.438   5.850
 9939POPC   GL170057   3.576  31.499   6.150
 9939POPC   GL270058   3.562  31.545   6.150
 9939POPC   C1A70059   3.514  31.472   6.450
 9939POPC   D2A70060   3.495  31.480   6.750
 9939POPC   C3A70061   3.512  31.431   7.050
 9939POPC   C4A70062   3.551  31.510   7.350
 9939POPC   C1B70063   3.624  31.646   6.450
 9939POPC   C2B70064   3.703  31.653   6.750
 9939POPC   C3B70065   3.699  31.682   7.050
 9939POPC   C4B70066   3.635  31.660   7.350
 9940POPC   NC370067   4.357   6.673   5.550
 9940POPC   PO470068   4.285   6.606   5.850
 9940POPC   GL170069   4.323   6.644   6.150
 9940POPC   GL270070   4.343   6.782   6.150
 9940POPC   C1A70071   4.295   6.604   6.450
 9940POPC   D2A70072   4.308   6.666   6.750
 9940POPC   C3A70073   4.361   6.673   7.050
 9940POPC   C4A70074   4.309   6.651   7.350
 9940POPC   C1B70075   4.361   6.942   6.450
 9940POPC   C2B70076   4.350   6.880   6.750
 9940POPC   C3B70077   4.380   6.922   7.050
 9940POPC   C4B70078   4.300   6.855   7.350
 9941POPC   NC370079  28.358  26.038   5.550
 9941POPC   PO470080  28.361  25.996   5.850
 9941POPC   GL170081  28.327  26.076   6.150
 9941POPC   GL270082  28.454  25.966   6.150
 9941POPC   C1A70083  28.375  26.011   6.450
 9941POPC   D2A70084  28.339  26.027   6.750
 9941POPC   C3A70085  28.345  26.030   7.050
 9941POPC   C4A70086  28.322  26.071   7.350
 9941POPC   C1B70087  28.533  25.909   6.450
 9941POPC   C2B70088  28.529  25.821   6.750
 9941POPC   C3B70089  28.567  25.812   7.050
 9941POPC   C4B70090  28.562  25.810   7.350
 9942POPC   NC370091  17.489  24.493   5.550
 9942POPC   PO470092  17.530  24.463   5.850
 9942POPC   GL170093  17.550  24.476   6.150
 9942POPC   GL270094  17.510  24.415   6.150
 9942POPC   C1A70095  17.513  24.502   6.450
 9942POPC   D2A70096  17.526  24.498   6.750
 9942POPC   C3A70097  17.515  24.494   7.050
 9942POPC   C4A70098  17.486  24.446   7.350
 9942POPC   C1B70099  17.546  24.292   6.450
 9942POPC   C2B70100  17.583  24.220   6.750
 9942POPC   C3B70101  17.574  24.218   7.050
 9942POPC   C4B70102  17.558  24.297   7.350
 9943POPC   NC370103   9.762  33.761   5.550
 9943POPC   PO470104   9.735  33.820   5.850
 9943POPC   GL170105   9.723  33.824   6.150
 9943POPC   GL270106   9.696  33.891   6.150
 9943POPC   C1A70107   9.764  33.837   6.450
 9943POPC   D2A70108   9.715  33.838   6.750
 9943POPC   C3A70109   9.793  33.795   7.050
 9943POPC   C4A70110   9.763  33.844   7.350
 9943POPC   C1B70111   9.778  34.030   6.450
 9943POPC   C2B70112   9.779  34.078   6.750
 9943POPC   C3B70113   9.684  34.045   7.050
 9943POPC   C4B70114   9.749  34.029   7.350
 9944POPC   NC370115  16.698   9.788   5.550
 9944POPC   PO470116  16.687   9.779   5.850
 9944POPC   GL170117  16.775   9.779   6.150
 9944POPC   GL270118  16.661   9.827   6.150
 9944POPC   C1A70119  16.706   9.742   6.450
 9944POPC   D2A70120  16.684   9.788   6.750
 9944POPC   C3A70121  16.770   9.739   7.050
 9944POPC   C4A70122  16.767   9.752   7.350
 9944POPC   C1B70123  16.493   9.843   6.450
 9944POPC   C2B70124  16.560   9.896   6.750
 9944POPC   C3B70125  16.525   9.908   7.050
 9944POPC   C4B70126  16.505   9.891   7.350
 9945POPC   NC370127  18.291  43.139   5.550
 9945POPC   PO470128  18.321  43.113   5.850
 9945POPC   GL170129  18.304  43.115   6.150
 9945POPC   GL270130  18.323  43.267   6.150
 9945POPC   C1A70131  18.243  43.158   6.450
 9945POPC   D2A70132  18.321  43.156   6.750
 9945POPC   C3A70133  18.301  43.061   7.050
 9945POPC   C4A70134  18.305  43.156   7.350
 9945POPC   C1B70135  18.323  43.334   6.450
 9945POPC   C2B70136  18.278  43.370   6.750
 9945POPC   C3B70137  18.339  43.334   7.050
 9945POPC   C4B70138  18.297  43.388   7.350
 9946POPC   NC370139  17.466  40.043   5.550
 9946POPC   PO470140  17.534  39.988   5.850
 9946POPC   GL170141  17.545  39.972   6.150
 9946POPC   GL270142  17.622  40.089   6.150
 9946POPC   C1A70143  17.522  39.961   6.450
 9946POPC   D2A70144  17.523  40.001   6.750
 9946POPC   C3A70145  17.469  39.978   7.050
 9946POPC   C4A70146  17.516  40.046   7.350
 9946POPC   C1B70147  17.657  40.174   6.450
 9946POPC   C2B70148  17.651  40.206   6.750
 9946POPC   C3B70149  17.651  40.157   7.050
 9946POPC   C4B70150  17.675  40.186   7.350
 9947POPC   NC370151   8.162   7.465   5.550
 9947POPC   PO470152   8.160   7.411   5.850
 9947POPC   GL170153   8.202   7.424   6.150
 9947POPC   GL270154   8.278   7.326   6.150
 9947POPC   C1A70155   8.162   7.404   6.450
 9947POPC   D2A70156   8.242   7.453   6.750
 9947POPC   C3A70157   8.182   7.397   7.050
 9947POPC   C4A70158   8.148   7.404   7.350
 9947POPC   C1B70159   8.446   7.336   6.450
 9947POPC   C2B70160   8.387   7.283   6.750
 9947POPC   C3B70161   8.416   7.346   7.050
 9947POPC   C4B70162   8.405   7.363   7.350
 9948POPC   NC370163  14.396  30.745   5.550
 9948POPC   PO470164  14.412  30.681   5.850
 9948POPC   GL170165  14.444  30.665   6.150
 9948POPC   GL270166  14.510  30.805   6.150
 9948POPC   C1A70167  14.387  30.722   6.450
 9948POPC   D2A70168  14.387  30.648   6.750
 9948POPC   C3A70169  14.364  30.738   7.050
 9948POPC   C4A70170  14.387  30.731   7.350
 9948POPC   C1B70171  14.485  30.878   6.450
 9948POPC   C2B70172  14.494  30.881   6.750
 9948POPC   C3B70173  14.533  30.867   7.050
 9948POPC   C4B70174  14.497  30.872   7.350
 9949POPC   NC370175  15.143  36.159   5.550
 9949POPC   PO470176  15.157  36.141   5.850
 9949POPC   GL170177  15.144  36.160   6.150
 9949POPC   GL270178  15.156  36.279   6.150
 9949POPC   C1A70179  15.155  36.101   6.450
 9949POPC   D2A70180  15.162  36.159   6.750
 9949POPC   C3A70181  15.186  36.154   7.050
 9949POPC   C4A70182  15.227  36.158   7.350
 9949POPC   C1B70183  15.180  36.368   6.450
 9949POPC   C2B70184  15.124  36.388   6.750
 9949POPC   C3B70185  15.182  36.380   7.050
 9949POPC   C4B70186  15.110  36.420   7.350
 9950POPC   NC370187   5.861   4.333   5.550
 9950POPC   PO470188   5.870   4.306   5.850
 9950POPC   GL170189   5.896   4.317   6.150
 9950POPC   GL270190   5.839   4.439   6.150
 9950POPC   C1A70191   5.898   4.335   6.450
 9950POPC   D2A70192   5.850   4.359   6.750
 9950POPC   C3A70193   5.846   4.330   7.050
 9950POPC   C4A70194   5.836   4.282   7.350
 9950POPC   C1B70195   5.773   4.579   6.450
 9950POPC   C2B70196   5.730   4.563   6.750
 9950POPC   C3B70197   5.722   4.518   7.050
 9950POPC   C4B70198   5.748   4.502   7.350
 9951POPC   NC370199  32.998  29.950   5.550
 9951POPC   PO470200  33.005  29.954   5.850
 9951POPC   GL170201  33.001  29.936   6.150
 9951POPC   GL270202  33.187  29.849   6.150
 9951POPC   C1A70203  33.019  29.961   6.450
 9951POPC   D2A70204  33.030  29.956   6.750
 9951POPC   C3A70205  33.053  29.933   7.050
 9951POPC   C4A70206  33.066  29.888   7.350
 9951POPC   C1B70207  33.225  29.854   6.450
 9951POPC   C2B70208  33.298  29.804   6.750
 9951POPC   C3B70209  33.284  29.847   7.050
 9951POPC   C4B70210  33.222  29.793   7.350
 9952POPC   NC370211  15.207  22.925   5.550
 9952POPC   PO470212  15.203  22.907   5.850
 9952POPC   GL170213  15.164  22.890   6.150
 9952POPC   GL270214  15.058  22.969   6.150
 9952POPC   C1A70215  15.189  22.960   6.450
 9952POPC   D2A70216  15.165  22.889   6.750
 9952POPC   C3A70217  15.206  22.895   7.050
 9952POPC   C4A70218  15.195  22.978   7.350
 9952POPC   C1B70219  14.919  22.860   6.450
 9952POPC   C2B70220  14.945  22.956   6.750
 9952POPC   C3B70221  14.924  22.897   7.050
 9952POPC   C4B70222  14.921  22.877   7.350
 9953POPC   NC370223  39.967  26.799   5.550
 9953POPC   PO470224  39.958  26.829   5.850
 9953POPC   GL170225  40.021  26.792   6.150
 9953POPC   GL270226  39.846  26.867   6.150
 9953POPC   C1A70227  40.006  26.832   6.450
 9953POPC   D2A70228  39.997  26.793   6.750
 9953POPC   C3A70229  39.973  26.794   7.050
 9953POPC   C4A70230  40.016  26.857   7.350
 9953POPC   C1B70231  39.767  26.917   6.450
 9953POPC   C2B70232  39.746  26.834   6.750
 9953POPC   C3B70233  39.795  26.869   7.050
 9953POPC   C4B70234  39.796  26.904   7.350
 9954POPC   NC370235  17.522  36.128   5.550
 9954POPC   PO470236  17.489  36.089   5.850
 9954POPC   GL170237  17.484  36.085   6.150
 9954POPC   GL270238  17.381  36.043   6.150
 9954POPC   C1A70239  17.478  36.097   6.450
 9954POPC   D2A70240  17.491  36.150   6.750
 9954POPC   C3A70241  17.555  36.094   7.050
 9954POPC   C4A70242  17.518  36.093   7.350
 9954POPC   C1B70243  17.379  35.925   6.450
 9954POPC   C2B70244  17.302  35.938   6.750
 9954POPC   C3B70245  17.364  35.975   7.050
 9954POPC   C4B70246  17.310  35.922   7.350
 9955POPC   NC370247   6.664  15.966   5.550
 9955POPC   PO470248   6.642  15.997   5.850
 9955POPC   GL170249   6.683  15.913   6.150
 9955POPC   GL270250   6.703  15.784   6.150
 9955POPC   C1A70251   6.661  15.959   6.450
 9955POPC   D2A70252   6.636  15.912   6.750
 9955POPC   C3A70253   6.632  15.944   7.050
 9955POPC   C4A70254   6.636  15.908   7.350
 9955POPC   C1B70255   6.668  15.719   6.450
 9955POPC   C2B70256   6.686  15.751   6.750
 9955POPC   C3B70257   6.669  15.700   7.050
 9955POPC   C4B70258   6.724  15.725   7.350
 9956POPC   NC370259  14.421  40.757   5.550
 9956POPC   PO470260  14.434  40.768   5.850
 9956POPC   GL170261  14.440  40.750   6.150
 9956POPC   GL270262  14.284  40.861   6.150
 9956POPC   C1A70263  14.446  40.740   6.450
 9956POPC   D2A70264  14.389  40.800   6.750
 9956POPC   C3A70265  14.407  40.770   7.050
 9956POPC   C4A70266  14.398  40.810   7.350
 9956POPC   C1B70267  14.258  40.961   6.450
 9956POPC   C2B70268  14.231  40.959   6.750
 9956POPC   C3B70269  14.241  40.925   7.050
 9956POPC   C4B70270  14.173  40.943   7.350
 9957POPC   NC370271  43.082  13.601   5.550
 9957POPC   PO470272  43.074  13.643   5.850
 9957POPC   GL170273  43.131  13.675   6.150
 9957POPC   GL270274  43.231  13.694   6.150
 9957POPC   C1A70275  43.087  13.601   6.450
 9957POPC   D2A70276  43.075  13.623   6.750
 9957POPC   C3A70277  43.119  13.598   7.050
 9957POPC   C4A70278  43.134  13.614   7.350
 9957POPC   C1B70279  43.365  13.687   6.450
 9957POPC   C2B70280  43.351  13.722   6.750
 9957POPC   C3B70281  43.325  13.667   7.050
 9957POPC   C4B70282  43.354  13.688   7.350
 9958POPC   NC370283  15.141  20.579   5.550
 9958POPC   PO470284  15.175  20.656   5.850
 9958POPC   GL170285  15.222  20.629   6.150
 9958POPC   GL270286  15.116  20.686   6.150
 9958POPC   C1A70287  15.194  20.567   6.450
 9958POPC   D2A70288  15.140  20.619   6.750
 9958POPC   C3A70289  15.134  20.626   7.050
 9958POPC   C4A70290  15.218  20.657   7.350
 9958POPC   C1B70291  14.930  20.752   6.450
 9958POPC   C2B70292  14.941  20.702   6.750
 9958POPC   C3B70293  14.978  20.687   7.050
 9958POPC   C4B70294  14.935  20.717   7.350
 9959POPC   NC370295  36.106  43.075   5.550
 9959POPC   PO470296  36.085  43.120   5.850
 9959POPC   GL170297  36.176  43.146   6.150
 9959POPC   GL270298  36.021  43.154   6.150
 9959POPC   C1A70299  36.175  43.084   6.450
 9959POPC   D2A70300  36.133  43.109   6.750
 9959POPC   C3A70301  36.125  43.076   7.050
 9959POPC   C4A70302  36.129  43.133   7.350
 9959POPC   C1B70303  35.883  43.158   6.450
 9959POPC   C2B70304  35.856  43.125   6.750
 9959POPC   C3B70305  35.857  43.162   7.050
 9959POPC   C4B70306  35.860  43.125   7.350
 9960POPC   NC370307  41.547  39.252   5.550
 9960POPC   PO470308  41.543  39.266   5.850
 9960POPC   GL170309  41.511  39.184   6.150
 9960POPC   GL270310  41.623  39.157   6.150
 9960POPC   C1A70311  41.520  39.229   6.450
 9960POPC   D2A70312  41.540  39.200   6.750
 9960POPC   C3A70313  41.588  39.191   7.050
 9960POPC   C4A70314  41.562  39.275   7.350
 9960POPC   C1B70315  41.751  39.141   6.450
 9960POPC   C2B70316  41.801  39.140   6.750
 9960POPC   C3B70317  41.770  39.102   7.050
 9960POPC   C4B70318  41.821  39.104   7.350
 9961POPC   NC370319  43.857  23.705   5.550
 9961POPC   PO470320  43.865  23.674   5.850
 9961POPC   GL170321  43.891  23.725   6.150
 9961POPC   GL270322  43.979  23.633   6.150
 9961POPC   C1A70323  43.850  23.722   6.450
 9961POPC   D2A70324  43.847  23.756   6.750
 9961POPC   C3A70325  43.875  23.672   7.050
 9961POPC   C4A70326  43.869  23.697   7.350
 9961POPC   C1B70327  44.073  23.544   6.450
 9961POPC   C2B70328  44.053  23.505   6.750
 9961POPC   C3B70329  44.039  23.556   7.050
 9961POPC   C4B70330  44.009  23.559   7.350
 9962POPC   NC370331   2.775  35.388   5.550
 9962POPC   PO470332   2.735  35.386   5.850
 9962POPC   GL170333   2.731  35.399   6.150
 9962POPC   GL270334   2.714  35.507   6.150
 9962POPC   C1A70335   2.810  35.340   6.450
 9962POPC   D2A70336   2.812  35.364   6.750
 9962POPC   C3A70337   2.787  35.385   7.050
 9962POPC   C4A70338   2.761  35.309   7.350
 9962POPC   C1B70339   2.709  35.608   6.450
 9962POPC   C2B70340   2.779  35.648   6.750
 9962POPC   C3B70341   2.732  35.561   7.050
 9962POPC   C4B70342   2.747  35.556   7.350
 9963POPC   NC370343  33.038  39.215   5.550
 9963POPC   PO470344  33.074  39.201   5.850
 9963POPC   GL170345  33.023  39.202   6.150
 9963POPC   GL270346  32.965  39.291   6.150
 9963POPC   C1A70347  33.045  39.231   6.450
 9963POPC   D2A70348  33.064  39.221   6.750
 9963POPC   C3A70349  33.044  39.279   7.050
 9963POPC   C4A70350  32.991  39.207   7.350
 9963POPC   C1B70351  32.849  39.368   6.450
 9963POPC   C2B70352  32.843  39.363   6.750
 9963POPC   C3B70353  32.801  39.376   7.050
 9963POPC   C4B70354  32.785  39.396   7.350
 9964POPC   NC370355  34.540  23.692   5.550
 9964POPC   PO470356  34.559  23.670   5.850
 9964POPC   GL170357  34.531  23.698   6.150
 9964POPC   GL270358  34.452  23.812   6.150
 9964POPC   C1A70359  34.551  23.745   6.450
 9964POPC   D2A70360  34.612  23.698   6.750
 9964POPC   C3A70361  34.539  23.737   7.050
 9964POPC   C4A70362  34.530  23.703   7.350
 9964POPC   C1B70363  34.344  23.793   6.450
 9964POPC   C2B70364  34.346  23.823   6.750
 9964POPC   C3B70365  34.330  23.835   7.050
 9964POPC   C4B70366  34.382  23.813   7.350
 9965POPC   NC370367  37.642  17.538   5.550
 9965POPC   PO470368  37.653  17.538   5.850
 9965POPC   GL170369  37.714  17.522   6.150
 9965POPC   GL270370  37.671  17.407   6.150
 9965POPC   C1A70371  37.709  17.543   6.450
 9965POPC   D2A70372  37.678  17.469   6.750
 9965POPC   C3A70373  37.684  17.506   7.050
 9965POPC   C4A70374  37.647  17.488   7.350
 9965POPC   C1B70375  37.584  17.307   6.450
 9965POPC   C2B70376  37.656  17.228   6.750
 9965POPC   C3B70377  37.610  17.264   7.050
 9965POPC   C4B70378  37.615  17.311   7.350
 9966POPC   NC370379  10.567   8.165   5.550
 9966POPC   PO470380  10.518   8.246   5.850
 9966POPC   GL170381  10.492   8.158   6.150
 9966POPC   GL270382  10.470   8.327   6.150
 9966POPC   C1A70383  10.570   8.197   6.450
 9966POPC   D2A70384  10.553   8.160   6.750
 9966POPC   C3A70385  10.513   8.217   7.050
 9966POPC   C4A70386  10.484   8.230   7.350
 9966POPC   C1B70387  10.404   8.439   6.450
 9966POPC   C2B70388  10.336   8.440   6.750
 9966POPC   C3B70389  10.410   8.386   7.050
 9966POPC   C4B70390  10.342   8.360   7.350
 9967POPC   NC370391  39.969   8.194   5.550
 9967POPC   PO470392  39.962   8.190   5.850
 9967POPC   GL170393  40.029   8.159   6.150
 9967POPC   GL270394  39.859   8.133   6.150
 9967POPC   C1A70395  40.031   8.187   6.450
 9967POPC   D2A70396  39.966   8.172   6.750
 9967POPC   C3A70397  39.988   8.203   7.050
 9967POPC   C4A70398  40.054   8.239   7.350
 9967POPC   C1B70399  39.795   8.072   6.450
 9967POPC   C2B70400  39.762   8.084   6.750
 9967POPC   C3B70401  39.796   8.161   7.050
 9967POPC   C4B70402  39.721   8.079   7.350
 9968POPC   NC370403  10.563   3.545   5.550
 9968POPC   PO470404  10.478   3.582   5.850
 9968POPC   GL170405  10.512   3.570   6.150
 9968POPC   GL270406  10.451   3.628   6.150
 9968POPC   C1A70407  10.496   3.547   6.450
 9968POPC   D2A70408  10.531   3.506   6.750
 9968POPC   C3A70409  10.477   3.549   7.050
 9968POPC   C4A70410  10.503   3.586   7.350
 9968POPC   C1B70411  10.335   3.659   6.450
 9968POPC   C2B70412  10.279   3.670   6.750
 9968POPC   C3B70413  10.335   3.643   7.050
 9968POPC   C4B70414  10.295   3.625   7.350
 9969POPC   NC370415  40.762  16.735   5.550
 9969POPC   PO470416  40.756  16.740   5.850
 9969POPC   GL170417  40.790  16.757   6.150
 9969POPC   GL270418  40.853  16.602   6.150
 9969POPC   C1A70419  40.771  16.690   6.450
 9969POPC   D2A70420  40.791  16.777   6.750
 9969POPC   C3A70421  40.805  16.754   7.050
 9969POPC   C4A70422  40.773  16.698   7.350
 9969POPC   C1B70423  40.997  16.510   6.450
 9969POPC   C2B70424  40.974  16.510   6.750
 9969POPC   C3B70425  40.993  16.536   7.050
 9969POPC   C4B70426  40.980  16.576   7.350
 9970POPC   NC370427  43.863  41.556   5.550
 9970POPC   PO470428  43.917  41.575   5.850
 9970POPC   GL170429  43.906  41.510   6.150
 9970POPC   GL270430  43.973  41.640   6.150
 9970POPC   C1A70431  43.885  41.530   6.450
 9970POPC   D2A70432  43.893  41.606   6.750
 9970POPC   C3A70433  43.929  41.551   7.050
 9970POPC   C4A70434  43.918  41.564   7.350
 9970POPC   C1B70435  44.096  41.733   6.450
 9970POPC   C2B70436  44.053  41.704   6.750
 9970POPC   C3B70437  44.120  41.662   7.050
 9970POPC   C4B70438  44.062  41.672   7.350
 9971POPC   NC370439  10.532  34.557   5.550
 9971POPC   PO470440  10.474  34.560   5.850
 9971POPC   GL170441  10.502  34.626   6.150
 9971POPC   GL270442  10.626  34.701   6.150
 9971POPC   C1A70443  10.552  34.563   6.450
 9971POPC   D2A70444  10.549  34.584   6.750
 9971POPC   C3A70445  10.553  34.603   7.050
 9971POPC   C4A70446  10.509  34.526   7.350
 9971POPC   C1B70447  10.681  34.789   6.450
 9971POPC   C2B70448  10.642  34.821   6.750
 9971POPC   C3B70449  10.700  34.747   7.050
 9971POPC   C4B70450  10.703  34.748   7.350
 9972POPC   NC370451  40.735   6.641   5.550
 9972POPC   PO470452  40.780   6.665   5.850
 9972POPC   GL170453  40.749   6.677   6.150
 9972POPC   GL270454  40.851   6.564   6.150
 9972POPC   C1A70455  40.773   6.622   6.450
 9972POPC   D2A70456  40.811   6.596   6.750
 9972POPC   C3A70457  40.770   6.688   7.050
 9972POPC   C4A70458  40.827   6.684   7.350
 9972POPC   C1B70459  40.895   6.398   6.450
 9972POPC   C2B70460  40.969   6.424   6.750
 9972POPC   C3B70461  40.892   6.425   7.050
 9972POPC   C4B70462  40.970   6.470   7.350
 9973POPC   NC370463  32.242  38.441   5.550
 9973POPC   PO470464  32.263  38.421   5.850
 9973POPC   GL170465  32.273  38.446   6.150
 9973POPC   GL270466  32.325  38.605   6.150
 9973POPC   C1A70467  32.257  38.450   6.450
 9973POPC   D2A70468  32.252  38.478   6.750
 9973POPC   C3A70469  32.250  38.445   7.050
 9973POPC   C4A70470  32.269  38.439   7.350
 9973POPC   C1B70471  32.332  38.725   6.450
 9973POPC   C2B70472  32.331  38.680   6.750
 9973POPC   C3B70473  32.321  38.700   7.050
 9973POPC   C4B70474  32.300  38.699   7.350
 9974POPC   NC370475  10.509  21.401   5.550
 9974POPC   PO470476  10.498  21.409   5.850
 9974POPC   GL170477  10.540  21.418   6.150
 9974POPC   GL270478  10.526  21.274   6.150
 9974POPC   C1A70479  10.517  21.372   6.450
 9974POPC   D2A70480  10.490  21.396   6.750
 9974POPC   C3A70481  10.549  21.418   7.050
 9974POPC   C4A70482  10.487  21.367   7.350
 9974POPC   C1B70483  10.527  21.158   6.450
 9974POPC   C2B70484  10.480  21.147   6.750
 9974POPC   C3B70485  10.471  21.147   7.050
 9974POPC   C4B70486  10.527  21.156   7.350
 9975POPC   NC370487  28.386  28.324   5.550
 9975POPC   PO470488  28.418  28.326   5.850
 9975POPC   GL170489  28.350  28.363   6.150
 9975POPC   GL270490  28.489  28.404   6.150
 9975POPC   C1A70491  28.376  28.331   6.450
 9975POPC   D2A70492  28.407  28.328   6.750
 9975POPC   C3A70493  28.406  28.337   7.050
 9975POPC   C4A70494  28.387  28.348   7.350
 9975POPC   C1B70495  28.579  28.367   6.450
 9975POPC   C2B70496  28.588  28.354   6.750
 9975POPC   C3B70497  28.613  28.329   7.050
 9975POPC   C4B70498  28.667  28.395   7.350
 9976POPC   NC370499   5.833  38.425   5.550
 9976POPC   PO470500   5.839  38.494   5.850
 9976POPC   GL170501   5.909  38.489   6.150
 9976POPC   GL270502   5.979  38.481   6.150
 9976POPC   C1A70503   5.832  38.451   6.450
 9976POPC   D2A70504   5.882  38.426   6.750
 9976POPC   C3A70505   5.848  38.445   7.050
 9976POPC   C4A70506   5.850  38.455   7.350
 9976POPC   C1B70507   6.141  38.486   6.450
 9976POPC   C2B70508   6.098  38.446   6.750
 9976POPC   C3B70509   6.140  38.514   7.050
 9976POPC   C4B70510   6.164  38.487   7.350
 9977POPC   NC370511  13.621  36.154   5.550
 9977POPC   PO470512  13.589  36.107   5.850
 9977POPC   GL170513  13.645  36.147   6.150
 9977POPC   GL270514  13.501  36.066   6.150
 9977POPC   C1A70515  13.610  36.126   6.450
 9977POPC   D2A70516  13.620  36.142   6.750
 9977POPC   C3A70517  13.614  36.100   7.050
 9977POPC   C4A70518  13.583  36.093   7.350
 9977POPC   C1B70519  13.499  35.895   6.450
 9977POPC   C2B70520  13.501  35.917   6.750
 9977POPC   C3B70521  13.519  35.948   7.050
 9977POPC   C4B70522  13.452  35.918   7.350
 9978POPC   NC370523  34.613  22.974   5.550
 9978POPC   PO470524  34.624  22.936   5.850
 9978POPC   GL170525  34.541  22.912   6.150
 9978POPC   GL270526  34.506  23.014   6.150
 9978POPC   C1A70527  34.561  22.980   6.450
 9978POPC   D2A70528  34.531  22.902   6.750
 9978POPC   C3A70529  34.572  22.961   7.050
 9978POPC   C4A70530  34.599  22.963   7.350
 9978POPC   C1B70531  34.369  23.083   6.450
 9978POPC   C2B70532  34.416  23.137   6.750
 9978POPC   C3B70533  34.427  23.057   7.050
 9978POPC   C4B70534  34.387  23.058   7.350
 9979POPC   NC370535  44.634  13.613   5.550
 9979POPC   PO470536  44.613  13.616   5.850
 9979POPC   GL170537  44.662  13.587   6.150
 9979POPC   GL270538  44.807  13.711   6.150
 9979POPC   C1A70539  44.700  13.600   6.450
 9979POPC   D2A70540  44.707  13.581   6.750
 9979POPC   C3A70541  44.649  13.587   7.050
 9979POPC   C4A70542  44.617  13.636   7.350
 9979POPC   C1B70543  44.844  13.709   6.450
 9979POPC   C2B70544  44.910  13.717   6.750
 9979POPC   C3B70545  44.936  13.787   7.050
 9979POPC   C4B70546  44.898  13.693   7.350
 9980POPC   NC370547  36.907  36.118   5.550
 9980POPC   PO470548  36.855  36.153   5.850
 9980POPC   GL170549  36.881  36.130   6.150
 9980POPC   GL270550  36.927  35.962   6.150
 9980POPC   C1A70551  36.939  36.154   6.450
 9980POPC   D2A70552  36.912  36.138   6.750
 9980POPC   C3A70553  36.890  36.153   7.050
 9980POPC   C4A70554  36.864  36.114   7.350
 9980POPC   C1B70555  36.861  35.893   6.450
 9980POPC   C2B70556  36.870  35.896   6.750
 9980POPC   C3B70557  36.873  35.901   7.050
 9980POPC   C4B70558  36.912  35.914   7.350
 9981POPC   NC370559   2.739  33.843   5.550
 9981POPC   PO470560   2.765  33.803   5.850
 9981POPC   GL170561   2.737  33.814   6.150
 9981POPC   GL270562   2.932  33.796   6.150
 9981POPC   C1A70563   2.784  33.762   6.450
 9981POPC   D2A70564   2.758  33.807   6.750
 9981POPC   C3A70565   2.747  33.752   7.050
 9981POPC   C4A70566   2.717  33.806   7.350
 9981POPC   C1B70567   2.985  33.712   6.450
 9981POPC   C2B70568   2.983  33.743   6.750
 9981POPC   C3B70569   3.007  33.716   7.050
 9981POPC   C4B70570   2.991  33.689   7.350
 9982POPC   NC370571  38.483  12.122   5.550
 9982POPC   PO470572  38.484  12.043   5.850
 9982POPC   GL170573  38.453  12.050   6.150
 9982POPC   GL270574  38.528  12.141   6.150
 9982POPC   C1A70575  38.413  12.117   6.450
 9982POPC   D2A70576  38.489  12.075   6.750
 9982POPC   C3A70577  38.500  12.115   7.050
 9982POPC   C4A70578  38.407  12.086   7.350
 9982POPC   C1B70579  38.657  12.162   6.450
 9982POPC   C2B70580  38.715  12.109   6.750
 9982POPC   C3B70581  38.668  12.146   7.050
 9982POPC   C4B70582  38.691  12.092   7.350
 9983POPC   NC370583  34.536  25.227   5.550
 9983POPC   PO470584  34.612  25.282   5.850
 9983POPC   GL170585  34.549  25.236   6.150
 9983POPC   GL270586  34.652  25.193   6.150
 9983POPC   C1A70587  34.545  25.253   6.450
 9983POPC   D2A70588  34.584  25.315   6.750
 9983POPC   C3A70589  34.618  25.276   7.050
 9983POPC   C4A70590  34.578  25.261   7.350
 9983POPC   C1B70591  34.764  25.137   6.450
 9983POPC   C2B70592  34.751  25.149   6.750
 9983POPC   C3B70593  34.801  25.081   7.050
 9983POPC   C4B70594  34.727  25.122   7.350
 9984POPC   NC370595  18.276  23.718   5.550
 9984POPC   PO470596  18.303  23.740   5.850
 9984POPC   GL170597  18.323  23.707   6.150
 9984POPC   GL270598  18.311  23.578   6.150
 9984POPC   C1A70599  18.306  23.723   6.450
 9984POPC   D2A70600  18.268  23.689   6.750
 9984POPC   C3A70601  18.269  23.681   7.050
 9984POPC   C4A70602  18.303  23.708   7.350
 9984POPC   C1B70603  18.357  23.470   6.450
 9984POPC   C2B70604  18.359  23.509   6.750
 9984POPC   C3B70605  18.276  23.434   7.050
 9984POPC   C4B70606  18.307  23.496   7.350
 9985POPC   NC370607  10.496   7.376   5.550
 9985POPC   PO470608  10.565   7.433   5.850
 9985POPC   GL170609  10.559   7.414   6.150
 9985POPC   GL270610  10.490   7.496   6.150
 9985POPC   C1A70611  10.567   7.444   6.450
 9985POPC   D2A70612  10.555   7.449   6.750
 9985POPC   C3A70613  10.505   7.447   7.050
 9985POPC   C4A70614  10.483   7.400   7.350
 9985POPC   C1B70615  10.529   7.649   6.450
 9985POPC   C2B70616  10.517   7.650   6.750
 9985POPC   C3B70617  10.513   7.646   7.050
 9985POPC   C4B70618  10.479   7.697   7.350
 9986POPC   NC370619   9.762  26.780   5.550
 9986POPC   PO470620   9.764  26.797   5.850
 9986POPC   GL170621   9.701  26.867   6.150
 9986POPC   GL270622   9.849  26.946   6.150
 9986POPC   C1A70623   9.793  26.846   6.450
 9986POPC   D2A70624   9.780  26.797   6.750
 9986POPC   C3A70625   9.757  26.840   7.050
 9986POPC   C4A70626   9.755  26.815   7.350
 9986POPC   C1B70627   9.945  27.020   6.450
 9986POPC   C2B70628   9.945  26.944   6.750
 9986POPC   C3B70629   9.955  26.978   7.050
 9986POPC   C4B70630   9.972  27.028   7.350
 9987POPC   NC370631   5.070  40.045   5.550
 9987POPC   PO470632   5.047  39.982   5.850
 9987POPC   GL170633   5.107  39.963   6.150
 9987POPC   GL270634   5.044  40.114   6.150
 9987POPC   C1A70635   5.132  39.991   6.450
 9987POPC   D2A70636   5.120  39.981   6.750
 9987POPC   C3A70637   5.068  39.981   7.050
 9987POPC   C4A70638   5.106  39.986   7.350
 9987POPC   C1B70639   4.955  40.167   6.450
 9987POPC   C2B70640   4.948  40.216   6.750
 9987POPC   C3B70641   4.916  40.182   7.050
 9987POPC   C4B70642   4.954  40.144   7.350
 9988POPC   NC370643  26.770  20.607   5.550
 9988POPC   PO470644  26.858  20.615   5.850
 9988POPC   GL170645  26.858  20.609   6.150
 9988POPC   GL270646  26.987  20.617   6.150
 9988POPC   C1A70647  26.772  20.582   6.450
 9988POPC   D2A70648  26.812  20.625   6.750
 9988POPC   C3A70649  26.802  20.627   7.050
 9988POPC   C4A70650  26.769  20.574   7.350
 9988POPC   C1B70651  27.092  20.633   6.450
 9988POPC   C2B70652  27.051  20.557   6.750
 9988POPC   C3B70653  27.058  20.622   7.050
 9988POPC   C4B70654  27.031  20.541   7.350
 9989POPC   NC370655   2.025  33.002   5.550
 9989POPC   PO470656   1.987  33.045   5.850
 9989POPC   GL170657   2.025  33.014   6.150
 9989POPC   GL270658   2.084  33.052   6.150
 9989POPC   C1A70659   2.031  33.002   6.450
 9989POPC   D2A70660   1.947  33.035   6.750
 9989POPC   C3A70661   2.027  33.061   7.050
 9989POPC   C4A70662   1.947  32.998   7.350
 9989POPC   C1B70663   2.218  32.972   6.450
 9989POPC   C2B70664   2.251  33.042   6.750
 9989POPC   C3B70665   2.255  32.979   7.050
 9989POPC   C4B70666   2.240  32.985   7.350
 9990POPC   NC370667  27.602  15.970   5.550
 9990POPC   PO470668  27.632  15.924   5.850
 9990POPC   GL170669  27.580  15.996   6.150
 9990POPC   GL270670  27.510  15.812   6.150
 9990POPC   C1A70671  27.572  16.003   6.450
 9990POPC   D2A70672  27.614  16.001   6.750
 9990POPC   C3A70673  27.599  15.918   7.050
 9990POPC   C4A70674  27.642  15.957   7.350
 9990POPC   C1B70675  27.448  15.772   6.450
 9990POPC   C2B70676  27.512  15.782   6.750
 9990POPC   C3B70677  27.445  15.717   7.050
 9990POPC   C4B70678  27.480  15.689   7.350
 9991POPC   NC370679  12.900  40.765   5.550
 9991POPC   PO470680  12.892  40.774   5.850
 9991POPC   GL170681  12.898  40.734   6.150
 9991POPC   GL270682  12.906  40.719   6.150
 9991POPC   C1A70683  12.898  40.820   6.450
 9991POPC   D2A70684  12.835  40.741   6.750
 9991POPC   C3A70685  12.844  40.756   7.050
 9991POPC   C4A70686  12.814  40.760   7.350
 9991POPC   C1B70687  13.024  40.612   6.450
 9991POPC   C2B70688  13.056  40.660   6.750
 9991POPC   C3B70689  13.060  40.608   7.050
 9991POPC   C4B70690  13.031  40.642   7.350
 9992POPC   NC370691  32.243  18.300   5.550
 9992POPC   PO470692  32.255  18.294   5.850
 9992POPC   GL170693  32.273  18.284   6.150
 9992POPC   GL270694  32.309  18.201   6.150
 9992POPC   C1A70695  32.230  18.304   6.450
 9992POPC   D2A70696  32.214  18.250   6.750
 9992POPC   C3A70697  32.223  18.289   7.050
 9992POPC   C4A70698  32.240  18.263   7.350
 9992POPC   C1B70699  32.409  18.033   6.450
 9992POPC   C2B70700  32.396  18.046   6.750
 9992POPC   C3B70701  32.362  18.045   7.050
 9992POPC   C4B70702  32.420  18.112   7.350
 9993POPC   NC370703  33.002   5.119   5.550
 9993POPC   PO470704  33.063   5.122   5.850
 9993POPC   GL170705  33.011   5.075   6.150
 9993POPC   GL270706  33.105   5.024   6.150
 9993POPC   C1A70707  33.010   5.094   6.450
 9993POPC   D2A70708  33.006   5.047   6.750
 9993POPC   C3A70709  33.008   5.058   7.050
 9993POPC   C4A70710  33.019   5.107   7.350
 9993POPC   C1B70711  33.214   4.862   6.450
 9993POPC   C2B70712  33.141   4.852   6.750
 9993POPC   C3B70713  33.210   4.848   7.050
 9993POPC   C4B70714  33.182   4.880   7.350
 9994POPC   NC370715  36.878   3.497   5.550
 9994POPC   PO470716  36.912   3.557   5.850
 9994POPC   GL170717  36.937   3.514   6.150
 9994POPC   GL270718  36.919   3.693   6.150
 9994POPC   C1A70719  36.923   3.560   6.450
 9994POPC   D2A70720  36.919   3.548   6.750
 9994POPC   C3A70721  36.928   3.526   7.050
 9994POPC   C4A70722  36.949   3.545   7.350
 9994POPC   C1B70723  37.023   3.727   6.450
 9994POPC   C2B70724  37.009   3.791   6.750
 9994POPC   C3B70725  36.970   3.763   7.050
 9994POPC   C4B70726  36.989   3.737   7.350
 9995POPC   NC370727   4.355  18.298   5.550
 9995POPC   PO470728   4.304  18.305   5.850
 9995POPC   GL170729   4.309  18.298   6.150
 9995POPC   GL270730   4.182  18.199   6.150
 9995POPC   C1A70731   4.294  18.251   6.450
 9995POPC   D2A70732   4.281  18.314   6.750
 9995POPC   C3A70733   4.326  18.245   7.050
 9995POPC   C4A70734   4.295  18.327   7.350
 9995POPC   C1B70735   4.050  18.160   6.450
 9995POPC   C2B70736   4.088  18.189   6.750
 9995POPC   C3B70737   4.087  18.217   7.050
 9995POPC   C4B70738   4.134  18.134   7.350
 9996POPC   NC370739  39.235  29.123   5.550
 9996POPC   PO470740  39.209  29.193   5.850
 9996POPC   GL170741  39.251  29.116   6.150
 9996POPC   GL270742  39.230  29.256   6.150
 9996POPC   C1A70743  39.240  29.110   6.450
 9996POPC   D2A70744  39.252  29.178   6.750
 9996POPC   C3A70745  39.257  29.148   7.050
 9996POPC   C4A70746  39.208  29.184   7.350
 9996POPC   C1B70747  39.311  29.352   6.450
 9996POPC   C2B70748  39.308  29.364   6.750
 9996POPC   C3B70749  39.330  29.416   7.050
 9996POPC   C4B70750  39.371  29.373   7.350
 9997POPC   NC370751  25.242  33.843   5.550
 9997POPC   PO470752  25.287  33.819   5.850
 9997POPC   GL170753  25.225  33.842   6.150
 9997POPC   GL270754  25.402  33.739   6.150
 9997POPC   C1A70755  25.284  33.807   6.450
 9997POPC   D2A70756  25.275  33.786   6.750
 9997POPC   C3A70757  25.257  33.814   7.050
 9997POPC   C4A70758  25.296  33.804   7.350
 9997POPC   C1B70759  25.519  33.687   6.450
 9997POPC   C2B70760  25.506  33.627   6.750
 9997POPC   C3B70761  25.432  33.710   7.050
 9997POPC   C4B70762  25.469  33.667   7.350
 9998POPC   NC370763  15.141   8.961   5.550
 9998POPC   PO470764  15.179   8.932   5.850
 9998POPC   GL170765  15.144   8.930   6.150
 9998POPC   GL270766  15.102   8.943   6.150
 9998POPC   C1A70767  15.215   8.995   6.450
 9998POPC   D2A70768  15.146   8.930   6.750
 9998POPC   C3A70769  15.132   8.964   7.050
 9998POPC   C4A70770  15.227   8.961   7.350
 9998POPC   C1B70771  14.992   8.891   6.450
 9998POPC   C2B70772  14.954   8.819   6.750
 9998POPC   C3B70773  14.967   8.821   7.050
 9998POPC   C4B70774  14.992   8.887   7.350
 9999POPC   NC370775   1.203  19.043   5.550
 9999POPC   PO470776   1.189  19.091   5.850
 9999POPC   GL170777   1.241  19.048   6.150
 9999POPC   GL270778   1.152  19.041   6.150
 9999POPC   C1A70779   1.219  19.063   6.450
 9999POPC   D2A70780   1.198  19.068   6.750
 9999POPC   C3A70781   1.195  19.058   7.050
 9999POPC   C4A70782   1.234  19.105   7.350
 9999POPC   C1B70783   0.996  18.904   6.450
 9999POPC   C2B70784   0.991  18.977   6.750
 9999POPC   C3B70785   0.995  18.986   7.050
 9999POPC   C4B70786   0.963  18.992   7.350
10000POPC   NC370787  13.578  19.809   5.550
10000POPC   PO470788  13.600  19.786   5.850
10000POPC   GL170789  13.628  19.870   6.150
10000POPC   GL270790  13.729  19.834   6.150
10000POPC   C1A70791  13.660  19.825   6.450
10000POPC   D2A70792  13.586  19.800   6.750
10000POPC   C3A70793  13.599  19.822   7.050
10000POPC   C4A70794  13.583  19.814   7.350
10000POPC   C1B70795  13.893  19.882   6.450
10000POPC   C2B70796  13.860  19.864   6.750
10000POPC   C3B70797  13.875  19.883   7.050
10000POPC   C4B70798  13.893  19.807   7.350
10001POPC   NC370799  33.784   4.299   5.550
10001POPC   PO470800  33.803   4.300   5.850
10001POPC   GL170801  33.845   4.320   6.150
10001POPC   GL270802  33.629   4.334   6.150
10001POPC   C1A70803  33.848   4.295   6.450
10001POPC   D2A70804  33.831   4.275   6.750
10001POPC   C3A70805  33.779   4.335   7.050
10001POPC   C4A70806  33.785   4.307   7.350
10001POPC   C1B70807  33.591   4.330   6.450
10001POPC   C2B70808  33.525   4.346   6.750
10001POPC   C3B70809  33.600   4.421   7.050
10001POPC   C4B70810  33.545   4.397   7.350
10002POPC   NC370811  30.746  39.989   5.550
10002POPC   PO470812  30.736  40.006   5.850
10002POPC   GL170813  30.687  39.994   6.150
10002POPC   GL270814  30.783  39.991   6.150
10002POPC   C1A70815  30.663  39.974   6.450
10002POPC   D2A70816  30.658  39.989   6.750
10002POPC   C3A70817  30.667  39.978   7.050
10002POPC   C4A70818  30.723  39.994   7.350
10002POPC   C1B70819  30.905  40.009   6.450
10002POPC   C2B70820  30.898  40.069   6.750
10002POPC   C3B70821  30.970  40.051   7.050
10002POPC   C4B70822  30.989  40.046   7.350
10003POPC   NC370823  35.333  20.613   5.550
10003POPC   PO470824  35.399  20.589   5.850
10003POPC   GL170825  35.357  20.633   6.150
10003POPC   GL270826  35.443  20.631   6.150
10003POPC   C1A70827  35.378  20.590   6.450
10003POPC   D2A70828  35.377  20.653   6.750
10003POPC   C3A70829  35.370  20.562   7.050
10003POPC   C4A70830  35.376  20.570   7.350
10003POPC   C1B70831  35.567  20.637   6.450
10003POPC   C2B70832  35.598  20.647   6.750
10003POPC   C3B70833  35.571  20.707   7.050
10003POPC   C4B70834  35.563  20.659   7.350
10004POPC   NC370835   5.842  40.780   5.550
10004POPC   PO470836   5.868  40.772   5.850
10004POPC   GL170837   5.877  40.808   6.150
10004POPC   GL270838   5.935  40.678   6.150
10004POPC   C1A70839   5.867  40.819   6.450
10004POPC   D2A70840   5.883  40.826   6.750
10004POPC   C3A70841   5.836  40.816   7.050
10004POPC   C4A70842   5.827  40.758   7.350
10004POPC   C1B70843   6.074  40.581   6.450
10004POPC   C2B70844   6.036  40.578   6.750
10004POPC   C3B70845   6.040  40.623   7.050
10004POPC   C4B70846   6.026  40.618   7.350
10005POPC   NC370847  33.844  24.458   5.550
10005POPC   PO470848  33.835  24.464   5.850
10005POPC   GL170849  33.776  24.529   6.150
10005POPC   GL270850  33.648  24.463   6.150
10005POPC   C1A70851  33.828  24.465   6.450
10005POPC   D2A70852  33.796  24.451   6.750
10005POPC   C3A70853  33.791  24.441   7.050
10005POPC   C4A70854  33.793  24.464   7.350
10005POPC   C1B70855  33.582  24.480   6.450
10005POPC   C2B70856  33.543  24.431   6.750
10005POPC   C3B70857  33.528  24.506   7.050
10005POPC   C4B70858  33.570  24.489   7.350
10006POPC   NC370859  40.053   6.675   5.550
10006POPC   PO470860  40.016   6.619   5.850
10006POPC   GL170861  39.986   6.599   6.150
10006POPC   GL270862  40.004   6.756   6.150
10006POPC   C1A70863  40.009   6.631   6.450
10006POPC   D2A70864  39.993   6.611   6.750
10006POPC   C3A70865  40.057   6.680   7.050
10006POPC   C4A70866  39.995   6.632   7.350
10006POPC   C1B70867  39.997   6.922   6.450
10006POPC   C2B70868  39.985   6.912   6.750
10006POPC   C3B70869  39.996   6.849   7.050
10006POPC   C4B70870  40.013   6.936   7.350
10007POPC   NC370871  41.597  15.130   5.550
10007POPC   PO470872  41.526  15.150   5.850
10007POPC   GL170873  41.562  15.130   6.150
10007POPC   GL270874  41.461  15.074   6.150
10007POPC   C1A70875  41.582  15.161   6.450
10007POPC   D2A70876  41.575  15.219   6.750
10007POPC   C3A70877  41.529  15.161   7.050
10007POPC   C4A70878  41.557  15.174   7.350
10007POPC   C1B70879  41.367  15.086   6.450
10007POPC   C2B70880  41.358  15.014   6.750
10007POPC   C3B70881  41.320  15.043   7.050
10007POPC   C4B70882  41.326  15.030   7.350
10008POPC   NC370883  27.564   1.983   5.550
10008POPC   PO470884  27.614   1.982   5.850
10008POPC   GL170885  27.616   1.952   6.150
10008POPC   GL270886  27.614   2.151   6.150
10008POPC   C1A70887  27.604   1.941   6.450
10008POPC   D2A70888  27.546   2.015   6.750
10008POPC   C3A70889  27.554   2.033   7.050
10008POPC   C4A70890  27.605   1.996   7.350
10008POPC   C1B70891  27.616   2.203   6.450
10008POPC   C2B70892  27.598   2.268   6.750
10008POPC   C3B70893  27.662   2.261   7.050
10008POPC   C4B70894  27.665   2.213   7.350
10009POPC   NC370895   1.238  18.327   5.550
10009POPC   PO470896   1.225  18.238   5.850
10009POPC   GL170897   1.248  18.331   6.150
10009POPC   GL270898   1.162  18.370   6.150
10009POPC   C1A70899   1.180  18.301   6.450
10009POPC   D2A70900   1.231  18.322   6.750
10009POPC   C3A70901   1.200  18.261   7.050
10009POPC   C4A70902   1.255  18.258   7.350
10009POPC   C1B70903   1.088  18.513   6.450
10009POPC   C2B70904   1.128  18.524   6.750
10009POPC   C3B70905   1.067  18.543   7.050
10009POPC   C4B70906   1.100  18.506   7.350
10010POPC   NC370907  36.875  22.954   5.550
10010POPC   PO470908  36.888  22.951   5.850
10010POPC   GL170909  36.890  22.926   6.150
10010POPC   GL270910  36.780  23.028   6.150
10010POPC   C1A70911  36.917  22.938   6.450
10010POPC   D2A70912  36.854  22.899   6.750
10010POPC   C3A70913  36.886  22.948   7.050
10010POPC   C4A70914  36.864  22.902   7.350
10010POPC   C1B70915  36.705  23.086   6.450
10010POPC   C2B70916  36.711  23.102   6.750
10010POPC   C3B70917  36.738  23.100   7.050
10010POPC   C4B70918  36.791  23.092   7.350
10011POPC   NC370919  29.172   5.833   5.550
10011POPC   PO470920  29.187   5.840   5.850
10011POPC   GL170921  29.143   5.904   6.150
10011POPC   GL270922  29.122   5.715   6.150
10011POPC   C1A70923  29.179   5.867   6.450
10011POPC   D2A70924  29.135   5.866   6.750
10011POPC   C3A70925  29.109   5.828   7.050
10011POPC   C4A70926  29.190   5.916   7.350
10011POPC   C1B70927  29.142   5.611   6.450
10011POPC   C2B70928  29.117   5.606   6.750
10011POPC   C3B70929  29.118   5.586   7.050
10011POPC   C4B70930  29.148   5.640   7.350
10012POPC   NC370931  38.477   2.008   5.550
10012POPC   PO470932  38.443   1.962   5.850
10012POPC   GL170933  38.464   2.015   6.150
10012POPC   GL270934  38.408   1.837   6.150
10012POPC   C1A70935  38.469   2.026   6.450
10012POPC   D2A70936  38.473   1.968   6.750
10012POPC   C3A70937  38.444   2.039   7.050
10012POPC   C4A70938  38.448   2.019   7.350
10012POPC   C1B70939  38.373   1.757   6.450
10012POPC   C2B70940  38.435   1.790   6.750
10012POPC   C3B70941  38.416   1.725   7.050
10012POPC   C4B70942  38.351   1.772   7.350
10013POPC   NC370943  33.814  34.600   5.550
10013POPC   PO470944  33.836  34.536   5.850
10013POPC   GL170945  33.771  34.559   6.150
10013POPC   GL270946  33.747  34.700   6.150
10013POPC   C1A70947  33.776  34.607   6.450
10013POPC   D2A70948  33.783  34.571   6.750
10013POPC   C3A70949  33.779  34.579   7.050
10013POPC   C4A70950  33.783  34.624   7.350
10013POPC   C1B70951  33.741  34.771   6.450
10013POPC   C2B70952  33.753  34.783   6.750
10013POPC   C3B70953  33.747  34.816   7.050
10013POPC   C4B70954  33.770  34.823   7.350
10014POPC   NC370955  43.914   8.960   5.550
10014POPC   PO470956  43.870   8.983   5.850
10014POPC   GL170957  43.891   8.932   6.150
10014POPC   GL270958  43.991   9.002   6.150
10014POPC   C1A70959  43.882   8.938   6.450
10014POPC   D2A70960  43.915   8.958   6.750
10014POPC   C3A70961  43.919   9.003   7.050
10014POPC   C4A70962  43.884   8.923   7.350
10014POPC   C1B70963  44.130   9.015   6.450
10014POPC   C2B70964  44.109   8.993   6.750
10014POPC   C3B70965  44.145   9.024   7.050
10014POPC   C4B70966  44.170   9.007   7.350
10015POPC   NC370967  44.681  19.090   5.550
10015POPC   PO470968  44.655  19.083   5.850
10015POPC   GL170969  44.619  19.040   6.150
10015POPC   GL270970  44.604  19.148   6.150
10015POPC   C1A70971  44.679  19.075   6.450
10015POPC   D2A70972  44.654  19.099   6.750
10015POPC   C3A70973  44.684  19.048   7.050
10015POPC   C4A70974  44.665  19.108   7.350
10015POPC   C1B70975  44.509  19.303   6.450
10015POPC   C2B70976  44.564  19.281   6.750
10015POPC   C3B70977  44.498  19.240   7.050
10015POPC   C4B70978  44.473  19.253   7.350
10016POPC   NC370979  28.345  13.589   5.550
10016POPC   PO470980  28.344  13.583   5.850
10016POPC   GL170981  28.327  13.625   6.150
10016POPC   GL270982  28.382  13.461   6.150
10016POPC   C1A70983  28.353  13.677   6.450
10016POPC   D2A70984  28.418  13.641   6.750
10016POPC   C3A70985  28.393  13.653   7.050
10016POPC   C4A70986  28.413  13.616   7.350
10016POPC   C1B70987  28.357  13.406   6.450
10016POPC   C2B70988  28.358  13.335   6.750
10016POPC   C3B70989  28.420  13.406   7.050
10016POPC   C4B70990  28.374  13.352   7.350
10017POPC   NC370991   8.201   1.207   5.550
10017POPC   PO470992   8.178   1.238   5.850
10017POPC   GL170993   8.200   1.226   6.150
10017POPC   GL270994   8.264   1.126   6.150
10017POPC   C1A70995   8.167   1.187   6.450
10017POPC   D2A70996   8.196   1.227   6.750
10017POPC   C3A70997   8.199   1.228   7.050
10017POPC   C4A70998   8.226   1.200   7.350
10017POPC   C1B70999   8.385   1.008   6.450
10017POPC   C2B71000   8.398   1.017   6.750
10017POPC   C3B71001   8.313   1.001   7.050
10017POPC   C4B71002   8.310   1.027   7.350
10018POPC   NC371003  13.620  11.264   5.550
10018POPC   PO471004  13.660  11.274   5.850
10018POPC   GL171005  13.627  11.292   6.150
10018POPC   GL271006  13.573  11.440   6.150
10018POPC   C1A71007  13.633  11.339   6.450
10018POPC   D2A71008  13.630  11.273   6.750
10018POPC   C3A71009  13.625  11.271   7.050
10018POPC   C4A71010  13.650  11.290   7.350
10018POPC   C1B71011  13.469  11.506   6.450
10018POPC   C2B71012  13.430  11.525   6.750
10018POPC   C3B71013  13.445  11.508   7.050
10018POPC   C4B71014  13.462  11.515   7.350
10019POPC   NC371015  24.523  20.593   5.550
10019POPC   PO471016  24.489  20.564   5.850
10019POPC   GL171017  24.527  20.596   6.150
10019POPC   GL271018  24.528  20.499   6.150
10019POPC   C1A71019  24.462  20.574   6.450
10019POPC   D2A71020  24.446  20.597   6.750
10019POPC   C3A71021  24.524  20.653   7.050
10019POPC   C4A71022  24.443  20.622   7.350
10019POPC   C1B71023  24.479  20.373   6.450
10019POPC   C2B71024  24.482  20.400   6.750
10019POPC   C3B71025  24.499  20.377   7.050
10019POPC   C4B71026  24.490  20.318   7.350
10020POPC   NC371027  20.631  17.546   5.550
10020POPC   PO471028  20.562  17.547   5.850
10020POPC   GL171029  20.646  17.489   6.150
10020POPC   GL271030  20.635  17.357   6.150
10020POPC   C1A71031  20.657  17.527   6.450
10020POPC   D2A71032  20.660  17.463   6.750
10020POPC   C3A71033  20.620  17.507   7.050
10020POPC   C4A71034  20.641  17.539   7.350
10020POPC   C1B71035  20.537  17.295   6.450
10020POPC   C2B71036  20.610  17.260   6.750
10020POPC   C3B71037  20.525  17.288   7.050
10020POPC   C4B71038  20.575  17.253   7.350
10021POPC   NC371039  19.095  33.793   5.550
10021POPC   PO471040  19.109  33.792   5.850
10021POPC   GL171041  19.062  33.831   6.150
10021POPC   GL271042  19.154  33.778   6.150
10021POPC   C1A71043  19.105  33.785   6.450
10021POPC   D2A71044  19.024  33.763   6.750
10021POPC   C3A71045  19.020  33.812   7.050
10021POPC   C4A71046  19.104  33.827   7.350
10021POPC   C1B71047  19.340  33.890   6.450
10021POPC   C2B71048  19.326  33.858   6.750
10021POPC   C3B71049  19.287  33.866   7.050
10021POPC   C4B71050  19.326  33.804   7.350
10022POPC   NC371051  26.025  43.075   5.550
10022POPC   PO471052  26.017  43.064   5.850
10022POPC   GL171053  25.999  43.142   6.150
10022POPC   GL271054  25.919  43.063   6.150
10022POPC   C1A71055  26.081  43.114   6.450
10022POPC   D2A71056  26.078  43.113   6.750
10022POPC   C3A71057  26.009  43.147   7.050
10022POPC   C4A71058  26.026  43.139   7.350
10022POPC   C1B71059  25.814  42.979   6.450
10022POPC   C2B71060  25.847  42.984   6.750
10022POPC   C3B71061  25.851  42.954   7.050
10022POPC   C4B71062  25.788  42.962   7.350
10023POPC   NC371063  11.270  34.617   5.550
10023POPC   PO471064  11.320  34.600   5.850
10023POPC   GL171065  11.311  34.545   6.150
10023POPC   GL271066  11.255  34.475   6.150
10023POPC   C1A71067  11.268  34.569   6.450
10023POPC   D2A71068  11.332  34.581   6.750
10023POPC   C3A71069  11.315  34.619   7.050
10023POPC   C4A71070  11.259  34.577   7.350
10023POPC   C1B71071  11.088  34.385   6.450
10023POPC   C2B71072  11.106  34.386   6.750
10023POPC   C3B71073  11.064  34.363   7.050
10023POPC   C4B71074  11.152  34.442   7.350
10024POPC   NC371075  43.154  43.849   5.550
10024POPC   PO471076  43.101  43.916   5.850
10024POPC   GL171077  43.127  43.905   6.150
10024POPC   GL271078  43.277  43.791   6.150
10024POPC   C1A71079  43.150  43.924   6.450
10024POPC   D2A71080  43.116  43.899   6.750
10024POPC   C3A71081  43.145  43.914   7.050
10024POPC   C4A71082  43.104  43.882   7.350
10024POPC   C1B71083  43.308  43.766   6.450
10024POPC   C2B71084  43.355  43.754   6.750
10024POPC   C3B71085  43.380  43.777   7.050
10024POPC   C4B71086  43.365  43.753   7.350
10025POPC   NC371087  13.598  29.901   5.550
10025POPC   PO471088  13.602  29.899   5.850
10025POPC   GL171089  13.583  29.967   6.150
10025POPC   GL271090  13.551  29.838   6.150
10025POPC   C1A71091  13.674  29.888   6.450
10025POPC   D2A71092  13.604  29.904   6.750
10025POPC   C3A71093  13.630  29.922   7.050
10025POPC   C4A71094  13.595  29.872   7.350
10025POPC   C1B71095  13.473  29.786   6.450
10025POPC   C2B71096  13.402  29.813   6.750
10025POPC   C3B71097  13.455  29.783   7.050
10025POPC   C4B71098  13.424  29.805   7.350
10026POPC   NC371099  15.225  31.432   5.550
10026POPC   PO471100  15.140  31.425   5.850
10026POPC   GL171101  15.155  31.516   6.150
10026POPC   GL271102  15.200  31.329   6.150
10026POPC   C1A71103  15.210  31.469   6.450
10026POPC   D2A71104  15.182  31.474   6.750
10026POPC   C3A71105  15.212  31.519   7.050
10026POPC   C4A71106  15.173  31.439   7.350
10026POPC   C1B71107  15.234  31.245   6.450
10026POPC   C2B71108  15.241  31.222   6.750
10026POPC   C3B71109  15.196  31.255   7.050
10026POPC   C4B71110  15.251  31.273   7.350
10027POPC   NC371111  22.184   6.636   5.550
10027POPC   PO471112  22.141   6.645   5.850
10027POPC   GL171113  22.197   6.691   6.150
10027POPC   GL271114  22.324   6.632   6.150
10027POPC   C1A71115  22.157   6.627   6.450
10027POPC   D2A71116  22.190   6.659   6.750
10027POPC   C3A71117  22.183   6.668   7.050
10027POPC   C4A71118  22.143   6.600   7.350
10027POPC   C1B71119  22.358   6.525   6.450
10027POPC   C2B71120  22.372   6.581   6.750
10027POPC   C3B71121  22.402   6.526   7.050
10027POPC   C4B71122  22.434   6.565   7.350
10028POPC   NC371123  35.352  10.477   5.550
10028POPC   PO471124  35.303  10.517   5.850
10028POPC   GL171125  35.354  10.568   6.150
10028POPC   GL271126  35.436  10.596   6.150
10028POPC   C1A71127  35.397  10.523   6.450
10028POPC   D2A71128  35.311  10.566   6.750
10028POPC   C3A71129  35.390  10.475   7.050
10028POPC   C4A71130  35.395  10.489   7.350
10028POPC   C1B71131  35.599  10.581   6.450
10028POPC   C2B71132  35.593  10.565   6.750
10028POPC   C3B71133  35.588  10.600   7.050
10028POPC   C4B71134  35.550  10.557   7.350
10029POPC   NC371135  14.401  22.977   5.550
10029POPC   PO471136  14.424  22.948   5.850
10029POPC   GL171137  14.379  22.905   6.150
10029POPC   GL271138  14.405  22.817   6.150
10029POPC   C1A71139  14.438  22.953   6.450
10029POPC   D2A71140  14.360  22.925   6.750
10029POPC   C3A71141  14.427  22.925   7.050
10029POPC   C4A71142  14.381  22.954   7.350
10029POPC   C1B71143  14.484  22.651   6.450
10029POPC   C2B71144  14.412  22.729   6.750
10029POPC   C3B71145  14.454  22.668   7.050
10029POPC   C4B71146  14.425  22.711   7.350
10030POPC   NC371147  40.741  13.662   5.550
10030POPC   PO471148  40.809  13.608   5.850
10030POPC   GL171149  40.776  13.595   6.150
10030POPC   GL271150  40.878  13.764   6.150
10030POPC   C1A71151  40.828  13.653   6.450
10030POPC   D2A71152  40.800  13.652   6.750
10030POPC   C3A71153  40.743  13.676   7.050
10030POPC   C4A71154  40.748  13.597   7.350
10030POPC   C1B71155  40.869  13.891   6.450
10030POPC   C2B71156  40.919  13.825   6.750
10030POPC   C3B71157  40.932  13.866   7.050
10030POPC   C4B71158  40.927  13.893   7.350
10031POPC   NC371159  14.435  42.305   5.550
10031POPC   PO471160  14.428  42.312   5.850
10031POPC   GL171161  14.370  42.374   6.150
10031POPC   GL271162  14.457  42.432   6.150
10031POPC   C1A71163  14.425  42.325   6.450
10031POPC   D2A71164  14.379  42.375   6.750
10031POPC   C3A71165  14.404  42.366   7.050
10031POPC   C4A71166  14.390  42.338   7.350
10031POPC   C1B71167  14.573  42.522   6.450
10031POPC   C2B71168  14.610  42.475   6.750
10031POPC   C3B71169  14.591  42.526   7.050
10031POPC   C4B71170  14.562  42.537   7.350
10032POPC   NC371171  19.066   4.344   5.550
10032POPC   PO471172  19.024   4.362   5.850
10032POPC   GL171173  19.018   4.286   6.150
10032POPC   GL271174  19.070   4.438   6.150
10032POPC   C1A71175  19.070   4.355   6.450
10032POPC   D2A71176  19.035   4.296   6.750
10032POPC   C3A71177  19.081   4.326   7.050
10032POPC   C4A71178  19.068   4.301   7.350
10032POPC   C1B71179  19.085   4.539   6.450
10032POPC   C2B71180  19.128   4.545   6.750
10032POPC   C3B71181  19.069   4.518   7.050
10032POPC   C4B71182  19.092   4.526   7.350
10033POPC   NC371183  32.274  43.091   5.550
10033POPC   PO471184  32.245  43.154   5.850
10033POPC   GL171185  32.199  43.146   6.150
10033POPC   GL271186  32.273  43.233   6.150
10033POPC   C1A71187  32.225  43.128   6.450
10033POPC   D2A71188  32.204  43.123   6.750
10033POPC   C3A71189  32.220  43.098   7.050
10033POPC   C4A71190  32.215  43.128   7.350
10033POPC   C1B71191  32.311  43.328   6.450
10033POPC   C2B71192  32.395  43.367   6.750
10033POPC   C3B71193  32.372  43.355   7.050
10033POPC   C4B71194  32.355  43.377   7.350
10034POPC   NC371195  20.582   9.789   5.550
10034POPC   PO471196  20.627   9.792   5.850
10034POPC   GL171197  20.626   9.708   6.150
10034POPC   GL271198  20.730   9.737   6.150
10034POPC   C1A71199  20.586   9.760   6.450
10034POPC   D2A71200  20.562   9.726   6.750
10034POPC   C3A71201  20.618   9.774   7.050
10034POPC   C4A71202  20.569   9.777   7.350
10034POPC   C1B71203  20.839   9.719   6.450
10034POPC   C2B71204  20.820   9.681   6.750
10034POPC   C3B71205  20.875   9.715   7.050
10034POPC   C4B71206  20.846   9.697   7.350
10035POPC   NC371207  19.884  19.031   5.550
10035POPC   PO471208  19.858  19.107   5.850
10035POPC   GL171209  19.831  19.080   6.150
10035POPC   GL271210  19.715  18.967   6.150
10035POPC   C1A71211  19.805  19.073   6.450
10035POPC   D2A71212  19.806  19.061   6.750
10035POPC   C3A71213  19.796  19.060   7.050
10035POPC   C4A71214  19.860  19.099   7.350
10035POPC   C1B71215  19.644  18.889   6.450
10035POPC   C2B71216  19.698  18.853   6.750
10035POPC   C3B71217  19.620  18.922   7.050
10035POPC   C4B71218  19.635  18.834   7.350
10036POPC   NC371219  32.283   8.953   5.550
10036POPC   PO471220  32.269   9.007   5.850
10036POPC   GL171221  32.256   8.978   6.150
10036POPC   GL271222  32.296   9.073   6.150
10036POPC   C1A71223  32.211   8.944   6.450
10036POPC   D2A71224  32.221   8.999   6.750
10036POPC   C3A71225  32.200   8.969   7.050
10036POPC   C4A71226  32.221   9.022   7.350
10036POPC   C1B71227  32.301   9.241   6.450
10036POPC   C2B71228  32.304   9.176   6.750
10036POPC   C3B71229  32.339   9.175   7.050
10036POPC   C4B71230  32.293   9.240   7.350
10037POPC   NC371231  19.020  22.916   5.550
10037POPC   PO471232  19.092  22.971   5.850
10037POPC   GL171233  19.011  22.946   6.150
10037POPC   GL271234  18.981  22.956   6.150
10037POPC   C1A71235  19.027  22.984   6.450
10037POPC   D2A71236  19.040  22.960   6.750
10037POPC   C3A71237  19.015  22.982   7.050
10037POPC   C4A71238  19.077  22.929   7.350
10037POPC   C1B71239  18.813  23.033   6.450
10037POPC   C2B71240  18.808  23.045   6.750
10037POPC   C3B71241  18.849  23.006   7.050
10037POPC   C4B71242  18.786  22.960   7.350
10038POPC   NC371243  36.870   6.682   5.550
10038POPC   PO471244  36.947   6.665   5.850
10038POPC   GL171245  36.916   6.685   6.150
10038POPC   GL271246  36.931   6.746   6.150
10038POPC   C1A71247  36.857   6.687   6.450
10038POPC   D2A71248  36.907   6.617   6.750
10038POPC   C3A71249  36.920   6.627   7.050
10038POPC   C4A71250  36.917   6.596   7.350
10038POPC   C1B71251  36.912   6.907   6.450
10038POPC   C2B71252  36.872   6.940   6.750
10038POPC   C3B71253  36.874   6.853   7.050
10038POPC   C4B71254  36.912   6.917   7.350
10039POPC   NC371255  30.746  14.440   5.550
10039POPC   PO471256  30.703  14.355   5.850
10039POPC   GL171257  30.697  14.367   6.150
10039POPC   GL271258  30.638  14.349   6.150
10039POPC   C1A71259  30.649  14.364   6.450
10039POPC   D2A71260  30.667  14.377   6.750
10039POPC   C3A71261  30.709  14.408   7.050
10039POPC   C4A71262  30.725  14.378   7.350
10039POPC   C1B71263  30.594  14.167   6.450
10039POPC   C2B71264  30.543  14.235   6.750
10039POPC   C3B71265  30.548  14.236   7.050
10039POPC   C4B71266  30.531  14.243   7.350
10040POPC   NC371267   0.412  31.497   5.550
10040POPC   PO471268   0.433  31.440   5.850
10040POPC   GL171269   0.448  31.437   6.150
10040POPC   GL271270   0.550  31.559   6.150
10040POPC   C1A71271   0.403  31.475   6.450
10040POPC   D2A71272   0.478  31.460   6.750
10040POPC   C3A71273   0.480  31.450   7.050
10040POPC   C4A71274   0.409  31.493   7.350
10040POPC   C1B71275   0.596  31.623   6.450
10040POPC   C2B71276   0.671  31.639   6.750
10040POPC   C3B71277   0.593  31.625   7.050
10040POPC   C4B71278   0.674  31.624   7.350
10041POPC   NC371279   0.480  24.458   5.550
10041POPC   PO471280   0.464  24.467   5.850
10041POPC   GL171281   0.471  24.490   6.150
10041POPC   GL271282   0.310  24.466   6.150
10041POPC   C1A71283   0.481  24.447   6.450
10041POPC   D2A71284   0.438  24.489   6.750
10041POPC   C3A71285   0.419  24.522   7.050
10041POPC   C4A71286   0.486  24.473   7.350
10041POPC   C1B71287   0.239  24.399   6.450
10041POPC   C2B71288   0.272  24.386   6.750
10041POPC   C3B71289   0.212  24.410   7.050
10041POPC   C4B71290   0.173  24.334   7.350
10042POPC   NC371291  43.908  33.039   5.550
10042POPC   PO471292  43.855  33.062   5.850
10042POPC   GL171293  43.917  33.047   6.150
10042POPC   GL271294  43.860  32.902   6.150
10042POPC   C1A71295  43.859  33.051   6.450
10042POPC   D2A71296  43.860  32.977   6.750
10042POPC   C3A71297  43.931  33.036   7.050
10042POPC   C4A71298  43.861  33.036   7.350
10042POPC   C1B71299  43.830  32.789   6.450
10042POPC   C2B71300  43.802  32.795   6.750
10042POPC   C3B71301  43.787  32.747   7.050
10042POPC   C4B71302  43.803  32.808   7.350
10043POPC   NC371303  10.494  17.482   5.550
10043POPC   PO471304  10.553  17.525   5.850
10043POPC   GL171305  10.477  17.460   6.150
10043POPC   GL271306  10.502  17.620   6.150
10043POPC   C1A71307  10.522  17.532   6.450
10043POPC   D2A71308  10.512  17.531   6.750
10043POPC   C3A71309  10.482  17.544   7.050
10043POPC   C4A71310  10.488  17.497   7.350
10043POPC   C1B71311  10.415  17.766   6.450
10043POPC   C2B71312  10.401  17.751   6.750
10043POPC   C3B71313  10.429  17.718   7.050
10043POPC   C4B71314  10.477  17.713   7.350
10044POPC   NC371315  28.381  11.251   5.550
10044POPC   PO471316  28.369  11.340   5.850
10044POPC   GL171317  28.341  11.300   6.150
10044POPC   GL271318  28.430  11.193   6.150
10044POPC   C1A71319  28.403  11.300   6.450
10044POPC   D2A71320  28.405  11.313   6.750
10044POPC   C3A71321  28.375  11.276   7.050
10044POPC   C4A71322  28.383  11.283   7.350
10044POPC   C1B71323  28.531  11.096   6.450
10044POPC   C2B71324  28.468  11.132   6.750
10044POPC   C3B71325  28.491  11.101   7.050
10044POPC   C4B71326  28.500  11.129   7.350
10045POPC   NC371327  13.667  35.325   5.550
10045POPC   PO471328  13.609  35.332   5.850
10045POPC   GL171329  13.643  35.302   6.150
10045POPC   GL271330  13.703  35.380   6.150
10045POPC   C1A71331  13.600  35.304   6.450
10045POPC   D2A71332  13.673  35.361   6.750
10045POPC   C3A71333  13.665  35.373   7.050
10045POPC   C4A71334  13.622  35.325   7.350
10045POPC   C1B71335  13.915  35.263   6.450
10045POPC   C2B71336  13.865  35.354   6.750
10045POPC   C3B71337  13.848  35.342   7.050
10045POPC   C4B71338  13.824  35.299   7.350
10046POPC   NC371339  26.847  25.240   5.550
10046POPC   PO471340  26.770  25.305   5.850
10046POPC   GL171341  26.863  25.252   6.150
10046POPC   GL271342  26.899  25.333   6.150
10046POPC   C1A71343  26.861  25.312   6.450
10046POPC   D2A71344  26.858  25.274   6.750
10046POPC   C3A71345  26.839  25.306   7.050
10046POPC   C4A71346  26.779  25.216   7.350
10046POPC   C1B71347  26.971  25.389   6.450
10046POPC   C2B71348  27.031  25.372   6.750
10046POPC   C3B71349  26.993  25.417   7.050
10046POPC   C4B71350  27.010  25.426   7.350
10047POPC   NC371351  16.756  27.624   5.550
10047POPC   PO471352  16.742  27.575   5.850
10047POPC   GL171353  16.769  27.577   6.150
10047POPC   GL271354  16.653  27.663   6.150
10047POPC   C1A71355  16.696  27.589   6.450
10047POPC   D2A71356  16.773  27.569   6.750
10047POPC   C3A71357  16.761  27.544   7.050
10047POPC   C4A71358  16.774  27.604   7.350
10047POPC   C1B71359  16.461  27.656   6.450
10047POPC   C2B71360  16.532  27.667   6.750
10047POPC   C3B71361  16.535  27.686   7.050
10047POPC   C4B71362  16.513  27.710   7.350
10048POPC   NC371363   7.380   7.405   5.550
10048POPC   PO471364   7.404   7.400   5.850
10048POPC   GL171365   7.386   7.405   6.150
10048POPC   GL271366   7.486   7.331   6.150
10048POPC   C1A71367   7.444   7.410   6.450
10048POPC   D2A71368   7.393   7.465   6.750
10048POPC   C3A71369   7.428   7.443   7.050
10048POPC   C4A71370   7.449   7.431   7.350
10048POPC   C1B71371   7.686   7.295   6.450
10048POPC   C2B71372   7.691   7.253   6.750
10048POPC   C3B71373   7.606   7.294   7.050
10048POPC   C4B71374   7.680   7.269   7.350
10049POPC   NC371375  28.395  32.981   5.550
10049POPC   PO471376  28.348  33.023   5.850
10049POPC   GL171377  28.395  33.046   6.150
10049POPC   GL271378  28.232  33.123   6.150
10049POPC   C1A71379  28.403  33.069   6.450
10049POPC   D2A71380  28.324  32.999   6.750
10049POPC   C3A71381  28.326  33.047   7.050
10049POPC   C4A71382  28.348  33.013   7.350
10049POPC   C1B71383  28.141  33.117   6.450
10049POPC   C2B71384  28.126  33.184   6.750
10049POPC   C3B71385  28.178  33.176   7.050
10049POPC   C4B71386  28.141  33.113   7.350
10050POPC   NC371387  13.589  17.541   5.550
10050POPC   PO471388  13.656  17.519   5.850
10050POPC   GL171389  13.672  17.461   6.150
10050POPC   GL271390  13.557  17.544   6.150
10050POPC   C1A71391  13.578  17.549   6.450
10050POPC   D2A71392  13.598  17.494   6.750
10050POPC   C3A71393  13.581  17.497   7.050
10050POPC   C4A71394  13.669  17.464   7.350
10050POPC   C1B71395  13.404  17.605   6.450
10050POPC   C2B71396  13.452  17.631   6.750
10050POPC   C3B71397  13.445  17.635   7.050
10050POPC   C4B71398  13.410  17.688   7.350
10051POPC   NC371399  30.685  36.176   5.550
10051POPC   PO471400  30.662  36.124   5.850
10051POPC   GL171401  30.709  36.154   6.150
10051POPC   GL271402  30.558  36.219   6.150
10051POPC   C1A71403  30.710  36.134   6.450
10051POPC   D2A71404  30.735  36.084   6.750
10051POPC   C3A71405  30.648  36.149   7.050
10051POPC   C4A71406  30.743  36.093   7.350
10051POPC   C1B71407  30.531  36.330   6.450
10051POPC   C2B71408  30.545  36.297   6.750
10051POPC   C3B71409  30.524  36.275   7.050
10051POPC   C4B71410  30.466  36.257   7.350
10052POPC   NC371411  25.288   5.076   5.550
10052POPC   PO471412  25.233   5.093   5.850
10052POPC   GL171413  25.314   5.134   6.150
10052POPC   GL271414  25.253   5.181   6.150
10052POPC   C1A71415  25.233   5.088   6.450
10052POPC   D2A71416  25.237   5.072   6.750
10052POPC   C3A71417  25.267   5.096   7.050
10052POPC   C4A71418  25.249   5.060   7.350
10052POPC   C1B71419  25.271   5.345   6.450
10052POPC   C2B71420  25.230   5.367   6.750
10052POPC   C3B71421  25.265   5.364   7.050
10052POPC   C4B71422  25.323   5.391   7.350
10053POPC   NC371423   8.930  39.209   5.550
10053POPC   PO471424   8.949  39.204   5.850
10053POPC   GL171425   8.993  39.236   6.150
10053POPC   GL271426   8.993  39.291   6.150
10053POPC   C1A71427   8.923  39.194   6.450
10053POPC   D2A71428   8.943  39.189   6.750
10053POPC   C3A71429   8.946  39.241   7.050
10053POPC   C4A71430   8.941  39.212   7.350
10053POPC   C1B71431   9.092  39.440   6.450
10053POPC   C2B71432   9.086  39.402   6.750
10053POPC   C3B71433   9.077  39.461   7.050
10053POPC   C4B71434   9.123  39.400   7.350
10054POPC   NC371435  24.455   4.365   5.550
10054POPC   PO471436  24.498   4.323   5.850
10054POPC   GL171437  24.465   4.284   6.150
10054POPC   GL271438  24.374   4.467   6.150
10054POPC   C1A71439  24.533   4.366   6.450
10054POPC   D2A71440  24.523   4.268   6.750
10054POPC   C3A71441  24.512   4.314   7.050
10054POPC   C4A71442  24.446   4.308   7.350
10054POPC   C1B71443  24.386   4.483   6.450
10054POPC   C2B71444  24.342   4.568   6.750
10054POPC   C3B71445  24.347   4.533   7.050
10054POPC   C4B71446  24.309   4.519   7.350
10055POPC   NC371447   7.406   0.391   5.550
10055POPC   PO471448   7.381   0.436   5.850
10055POPC   GL171449   7.414   0.433   6.150
10055POPC   GL271450   7.344   0.406   6.150
10055POPC   C1A71451   7.427   0.468   6.450
10055POPC   D2A71452   7.400   0.416   6.750
10055POPC   C3A71453   7.463   0.458   7.050
10055POPC   C4A71454   7.470   0.455   7.350
10055POPC   C1B71455   7.174   0.446   6.450
10055POPC   C2B71456   7.153   0.416   6.750
10055POPC   C3B71457   7.162   0.439   7.050
10055POPC   C4B71458   7.171   0.381   7.350
10056POPC   NC371459   2.761  12.082   5.550
10056POPC   PO471460   2.737  12.098   5.850
10056POPC   GL171461   2.771  12.105   6.150
10056POPC   GL271462   2.842  12.094   6.150
10056POPC   C1A71463   2.767  12.043   6.450
10056POPC   D2A71464   2.810  12.077   6.750
10056POPC   C3A71465   2.717  12.123   7.050
10056POPC   C4A71466   2.812  12.047   7.350
10056POPC   C1B71467   2.980  12.101   6.450
10056POPC   C2B71468   3.048  12.148   6.750
10056POPC   C3B71469   2.964  12.059   7.050
10056POPC   C4B71470   2.990  12.077   7.350
10057POPC   NC371471  18.296   6.612   5.550
10057POPC   PO471472  18.237   6.669   5.850
10057POPC   GL171473  18.279   6.625   6.150
10057POPC   GL271474  18.142   6.682   6.150
10057POPC   C1A71475  18.257   6.682   6.450
10057POPC   D2A71476  18.302   6.668   6.750
10057POPC   C3A71477  18.239   6.645   7.050
10057POPC   C4A71478  18.289   6.657   7.350
10057POPC   C1B71479  18.025   6.736   6.450
10057POPC   C2B71480  18.065   6.707   6.750
10057POPC   C3B71481  18.095   6.717   7.050
10057POPC   C4B71482  18.033   6.787   7.350
10058POPC   NC371483  12.032  14.382   5.550
10058POPC   PO471484  12.042  14.394   5.850
10058POPC   GL171485  12.078  14.363   6.150
10058POPC   GL271486  12.052  14.287   6.150
10058POPC   C1A71487  12.066  14.447   6.450
10058POPC   D2A71488  12.048  14.364   6.750
10058POPC   C3A71489  12.076  14.370   7.050
10058POPC   C4A71490  12.109  14.442   7.350
10058POPC   C1B71491  12.007  14.109   6.450
10058POPC   C2B71492  12.095  14.185   6.750
10058POPC   C3B71493  12.048  14.178   7.050
10058POPC   C4B71494  12.087  14.113   7.350
10059POPC   NC371495   8.228  25.238   5.550
10059POPC   PO471496   8.183  25.279   5.850
10059POPC   GL171497   8.206  25.252   6.150
10059POPC   GL271498   8.183  25.410   6.150
10059POPC   C1A71499   8.159  25.231   6.450
10059POPC   D2A71500   8.177  25.286   6.750
10059POPC   C3A71501   8.210  25.313   7.050
10059POPC   C4A71502   8.208  25.231   7.350
10059POPC   C1B71503   8.051  25.503   6.450
10059POPC   C2B71504   8.052  25.463   6.750
10059POPC   C3B71505   8.135  25.465   7.050
10059POPC   C4B71506   8.054  25.529   7.350
10060POPC   NC371507   9.763  44.688   5.550
10060POPC   PO471508   9.781  44.703   5.850
10060POPC   GL171509   9.739  44.641   6.150
10060POPC   GL271510   9.823  44.502   6.150
10060POPC   C1A71511   9.797  44.684   6.450
10060POPC   D2A71512   9.747  44.646   6.750
10060POPC   C3A71513   9.756  44.651   7.050
10060POPC   C4A71514   9.757  44.661   7.350
10060POPC   C1B71515   9.835  44.413   6.450
10060POPC   C2B71516   9.871  44.465   6.750
10060POPC   C3B71517   9.834  44.463   7.050
10060POPC   C4B71518   9.843  44.468   7.350
10061POPC   NC371519  12.836  35.400   5.550
10061POPC   PO471520  12.807  35.393   5.850
10061POPC   GL171521  12.810  35.307   6.150
10061POPC   GL271522  12.955  35.462   6.150
10061POPC   C1A71523  12.831  35.330   6.450
10061POPC   D2A71524  12.885  35.317   6.750
10061POPC   C3A71525  12.806  35.335   7.050
10061POPC   C4A71526  12.821  35.326   7.350
10061POPC   C1B71527  13.073  35.435   6.450
10061POPC   C2B71528  13.030  35.456   6.750
10061POPC   C3B71529  13.033  35.466   7.050
10061POPC   C4B71530  13.095  35.492   7.350
10062POPC   NC371531  19.033  26.798   5.550
10062POPC   PO471532  19.098  26.820   5.850
10062POPC   GL171533  19.107  26.783   6.150
10062POPC   GL271534  19.118  26.939   6.150
10062POPC   C1A71535  19.053  26.788   6.450
10062POPC   D2A71536  19.077  26.832   6.750
10062POPC   C3A71537  19.102  26.802   7.050
10062POPC   C4A71538  19.064  26.825   7.350
10062POPC   C1B71539  19.171  27.070   6.450
10062POPC   C2B71540  19.081  27.052   6.750
10062POPC   C3B71541  19.085  27.097   7.050
10062POPC   C4B71542  19.119  27.098   7.350
10063POPC   NC371543  31.483  12.117   5.550
10063POPC   PO471544  31.431  12.066   5.850
10063POPC   GL171545  31.450  12.050   6.150
10063POPC   GL271546  31.489  11.931   6.150
10063POPC   C1A71547  31.439  12.073   6.450
10063POPC   D2A71548  31.516  12.069   6.750
10063POPC   C3A71549  31.456  12.066   7.050
10063POPC   C4A71550  31.435  12.100   7.350
10063POPC   C1B71551  31.445  11.871   6.450
10063POPC   C2B71552  31.465  11.812   6.750
10063POPC   C3B71553  31.460  11.838   7.050
10063POPC   C4B71554  31.490  11.836   7.350
10064POPC   NC371555  13.615  15.218   5.550
10064POPC   PO471556  13.588  15.152   5.850
10064POPC   GL171557  13.676  15.225   6.150
10064POPC   GL271558  13.565  15.108   6.150
10064POPC   C1A71559  13.654  15.132   6.450
10064POPC   D2A71560  13.659  15.204   6.750
10064POPC   C3A71561  13.581  15.228   7.050
10064POPC   C4A71562  13.596  15.209   7.350
10064POPC   C1B71563  13.557  14.950   6.450
10064POPC   C2B71564  13.522  14.931   6.750
10064POPC   C3B71565  13.532  14.979   7.050
10064POPC   C4B71566  13.568  14.934   7.350
10065POPC   NC371567  41.589  12.102   5.550
10065POPC   PO471568  41.561  12.034   5.850
10065POPC   GL171569  41.550  12.115   6.150
10065POPC   GL271570  41.569  12.215   6.150
10065POPC   C1A71571  41.524  12.088   6.450
10065POPC   D2A71572  41.606  12.054   6.750
10065POPC   C3A71573  41.543  12.123   7.050
10065POPC   C4A71574  41.599  12.061   7.350
10065POPC   C1B71575  41.547  12.345   6.450
10065POPC   C2B71576  41.594  12.298   6.750
10065POPC   C3B71577  41.566  12.342   7.050
10065POPC   C4B71578  41.570  12.344   7.350
10066POPC   NC371579  28.387  14.393   5.550
10066POPC   PO471580  28.366  14.403   5.850
10066POPC   GL171581  28.368  14.406   6.150
10066POPC   GL271582  28.354  14.234   6.150
10066POPC   C1A71583  28.344  14.400   6.450
10066POPC   D2A71584  28.383  14.364   6.750
10066POPC   C3A71585  28.391  14.418   7.050
10066POPC   C4A71586  28.333  14.419   7.350
10066POPC   C1B71587  28.317  14.192   6.450
10066POPC   C2B71588  28.324  14.129   6.750
10066POPC   C3B71589  28.297  14.178   7.050
10066POPC   C4B71590  28.251  14.193   7.350
10067POPC   NC371591   0.390  38.422   5.550
10067POPC   PO471592   0.478  38.500   5.850
10067POPC   GL171593   0.474  38.465   6.150
10067POPC   GL271594   0.566  38.582   6.150
10067POPC   C1A71595   0.394  38.498   6.450
10067POPC   D2A71596   0.487  38.492   6.750
10067POPC   C3A71597   0.478  38.410   7.050
10067POPC   C4A71598   0.415  38.495   7.350
10067POPC   C1B71599   0.630  38.643   6.450
10067POPC   C2B71600   0.620  38.664   6.750
10067POPC   C3B71601   0.676  38.624   7.050
10067POPC   C4B71602   0.656  38.658   7.350
10068POPC   NC371603  30.730  42.366   5.550
10068POPC   PO471604  30.718  42.315   5.850
10068POPC   GL171605  30.677  42.313   6.150
10068POPC   GL271606  30.793  42.371   6.150
10068POPC   C1A71607  30.746  42.310   6.450
10068POPC   D2A71608  30.665  42.306   6.750
10068POPC   C3A71609  30.681  42.320   7.050
10068POPC   C4A71610  30.746  42.311   7.350
10068POPC   C1B71611  30.938  42.333   6.450
10068POPC   C2B71612  30.962  42.397   6.750
10068POPC   C3B71613  30.910  42.411   7.050
10068POPC   C4B71614  30.946  42.342   7.350
10069POPC   NC371615  33.799  22.952   5.550
10069POPC   PO471616  33.787  22.975   5.850
10069POPC   GL171617  33.810  22.897   6.150
10069POPC   GL271618  33.875  23.006   6.150
10069POPC   C1A71619  33.823  22.957   6.450
10069POPC   D2A71620  33.798  22.923   6.750
10069POPC   C3A71621  33.819  22.904   7.050
10069POPC   C4A71622  33.820  22.920   7.350
10069POPC   C1B71623  33.857  23.218   6.450
10069POPC   C2B71624  33.863  23.148   6.750
10069POPC   C3B71625  33.911  23.206   7.050
10069POPC   C4B71626  33.882  23.165   7.350
10070POPC   NC371627  36.176  44.621   5.550
10070POPC   PO471628  36.115  44.676   5.850
10070POPC   GL171629  36.100  44.674   6.150
10070POPC   GL271630  36.251  44.636   6.150
10070POPC   C1A71631  36.152  44.635   6.450
10070POPC   D2A71632  36.153  44.648   6.750
10070POPC   C3A71633  36.130  44.642   7.050
10070POPC   C4A71634  36.132  44.617   7.350
10070POPC   C1B71635  36.388  44.534   6.450
10070POPC   C2B71636  36.312  44.577   6.750
10070POPC   C3B71637  36.372  44.532   7.050
10070POPC   C4B71638  36.332  44.525   7.350
10071POPC   NC371639  11.302  22.916   5.550
10071POPC   PO471640  11.311  22.897   5.850
10071POPC   GL171641  11.343  22.972   6.150
10071POPC   GL271642  11.265  23.072   6.150
10071POPC   C1A71643  11.268  22.938   6.450
10071POPC   D2A71644  11.267  22.960   6.750
10071POPC   C3A71645  11.251  22.892   7.050
10071POPC   C4A71646  11.276  22.900   7.350
10071POPC   C1B71647  11.245  23.142   6.450
10071POPC   C2B71648  11.318  23.195   6.750
10071POPC   C3B71649  11.237  23.221   7.050
10071POPC   C4B71650  11.244  23.149   7.350
10072POPC   NC371651   0.484  21.396   5.550
10072POPC   PO471652   0.453  21.389   5.850
10072POPC   GL171653   0.423  21.347   6.150
10072POPC   GL271654   0.607  21.392   6.150
10072POPC   C1A71655   0.477  21.343   6.450
10072POPC   D2A71656   0.448  21.411   6.750
10072POPC   C3A71657   0.470  21.413   7.050
10072POPC   C4A71658   0.481  21.378   7.350
10072POPC   C1B71659   0.702  21.343   6.450
10072POPC   C2B71660   0.647  21.386   6.750
10072POPC   C3B71661   0.643  21.404   7.050
10072POPC   C4B71662   0.697  21.437   7.350
10073POPC   NC371663  15.207  22.159   5.550
10073POPC   PO471664  15.229  22.127   5.850
10073POPC   GL171665  15.195  22.189   6.150
10073POPC   GL271666  15.125  22.001   6.150
10073POPC   C1A71667  15.160  22.156   6.450
10073POPC   D2A71668  15.151  22.165   6.750
10073POPC   C3A71669  15.180  22.140   7.050
10073POPC   C4A71670  15.190  22.120   7.350
10073POPC   C1B71671  15.099  21.917   6.450
10073POPC   C2B71672  15.119  21.920   6.750
10073POPC   C3B71673  15.070  21.894   7.050
10073POPC   C4B71674  15.142  21.925   7.350
10074POPC   NC371675  15.141  19.852   5.550
10074POPC   PO471676  15.206  19.879   5.850
10074POPC   GL171677  15.179  19.884   6.150
10074POPC   GL271678  15.289  19.707   6.150
10074POPC   C1A71679  15.227  19.865   6.450
10074POPC   D2A71680  15.174  19.794   6.750
10074POPC   C3A71681  15.156  19.795   7.050
10074POPC   C4A71682  15.228  19.834   7.350
10074POPC   C1B71683  15.316  19.651   6.450
10074POPC   C2B71684  15.345  19.610   6.750
10074POPC   C3B71685  15.309  19.597   7.050
10074POPC   C4B71686  15.265  19.605   7.350
10075POPC   NC371687  22.944  42.339   5.550
10075POPC   PO471688  22.893  42.305   5.850
10075POPC   GL171689  22.936  42.364   6.150
10075POPC   GL271690  23.022  42.293   6.150
10075POPC   C1A71691  22.908  42.338   6.450
10075POPC   D2A71692  22.984  42.311   6.750
10075POPC   C3A71693  22.898  42.285   7.050
10075POPC   C4A71694  22.923  42.342   7.350
10075POPC   C1B71695  23.134  42.195   6.450
10075POPC   C2B71696  23.147  42.211   6.750
10075POPC   C3B71697  23.103  42.119   7.050
10075POPC   C4B71698  23.131  42.197   7.350
10076POPC   NC371699  37.708  15.976   5.550
10076POPC   PO471700  37.678  15.968   5.850
10076POPC   GL171701  37.657  15.919   6.150
10076POPC   GL271702  37.541  15.833   6.150
10076POPC   C1A71703  37.722  15.920   6.450
10076POPC   D2A71704  37.682  15.918   6.750
10076POPC   C3A71705  37.686  15.925   7.050
10076POPC   C4A71706  37.716  15.951   7.350
10076POPC   C1B71707  37.467  15.766   6.450
10076POPC   C2B71708  37.456  15.845   6.750
10076POPC   C3B71709  37.443  15.828   7.050
10076POPC   C4B71710  37.449  15.794   7.350
10077POPC   NC371711  22.174  24.511   5.550
10077POPC   PO471712  22.133  24.442   5.850
10077POPC   GL171713  22.166  24.506   6.150
10077POPC   GL271714  22.167  24.351   6.150
10077POPC   C1A71715  22.148  24.505   6.450
10077POPC   D2A71716  22.126  24.465   6.750
10077POPC   C3A71717  22.186  24.442   7.050
10077POPC   C4A71718  22.185  24.492   7.350
10077POPC   C1B71719  22.211  24.233   6.450
10077POPC   C2B71720  22.139  24.270   6.750
10077POPC   C3B71721  22.148  24.215   7.050
10077POPC   C4B71722  22.145  24.217   7.350
10078POPC   NC371723  39.255  18.278   5.550
10078POPC   PO471724  39.255  18.246   5.850
10078POPC   GL171725  39.251  18.239   6.150
10078POPC   GL271726  39.128  18.302   6.150
10078POPC   C1A71727  39.196  18.253   6.450
10078POPC   D2A71728  39.228  18.329   6.750
10078POPC   C3A71729  39.250  18.316   7.050
10078POPC   C4A71730  39.232  18.300   7.350
10078POPC   C1B71731  38.969  18.355   6.450
10078POPC   C2B71732  38.954  18.322   6.750
10078POPC   C3B71733  38.934  18.339   7.050
10078POPC   C4B71734  38.971  18.318   7.350
10079POPC   NC371735  23.710  42.376   5.550
10079POPC   PO471736  23.762  42.365   5.850
10079POPC   GL171737  23.711  42.323   6.150
10079POPC   GL271738  23.671  42.261   6.150
10079POPC   C1A71739  23.701  42.332   6.450
10079POPC   D2A71740  23.733  42.308   6.750
10079POPC   C3A71741  23.670  42.320   7.050
10079POPC   C4A71742  23.687  42.360   7.350
10079POPC   C1B71743  23.508  42.170   6.450
10079POPC   C2B71744  23.502  42.125   6.750
10079POPC   C3B71745  23.555  42.183   7.050
10079POPC   C4B71746  23.591  42.124   7.350
10080POPC   NC371747  38.435   0.479   5.550
10080POPC   PO471748  38.413   0.426   5.850
10080POPC   GL171749  38.405   0.414   6.150
10080POPC   GL271750  38.528   0.320   6.150
10080POPC   C1A71751  38.464   0.471   6.450
10080POPC   D2A71752  38.437   0.462   6.750
10080POPC   C3A71753  38.424   0.479   7.050
10080POPC   C4A71754  38.479   0.464   7.350
10080POPC   C1B71755  38.636   0.198   6.450
10080POPC   C2B71756  38.614   0.215   6.750
10080POPC   C3B71757  38.576   0.216   7.050
10080POPC   C4B71758  38.565   0.217   7.350
10081POPC   NC371759   1.174  23.737   5.550
10081POPC   PO471760   1.185  23.703   5.850
10081POPC   GL171761   1.189  23.731   6.150
10081POPC   GL271762   1.326  23.695   6.150
10081POPC   C1A71763   1.228  23.701   6.450
10081POPC   D2A71764   1.169  23.704   6.750
10081POPC   C3A71765   1.215  23.679   7.050
10081POPC   C4A71766   1.215  23.719   7.350
10081POPC   C1B71767   1.419  23.553   6.450
10081POPC   C2B71768   1.381  23.627   6.750
10081POPC   C3B71769   1.469  23.561   7.050
10081POPC   C4B71770   1.448  23.605   7.350
10082POPC   NC371771  22.156   3.525   5.550
10082POPC   PO471772  22.166   3.580   5.850
10082POPC   GL171773  22.204   3.546   6.150
10082POPC   GL271774  22.144   3.394   6.150
10082POPC   C1A71775  22.209   3.562   6.450
10082POPC   D2A71776  22.116   3.511   6.750
10082POPC   C3A71777  22.209   3.517   7.050
10082POPC   C4A71778  22.149   3.590   7.350
10082POPC   C1B71779  22.096   3.362   6.450
10082POPC   C2B71780  22.060   3.277   6.750
10082POPC   C3B71781  22.028   3.317   7.050
10082POPC   C4B71782  22.035   3.284   7.350
10083POPC   NC371783  32.268  17.498   5.550
10083POPC   PO471784  32.236  17.472   5.850
10083POPC   GL171785  32.224  17.538   6.150
10083POPC   GL271786  32.302  17.402   6.150
10083POPC   C1A71787  32.258  17.517   6.450
10083POPC   D2A71788  32.282  17.500   6.750
10083POPC   C3A71789  32.295  17.491   7.050
10083POPC   C4A71790  32.280  17.520   7.350
10083POPC   C1B71791  32.427  17.370   6.450
10083POPC   C2B71792  32.470  17.382   6.750
10083POPC   C3B71793  32.387  17.381   7.050
10083POPC   C4B71794  32.404  17.309   7.350
10084POPC   NC371795   8.195  24.495   5.550
10084POPC   PO471796   8.244  24.509   5.850
10084POPC   GL171797   8.216  24.499   6.150
10084POPC   GL271798   8.317  24.509   6.150
10084POPC   C1A71799   8.224  24.474   6.450
10084POPC   D2A71800   8.211  24.488   6.750
10084POPC   C3A71801   8.196  24.499   7.050
10084POPC   C4A71802   8.185  24.453   7.350
10084POPC   C1B71803   8.459  24.496   6.450
10084POPC   C2B71804   8.493  24.535   6.750
10084POPC   C3B71805   8.467  24.501   7.050
10084POPC   C4B71806   8.420  24.532   7.350
10085POPC   NC371807  16.741  23.723   5.550
10085POPC   PO471808  16.739  23.760   5.850
10085POPC   GL171809  16.766  23.675   6.150
10085POPC   GL271810  16.728  23.607   6.150
10085POPC   C1A71811  16.718  23.687   6.450
10085POPC   D2A71812  16.699  23.719   6.750
10085POPC   C3A71813  16.721  23.753   7.050
10085POPC   C4A71814  16.710  23.697   7.350
10085POPC   C1B71815  16.709  23.486   6.450
10085POPC   C2B71816  16.763  23.424   6.750
10085POPC   C3B71817  16.756  23.421   7.050
10085POPC   C4B71818  16.720  23.494   7.350
10086POPC   NC371819   7.448  35.386   5.550
10086POPC   PO471820   7.374  35.306   5.850
10086POPC   GL171821   7.462  35.394   6.150
10086POPC   GL271822   7.543  35.411   6.150
10086POPC   C1A71823   7.405  35.370   6.450
10086POPC   D2A71824   7.413  35.356   6.750
10086POPC   C3A71825   7.395  35.347   7.050
10086POPC   C4A71826   7.468  35.368   7.350
10086POPC   C1B71827   7.632  35.547   6.450
10086POPC   C2B71828   7.613  35.554   6.750
10086POPC   C3B71829   7.609  35.541   7.050
10086POPC   C4B71830   7.603  35.564   7.350
10087POPC   NC371831   1.246   4.353   5.550
10087POPC   PO471832   1.256   4.303   5.850
10087POPC   GL171833   1.171   4.358   6.150
10087POPC   GL271834   1.291   4.412   6.150
10087POPC   C1A71835   1.218   4.306   6.450
10087POPC   D2A71836   1.228   4.345   6.750
10087POPC   C3A71837   1.195   4.348   7.050
10087POPC   C4A71838   1.264   4.296   7.350
10087POPC   C1B71839   1.456   4.498   6.450
10087POPC   C2B71840   1.461   4.457   6.750
10087POPC   C3B71841   1.440   4.421   7.050
10087POPC   C4B71842   1.412   4.434   7.350
10088POPC   NC371843  17.548   1.209   5.550
10088POPC   PO471844  17.477   1.219   5.850
10088POPC   GL171845  17.535   1.202   6.150
10088POPC   GL271846  17.395   1.224   6.150
10088POPC   C1A71847  17.493   1.188   6.450
10088POPC   D2A71848  17.549   1.234   6.750
10088POPC   C3A71849  17.498   1.199   7.050
10088POPC   C4A71850  17.517   1.234   7.350
10088POPC   C1B71851  17.281   1.302   6.450
10088POPC   C2B71852  17.286   1.244   6.750
10088POPC   C3B71853  17.254   1.240   7.050
10088POPC   C4B71854  17.249   1.231   7.350
10089POPC   NC371855  19.037  31.521   5.550
10089POPC   PO471856  19.053  31.495   5.850
10089POPC   GL171857  19.069  31.424   6.150
10089POPC   GL271858  19.139  31.352   6.150
10089POPC   C1A71859  19.070  31.429   6.450
10089POPC   D2A71860  19.029  31.480   6.750
10089POPC   C3A71861  19.070  31.481   7.050
10089POPC   C4A71862  19.075  31.496   7.350
10089POPC   C1B71863  19.199  31.271   6.450
10089POPC   C2B71864  19.194  31.197   6.750
10089POPC   C3B71865  19.137  31.224   7.050
10089POPC   C4B71866  19.175  31.211   7.350
10090POPC   NC371867  27.602  37.691   5.550
10090POPC   PO471868  27.607  37.697   5.850
10090POPC   GL171869  27.594  37.649   6.150
10090POPC   GL271870  27.656  37.578   6.150
10090POPC   C1A71871  27.602  37.694   6.450
10090POPC   D2A71872  27.607  37.661   6.750
10090POPC   C3A71873  27.549  37.675   7.050
10090POPC   C4A71874  27.611  37.722   7.350
10090POPC   C1B71875  27.801  37.506   6.450
10090POPC   C2B71876  27.806  37.527   6.750
10090POPC   C3B71877  27.730  37.498   7.050
10090POPC   C4B71878  27.768  37.536   7.350
10091POPC   NC371879  22.963  16.717   5.550
10091POPC   PO471880  22.956  16.684   5.850
10091POPC   GL171881  22.967  16.709   6.150
10091POPC   GL271882  22.931  16.636   6.150
10091POPC   C1A71883  22.921  16.707   6.450
10091POPC   D2A71884  22.958  16.694   6.750
10091POPC   C3A71885  22.898  16.744   7.050
10091POPC   C4A71886  22.963  16.759   7.350
10091POPC   C1B71887  22.978  16.452   6.450
10091POPC   C2B71888  22.921  16.479   6.750
10091POPC   C3B71889  22.930  16.516   7.050
10091POPC   C4B71890  22.984  16.508   7.350
10092POPC   NC371891   4.344  36.078   5.550
10092POPC   PO471892   4.365  36.153   5.850
10092POPC   GL171893   4.320  36.177   6.150
10092POPC   GL271894   4.267  36.029   6.150
10092POPC   C1A71895   4.343  36.088   6.450
10092POPC   D2A71896   4.361  36.106   6.750
10092POPC   C3A71897   4.298  36.169   7.050
10092POPC   C4A71898   4.344  36.173   7.350
10092POPC   C1B71899   4.173  35.949   6.450
10092POPC   C2B71900   4.135  35.920   6.750
10092POPC   C3B71901   4.116  35.998   7.050
10092POPC   C4B71902   4.125  36.008   7.350
10093POPC   NC371903  19.830  43.102   5.550
10093POPC   PO471904  19.835  43.069   5.850
10093POPC   GL171905  19.880  43.081   6.150
10093POPC   GL271906  19.918  43.104   6.150
10093POPC   C1A71907  19.851  43.067   6.450
10093POPC   D2A71908  19.845  43.081   6.750
10093POPC   C3A71909  19.867  43.157   7.050
10093POPC   C4A71910  19.831  43.145   7.350
10093POPC   C1B71911  20.077  43.016   6.450
10093POPC   C2B71912  20.098  43.078   6.750
10093POPC   C3B71913  20.040  43.019   7.050
10093POPC   C4B71914  20.060  43.098   7.350
10094POPC   NC371915  32.294  32.282   5.550
10094POPC   PO471916  32.297  32.258   5.850
10094POPC   GL171917  32.287  32.278   6.150
10094POPC   GL271918  32.385  32.248   6.150
10094POPC   C1A71919  32.203  32.293   6.450
10094POPC   D2A71920  32.200  32.252   6.750
10094POPC   C3A71921  32.208  32.223   7.050
10094POPC   C4A71922  32.232  32.280   7.350
10094POPC   C1B71923  32.459  32.267   6.450
10094POPC   C2B71924  32.517  32.275   6.750
10094POPC   C3B71925  32.505  32.245   7.050
10094POPC   C4B71926  32.526  32.284   7.350
10095POPC   NC371927  29.907  22.958   5.550
10095POPC   PO471928  29.880  22.905   5.850
10095POPC   GL171929  29.882  22.962   6.150
10095POPC   GL271930  30.077  22.986   6.150
10095POPC   C1A71931  29.902  22.974   6.450
10095POPC   D2A71932  29.934  22.966   6.750
10095POPC   C3A71933  29.933  22.899   7.050
10095POPC   C4A71934  29.894  22.954   7.350
10095POPC   C1B71935  30.119  23.071   6.450
10095POPC   C2B71936  30.130  23.050   6.750
10095POPC   C3B71937  30.184  23.069   7.050
10095POPC   C4B71938  30.115  23.064   7.350
10096POPC   NC371939  12.842  42.317   5.550
10096POPC   PO471940  12.825  42.358   5.850
10096POPC   GL171941  12.845  42.364   6.150
10096POPC   GL271942  12.779  42.428   6.150
10096POPC   C1A71943  12.824  42.349   6.450
10096POPC   D2A71944  12.857  42.357   6.750
10096POPC   C3A71945  12.873  42.337   7.050
10096POPC   C4A71946  12.879  42.329   7.350
10096POPC   C1B71947  12.599  42.482   6.450
10096POPC   C2B71948  12.663  42.500   6.750
10096POPC   C3B71949  12.643  42.429   7.050
10096POPC   C4B71950  12.632  42.515   7.350
10097POPC   NC371951   3.553  11.307   5.550
10097POPC   PO471952   3.591  11.315   5.850
10097POPC   GL171953   3.507  11.285   6.150
10097POPC   GL271954   3.478  11.157   6.150
10097POPC   C1A71955   3.586  11.347   6.450
10097POPC   D2A71956   3.498  11.298   6.750
10097POPC   C3A71957   3.521  11.304   7.050
10097POPC   C4A71958   3.574  11.273   7.350
10097POPC   C1B71959   3.455  11.101   6.450
10097POPC   C2B71960   3.464  11.045   6.750
10097POPC   C3B71961   3.431  11.060   7.050
10097POPC   C4B71962   3.398  11.044   7.350
10098POPC   NC371963  18.282  24.466   5.550
10098POPC   PO471964  18.267  24.538   5.850
10098POPC   GL171965  18.292  24.499   6.150
10098POPC   GL271966  18.367  24.456   6.150
10098POPC   C1A71967  18.319  24.462   6.450
10098POPC   D2A71968  18.303  24.473   6.750
10098POPC   C3A71969  18.297  24.536   7.050
10098POPC   C4A71970  18.323  24.509   7.350
10098POPC   C1B71971  18.512  24.491   6.450
10098POPC   C2B71972  18.521  24.444   6.750
10098POPC   C3B71973  18.517  24.461   7.050
10098POPC   C4B71974  18.571  24.459   7.350
10099POPC   NC371975  37.701   0.436   5.550
10099POPC   PO471976  37.681   0.449   5.850
10099POPC   GL171977  37.681   0.427   6.150
10099POPC   GL271978  37.682   0.342   6.150
10099POPC   C1A71979  37.676   0.401   6.450
10099POPC   D2A71980  37.722   0.482   6.750
10099POPC   C3A71981  37.727   0.407   7.050
10099POPC   C4A71982  37.713   0.431   7.350
10099POPC   C1B71983  37.588   0.209   6.450
10099POPC   C2B71984  37.650   0.157   6.750
10099POPC   C3B71985  37.572   0.209   7.050
10099POPC   C4B71986  37.631   0.168   7.350
10100POPC   NC371987  32.231   7.461   5.550
10100POPC   PO471988  32.240   7.441   5.850
10100POPC   GL171989  32.226   7.401   6.150
10100POPC   GL271990  32.147   7.371   6.150
10100POPC   C1A71991  32.253   7.467   6.450
10100POPC   D2A71992  32.292   7.378   6.750
10100POPC   C3A71993  32.227   7.408   7.050
10100POPC   C4A71994  32.232   7.454   7.350
10100POPC   C1B71995  32.022   7.229   6.450
10100POPC   C2B71996  32.099   7.241   6.750
10100POPC   C3B71997  32.053   7.208   7.050
10100POPC   C4B71998  32.109   7.280   7.350
10101POPC   NC371999  42.332  30.727   5.550
10101POPC   PO472000  42.337  30.684   5.850
10101POPC   GL172001  42.359  30.739   6.150
10101POPC   GL272002  42.251  30.735   6.150
10101POPC   C1A72003  42.357  30.744   6.450
10101POPC   D2A72004  42.361  30.686   6.750
10101POPC   C3A72005  42.334  30.695   7.050
10101POPC   C4A72006  42.286  30.738   7.350
10101POPC   C1B72007  42.134  30.772   6.450
10101POPC   C2B72008  42.095  30.721   6.750
10101POPC   C3B72009  42.070  30.774   7.050
10101POPC   C4B72010  42.108  30.738   7.350
10102POPC   NC372011  38.492   9.781   5.550
10102POPC   PO472012  38.430   9.743   5.850
10102POPC   GL172013  38.482   9.753   6.150
10102POPC   GL272014  38.443   9.817   6.150
10102POPC   C1A72015  38.482   9.763   6.450
10102POPC   D2A72016  38.429   9.753   6.750
10102POPC   C3A72017  38.458   9.777   7.050
10102POPC   C4A72018  38.436   9.766   7.350
10102POPC   C1B72019  38.325   9.940   6.450
10102POPC   C2B72020  38.308   9.955   6.750
10102POPC   C3B72021  38.364   9.999   7.050
10102POPC   C4B72022  38.320   9.973   7.350
10103POPC   NC372023   3.587  22.115   5.550
10103POPC   PO472024   3.526  22.126   5.850
10103POPC   GL172025   3.492  22.200   6.150
10103POPC   GL272026   3.438  22.210   6.150
10103POPC   C1A72027   3.555  22.180   6.450
10103POPC   D2A72028   3.521  22.115   6.750
10103POPC   C3A72029   3.576  22.120   7.050
10103POPC   C4A72030   3.537  22.200   7.350
10103POPC   C1B72031   3.338  22.280   6.450
10103POPC   C2B72032   3.345  22.304   6.750
10103POPC   C3B72033   3.289  22.318   7.050
10103POPC   C4B72034   3.347  22.328   7.350
10104POPC   NC372035  44.673  39.987   5.550
10104POPC   PO472036  44.669  40.027   5.850
10104POPC   GL172037  44.619  39.970   6.150
10104POPC   GL272038  44.685  40.102   6.150
10104POPC   C1A72039  44.638  39.978   6.450
10104POPC   D2A72040  44.703  39.987   6.750
10104POPC   C3A72041  44.696  39.966   7.050
10104POPC   C4A72042  44.643  39.980   7.350
10104POPC   C1B72043  44.777  40.241   6.450
10104POPC   C2B72044  44.763  40.261   6.750
10104POPC   C3B72045  44.770  40.244   7.050
10104POPC   C4B72046  44.812  40.251   7.350
10105POPC   NC372047  20.582  32.252   5.550
10105POPC   PO472048  20.638  32.201   5.850
10105POPC   GL172049  20.607  32.280   6.150
10105POPC   GL272050  20.649  32.345   6.150
10105POPC   C1A72051  20.601  32.230   6.450
10105POPC   D2A72052  20.572  32.228   6.750
10105POPC   C3A72053  20.599  32.270   7.050
10105POPC   C4A72054  20.595  32.250   7.350
10105POPC   C1B72055  20.704  32.492   6.450
10105POPC   C2B72056  20.633  32.505   6.750
10105POPC   C3B72057  20.619  32.499   7.050
10105POPC   C4B72058  20.666  32.478   7.350
10106POPC   NC372059  14.407   9.768   5.550
10106POPC   PO472060  14.367   9.787   5.850
10106POPC   GL172061  14.384   9.711   6.150
10106POPC   GL272062  14.572   9.770   6.150
10106POPC   C1A72063  14.388   9.782   6.450
10106POPC   D2A72064  14.368   9.728   6.750
10106POPC   C3A72065  14.370   9.785   7.050
10106POPC   C4A72066  14.447   9.724   7.350
10106POPC   C1B72067  14.698   9.796   6.450
10106POPC   C2B72068  14.606   9.805   6.750
10106POPC   C3B72069  14.627   9.813   7.050
10106POPC   C4B72070  14.696   9.784   7.350
10107POPC   NC372071  44.633  27.576   5.550
10107POPC   PO472072  44.712  27.567   5.850
10107POPC   GL172073  44.614  27.593   6.150
10107POPC   GL272074  44.778  27.672   6.150
10107POPC   C1A72075  44.657  27.619   6.450
10107POPC   D2A72076  44.686  27.575   6.750
10107POPC   C3A72077  44.645  27.620   7.050
10107POPC   C4A72078  44.645  27.570   7.350
10107POPC   C1B72079  44.881  27.741   6.450
10107POPC   C2B72080  44.843  27.723   6.750
10107POPC   C3B72081  44.914  27.714   7.050
10107POPC   C4B72082  44.840  27.674   7.350
10108POPC   NC372083   6.635  20.568   5.550
10108POPC   PO472084   6.605  20.594   5.850
10108POPC   GL172085   6.674  20.586   6.150
10108POPC   GL272086   6.531  20.529   6.150
10108POPC   C1A72087   6.689  20.645   6.450
10108POPC   D2A72088   6.604  20.620   6.750
10108POPC   C3A72089   6.606  20.570   7.050
10108POPC   C4A72090   6.673  20.586   7.350
10108POPC   C1B72091   6.480  20.415   6.450
10108POPC   C2B72092   6.516  20.463   6.750
10108POPC   C3B72093   6.491  20.458   7.050
10108POPC   C4B72094   6.462  20.420   7.350
10109POPC   NC372095  28.393   1.215   5.550
10109POPC   PO472096  28.406   1.256   5.850
10109POPC   GL172097  28.399   1.241   6.150
10109POPC   GL272098  28.219   1.117   6.150
10109POPC   C1A72099  28.346   1.203   6.450
10109POPC   D2A72100  28.356   1.189   6.750
10109POPC   C3A72101  28.370   1.247   7.050
10109POPC   C4A72102  28.373   1.229   7.350
10109POPC   C1B72103  28.174   1.037   6.450
10109POPC   C2B72104  28.163   1.115   6.750
10109POPC   C3B72105  28.190   1.022   7.050
10109POPC   C4B72106  28.133   1.023   7.350
10110POPC   NC372107   8.231  20.623   5.550
10110POPC   PO472108   8.214  20.567   5.850
10110POPC   GL172109   8.157  20.618   6.150
10110POPC   GL272110   8.350  20.622   6.150
10110POPC   C1A72111   8.197  20.593   6.450
10110POPC   D2A72112   8.242  20.614   6.750
10110POPC   C3A72113   8.234  20.596   7.050
10110POPC   C4A72114   8.171  20.562   7.350
10110POPC   C1B72115   8.405  20.564   6.450
10110POPC   C2B72116   8.443  20.517   6.750
10110POPC   C3B72117   8.414  20.515   7.050
10110POPC   C4B72118   8.483  20.544   7.350
10111POPC   NC372119  31.440   8.938   5.550
10111POPC   PO472120  31.434   8.959   5.850
10111POPC   GL172121  31.518   8.935   6.150
10111POPC   GL272122  31.376   8.852   6.150
10111POPC   C1A72123  31.510   8.975   6.450
10111POPC   D2A72124  31.423   9.012   6.750
10111POPC   C3A72125  31.491   8.984   7.050
10111POPC   C4A72126  31.516   8.971   7.350
10111POPC   C1B72127  31.285   8.748   6.450
10111POPC   C2B72128  31.316   8.785   6.750
10111POPC   C3B72129  31.334   8.734   7.050
10111POPC   C4B72130  31.364   8.734   7.350
10112POPC   NC372131  11.306   2.006   5.550
10112POPC   PO472132  11.272   1.972   5.850
10112POPC   GL172133  11.314   1.943   6.150
10112POPC   GL272134  11.335   2.126   6.150
10112POPC   C1A72135  11.252   2.027   6.450
10112POPC   D2A72136  11.300   1.954   6.750
10112POPC   C3A72137  11.297   1.963   7.050
10112POPC   C4A72138  11.251   1.980   7.350
10112POPC   C1B72139  11.433   2.194   6.450
10112POPC   C2B72140  11.397   2.221   6.750
10112POPC   C3B72141  11.405   2.229   7.050
10112POPC   C4B72142  11.376   2.221   7.350
10113POPC   NC372143  29.957   3.528   5.550
10113POPC   PO472144  29.910   3.557   5.850
10113POPC   GL172145  29.950   3.579   6.150
10113POPC   GL272146  29.934   3.427   6.150
10113POPC   C1A72147  29.879   3.554   6.450
10113POPC   D2A72148  29.928   3.565   6.750
10113POPC   C3A72149  29.966   3.517   7.050
10113POPC   C4A72150  29.937   3.535   7.350
10113POPC   C1B72151  30.024   3.347   6.450
10113POPC   C2B72152  29.963   3.320   6.750
10113POPC   C3B72153  30.037   3.268   7.050
10113POPC   C4B72154  29.985   3.354   7.350
10114POPC   NC372155  36.904  32.255   5.550
10114POPC   PO472156  36.898  32.237   5.850
10114POPC   GL172157  36.947  32.221   6.150
10114POPC   GL272158  36.929  32.323   6.150
10114POPC   C1A72159  36.896  32.202   6.450
10114POPC   D2A72160  36.890  32.234   6.750
10114POPC   C3A72161  36.930  32.238   7.050
10114POPC   C4A72162  36.903  32.245   7.350
10114POPC   C1B72163  36.909  32.457   6.450
10114POPC   C2B72164  36.952  32.452   6.750
10114POPC   C3B72165  36.934  32.453   7.050
10114POPC   C4B72166  36.908  32.529   7.350
10115POPC   NC372167  43.919  25.313   5.550
10115POPC   PO472168  43.868  25.299   5.850
10115POPC   GL172169  43.856  25.300   6.150
10115POPC   GL272170  43.959  25.346   6.150
10115POPC   C1A72171  43.933  25.292   6.450
10115POPC   D2A72172  43.898  25.240   6.750
10115POPC   C3A72173  43.863  25.224   7.050
10115POPC   C4A72174  43.918  25.217   7.350
10115POPC   C1B72175  43.976  25.523   6.450
10115POPC   C2B72176  43.994  25.509   6.750
10115POPC   C3B72177  44.033  25.510   7.050
10115POPC   C4B72178  44.022  25.502   7.350
10116POPC   NC372179  43.840   2.009   5.550
10116POPC   PO472180  43.936   2.033   5.850
10116POPC   GL172181  43.891   2.012   6.150
10116POPC   GL272182  43.787   1.963   6.150
10116POPC   C1A72183  43.923   1.988   6.450
10116POPC   D2A72184  43.845   1.982   6.750
10116POPC   C3A72185  43.903   1.990   7.050
10116POPC   C4A72186  43.873   1.989   7.350
10116POPC   C1B72187  43.596   2.001   6.450
10116POPC   C2B72188  43.625   2.010   6.750
10116POPC   C3B72189  43.657   1.989   7.050
10116POPC   C4B72190  43.610   2.075   7.350
10117POPC   NC372191  14.362  13.642   5.550
10117POPC   PO472192  14.425  13.635   5.850
10117POPC   GL172193  14.394  13.642   6.150
10117POPC   GL272194  14.315  13.677   6.150
10117POPC   C1A72195  14.417  13.618   6.450
10117POPC   D2A72196  14.369  13.664   6.750
10117POPC   C3A72197  14.409  13.662   7.050
10117POPC   C4A72198  14.356  13.580   7.350
10117POPC   C1B72199  14.236  13.767   6.450
10117POPC   C2B72200  14.181  13.838   6.750
10117POPC   C3B72201  14.183  13.783   7.050
10117POPC   C4B72202  14.187  13.757   7.350
10118POPC   NC372203  31.461  22.966   5.550
10118POPC   PO472204  31.440  22.986   5.850
10118POPC   GL172205  31.466  22.965   6.150
10118POPC   GL272206  31.386  22.936   6.150
10118POPC   C1A72207  31.513  22.924   6.450
10118POPC   D2A72208  31.494  22.943   6.750
10118POPC   C3A72209  31.450  22.974   7.050
10118POPC   C4A72210  31.487  22.959   7.350
10118POPC   C1B72211  31.200  22.921   6.450
10118POPC   C2B72212  31.199  22.940   6.750
10118POPC   C3B72213  31.271  22.921   7.050
10118POPC   C4B72214  31.234  23.008   7.350
10119POPC   NC372215  12.860  29.912   5.550
10119POPC   PO472216  12.862  29.915   5.850
10119POPC   GL172217  12.830  29.909   6.150
10119POPC   GL272218  12.963  29.852   6.150
10119POPC   C1A72219  12.889  29.873   6.450
10119POPC   D2A72220  12.833  29.893   6.750
10119POPC   C3A72221  12.827  29.894   7.050
10119POPC   C4A72222  12.843  29.907   7.350
10119POPC   C1B72223  12.991  29.780   6.450
10119POPC   C2B72224  13.031  29.744   6.750
10119POPC   C3B72225  13.025  29.698   7.050
10119POPC   C4B72226  13.000  29.738   7.350
10120POPC   NC372227  34.569   7.414   5.550
10120POPC   PO472228  34.561   7.404   5.850
10120POPC   GL172229  34.530   7.411   6.150
10120POPC   GL272230  34.434   7.544   6.150
10120POPC   C1A72231  34.565   7.420   6.450
10120POPC   D2A72232  34.532   7.461   6.750
10120POPC   C3A72233  34.584   7.412   7.050
10120POPC   C4A72234  34.544   7.382   7.350
10120POPC   C1B72235  34.350   7.595   6.450
10120POPC   C2B72236  34.412   7.577   6.750
10120POPC   C3B72237  34.334   7.596   7.050
10120POPC   C4B72238  34.352   7.526   7.350
10121POPC   NC372239  22.969  21.414   5.550
10121POPC   PO472240  22.921  21.423   5.850
10121POPC   GL172241  22.900  21.420   6.150
10121POPC   GL272242  22.939  21.253   6.150
10121POPC   C1A72243  22.924  21.371   6.450
10121POPC   D2A72244  22.901  21.349   6.750
10121POPC   C3A72245  22.907  21.410   7.050
10121POPC   C4A72246  22.966  21.340   7.350
10121POPC   C1B72247  22.910  21.127   6.450
10121POPC   C2B72248  22.906  21.112   6.750
10121POPC   C3B72249  22.856  21.143   7.050
10121POPC   C4B72250  22.826  21.123   7.350
10122POPC   NC372251  10.533  15.969   5.550
10122POPC   PO472252  10.538  15.919   5.850
10122POPC   GL172253  10.565  15.980   6.150
10122POPC   GL272254  10.622  15.848   6.150
10122POPC   C1A72255  10.560  15.908   6.450
10122POPC   D2A72256  10.500  15.926   6.750
10122POPC   C3A72257  10.509  15.920   7.050
10122POPC   C4A72258  10.509  15.982   7.350
10122POPC   C1B72259  10.729  15.814   6.450
10122POPC   C2B72260  10.680  15.794   6.750
10122POPC   C3B72261  10.674  15.769   7.050
10122POPC   C4B72262  10.653  15.720   7.350
10123POPC   NC372263  36.130  20.618   5.550
10123POPC   PO472264  36.141  20.639   5.850
10123POPC   GL172265  36.177  20.641   6.150
10123POPC   GL272266  36.130  20.748   6.150
10123POPC   C1A72267  36.084  20.568   6.450
10123POPC   D2A72268  36.137  20.572   6.750
10123POPC   C3A72269  36.101  20.560   7.050
10123POPC   C4A72270  36.156  20.606   7.350
10123POPC   C1B72271  36.080  20.841   6.450
10123POPC   C2B72272  36.152  20.908   6.750
10123POPC   C3B72273  36.098  20.865   7.050
10123POPC   C4B72274  36.124  20.878   7.350
10124POPC   NC372275   4.290  26.001   5.550
10124POPC   PO472276   4.347  26.084   5.850
10124POPC   GL172277   4.283  26.063   6.150
10124POPC   GL272278   4.347  25.957   6.150
10124POPC   C1A72279   4.329  26.081   6.450
10124POPC   D2A72280   4.337  26.052   6.750
10124POPC   C3A72281   4.289  26.084   7.050
10124POPC   C4A72282   4.336  26.056   7.350
10124POPC   C1B72283   4.289  25.801   6.450
10124POPC   C2B72284   4.307  25.790   6.750
10124POPC   C3B72285   4.304  25.832   7.050
10124POPC   C4B72286   4.357  25.764   7.350
10125POPC   NC372287  43.851  28.396   5.550
10125POPC   PO472288  43.852  28.364   5.850
10125POPC   GL172289  43.877  28.386   6.150
10125POPC   GL272290  43.981  28.349   6.150
10125POPC   C1A72291  43.866  28.332   6.450
10125POPC   D2A72292  43.873  28.403   6.750
10125POPC   C3A72293  43.844  28.348   7.050
10125POPC   C4A72294  43.847  28.392   7.350
10125POPC   C1B72295  44.103  28.379   6.450
10125POPC   C2B72296  44.155  28.399   6.750
10125POPC   C3B72297  44.119  28.445   7.050
10125POPC   C4B72298  44.156  28.366   7.350
10126POPC   NC372299  19.063  30.686   5.550
10126POPC   PO472300  19.014  30.720   5.850
10126POPC   GL172301  19.107  30.708   6.150
10126POPC   GL272302  19.068  30.546   6.150
10126POPC   C1A72303  19.012  30.725   6.450
10126POPC   D2A72304  19.057  30.660   6.750
10126POPC   C3A72305  19.091  30.664   7.050
10126POPC   C4A72306  19.098  30.666   7.350
10126POPC   C1B72307  19.098  30.419   6.450
10126POPC   C2B72308  19.087  30.489   6.750
10126POPC   C3B72309  19.103  30.482   7.050
10126POPC   C4B72310  19.016  30.424   7.350
10127POPC   NC372311  12.079  18.264   5.550
10127POPC   PO472312  12.079  18.265   5.850
10127POPC   GL172313  12.051  18.270   6.150
10127POPC   GL272314  12.141  18.389   6.150
10127POPC   C1A72315  12.053  18.289   6.450
10127POPC   D2A72316  12.096  18.237   6.750
10127POPC   C3A72317  12.050  18.271   7.050
10127POPC   C4A72318  12.076  18.264   7.350
10127POPC   C1B72319  12.347  18.432   6.450
10127POPC   C2B72320  12.297  18.404   6.750
10127POPC   C3B72321  12.271  18.348   7.050
10127POPC   C4B72322  12.274  18.353   7.350
10128POPC   NC372323  36.947   1.989   5.550
10128POPC   PO472324  36.897   2.006   5.850
10128POPC   GL172325  36.864   1.940   6.150
10128POPC   GL272326  36.793   2.005   6.150
10128POPC   C1A72327  36.925   2.033   6.450
10128POPC   D2A72328  36.891   2.020   6.750
10128POPC   C3A72329  36.867   1.981   7.050
10128POPC   C4A72330  36.858   1.995   7.350
10128POPC   C1B72331  36.631   2.123   6.450
10128POPC   C2B72332  36.674   2.057   6.750
10128POPC   C3B72333  36.649   2.085   7.050
10128POPC   C4B72334  36.723   2.064   7.350
10129POPC   NC372335   1.949  28.330   5.550
10129POPC   PO472336   2.007  28.384   5.850
10129POPC   GL172337   2.000  28.335   6.150
10129POPC   GL272338   1.925  28.531   6.150
10129POPC   C1A72339   1.975  28.364   6.450
10129POPC   D2A72340   2.025  28.410   6.750
10129POPC   C3A72341   1.970  28.363   7.050
10129POPC   C4A72342   2.036  28.382   7.350
10129POPC   C1B72343   1.927  28.568   6.450
10129POPC   C2B72344   1.938  28.582   6.750
10129POPC   C3B72345   1.957  28.599   7.050
10129POPC   C4B72346   1.939  28.643   7.350
10130POPC   NC372347  38.442  27.607   5.550
10130POPC   PO472348  38.421  27.631   5.850
10130POPC   GL172349  38.454  27.592   6.150
10130POPC   GL272350  38.572  27.638   6.150
10130POPC   C1A72351  38.469  27.573   6.450
10130POPC   D2A72352  38.419  27.604   6.750
10130POPC   C3A72353  38.447  27.642   7.050
10130POPC   C4A72354  38.407  27.592   7.350
10130POPC   C1B72355  38.667  27.632   6.450
10130POPC   C2B72356  38.740  27.595   6.750
10130POPC   C3B72357  38.681  27.606   7.050
10130POPC   C4B72358  38.699  27.643   7.350
10131POPC   NC372359   4.302  35.348   5.550
10131POPC   PO472360   4.335  35.320   5.850
10131POPC   GL172361   4.306  35.343   6.150
10131POPC   GL272362   4.298  35.197   6.150
10131POPC   C1A72363   4.326  35.332   6.450
10131POPC   D2A72364   4.337  35.339   6.750
10131POPC   C3A72365   4.363  35.338   7.050
10131POPC   C4A72366   4.359  35.314   7.350
10131POPC   C1B72367   4.315  35.075   6.450
10131POPC   C2B72368   4.334  35.084   6.750
10131POPC   C3B72369   4.363  35.116   7.050
10131POPC   C4B72370   4.314  35.147   7.350
10132POPC   NC372371  39.251   7.419   5.550
10132POPC   PO472372  39.189   7.455   5.850
10132POPC   GL172373  39.240   7.440   6.150
10132POPC   GL272374  39.137   7.550   6.150
10132POPC   C1A72375  39.254   7.396   6.450
10132POPC   D2A72376  39.233   7.407   6.750
10132POPC   C3A72377  39.235   7.436   7.050
10132POPC   C4A72378  39.248   7.443   7.350
10132POPC   C1B72379  39.124   7.592   6.450
10132POPC   C2B72380  39.111   7.580   6.750
10132POPC   C3B72381  39.108   7.616   7.050
10132POPC   C4B72382  39.135   7.589   7.350
10133POPC   NC372383  17.504  42.302   5.550
10133POPC   PO472384  17.483  42.335   5.850
10133POPC   GL172385  17.484  42.314   6.150
10133POPC   GL272386  17.588  42.284   6.150
10133POPC   C1A72387  17.480  42.346   6.450
10133POPC   D2A72388  17.488  42.320   6.750
10133POPC   C3A72389  17.554  42.372   7.050
10133POPC   C4A72390  17.539  42.362   7.350
10133POPC   C1B72391  17.669  42.160   6.450
10133POPC   C2B72392  17.670  42.187   6.750
10133POPC   C3B72393  17.709  42.139   7.050
10133POPC   C4B72394  17.751  42.174   7.350
10134POPC   NC372395  39.205  13.600   5.550
10134POPC   PO472396  39.219  13.673   5.850
10134POPC   GL172397  39.221  13.652   6.150
10134POPC   GL272398  39.304  13.687   6.150
10134POPC   C1A72399  39.259  13.614   6.450
10134POPC   D2A72400  39.244  13.603   6.750
10134POPC   C3A72401  39.235  13.642   7.050
10134POPC   C4A72402  39.244  13.671   7.350
10134POPC   C1B72403  39.474  13.764   6.450
10134POPC   C2B72404  39.477  13.772   6.750
10134POPC   C3B72405  39.423  13.746   7.050
10134POPC   C4B72406  39.395  13.787   7.350
10135POPC   NC372407  36.163  36.924   5.550
10135POPC   PO472408  36.121  36.893   5.850
10135POPC   GL172409  36.110  36.933   6.150
10135POPC   GL272410  36.230  36.842   6.150
10135POPC   C1A72411  36.112  36.876   6.450
10135POPC   D2A72412  36.172  36.905   6.750
10135POPC   C3A72413  36.103  36.901   7.050
10135POPC   C4A72414  36.090  36.855   7.350
10135POPC   C1B72415  36.379  36.817   6.450
10135POPC   C2B72416  36.407  36.848   6.750
10135POPC   C3B72417  36.385  36.822   7.050
10135POPC   C4B72418  36.344  36.805   7.350
10136POPC   NC372419  23.716   4.292   5.550
10136POPC   PO472420  23.709   4.308   5.850
10136POPC   GL172421  23.671   4.309   6.150
10136POPC   GL272422  23.606   4.411   6.150
10136POPC   C1A72423  23.729   4.317   6.450
10136POPC   D2A72424  23.740   4.361   6.750
10136POPC   C3A72425  23.756   4.333   7.050
10136POPC   C4A72426  23.739   4.332   7.350
10136POPC   C1B72427  23.529   4.496   6.450
10136POPC   C2B72428  23.496   4.509   6.750
10136POPC   C3B72429  23.498   4.488   7.050
10136POPC   C4B72430  23.501   4.522   7.350
10137POPC   NC372431  29.139  37.641   5.550
10137POPC   PO472432  29.102  37.652   5.850
10137POPC   GL172433  29.106  37.692   6.150
10137POPC   GL272434  29.107  37.604   6.150
10137POPC   C1A72435  29.188  37.691   6.450
10137POPC   D2A72436  29.099  37.676   6.750
10137POPC   C3A72437  29.193  37.676   7.050
10137POPC   C4A72438  29.186  37.646   7.350
10137POPC   C1B72439  29.177  37.433   6.450
10137POPC   C2B72440  29.123  37.472   6.750
10137POPC   C3B72441  29.174  37.442   7.050
10137POPC   C4B72442  29.168  37.385   7.350
10138POPC   NC372443   3.492  44.614   5.550
10138POPC   PO472444   3.492  44.672   5.850
10138POPC   GL172445   3.512  44.690   6.150
10138POPC   GL272446   3.461  44.582   6.150
10138POPC   C1A72447   3.549  44.618   6.450
10138POPC   D2A72448   3.515  44.668   6.750
10138POPC   C3A72449   3.591  44.657   7.050
10138POPC   C4A72450   3.588  44.633   7.350
10138POPC   C1B72451   3.295  44.553   6.450
10138POPC   C2B72452   3.338  44.606   6.750
10138POPC   C3B72453   3.294  44.567   7.050
10138POPC   C4B72454   3.312  44.564   7.350
10139POPC   NC372455  40.051  12.872   5.550
10139POPC   PO472456  39.971  12.855   5.850
10139POPC   GL172457  40.016  12.806   6.150
10139POPC   GL272458  39.867  12.969   6.150
10139POPC   C1A72459  39.958  12.813   6.450
10139POPC   D2A72460  39.983  12.865   6.750
10139POPC   C3A72461  39.958  12.896   7.050
10139POPC   C4A72462  40.021  12.870   7.350
10139POPC   C1B72463  39.843  13.018   6.450
10139POPC   C2B72464  39.857  12.990   6.750
10139POPC   C3B72465  39.831  13.051   7.050
10139POPC   C4B72466  39.838  13.025   7.350
10140POPC   NC372467  16.715   6.640   5.550
10140POPC   PO472468  16.768   6.652   5.850
10140POPC   GL172469  16.771   6.680   6.150
10140POPC   GL272470  16.694   6.531   6.150
10140POPC   C1A72471  16.688   6.617   6.450
10140POPC   D2A72472  16.770   6.655   6.750
10140POPC   C3A72473  16.717   6.614   7.050
10140POPC   C4A72474  16.727   6.615   7.350
10140POPC   C1B72475  16.621   6.396   6.450
10140POPC   C2B72476  16.672   6.378   6.750
10140POPC   C3B72477  16.656   6.426   7.050
10140POPC   C4B72478  16.595   6.367   7.350
10141POPC   NC372479   5.837  34.582   5.550
10141POPC   PO472480   5.857  34.564   5.850
10141POPC   GL172481   5.870  34.562   6.150
10141POPC   GL272482   5.838  34.425   6.150
10141POPC   C1A72483   5.823  34.606   6.450
10141POPC   D2A72484   5.887  34.557   6.750
10141POPC   C3A72485   5.889  34.615   7.050
10141POPC   C4A72486   5.878  34.615   7.350
10141POPC   C1B72487   5.810  34.283   6.450
10141POPC   C2B72488   5.835  34.309   6.750
10141POPC   C3B72489   5.870  34.372   7.050
10141POPC   C4B72490   5.833  34.380   7.350
10142POPC   NC372491  42.318  44.706   5.550
10142POPC   PO472492  42.305  44.704   5.850
10142POPC   GL172493  42.379  44.647   6.150
10142POPC   GL272494  42.292  44.731   6.150
10142POPC   C1A72495  42.287  44.687   6.450
10142POPC   D2A72496  42.352  44.666   6.750
10142POPC   C3A72497  42.304  44.621   7.050
10142POPC   C4A72498  42.293  44.672   7.350
10142POPC   C1B72499  42.263  44.896   6.450
10142POPC   C2B72500  42.252  44.854   6.750
10142POPC   C3B72501  42.203  44.875   7.050
10142POPC   C4B72502  42.186  44.906   7.350
10143POPC   NC372503  29.918  19.833   5.550
10143POPC   PO472504  29.952  19.874   5.850
10143POPC   GL172505  29.907  19.792   6.150
10143POPC   GL272506  29.838  19.976   6.150
10143POPC   C1A72507  29.923  19.829   6.450
10143POPC   D2A72508  29.890  19.866   6.750
10143POPC   C3A72509  29.931  19.816   7.050
10143POPC   C4A72510  29.962  19.797   7.350
10143POPC   C1B72511  29.784  20.025   6.450
10143POPC   C2B72512  29.818  20.033   6.750
10143POPC   C3B72513  29.779  20.052   7.050
10143POPC   C4B72514  29.857  20.109   7.350
10144POPC   NC372515   7.443  42.296   5.550
10144POPC   PO472516   7.397  42.339   5.850
10144POPC   GL172517   7.446  42.294   6.150
10144POPC   GL272518   7.528  42.361   6.150
10144POPC   C1A72519   7.380  42.316   6.450
10144POPC   D2A72520   7.391  42.368   6.750
10144POPC   C3A72521   7.387  42.378   7.050
10144POPC   C4A72522   7.392  42.315   7.350
10144POPC   C1B72523   7.661  42.334   6.450
10144POPC   C2B72524   7.691  42.336   6.750
10144POPC   C3B72525   7.668  42.421   7.050
10144POPC   C4B72526   7.655  42.375   7.350
10145POPC   NC372527  15.200  18.310   5.550
10145POPC   PO472528  15.132  18.261   5.850
10145POPC   GL172529  15.205  18.250   6.150
10145POPC   GL272530  15.062  18.186   6.150
10145POPC   C1A72531  15.208  18.265   6.450
10145POPC   D2A72532  15.224  18.273   6.750
10145POPC   C3A72533  15.183  18.257   7.050
10145POPC   C4A72534  15.147  18.251   7.350
10145POPC   C1B72535  15.045  18.139   6.450
10145POPC   C2B72536  14.961  18.110   6.750
10145POPC   C3B72537  15.052  18.059   7.050
10145POPC   C4B72538  14.973  18.138   7.350
10146POPC   NC372539  15.185  41.597   5.550
10146POPC   PO472540  15.137  41.512   5.850
10146POPC   GL172541  15.162  41.523   6.150
10146POPC   GL272542  15.089  41.549   6.150
10146POPC   C1A72543  15.186  41.516   6.450
10146POPC   D2A72544  15.156  41.589   6.750
10146POPC   C3A72545  15.152  41.587   7.050
10146POPC   C4A72546  15.207  41.550   7.350
10146POPC   C1B72547  14.958  41.533   6.450
10146POPC   C2B72548  14.957  41.549   6.750
10146POPC   C3B72549  14.970  41.530   7.050
10146POPC   C4B72550  14.925  41.550   7.350
10147POPC   NC372551  35.335  38.458   5.550
10147POPC   PO472552  35.394  38.455   5.850
10147POPC   GL172553  35.345  38.414   6.150
10147POPC   GL272554  35.452  38.454   6.150
10147POPC   C1A72555  35.381  38.495   6.450
10147POPC   D2A72556  35.354  38.465   6.750
10147POPC   C3A72557  35.307  38.458   7.050
10147POPC   C4A72558  35.368  38.430   7.350
10147POPC   C1B72559  35.636  38.519   6.450
10147POPC   C2B72560  35.573  38.456   6.750
10147POPC   C3B72561  35.614  38.438   7.050
10147POPC   C4B72562  35.583  38.513   7.350
10148POPC   NC372563   4.328  28.322   5.550
10148POPC   PO472564   4.281  28.346   5.850
10148POPC   GL172565   4.301  28.323   6.150
10148POPC   GL272566   4.413  28.223   6.150
10148POPC   C1A72567   4.360  28.320   6.450
10148POPC   D2A72568   4.306  28.381   6.750
10148POPC   C3A72569   4.342  28.375   7.050
10148POPC   C4A72570   4.309  28.398   7.350
10148POPC   C1B72571   4.468  28.193   6.450
10148POPC   C2B72572   4.501  28.181   6.750
10148POPC   C3B72573   4.472  28.181   7.050
10148POPC   C4B72574   4.480  28.175   7.350
10149POPC   NC372575  36.119  29.931   5.550
10149POPC   PO472576  36.151  29.872   5.850
10149POPC   GL172577  36.131  29.921   6.150
10149POPC   GL272578  36.068  29.966   6.150
10149POPC   C1A72579  36.142  29.875   6.450
10149POPC   D2A72580  36.167  29.899   6.750
10149POPC   C3A72581  36.111  29.920   7.050
10149POPC   C4A72582  36.131  29.923   7.350
10149POPC   C1B72583  35.940  30.095   6.450
10149POPC   C2B72584  35.972  30.116   6.750
10149POPC   C3B72585  35.939  30.144   7.050
10149POPC   C4B72586  35.926  30.152   7.350
10150POPC   NC372587  22.116  12.882   5.550
10150POPC   PO472588  22.198  12.805   5.850
10150POPC   GL172589  22.171  12.809   6.150
10150POPC   GL272590  22.028  12.812   6.150
10150POPC   C1A72591  22.168  12.842   6.450
10150POPC   D2A72592  22.152  12.874   6.750
10150POPC   C3A72593  22.197  12.899   7.050
10150POPC   C4A72594  22.162  12.840   7.350
10150POPC   C1B72595  21.917  12.857   6.450
10150POPC   C2B72596  21.933  12.791   6.750
10150POPC   C3B72597  21.937  12.820   7.050
10150POPC   C4B72598  21.960  12.797   7.350
10151POPC   NC372599   3.539  35.367   5.550
10151POPC   PO472600   3.497  35.313   5.850
10151POPC   GL172601   3.520  35.378   6.150
10151POPC   GL272602   3.615  35.349   6.150
10151POPC   C1A72603   3.551  35.389   6.450
10151POPC   D2A72604   3.576  35.347   6.750
10151POPC   C3A72605   3.563  35.332   7.050
10151POPC   C4A72606   3.514  35.315   7.350
10151POPC   C1B72607   3.802  35.426   6.450
10151POPC   C2B72608   3.825  35.375   6.750
10151POPC   C3B72609   3.777  35.414   7.050
10151POPC   C4B72610   3.833  35.448   7.350
10152POPC   NC372611  39.218  28.394   5.550
10152POPC   PO472612  39.244  28.345   5.850
10152POPC   GL172613  39.190  28.361   6.150
10152POPC   GL272614  39.178  28.467   6.150
10152POPC   C1A72615  39.260  28.320   6.450
10152POPC   D2A72616  39.259  28.405   6.750
10152POPC   C3A72617  39.181  28.408   7.050
10152POPC   C4A72618  39.240  28.340   7.350
10152POPC   C1B72619  39.015  28.508   6.450
10152POPC   C2B72620  38.980  28.496   6.750
10152POPC   C3B72621  38.979  28.540   7.050
10152POPC   C4B72622  39.008  28.548   7.350
10153POPC   NC372623  38.455  23.733   5.550
10153POPC   PO472624  38.476  23.704   5.850
10153POPC   GL172625  38.426  23.693   6.150
10153POPC   GL272626  38.390  23.607   6.150
10153POPC   C1A72627  38.410  23.679   6.450
10153POPC   D2A72628  38.484  23.684   6.750
10153POPC   C3A72629  38.426  23.678   7.050
10153POPC   C4A72630  38.418  23.696   7.350
10153POPC   C1B72631  38.258  23.547   6.450
10153POPC   C2B72632  38.287  23.534   6.750
10153POPC   C3B72633  38.292  23.533   7.050
10153POPC   C4B72634  38.226  23.561   7.350
10154POPC   NC372635   7.399   1.229   5.550
10154POPC   PO472636   7.452   1.194   5.850
10154POPC   GL172637   7.425   1.206   6.150
10154POPC   GL272638   7.320   1.138   6.150
10154POPC   C1A72639   7.377   1.234   6.450
10154POPC   D2A72640   7.396   1.184   6.750
10154POPC   C3A72641   7.405   1.188   7.050
10154POPC   C4A72642   7.393   1.234   7.350
10154POPC   C1B72643   7.197   1.089   6.450
10154POPC   C2B72644   7.165   1.131   6.750
10154POPC   C3B72645   7.246   1.074   7.050
10154POPC   C4B72646   7.180   1.142   7.350
10155POPC   NC372647  36.921  10.538   5.550
10155POPC   PO472648  36.902  10.498   5.850
10155POPC   GL172649  36.870  10.574   6.150
10155POPC   GL272650  36.849  10.394   6.150
10155POPC   C1A72651  36.901  10.496   6.450
10155POPC   D2A72652  36.935  10.525   6.750
10155POPC   C3A72653  36.923  10.562   7.050
10155POPC   C4A72654  36.874  10.544   7.350
10155POPC   C1B72655  36.737  10.293   6.450
10155POPC   C2B72656  36.785  10.308   6.750
10155POPC   C3B72657  36.802  10.354   7.050
10155POPC   C4B72658  36.782  10.266   7.350
10156POPC   NC372659  16.714  21.391   5.550
10156POPC   PO472660  16.710  21.359   5.850
10156POPC   GL172661  16.726  21.338   6.150
10156POPC   GL272662  16.591  21.450   6.150
10156POPC   C1A72663  16.718  21.363   6.450
10156POPC   D2A72664  16.773  21.373   6.750
10156POPC   C3A72665  16.776  21.400   7.050
10156POPC   C4A72666  16.777  21.343   7.350
10156POPC   C1B72667  16.561  21.595   6.450
10156POPC   C2B72668  16.501  21.605   6.750
10156POPC   C3B72669  16.518  21.585   7.050
10156POPC   C4B72670  16.530  21.526   7.350
10157POPC   NC372671  37.710   3.558   5.550
10157POPC   PO472672  37.656   3.547   5.850
10157POPC   GL172673  37.676   3.517   6.150
10157POPC   GL272674  37.587   3.446   6.150
10157POPC   C1A72675  37.689   3.552   6.450
10157POPC   D2A72676  37.647   3.547   6.750
10157POPC   C3A72677  37.715   3.550   7.050
10157POPC   C4A72678  37.639   3.587   7.350
10157POPC   C1B72679  37.507   3.368   6.450
10157POPC   C2B72680  37.491   3.367   6.750
10157POPC   C3B72681  37.521   3.389   7.050
10157POPC   C4B72682  37.556   3.345   7.350
10158POPC   NC372683  12.878  43.933   5.550
10158POPC   PO472684  12.836  43.898   5.850
10158POPC   GL172685  12.887  43.894   6.150
10158POPC   GL272686  13.000  43.916   6.150
10158POPC   C1A72687  12.879  43.922   6.450
10158POPC   D2A72688  12.872  43.855   6.750
10158POPC   C3A72689  12.852  43.907   7.050
10158POPC   C4A72690  12.882  43.857   7.350
10158POPC   C1B72691  13.079  43.952   6.450
10158POPC   C2B72692  13.094  43.884   6.750
10158POPC   C3B72693  13.107  43.904   7.050
10158POPC   C4B72694  13.081  43.901   7.350
10159POPC   NC372695   1.238   3.496   5.550
10159POPC   PO472696   1.200   3.532   5.850
10159POPC   GL172697   1.253   3.510   6.150
10159POPC   GL272698   1.087   3.519   6.150
10159POPC   C1A72699   1.165   3.573   6.450
10159POPC   D2A72700   1.165   3.494   6.750
10159POPC   C3A72701   1.261   3.590   7.050
10159POPC   C4A72702   1.251   3.556   7.350
10159POPC   C1B72703   0.955   3.549   6.450
10159POPC   C2B72704   0.986   3.509   6.750
10159POPC   C3B72705   0.920   3.503   7.050
10159POPC   C4B72706   1.016   3.463   7.350
10160POPC   NC372707  42.320  39.994   5.550
10160POPC   PO472708  42.321  40.014   5.850
10160POPC   GL172709  42.325  40.023   6.150
10160POPC   GL272710  42.349  40.106   6.150
10160POPC   C1A72711  42.351  40.045   6.450
10160POPC   D2A72712  42.349  40.012   6.750
10160POPC   C3A72713  42.363  40.048   7.050
10160POPC   C4A72714  42.376  40.000   7.350
10160POPC   C1B72715  42.361  40.243   6.450
10160POPC   C2B72716  42.438  40.222   6.750
10160POPC   C3B72717  42.377  40.233   7.050
10160POPC   C4B72718  42.411  40.261   7.350
10161POPC   NC372719  31.512  16.716   5.550
10161POPC   PO472720  31.464  16.754   5.850
10161POPC   GL172721  31.510  16.726   6.150
10161POPC   GL272722  31.577  16.746   6.150
10161POPC   C1A72723  31.473  16.713   6.450
10161POPC   D2A72724  31.467  16.758   6.750
10161POPC   C3A72725  31.466  16.690   7.050
10161POPC   C4A72726  31.458  16.759   7.350
10161POPC   C1B72727  31.747  16.717   6.450
10161POPC   C2B72728  31.729  16.651   6.750
10161POPC   C3B72729  31.717  16.714   7.050
10161POPC   C4B72730  31.729  16.639   7.350
10162POPC   NC372731  26.786  33.840   5.550
10162POPC   PO472732  26.828  33.759   5.850
10162POPC   GL172733  26.860  33.798   6.150
10162POPC   GL272734  26.865  33.919   6.150
10162POPC   C1A72735  26.797  33.815   6.450
10162POPC   D2A72736  26.811  33.785   6.750
10162POPC   C3A72737  26.779  33.834   7.050
10162POPC   C4A72738  26.770  33.764   7.350
10162POPC   C1B72739  27.009  33.962   6.450
10162POPC   C2B72740  26.965  34.001   6.750
10162POPC   C3B72741  26.956  34.012   7.050
10162POPC   C4B72742  26.973  34.014   7.350
10163POPC   NC372743  32.216   5.123   5.550
10163POPC   PO472744  32.216   5.112   5.850
10163POPC   GL172745  32.257   5.055   6.150
10163POPC   GL272746  32.085   5.166   6.150
10163POPC   C1A72747  32.290   5.111   6.450
10163POPC   D2A72748  32.234   5.047   6.750
10163POPC   C3A72749  32.210   5.135   7.050
10163POPC   C4A72750  32.237   5.065   7.350
10163POPC   C1B72751  32.044   5.205   6.450
10163POPC   C2B72752  32.051   5.157   6.750
10163POPC   C3B72753  31.976   5.121   7.050
10163POPC   C4B72754  32.039   5.116   7.350
10164POPC   NC372755  32.290   0.457   5.550
10164POPC   PO472756  32.222   0.481   5.850
10164POPC   GL172757  32.220   0.420   6.150
10164POPC   GL272758  32.300   0.609   6.150
10164POPC   C1A72759  32.275   0.429   6.450
10164POPC   D2A72760  32.223   0.457   6.750
10164POPC   C3A72761  32.221   0.400   7.050
10164POPC   C4A72762  32.258   0.472   7.350
10164POPC   C1B72763  32.330   0.697   6.450
10164POPC   C2B72764  32.291   0.713   6.750
10164POPC   C3B72765  32.313   0.649   7.050
10164POPC   C4B72766  32.289   0.730   7.350
10165POPC   NC372767  15.168  16.767   5.550
10165POPC   PO472768  15.142  16.713   5.850
10165POPC   GL172769  15.165  16.722   6.150
10165POPC   GL272770  15.083  16.675   6.150
10165POPC   C1A72771  15.160  16.768   6.450
10165POPC   D2A72772  15.202  16.725   6.750
10165POPC   C3A72773  15.207  16.767   7.050
10165POPC   C4A72774  15.224  16.777   7.350
10165POPC   C1B72775  14.955  16.599   6.450
10165POPC   C2B72776  14.963  16.673   6.750
10165POPC   C3B72777  14.966  16.684   7.050
10165POPC   C4B72778  14.987  16.674   7.350
10166POPC   NC372779  29.192  30.691   5.550
10166POPC   PO472780  29.109  30.711   5.850
10166POPC   GL172781  29.180  30.723   6.150
10166POPC   GL272782  29.041  30.606   6.150
10166POPC   C1A72783  29.174  30.704   6.450
10166POPC   D2A72784  29.105  30.741   6.750
10166POPC   C3A72785  29.153  30.700   7.050
10166POPC   C4A72786  29.158  30.726   7.350
10166POPC   C1B72787  28.949  30.645   6.450
10166POPC   C2B72788  28.877  30.604   6.750
10166POPC   C3B72789  28.939  30.641   7.050
10166POPC   C4B72790  28.906  30.647   7.350
10167POPC   NC372791  11.333  30.722   5.550
10167POPC   PO472792  11.288  30.678   5.850
10167POPC   GL172793  11.302  30.732   6.150
10167POPC   GL272794  11.378  30.697   6.150
10167POPC   C1A72795  11.321  30.680   6.450
10167POPC   D2A72796  11.295  30.650   6.750
10167POPC   C3A72797  11.341  30.734   7.050
10167POPC   C4A72798  11.306  30.702   7.350
10167POPC   C1B72799  11.512  30.766   6.450
10167POPC   C2B72800  11.579  30.818   6.750
10167POPC   C3B72801  11.519  30.804   7.050
10167POPC   C4B72802  11.517  30.769   7.350
10168POPC   NC372803  39.278  26.021   5.550
10168POPC   PO472804  39.271  25.998   5.850
10168POPC   GL172805  39.269  26.045   6.150
10168POPC   GL272806  39.324  26.081   6.150
10168POPC   C1A72807  39.207  26.081   6.450
10168POPC   D2A72808  39.240  26.076   6.750
10168POPC   C3A72809  39.221  26.010   7.050
10168POPC   C4A72810  39.184  26.043   7.350
10168POPC   C1B72811  39.441  26.142   6.450
10168POPC   C2B72812  39.423  26.110   6.750
10168POPC   C3B72813  39.460  26.177   7.050
10168POPC   C4B72814  39.468  26.130   7.350
10169POPC   NC372815  24.476  23.724   5.550
10169POPC   PO472816  24.500  23.746   5.850
10169POPC   GL172817  24.516  23.675   6.150
10169POPC   GL272818  24.442  23.833   6.150
10169POPC   C1A72819  24.470  23.762   6.450
10169POPC   D2A72820  24.536  23.746   6.750
10169POPC   C3A72821  24.453  23.674   7.050
10169POPC   C4A72822  24.470  23.713   7.350
10169POPC   C1B72823  24.288  23.913   6.450
10169POPC   C2B72824  24.260  23.914   6.750
10169POPC   C3B72825  24.311  23.849   7.050
10169POPC   C4B72826  24.253  23.873   7.350
10170POPC   NC372827  35.387  22.180   5.550
10170POPC   PO472828  35.332  22.200   5.850
10170POPC   GL172829  35.329  22.174   6.150
10170POPC   GL272830  35.452  22.058   6.150
10170POPC   C1A72831  35.374  22.170   6.450
10170POPC   D2A72832  35.302  22.176   6.750
10170POPC   C3A72833  35.353  22.118   7.050
10170POPC   C4A72834  35.340  22.172   7.350
10170POPC   C1B72835  35.575  22.021   6.450
10170POPC   C2B72836  35.595  22.093   6.750
10170POPC   C3B72837  35.529  22.047   7.050
10170POPC   C4B72838  35.592  22.017   7.350
10171POPC   NC372839  10.493  29.894   5.550
10171POPC   PO472840  10.550  29.952   5.850
10171POPC   GL172841  10.559  29.873   6.150
10171POPC   GL272842  10.511  29.810   6.150
10171POPC   C1A72843  10.547  29.917   6.450
10171POPC   D2A72844  10.567  29.933   6.750
10171POPC   C3A72845  10.482  29.950   7.050
10171POPC   C4A72846  10.570  29.880   7.350
10171POPC   C1B72847  10.475  29.691   6.450
10171POPC   C2B72848  10.492  29.682   6.750
10171POPC   C3B72849  10.445  29.706   7.050
10171POPC   C4B72850  10.411  29.641   7.350
10172POPC   NC372851  16.762  36.111   5.550
10172POPC   PO472852  16.723  36.166   5.850
10172POPC   GL172853  16.779  36.080   6.150
10172POPC   GL272854  16.685  35.993   6.150
10172POPC   C1A72855  16.768  36.113   6.450
10172POPC   D2A72856  16.764  36.100   6.750
10172POPC   C3A72857  16.779  36.135   7.050
10172POPC   C4A72858  16.722  36.118   7.350
10172POPC   C1B72859  16.647  35.940   6.450
10172POPC   C2B72860  16.656  35.912   6.750
10172POPC   C3B72861  16.647  35.877   7.050
10172POPC   C4B72862  16.691  35.914   7.350
10173POPC   NC372863   1.964  36.946   5.550
10173POPC   PO472864   1.994  36.910   5.850
10173POPC   GL172865   2.011  36.943   6.150
10173POPC   GL272866   2.068  36.981   6.150
10173POPC   C1A72867   2.006  36.873   6.450
10173POPC   D2A72868   2.004  36.932   6.750
10173POPC   C3A72869   1.951  36.921   7.050
10173POPC   C4A72870   1.945  36.933   7.350
10173POPC   C1B72871   2.196  37.035   6.450
10173POPC   C2B72872   2.209  37.020   6.750
10173POPC   C3B72873   2.226  37.050   7.050
10173POPC   C4B72874   2.214  37.055   7.350
10174POPC   NC372875   0.485  10.556   5.550
10174POPC   PO472876   0.466  10.517   5.850
10174POPC   GL172877   0.416  10.480   6.150
10174POPC   GL272878   0.535  10.644   6.150
10174POPC   C1A72879   0.474  10.489   6.450
10174POPC   D2A72880   0.430  10.563   6.750
10174POPC   C3A72881   0.417  10.505   7.050
10174POPC   C4A72882   0.399  10.532   7.350
10174POPC   C1B72883   0.585  10.710   6.450
10174POPC   C2B72884   0.655  10.629   6.750
10174POPC   C3B72885   0.631  10.645   7.050
10174POPC   C4B72886   0.663  10.678   7.350
10175POPC   NC372887  34.604  37.665   5.550
10175POPC   PO472888  34.603  37.686   5.850
10175POPC   GL172889  34.596  37.651   6.150
10175POPC   GL272890  34.567  37.772   6.150
10175POPC   C1A72891  34.563  37.727   6.450
10175POPC   D2A72892  34.550  37.700   6.750
10175POPC   C3A72893  34.616  37.717   7.050
10175POPC   C4A72894  34.597  37.697   7.350
10175POPC   C1B72895  34.428  37.893   6.450
10175POPC   C2B72896  34.515  37.952   6.750
10175POPC   C3B72897  34.464  37.943   7.050
10175POPC   C4B72898  34.504  37.900   7.350
10176POPC   NC372899  38.490  19.839   5.550
10176POPC   PO472900  38.434  19.851   5.850
10176POPC   GL172901  38.452  19.799   6.150
10176POPC   GL272902  38.592  19.727   6.150
10176POPC   C1A72903  38.500  19.864   6.450
10176POPC   D2A72904  38.444  19.862   6.750
10176POPC   C3A72905  38.478  19.790   7.050
10176POPC   C4A72906  38.424  19.801   7.350
10176POPC   C1B72907  38.677  19.742   6.450
10176POPC   C2B72908  38.661  19.672   6.750
10176POPC   C3B72909  38.626  19.657   7.050
10176POPC   C4B72910  38.650  19.673   7.350
10177POPC   NC372911  19.076  35.373   5.550
10177POPC   PO472912  19.095  35.357   5.850
10177POPC   GL172913  19.044  35.362   6.150
10177POPC   GL272914  19.054  35.273   6.150
10177POPC   C1A72915  19.034  35.305   6.450
10177POPC   D2A72916  19.087  35.333   6.750
10177POPC   C3A72917  19.031  35.343   7.050
10177POPC   C4A72918  19.080  35.358   7.350
10177POPC   C1B72919  19.126  35.144   6.450
10177POPC   C2B72920  19.084  35.137   6.750
10177POPC   C3B72921  19.116  35.064   7.050
10177POPC   C4B72922  19.095  35.150   7.350
10178POPC   NC372923  39.274  12.119   5.550
10178POPC   PO472924  39.256  12.093   5.850
10178POPC   GL172925  39.256  12.091   6.150
10178POPC   GL272926  39.192  12.143   6.150
10178POPC   C1A72927  39.235  12.069   6.450
10178POPC   D2A72928  39.191  12.061   6.750
10178POPC   C3A72929  39.199  12.038   7.050
10178POPC   C4A72930  39.278  12.070   7.350
10178POPC   C1B72931  39.132  12.321   6.450
10178POPC   C2B72932  39.141  12.345   6.750
10178POPC   C3B72933  39.125  12.264   7.050
10178POPC   C4B72934  39.102  12.251   7.350
10179POPC   NC372935   3.553  32.285   5.550
10179POPC   PO472936   3.567  32.219   5.850
10179POPC   GL172937   3.563  32.297   6.150
10179POPC   GL272938   3.405  32.131   6.150
10179POPC   C1A72939   3.560  32.281   6.450
10179POPC   D2A72940   3.549  32.294   6.750
10179POPC   C3A72941   3.543  32.240   7.050
10179POPC   C4A72942   3.561  32.297   7.350
10179POPC   C1B72943   3.393  32.055   6.450
10179POPC   C2B72944   3.316  32.025   6.750
10179POPC   C3B72945   3.363  32.108   7.050
10179POPC   C4B72946   3.359  32.119   7.350
10180POPC   NC372947  15.226  43.144   5.550
10180POPC   PO472948  15.153  43.078   5.850
10180POPC   GL172949  15.195  43.113   6.150
10180POPC   GL272950  15.279  43.208   6.150
10180POPC   C1A72951  15.138  43.084   6.450
10180POPC   D2A72952  15.211  43.098   6.750
10180POPC   C3A72953  15.162  43.082   7.050
10180POPC   C4A72954  15.221  43.120   7.350
10180POPC   C1B72955  15.413  43.312   6.450
10180POPC   C2B72956  15.350  43.254   6.750
10180POPC   C3B72957  15.388  43.317   7.050
10180POPC   C4B72958  15.353  43.229   7.350
10181POPC   NC372959  41.558  30.658   5.550
10181POPC   PO472960  41.526  30.715   5.850
10181POPC   GL172961  41.602  30.708   6.150
10181POPC   GL272962  41.483  30.741   6.150
10181POPC   C1A72963  41.513  30.744   6.450
10181POPC   D2A72964  41.513  30.712   6.750
10181POPC   C3A72965  41.591  30.652   7.050
10181POPC   C4A72966  41.574  30.717   7.350
10181POPC   C1B72967  41.313  30.648   6.450
10181POPC   C2B72968  41.269  30.679   6.750
10181POPC   C3B72969  41.340  30.638   7.050
10181POPC   C4B72970  41.355  30.662   7.350
10182POPC   NC372971  30.657  21.356   5.550
10182POPC   PO472972  30.659  21.432   5.850
10182POPC   GL172973  30.689  21.384   6.150
10182POPC   GL272974  30.753  21.307   6.150
10182POPC   C1A72975  30.670  21.377   6.450
10182POPC   D2A72976  30.720  21.408   6.750
10182POPC   C3A72977  30.729  21.397   7.050
10182POPC   C4A72978  30.666  21.370   7.350
10182POPC   C1B72979  30.744  21.124   6.450
10182POPC   C2B72980  30.755  21.133   6.750
10182POPC   C3B72981  30.704  21.148   7.050
10182POPC   C4B72982  30.694  21.150   7.350
10183POPC   NC372983   8.179  33.062   5.550
10183POPC   PO472984   8.245  33.007   5.850
10183POPC   GL172985   8.218  32.989   6.150
10183POPC   GL272986   8.272  32.919   6.150
10183POPC   C1A72987   8.199  33.055   6.450
10183POPC   D2A72988   8.219  33.059   6.750
10183POPC   C3A72989   8.173  33.041   7.050
10183POPC   C4A72990   8.204  32.993   7.350
10183POPC   C1B72991   8.266  32.824   6.450
10183POPC   C2B72992   8.321  32.800   6.750
10183POPC   C3B72993   8.313  32.842   7.050
10183POPC   C4B72994   8.250  32.844   7.350
10184POPC   NC372995  26.816  43.857   5.550
10184POPC   PO472996  26.833  43.933   5.850
10184POPC   GL172997  26.842  43.888   6.150
10184POPC   GL272998  26.796  43.714   6.150
10184POPC   C1A72999  26.802  43.892   6.450
10184POPC   D2A73000  26.810  43.855   6.750
10184POPC   C3A73001  26.778  43.866   7.050
10184POPC   C4A73002  26.847  43.922   7.350
10184POPC   C1B73003  26.864  43.602   6.450
10184POPC   C2B73004  26.844  43.632   6.750
10184POPC   C3B73005  26.812  43.604   7.050
10184POPC   C4B73006  26.797  43.665   7.350
10185POPC   NC373007  40.794  17.534   5.550
10185POPC   PO473008  40.829  17.468   5.850
10185POPC   GL173009  40.771  17.486   6.150
10185POPC   GL273010  40.777  17.346   6.150
10185POPC   C1A73011  40.795  17.460   6.450
10185POPC   D2A73012  40.742  17.465   6.750
10185POPC   C3A73013  40.739  17.532   7.050
10185POPC   C4A73014  40.749  17.469   7.350
10185POPC   C1B73015  40.900  17.220   6.450
10185POPC   C2B73016  40.854  17.241   6.750
10185POPC   C3B73017  40.838  17.219   7.050
10185POPC   C4B73018  40.860  17.318   7.350
10186POPC   NC373019   3.502  26.070   5.550
10186POPC   PO473020   3.573  26.034   5.850
10186POPC   GL173021   3.558  26.019   6.150
10186POPC   GL273022   3.420  26.031   6.150
10186POPC   C1A73023   3.561  26.019   6.450
10186POPC   D2A73024   3.513  26.049   6.750
10186POPC   C3A73025   3.555  26.051   7.050
10186POPC   C4A73026   3.561  26.039   7.350
10186POPC   C1B73027   3.275  25.977   6.450
10186POPC   C2B73028   3.264  25.986   6.750
10186POPC   C3B73029   3.300  25.975   7.050
10186POPC   C4B73030   3.326  25.939   7.350
10187POPC   NC373031  31.502  19.820   5.550
10187POPC   PO473032  31.491  19.876   5.850
10187POPC   GL173033  31.436  19.805   6.150
10187POPC   GL273034  31.560  19.918   6.150
10187POPC   C1A73035  31.492  19.878   6.450
10187POPC   D2A73036  31.444  19.792   6.750
10187POPC   C3A73037  31.497  19.790   7.050
10187POPC   C4A73038  31.511  19.796   7.350
10187POPC   C1B73039  31.712  19.874   6.450
10187POPC   C2B73040  31.748  19.923   6.750
10187POPC   C3B73041  31.719  19.897   7.050
10187POPC   C4B73042  31.708  19.872   7.350
10188POPC   NC373043   4.275  15.221   5.550
10188POPC   PO473044   4.366  15.145   5.850
10188POPC   GL173045   4.292  15.213   6.150
10188POPC   GL273046   4.439  15.281   6.150
10188POPC   C1A73047   4.358  15.140   6.450
10188POPC   D2A73048   4.354  15.172   6.750
10188POPC   C3A73049   4.315  15.191   7.050
10188POPC   C4A73050   4.365  15.190   7.350
10188POPC   C1B73051   4.459  15.345   6.450
10188POPC   C2B73052   4.479  15.329   6.750
10188POPC   C3B73053   4.519  15.362   7.050
10188POPC   C4B73054   4.548  15.303   7.350
10189POPC   NC373055   6.650  18.247   5.550
10189POPC   PO473056   6.687  18.314   5.850
10189POPC   GL173057   6.614  18.238   6.150
10189POPC   GL273058   6.565  18.352   6.150
10189POPC   C1A73059   6.668  18.299   6.450
10189POPC   D2A73060   6.637  18.304   6.750
10189POPC   C3A73061   6.628  18.304   7.050
10189POPC   C4A73062   6.604  18.306   7.350
10189POPC   C1B73063   6.519  18.438   6.450
10189POPC   C2B73064   6.499  18.439   6.750
10189POPC   C3B73065   6.437  18.501   7.050
10189POPC   C4B73066   6.461  18.467   7.350
10190POPC   NC373067  20.656   9.013   5.550
10190POPC   PO473068  20.566   8.949   5.850
10190POPC   GL173069  20.571   8.929   6.150
10190POPC   GL273070  20.567   9.078   6.150
10190POPC   C1A73071  20.622   8.982   6.450
10190POPC   D2A73072  20.629   8.959   6.750
10190POPC   C3A73073  20.564   8.956   7.050
10190POPC   C4A73074  20.576   8.976   7.350
10190POPC   C1B73075  20.451   9.140   6.450
10190POPC   C2B73076  20.470   9.148   6.750
10190POPC   C3B73077  20.424   9.154   7.050
10190POPC   C4B73078  20.472   9.106   7.350
10191POPC   NC373079  39.232  15.924   5.550
10191POPC   PO473080  39.234  15.916   5.850
10191POPC   GL173081  39.251  15.970   6.150
10191POPC   GL273082  39.273  16.088   6.150
10191POPC   C1A73083  39.240  15.987   6.450
10191POPC   D2A73084  39.188  15.957   6.750
10191POPC   C3A73085  39.206  15.955   7.050
10191POPC   C4A73086  39.257  15.911   7.350
10191POPC   C1B73087  39.432  16.154   6.450
10191POPC   C2B73088  39.401  16.116   6.750
10191POPC   C3B73089  39.366  16.154   7.050
10191POPC   C4B73090  39.391  16.191   7.350
10192POPC   NC373091  24.466   5.876   5.550
10192POPC   PO473092  24.456   5.904   5.850
10192POPC   GL173093  24.512   5.845   6.150
10192POPC   GL273094  24.368   5.747   6.150
10192POPC   C1A73095  24.456   5.919   6.450
10192POPC   D2A73096  24.449   5.887   6.750
10192POPC   C3A73097  24.469   5.884   7.050
10192POPC   C4A73098  24.454   5.890   7.350
10192POPC   C1B73099  24.357   5.713   6.450
10192POPC   C2B73100  24.342   5.681   6.750
10192POPC   C3B73101  24.346   5.701   7.050
10192POPC   C4B73102  24.296   5.651   7.350
10193POPC   NC373103  18.300   5.054   5.550
10193POPC   PO473104  18.292   5.083   5.850
10193POPC   GL173105  18.247   5.095   6.150
10193POPC   GL273106  18.402   5.141   6.150
10193POPC   C1A73107  18.322   5.070   6.450
10193POPC   D2A73108  18.258   5.090   6.750
10193POPC   C3A73109  18.298   5.121   7.050
10193POPC   C4A73110  18.234   5.074   7.350
10193POPC   C1B73111  18.507   5.067   6.450
10193POPC   C2B73112  18.536   5.119   6.750
10193POPC   C3B73113  18.555   5.068   7.050
10193POPC   C4B73114  18.536   5.095   7.350
10194POPC   NC373115   5.053  36.865   5.550
10194POPC   PO473116   5.067  36.930   5.850
10194POPC   GL173117   5.126  36.860   6.150
10194POPC   GL273118   5.012  36.869   6.150
10194POPC   C1A73119   5.108  36.865   6.450
10194POPC   D2A73120   5.078  36.878   6.750
10194POPC   C3A73121   5.103  36.890   7.050
10194POPC   C4A73122   5.098  36.903   7.350
10194POPC   C1B73123   4.871  36.758   6.450
10194POPC   C2B73124   4.919  36.700   6.750
10194POPC   C3B73125   4.867  36.787   7.050
10194POPC   C4B73126   4.897  36.747   7.350
10195POPC   NC373127  17.509   1.995   5.550
10195POPC   PO473128  17.544   1.990   5.850
10195POPC   GL173129  17.528   2.007   6.150
10195POPC   GL273130  17.484   1.845   6.150
10195POPC   C1A73131  17.469   2.031   6.450
10195POPC   D2A73132  17.461   2.009   6.750
10195POPC   C3A73133  17.522   1.987   7.050
10195POPC   C4A73134  17.513   2.015   7.350
10195POPC   C1B73135  17.513   1.743   6.450
10195POPC   C2B73136  17.514   1.749   6.750
10195POPC   C3B73137  17.522   1.716   7.050
10195POPC   C4B73138  17.572   1.792   7.350
10196POPC   NC373139  10.514  27.569   5.550
10196POPC   PO473140  10.544  27.624   5.850
10196POPC   GL173141  10.518  27.566   6.150
10196POPC   GL273142  10.579  27.466   6.150
10196POPC   C1A73143  10.537  27.617   6.450
10196POPC   D2A73144  10.514  27.577   6.750
10196POPC   C3A73145  10.548  27.559   7.050
10196POPC   C4A73146  10.536  27.614   7.350
10196POPC   C1B73147  10.612  27.392   6.450
10196POPC   C2B73148  10.678  27.339   6.750
10196POPC   C3B73149  10.690  27.426   7.050
10196POPC   C4B73150  10.672  27.352   7.350
10197POPC   NC373151   5.840  27.547   5.550
10197POPC   PO473152   5.827  27.625   5.850
10197POPC   GL173153   5.872  27.621   6.150
10197POPC   GL273154   5.906  27.745   6.150
10197POPC   C1A73155   5.872  27.622   6.450
10197POPC   D2A73156   5.876  27.570   6.750
10197POPC   C3A73157   5.831  27.616   7.050
10197POPC   C4A73158   5.856  27.642   7.350
10197POPC   C1B73159   5.951  27.860   6.450
10197POPC   C2B73160   5.937  27.818   6.750
10197POPC   C3B73161   5.958  27.794   7.050
10197POPC   C4B73162   5.906  27.865   7.350
10198POPC   NC373163   9.737   6.654   5.550
10198POPC   PO473164   9.743   6.647   5.850
10198POPC   GL173165   9.794   6.622   6.150
10198POPC   GL273166   9.769   6.497   6.150
10198POPC   C1A73167   9.781   6.647   6.450
10198POPC   D2A73168   9.795   6.601   6.750
10198POPC   C3A73169   9.764   6.654   7.050
10198POPC   C4A73170   9.713   6.617   7.350
10198POPC   C1B73171   9.860   6.450   6.450
10198POPC   C2B73172   9.903   6.382   6.750
10198POPC   C3B73173   9.911   6.439   7.050
10198POPC   C4B73174   9.823   6.434   7.350
10199POPC   NC373175  33.845  38.450   5.550
10199POPC   PO473176  33.774  38.426   5.850
10199POPC   GL173177  33.751  38.439   6.150
10199POPC   GL273178  33.794  38.600   6.150
10199POPC   C1A73179  33.759  38.489   6.450
10199POPC   D2A73180  33.818  38.475   6.750
10199POPC   C3A73181  33.758  38.466   7.050
10199POPC   C4A73182  33.810  38.469   7.350
10199POPC   C1B73183  33.819  38.719   6.450
10199POPC   C2B73184  33.788  38.724   6.750
10199POPC   C3B73185  33.833  38.737   7.050
10199POPC   C4B73186  33.836  38.750   7.350
10200POPC   NC373187  17.512  25.218   5.550
10200POPC   PO473188  17.518  25.269   5.850
10200POPC   GL173189  17.460  25.269   6.150
10200POPC   GL273190  17.604  25.289   6.150
10200POPC   C1A73191  17.479  25.255   6.450
10200POPC   D2A73192  17.507  25.246   6.750
10200POPC   C3A73193  17.525  25.222   7.050
10200POPC   C4A73194  17.502  25.228   7.350
10200POPC   C1B73195  17.709  25.194   6.450
10200POPC   C2B73196  17.770  25.199   6.750
10200POPC   C3B73197  17.748  25.272   7.050
10200POPC   C4B73198  17.794  25.278   7.350
10201POPC   NC373199  22.932  31.487   5.550
10201POPC   PO473200  22.983  31.514   5.850
10201POPC   GL173201  22.900  31.495   6.150
10201POPC   GL273202  22.879  31.562   6.150
10201POPC   C1A73203  22.985  31.472   6.450
10201POPC   D2A73204  22.893  31.519   6.750
10201POPC   C3A73205  22.900  31.437   7.050
10201POPC   C4A73206  22.916  31.513   7.350
10201POPC   C1B73207  22.744  31.673   6.450
10201POPC   C2B73208  22.772  31.681   6.750
10201POPC   C3B73209  22.792  31.676   7.050
10201POPC   C4B73210  22.837  31.633   7.350
10202POPC   NC373211  16.711  38.425   5.550
10202POPC   PO473212  16.689  38.440   5.850
10202POPC   GL173213  16.772  38.434   6.150
10202POPC   GL273214  16.629  38.447   6.150
10202POPC   C1A73215  16.728  38.493   6.450
10202POPC   D2A73216  16.700  38.465   6.750
10202POPC   C3A73217  16.757  38.487   7.050
10202POPC   C4A73218  16.682  38.477   7.350
10202POPC   C1B73219  16.453  38.429   6.450
10202POPC   C2B73220  16.484  38.430   6.750
10202POPC   C3B73221  16.506  38.375   7.050
10202POPC   C4B73222  16.532  38.366   7.350
10203POPC   NC373223  22.952  14.405   5.550
10203POPC   PO473224  22.980  14.452   5.850
10203POPC   GL173225  22.985  14.398   6.150
10203POPC   GL273226  23.077  14.388   6.150
10203POPC   C1A73227  22.889  14.365   6.450
10203POPC   D2A73228  22.941  14.449   6.750
10203POPC   C3A73229  22.932  14.447   7.050
10203POPC   C4A73230  22.923  14.448   7.350
10203POPC   C1B73231  23.154  14.446   6.450
10203POPC   C2B73232  23.158  14.462   6.750
10203POPC   C3B73233  23.179  14.391   7.050
10203POPC   C4B73234  23.157  14.464   7.350
10204POPC   NC373235   2.029  11.278   5.550
10204POPC   PO473236   2.023  11.309   5.850
10204POPC   GL173237   1.987  11.254   6.150
10204POPC   GL273238   2.160  11.335   6.150
10204POPC   C1A73239   2.010  11.274   6.450
10204POPC   D2A73240   1.983  11.343   6.750
10204POPC   C3A73241   2.011  11.328   7.050
10204POPC   C4A73242   1.946  11.321   7.350
10204POPC   C1B73243   2.219  11.401   6.450
10204POPC   C2B73244   2.240  11.333   6.750
10204POPC   C3B73245   2.278  11.335   7.050
10204POPC   C4B73246   2.218  11.396   7.350
10205POPC   NC373247  19.879  26.008   5.550
10205POPC   PO473248  19.789  26.052   5.850
10205POPC   GL173249  19.812  26.043   6.150
10205POPC   GL273250  19.814  25.888   6.150
10205POPC   C1A73251  19.843  26.083   6.450
10205POPC   D2A73252  19.799  26.044   6.750
10205POPC   C3A73253  19.798  26.014   7.050
10205POPC   C4A73254  19.787  26.010   7.350
10205POPC   C1B73255  19.807  25.813   6.450
10205POPC   C2B73256  19.814  25.757   6.750
10205POPC   C3B73257  19.865  25.765   7.050
10205POPC   C4B73258  19.800  25.764   7.350
10206POPC   NC373259  40.049   5.909   5.550
10206POPC   PO473260  39.977   5.918   5.850
10206POPC   GL173261  39.981   5.891   6.150
10206POPC   GL273262  39.870   5.898   6.150
10206POPC   C1A73263  39.977   5.829   6.450
10206POPC   D2A73264  40.008   5.834   6.750
10206POPC   C3A73265  40.026   5.894   7.050
10206POPC   C4A73266  40.055   5.847   7.350
10206POPC   C1B73267  39.744   6.000   6.450
10206POPC   C2B73268  39.810   5.941   6.750
10206POPC   C3B73269  39.826   5.964   7.050
10206POPC   C4B73270  39.835   6.006   7.350
10207POPC   NC373271  21.401  19.049   5.550
10207POPC   PO473272  21.356  19.025   5.850
10207POPC   GL173273  21.410  19.038   6.150
10207POPC   GL273274  21.509  19.076   6.150
10207POPC   C1A73275  21.378  19.089   6.450
10207POPC   D2A73276  21.415  19.076   6.750
10207POPC   C3A73277  21.370  19.048   7.050
10207POPC   C4A73278  21.396  19.088   7.350
10207POPC   C1B73279  21.619  19.017   6.450
10207POPC   C2B73280  21.618  19.026   6.750
10207POPC   C3B73281  21.655  18.976   7.050
10207POPC   C4B73282  21.610  19.051   7.350
10208POPC   NC373283   5.819   3.532   5.550
10208POPC   PO473284   5.897   3.537   5.850
10208POPC   GL173285   5.891   3.498   6.150
10208POPC   GL273286   5.955   3.626   6.150
10208POPC   C1A73287   5.823   3.568   6.450
10208POPC   D2A73288   5.843   3.536   6.750
10208POPC   C3A73289   5.877   3.524   7.050
10208POPC   C4A73290   5.821   3.500   7.350
10208POPC   C1B73291   6.094   3.666   6.450
10208POPC   C2B73292   6.034   3.728   6.750
10208POPC   C3B73293   6.046   3.673   7.050
10208POPC   C4B73294   6.072   3.644   7.350
10209POPC   NC373295  19.858  26.839   5.550
10209POPC   PO473296  19.827  26.825   5.850
10209POPC   GL173297  19.838  26.838   6.150
10209POPC   GL273298  19.974  26.813   6.150
10209POPC   C1A73299  19.813  26.786   6.450
10209POPC   D2A73300  19.854  26.771   6.750
10209POPC   C3A73301  19.841  26.818   7.050
10209POPC   C4A73302  19.799  26.794   7.350
10209POPC   C1B73303  20.049  26.923   6.450
10209POPC   C2B73304  20.055  26.890   6.750
10209POPC   C3B73305  20.050  26.926   7.050
10209POPC   C4B73306  20.114  26.925   7.350
10210POPC   NC373307  38.478  15.203   5.550
10210POPC   PO473308  38.436  15.160   5.850
10210POPC   GL173309  38.452  15.164   6.150
10210POPC   GL273310  38.369  15.190   6.150
10210POPC   C1A73311  38.463  15.166   6.450
10210POPC   D2A73312  38.431  15.195   6.750
10210POPC   C3A73313  38.482  15.179   7.050
10210POPC   C4A73314  38.451  15.175   7.350
10210POPC   C1B73315  38.246  15.111   6.450
10210POPC   C2B73316  38.234  15.145   6.750
10210POPC   C3B73317  38.234  15.113   7.050
10210POPC   C4B73318  38.211  15.137   7.350
10211POPC   NC373319   2.768  39.968   5.550
10211POPC   PO473320   2.742  39.975   5.850
10211POPC   GL173321   2.742  39.963   6.150
10211POPC   GL273322   2.870  39.928   6.150
10211POPC   C1A73323   2.755  39.963   6.450
10211POPC   D2A73324   2.747  39.963   6.750
10211POPC   C3A73325   2.771  39.960   7.050
10211POPC   C4A73326   2.767  39.974   7.350
10211POPC   C1B73327   2.905  39.820   6.450
10211POPC   C2B73328   2.913  39.825   6.750
10211POPC   C3B73329   2.968  39.840   7.050
10211POPC   C4B73330   2.984  39.861   7.350
10212POPC   NC373331  43.903  14.436   5.550
10212POPC   PO473332  43.854  14.357   5.850
10212POPC   GL173333  43.924  14.358   6.150
10212POPC   GL273334  43.828  14.443   6.150
10212POPC   C1A73335  43.877  14.379   6.450
10212POPC   D2A73336  43.935  14.373   6.750
10212POPC   C3A73337  43.875  14.441   7.050
10212POPC   C4A73338  43.841  14.445   7.350
10212POPC   C1B73339  43.628  14.496   6.450
10212POPC   C2B73340  43.666  14.572   6.750
10212POPC   C3B73341  43.648  14.588   7.050
10212POPC   C4B73342  43.716  14.521   7.350
10213POPC   NC373343  39.184  39.267   5.550
10213POPC   PO473344  39.261  39.272   5.850
10213POPC   GL173345  39.196  39.243   6.150
10213POPC   GL273346  39.107  39.233   6.150
10213POPC   C1A73347  39.233  39.243   6.450
10213POPC   D2A73348  39.266  39.205   6.750
10213POPC   C3A73349  39.254  39.198   7.050
10213POPC   C4A73350  39.230  39.199   7.350
10213POPC   C1B73351  38.951  39.265   6.450
10213POPC   C2B73352  38.934  39.228   6.750
10213POPC   C3B73353  38.987  39.232   7.050
10213POPC   C4B73354  39.016  39.276   7.350
10214POPC   NC373355  15.922  13.666   5.550
10214POPC   PO473356  15.925  13.623   5.850
10214POPC   GL173357  15.909  13.596   6.150
10214POPC   GL273358  15.818  13.647   6.150
10214POPC   C1A73359  15.916  13.625   6.450
10214POPC   D2A73360  15.935  13.618   6.750
10214POPC   C3A73361  15.960  13.634   7.050
10214POPC   C4A73362  15.989  13.677   7.350
10214POPC   C1B73363  15.703  13.680   6.450
10214POPC   C2B73364  15.756  13.696   6.750
10214POPC   C3B73365  15.719  13.693   7.050
10214POPC   C4B73366  15.688  13.716   7.350
10215POPC   NC373367   8.246  26.084   5.550
10215POPC   PO473368   8.211  26.069   5.850
10215POPC   GL173369   8.184  26.082   6.150
10215POPC   GL273370   8.272  25.912   6.150
10215POPC   C1A73371   8.223  26.071   6.450
10215POPC   D2A73372   8.230  26.060   6.750
10215POPC   C3A73373   8.227  26.053   7.050
10215POPC   C4A73374   8.204  26.045   7.350
10215POPC   C1B73375   8.384  25.867   6.450
10215POPC   C2B73376   8.350  25.908   6.750
10215POPC   C3B73377   8.329  25.838   7.050
10215POPC   C4B73378   8.341  25.876   7.350
10216POPC   NC373379  26.025  36.167   5.550
10216POPC   PO473380  26.040  36.160   5.850
10216POPC   GL173381  26.087  36.134   6.150
10216POPC   GL273382  26.067  36.215   6.150
10216POPC   C1A73383  26.046  36.133   6.450
10216POPC   D2A73384  26.058  36.176   6.750
10216POPC   C3A73385  25.997  36.106   7.050
10216POPC   C4A73386  26.052  36.120   7.350
10216POPC   C1B73387  26.090  36.387   6.450
10216POPC   C2B73388  26.046  36.416   6.750
10216POPC   C3B73389  26.049  36.370   7.050
10216POPC   C4B73390  26.116  36.383   7.350
10217POPC   NC373391  39.206  11.277   5.550
10217POPC   PO473392  39.248  11.321   5.850
10217POPC   GL173393  39.226  11.275   6.150
10217POPC   GL273394  39.262  11.249   6.150
10217POPC   C1A73395  39.200  11.325   6.450
10217POPC   D2A73396  39.205  11.253   6.750
10217POPC   C3A73397  39.183  11.264   7.050
10217POPC   C4A73398  39.259  11.254   7.350
10217POPC   C1B73399  39.353  11.146   6.450
10217POPC   C2B73400  39.353  11.053   6.750
10217POPC   C3B73401  39.388  11.106   7.050
10217POPC   C4B73402  39.352  11.066   7.350
10218POPC   NC373403  17.528   0.442   5.550
10218POPC   PO473404  17.557   0.467   5.850
10218POPC   GL173405  17.467   0.426   6.150
10218POPC   GL273406  17.510   0.507   6.150
10218POPC   C1A73407  17.534   0.424   6.450
10218POPC   D2A73408  17.542   0.477   6.750
10218POPC   C3A73409  17.476   0.422   7.050
10218POPC   C4A73410  17.490   0.484   7.350
10218POPC   C1B73411  17.428   0.707   6.450
10218POPC   C2B73412  17.449   0.644   6.750
10218POPC   C3B73413  17.401   0.646   7.050
10218POPC   C4B73414  17.402   0.692   7.350
10219POPC   NC373415  23.718   0.469   5.550
10219POPC   PO473416  23.682   0.466   5.850
10219POPC   GL173417  23.689   0.475   6.150
10219POPC   GL273418  23.621   0.398   6.150
10219POPC   C1A73419  23.704   0.435   6.450
10219POPC   D2A73420  23.677   0.418   6.750
10219POPC   C3A73421  23.702   0.464   7.050
10219POPC   C4A73422  23.710   0.458   7.350
10219POPC   C1B73423  23.529   0.342   6.450
10219POPC   C2B73424  23.440   0.295   6.750
10219POPC   C3B73425  23.497   0.349   7.050
10219POPC   C4B73426  23.506   0.370   7.350
10220POPC   NC373427  37.706   9.787   5.550
10220POPC   PO473428  37.691   9.782   5.850
10220POPC   GL173429  37.666   9.703   6.150
10220POPC   GL273430  37.555   9.798   6.150
10220POPC   C1A73431  37.675   9.713   6.450
10220POPC   D2A73432  37.693   9.788   6.750
10220POPC   C3A73433  37.656   9.764   7.050
10220POPC   C4A73434  37.650   9.711   7.350
10220POPC   C1B73435  37.542   9.931   6.450
10220POPC   C2B73436  37.469   9.951   6.750
10220POPC   C3B73437  37.483   9.952   7.050
10220POPC   C4B73438  37.533   9.899   7.350
10221POPC   NC373439  22.140  20.566   5.550
10221POPC   PO473440  22.143  20.634   5.850
10221POPC   GL173441  22.156  20.652   6.150
10221POPC   GL273442  22.171  20.541   6.150
10221POPC   C1A73443  22.130  20.593   6.450
10221POPC   D2A73444  22.138  20.623   6.750
10221POPC   C3A73445  22.176  20.635   7.050
10221POPC   C4A73446  22.211  20.604   7.350
10221POPC   C1B73447  22.318  20.341   6.450
10221POPC   C2B73448  22.255  20.417   6.750
10221POPC   C3B73449  22.253  20.403   7.050
10221POPC   C4B73450  22.235  20.386   7.350
10222POPC   NC373451  32.987  19.080   5.550
10222POPC   PO473452  33.017  19.030   5.850
10222POPC   GL173453  33.069  19.036   6.150
10222POPC   GL273454  33.143  19.095   6.150
10222POPC   C1A73455  33.002  19.042   6.450
10222POPC   D2A73456  33.062  19.032   6.750
10222POPC   C3A73457  33.039  19.105   7.050
10222POPC   C4A73458  33.010  19.044   7.350
10222POPC   C1B73459  33.236  19.170   6.450
10222POPC   C2B73460  33.261  19.144   6.750
10222POPC   C3B73461  33.248  19.145   7.050
10222POPC   C4B73462  33.280  19.214   7.350
10223POPC   NC373463  17.518  20.588   5.550
10223POPC   PO473464  17.554  20.634   5.850
10223POPC   GL173465  17.496  20.589   6.150
10223POPC   GL273466  17.626  20.623   6.150
10223POPC   C1A73467  17.468  20.600   6.450
10223POPC   D2A73468  17.494  20.614   6.750
10223POPC   C3A73469  17.532  20.590   7.050
10223POPC   C4A73470  17.494  20.591   7.350
10223POPC   C1B73471  17.749  20.644   6.450
10223POPC   C2B73472  17.761  20.646   6.750
10223POPC   C3B73473  17.711  20.669   7.050
10223POPC   C4B73474  17.755  20.607   7.350
10224POPC   NC373475  25.251  20.655   5.550
10224POPC   PO473476  25.293  20.641   5.850
10224POPC   GL173477  25.230  20.629   6.150
10224POPC   GL273478  25.155  20.579   6.150
10224POPC   C1A73479  25.249  20.601   6.450
10224POPC   D2A73480  25.310  20.641   6.750
10224POPC   C3A73481  25.247  20.578   7.050
10224POPC   C4A73482  25.286  20.569   7.350
10224POPC   C1B73483  25.028  20.523   6.450
10224POPC   C2B73484  25.019  20.543   6.750
10224POPC   C3B73485  24.982  20.539   7.050
10224POPC   C4B73486  25.022  20.567   7.350
10225POPC   NC373487   5.136  42.316   5.550
10225POPC   PO473488   5.107  42.381   5.850
10225POPC   GL173489   5.079  42.314   6.150
10225POPC   GL273490   5.216  42.469   6.150
10225POPC   C1A73491   5.143  42.380   6.450
10225POPC   D2A73492   5.077  42.289   6.750
10225POPC   C3A73493   5.095  42.339   7.050
10225POPC   C4A73494   5.072  42.290   7.350
10225POPC   C1B73495   5.289  42.554   6.450
10225POPC   C2B73496   5.240  42.559   6.750
10225POPC   C3B73497   5.252  42.471   7.050
10225POPC   C4B73498   5.275  42.504   7.350
10226POPC   NC373499   5.911  28.325   5.550
10226POPC   PO473500   5.836  28.381   5.850
10226POPC   GL173501   5.848  28.386   6.150
10226POPC   GL273502   5.954  28.285   6.150
10226POPC   C1A73503   5.858  28.387   6.450
10226POPC   D2A73504   5.893  28.359   6.750
10226POPC   C3A73505   5.836  28.337   7.050
10226POPC   C4A73506   5.906  28.349   7.350
10226POPC   C1B73507   6.061  28.228   6.450
10226POPC   C2B73508   6.055  28.215   6.750
10226POPC   C3B73509   6.103  28.205   7.050
10226POPC   C4B73510   6.124  28.286   7.350
10227POPC   NC373511   8.228  28.383   5.550
10227POPC   PO473512   8.243  28.374   5.850
10227POPC   GL173513   8.182  28.349   6.150
10227POPC   GL273514   8.268  28.451   6.150
10227POPC   C1A73515   8.217  28.344   6.450
10227POPC   D2A73516   8.200  28.323   6.750
10227POPC   C3A73517   8.160  28.364   7.050
10227POPC   C4A73518   8.229  28.346   7.350
10227POPC   C1B73519   8.269  28.577   6.450
10227POPC   C2B73520   8.323  28.618   6.750
10227POPC   C3B73521   8.333  28.615   7.050
10227POPC   C4B73522   8.342  28.638   7.350
10228POPC   NC373523  43.845  12.842   5.550
10228POPC   PO473524  43.915  12.890   5.850
10228POPC   GL173525  43.898  12.885   6.150
10228POPC   GL273526  43.967  12.969   6.150
10228POPC   C1A73527  43.888  12.816   6.450
10228POPC   D2A73528  43.904  12.856   6.750
10228POPC   C3A73529  43.922  12.900   7.050
10228POPC   C4A73530  43.888  12.818   7.350
10228POPC   C1B73531  43.991  13.026   6.450
10228POPC   C2B73532  44.037  13.064   6.750
10228POPC   C3B73533  43.997  13.035   7.050
10228POPC   C4B73534  44.058  13.108   7.350
10229POPC   NC373535  32.267  29.901   5.550
10229POPC   PO473536  32.234  29.906   5.850
10229POPC   GL173537  32.217  29.892   6.150
10229POPC   GL273538  32.202  30.043   6.150
10229POPC   C1A73539  32.235  29.902   6.450
10229POPC   D2A73540  32.232  29.874   6.750
10229POPC   C3A73541  32.256  29.940   7.050
10229POPC   C4A73542  32.265  29.914   7.350
10229POPC   C1B73543  32.128  30.102   6.450
10229POPC   C2B73544  32.044  30.114   6.750
10229POPC   C3B73545  32.100  30.111   7.050
10229POPC   C4B73546  32.130  30.101   7.350
10230POPC   NC373547  34.587  36.128   5.550
10230POPC   PO473548  34.563  36.171   5.850
10230POPC   GL173549  34.550  36.122   6.150
10230POPC   GL273550  34.647  36.090   6.150
10230POPC   C1A73551  34.626  36.109   6.450
10230POPC   D2A73552  34.567  36.081   6.750
10230POPC   C3A73553  34.563  36.113   7.050
10230POPC   C4A73554  34.617  36.132   7.350
10230POPC   C1B73555  34.750  35.940   6.450
10230POPC   C2B73556  34.745  36.002   6.750
10230POPC   C3B73557  34.747  35.980   7.050
10230POPC   C4B73558  34.781  35.932   7.350
10231POPC   NC373559  42.291  42.314   5.550
10231POPC   PO473560  42.333  42.368   5.850
10231POPC   GL173561  42.379  42.352   6.150
10231POPC   GL273562  42.423  42.446   6.150
10231POPC   C1A73563  42.303  42.384   6.450
10231POPC   D2A73564  42.327  42.322   6.750
10231POPC   C3A73565  42.289  42.342   7.050
10231POPC   C4A73566  42.327  42.328   7.350
10231POPC   C1B73567  42.564  42.505   6.450
10231POPC   C2B73568  42.588  42.461   6.750
10231POPC   C3B73569  42.553  42.504   7.050
10231POPC   C4B73570  42.565  42.473   7.350
10232POPC   NC373571   1.196  43.898   5.550
10232POPC   PO473572   1.176  43.896   5.850
10232POPC   GL173573   1.178  43.903   6.150
10232POPC   GL273574   1.154  43.747   6.150
10232POPC   C1A73575   1.242  43.862   6.450
10232POPC   D2A73576   1.247  43.843   6.750
10232POPC   C3A73577   1.244  43.854   7.050
10232POPC   C4A73578   1.171  43.841   7.350
10232POPC   C1B73579   1.072  43.714   6.450
10232POPC   C2B73580   1.035  43.729   6.750
10232POPC   C3B73581   1.068  43.691   7.050
10232POPC   C4B73582   1.066  43.732   7.350
10233POPC   NC373583  12.872  23.737   5.550
10233POPC   PO473584  12.887  23.688   5.850
10233POPC   GL173585  12.884  23.684   6.150
10233POPC   GL273586  12.723  23.649   6.150
10233POPC   C1A73587  12.860  23.672   6.450
10233POPC   D2A73588  12.819  23.724   6.750
10233POPC   C3A73589  12.857  23.691   7.050
10233POPC   C4A73590  12.869  23.689   7.350
10233POPC   C1B73591  12.661  23.582   6.450
10233POPC   C2B73592  12.590  23.567   6.750
10233POPC   C3B73593  12.587  23.548   7.050
10233POPC   C4B73594  12.649  23.629   7.350
10234POPC   NC373595  40.733  27.616   5.550
10234POPC   PO473596  40.757  27.633   5.850
10234POPC   GL173597  40.735  27.547   6.150
10234POPC   GL273598  40.889  27.598   6.150
10234POPC   C1A73599  40.794  27.602   6.450
10234POPC   D2A73600  40.779  27.584   6.750
10234POPC   C3A73601  40.822  27.614   7.050
10234POPC   C4A73602  40.756  27.564   7.350
10234POPC   C1B73603  41.052  27.636   6.450
10234POPC   C2B73604  41.060  27.678   6.750
10234POPC   C3B73605  41.002  27.665   7.050
10234POPC   C4B73606  41.055  27.690   7.350
10235POPC   NC373607  44.707  14.372   5.550
10235POPC   PO473608  44.666  14.403   5.850
10235POPC   GL173609  44.643  14.367   6.150
10235POPC   GL273610  44.569  14.414   6.150
10235POPC   C1A73611  44.655  14.380   6.450
10235POPC   D2A73612  44.683  14.427   6.750
10235POPC   C3A73613  44.679  14.374   7.050
10235POPC   C4A73614  44.662  14.389   7.350
10235POPC   C1B73615  44.416  14.384   6.450
10235POPC   C2B73616  44.395  14.442   6.750
10235POPC   C3B73617  44.459  14.409   7.050
10235POPC   C4B73618  44.382  14.465   7.350
10236POPC   NC373619  15.943  29.894   5.550
10236POPC   PO473620  15.998  29.953   5.850
10236POPC   GL173621  15.920  29.959   6.150
10236POPC   GL273622  15.813  29.832   6.150
10236POPC   C1A73623  15.940  29.874   6.450
10236POPC   D2A73624  15.974  29.887   6.750
10236POPC   C3A73625  15.970  29.934   7.050
10236POPC   C4A73626  15.911  29.880   7.350
10236POPC   C1B73627  15.784  29.794   6.450
10236POPC   C2B73628  15.766  29.774   6.750
10236POPC   C3B73629  15.781  29.803   7.050
10236POPC   C4B73630  15.786  29.817   7.350
10237POPC   NC373631  25.278  12.071   5.550
10237POPC   PO473632  25.243  12.032   5.850
10237POPC   GL173633  25.248  12.098   6.150
10237POPC   GL273634  25.332  12.007   6.150
10237POPC   C1A73635  25.224  12.106   6.450
10237POPC   D2A73636  25.274  12.096   6.750
10237POPC   C3A73637  25.311  12.123   7.050
10237POPC   C4A73638  25.299  12.096   7.350
10237POPC   C1B73639  25.446  11.876   6.450
10237POPC   C2B73640  25.411  11.898   6.750
10237POPC   C3B73641  25.499  11.930   7.050
10237POPC   C4B73642  25.425  11.961   7.350
10238POPC   NC373643  37.659  14.444   5.550
10238POPC   PO473644  37.729  14.448   5.850
10238POPC   GL173645  37.664  14.366   6.150
10238POPC   GL273646  37.541  14.447   6.150
10238POPC   C1A73647  37.702  14.362   6.450
10238POPC   D2A73648  37.680  14.408   6.750
10238POPC   C3A73649  37.719  14.354   7.050
10238POPC   C4A73650  37.669  14.368   7.350
10238POPC   C1B73651  37.466  14.557   6.450
10238POPC   C2B73652  37.485  14.554   6.750
10238POPC   C3B73653  37.490  14.576   7.050
10238POPC   C4B73654  37.443  14.559   7.350
10239POPC   NC373655  16.747  24.522   5.550
10239POPC   PO473656  16.710  24.490   5.850
10239POPC   GL173657  16.769  24.473   6.150
10239POPC   GL273658  16.627  24.549   6.150
10239POPC   C1A73659  16.759  24.514   6.450
10239POPC   D2A73660  16.777  24.458   6.750
10239POPC   C3A73661  16.686  24.446   7.050
10239POPC   C4A73662  16.698  24.475   7.350
10239POPC   C1B73663  16.454  24.611   6.450
10239POPC   C2B73664  16.511  24.552   6.750
10239POPC   C3B73665  16.493  24.570   7.050
10239POPC   C4B73666  16.521  24.549   7.350
10240POPC   NC373667  12.888  14.444   5.550
10240POPC   PO473668  12.814  14.423   5.850
10240POPC   GL173669  12.878  14.415   6.150
10240POPC   GL273670  12.779  14.310   6.150
10240POPC   C1A73671  12.865  14.380   6.450
10240POPC   D2A73672  12.865  14.426   6.750
10240POPC   C3A73673  12.853  14.372   7.050
10240POPC   C4A73674  12.887  14.438   7.350
10240POPC   C1B73675  12.787  14.191   6.450
10240POPC   C2B73676  12.798  14.163   6.750
10240POPC   C3B73677  12.792  14.201   7.050
10240POPC   C4B73678  12.811  14.198   7.350
10241POPC   NC373679  37.636   8.213   5.550
10241POPC   PO473680  37.630   8.198   5.850
10241POPC   GL173681  37.699   8.158   6.150
10241POPC   GL273682  37.784   8.269   6.150
10241POPC   C1A73683  37.643   8.164   6.450
10241POPC   D2A73684  37.657   8.187   6.750
10241POPC   C3A73685  37.667   8.220   7.050
10241POPC   C4A73686  37.643   8.242   7.350
10241POPC   C1B73687  37.901   8.311   6.450
10241POPC   C2B73688  37.962   8.326   6.750
10241POPC   C3B73689  37.948   8.270   7.050
10241POPC   C4B73690  37.937   8.316   7.350
10242POPC   NC373691   4.279  33.791   5.550
10242POPC   PO473692   4.345  33.754   5.850
10242POPC   GL173693   4.347  33.844   6.150
10242POPC   GL273694   4.334  33.912   6.150
10242POPC   C1A73695   4.316  33.818   6.450
10242POPC   D2A73696   4.278  33.783   6.750
10242POPC   C3A73697   4.366  33.830   7.050
10242POPC   C4A73698   4.284  33.838   7.350
10242POPC   C1B73699   4.254  34.078   6.450
10242POPC   C2B73700   4.229  34.073   6.750
10242POPC   C3B73701   4.269  34.055   7.050
10242POPC   C4B73702   4.293  34.061   7.350
10243POPC   NC373703  22.958  15.999   5.550
10243POPC   PO473704  22.894  15.989   5.850
10243POPC   GL173705  22.984  15.980   6.150
10243POPC   GL273706  22.823  15.881   6.150
10243POPC   C1A73707  22.922  15.998   6.450
10243POPC   D2A73708  22.931  15.940   6.750
10243POPC   C3A73709  22.966  15.938   7.050
10243POPC   C4A73710  22.964  15.918   7.350
10243POPC   C1B73711  22.753  15.750   6.450
10243POPC   C2B73712  22.786  15.725   6.750
10243POPC   C3B73713  22.743  15.746   7.050
10243POPC   C4B73714  22.797  15.749   7.350
10244POPC   NC373715   9.751  36.098   5.550
10244POPC   PO473716   9.703  36.093   5.850
10244POPC   GL173717   9.794  36.133   6.150
10244POPC   GL273718   9.652  36.254   6.150
10244POPC   C1A73719   9.731  36.109   6.450
10244POPC   D2A73720   9.771  36.105   6.750
10244POPC   C3A73721   9.728  36.102   7.050
10244POPC   C4A73722   9.793  36.099   7.350
10244POPC   C1B73723   9.607  36.275   6.450
10244POPC   C2B73724   9.598  36.265   6.750
10244POPC   C3B73725   9.512  36.326   7.050
10244POPC   C4B73726   9.537  36.246   7.350
10245POPC   NC373727  30.671  26.831   5.550
10245POPC   PO473728  30.647  26.821   5.850
10245POPC   GL173729  30.657  26.866   6.150
10245POPC   GL273730  30.723  26.645   6.150
10245POPC   C1A73731  30.700  26.857   6.450
10245POPC   D2A73732  30.660  26.768   6.750
10245POPC   C3A73733  30.701  26.840   7.050
10245POPC   C4A73734  30.730  26.783   7.350
10245POPC   C1B73735  30.669  26.541   6.450
10245POPC   C2B73736  30.619  26.562   6.750
10245POPC   C3B73737  30.691  26.596   7.050
10245POPC   C4B73738  30.673  26.559   7.350
10246POPC   NC373739   4.294  16.004   5.550
10246POPC   PO473740   4.333  15.906   5.850
10246POPC   GL173741   4.340  15.965   6.150
10246POPC   GL273742   4.367  16.063   6.150
10246POPC   C1A73743   4.351  15.933   6.450
10246POPC   D2A73744   4.358  15.916   6.750
10246POPC   C3A73745   4.338  15.971   7.050
10246POPC   C4A73746   4.344  15.909   7.350
10246POPC   C1B73747   4.354  16.168   6.450
10246POPC   C2B73748   4.354  16.236   6.750
10246POPC   C3B73749   4.338  16.244   7.050
10246POPC   C4B73750   4.362  16.197   7.350
10247POPC   NC373751  12.819  29.128   5.550
10247POPC   PO473752  12.856  29.157   5.850
10247POPC   GL173753  12.815  29.118   6.150
10247POPC   GL273754  12.888  28.981   6.150
10247POPC   C1A73755  12.859  29.127   6.450
10247POPC   D2A73756  12.900  29.177   6.750
10247POPC   C3A73757  12.881  29.162   7.050
10247POPC   C4A73758  12.816  29.146   7.350
10247POPC   C1B73759  12.909  28.875   6.450
10247POPC   C2B73760  12.958  28.915   6.750
10247POPC   C3B73761  12.897  28.948   7.050
10247POPC   C4B73762  12.938  28.879   7.350
10248POPC   NC373763  40.744   8.949   5.550
10248POPC   PO473764  40.775   8.963   5.850
10248POPC   GL173765  40.749   9.012   6.150
10248POPC   GL273766  40.688   9.031   6.150
10248POPC   C1A73767  40.743   8.926   6.450
10248POPC   D2A73768  40.755   9.014   6.750
10248POPC   C3A73769  40.756   8.991   7.050
10248POPC   C4A73770  40.820   8.966   7.350
10248POPC   C1B73771  40.623   9.151   6.450
10248POPC   C2B73772  40.611   9.144   6.750
10248POPC   C3B73773  40.619   9.137   7.050
10248POPC   C4B73774  40.644   9.137   7.350
10249POPC   NC373775  10.552  22.197   5.550
10249POPC   PO473776  10.560  22.196   5.850
10249POPC   GL173777  10.512  22.164   6.150
10249POPC   GL273778  10.680  22.167   6.150
10249POPC   C1A73779  10.477  22.130   6.450
10249POPC   D2A73780  10.561  22.143   6.750
10249POPC   C3A73781  10.485  22.130   7.050
10249POPC   C4A73782  10.513  22.147   7.350
10249POPC   C1B73783  10.806  22.202   6.450
10249POPC   C2B73784  10.787  22.201   6.750
10249POPC   C3B73785  10.778  22.216   7.050
10249POPC   C4B73786  10.770  22.175   7.350
10250POPC   NC373787  38.425   2.792   5.550
10250POPC   PO473788  38.498   2.719   5.850
10250POPC   GL173789  38.472   2.781   6.150
10250POPC   GL273790  38.534   2.844   6.150
10250POPC   C1A73791  38.437   2.743   6.450
10250POPC   D2A73792  38.418   2.789   6.750
10250POPC   C3A73793  38.437   2.759   7.050
10250POPC   C4A73794  38.455   2.813   7.350
10250POPC   C1B73795  38.699   2.885   6.450
10250POPC   C2B73796  38.708   2.803   6.750
10250POPC   C3B73797  38.678   2.816   7.050
10250POPC   C4B73798  38.715   2.842   7.350
10251POPC   NC373799  18.325   8.154   5.550
10251POPC   PO473800  18.267   8.223   5.850
10251POPC   GL173801  18.251   8.222   6.150
10251POPC   GL273802  18.333   8.258   6.150
10251POPC   C1A73803  18.256   8.170   6.450
10251POPC   D2A73804  18.261   8.179   6.750
10251POPC   C3A73805  18.251   8.245   7.050
10251POPC   C4A73806  18.279   8.218   7.350
10251POPC   C1B73807  18.429   8.352   6.450
10251POPC   C2B73808  18.514   8.371   6.750
10251POPC   C3B73809  18.457   8.378   7.050
10251POPC   C4B73810  18.446   8.369   7.350
10252POPC   NC373811  11.286   0.413   5.550
10252POPC   PO473812  11.303   0.424   5.850
10252POPC   GL173813  11.302   0.449   6.150
10252POPC   GL273814  11.340   0.605   6.150
10252POPC   C1A73815  11.263   0.398   6.450
10252POPC   D2A73816  11.291   0.433   6.750
10252POPC   C3A73817  11.347   0.454   7.050
10252POPC   C4A73818  11.318   0.428   7.350
10252POPC   C1B73819  11.416   0.690   6.450
10252POPC   C2B73820  11.347   0.669   6.750
10252POPC   C3B73821  11.346   0.683   7.050
10252POPC   C4B73822  11.336   0.629   7.350
10253POPC   NC373823  42.334  16.749   5.550
10253POPC   PO473824  42.375  16.712   5.850
10253POPC   GL173825  42.313  16.719   6.150
10253POPC   GL273826  42.425  16.675   6.150
10253POPC   C1A73827  42.347  16.731   6.450
10253POPC   D2A73828  42.298  16.772   6.750
10253POPC   C3A73829  42.327  16.729   7.050
10253POPC   C4A73830  42.317  16.690   7.350
10253POPC   C1B73831  42.608  16.578   6.450
10253POPC   C2B73832  42.535  16.667   6.750
10253POPC   C3B73833  42.562  16.613   7.050
10253POPC   C4B73834  42.530  16.602   7.350
10254POPC   NC373835   9.020  41.574   5.550
10254POPC   PO473836   8.998  41.582   5.850
10254POPC   GL173837   8.948  41.517   6.150
10254POPC   GL273838   8.969  41.468   6.150
10254POPC   C1A73839   8.924  41.576   6.450
10254POPC   D2A73840   8.954  41.542   6.750
10254POPC   C3A73841   8.998  41.572   7.050
10254POPC   C4A73842   9.022  41.564   7.350
10254POPC   C1B73843   8.933  41.359   6.450
10254POPC   C2B73844   8.962  41.300   6.750
10254POPC   C3B73845   8.946  41.308   7.050
10254POPC   C4B73846   8.961  41.286   7.350
10255POPC   NC373847  31.490   0.399   5.550
10255POPC   PO473848  31.482   0.461   5.850
10255POPC   GL173849  31.504   0.474   6.150
10255POPC   GL273850  31.531   0.386   6.150
10255POPC   C1A73851  31.431   0.422   6.450
10255POPC   D2A73852  31.518   0.445   6.750
10255POPC   C3A73853  31.470   0.486   7.050
10255POPC   C4A73854  31.479   0.437   7.350
10255POPC   C1B73855  31.652   0.209   6.450
10255POPC   C2B73856  31.595   0.262   6.750
10255POPC   C3B73857  31.602   0.207   7.050
10255POPC   C4B73858  31.663   0.237   7.350
10256POPC   NC373859  29.144   0.457   5.550
10256POPC   PO473860  29.163   0.414   5.850
10256POPC   GL173861  29.138   0.473   6.150
10256POPC   GL273862  29.019   0.346   6.150
10256POPC   C1A73863  29.137   0.400   6.450
10256POPC   D2A73864  29.127   0.465   6.750
10256POPC   C3A73865  29.133   0.474   7.050
10256POPC   C4A73866  29.124   0.413   7.350
10256POPC   C1B73867  28.909   0.274   6.450
10256POPC   C2B73868  28.980   0.304   6.750
10256POPC   C3B73869  28.908   0.263   7.050
10256POPC   C4B73870  28.901   0.261   7.350
10257POPC   NC373871  36.924  26.786   5.550
10257POPC   PO473872  36.869  26.837   5.850
10257POPC   GL173873  36.933  26.833   6.150
10257POPC   GL273874  36.916  26.730   6.150
10257POPC   C1A73875  36.860  26.855   6.450
10257POPC   D2A73876  36.907  26.778   6.750
10257POPC   C3A73877  36.884  26.849   7.050
10257POPC   C4A73878  36.869  26.850   7.350
10257POPC   C1B73879  36.943  26.545   6.450
10257POPC   C2B73880  36.950  26.588   6.750
10257POPC   C3B73881  36.962  26.552   7.050
10257POPC   C4B73882  36.905  26.576   7.350
10258POPC   NC373883  38.474  18.309   5.550
10258POPC   PO473884  38.459  18.301   5.850
10258POPC   GL173885  38.477  18.323   6.150
10258POPC   GL273886  38.504  18.408   6.150
10258POPC   C1A73887  38.458  18.283   6.450
10258POPC   D2A73888  38.451  18.287   6.750
10258POPC   C3A73889  38.499  18.314   7.050
10258POPC   C4A73890  38.464  18.315   7.350
10258POPC   C1B73891  38.560  18.554   6.450
10258POPC   C2B73892  38.508  18.536   6.750
10258POPC   C3B73893  38.571  18.534   7.050
10258POPC   C4B73894  38.602  18.467   7.350
10259POPC   NC373895  36.147  29.153   5.550
10259POPC   PO473896  36.150  29.154   5.850
10259POPC   GL173897  36.162  29.104   6.150
10259POPC   GL273898  36.219  29.083   6.150
10259POPC   C1A73899  36.098  29.099   6.450
10259POPC   D2A73900  36.081  29.181   6.750
10259POPC   C3A73901  36.176  29.114   7.050
10259POPC   C4A73902  36.173  29.187   7.350
10259POPC   C1B73903  36.301  29.029   6.450
10259POPC   C2B73904  36.391  29.053   6.750
10259POPC   C3B73905  36.387  28.990   7.050
10259POPC   C4B73906  36.374  29.056   7.350
10260POPC   NC373907  19.024   1.972   5.550
10260POPC   PO473908  19.010   1.975   5.850
10260POPC   GL173909  19.063   1.992   6.150
10260POPC   GL273910  19.209   1.926   6.150
10260POPC   C1A73911  19.052   1.995   6.450
10260POPC   D2A73912  19.019   1.983   6.750
10260POPC   C3A73913  19.086   1.993   7.050
10260POPC   C4A73914  19.034   1.959   7.350
10260POPC   C1B73915  19.288   1.909   6.450
10260POPC   C2B73916  19.284   1.931   6.750
10260POPC   C3B73917  19.247   1.858   7.050
10260POPC   C4B73918  19.288   1.936   7.350
10261POPC   NC373919  31.510  31.514   5.550
10261POPC   PO473920  31.446  31.472   5.850
10261POPC   GL173921  31.423  31.466   6.150
10261POPC   GL273922  31.535  31.367   6.150
10261POPC   C1A73923  31.443  31.516   6.450
10261POPC   D2A73924  31.462  31.484   6.750
10261POPC   C3A73925  31.437  31.488   7.050
10261POPC   C4A73926  31.427  31.520   7.350
10261POPC   C1B73927  31.614  31.244   6.450
10261POPC   C2B73928  31.581  31.307   6.750
10261POPC   C3B73929  31.606  31.248   7.050
10261POPC   C4B73930  31.614  31.308   7.350
10262POPC   NC373931  41.527   5.853   5.550
10262POPC   PO473932  41.557   5.849   5.850
10262POPC   GL173933  41.567   5.890   6.150
10262POPC   GL273934  41.435   5.852   6.150
10262POPC   C1A73935  41.605   5.872   6.450
10262POPC   D2A73936  41.585   5.886   6.750
10262POPC   C3A73937  41.583   5.850   7.050
10262POPC   C4A73938  41.608   5.868   7.350
10262POPC   C1B73939  41.337   5.828   6.450
10262POPC   C2B73940  41.270   5.790   6.750
10262POPC   C3B73941  41.311   5.762   7.050
10262POPC   C4B73942  41.358   5.792   7.350
10263POPC   NC373943  44.673  29.098   5.550
10263POPC   PO473944  44.665  29.160   5.850
10263POPC   GL173945  44.658  29.164   6.150
10263POPC   GL273946  44.704  29.222   6.150
10263POPC   C1A73947  44.672  29.133   6.450
10263POPC   D2A73948  44.659  29.111   6.750
10263POPC   C3A73949  44.621  29.149   7.050
10263POPC   C4A73950  44.620  29.115   7.350
10263POPC   C1B73951  44.847  29.397   6.450
10263POPC   C2B73952  44.778  29.364   6.750
10263POPC   C3B73953  44.817  29.309   7.050
10263POPC   C4B73954  44.762  29.383   7.350
10264POPC   NC373955  41.588  27.625   5.550
10264POPC   PO473956  41.581  27.576   5.850
10264POPC   GL173957  41.591  27.603   6.150
10264POPC   GL273958  41.454  27.605   6.150
10264POPC   C1A73959  41.601  27.548   6.450
10264POPC   D2A73960  41.553  27.641   6.750
10264POPC   C3A73961  41.538  27.609   7.050
10264POPC   C4A73962  41.515  27.548   7.350
10264POPC   C1B73963  41.340  27.605   6.450
10264POPC   C2B73964  41.307  27.574   6.750
10264POPC   C3B73965  41.344  27.629   7.050
10264POPC   C4B73966  41.321  27.574   7.350
10265POPC   NC373967  43.145  31.516   5.550
10265POPC   PO473968  43.121  31.505   5.850
10265POPC   GL173969  43.109  31.515   6.150
10265POPC   GL273970  43.005  31.517   6.150
10265POPC   C1A73971  43.113  31.501   6.450
10265POPC   D2A73972  43.066  31.452   6.750
10265POPC   C3A73973  43.093  31.436   7.050
10265POPC   C4A73974  43.095  31.454   7.350
10265POPC   C1B73975  42.893  31.492   6.450
10265POPC   C2B73976  42.828  31.418   6.750
10265POPC   C3B73977  42.819  31.483   7.050
10265POPC   C4B73978  42.880  31.428   7.350
10266POPC   NC373979  24.499  22.192   5.550
10266POPC   PO473980  24.450  22.202   5.850
10266POPC   GL173981  24.475  22.152   6.150
10266POPC   GL273982  24.539  22.091   6.150
10266POPC   C1A73983  24.532  22.147   6.450
10266POPC   D2A73984  24.459  22.130   6.750
10266POPC   C3A73985  24.471  22.184   7.050
10266POPC   C4A73986  24.443  22.137   7.350
10266POPC   C1B73987  24.638  21.972   6.450
10266POPC   C2B73988  24.574  21.933   6.750
10266POPC   C3B73989  24.595  21.914   7.050
10266POPC   C4B73990  24.668  21.952   7.350
10267W        W73991  42.032  33.474   3.760
10268W        W73992  18.547   9.190  13.884
10269W        W73993  34.895  14.738  12.868
10270W        W73994   7.703  19.110  12.418
10271W        W73995  33.954  44.477   2.666
10272W        W73996  28.631  23.170   0.919
10273W        W73997  15.772  23.035   3.345
10274W        W73998  15.824  37.469   1.919
10275W        W73999  13.810   1.744  14.032
10276W        W74000  10.715   2.314  14.805
10277W        W74001  17.614   3.763   4.280
10278W        W74002  37.991   6.686   4.149
10279W        W74003  26.498  13.833  14.325
10280W        W74004   0.904  13.283  11.535
10281W        W74005  11.316   8.362  14.901
10282W        W74006  13.738  39.372  11.466
10283W        W74007   6.312  19.224  12.024
10284W        W74008  41.370   5.767   2.709
10285W        W74009  27.052  41.522   2.352
10286W        W74010   9.720   8.898  13.056
10287W        W74011  22.526  36.570   4.751
10288W        W74012  12.240  33.946  13.399
10289W        W74013  13.115   5.877   3.713
10290W        W74014   5.401  41.413  14.399
10291W        W74015  30.474  34.564   2.837
10292W        W74016   4.319  16.762   0.475
10293W        W74017   2.457  13.242   4.336
10294W        W74018  13.645  42.798  10.569
10295W        W74019  38.994  38.844  14.839
10296W        W74020  19.128  15.799  14.975
10297W        W74021  12.693  12.773  14.800
10298W        W74022  30.159  38.060  12.007
10299W        W74023  30.043  26.150   2.370
10300W        W74024  18.593  20.170  12.568
10301W        W74025  22.180  43.309  13.855
10302W        W74026  38.075  13.651  10.496
10303W        W74027  33.896  30.061   3.333
10304W        W74028  31.509  27.117   1.405
10305W        W74029  41.435  23.705   1.275
10306W        W74030  19.198  26.563  12.459
10307W        W74031   3.891  36.561  11.930
10308W        W74032  34.567  11.145  13.463
10309W        W74033  16.717   0.249   0.358
10310W        W74034  29.465  13.705   2.778
10311W        W74035  37.351  43.877  13.963
10312W        W74036  35.559  17.594  10.917
10313W        W74037  41.848  34.519   1.325
10314W        W74038  36.448  15.305  10.576
10315W        W74039   8.890  20.583  12.525
10316W        W74040   9.784  39.009   4.275
10317W        W74041  44.774   3.275  11.922
10318W        W74042  30.579   0.977  13.818
10319W        W74043  41.331  24.210  13.803
10320W        W74044  36.012  31.941   3.843
10321W        W74045  32.552  27.043  11.400
10322W        W74046  22.056  15.665   2.832
10323W        W74047  41.797  12.743   2.264
10324W        W74048   8.899  34.918   0.468
10325W        W74049  23.135   0.908   9.996
10326W        W74050   1.244   1.388  13.462
10327W        W74051  17.588  11.705  13.510
10328W        W74052  40.988  42.782   3.675
10329W        W74053  19.093  36.584  11.570
10330W        W74054  39.009  26.181  14.418
10331W        W74055  24.545  35.573   4.325
10332W        W74056   8.207  11.723  12.570
10333W        W74057  21.037  44.433  12.471
10334W        W74058  23.139  18.607  10.614
10335W        W74059  24.664  25.653  11.017
10336W        W74060  43.377  37.964   4.271
10337W        W74061  37.362  16.203  12.450
10338W        W74062   1.311   7.236  13.032
10339W        W74063   4.935  25.150   9.936
10340W        W74064  40.514  39.996  14.804
10341W        W74065   9.384  20.177   1.242
10342W        W74066   3.740  22.523  13.906
10343W        W74067   4.245  30.540   0.449
10344W        W74068   8.725  11.287  14.793
10345W        W74069  16.570   1.873  13.913
10346W        W74070  28.178  22.623   2.756
10347W        W74071  33.391  30.418  13.916
10348W        W74072  16.643   4.847   1.898
10349W        W74073  15.802  41.471  12.457
10350W        W74074   0.926  16.294   1.824
10351W        W74075  39.315   6.757  12.037
10352W        W74076   5.736  38.558  14.816
10353W        W74077  33.885   2.251   3.797
10354W        W74078   9.372  27.947  14.319
10355W        W74079  17.568  34.059   2.278
10356W        W74080   9.293  42.975  13.796
10357W        W74081  38.526  28.100  13.512
10358W        W74082  35.592  41.978  12.997
10359W        W74083   8.803  20.652  10.961
10360W        W74084   4.373  11.850  13.386
10361W        W74085  27.056  14.134  14.837
10362W        W74086  31.554  15.814  13.984
10363W        W74087  34.091  16.592   3.712
10364W        W74088  26.563  38.000  10.500
10365W        W74089   1.269   1.463  12.491
10366W        W74090   8.226  33.565   4.799
10367W        W74091  20.635  22.232  12.969
10368W        W74092   0.335  31.949   0.810
10369W        W74093   4.887   7.761  14.413
10370W        W74094   4.700   2.735  13.983
10371W        W74095  10.872  12.203  13.809
10372W        W74096   2.456   1.421  13.363
10373W        W74097  40.347  35.883   2.194
10374W        W74098  15.745   9.666  14.823
10375W        W74099  28.528  31.096   1.382
10376W        W74100  15.697  24.581   4.244
10377W        W74101  20.665   0.977   4.188
10378W        W74102  27.646   1.953  13.397
10379W        W74103   0.747  43.882   1.923
10380W        W74104  26.612   1.757  13.972
10381W        W74105  14.241  41.512   3.730
10382W        W74106   0.428   8.851   3.277
10383W        W74107   7.852   7.831  12.000
10384W        W74108  19.740  26.178  13.433
10385W        W74109  26.487  22.191   2.412
10386W        W74110   5.717  44.995   1.432
10387W        W74111  19.626  16.304   4.649
10388W        W74112  17.249   2.878   0.356
10389W        W74113  42.821  13.726  14.983
10390W        W74114  13.786  31.972  12.888
10391W        W74115  30.002  38.829  13.338
10392W        W74116  41.848  15.243  14.771
10393W        W74117  10.638  30.456   1.388
10394W        W74118  25.624  15.121  14.827
10395W        W74119   7.390  23.097  13.874
10396W        W74120  27.195  27.591   1.359
10397W        W74121  37.429  22.038   3.358
10398W        W74122  10.270  10.207  10.927
10399W        W74123  40.358  30.613  13.844
10400W        W74124  29.477  44.350   1.382
10401W        W74125  38.039   5.354   4.613
10402W        W74126  37.431  39.501   0.865
10403W        W74127   3.445  37.463   4.625
10404W        W74128   9.341  31.584   0.340
10405W        W74129  36.382   5.424  14.364
10406W        W74130  12.352  40.860   3.644
10407W        W74131  44.332  19.180  12.934
10408W        W74132  19.689   0.962   2.705
10409W        W74133   9.171  24.078   0.396
10410W        W74134  35.448  26.169  12.417
10411W        W74135  44.397  18.618  10.888
10412W        W74136  34.079  42.886   2.324
10413W        W74137  15.702  44.373   3.768
10414W        W74138  25.681  25.030   2.346
10415W        W74139   5.899  34.588   2.854
10416W        W74140  37.910  21.743   4.277
10417W        W74141  28.130  13.127  14.394
10418W        W74142  19.644  13.232   1.736
10419W        W74143   4.294  12.331   0.806
10420W        W74144  29.965  15.752  13.481
10421W        W74145  21.209   1.465  10.456
10422W        W74146   0.905   0.774  13.531
10423W        W74147  26.559  11.818   5.610
10424W        W74148   7.800  37.016   1.933
10425W        W74149   5.283  41.478  14.913
10426W        W74150   1.474  35.871  12.830
10427W        W74151  27.955   9.176  11.596
10428W        W74152   1.428  44.288  13.346
10429W        W74153  35.365  42.972  10.615
10430W        W74154   3.293   5.723  13.458
10431W        W74155   0.979  17.785  14.379
10432W        W74156   9.724  20.552   2.331
10433W        W74157  22.555  31.031   4.340
10434W        W74158  35.507   6.823   2.798
10435W        W74159  15.646  28.608  13.355
10436W        W74160  17.225  36.012   0.424
10437W        W74161   9.742  10.816  13.900
10438W        W74162   3.844  14.141  11.533
10439W        W74163  12.213  11.324  14.428
10440W        W74164  29.452  31.557  10.530
10441W        W74165  13.291  10.812  13.036
10442W        W74166  25.493  27.653  11.016
10443W        W74167  32.130  29.955  10.442
10444W        W74168  18.736  28.149   1.891
10445W        W74169  24.042  37.571  11.420
10446W        W74170  30.513   0.976   2.803
10447W        W74171  14.697  37.505   1.904
10448W        W74172  30.921  17.217  11.437
10449W        W74173  35.945  12.288  13.490
10450W        W74174  26.682   5.806  10.094
10451W        W74175  34.441  12.841   0.393
10452W        W74176  29.514  14.282   2.858
10453W        W74177  28.580   8.329  14.950
10454W        W74178  26.036  30.019  11.987
10455W        W74179  23.143   1.768   4.282
10456W        W74180  17.085  23.117   1.405
10457W        W74181  35.517  40.806   2.841
10458W        W74182  28.175  16.208   1.748
10459W        W74183  38.347  28.652   4.775
10460W        W74184  19.575  27.024  14.827
10461W        W74185  38.953  39.944  13.887
10462W        W74186  35.438  20.264  14.508
10463W        W74187  29.615   8.807  13.809
10464W        W74188  13.612   3.408  12.866
10465W        W74189  42.447  13.725   2.330
10466W        W74190   7.269  38.376  11.442
10467W        W74191  44.982  25.212   4.325
10468W        W74192  12.202  34.886  14.324
10469W        W74193   3.756  43.892   3.270
10470W        W74194  31.076  23.730   0.771
10471W        W74195  25.016  12.661   4.243
10472W        W74196  23.021   5.707  12.851
10473W        W74197  43.880  24.140  13.018
10474W        W74198  25.969  37.872  13.881
10475W        W74199  13.253  19.615   9.933
10476W        W74200  10.864  44.330  14.324
10477W        W74201  40.958  44.861  13.477
10478W        W74202  41.925  32.938  13.048
10479W        W74203  25.467  41.439   3.348
10480W        W74204  20.655  39.857   9.947
10481W        W74205  44.969  26.005  12.824
10482W        W74206  32.103  41.793   0.419
10483W        W74207  16.142  35.397  10.959
10484W        W74208  25.177  25.554   2.406
10485W        W74209  29.632   4.263  10.644
10486W        W74210  20.048  35.873  14.833
10487W        W74211  23.020  42.920  14.466
10488W        W74212  18.081   4.719  14.922
10489W        W74213  15.667  38.875  14.905
10490W        W74214  43.400  17.209  12.900
10491W        W74215  44.873  32.948  11.900
10492W        W74216  42.896   4.755  12.061
10493W        W74217  27.494  27.967  12.579
10494W        W74218  27.018  17.223   3.251
10495W        W74219   9.155  23.659  13.307
10496W        W74220  41.933   5.736  13.920
10497W        W74221  37.357  16.159  11.093
10498W        W74222  36.528  14.799   0.463
10499W        W74223  39.873  24.717  11.437
10500W        W74224  32.501  10.293  14.454
10501W        W74225   5.285  37.926  14.482
10502W        W74226  32.990  33.886  14.917
10503W        W74227  43.495  24.099  10.131
10504W        W74228  44.900  15.292  12.558
10505W        W74229   4.844  44.415   1.886
10506W        W74230   4.222  21.751  14.995
10507W        W74231  21.601  35.083  12.547
10508W        W74232  10.244  36.354   4.812
10509W        W74233  39.016  10.243  10.988
10510W        W74234   7.284  17.079   1.330
10511W        W74235  29.036  27.462   1.899
10512W        W74236   2.313  10.705   3.718
10513W        W74237  16.724  15.764  13.947
10514W        W74238  21.243  32.636  13.317
10515W        W74239  41.330  28.110   2.374
10516W        W74240   7.667   9.296  13.815
10517W        W74241  34.891   4.852   3.831
10518W        W74242  19.263  10.863  14.317
10519W        W74243   1.824  20.600   3.243
10520W        W74244  24.068  14.625   1.418
10521W        W74245   5.828   3.877  12.917
10522W        W74246  42.493  20.040  12.506
10523W        W74247  43.418  12.821  13.470
10524W        W74248  32.014  25.059   0.801
10525W        W74249  24.597  34.411   3.262
10526W        W74250  18.264  22.013  13.996
10527W        W74251   4.411  15.658   0.875
10528W        W74252  37.947  22.676  10.419
10529W        W74253  44.469   5.832  12.420
10530W        W74254  40.324  18.210   3.756
10531W        W74255   3.937  30.582   3.671
10532W        W74256  10.670  39.897  12.860
10533W        W74257   0.952   7.680   1.794
10534W        W74258  35.508  11.366  11.907
10535W        W74259  41.886  30.005  12.905
10536W        W74260  38.561  23.649   2.749
10537W        W74261   0.799  42.901   2.687
10538W        W74262  25.631  36.853  12.571
10539W        W74263  14.784  23.227   3.750
10540W        W74264  25.004  31.426   3.673
10541W        W74265  35.907  29.934   1.450
10542W        W74266  10.699  12.676  13.050
10543W        W74267   2.864  23.599   4.705
10544W        W74268  26.546  25.018   0.367
10545W        W74269  37.541  36.531   2.777
10546W        W74270  18.188  19.569  14.990
10547W        W74271  24.158   7.847  14.966
10548W        W74272  34.880  37.340   5.248
10549W        W74273   0.389  23.210   3.863
10550W        W74274  19.604  35.391   3.183
10551W        W74275   8.235  41.836  13.363
10552W        W74276  21.589  18.058  11.931
10553W        W74277   9.645  44.985   3.348
10554W        W74278   9.889  24.071  13.430
10555W        W74279   0.481  36.038  11.382
10556W        W74280   3.431   2.931   4.756
10557W        W74281  43.316  17.716   1.897
10558W        W74282  17.722  11.230  13.541
10559W        W74283  44.835  13.789   4.807
10560W        W74284   5.215  25.704  10.967
10561W        W74285  38.865  17.299   0.404
10562W        W74286  38.453  26.637  14.817
10563W        W74287  43.316  32.918   3.331
10564W        W74288  44.287  12.833   2.841
10565W        W74289  37.969   0.926   1.859
10566W        W74290   1.253   5.304   1.869
10567W        W74291  13.682  15.103   0.823
10568W        W74292  42.790   6.824  12.358
10569W        W74293  28.127   8.268  12.433
10570W        W74294  34.899  20.264   1.727
10571W        W74295  12.345  38.383   2.368
10572W        W74296   1.277  14.276   4.604
10573W        W74297  21.655  34.916   0.399
10574W        W74298   0.806  31.127   1.913
10575W        W74299  22.669   1.294   3.697
10576W        W74300  44.804  18.105  13.502
10577W        W74301  17.172  28.467   4.254
10578W        W74302  11.779  38.363  11.953
10579W        W74303  39.484  36.534   1.827
10580W        W74304  15.303  18.234   4.173
10581W        W74305   6.319   4.871  13.367
10582W        W74306  41.420  24.507   3.748
10583W        W74307  20.647  23.130  13.448
10584W        W74308  12.637  27.025  13.373
10585W        W74309   0.920  13.784  13.470
10586W        W74310  25.579  28.088  12.949
10587W        W74311  28.136  32.408  11.886
10588W        W74312  14.701   6.789   1.271
10589W        W74313  44.407  34.464  12.918
10590W        W74314  11.762  10.213   3.376
10591W        W74315  11.844   2.886   4.610
10592W        W74316  28.451  16.772  12.527
10593W        W74317  13.312   7.383  14.378
10594W        W74318  11.269  18.574  14.805
10595W        W74319  22.149  20.601   3.773
10596W        W74320   2.397  35.519   2.881
10597W        W74321  26.702  40.431  12.946
10598W        W74322  27.958  30.005   4.660
10599W        W74323  24.171   2.779  13.008
10600W        W74324  27.665  30.129  11.952
10601W        W74325   8.827  43.977  14.433
10602W        W74326   0.277  33.037  12.933
10603W        W74327   2.411   2.278  10.445
10604W        W74328  11.708  15.190   1.428
10605W        W74329  13.211  23.115  14.859
10606W        W74330  30.937  11.719   1.407
10607W        W74331   9.317  25.501   4.826
10608W        W74332  10.274  44.835  11.878
10609W        W74333   6.411  12.338  10.898
10610W        W74334  22.741  26.457  11.579
10611W        W74335  27.028  43.337   3.788
10612W        W74336  15.713  16.699   3.188
10613W        W74337   7.737  17.226   0.858
10614W        W74338  39.347  10.653  13.004
10615W        W74339  19.085  12.796   0.832
10616W        W74340  30.143   1.810   4.286
10617W        W74341  12.814  27.948   4.183
10618W        W74342  44.340  21.061   3.158
10619W        W74343   1.771  38.004   4.618
10620W        W74344   4.768  19.691  13.543
10621W        W74345  42.914  36.916   2.216
10622W        W74346   6.894  36.857  10.518
10623W        W74347   1.278  22.705  10.600
10624W        W74348  30.118  40.859  11.417
10625W        W74349   7.888  25.482   3.264
10626W        W74350  43.370  37.078  13.436
10627W        W74351  11.782  12.135  12.870
10628W        W74352  42.403  37.055   0.395
10629W        W74353  25.674   2.842   3.247
10630W        W74354  32.523  42.373   2.185
10631W        W74355   9.237   2.832   0.267
10632W        W74356   0.906  25.699   1.320
10633W        W74357  22.087   4.751  12.545
10634W        W74358   5.299  40.427   1.392
10635W        W74359  32.069  22.696   3.727
10636W        W74360  31.999  27.171   4.647
10637W        W74361  23.181  43.316   1.217
10638W        W74362   2.774   5.926   1.864
10639W        W74363  39.892  40.357  14.965
10640W        W74364  24.148   5.793   3.169
10641W        W74365   3.896  35.902   0.748
10642W        W74366  36.546  14.292   1.300
10643W        W74367  25.104  32.454   2.373
10644W        W74368  16.653  19.211  13.959
10645W        W74369  22.616  43.297   0.799
10646W        W74370  13.755   6.881  12.829
10647W        W74371   1.344  26.678  14.282
10648W        W74372   2.384  13.251   2.778
10649W        W74373  24.627  25.043  10.924
10650W        W74374  11.310  28.448   0.479
10651W        W74375   2.737  15.698   9.961
10652W        W74376  18.768   3.389   3.643
10653W        W74377  21.231  21.056  14.909
10654W        W74378  12.224  42.976   4.228
10655W        W74379  28.072  39.002   1.894
10656W        W74380  15.205  44.413  10.969
10657W        W74381  39.430  33.457   0.424
10658W        W74382  38.873  33.406   0.872
10659W        W74383  38.978  40.994  13.359
10660W        W74384  38.044  22.711   1.356
10661W        W74385  11.237  31.465   1.403
10662W        W74386  34.876  22.095  12.003
10663W        W74387  10.841   3.922   3.262
10664W        W74388  25.075  44.287   1.359
10665W        W74389  19.106  21.155   4.731
10666W        W74390  41.409  29.541   5.244
10667W        W74391  22.517  20.119   0.741
10668W        W74392  27.110  11.159   9.560
10669W        W74393  38.353  37.943   2.409
10670W        W74394  16.073  16.087   2.897
10671W        W74395  43.406  18.064  13.817
10672W        W74396  35.088  22.196   3.237
10673W        W74397   1.261   7.830   4.597
10674W        W74398  18.075  33.041   1.877
10675W        W74399  17.760   5.715   5.679
10676W        W74400  30.909  26.703   3.772
10677W        W74401  42.823   5.751  14.778
10678W        W74402  18.578   6.828   0.943
10679W        W74403  40.888  38.823  14.419
10680W        W74404  27.457  38.921  13.819
10681W        W74405  28.558  21.724   1.412
10682W        W74406  26.528  27.591   0.764
10683W        W74407  41.521  10.159   3.380
10684W        W74408  26.000   6.884  11.542
10685W        W74409  20.137  25.545  14.843
10686W        W74410  27.128  10.736   4.122
10687W        W74411  36.962  36.446  10.563
10688W        W74412  42.899   7.763  11.919
10689W        W74413  37.525  18.555   1.391
10690W        W74414  28.609  37.470   0.760
10691W        W74415  26.141  36.537   4.270
10692W        W74416  25.184  30.444   1.871
10693W        W74417  18.653  36.064  11.468
10694W        W74418  17.612  32.947   1.849
10695W        W74419  11.698  35.912  10.429
10696W        W74420  10.769   8.782   5.284
10697W        W74421  38.370  15.812   1.854
10698W        W74422   6.811  12.675  13.879
10699W        W74423  44.884  35.023   3.310
10700W        W74424  40.515  19.253   0.294
10701W        W74425   6.366   6.823   2.760
10702W        W74426  24.094  10.170   0.739
10703W        W74427  41.528  41.964  14.790
10704W        W74428  35.030   8.185  14.385
10705W        W74429   4.929  28.554  12.489
10706W        W74430  17.637   7.288  11.118
10707W        W74431  39.960  29.547  13.887
10708W        W74432   9.881  20.226   4.330
10709W        W74433  43.393   2.845   3.350
10710W        W74434   8.311  15.823   1.750
10711W        W74435  19.263   7.712  14.949
10712W        W74436  19.239  29.643   3.718
10713W        W74437  18.659  30.935   2.197
10714W        W74438  24.715  37.862  10.540
10715W        W74439  20.176   2.872  10.634
10716W        W74440  26.476  41.520  12.409
10717W        W74441   8.324  16.813   3.817
10718W        W74442  12.799  36.009  11.023
10719W        W74443   5.814   7.899   0.449
10720W        W74444   2.308  35.603   0.901
10721W        W74445  10.270  31.561  11.543
10722W        W74446   0.890  12.768  14.469
10723W        W74447   8.849  32.943  12.026
10724W        W74448  16.220  20.628   2.873
10725W        W74449  38.536  32.627   4.143
10726W        W74450  15.123  20.156  12.381
10727W        W74451  13.292  26.058   0.417
10728W        W74452  28.105  27.007   1.769
10729W        W74453  32.444  29.627  14.988
10730W        W74454   3.359  38.553  11.536
10731W        W74455  28.953   3.813  13.485
10732W        W74456  40.491  20.720  11.612
10733W        W74457  27.541   8.406  14.803
10734W        W74458  14.122   7.231   4.174
10735W        W74459  15.755  38.562   2.765
10736W        W74460  42.818  16.282  14.956
10737W        W74461  25.568  22.141  10.979
10738W        W74462   1.775  14.623  14.855
10739W        W74463   5.852  40.865  13.420
10740W        W74464  21.517  20.168  14.349
10741W        W74465  44.323  12.635   4.303
10742W        W74466  36.901  30.484  11.052
10743W        W74467  39.941  43.988   4.198
10744W        W74468   8.763  40.379  11.104
10745W        W74469  42.833  11.724  13.507
10746W        W74470  29.557  37.996   2.789
10747W        W74471   6.326  34.988  10.052
10748W        W74472  26.090  21.207  10.011
10749W        W74473  31.982  22.197  11.965
10750W        W74474   9.193  35.532   3.166
10751W        W74475  16.602  21.192  11.970
10752W        W74476  27.477   0.820   0.753
10753W        W74477  23.174  26.984   2.198
10754W        W74478   7.253  25.021  12.463
10755W        W74479  11.731  29.994   1.307
10756W        W74480   5.917  39.847  12.843
10757W        W74481  42.921  27.048  13.797
10758W        W74482  12.788  32.074  11.124
10759W        W74483  10.634   1.771  12.868
10760W        W74484  13.339  22.668   4.692
10761W        W74485  14.262  25.970  12.430
10762W        W74486  20.271  22.126   0.373
10763W        W74487  34.977  13.318  10.100
10764W        W74488   6.738  35.909   1.893
10765W        W74489  14.321  34.417  10.888
10766W        W74490  10.761   8.168  11.462
10767W        W74491   5.894  29.598   2.378
10768W        W74492  28.441  39.837   2.684
10769W        W74493  40.015   7.840  14.429
10770W        W74494  32.537  37.995   2.688
10771W        W74495  16.163  42.447   3.237
10772W        W74496  29.542   8.171  11.601
10773W        W74497  22.236   6.322   3.816
10774W        W74498   3.231  25.014  11.117
10775W        W74499  40.503   1.783   4.119
10776W        W74500  22.689  36.993   5.154
10777W        W74501  25.127  17.776   4.352
10778W        W74502   1.262  20.177  11.435
10779W        W74503   5.300  18.084  10.582
10780W        W74504  17.722  44.954  13.891
10781W        W74505  42.784  34.983  12.970
10782W        W74506  25.974   1.894  12.049
10783W        W74507   7.791  32.483  11.083
10784W        W74508  26.494  30.077   1.820
10785W        W74509  22.545  19.617  14.887
10786W        W74510  19.569  23.042   1.350
10787W        W74511  39.367   1.424   3.175
10788W        W74512  36.514  17.090  13.317
10789W        W74513  18.592  38.838   3.642
10790W        W74514  20.561  44.340  13.800
10791W        W74515  41.410   7.746  10.509
10792W        W74516  10.307   3.362   2.711
10793W        W74517   6.686  10.223   3.709
10794W        W74518  19.734  43.994  12.943
10795W        W74519  34.910  29.081  10.957
10796W        W74520   0.430  29.093   1.767
10797W        W74521  31.613  27.060  12.526
10798W        W74522  17.661  39.411   0.453
10799W        W74523  27.571  29.176   4.206
10800W        W74524  35.512  36.545   1.742
10801W        W74525  26.157  44.759  13.358
10802W        W74526   6.326  22.125   1.821
10803W        W74527   0.804  44.966  14.021
10804W        W74528  43.795   4.812  14.820
10805W        W74529  30.453  13.652   1.342
10806W        W74530  19.765  22.103  12.457
10807W        W74531  38.848  13.747   1.815
10808W        W74532   5.240  19.060   4.683
10809W        W74533  11.314   0.743   2.225
10810W        W74534   9.188  13.625   3.724
10811W        W74535  33.996  36.054  13.807
10812W        W74536  32.613  17.783  13.002
10813W        W74537  35.590  36.963  11.490
10814W        W74538   5.704  43.332   0.938
10815W        W74539  23.166  22.604  14.998
10816W        W74540  12.834  23.685   3.377
10817W        W74541  14.832   7.319   4.670
10818W        W74542  21.556  32.941   1.697
10819W        W74543  26.526  18.135  14.323
10820W        W74544  10.773  17.579  11.963
10821W        W74545   8.763   2.277   2.663
10822W        W74546  35.891   2.355  14.887
10823W        W74547  39.391  38.066  14.448
10824W        W74548   1.415  38.945   1.814
10825W        W74549  25.037  12.635   1.798
10826W        W74550  21.111   8.780  14.977
10827W        W74551  17.593  34.450  11.100
10828W        W74552  30.030  12.290   0.796
10829W        W74553  24.515  40.365   2.346
10830W        W74554   5.688  42.349  12.947
10831W        W74555   6.771   0.783   1.901
10832W        W74556  19.723  38.556   5.084
10833W        W74557  33.497  18.594   2.861
10834W        W74558  20.224  13.740  12.402
10835W        W74559  18.753  37.482  12.920
10836W        W74560   3.756  38.571   3.319
10837W        W74561   6.742  40.439   2.896
10838W        W74562   6.367  31.417  14.482
10839W        W74563  43.841  20.218  14.412
10840W        W74564  39.045  18.203  12.376
10841W        W74565  18.763  29.079   4.216
10842W        W74566   6.338  11.290  12.993
10843W        W74567  43.359   1.853   3.326
10844W        W74568  33.505  33.108   3.826
10845W        W74569  27.035  27.505   2.278
10846W        W74570  43.884   6.275  10.430
10847W        W74571  23.059  14.617   0.436
10848W        W74572  23.583  26.475   5.597
10849W        W74573  38.986  37.830   9.963
10850W        W74574  31.954  13.189  13.494
10851W        W74575  29.519   6.409   1.860
10852W        W74576  26.611  37.349   1.929
10853W        W74577  20.056  36.927  11.035
10854W        W74578   5.841  38.424   3.227
10855W        W74579  40.487   0.928  11.962
10856W        W74580  14.095  44.354  13.061
10857W        W74581   1.402  38.436  14.355
10858W        W74582  15.795  22.670   1.717
10859W        W74583  37.002  28.101  12.069
10860W        W74584  40.378  41.433  13.352
10861W        W74585   7.361  16.801   4.239
10862W        W74586  39.465  23.059   0.249
10863W        W74587  32.514  18.552  10.460
10864W        W74588  14.671  38.866  13.002
10865W        W74589  14.668  42.280  12.410
10866W        W74590   2.250  37.917  13.364
10867W        W74591   1.455  15.090   4.748
10868W        W74592  30.588   9.251   1.859
10869W        W74593  42.852  16.199  10.484
10870W        W74594  26.148   3.911   1.436
10871W        W74595  27.952  16.568   3.783
10872W        W74596  32.911  12.324  10.963
10873W        W74597  15.237  21.149  14.032
10874W        W74598  36.367  16.239   2.313
10875W        W74599   5.194  28.177   3.743
10876W        W74600  24.478  26.616  12.090
10877W        W74601  42.963  15.205  12.524
10878W        W74602  35.909  25.175  13.309
10879W        W74603  30.539  12.854   1.408
10880W        W74604  41.896   6.735   2.389
10881W        W74605  40.327   1.930  14.461
10882W        W74606  43.973  43.010  10.438
10883W        W74607  22.069  26.556  13.507
10884W        W74608  36.521  10.723  14.291
10885W        W74609  44.845   3.818  11.950
10886W        W74610   0.320  22.699   1.394
10887W        W74611  17.244  20.064   0.790
10888W        W74612   2.789  25.061   3.145
10889W        W74613  25.031  10.301   1.211
10890W        W74614  28.595  16.312   2.404
10891W        W74615   1.800   0.798   4.162
10892W        W74616  19.084  39.936  11.400
10893W        W74617   8.842  33.404  14.844
10894W        W74618  12.219  16.259  11.436
10895W        W74619  27.136  11.160  11.092
10896W        W74620  25.195  39.037  14.810
10897W        W74621  13.706  17.764   3.290
10898W        W74622   1.240  29.488  11.913
10899W        W74623  13.687   8.660   1.360
10900W        W74624  21.740  36.401  14.922
10901W        W74625   6.357  29.033  13.898
10902W        W74626  40.345  30.089  14.443
10903W        W74627  21.609  17.696  14.820
10904W        W74628  38.326  18.701  11.993
10905W        W74629  17.624  43.852  14.479
10906W        W74630  33.465   5.856  11.604
10907W        W74631  16.575   8.870   1.232
10908W        W74632  23.063  35.912   3.651
10909W        W74633  42.912   6.312  10.602
10910W        W74634  21.086  43.329   3.679
10911W        W74635  23.605   2.418  14.351
10912W        W74636  43.384  28.594  13.028
10913W        W74637  23.502  40.452   5.166
10914W        W74638  33.019  33.394   4.283
10915W        W74639  29.043  17.222   3.671
10916W        W74640  16.750  23.531   2.712
10917W        W74641   9.286  40.473  10.099
10918W        W74642   9.214  24.616   0.864
10919W        W74643  22.661  28.614  13.845
10920W        W74644  10.380  23.614  11.450
10921W        W74645  16.140  43.938   1.893
10922W        W74646  35.580  30.964  14.514
10923W        W74647  26.632  17.218  14.865
10924W        W74648  19.087  20.673  13.459
10925W        W74649  30.513  16.286  13.046
10926W        W74650  35.967  26.578   0.810
10927W        W74651  18.086  44.260  14.393
10928W        W74652  34.039  36.356  13.367
10929W        W74653  28.556  14.725   1.448
10930W        W74654   1.764  15.635   2.739
10931W        W74655  35.385  42.807   4.685
10932W        W74656  16.784   4.368   0.731
10933W        W74657  20.602   7.702  11.856
10934W        W74658  28.964  27.453   4.644
10935W        W74659  15.821   0.439  10.502
10936W        W74660  38.354  39.966  14.385
10937W        W74661  33.526   8.304   4.296
10938W        W74662  11.651   9.221  12.866
10939W        W74663  44.365  42.478  14.786
10940W        W74664  21.532  13.816  10.152
10941W        W74665  22.096  33.027  13.319
10942W        W74666  19.064  29.557   4.207
10943W        W74667   2.366  43.399  11.910
10944W        W74668   5.356   9.886  11.559
10945W        W74669  42.989   5.218   4.771
10946W        W74670  39.509  31.144   4.647
10947W        W74671   5.811  34.501   2.350
10948W        W74672   2.781  14.756  13.489
10949W        W74673  24.100  36.850   4.318
10950W        W74674  30.581  34.480   4.151
10951W        W74675  29.997  36.357  10.462
10952W        W74676  12.679  39.341  12.480
10953W        W74677  17.064  26.957   2.194
10954W        W74678  23.727  14.694  12.028
10955W        W74679  30.025  30.093  12.382
10956W        W74680   3.924  15.739  14.482
10957W        W74681  34.896  21.102  10.934
10958W        W74682   4.227  29.056   0.369
10959W        W74683   2.383  15.326  11.549
10960W        W74684  44.794   2.795   3.704
10961W        W74685   1.272  38.552   4.196
10962W        W74686   0.389  39.529   1.336
10963W        W74687   2.349  39.808   0.242
10964W        W74688   4.239  29.095   1.378
10965W        W74689  40.453  32.136   2.845
10966W        W74690   9.830  41.311   0.371
10967W        W74691   7.864   3.424  14.820
10968W        W74692  35.970  15.101  10.110
10969W        W74693  40.336   4.412   1.782
10970W        W74694   9.348   6.405  10.593
10971W        W74695   2.470  24.127   4.779
10972W        W74696  34.976   9.276   2.401
10973W        W74697   8.879  15.268   0.334
10974W        W74698  37.871   4.861   9.932
10975W        W74699  15.203  24.532   3.314
10976W        W74700  12.210   2.730   2.351
10977W        W74701   7.262   4.405   4.124
10978W        W74702  20.206  13.683  11.872
10979W        W74703   3.776  33.559  12.948
10980W        W74704  15.749  20.606   4.156
10981W        W74705  35.903  15.811   1.786
10982W        W74706  10.276  44.780   4.241
10983W        W74707  21.590   4.426  11.920
10984W        W74708  23.078  31.646  14.886
10985W        W74709  21.028  13.628   4.638
10986W        W74710  22.056  31.495   4.621
10987W        W74711   6.882  34.483  10.556
10988W        W74712  11.703  20.143  13.807
10989W        W74713  27.076  44.822  13.410
10990W        W74714  31.028  43.373  12.371
10991W        W74715  18.570   1.449  13.443
10992W        W74716  32.452  30.137   1.877
10993W        W74717  22.573   4.795   2.778
10994W        W74718  24.044  44.368   3.193
10995W        W74719  10.340  22.582   4.688
10996W        W74720  37.962   1.411   3.303
10997W        W74721  18.147   7.202   0.791
10998W        W74722  30.993  39.903   2.231
10999W        W74723  14.831  34.422  10.465
11000W        W74724  29.548  35.547   1.339
11001W        W74725  19.123  20.717  13.844
11002W        W74726  41.929  42.846  11.054
11003W        W74727  24.124  16.155  10.968
11004W        W74728  32.001  29.498   1.739
11005W        W74729  17.290  13.731   3.190
11006W        W74730  10.713   2.443   2.761
11007W        W74731  34.932  26.686  12.497
11008W        W74732  42.001  24.112  12.859
11009W        W74733   7.755  38.892   2.319
11010W        W74734   3.824  17.635   2.396
11011W        W74735  27.094  10.336   4.204
11012W        W74736  42.465  32.091   0.257
11013W        W74737   0.859  24.085  14.846
11014W        W74738  20.165  17.260  13.991
11015W        W74739   9.866   7.287  13.835
11016W        W74740  11.158  35.425  13.874
11017W        W74741  40.539  22.670  11.948
11018W        W74742   5.777  23.030  10.426
11019W        W74743  14.259  35.371   4.195
11020W        W74744  17.746  20.724   4.350
11021W        W74745  11.769  26.002  10.617
11022W        W74746  36.015  16.172  13.544
11023W        W74747  34.926  18.618  14.876
11024W        W74748   7.251  35.037  14.920
11025W        W74749  11.764  25.510  14.380
11026W        W74750  17.262  10.828  10.573
11027W        W74751  18.087  29.494  12.580
11028W        W74752  39.505  43.929   2.376
11029W        W74753  16.223  17.281  14.435
11030W        W74754  33.027  43.395   4.125
11031W        W74755   0.327  13.694   4.604
11032W        W74756  21.189  20.111   2.737
11033W        W74757   6.859   0.357   2.337
11034W        W74758  16.731  28.570   3.294
11035W        W74759   7.894  28.521  11.534
11036W        W74760  29.999  26.048  14.791
11037W        W74761  17.099   3.354  10.062
11038W        W74762  41.445   4.921  12.501
11039W        W74763  14.621   1.888  14.294
11040W        W74764  14.834  28.011  10.053
11041W        W74765  29.943  43.811   3.861
11042W        W74766  33.498  38.381  10.113
11043W        W74767  27.473  14.755  13.481
11044W        W74768   0.300   0.766   1.331
11045W        W74769  23.578   7.240  13.356
11046W        W74770   0.276   9.705   4.131
11047W        W74771  23.651  16.125   2.212
11048W        W74772  37.966   2.424   4.671
11049W        W74773   3.956  19.078   3.293
11050W        W74774  19.708  28.951  12.000
11051W        W74775  12.258  21.690  10.921
11052W        W74776  25.475  33.962  14.302
11053W        W74777  35.920  26.481   4.782
11054W        W74778  20.731  22.661  14.345
11055W        W74779  28.664   7.690   3.239
11056W        W74780  24.641  19.703   3.163
11057W        W74781  25.167  27.497  11.007
11058W        W74782   1.755  24.996  12.440
11059W        W74783  40.897   2.253   2.372
11060W        W74784   1.406  41.460  14.447
11061W        W74785   2.250  38.542  13.795
11062W        W74786  42.937  23.602  14.029
11063W        W74787   4.425   0.758  11.060
11064W        W74788   2.433  41.816   1.320
11065W        W74789   4.371  35.924  11.439
11066W        W74790  16.300  37.554  13.346
11067W        W74791  43.841  23.194   4.673
11068W        W74792  36.893  43.792  10.015
11069W        W74793   7.318   4.298  14.818
11070W        W74794  14.655  23.680  13.999
11071W        W74795   6.695  15.779   1.416
11072W        W74796  41.512  44.426  13.916
11073W        W74797  32.449   6.184   0.299
11074W        W74798  29.450  22.589  10.891
11075W        W74799  24.579  28.485   4.312
11076W        W74800  40.338  28.174   2.301
11077W        W74801  11.798   2.949   3.159
11078W        W74802  42.489  30.541   2.792
11079W        W74803   9.393  43.283   3.671
11080W        W74804  11.748  14.319   4.787
11081W        W74805  17.143  16.748  11.543
11082W        W74806  34.902  15.155  14.361
11083W        W74807  21.159  26.044  13.335
11084W        W74808  14.710   7.228  13.039
11085W        W74809  39.049  24.229   4.265
11086W        W74810  21.597  39.376  13.992
11087W        W74811   0.816  36.860  12.835
11088W        W74812  31.970   8.177   4.334
11089W        W74813  44.339  27.645  13.967
11090W        W74814  26.562  35.582   2.289
11091W        W74815  43.977   5.300   4.318
11092W        W74816  26.540  42.029  14.804
11093W        W74817  15.213  33.469  12.522
11094W        W74818  42.378   5.893   4.336
11095W        W74819  16.571   8.292   0.301
11096W        W74820  44.994   6.292   4.208
11097W        W74821  23.209  43.006   3.801
11098W        W74822  36.458  30.131  11.884
11099W        W74823  34.606  26.029  11.863
11100W        W74824  12.347  29.164  13.826
11101W        W74825  14.289  38.343   1.230
11102W        W74826  27.543  28.163   3.715
11103W        W74827  13.137  43.498  12.995
11104W        W74828   8.828  30.107   0.903
11105W        W74829  34.611   7.791  10.934
11106W        W74830  21.642  17.202  10.448
11107W        W74831   0.858   5.362   3.357
11108W        W74832  25.022  11.658   3.288
11109W        W74833  17.762  11.723  14.478
11110W        W74834  26.470  34.435   3.859
11111W        W74835  26.004  36.361  10.574
11112W        W74836  31.421  14.149  13.807
11113W        W74837  15.697   4.735  12.031
11114W        W74838   2.380  27.653  11.585
11115W        W74839  13.179  17.715  12.954
11116W        W74840  10.769  34.887  12.484
11117W        W74841  42.436  44.288  11.425
11118W        W74842  33.906  25.996   3.327
11119W        W74843  21.626  21.113  11.030
11120W        W74844  11.279  26.206  11.499
11121W        W74845   3.715  38.333   2.347
11122W        W74846   2.851  21.613   3.355
11123W        W74847  16.104  20.635  11.449
11124W        W74848  18.062   0.833   4.292
11125W        W74849  21.091  31.431   1.864
11126W        W74850  37.408  37.969  11.439
11127W        W74851  21.219  32.491   4.329
11128W        W74852  44.303   2.296  11.906
11129W        W74853  29.066  21.239  12.572
11130W        W74854  19.133   8.723  14.810
11131W        W74855  37.356  16.202   4.685
11132W        W74856   4.281  11.191   1.297
11133W        W74857  41.432  44.894  10.424
11134W        W74858  19.719  33.529   4.214
11135W        W74859  40.948  36.009  13.438
11136W        W74860   5.896  27.093  14.385
11137W        W74861   3.401  17.132  11.423
11138W        W74862   3.231   5.724   2.835
11139W        W74863  42.795  20.252  12.006
11140W        W74864  32.466  11.210  12.455
11141W        W74865  37.997  32.015  12.380
11142W        W74866  26.020  21.253  13.395
11143W        W74867  30.456  13.113   1.853
11144W        W74868  23.512  13.808   4.617
11145W        W74869  36.030  19.619  13.355
11146W        W74870   5.339  12.347  10.529
11147W        W74871  43.465  38.847  12.364
11148W        W74872  42.814  21.210  11.108
11149W        W74873  24.226  33.509   1.238
11150W        W74874   2.452  24.479   1.902
11151W        W74875  41.473  16.142  11.570
11152W        W74876  23.105   8.875   4.125
11153W        W74877  29.071  41.829  13.532
11154W        W74878  19.586   5.808   1.410
11155W        W74879  25.494  17.257  13.916
11156W        W74880  19.633  32.460   1.290
11157W        W74881  21.514  19.571  12.478
11158W        W74882  28.972   1.369  13.310
11159W        W74883  19.627   0.800   2.242
11160W        W74884  31.619  31.040  12.915
11161W        W74885  16.238  21.623   1.927
11162W        W74886  20.584   0.979  11.596
11163W        W74887   7.313  14.738  12.959
11164W        W74888  28.055  43.966  14.487
11165W        W74889   4.420   3.323  12.577
11166W        W74890  43.891  21.584  13.834
11167W        W74891  20.591  37.973  14.917
11168W        W74892   9.298  32.122  13.988
11169W        W74893  21.100   9.687   4.603
11170W        W74894  13.149   9.764   4.182
11171W        W74895  44.986  35.078   1.349
11172W        W74896  14.120   5.850  11.953
11173W        W74897  22.648  35.045   4.325
11174W        W74898   4.787  28.995  12.952
11175W        W74899  42.015   2.408  11.081
11176W        W74900  23.615  29.108   2.719
11177W        W74901  17.598   0.321  12.356
11178W        W74902  33.004   9.314   2.305
11179W        W74903   2.378  19.269  11.997
11180W        W74904  19.062  38.870   2.189
11181W        W74905  28.086   8.183   0.437
11182W        W74906  39.363  27.499   1.754
11183W        W74907  38.470  43.980   0.461
11184W        W74908  25.483  26.164   3.155
11185W        W74909  18.738  33.562   4.798
11186W        W74910  27.056  37.456  14.455
11187W        W74911  43.958  31.094   2.214
11188W        W74912  29.474   8.670  11.586
11189W        W74913  14.664   2.231   4.724
11190W        W74914  16.689  39.856   0.757
11191W        W74915   1.390  38.458   3.261
11192W        W74916  19.116  36.987  10.993
11193W        W74917  39.973  43.408   0.944
11194W        W74918   2.449  28.183   2.893
11195W        W74919  11.856   8.707   4.643
11196W        W74920  36.444  11.240  12.547
11197W        W74921   2.882   6.768  14.829
11198W        W74922   4.778  42.903  14.459
11199W        W74923  20.167  34.482  14.934
11200W        W74924   6.779  28.613  14.951
11201W        W74925  43.862  11.289  12.443
11202W        W74926   8.345   7.666  12.574
11203W        W74927  17.723  12.661   0.285
11204W        W74928  31.109  23.701  10.967
11205W        W74929  24.023  13.732  13.018
11206W        W74930  19.768  34.460  14.472
11207W        W74931  32.493  11.621  12.536
11208W        W74932  22.596  39.916  11.581
11209W        W74933   1.395  27.111  14.398
11210W        W74934  14.301  33.541   0.271
11211W        W74935  29.960   6.798  11.975
11212W        W74936  20.272   1.745   0.270
11213W        W74937  44.992   9.204  13.827
11214W        W74938  31.121  10.755  12.855
11215W        W74939  44.316  22.139  13.454
11216W        W74940  25.048   1.350   0.799
11217W        W74941  29.471  43.941   0.736
11218W        W74942  23.608  21.582   2.340
11219W        W74943   9.228  39.006  11.390
11220W        W74944  20.167  13.614  11.018
11221W        W74945  14.796  44.328   4.633
11222W        W74946  27.659  39.950   4.647
11223W        W74947  24.696  27.101   2.197
11224W        W74948  19.617  28.977   4.336
11225W        W74949  32.976  44.379   0.889
11226W        W74950  30.945  22.651  10.093
11227W        W74951  20.158  38.462  14.292
11228W        W74952  35.508  17.671  14.377
11229W        W74953  25.606   8.806  12.877
11230W        W74954  22.730  21.108  11.118
11231W        W74955   5.356  22.546   4.773
11232W        W74956  16.307  30.544   3.346
11233W        W74957  19.235  38.334  14.959
11234W        W74958   9.844  30.596  10.601
11235W        W74959  10.202  36.347   1.344
11236W        W74960  16.226  34.095   0.363
11237W        W74961  19.769  15.768  14.866
11238W        W74962  10.645  15.618   1.861
11239W        W74963  31.123   3.951   4.711
11240W        W74964   3.948  19.039   0.271
11241W        W74965  15.593  12.815  12.376
11242W        W74966  16.692   3.941  10.430
11243W        W74967  22.618  14.212  14.446
11244W        W74968  16.641  42.795   4.676
11245W        W74969  29.954  21.146  14.863
11246W        W74970  21.522  27.626  13.526
11247W        W74971  29.009   2.256  11.949
11248W        W74972  12.848   7.749  13.432
11249W        W74973  42.930   4.837   1.803
11250W        W74974  17.193   1.878   4.151
11251W        W74975   9.704   2.735  14.278
11252W        W74976  35.568  13.755  13.008
11253W        W74977  38.359  12.612  14.334
11254W        W74978  35.953  22.118  11.587
11255W        W74979  42.792  13.691   2.775
11256W        W74980  27.471   9.261   1.316
11257W        W74981  14.730  35.443   1.700
11258W        W74982  32.524  31.481  14.825
11259W        W74983  12.800  27.591   1.748
11260W        W74984   5.295  32.614   4.816
11261W        W74985   1.445  39.515   4.794
11262W        W74986  27.104   2.292  12.090
11263W        W74987  40.371  33.555  13.999
11264W        W74988  39.339   2.385  10.417
11265W        W74989  32.477  38.952  11.459
11266W        W74990  14.666  41.364   4.775
11267W        W74991   0.929  11.247  13.037
11268W        W74992  22.619  30.950  11.866
11269W        W74993  23.116  25.050   3.334
11270W        W74994  19.565   2.726  10.598
11271W        W74995  28.160  42.951   0.427
11272W        W74996  21.664  32.516   4.817
11273W        W74997  10.777   0.376   4.753
11274W        W74998  13.322  26.587   3.785
11275W        W74999  27.612   6.758  14.391
11276W        W75000  10.864  33.380   2.850
11277W        W75001  33.963  32.034  11.010
11278W        W75002  42.994  33.952  14.358
11279W        W75003  33.563  36.414   4.120
11280W        W75004  34.476  35.393  12.513
11281W        W75005  26.171   9.662   4.256
11282W        W75006  25.109   0.807  12.886
11283W        W75007  30.077   7.880   4.157
11284W        W75008   5.298  37.395   0.252
11285W        W75009  36.067  40.004   0.366
11286W        W75010  24.139  34.529  14.853
11287W        W75011  17.588  17.267   3.385
11288W        W75012   4.779  26.096   2.392
11289W        W75013  24.155  28.631  10.909
11290W        W75014  34.502   4.925   9.966
11291W        W75015   2.249  39.908  14.949
11292W        W75016  13.676  21.713  10.587
11293W        W75017  26.562  14.821   4.181
11294W        W75018  30.032   4.779  11.866
11295W        W75019  37.845  40.849  11.029
11296W        W75020  27.036  33.892   4.611
11297W        W75021  38.989  23.200  12.858
11298W        W75022  27.529  12.289  14.962
11299W        W75023   7.876   8.396  11.525
11300W        W75024  15.701  17.564  12.544
11301W        W75025   7.380  41.438  11.928
11302W        W75026  40.322  14.754  14.761
11303W        W75027  41.846  40.923  14.428
11304W        W75028  26.665  12.246   0.418
11305W        W75029  20.038  41.488   3.676
11306W        W75030  12.225  44.847  12.084
11307W        W75031   0.398  35.933  10.512
11308W        W75032  22.110  41.395  12.981
11309W        W75033  30.090  27.150  10.556
11310W        W75034   8.766  41.327  12.462
11311W        W75035  27.003  26.986  14.379
11312W        W75036  36.349   3.239  14.382
11313W        W75037   2.387  41.326  10.424
11314W        W75038  20.139  22.665   3.820
11315W        W75039  26.090  11.704  14.342
11316W        W75040  17.599  30.103   4.346
11317W        W75041  14.702  11.239   2.339
11318W        W75042  31.923  20.741   1.851
11319W        W75043  34.930   2.742  12.059
11320W        W75044  33.514  24.992   1.866
11321W        W75045   6.212   5.857  13.903
11322W        W75046  16.188   7.196  13.462
11323W        W75047  27.684   0.249  10.978
11324W        W75048  17.145   5.690  13.442
11325W        W75049  29.426   8.841   0.403
11326W        W75050  37.512  22.533   0.749
11327W        W75051  41.935   4.923  13.427
11328W        W75052  36.957   4.873   0.404
11329W        W75053  11.195  23.719  13.494
11330W        W75054  21.085   4.709   3.742
11331W        W75055  17.287  44.411  10.489
11332W        W75056   0.332  11.242  10.638
11333W        W75057  30.412  18.151   0.770
11334W        W75058  30.996  30.534   4.300
11335W        W75059  40.326  36.074   3.713
11336W        W75060  27.112  37.918   0.968
11337W        W75061  38.937  39.559  13.793
11338W        W75062  16.305  43.416  10.993
11339W        W75063  30.526   3.925  12.027
11340W        W75064  26.697  30.015  13.923
11341W        W75065  28.119  16.114  11.441
11342W        W75066  40.892  23.167   3.759
11343W        W75067  37.500  17.657  14.885
11344W        W75068  24.671  40.355  13.854
11345W        W75069  31.454  13.305  12.069
11346W        W75070   6.352  15.712   1.877
11347W        W75071  27.944  43.434   2.328
11348W        W75072  13.814  11.186  14.948
11349W        W75073  31.557  32.585   3.727
11350W        W75074  19.618  35.932   1.379
11351W        W75075  33.128   3.275  13.898
11352W        W75076  42.945  31.416  11.395
11353W        W75077  33.512  25.608  12.568
11354W        W75078  29.428   0.969   0.798
11355W        W75079  19.754   5.754   0.751
11356W        W75080   0.335   1.256   2.247
11357W        W75081  22.550  32.143   1.258
11358W        W75082   9.785   0.886   1.340
11359W        W75083  18.257  13.678  10.426
11360W        W75084   2.379  25.645   0.474
11361W        W75085  41.305  17.775  10.452
11362W        W75086   8.355  29.665   2.894
11363W        W75087   1.386   8.333  14.945
11364W        W75088  41.812  14.287  14.947
11365W        W75089  22.585  11.153   4.159
11366W        W75090   5.888  35.502   4.283
11367W        W75091  32.009  24.676   5.200
11368W        W75092  18.770  39.836   0.418
11369W        W75093  11.211  24.077   0.462
11370W        W75094  29.922   1.891  10.570
11371W        W75095  19.269   8.296  13.866
11372W        W75096   5.433  14.696   1.297
11373W        W75097  19.694   3.433  14.342
11374W        W75098  12.344  28.508  11.522
11375W        W75099   3.419  24.485   1.757
11376W        W75100  12.675  41.928  13.433
11377W        W75101  37.505  13.599   2.673
11378W        W75102   3.404  22.656  13.854
11379W        W75103  19.634  29.119  14.965
11380W        W75104  30.013  15.207   1.349
11381W        W75105  30.525  12.750  14.836
11382W        W75106   4.829  11.134   4.655
11383W        W75107  21.250  12.232   3.850
11384W        W75108  19.227  43.396  11.983
11385W        W75109  29.096  36.066  12.866
11386W        W75110  15.731  21.654   3.808
11387W        W75111   1.381  34.882  14.868
11388W        W75112  18.567  16.242   3.337
11389W        W75113  21.212   9.721   0.320
11390W        W75114  32.523  31.972   2.847
11391W        W75115  23.628  41.930   5.732
11392W        W75116  37.976  22.718  12.053
11393W        W75117  14.118  14.691   4.617
11394W        W75118   4.307  30.951  12.832
11395W        W75119  35.888  34.594  11.488
11396W        W75120  25.117  40.339   0.729
11397W        W75121  35.502  19.624  11.527
11398W        W75122   1.822  39.052  13.007
11399W        W75123   5.366  39.000   2.884
11400W        W75124  10.232  28.021  14.383
11401W        W75125  27.969  34.576   4.308
11402W        W75126  25.523  31.417   2.867
11403W        W75127  37.578   2.345  13.917
11404W        W75128  37.881   6.318   1.778
11405W        W75129   9.245  36.543  13.040
11406W        W75130  20.127  38.821  14.850
11407W        W75131   5.210  29.523   2.283
11408W        W75132  30.940   9.812   3.191
11409W        W75133  11.863  42.939  10.102
11410W        W75134  16.112   5.831   0.482
11411W        W75135   3.302  26.099  14.311
11412W        W75136  28.160   8.728  12.011
11413W        W75137  28.186  16.134  13.349
11414W        W75138  18.218   4.346   3.781
11415W        W75139  38.905   3.736   2.408
11416W        W75140  35.529  15.582   1.219
11417W        W75141   6.331  39.383  11.116
11418W        W75142   0.821  35.390  13.331
11419W        W75143   5.695  27.574  14.487
11420W        W75144   3.792   1.734  11.128
11421W        W75145   8.316   6.799   1.701
11422W        W75146  38.419  28.452   0.926
11423W        W75147  34.981   1.775  11.381
11424W        W75148  28.673   0.970   1.276
11425W        W75149  36.393  13.648   3.639
11426W        W75150  19.263   7.212  13.987
11427W        W75151   6.753  26.185   3.152
11428W        W75152  41.524  18.091   1.793
11429W        W75153   7.300  24.605  12.498
11430W        W75154   2.469  23.616  10.528
11431W        W75155  38.829  38.408  13.934
11432W        W75156   7.255  18.229  14.414
11433W        W75157  21.082  41.892   4.782
11434W        W75158  40.954  37.037  10.503
11435W        W75159  12.794  26.544  12.480
11436W        W75160  24.011  28.654   1.705
11437W        W75161  37.000  11.837   1.933
11438W        W75162   0.878  36.417   0.254
11439W        W75163  44.492  35.958  14.274
11440W        W75164  34.927  21.539   0.429
11441W        W75165  31.102   4.917  11.455
11442W        W75166  11.226   9.737   2.703
11443W        W75167  24.049  32.055   3.700
11444W        W75168  26.095   4.225  11.098
11445W        W75169  24.175  14.593  13.840
11446W        W75170  36.388  38.894   0.392
11447W        W75171  30.510  42.901  11.042
11448W        W75172  35.437  13.768   4.806
11449W        W75173  33.585  35.964   0.370
11450W        W75174  36.007   7.875   0.257
11451W        W75175   2.236  44.805  13.367
11452W        W75176   5.793  31.147  12.495
11453W        W75177  40.440   5.291  14.974
11454W        W75178  19.629  23.698  11.033
11455W        W75179  33.385   1.461  10.495
11456W        W75180   8.400   5.430  11.943
11457W        W75181  10.337  32.009   0.271
11458W        W75182   5.310   1.339   1.291
11459W        W75183  23.658  41.810  10.010
11460W        W75184  14.666  37.578  12.943
11461W        W75185  33.950   2.835  14.405
11462W        W75186  34.424   4.444   3.247
11463W        W75187  23.124  39.009  12.993
11464W        W75188   4.394  38.356   2.898
11465W        W75189  38.891  19.218   2.891
11466W        W75190  23.502  16.775   0.477
11467W        W75191  19.628  37.379  12.044
11468W        W75192  23.720  37.430   1.870
11469W        W75193   5.249  34.573   4.278
11470W        W75194  20.157  30.596  10.150
11471W        W75195  43.900  12.348   3.644
11472W        W75196   0.432  27.118  12.065
11473W        W75197  37.409  28.593   0.269
11474W        W75198  36.920   4.816  14.945
11475W        W75199  38.473   5.872  11.529
11476W        W75200   8.678   5.291  14.441
11477W        W75201   3.373  43.780   0.419
11478W        W75202  21.048   8.198  11.098
11479W        W75203   1.481  44.957  11.001
11480W        W75204   3.243  38.948  10.550
11481W        W75205   2.471  14.708   4.160
11482W        W75206   7.738  42.341   4.341
11483W        W75207  10.202  40.323  13.317
11484W        W75208   2.798  35.018  11.966
11485W        W75209   9.683  25.214  13.351
11486W        W75210  37.962  35.035  13.424
11487W        W75211  21.222   3.399  12.970
11488W        W75212   5.223  43.307  13.883
11489W        W75213  44.469   5.380   2.178
11490W        W75214  31.452  21.750   2.383
11491W        W75215  33.405  17.781  13.791
11492W        W75216  20.571   6.875  12.378
11493W        W75217  21.652  33.052   0.431
11494W        W75218  33.435  28.677   4.742
11495W        W75219  28.178  23.571   4.228
11496W        W75220  31.600  13.725   2.319
11497W        W75221   0.385   2.956   3.704
11498W        W75222  28.143  21.523  11.531
11499W        W75223  17.286   2.926  13.974
11500W        W75224  15.583  17.566  14.767
11501W        W75225   4.398   1.931  12.525
11502W        W75226  30.051  44.365  13.014
11503W        W75227  17.092   4.273   2.821
11504W        W75228  44.443  32.058   3.637
11505W        W75229   2.770   3.309   3.293
11506W        W75230   1.245  26.123   1.278
11507W        W75231  43.968  10.183  12.029
11508W        W75232  11.841  10.689   2.298
11509W        W75233  35.969  22.057  10.498
11510W        W75234  29.519   2.281  13.482
11511W        W75235  34.428  17.071   1.308
11512W        W75236  17.232   7.384   4.768
11513W        W75237   5.321  43.387  11.965
11514W        W75238  33.077  20.147   3.312
11515W        W75239   0.956  24.214  13.024
11516W        W75240  43.764  41.476  14.355
11517W        W75241  24.076  43.390  13.537
11518W        W75242  22.170  22.242   1.245
11519W        W75243   1.253   6.883  13.915
11520W        W75244  41.349   8.346  14.971
11521W        W75245  43.498  14.239   1.327
11522W        W75246   8.381  23.521   0.834
11523W        W75247   7.783  38.407  12.426
11524W        W75248  22.692  28.019   1.856
11525W        W75249  36.064  37.545   2.832
11526W        W75250  20.124  16.675  12.356
11527W        W75251   0.476  28.093  14.905
11528W        W75252  11.818  13.698   2.727
11529W        W75253  32.437  31.574  13.034
11530W        W75254   5.328  34.923  13.949
11531W        W75255  10.872   3.722  12.875
11532W        W75256  31.601  38.882  13.439
11533W        W75257  10.178  11.751  11.985
11534W        W75258   8.888  18.277  11.495
11535W        W75259  23.149  18.571   2.887
11536W        W75260  36.992  39.456  13.995
11537W        W75261   3.215  33.613   1.322
11538W        W75262  34.417  33.624  10.439
11539W        W75263  10.149  28.008   0.347
11540W        W75264  11.679  24.698  12.464
11541W        W75265  14.731  22.538  11.912
11542W        W75266  19.595  22.561   1.290
11543W        W75267  33.119  31.110   4.665
11544W        W75268  27.058  41.457  11.066
11545W        W75269  17.278   9.353   3.361
11546W        W75270   8.901   1.272   3.670
11547W        W75271  43.937  13.167  11.864
11548W        W75272  21.122   3.310   2.734
11549W        W75273  20.138  22.251   0.727
11550W        W75274  30.600   6.919  13.830
11551W        W75275  25.030  32.592   3.329
11552W        W75276  27.535  25.658   3.308
11553W        W75277  44.925   5.258   4.653
11554W        W75278  21.678  12.695  12.027
11555W        W75279  13.294   7.832   3.314
11556W        W75280  12.175  11.306  11.375
11557W        W75281  24.993   2.901  12.394
11558W        W75282  15.622  43.488  10.512
11559W        W75283  30.516  20.638  14.985
11560W        W75284  16.693  32.982   1.233
11561W        W75285  11.211  34.894  10.999
11562W        W75286  25.498  30.066   4.647
11563W        W75287   0.469  41.863  13.538
11564W        W75288  39.973  42.799  11.587
11565W        W75289  26.023  41.799   2.257
11566W        W75290  31.991   3.319   3.174
11567W        W75291  30.013   4.361  10.933
11568W        W75292  30.084  20.180   3.226
11569W        W75293   6.677   4.801   4.197
11570W        W75294  11.346  21.039  14.848
11571W        W75295   7.792  38.343  12.073
11572W        W75296   8.258  38.393   1.874
11573W        W75297  19.165  11.798   0.805
11574W        W75298  29.555  32.024  10.030
11575W        W75299  20.593  32.548  10.631
11576W        W75300  11.628  43.889   1.787
11577W        W75301   8.188  21.049   4.634
11578W        W75302   3.816  27.948  12.572
11579W        W75303   7.306  20.605   3.249
11580W        W75304  39.031  42.819   2.296
11581W        W75305   5.723   3.365   1.751
11582W        W75306  30.474  23.240   1.252
11583W        W75307  43.871  20.651  14.012
11584W        W75308  36.910  36.878  13.804
11585W        W75309   6.244  40.031  12.490
11586W        W75310  22.207  30.544   1.411
11587W        W75311  23.068  33.059  10.568
11588W        W75312  16.223  31.411   4.119
11589W        W75313  41.787  22.635   1.773
11590W        W75314  16.219  21.575  11.609
11591W        W75315  29.457   2.347   3.330
11592W        W75316  24.136   0.837  11.996
11593W        W75317   2.790  38.921  12.442
11594W        W75318  16.120  40.422  11.866
11595W        W75319  21.096  21.534   1.263
11596W        W75320  28.983  19.247   1.407
11597W        W75321  25.179  12.139  12.927
11598W        W75322   6.792  42.024  11.512
11599W        W75323  24.674  18.610  14.390
11600W        W75324  21.056  40.971   2.726
11601W        W75325  37.439  30.525  12.855
11602W        W75326   1.913  26.470   9.951
11603W        W75327  12.700  33.944   0.319
11604W        W75328  15.204  15.097   1.818
11605W        W75329  22.618  26.123   0.329
11606W        W75330   8.240  33.598  11.921
11607W        W75331  29.066  10.155   5.253
11608W        W75332  43.410  37.378   0.932
11609W        W75333  13.346  36.532   3.157
11610W        W75334  23.115  39.913   3.268
11611W        W75335  44.969  22.037  10.974
11612W        W75336  11.220  33.477   1.424
11613W        W75337  26.623  34.071  10.893
11614W        W75338  14.136  23.553   0.262
11615W        W75339  38.008  32.528  13.909
11616W        W75340  16.811  16.184   5.270
11617W        W75341  25.183  37.338  11.519
11618W        W75342   3.242   0.749  12.388
11619W        W75343  10.675  19.605  12.024
11620W        W75344  16.706   2.229  11.941
11621W        W75345  13.803  33.492  10.517
11622W        W75346  31.622  13.253  12.404
11623W        W75347  10.703  22.105   0.467
11624W        W75348  15.272   1.757   4.745
11625W        W75349  35.991  28.944  11.997
11626W        W75350  42.393   3.714  12.381
11627W        W75351  36.375  44.932  10.428
11628W        W75352   6.892   6.277   4.811
11629W        W75353  32.897  41.511  10.506
11630W        W75354  29.531  37.575  13.060
11631W        W75355   7.384  12.147  14.023
11632W        W75356  24.723  17.722   2.224
11633W        W75357   1.734  24.582   1.325
11634W        W75358  11.346  31.947   1.448
11635W        W75359  13.340  44.335  10.907
11636W        W75360   5.340   1.785   0.338
11637W        W75361  13.199   0.473   3.728
11638W        W75362  33.031  24.653   2.321
11639W        W75363  32.047  15.175   5.241
11640W        W75364  34.894  24.549  10.577
11641W        W75365  12.166  43.294  11.046
11642W        W75366  37.063  20.052  13.402
11643W        W75367  11.754   8.686  12.424
11644W        W75368  13.162  29.626  10.952
11645W        W75369  38.944  16.740  14.407
11646W        W75370  33.976  44.976  14.813
11647W        W75371  40.822  41.421   5.218
11648W        W75372   2.760   8.891   0.277
11649W        W75373   7.666  25.046   4.201
11650W        W75374   9.371  23.508   4.777
11651W        W75375  21.544   7.266  10.993
11652W        W75376   0.390  23.219   2.810
11653W        W75377  43.416   1.417  10.630
11654W        W75378  43.501  38.823   1.377
11655W        W75379  27.506  17.785  11.057
11656W        W75380  18.689  30.523  14.317
11657W        W75381  35.039  33.458  14.775
11658W        W75382  21.202  32.517   3.267
11659W        W75383   6.725  42.455   2.861
11660W        W75384  34.571  29.962  12.476
11661W        W75385  36.555  13.814  11.561
11662W        W75386  27.978  21.530   0.290
11663W        W75387  14.610  16.196   2.691
11664W        W75388  25.965  28.971   4.157
11665W        W75389  34.596  25.162   0.295
11666W        W75390  19.611   7.673  11.995
11667W        W75391  42.491  42.454   0.821
11668W        W75392  37.466  44.342   5.210
11669W        W75393  14.740   6.922  14.763
11670W        W75394  20.702   8.677   3.216
11671W        W75395   3.918   7.362  10.125
11672W        W75396  31.566  10.649  11.430
11673W        W75397  25.055  34.600   0.285
11674W        W75398  34.558  16.274  13.925
11675W        W75399  23.702   7.770   4.756
11676W        W75400  39.875  34.382  14.851
11677W        W75401   0.254   3.237  14.373
11678W        W75402  41.306  43.944   2.301
11679W        W75403  27.976  40.890   0.956
11680W        W75404   4.943  19.699   9.948
11681W        W75405  12.314  39.893  10.502
11682W        W75406  22.079  22.691   4.789
11683W        W75407  21.644  43.451  14.505
11684W        W75408  35.446  43.801  12.847
11685W        W75409  36.912  38.002   3.646
11686W        W75410   3.717   9.708   2.274
11687W        W75411  13.738   1.448  11.996
11688W        W75412  28.625  19.144  11.487
11689W        W75413  43.313  17.735   3.146
11690W        W75414  10.650   1.807  10.900
11691W        W75415   1.844  11.817   1.273
11692W        W75416   1.446  13.128  10.629
11693W        W75417  13.774  29.075   2.385
11694W        W75418  27.641   6.281  12.853
11695W        W75419  30.083  42.906  14.801
11696W        W75420   9.286  34.879   2.214
11697W        W75421  33.911   7.872  10.465
11698W        W75422  12.225   1.254   2.897
11699W        W75423   9.264   4.410  13.310
11700W        W75424   7.348  43.390   3.633
11701W        W75425  22.213   4.235   2.740
11702W        W75426   8.268  33.564   1.300
11703W        W75427   8.343  22.580   2.743
11704W        W75428  42.782  19.279   0.774
11705W        W75429  28.106  22.032  11.921
11706W        W75430  26.675  15.103   3.681
11707W        W75431  41.900  19.652   4.174
11708W        W75432   4.716  16.274  10.592
11709W        W75433  29.019  31.415   2.367
11710W        W75434  26.975  36.369  14.826
11711W        W75435  26.097  38.498  12.342
11712W        W75436  17.680  14.255   4.293
11713W        W75437   5.311  17.265   4.839
11714W        W75438  33.918  11.627  12.996
11715W        W75439   0.970   0.330   1.871
11716W        W75440  31.608  17.659   2.318
11717W        W75441  26.460   7.285   3.664
11718W        W75442   4.274  11.660   0.481
11719W        W75443  23.663  36.905  14.396
11720W        W75444  44.463   5.377   4.310
11721W        W75445   0.956  16.108   0.820
11722W        W75446  30.615  28.451   4.197
11723W        W75447  11.802  26.993  14.967
11724W        W75448   8.816  12.214   4.220
11725W        W75449  42.380  31.987   4.271
11726W        W75450  38.863  22.628  13.823
11727W        W75451  25.536   4.322  11.600
11728W        W75452  24.088  38.070   3.354
11729W        W75453  43.853  19.718   3.719
11730W        W75454  22.580   0.902   2.720
11731W        W75455  30.475  43.281   4.761
11732W        W75456  16.193  38.326   0.354
11733W        W75457  21.756   7.718  11.004
11734W        W75458  14.680  34.583  11.458
11735W        W75459  28.661  43.784  13.792
11736W        W75460  11.650  14.149   1.811
11737W        W75461  12.817   6.212  13.506
11738W        W75462  22.546  24.169   5.099
11739W        W75463  29.643  10.384   2.242
11740W        W75464   0.908  23.536  12.027
11741W        W75465  27.079   5.393  12.571
11742W        W75466  35.857  36.890   1.838
11743W        W75467  24.213  34.096   3.352
11744W        W75468  33.113  20.249   1.424
11745W        W75469   6.718  23.115  13.443
11746W        W75470  13.810  29.017  12.905
11747W        W75471   8.675  14.748   1.245
11748W        W75472   3.282  40.013   0.379
11749W        W75473  40.449  12.746   0.396
11750W        W75474  33.905  17.081  10.027
11751W        W75475  25.055   7.236  11.427
11752W        W75476   7.836  18.257  13.461
11753W        W75477  42.777  16.761  13.861
11754W        W75478  44.868  36.872  12.037
11755W        W75479  10.652  39.495   3.846
11756W        W75480  12.729   5.244   0.289
11757W        W75481   7.910  36.528   1.273
11758W        W75482  24.614   8.313   3.698
11759W        W75483  13.689  34.012   4.315
11760W        W75484  24.512  42.027   4.612
11761W        W75485  28.640  33.888  11.398
11762W        W75486  20.611  29.975   1.762
11763W        W75487   7.368  42.836   1.736
11764W        W75488   4.794  22.013  13.061
11765W        W75489   0.827  16.666  13.058
11766W        W75490  11.822   3.794  12.445
11767W        W75491  43.985  35.399   9.922
11768W        W75492  32.546  15.796   3.756
11769W        W75493  12.724  29.931  14.311
11770W        W75494  21.212  14.701  10.924
11771W        W75495  21.626  28.597   0.358
11772W        W75496  42.955  14.278  10.407
11773W        W75497  32.460  31.012  13.929
11774W        W75498  40.971  12.620  13.542
11775W        W75499   0.381  13.725  13.461
11776W        W75500  29.102   8.344   3.208
11777W        W75501  18.756  34.404  10.148
11778W        W75502  42.892   0.278   0.413
11779W        W75503  13.788   4.941   4.282
11780W        W75504  25.578   9.335   0.388
11781W        W75505   2.791  18.188   2.821
11782W        W75506  26.492  23.121   4.665
11783W        W75507  24.606   4.425  12.566
11784W        W75508  18.053  42.387  14.424
11785W        W75509  35.491  16.291   1.826
11786W        W75510   1.340  44.274  10.899
11787W        W75511  27.559  17.193   2.188
11788W        W75512  41.978  23.019   2.704
11789W        W75513  18.229  24.720   1.757
11790W        W75514  43.011   2.332  12.375
11791W        W75515   3.331  26.612   1.863
11792W        W75516  34.988   9.682   2.324
11793W        W75517  29.514   7.720   9.969
11794W        W75518   5.210   9.225   4.820
11795W        W75519  33.984  19.631  14.956
11796W        W75520  28.472  24.200  12.375
11797W        W75521  13.817  23.502  13.507
11798W        W75522   2.395   8.826  11.504
11799W        W75523  35.362  24.665   0.392
11800W        W75524  30.656   2.294  12.461
11801W        W75525  43.306   4.316  12.466
11802W        W75526  18.605   8.209  14.822
11803W        W75527  15.217  20.250  14.450
11804W        W75528  33.994  16.683   4.615
11805W        W75529  15.320  22.210  10.926
11806W        W75530  11.785  41.443  13.425
11807W        W75531   9.823  12.758   2.902
11808W        W75532  26.641  20.240  13.898
11809W        W75533  13.725   0.901  11.377
11810W        W75534   5.816  19.154   4.705
11811W        W75535  36.950  24.710   2.773
11812W        W75536  35.586  33.541   2.808
11813W        W75537  21.640  31.561  13.806
11814W        W75538   2.443  37.466   3.341
11815W        W75539  26.559  41.505  11.519
11816W        W75540   4.808   2.952  10.975
11817W        W75541  13.757  36.549  11.987
11818W        W75542  30.035  41.304   3.363
11819W        W75543  42.801  26.497  14.484
11820W        W75544  39.023   8.798   9.923
11821W        W75545  44.947  11.298  12.011
11822W        W75546  31.954  18.196   2.244
11823W        W75547  17.754  18.586   3.697
11824W        W75548  43.849  10.188  13.508
11825W        W75549   9.168  39.514  13.407
11826W        W75550  41.355  38.540  11.377
11827W        W75551  29.167  11.326  11.931
11828W        W75552   8.214  40.922  10.505
11829W        W75553  11.668  13.684  14.512
11830W        W75554  12.835  44.467  11.061
11831W        W75555  21.587   9.842   1.706
11832W        W75556  32.570  18.678  12.014
11833W        W75557  27.529  11.179   4.267
11834W        W75558  29.583  31.628  12.925
11835W        W75559  23.086  33.995   4.637
11836W        W75560  34.961  17.074   0.746
11837W        W75561  11.848   3.335  10.616
11838W        W75562   2.267   6.368   1.426
11839W        W75563   7.684  11.809  12.938
11840W        W75564  14.713  15.206  14.916
11841W        W75565   3.344  31.902   1.414
11842W        W75566  40.936  21.057   3.174
11843W        W75567  23.595  39.520   3.215
11844W        W75568  11.143  20.560  10.528
11845W        W75569  41.889  34.530  10.533
11846W        W75570  28.997  42.432  10.552
11847W        W75571   3.277  32.399   2.806
11848W        W75572  30.533   6.320  13.426
11849W        W75573  33.445   2.860   4.241
11850W        W75574  33.541   2.771   0.781
11851W        W75575   5.398  32.081   4.614
11852W        W75576  29.067  14.297   2.257
11853W        W75577  43.321  21.728  11.866
11854W        W75578  26.595  30.044   2.805
11855W        W75579   5.824  15.291  10.447
11856W        W75580  44.498   3.901   4.608
11857W        W75581  44.334  43.441   2.227
11858W        W75582   5.787  38.053   0.837
11859W        W75583  44.325  25.527  13.456
11860W        W75584  28.101  15.295  14.797
11861W        W75585   7.754  10.293  12.926
11862W        W75586   1.771  30.492  10.499
11863W        W75587  38.070  14.788  12.091
11864W        W75588  38.928  29.090   4.174
11865W        W75589  10.851   3.806   0.478
11866W        W75590  34.590   2.841  13.007
11867W        W75591   2.432  23.986   0.370
11868W        W75592  44.949  30.481  12.016
11869W        W75593  28.621  26.654   0.386
11870W        W75594  27.646  11.688   3.663
11871W        W75595  18.771  42.446  11.977
11872W        W75596  40.333  22.638   0.436
11873W        W75597  40.940  35.545   2.309
11874W        W75598  28.554  20.572  13.047
11875W        W75599   2.243  30.472  14.841
11876W        W75600  42.883  12.209   1.349
11877W        W75601   5.254   6.909   0.881
11878W        W75602  15.648  23.617  11.117
11879W        W75603  44.450  17.178   3.682
11880W        W75604  31.964  19.141  13.043
11881W        W75605  19.640  11.186   3.173
11882W        W75606  18.689  29.605  10.553
11883W        W75607  26.573  24.183  10.636
11884W        W75608  16.595  37.540   1.373
11885W        W75609  30.452  25.493   4.316
11886W        W75610  33.522  38.346   0.349
11887W        W75611  35.443   0.806  10.588
11888W        W75612  43.459  21.136   4.633
11889W        W75613   5.263  14.145   0.784
11890W        W75614  18.607  26.615   3.774
11891W        W75615  13.347   4.918  13.819
11892W        W75616  38.555   4.431   0.784
11893W        W75617  42.954  17.726   0.886
11894W        W75618   8.817   5.239   1.285
11895W        W75619   9.393  32.097  14.922
11896W        W75620  16.159  20.631   1.900
11897W        W75621  38.902   1.334   4.157
11898W        W75622  10.333  13.116   0.866
11899W        W75623   1.478  44.778  13.889
11900W        W75624  32.017  35.513   2.310
11901W        W75625  33.095  44.841  11.959
11902W        W75626  40.371  28.597   0.457
11903W        W75627  22.630   5.733  13.918
11904W        W75628  12.267  31.983  10.616
11905W        W75629   5.352  12.713   0.817
11906W        W75630  15.096  41.914   3.294
11907W        W75631   9.654  27.041  11.915
11908W        W75632  33.081  16.162   4.224
11909W        W75633   8.257  19.258   3.662
11910W        W75634   0.398  19.641   4.129
11911W        W75635  40.873  23.685  12.483
11912W        W75636   5.879  19.072   1.398
11913W        W75637  32.574  18.637  13.033
11914W        W75638  35.919  18.206   1.339
11915W        W75639  38.441  29.664  12.932
11916W        W75640  24.117  19.548   1.773
11917W        W75641  31.152  29.571   0.288
11918W        W75642  40.374  33.437   4.302
11919W        W75643   9.292  41.822  12.478
11920W        W75644  40.430  40.356   2.265
11921W        W75645   2.735   2.909  14.337
11922W        W75646  19.706   0.770   3.653
11923W        W75647   5.864  38.480   1.381
11924W        W75648  42.947  12.809  14.937
11925W        W75649  42.291  30.919  14.850
11926W        W75650  39.553  20.632   4.269
11927W        W75651  30.595  11.857   2.712
11928W        W75652   2.869  14.697   3.375
11929W        W75653   5.419  18.644   3.215
11930W        W75654  39.470  24.513   1.843
11931W        W75655  10.658  31.010   4.608
11932W        W75656  16.309  13.187  12.836
11933W        W75657  27.486  14.230   1.320
11934W        W75658  27.579  32.956   3.637
11935W        W75659   0.760  12.823   2.807
11936W        W75660  17.784  21.515   4.303
11937W        W75661  41.435   3.256  10.480
11938W        W75662  36.904  37.025  11.059
11939W        W75663  24.223   1.764   0.365
11940W        W75664  16.183  26.546   0.824
11941W        W75665  31.972   4.211   4.655
11942W        W75666   5.237  15.309  11.062
11943W        W75667  35.085  11.642   0.902
11944W        W75668  44.425  38.849   2.304
11945W        W75669  17.288   6.871   4.650
11946W        W75670  42.820  15.636   2.228
11947W        W75671  35.434  14.723  14.788
11948W        W75672  34.020   7.905  11.412
11949W        W75673  12.256  28.583   2.681
11950W        W75674  18.643  40.540  12.494
11951W        W75675  31.510   9.191  10.425
11952W        W75676   2.796   3.787  10.953
11953W        W75677  33.014  39.401   4.812
11954W        W75678   9.151  22.039   3.644
11955W        W75679  37.833  28.492   1.918
11956W        W75680  22.540  12.179  14.964
11957W        W75681  39.351   6.286  12.073
11958W        W75682   1.797   7.361  10.499
11959W        W75683  28.082  16.632   1.274
11960W        W75684  11.293   6.818  12.973
11961W        W75685  35.467  37.555   3.175
11962W        W75686   3.333  11.650  12.833
11963W        W75687   5.805  43.316  14.460
11964W        W75688  26.052  17.713  10.471
11965W        W75689  23.213  12.260  13.534
11966W        W75690   2.258  36.917   3.812
11967W        W75691  32.927   7.348   2.784
11968W        W75692  27.649  27.672  14.357
11969W        W75693  24.690  12.740   3.314
11970W        W75694  37.072  27.663  11.925
11971W        W75695  19.081  18.658   1.349
11972W        W75696   3.335  38.915   3.291
11973W        W75697  32.928  23.121  13.888
11974W        W75698  16.175  15.134  13.963
11975W        W75699  20.185   3.941  12.006
11976W        W75700  20.235  28.607   3.766
11977W        W75701  18.590  37.463   3.820
11978W        W75702  15.668  23.617  12.503
11979W        W75703  35.583  16.722   0.899
11980W        W75704  15.741   8.876  13.058
11981W        W75705  21.052   3.428   5.227
11982W        W75706  10.354  21.250  11.923
11983W        W75707  24.011  31.551   0.761
11984W        W75708  15.777  33.979   1.271
11985W        W75709  10.721  43.966   4.312
11986W        W75710  23.120  15.205   4.154
11987W        W75711  26.182  11.792   2.412
11988W        W75712  39.521  20.104  11.930
11989W        W75713   9.170  43.298   3.387
11990W        W75714  42.849  28.538   2.381
11991W        W75715  20.586  39.351   3.384
11992W        W75716  24.226  31.135   0.411
11993W        W75717  36.572  15.595   1.288
11994W        W75718   5.393  23.530   3.153
11995W        W75719  34.608   7.217  13.877
11996W        W75720  28.053  31.523  11.425
11997W        W75721  30.575  41.981  11.437
11998W        W75722  12.170  19.112   0.894
11999W        W75723   8.799  24.642  12.540
12000W        W75724  17.071  13.226  11.110
12001W        W75725  26.589  41.376  13.510
12002W        W75726  34.388  13.765   1.334
12003W        W75727  36.535  26.622   4.345
12004W        W75728  28.463  13.274  12.465
12005W        W75729  42.373  33.470   3.182
12006W        W75730  19.222  16.810   5.594
12007W        W75731  25.990   1.347   4.834
12008W        W75732  35.492  38.935  14.961
12009W        W75733  11.853  14.654   4.307
12010W        W75734  38.497  33.078   1.835
12011W        W75735  42.500  18.662  10.451
12012W        W75736  36.370   3.454  13.343
12013W        W75737  35.860  17.727   0.253
12014W        W75738  35.872   6.379  12.028
12015W        W75739  42.465  44.762   2.705
12016W        W75740   0.970  11.839   3.316
12017W        W75741  21.051  37.042  10.606
12018W        W75742  25.568  35.937   4.159
12019W        W75743  18.712  35.429  12.996
12020W        W75744  12.261   2.930  11.968
12021W        W75745   9.151   9.173   4.149
12022W        W75746  14.280   3.827   9.468
12023W        W75747  31.579  35.069   3.728
12024W        W75748  14.701  10.348   0.749
12025W        W75749  33.561  35.994  10.153
12026W        W75750   3.456  40.985  13.004
12027W        W75751  39.890  44.357   0.916
12028W        W75752  11.247   5.419   2.884
12029W        W75753  13.718  33.579  11.968
12030W        W75754  15.772  20.215   4.676
12031W        W75755  40.958  29.002  11.552
12032W        W75756  36.348  13.180   1.296
12033W        W75757  43.296  23.693   1.344
12034W        W75758  31.410  17.174   1.313
12035W        W75759  43.809   1.242   4.750
12036W        W75760  39.836  23.188  12.990
12037W        W75761   6.393  20.709   2.713
12038W        W75762  13.747  24.134   1.340
12039W        W75763  30.520   4.298   2.765
12040W        W75764   7.768  19.743  10.533
12041W        W75765  24.492  29.941  14.763
12042W        W75766  14.181   2.793  10.434
12043W        W75767  43.919  43.455   0.313
12044W        W75768  44.795  28.934   3.314
12045W        W75769  33.417  20.246  12.917
12046W        W75770  35.028  24.663  14.383
12047W        W75771  25.600  43.334  13.369
12048W        W75772  40.909  17.573   1.797
12049W        W75773  38.824  13.232  12.972
12050W        W75774  19.279   4.886  11.499
12051W        W75775  12.273  32.135   0.835
12052W        W75776  22.601  38.930  12.410
12053W        W75777  30.419  24.543  14.020
12054W        W75778  20.055   1.929   5.202
12055W        W75779   2.908  17.065   4.726
12056W        W75780  30.570  44.808  11.862
12057W        W75781  36.925  32.072  12.430
12058W        W75782  40.991  17.681   1.430
12059W        W75783  10.348  23.595  10.643
12060W        W75784  37.080  30.084   4.291
12061W        W75785   2.899  42.904  11.946
12062W        W75786  17.727  41.855   3.332
12063W        W75787  25.014  42.434  10.528
12064W        W75788  11.209  38.534   1.255
12065W        W75789  36.415   7.693   1.766
12066W        W75790  30.996   6.702  10.641
12067W        W75791  21.120   1.460   1.374
12068W        W75792  39.430   1.911  14.914
12069W        W75793   1.750  41.804  10.533
12070W        W75794   3.410   7.274   2.319
12071W        W75795  24.001  30.055  14.875
12072W        W75796   1.429  28.544   0.413
12073W        W75797  13.702  22.556   3.637
12074W        W75798   4.788   6.387  11.564
12075W        W75799   1.292  42.914   4.116
12076W        W75800  25.999  13.337  12.018
12077W        W75801   7.782   8.821   4.354
12078W        W75802  28.119  16.270  14.996
12079W        W75803  40.369   7.211  10.426
12080W        W75804  41.499  43.876   1.393
12081W        W75805  18.762  24.224  10.460
12082W        W75806   1.845  17.621  12.910
12083W        W75807  41.939  26.557  12.356
12084W        W75808   0.427   4.436   2.694
12085W        W75809  22.207   6.897   0.962
12086W        W75810  25.523  39.388   0.833
12087W        W75811  13.336  36.035   2.722
12088W        W75812  38.876  31.538   3.210
12089W        W75813  36.408   6.304   2.879
12090W        W75814  21.531  16.304  11.552
12091W        W75815  12.192  18.288   2.811
12092W        W75816  25.638   4.224  14.926
12093W        W75817   4.373  24.102  10.464
12094W        W75818  39.537   7.315   3.224
12095W        W75819  37.430  29.462   3.740
12096W        W75820   9.676  25.577  10.616
12097W        W75821   1.779  20.087  12.530
12098W        W75822   3.910   1.390   4.606
12099W        W75823  30.145   7.289   2.341
12100W        W75824  21.671  32.041  10.624
12101W        W75825  29.948   0.795   0.901
12102W        W75826  38.516  24.032  13.344
12103W        W75827  21.254  31.003   4.828
12104W        W75828   2.302  10.752   4.210
12105W        W75829  37.451  17.073   2.234
12106W        W75830  36.956   2.720   1.889
12107W        W75831   8.870  37.410   0.474
12108W        W75832  27.941  16.191  12.973
12109W        W75833   1.354  16.779  13.865
12110W        W75834   9.811  14.673  13.344
12111W        W75835  24.530  23.103   4.672
12112W        W75836  42.831  32.557  13.938
12113W        W75837   9.195  15.629  11.097
12114W        W75838   5.905   5.821  14.969
12115W        W75839  12.774  15.737   2.892
12116W        W75840  17.623  23.228   0.812
12117W        W75841  18.749  22.103  14.475
12118W        W75842   7.681  18.746  12.355
12119W        W75843  11.643  28.485  13.453
12120W        W75844  29.439  10.297   3.319
12121W        W75845  38.414  26.961   4.795
12122W        W75846   4.388   1.964   4.689
12123W        W75847  38.391  17.206  10.995
12124W        W75848  24.560  15.261   2.843
12125W        W75849  20.667  34.004  13.006
12126W        W75850  12.745  17.200  13.385
12127W        W75851  11.297  21.185   2.765
12128W        W75852  28.010   3.379  11.921
12129W        W75853  15.670  32.413  14.839
12130W        W75854  10.286  29.594  13.967
12131W        W75855  35.056  15.634   1.374
12132W        W75856  40.893  44.388   1.291
12133W        W75857  13.194  39.340   2.404
12134W        W75858  35.077  16.210   0.351
12135W        W75859  34.563  26.003   4.257
12136W        W75860  10.787  23.104  11.600
12137W        W75861   0.964  30.543   4.823
12138W        W75862  10.192  23.154   3.747
12139W        W75863  13.247  36.427  11.433
12140W        W75864  16.305   4.238   5.300
12141W        W75865  40.964  17.625  12.878
12142W        W75866  24.224  20.233   4.729
12143W        W75867  17.774  19.600   3.679
12144W        W75868  24.070  14.156  11.474
12145W        W75869   8.890  13.309  12.935
12146W        W75870  20.270  27.185  12.565
12147W        W75871   4.794  17.666  11.477
12148W        W75872  20.733  23.667  13.456
12149W        W75873  22.568  21.036   5.321
12150W        W75874   0.967  34.594  12.506
12151W        W75875  33.078  39.002  14.417
12152W        W75876  15.822  43.293   2.680
12153W        W75877   1.261  30.647   1.304
12154W        W75878  34.611   7.322   3.838
12155W        W75879   5.707  27.558  12.901
12156W        W75880  18.192  14.800   4.317
12157W        W75881   8.753  33.452  10.934
12158W        W75882  43.986   0.323  14.872
12159W        W75883  31.551  42.973  12.945
12160W        W75884  15.732  29.104  13.442
12161W        W75885  24.706  37.385  14.783
12162W        W75886  24.643  34.576  12.858
12163W        W75887   0.771   3.824  11.055
12164W        W75888  32.419   2.786   1.287
12165W        W75889  41.830  34.403  11.923
12166W        W75890  39.961   3.427  13.948
12167W        W75891  25.637  19.245   2.233
12168W        W75892   6.216  33.625  13.968
12169W        W75893  12.679  21.085  12.939
12170W        W75894  23.196   8.838  14.448
12171W        W75895  39.487   4.904   2.243
12172W        W75896  23.680  22.151  11.409
12173W        W75897   7.315   3.806  12.891
12174W        W75898  38.533  17.639   0.872
12175W        W75899  19.137  18.791   3.152
12176W        W75900  39.036   3.270   2.418
12177W        W75901  42.430   4.224   1.426
12178W        W75902  21.619  29.023  13.008
12179W        W75903   2.294  31.964  10.050
12180W        W75904  30.910  23.550  13.939
12181W        W75905  38.960  29.547  11.930
12182W        W75906  10.340  34.545   2.404
12183W        W75907  14.247  40.406   2.400
12184W        W75908  12.207  31.445   4.197
12185W        W75909  41.453  13.127  13.361
12186W        W75910   4.742  44.810  11.442
12187W        W75911  16.112  44.811   1.809
12188W        W75912  27.692  37.879  12.558
12189W        W75913  34.541  41.894   0.932
12190W        W75914  22.722  10.750   1.916
12191W        W75915  43.904  29.484   0.308
12192W        W75916   4.311  14.196  11.069
12193W        W75917  37.854   4.750   3.331
12194W        W75918  18.284  21.706  12.576
12195W        W75919  44.342  35.025  10.409
12196W        W75920  41.029  38.865   2.207
12197W        W75921  41.331  14.202  13.335
12198W        W75922  31.646  21.531   0.331
12199W        W75923  40.429   8.309   3.312
12200W        W75924  14.195  25.469  11.886
12201W        W75925  26.700  19.769  12.830
12202W        W75926  33.432  43.858   2.820
12203W        W75927  31.971  17.285  13.915
12204W        W75928  40.826   6.854  13.825
12205W        W75929  42.325   7.307   4.699
12206W        W75930  24.621  11.212   4.263
12207W        W75931  28.467  39.985   3.237
12208W        W75932  16.597   7.250   2.888
12209W        W75933   3.283  10.224   2.266
12210W        W75934  10.213  28.466   2.668
12211W        W75935  19.746   8.851   3.695
12212W        W75936   4.936   1.751  11.426
12213W        W75937  43.870  33.028   0.302
12214W        W75938   6.253  21.751   2.344
12215W        W75939  19.045  32.610  11.917
12216W        W75940  21.527  31.602  12.840
12217W        W75941  18.686   3.308   4.734
12218W        W75942  20.725  27.012  13.996
12219W        W75943  44.487  22.670  11.092
12220W        W75944   8.268  18.189  10.561
12221W        W75945  14.293   5.396   2.714
12222W        W75946  37.508  28.047   1.249
12223W        W75947  37.511  38.960   0.401
12224W        W75948  15.289  17.124   2.419
12225W        W75949  23.708  29.126  14.988
12226W        W75950   2.865   8.674  12.024
12227W        W75951  10.140   8.847   0.282
12228W        W75952   7.172  32.939   2.338
12229W        W75953  27.188  25.655   4.830
12230W        W75954  20.595  40.312  11.046
12231W        W75955  16.131  35.508   4.644
12232W        W75956  24.001  38.519   4.628
12233W        W75957   5.262   6.882  11.577
12234W        W75958  25.488  38.533  13.038
12235W        W75959  41.870  27.604  11.537
12236W        W75960  39.928  29.614   3.302
12237W        W75961   7.716  42.349   4.814
12238W        W75962  24.017  33.118  13.460
12239W        W75963  34.492   6.394  12.541
12240W        W75964  10.147  36.002   0.404
12241W        W75965  28.067   0.845  11.415
12242W        W75966  11.279  35.938  11.089
12243W        W75967   1.326  10.372   1.376
12244W        W75968  21.249  21.528  14.328
12245W        W75969  11.357  37.542   4.310
12246W        W75970  43.919  30.074   2.370
12247W        W75971  12.801   1.938  13.042
12248W        W75972  42.959  37.914  10.432
12249W        W75973  19.256  21.663   2.887
12250W        W75974  17.693  34.032   4.220
12251W        W75975  20.080  11.859  11.392
12252W        W75976  25.495  25.122   3.631
12253W        W75977  16.718  40.501  10.962
12254W        W75978   3.783  10.334   9.997
12255W        W75979  37.875  18.081  10.642
12256W        W75980  20.271  29.628   3.746
12257W        W75981  20.656  32.956   1.353
12258W        W75982  35.070  19.679  14.946
12259W        W75983  19.056  43.297   1.846
12260W        W75984  35.039  30.587   4.150
12261W        W75985  19.131  28.540  13.933
12262W        W75986   0.801  15.700  14.946
12263W        W75987   8.199  15.760  10.630
12264W        W75988  26.185   9.337  12.883
12265W        W75989   6.818  31.985  14.513
12266W        W75990  36.069  19.284   0.862
12267W        W75991  16.645  22.011   3.280
12268W        W75992  23.135   9.335  14.808
12269W        W75993   7.837  24.196  14.886
12270W        W75994  41.011  24.221   3.739
12271W        W75995  25.184  37.404   4.155
12272W        W75996   5.317  10.712   4.748
12273W        W75997  34.379  13.185  14.910
12274W        W75998  19.740  37.855  12.492
12275W        W75999  41.981  10.247   9.942
12276W        W76000  30.068   7.771  10.453
12277W        W76001  39.397   1.369  12.846
12278W        W76002  17.678  28.072  14.997
12279W        W76003  28.088  41.934  10.117
12280W        W76004  15.307  32.623  13.311
12281W        W76005   2.825  10.190  14.319
12282W        W76006  36.900  19.095  13.792
12283W        W76007  18.641  35.870   3.821
12284W        W76008  11.192  35.092  12.930
12285W        W76009  23.010  26.183  14.346
12286W        W76010   9.747  24.216   3.779
12287W        W76011   8.238   9.752  14.509
12288W        W76012  10.797  36.020  10.501
12289W        W76013  11.369  35.443  13.322
12290W        W76014  36.540  37.888  12.021
12291W        W76015  10.724  26.480  14.352
12292W        W76016  23.033  31.631   4.294
12293W        W76017   9.274  15.279   3.214
12294W        W76018   2.315  41.973  11.579
12295W        W76019   9.339  12.154   5.251
12296W        W76020  38.379  31.591   0.448
12297W        W76021   2.961  44.340  14.504
12298W        W76022  14.798  26.979  12.537
12299W        W76023  35.037  13.184  14.415
12300W        W76024  22.603   9.325  11.473
12301W        W76025  31.105  32.917   4.795
12302W        W76026  12.769   5.878   2.401
12303W        W76027  41.994   8.840   1.928
12304W        W76028  42.453  35.603  12.875
12305W        W76029  43.866  31.132   2.756
12306W        W76030  26.487   4.304  10.545
12307W        W76031  30.929  14.169  13.476
12308W        W76032  18.725  16.298  14.471
12309W        W76033  11.784  21.216   5.097
12310W        W76034   9.349  30.129  13.948
12311W        W76035  19.081  11.636  11.527
12312W        W76036  12.623  41.810   3.637
12313W        W76037  15.094  16.759  12.530
12314W        W76038  22.152   2.871   4.326
12315W        W76039  38.041  44.859   4.780
12316W        W76040  32.497   7.309  10.959
12317W        W76041  24.198  26.555  14.415
12318W        W76042  11.737  24.045   3.167
12319W        W76043   9.660  10.663  14.348
12320W        W76044  20.113   7.247   4.791
12321W        W76045  40.385  40.352  12.009
12322W        W76046  32.073  24.203  14.903
12323W        W76047  44.419  13.695  14.349
12324W        W76048  11.667  19.049  14.784
12325W        W76049   4.702  32.552   1.262
12326W        W76050  22.686  42.982  12.916
12327W        W76051  12.715  34.886   0.770
12328W        W76052  16.090  14.671   2.348
12329W        W76053  17.590  10.692   4.836
12330W        W76054  39.001  29.115   3.821
12331W        W76055  19.241  28.632   4.267
12332W        W76056  36.400  36.069   5.217
12333W        W76057  39.331  17.227  14.888
12334W        W76058  36.037  37.386  12.087
12335W        W76059  32.632  15.149  11.118
12336W        W76060  35.035  19.264  13.450
12337W        W76061   2.244  24.694  13.544
12338W        W76062  44.341  26.073  14.901
12339W        W76063   9.237  15.725  14.361
12340W        W76064  23.184  42.375  11.888
12341W        W76065  36.040  16.247  13.967
12342W        W76066   7.798   1.770  12.968
12343W        W76067  25.680  13.810  14.864
12344W        W76068  21.248  20.118   4.834
12345W        W76069  20.665  44.946   0.249
12346W        W76070   8.300  42.476  11.521
12347W        W76071  40.027  39.485   4.783
12348W        W76072  27.050  15.790  10.635
12349W        W76073  18.163  12.313   5.244
12350W        W76074  39.846  40.415  12.901
12351W        W76075   3.728  36.371   0.726
12352W        W76076  17.697   7.280  10.518
12353W        W76077  37.060   8.696   2.765
12354W        W76078  36.362  22.739  13.370
12355W        W76079   4.700  10.316   1.299
12356W        W76080   3.271   2.933   4.220
12357W        W76081  42.382  40.897   1.933
12358W        W76082  25.100  40.988   0.919
12359W        W76083  37.950  41.012  11.436
12360W        W76084   2.887  17.746   3.179
12361W        W76085   2.242  41.320   4.269
12362W        W76086  33.019   0.464  11.918
12363W        W76087  21.610   2.964   3.217
12364W        W76088  32.572  11.777   2.232
12365W        W76089  27.134   5.822  11.860
12366W        W76090  12.188   1.757   2.887
12367W        W76091  14.259  30.060   3.340
12368W        W76092   5.264   5.908   4.694
12369W        W76093  28.030  35.513  11.583
12370W        W76094  18.216  22.145  12.461
12371W        W76095  25.140  16.181  14.389
12372W        W76096  19.721  15.591   1.376
12373W        W76097   7.885  43.811  11.913
12374W        W76098  38.073   0.328  11.545
12375W        W76099  33.398  16.105  12.385
12376W        W76100   2.911   0.283  11.437
12377W        W76101  30.449  10.704   4.269
12378W        W76102  30.490  16.785  10.537
12379W        W76103  12.724  35.064  11.385
12380W        W76104   0.306  36.985   2.357
12381W        W76105  15.590  29.965  14.841
12382W        W76106  40.492  31.625  13.489
12383W        W76107  23.144  23.037  12.559
12384W        W76108  17.291  19.158  13.009
12385W        W76109  35.056   6.244   5.189
12386W        W76110  25.002  19.673  12.495
12387W        W76111  15.142  10.309   3.738
12388W        W76112  12.612   6.350  11.112
12389W        W76113   3.936   5.779  11.035
12390W        W76114  12.727   8.264  13.051
12391W        W76115  10.711  12.348  12.025
12392W        W76116  17.796  11.363   3.755
12393W        W76117  24.500  39.515  10.436
12394W        W76118   9.881  25.573   2.219
12395W        W76119  23.227  32.606  13.943
12396W        W76120  30.084   5.333   1.283
12397W        W76121   0.929  14.621   4.203
12398W        W76122  42.915   5.280   2.238
12399W        W76123   1.481  14.600   1.845
12400W        W76124  18.785  38.850  13.372
12401W        W76125  20.150   8.839  11.516
12402W        W76126  22.711   3.850   3.673
12403W        W76127   9.744  25.706   3.292
12404W        W76128  11.785  22.179  12.466
12405W        W76129  35.446  41.455   4.727
12406W        W76130   8.225   3.868   2.680
12407W        W76131  14.789  12.785   5.114
12408W        W76132   8.853  43.455  13.445
12409W        W76133   8.327  20.161   2.258
12410W        W76134  38.993  42.487  11.918
12411W        W76135  37.068  22.232  10.999
12412W        W76136  27.044  35.890  13.442
12413W        W76137   5.287  35.095  11.573
12414W        W76138   0.800  40.941   2.189
12415W        W76139  37.965  33.022  11.015
12416W        W76140  42.869  38.502   4.649
12417W        W76141  14.683  11.304  14.400
12418W        W76142  16.082  16.289  14.016
12419W        W76143  17.287  11.369   3.713
12420W        W76144  26.001  32.584  11.105
12421W        W76145  22.526  14.156   2.829
12422W        W76146  25.486  15.756   1.740
12423W        W76147  15.306   7.200  11.987
12424W        W76148  11.677  21.611  11.126
12425W        W76149  19.064  43.358   4.674
12426W        W76150  16.652  26.018   2.345
12427W        W76151  32.106   4.723   3.249
12428W        W76152  20.216   2.898  14.837
12429W        W76153   1.781  25.679  10.942
12430W        W76154   2.409  21.204   2.722
12431W        W76155  41.875  12.632  11.892
12432W        W76156  37.432  16.722   4.731
12433W        W76157   3.858  40.821  14.892
12434W        W76158  12.209  30.979  10.638
12435W        W76159  28.983   8.194   1.391
12436W        W76160  17.161   4.732  13.827
12437W        W76161  17.066  41.028  13.899
12438W        W76162  41.336  35.872  11.959
12439W        W76163  11.364   0.802  10.943
12440W        W76164  10.352  12.301  13.459
12441W        W76165   9.313   1.963  13.991
12442W        W76166  24.999   8.739  11.870
12443W        W76167  12.196  19.626  12.968
12444W        W76168  16.128  29.594  14.893
12445W        W76169  15.202  38.993   2.674
12446W        W76170  41.801   3.232   1.886
12447W        W76171   8.675   6.259  11.998
12448W        W76172  18.079  40.995   4.199
12449W        W76173  29.152  14.609  10.596
12450W        W76174  23.531  35.958   0.281
12451W        W76175  33.434   3.454   4.777
12452W        W76176   2.234  13.823   0.362
12453W        W76177  31.435  33.047   0.320
12454W        W76178  21.708  41.302   0.363
12455W        W76179  36.870  39.945   4.327
12456W        W76180  41.039  35.039   2.390
12457W        W76181  18.068  32.128   1.833
12458W        W76182  43.437  23.102   3.295
12459W        W76183   4.816  27.976  11.858
12460W        W76184  35.101  26.098   1.831
12461W        W76185  15.145  18.652   1.714
12462W        W76186  22.054  26.167  13.486
12463W        W76187  25.199  13.287  13.337
12464W        W76188  20.112  14.279  14.837
12465W        W76189   0.462  11.282  11.433
12466W        W76190  19.659  36.060  13.529
12467W        W76191  42.410  19.555  14.402
12468W        W76192  30.107   3.868  10.619
12469W        W76193  18.107   4.748   2.310
12470W        W76194  17.676  13.351   1.928
12471W        W76195  10.873  10.698  12.901
12472W        W76196  24.021  27.557  14.830
12473W        W76197   7.824  16.806  12.345
12474W        W76198   6.886   4.257  11.541
12475W        W76199  26.191  19.546  14.926
12476W        W76200   0.948  42.873  14.853
12477W        W76201  22.048  20.073   3.636
12478W        W76202  18.592   4.895  11.869
12479W        W76203   7.882  22.057  11.872
12480W        W76204  21.144  14.162  10.497
12481W        W76205  42.972   4.264  14.479
12482W        W76206   2.265  14.789   4.764
12483W        W76207  36.074  37.560  10.057
12484W        W76208   5.310  25.597   2.244
12485W        W76209  41.495  41.300  12.574
12486W        W76210  30.440  25.579  12.342
12487W        W76211   1.834   8.679   4.151
12488W        W76212  36.459  43.882  11.382
12489W        W76213  18.657  35.408  11.052
12490W        W76214  22.713  32.508  11.393
12491W        W76215  44.811  43.914  10.631
12492W        W76216  23.099  36.486   3.826
12493W        W76217  20.227  25.152  14.837
12494W        W76218  19.724  24.016  14.982
12495W        W76219  40.949   7.667  10.537
12496W        W76220  28.093  42.879  13.490
12497W        W76221  21.166  35.959   3.723
12498W        W76222   3.717  16.316   1.785
12499W        W76223  24.157  42.290  10.597
12500W        W76224  13.153  34.572  13.489
12501W        W76225  27.003  40.473   1.426
12502W        W76226  31.924  16.748  10.615
12503W        W76227  23.644  12.341  12.517
12504W        W76228  17.629   3.914   2.193
12505W        W76229  35.873  30.656  12.825
12506W        W76230  10.712   4.277  11.568
12507W        W76231  31.096  30.518  10.909
12508W        W76232  27.571  18.744  13.890
12509W        W76233  16.072  27.173   1.872
12510W        W76234  29.064  44.845   3.162
12511W        W76235  25.021  22.024   3.312
12512W        W76236  11.202  27.188   0.859
12513W        W76237   2.869  41.486   1.405
12514W        W76238   2.962  42.504  10.524
12515W        W76239  20.708  14.774   3.682
12516W        W76240   3.709  44.495   2.362
12517W        W76241  31.531  15.708   2.371
12518W        W76242   4.277  15.188   4.679
12519W        W76243  28.003   1.798   5.190
12520W        W76244  34.926  29.135  11.591
12521W        W76245  43.915  37.432   4.182
12522W        W76246  30.143  33.571  13.322
12523W        W76247  22.042  18.081   2.880
12524W        W76248   1.918  36.390   0.932
12525W        W76249   0.744  31.479  11.900
12526W        W76250  28.969  29.664  12.090
12527W        W76251  42.282  35.487  12.552
12528W        W76252  10.801   4.760   1.702
12529W        W76253  26.566  17.089   5.185
12530W        W76254  16.166  23.507   4.767
12531W        W76255  26.649  26.064   4.287
12532W        W76256  21.197  29.466   1.851
12533W        W76257   3.243  31.494   0.945
12534W        W76258  17.249  14.735  13.396
12535W        W76259   3.424   5.225  14.976
12536W        W76260  24.503  17.718  14.410
12537W        W76261  29.951  22.747   0.388
12538W        W76262  35.017  37.056  12.954
12539W        W76263  41.516  22.573   1.444
12540W        W76264  21.145  24.591   4.209
12541W        W76265  43.777  38.855   1.254
12542W        W76266  32.937   3.923  14.785
12543W        W76267  37.878  26.165   0.937
12544W        W76268  31.118   8.375   0.850
12545W        W76269   1.450  42.479   4.768
12546W        W76270   3.426   4.397  11.967
12547W        W76271  26.062  12.205  11.008
12548W        W76272   4.398   3.454  10.638
12549W        W76273  44.270  39.836  10.574
12550W        W76274   9.816  41.824  12.934
12551W        W76275  35.510   9.319  12.378
12552W        W76276   7.840   1.805  11.972
12553W        W76277  17.791  32.437  13.342
12554W        W76278  11.847  21.637  14.947
12555W        W76279  26.975  34.890  11.095
12556W        W76280  36.405  41.872  11.559
12557W        W76281   9.743   7.250   1.784
12558W        W76282   2.252  38.545   0.795
12559W        W76283   3.760  20.109  12.405
12560W        W76284  41.787  38.919  10.891
12561W        W76285  41.533  32.619   3.232
12562W        W76286  34.568  42.935  14.339
12563W        W76287   0.785  25.096   0.480
12564W        W76288  19.721  41.840   4.639
12565W        W76289  36.923  21.711   4.638
12566W        W76290  33.956  40.013   3.216
12567W        W76291  37.902  16.229   2.715
12568W        W76292  12.707  23.235  12.988
12569W        W76293   2.367  34.538  13.420
12570W        W76294  25.990  23.094   0.948
12571W        W76295  17.578   5.263   1.250
12572W        W76296  17.797   4.249   4.625
12573W        W76297  26.995  30.508   2.817
12574W        W76298   7.745  16.085   4.611
12575W        W76299  43.808   7.728   3.281
12576W        W76300  12.267  36.053  13.487
12577W        W76301  21.670   8.360  10.947
12578W        W76302  32.059  33.529   3.700
12579W        W76303   9.381  36.905   0.307
12580W        W76304  41.308  13.175   2.250
12581W        W76305  38.521  33.059  12.472
12582W        W76306  29.022  44.866   1.436
12583W        W76307  36.386  29.545  14.946
12584W        W76308  20.698   3.717  11.409
12585W        W76309   1.878   6.723   3.665
12586W        W76310  10.817  37.436   2.766
12587W        W76311  19.129   0.319  10.441
12588W        W76312  27.559  12.240  14.333
12589W        W76313   2.380  15.803  12.837
12590W        W76314  19.770  43.373  13.842
12591W        W76315  25.011  43.393  14.789
12592W        W76316   4.392  24.076   0.893
12593W        W76317  31.028  17.134   0.368
12594W        W76318  27.686  32.123   4.294
12595W        W76319  43.475  20.564  13.933
12596W        W76320  37.476  13.667   3.698
12597W        W76321  21.049  28.636   5.264
12598W        W76322  15.116   8.842  10.560
12599W        W76323  38.855   1.350   0.276
12600W        W76324  20.216  40.035   4.131
12601W        W76325  25.000  15.254  13.543
12602W        W76326   6.799   7.751   4.624
12603W        W76327  18.700   0.474  14.379
12604W        W76328   2.729  43.902  11.608
12605W        W76329   4.397  26.624  14.763
12606W        W76330  20.726  21.189   2.416
12607W        W76331   9.652  28.087   0.440
12608W        W76332  34.088  44.410   0.450
12609W        W76333  13.159  16.164   0.963
12610W        W76334   4.782  42.954  10.419
12611W        W76335  30.575  15.649  13.995
12612W        W76336   4.216  26.481  12.359
12613W        W76337  17.776   6.184   1.382
12614W        W76338  11.732  38.054   1.935
12615W        W76339  42.454  22.040  12.956
12616W        W76340  24.485  25.503   1.803
12617W        W76341  26.538  22.206   3.696
12618W        W76342  16.724  43.440  12.376
12619W        W76343   7.840  32.003   3.662
12620W        W76344   1.403  37.893  10.894
12621W        W76345  30.580  36.403   4.221
12622W        W76346  15.176  37.491   0.848
12623W        W76347   8.661  17.715   1.834
12624W        W76348   0.374  40.021  12.352
12625W        W76349   1.875  33.486  12.537
12626W        W76350  25.215  28.091   0.963
12627W        W76351  38.385  34.597  12.541
12628W        W76352   9.329  22.031   4.835
12629W        W76353  13.287  21.051   2.227
12630W        W76354  27.992  31.045   2.205
12631W        W76355  42.381  22.162   5.205
12632W        W76356  15.263  35.460  12.055
12633W        W76357   3.810  24.034   4.350
12634W        W76358   4.437  36.912   1.904
12635W        W76359  41.405  25.213  13.340
12636W        W76360  13.133  14.133   3.637
12637W        W76361  44.290   6.858   4.799
12638W        W76362   7.357  29.583  12.962
12639W        W76363   9.288   6.796   2.255
12640W        W76364  43.827  34.944   1.812
12641W        W76365  21.062  27.060  10.598
12642W        W76366   5.199  42.304   1.301
12643W        W76367  44.871  39.833   1.418
12644W        W76368  19.173   8.692   0.324
12645W        W76369  21.662  25.206   1.294
12646W        W76370  23.120  33.882  14.970
12647W        W76371  12.161  36.850   0.924
12648W        W76372  32.455  23.506  12.498
12649W        W76373  21.652  28.986  14.322
12650W        W76374  21.088  14.725   0.432
12651W        W76375  40.036   9.324   2.721
12652W        W76376  18.095  17.253  12.096
12653W        W76377  29.648   0.273   3.231
12654W        W76378  38.986  23.151   1.715
12655W        W76379  19.076   0.317  11.864
12656W        W76380   8.667  13.806  13.023
12657W        W76381  10.635  35.945   5.188
12658W        W76382  13.172   4.892  11.502
12659W        W76383  39.320  29.487   2.884
12660W        W76384  39.978  28.449   4.744
12661W        W76385  31.557  30.644   1.241
12662W        W76386   9.804  10.724   9.454
12663W        W76387   8.764  35.090  10.421
12664W        W76388  31.518  16.679   1.350
12665W        W76389  39.495  30.146   3.834
12666W        W76390  17.775  34.034  13.008
12667W        W76391  24.010  32.023  12.383
12668W        W76392  30.936  13.232  12.015
12669W        W76393  44.965   8.395   3.764
12670W        W76394  43.307  21.158   3.829
12671W        W76395  27.190  33.980   1.819
12672W        W76396  22.114  25.543   0.846
12673W        W76397   3.309  25.558   0.883
12674W        W76398  43.478  28.461   1.257
12675W        W76399  24.701  27.048   3.227
12676W        W76400  27.574   4.223   4.196
12677W        W76401   9.776  23.216   4.234
12678W        W76402  13.746  37.436  11.575
12679W        W76403  15.672   7.221   4.748
12680W        W76404  40.354  10.202   2.698
12681W        W76405  41.334  14.742  13.435
12682W        W76406  44.832   6.341  14.793
12683W        W76407   7.900  27.998   4.826
12684W        W76408   3.947  29.047  12.090
12685W        W76409  27.041  22.678  11.075
12686W        W76410  28.002  28.498  12.369
12687W        W76411  42.805   4.340   2.258
12688W        W76412   0.931  14.750  13.356
12689W        W76413  16.646  14.595   2.786
12690W        W76414  30.030  33.529  13.885
12691W        W76415  38.939  41.339   1.921
12692W        W76416  39.354  43.940  11.926
12693W        W76417   2.806   6.724   1.266
12694W        W76418  21.106  38.992   1.775
12695W        W76419  30.544  13.693  12.853
12696W        W76420  42.889  12.841   9.969
12697W        W76421  42.909  31.038  13.399
12698W        W76422   1.367  29.452  14.419
12699W        W76423  39.519   1.349   4.754
12700W        W76424  21.034  22.668   5.203
12701W        W76425  41.398  42.504   1.800
12702W        W76426  31.087  22.728  11.544
12703W        W76427  30.043  17.299   2.343
12704W        W76428  26.581  16.748   2.691
12705W        W76429   2.269  19.172   2.262
12706W        W76430  36.967  38.997   0.369
12707W        W76431  29.009  18.175   1.246
12708W        W76432  28.101  28.104  14.392
12709W        W76433   5.875  18.169   2.892
12710W        W76434  19.714  10.349   4.160
12711W        W76435  11.724  29.636   1.902
12712W        W76436  15.190  16.787   4.241
12713W        W76437  21.030  39.352   1.715
12714W        W76438  22.509  40.541  14.913
12715W        W76439  37.949  21.178  11.411
12716W        W76440  13.778  35.525   2.416
12717W        W76441  12.617  27.464   3.220
12718W        W76442  41.962   3.742   4.160
12719W        W76443  31.504  41.326  14.366
12720W        W76444   6.381  23.130   4.349
12721W        W76445  20.626  42.502   2.349
12722W        W76446   2.375  17.766   4.819
12723W        W76447   6.789  39.459   3.830
12724W        W76448   0.853  23.241  12.543
12725W        W76449   0.293   4.741  13.367
12726W        W76450  41.966  16.759   2.879
12727W        W76451  34.520  34.001   1.704
12728W        W76452   8.358  30.484  14.766
12729W        W76453  10.185  43.908  11.388
12730W        W76454  22.253  41.490  13.383
12731W        W76455  32.916   0.351  10.918
12732W        W76456  40.537  13.746   4.636
12733W        W76457  40.989   5.318  11.002
12734W        W76458   9.340   2.303  11.890
12735W        W76459  42.352   9.161  14.404
12736W        W76460   1.909  42.312   0.424
12737W        W76461   5.742   0.945   1.248
12738W        W76462  27.614  44.941  12.509
12739W        W76463  36.008  30.658  11.126
12740W        W76464  38.537  24.200   2.826
12741W        W76465  18.778  39.537   2.782
12742W        W76466  25.027  32.401   0.868
12743W        W76467  25.706  13.189   0.779
12744W        W76468  15.599  28.966  14.796
12745W        W76469  34.448  32.538   2.860
12746W        W76470  28.632  39.454   2.214
12747W        W76471  15.126   4.423  13.448
12748W        W76472   8.197  28.667  11.991
12749W        W76473  16.609  42.775  11.042
12750W        W76474  39.326   7.341   4.119
12751W        W76475  35.884  29.571  14.993
12752W        W76476  35.074  29.027   0.347
12753W        W76477   8.677   1.848  14.969
12754W        W76478  36.575   6.698  11.883
12755W        W76479   9.384   6.405   4.124
12756W        W76480  15.321   9.382  12.871
12757W        W76481  29.568  12.757   4.760
12758W        W76482  42.778  18.155   0.461
12759W        W76483   4.414  10.152   9.548
12760W        W76484  25.650  12.136  12.080
12761W        W76485  37.565  39.315   1.337
12762W        W76486   2.903   2.901   3.180
12763W        W76487  15.764   7.215  10.585
12764W        W76488  28.077  28.025  13.910
12765W        W76489   1.262   8.393   1.318
12766W        W76490   7.683   2.266  11.581
12767W        W76491  43.800  21.754  11.019
12768W        W76492  28.968  33.527  13.961
12769W        W76493  17.597  38.904  11.469
12770W        W76494  11.370  39.353  13.852
12771W        W76495   7.834  15.707  13.037
12772W        W76496   8.779  17.713  10.922
12773W        W76497  23.049  44.485   1.405
12774W        W76498  10.313  19.059  14.012
12775W        W76499  22.122  13.656  11.483
12776W        W76500  28.652  27.660   2.697
12777W        W76501  39.824  29.029  12.417
12778W        W76502  35.385  44.333   2.711
12779W        W76503  35.545  13.637  11.026
12780W        W76504  11.745  41.925   1.793
12781W        W76505  15.143  27.577  14.763
12782W        W76506   3.410  21.034   1.774
12783W        W76507   9.777  16.769   3.174
12784W        W76508   9.202  28.952  10.432
12785W        W76509  12.119   3.451  11.030
12786W        W76510  18.220   1.908  13.459
12787W        W76511   1.466  14.297  12.356
12788W        W76512  10.343  21.670   1.247
12789W        W76513  40.339  14.304   1.781
12790W        W76514  26.130  39.958  11.908
12791W        W76515  41.342  23.723  13.368
12792W        W76516  44.435  17.708  10.415
12793W        W76517   5.758  15.253   3.265
12794W        W76518  38.560  28.953   3.840
12795W        W76519  28.998   9.156   3.317
12796W        W76520   0.395  26.596  11.473
12797W        W76521  38.009   9.178   2.697
12798W        W76522  21.633  21.684   0.768
12799W        W76523  14.674   8.740   2.753
12800W        W76524   9.299  28.505   4.616
12801W        W76525   1.262   0.871   3.804
12802W        W76526  27.189  23.638  13.915
12803W        W76527  20.267  27.457   4.830
12804W        W76528  22.513  42.500   1.715
12805W        W76529  30.590  16.709  14.769
12806W        W76530  42.957  42.991  12.374
12807W        W76531  28.173  22.033   0.350
12808W        W76532  28.096  34.512   2.411
12809W        W76533  21.228   4.881  11.004
12810W        W76534  10.358  23.098   5.160
12811W        W76535  16.762  27.017  11.866
12812W        W76536  27.045  24.099   1.753
12813W        W76537  19.215  11.343  11.946
12814W        W76538   2.946  20.746   2.182
12815W        W76539  42.297  23.661   3.636
12816W        W76540   0.378  30.588  12.552
12817W        W76541  34.090  12.347   0.795
12818W        W76542  39.462  22.681  11.917
12819W        W76543  21.137  25.632   3.354
12820W        W76544  16.225  15.141   4.218
12821W        W76545   8.274  11.300  12.363
12822W        W76546  12.157  36.576  13.327
12823W        W76547  12.789  10.656   4.674
12824W        W76548  29.955  25.107   0.293
12825W        W76549  23.143  44.836   4.783
12826W        W76550  43.335  19.249  14.413
12827W        W76551   4.341  10.261  10.471
12828W        W76552  23.565  25.507   0.274
12829W        W76553  32.486  14.278  12.872
12830W        W76554  17.222  39.982  11.009
12831W        W76555   6.681  37.503   0.256
12832W        W76556  39.012  24.507  13.428
12833W        W76557  15.316  21.079   4.709
12834W        W76558   4.447   1.279  14.886
12835W        W76559   8.781  20.135   1.269
12836W        W76560  25.216  37.011   2.822
12837W        W76561  38.340  17.185   3.240
12838W        W76562  10.340  16.762  12.977
12839W        W76563  22.547  36.417   2.846
12840W        W76564  14.160  28.149   1.787
12841W        W76565  23.018  25.962  13.445
12842W        W76566   9.787  30.530   2.707
12843W        W76567   1.748  42.901   1.716
12844W        W76568  17.619  34.093  14.872
12845W        W76569  44.303   2.319  14.440
12846W        W76570  12.613  43.355   4.721
12847W        W76571  23.164  42.793  12.973
12848W        W76572  20.054  24.603  10.568
12849W        W76573  32.495  10.866   4.771
12850W        W76574  44.789  13.324  11.502
12851W        W76575   8.352  44.467   1.415
12852W        W76576  11.324   1.391   1.845
12853W        W76577  37.916  11.352   2.200
12854W        W76578  30.458  43.993  14.792
12855W        W76579  35.981  33.419   0.416
12856W        W76580  24.084  29.554   1.281
12857W        W76581  17.800  19.260  14.887
12858W        W76582  42.816  26.508  10.601
12859W        W76583  17.071  12.211   2.895
12860W        W76584  34.067  29.098   4.792
12861W        W76585  34.006  14.196   3.148
12862W        W76586  13.178  26.584  10.447
12863W        W76587  36.997  22.076  13.935
12864W        W76588  17.078   3.259  11.105
12865W        W76589  11.737  14.224  11.608
12866W        W76590  43.488  31.126  14.798
12867W        W76591  44.932  38.385  14.483
12868W        W76592  37.348  10.292   4.651
12869W        W76593  12.250  13.679   2.794
12870W        W76594   4.271  39.393   3.828
12871W        W76595  25.645  11.790  10.013
12872W        W76596  42.871   5.314   3.174
12873W        W76597  25.680   5.832  14.910
12874W        W76598   4.762  34.994   2.331
12875W        W76599  44.435  13.773   2.340
12876W        W76600  32.477  44.773  12.425
12877W        W76601  25.053  19.761  14.768
12878W        W76602  42.915  34.042  11.875
12879W        W76603  30.479   9.281   1.416
12880W        W76604   6.349  30.121  10.095
12881W        W76605  27.978  13.136  12.909
12882W        W76606  44.011  34.024   9.472
12883W        W76607  27.518  21.757   0.904
12884W        W76608  17.730  23.103   2.232
12885W        W76609  16.267   3.730  13.335
12886W        W76610  19.257  28.960   3.297
12887W        W76611  23.000   6.193  11.100
12888W        W76612  27.476   4.851   4.117
12889W        W76613  31.899  36.384  11.118
12890W        W76614  38.486  21.108   4.620
12891W        W76615  39.990  15.686  12.579
12892W        W76616  29.950   6.770  12.922
12893W        W76617  44.474  19.237  11.497
12894W        W76618   2.423  44.431   1.235
12895W        W76619  12.715  42.320   3.307
12896W        W76620  40.902  35.535  13.491
12897W        W76621  44.330  27.548  14.456
12898W        W76622   7.416  20.737  10.917
12899W        W76623  31.591  15.751  14.420
12900W        W76624  27.588  42.875   1.813
12901W        W76625  10.746   9.664  13.896
12902W        W76626  14.185  33.045  13.859
12903W        W76627  24.652  27.109   2.823
12904W        W76628  17.255  30.113  11.034
12905W        W76629   8.390  35.458   4.140
12906W        W76630  17.796  36.903  11.905
12907W        W76631  43.423  36.931   4.755
12908W        W76632  44.343  28.143  14.312
12909W        W76633   8.163  16.211  11.436
12910W        W76634  39.919  39.040  11.910
12911W        W76635  17.679  16.635  10.607
12912W        W76636   2.849  29.447  14.464
12913W        W76637  15.294  18.081   2.746
12914W        W76638   2.339  37.398   3.749
12915W        W76639  21.097  10.757  13.343
12916W        W76640  11.261  19.683  11.560
12917W        W76641  41.881  30.911   1.284
12918W        W76642  30.620  17.637  13.328
12919W        W76643  19.649  26.469   2.846
12920W        W76644   4.381  43.765  14.853
12921W        W76645  41.511  35.922  10.526
12922W        W76646  13.112  28.032  14.369
12923W        W76647   7.706  27.982   4.210
12924W        W76648   1.910  13.630  13.973
12925W        W76649  37.543   3.341   0.942
12926W        W76650  29.440   4.908   0.746
12927W        W76651  15.589   5.703  12.924
12928W        W76652   4.265  29.640  12.032
12929W        W76653   6.324  20.688  13.059
12930W        W76654   2.960  22.013  11.878
12931W        W76655  14.223  24.985   0.776
12932W        W76656  44.775   6.780   4.126
12933W        W76657   8.271  30.502   0.955
12934W        W76658  21.634  13.287  12.996
12935W        W76659   7.360  30.453   1.259
12936W        W76660  17.208   7.804   1.713
12937W        W76661  12.658   3.826  13.997
12938W        W76662  18.655  34.032   4.698
12939W        W76663  13.223  27.176  11.546
12940W        W76664  10.788   9.660   1.362
12941W        W76665  12.668  34.459  11.981
12942W        W76666  19.079  31.421   3.155
12943W        W76667  34.081  17.114   4.778
12944W        W76668  12.199  44.271  10.014
12945W        W76669  19.592  18.610   3.238
12946W        W76670  29.948  24.148  13.876
12947W        W76671  22.692  27.684   1.381
12948W        W76672   3.361  38.989  11.460
12949W        W76673   6.852  25.078   2.887
12950W        W76674  11.281  27.032   1.755
12951W        W76675  38.047  12.264   3.684
12952W        W76676   5.820  21.691   0.806
12953W        W76677  31.454   4.351  11.085
12954W        W76678   4.257   0.895  14.936
12955W        W76679  30.966  36.408  11.023
12956W        W76680   3.926  23.511  12.359
12957W        W76681  41.899  32.419  13.049
12958W        W76682   6.701  27.589   4.697
12959W        W76683  35.415   6.232   0.865
12960W        W76684  40.359  14.330  12.547
12961W        W76685  22.027   7.714   2.253
12962W        W76686   0.811  32.405  12.858
12963W        W76687  14.205  22.568  13.874
12964W        W76688  25.969   8.215   2.773
12965W        W76689  16.232   9.197   0.831
12966W        W76690   2.898  16.207  13.897
12967W        W76691  38.975  41.528  12.080
12968W        W76692  14.760   6.855  11.051
12969W        W76693   7.883  16.683  12.874
12970W        W76694  34.095  37.025  12.345
12971W        W76695   9.685  44.425  14.855
12972W        W76696  30.556   6.790  14.986
12973W        W76697  16.102  32.498   1.797
12974W        W76698  13.607  23.497   3.339
12975W        W76699  38.879  39.329   9.990
12976W        W76700  44.334   3.256  10.610
12977W        W76701  28.978  30.486  14.940
12978W        W76702  19.586  44.387   2.758
12979W        W76703  12.143   3.777  10.557
12980W        W76704   7.849   0.838  12.873
12981W        W76705   5.264  20.100  13.930
12982W        W76706  28.473  38.008   4.831
12983W        W76707   2.846  20.681   0.327
12984W        W76708  28.005  22.654   2.268
12985W        W76709   9.874  11.371  14.451
12986W        W76710  33.609  26.588   4.654
12987W        W76711   7.263  13.267   3.834
12988W        W76712  25.563  31.943  12.033
12989W        W76713  17.285  29.985   3.737
12990W        W76714   9.379  38.941   5.142
12991W        W76715  31.436  24.003   1.843
12992W        W76716   5.355  34.027  10.623
12993W        W76717   2.458   2.839   0.291
12994W        W76718  36.991  15.248   2.859
12995W        W76719  25.211  42.464   0.407
12996W        W76720   9.886  14.237  14.993
12997W        W76721  29.655  29.035  13.440
12998W        W76722  32.425  31.153  14.880
12999W        W76723  42.503  44.971  11.099
13000W        W76724   0.463  39.953  13.899
13001W        W76725  14.792  31.486   1.259
13002W        W76726   7.875  26.023  13.340
13003W        W76727  43.877  20.231  11.506
13004W        W76728  24.510  27.129   4.785
13005W        W76729  26.135   6.390   4.661
13006W        W76730   3.806  30.055  12.569
13007W        W76731  41.816   1.896   4.720
13008W        W76732  24.989  10.649   5.097
13009W        W76733  26.173   0.321  14.808
13010W        W76734  11.810   7.270   4.164
13011W        W76735  38.935  13.215  14.370
13012W        W76736  44.945  36.998   1.749
13013W        W76737  42.294  23.177  11.110
13014W        W76738   3.281  37.931   1.785
13015W        W76739  39.833   9.768  11.034
13016W        W76740  38.943  40.921  12.089
13017W        W76741  14.787   6.364  12.537
13018W        W76742  15.747   3.837   2.662
13019W        W76743  10.203   0.486   1.442
13020W        W76744  25.071   3.328   1.748
13021W        W76745   7.667   4.313   1.926
13022W        W76746  18.706  21.056  13.973
13023W        W76747  10.261   6.762  12.516
13024W        W76748  28.143  36.455  14.862
13025W        W76749  27.554  11.752  13.461
13026W        W76750  36.989  21.253  13.426
13027W        W76751  32.018  28.572  10.962
13028W        W76752   1.334  37.494   1.443
13029W        W76753  10.695  11.836  14.333
13030W        W76754  28.005   1.957   1.333
13031W        W76755  15.618  28.607   4.651
13032W        W76756  33.049   7.379  11.585
13033W        W76757   2.398  36.520   1.232
13034W        W76758  39.980   5.378  12.956
13035W        W76759   7.781  16.615  10.595
13036W        W76760  38.343   9.319   1.712
13037W        W76761  34.556  31.409   3.321
13038W        W76762  14.618   8.268   1.806
13039W        W76763  10.766  40.051  12.393
13040W        W76764  40.049  31.108   2.772
13041W        W76765  36.531   1.445   0.262
13042W        W76766  37.867  40.514  14.982
13043W        W76767  36.897   1.303   2.866
13044W        W76768  20.566  39.343  12.865
13045W        W76769  25.522  10.684   0.807
13046W        W76770  35.009  33.547  14.279
13047W        W76771  11.658  17.582   0.388
13048W        W76772  41.416  36.403  11.965
13049W        W76773  24.118  32.004  13.880
13050W        W76774  17.611  14.809  14.917
13051W        W76775  12.757   9.836  11.959
13052W        W76776   0.355  33.049  13.972
13053W        W76777  30.908  11.165  14.998
13054W        W76778  36.362  29.509  10.892
13055W        W76779   5.800  29.018   0.252
13056W        W76780   6.820   3.430  11.858
13057W        W76781  38.438  11.210  10.483
13058W        W76782  31.432  19.247  13.020
13059W        W76783  27.004  24.185   4.803
13060W        W76784  25.472  22.641   3.267
13061W        W76785  30.923  33.974   3.763
13062W        W76786  31.522   0.865  14.004
13063W        W76787  37.519  19.771   2.326
13064W        W76788  24.683  27.970   3.846
13065W        W76789   3.902  40.850  10.412
13066W        W76790   7.774  34.899   5.321
13067W        W76791  36.564   3.274   0.278
13068W        W76792  19.606  39.881   9.942
13069W        W76793   5.775  12.761   1.780
13070W        W76794   1.447  36.038  13.448
13071W        W76795  25.495   6.295  11.126
13072W        W76796  38.568  36.895   2.805
13073W        W76797  33.963  30.473  11.486
13074W        W76798   8.760  30.517   3.229
13075W        W76799  17.671  11.203   0.326
13076W        W76800  13.218   4.797  14.308
13077W        W76801  20.158  32.421  12.842
13078W        W76802  39.821  36.088  13.452
13079W        W76803  31.968  32.521  12.439
13080W        W76804   4.698  27.532   4.677
13081W        W76805  19.724   1.439  14.367
13082W        W76806  32.475  27.102   2.393
13083W        W76807  42.395  29.138   3.670
13084W        W76808  44.836   6.759  11.466
13085W        W76809  15.601  38.060  14.759
13086W        W76810  22.067  30.119  10.030
13087W        W76811   6.347  44.364  13.359
13088W        W76812  37.909  44.796   0.759
13089W        W76813  18.779  33.957  14.955
13090W        W76814  16.646  11.726  14.379
13091W        W76815  10.170   9.811   3.314
13092W        W76816  18.094  13.319   4.678
13093W        W76817  22.199  14.588   4.778
13094W        W76818  25.527  38.373  10.410
13095W        W76819  27.663  16.081  11.398
13096W        W76820  14.228   3.808   4.666
13097W        W76821  43.012  29.974  10.593
13098W        W76822  43.396  32.607   2.728
13099W        W76823  16.312   1.349  10.567
13100W        W76824  32.057  38.544   1.326
13101W        W76825   0.978  29.614   3.169
13102W        W76826  36.508  12.703   0.273
13103W        W76827  39.412  40.438   1.324
13104W        W76828  37.353   4.270   1.713
13105W        W76829  42.392  28.661   1.694
13106W        W76830   5.270  11.221   0.332
13107W        W76831  41.025  25.651   2.670
13108W        W76832  13.676  16.146   1.255
13109W        W76833  23.728   1.763   2.291
13110W        W76834   1.777  35.398   2.774
13111W        W76835  36.888  43.859  11.461
13112W        W76836   7.375  23.626  13.877
13113W        W76837   4.384  21.027  14.974
13114W        W76838  36.020  37.023  11.926
13115W        W76839  38.866  20.052  13.032
13116W        W76840  44.348  16.294  12.396
13117W        W76841   6.263  28.481   2.902
13118W        W76842  18.185   5.903   1.445
13119W        W76843  17.150  42.831   1.327
13120W        W76844  27.004  42.469  12.865
13121W        W76845  31.151  44.933  13.330
13122W        W76846  29.568  18.693  13.408
13123W        W76847  28.011  30.086  12.019
13124W        W76848   2.895  35.973   3.215
13125W        W76849  10.694  21.512   4.148
13126W        W76850  19.709  20.180   4.287
13127W        W76851   1.799  19.227  11.926
13128W        W76852  38.428   1.889   3.663
13129W        W76853  21.048   8.703  12.971
13130W        W76854  22.605  41.392  11.061
13131W        W76855  39.021  21.173  14.019
13132W        W76856   1.476  41.984  14.020
13133W        W76857  21.639  17.740   3.181
13134W        W76858  14.339  30.010  14.963
13135W        W76859  43.359  31.568   0.359
13136W        W76860   4.896  38.421   1.932
13137W        W76861   9.837   2.896  13.346
13138W        W76862  26.065  32.980   1.916
13139W        W76863   5.259  31.427  13.389
13140W        W76864  17.652   4.887   4.626
13141W        W76865  29.171  37.395   2.230
13142W        W76866  18.590  20.577  12.356
13143W        W76867  39.823  27.123  11.458
13144W        W76868  38.401  28.509  13.044
13145W        W76869  31.033  17.222  10.037
13146W        W76870  14.637  31.607   0.376
13147W        W76871  40.412  26.062  13.341
13148W        W76872  21.071  36.925  11.590
13149W        W76873  13.258  41.827   0.292
13150W        W76874  19.735  14.687   3.828
13151W        W76875  39.962   6.770  12.879
13152W        W76876  42.834  28.989   4.277
13153W        W76877   8.872   0.808   2.794
13154W        W76878  11.784  25.081   1.796
13155W        W76879  41.327  37.418  14.330
13156W        W76880  30.605   1.278  14.889
13157W        W76881  23.221  37.535  11.014
13158W        W76882   9.664  12.226  14.813
13159W        W76883  27.551  41.880   3.714
13160W        W76884  35.399  35.399  10.493
13161W        W76885  11.862  10.295  13.384
13162W        W76886  19.618  29.473   5.125
13163W        W76887  31.061  19.696  10.930
13164W        W76888  37.573  36.381   3.362
13165W        W76889  44.811  41.928   2.674
13166W        W76890  26.543  43.385   4.699
13167W        W76891  16.275   9.361   1.750
13168W        W76892  12.796  29.509   1.216
13169W        W76893   1.976  23.203   2.667
13170W        W76894  37.987  42.524   5.628
13171W        W76895  22.144   5.245  13.515
13172W        W76896  43.411  35.521   9.436
13173W        W76897  28.546  34.564   0.916
13174W        W76898   3.290   6.907   1.376
13175W        W76899  32.124  24.542  11.929
13176W        W76900  16.669  14.767   5.786
13177W        W76901  42.290  42.314   3.794
13178W        W76902  36.973   9.784  11.401
13179W        W76903  34.468   3.443  11.485
13180W        W76904  36.512  40.969  14.449
13181W        W76905  26.976  33.563  10.937
13182W        W76906  16.634  31.043  12.889
13183W        W76907   4.887  12.281   0.822
13184W        W76908  17.774   8.186   2.179
13185W        W76909  18.194  21.235   4.780
13186W        W76910  15.145  18.199  14.430
13187W        W76911  16.078  30.982  11.539
13188W        W76912  32.460  19.190   4.815
13189W        W76913  41.380   5.880   3.829
13190W        W76914   1.254  10.327   4.347
13191W        W76915  39.457  43.868   1.233
13192W        W76916  44.823  17.291  13.512
13193W        W76917  44.350  37.465  13.438
13194W        W76918  14.689  35.961   1.237
13195W        W76919  41.365  29.596  10.446
13196W        W76920   9.247  42.450  14.293
13197W        W76921   6.335  10.798   3.656
13198W        W76922  37.464  43.855   1.832
13199W        W76923  31.437   8.197   1.324
13200W        W76924  13.771  38.839   0.273
13201W        W76925   2.372  23.195  10.574
13202W        W76926  13.163  25.478  14.879
13203W        W76927  24.680  30.121   1.916
13204W        W76928  43.397  32.511   1.228
13205W        W76929  19.755   4.885  13.804
13206W        W76930   5.422   8.395   4.800
13207W        W76931  29.636  30.093   2.394
13208W        W76932  21.732  11.743  14.801
13209W        W76933  25.514  24.989   2.868
13210W        W76934  23.147   9.247  14.417
13211W        W76935  34.417  17.089  11.404
13212W        W76936  41.433  21.721   4.203
13213W        W76937  31.403  28.458   1.842
13214W        W76938  32.009   0.300  13.839
13215W        W76939  44.830  44.380   2.226
13216W        W76940   8.754  38.369   1.388
13217W        W76941   1.457  30.476   1.827
13218W        W76942   1.253   5.255   1.235
13219W        W76943  36.032   3.816   4.815
13220W        W76944   7.712  19.737   1.434
13221W        W76945  15.265  15.145  12.542
13222W        W76946  44.343  36.469   2.868
13223W        W76947  41.807  11.343   3.309
13224W        W76948   6.362  41.856  13.317
13225W        W76949  38.965  41.307  13.816
13226W        W76950   8.840  17.738   4.816
13227W        W76951   9.210  11.248  10.956
13228W        W76952   2.739  37.049   1.828
13229W        W76953  33.977  39.877   2.252
13230W        W76954  20.195  17.195  10.447
13231W        W76955  18.572   5.368   1.428
13232W        W76956  20.263  40.306  14.956
13233W        W76957  37.924   5.794  13.792
13234W        W76958  18.188   5.396   0.244
13235W        W76959  27.941  22.578  12.563
13236W        W76960  16.649  32.118  10.608
13237W        W76961  41.464  22.247   4.612
13238W        W76962  37.927  25.207  10.405
13239W        W76963  25.192  29.507   0.924
13240W        W76964  28.493  15.645   4.326
13241W        W76965  15.821  31.633  13.948
13242W        W76966  37.503  32.474   4.774
13243W        W76967  33.021  39.429  11.468
13244W        W76968  26.698  31.062  13.821
13245W        W76969   1.797  24.550  11.503
13246W        W76970  34.958  14.325   1.411
13247W        W76971  14.095  15.665  12.906
13248W        W76972   3.453   5.864   3.321
13249W        W76973   4.841  17.633  12.394
13250W        W76974  41.946  10.797   3.641
13251W        W76975  31.487  41.395  10.570
13252W        W76976  31.539  37.934   4.165
13253W        W76977  24.074  35.564  14.376
13254W        W76978  39.426   2.331   1.922
13255W        W76979   7.887  28.511   0.441
13256W        W76980  38.494  11.247  14.788
13257W        W76981  13.779  11.805   0.244
13258W        W76982  11.847   5.712   0.343
13259W        W76983  43.305  40.856  14.392
13260W        W76984  40.921  42.927  12.518
13261W        W76985  37.480  41.309  11.075
13262W        W76986  10.822  11.863  11.610
13263W        W76987  12.809  25.183   2.893
13264W        W76988  23.043   9.866   2.260
13265W        W76989   7.374  41.830   4.142
13266W        W76990  36.894  31.445   1.215
13267W        W76991  19.046  33.971   2.887
13268W        W76992  35.377  44.882  14.345
13269W        W76993  37.000  12.286  12.056
13270W        W76994  33.011   6.831  12.858
13271W        W76995  36.078   7.225   0.944
13272W        W76996   8.810  19.274  11.579
13273W        W76997  26.979  27.634   3.334
13274W        W76998  21.035   7.777  14.503
13275W        W76999  10.247  39.516  11.481
13276W        W77000  16.801   2.951  12.391
13277W        W77001  17.232   8.189  11.907
13278W        W77002   0.307  29.526  10.918
13279W        W77003  33.422  36.016   3.741
13280W        W77004  44.498   1.437  10.980
13281W        W77005   6.242  19.594   3.813
13282W        W77006  22.184  10.232   1.791
13283W        W77007  13.228  44.340   5.098
13284W        W77008  22.599  15.315   4.251
13285W        W77009   4.881  31.514   0.760
13286W        W77010  11.841  36.096  11.913
13287W        W77011  14.791  14.755   1.323
13288W        W77012  21.258  43.794  14.844
13289W        W77013  39.533  37.891  13.049
13290W        W77014  17.567   5.849  11.870
13291W        W77015  30.576  15.329   2.348
13292W        W77016  36.902  39.457  12.966
13293W        W77017   4.825  20.643  12.005
13294W        W77018  35.083  20.179  11.596
13295W        W77019  13.725  20.682   2.389
13296W        W77020  30.000   5.303   3.680
13297W        W77021  38.515  34.102   4.290
13298W        W77022  21.041  33.444  13.534
13299W        W77023  14.664  33.926  13.500
13300W        W77024  14.618  19.707   3.215
13301W        W77025  12.259  35.101  14.963
13302W        W77026  39.911  29.502  12.499
13303W        W77027  23.236  23.033   4.208
13304W        W77028  28.469  17.639   0.817
13305W        W77029  36.418  21.133   4.162
13306W        W77030  24.676   4.308  14.988
13307W        W77031  32.957  27.166  12.396
13308W        W77032  32.553  42.499   1.758
13309W        W77033  44.341  35.091  12.864
13310W        W77034  42.518  30.520  14.802
13311W        W77035  19.658  40.815   1.412
13312W        W77036  25.016  24.513   2.729
13313W        W77037   6.327   3.279  12.457
13314W        W77038   8.335   3.734   3.345
13315W        W77039  38.388  15.279   0.244
13316W        W77040  26.505  31.574  14.481
13317W        W77041  39.318  30.530  13.995
13318W        W77042  15.622  31.104   1.259
13319W        W77043  26.496  32.111  12.975
13320W        W77044  23.503  19.057   1.355
13321W        W77045  16.271  23.606   0.944
13322W        W77046   8.189  15.785  13.816
13323W        W77047   2.312  18.088   0.809
13324W        W77048  42.349  13.248   1.832
13325W        W77049   9.335   5.842  14.279
13326W        W77050  31.029  36.951  13.061
13327W        W77051  20.731  25.022   1.412
13328W        W77052   1.419  17.604  14.488
13329W        W77053   7.257   6.275  12.857
13330W        W77054   5.853  42.803  13.021
13331W        W77055   4.754   4.423   0.407
13332W        W77056   0.848   1.308   3.800
13333W        W77057  25.653  17.264  10.587
13334W        W77058  31.516   5.362   1.242
13335W        W77059  36.541  20.759  13.350
13336W        W77060  38.438  18.761   1.352
13337W        W77061   9.169  16.228  14.391
13338W        W77062  38.914  11.244   0.919
13339W        W77063  34.093   8.858  12.455
13340W        W77064  27.012  35.904   0.355
13341W        W77065  11.770  41.027  14.801
13342W        W77066  12.651  12.722  13.354
13343W        W77067  43.843  12.334  13.460
13344W        W77068  41.465  37.961   0.862
13345W        W77069  18.718   9.230   4.344
13346W        W77070  34.582  32.615   0.248
13347W        W77071  20.271  44.868   0.850
13348W        W77072  33.478  42.386  11.971
13349W        W77073  28.541  42.817  14.946
13350W        W77074  34.888  41.442  10.601
13351W        W77075  42.303  43.438   5.171
13352W        W77076  25.145  22.577   5.211
13353W        W77077  27.611   4.450  12.459
13354W        W77078  30.072   5.227   1.760
13355W        W77079  34.466  13.755  13.813
13356W        W77080  24.005  24.715  11.906
13357W        W77081  15.718  38.423   4.651
13358W        W77082  25.644  35.929  14.474
13359W        W77083  10.192  37.936   1.289
13360W        W77084   9.783  24.010  14.321
13361W        W77085   2.379  25.027   1.854
13362W        W77086  29.997  37.449   4.232
13363W        W77087  24.178  12.166   2.373
13364W        W77088  14.193   3.289   1.924
13365W        W77089  32.572  11.636   4.838
13366W        W77090  23.707   5.365  10.428
13367W        W77091  37.424   2.315  14.429
13368W        W77092  20.766  25.638  10.618
13369W        W77093   1.748  15.598  11.045
13370W        W77094   4.235  10.215   3.285
13371W        W77095   8.714  22.625  11.545
13372W        W77096  16.812  13.249  12.356
13373W        W77097  41.860  26.017  10.066
13374W        W77098   3.371  17.692  14.297
13375W        W77099  26.509  26.659  13.942
13376W        W77100  13.320  39.878  10.995
13377W        W77101  11.347  14.818   4.760
13378W        W77102  33.900  11.261   1.414
13379W        W77103  35.562  43.012  12.508
13380W        W77104  35.586   2.882   4.327
13381W        W77105  20.261   5.299   1.447
13382W        W77106   0.416  20.154  10.457
13383W        W77107  16.778  43.333   0.389
13384W        W77108  43.377  37.863   4.811
13385W        W77109  23.669  33.024  13.368
13386W        W77110  16.638  11.746   4.142
13387W        W77111  43.369  41.430  13.961
13388W        W77112  31.953  22.725   0.265
13389W        W77113  41.789  20.073  10.569
13390W        W77114   0.896   9.357   2.767
13391W        W77115  44.358  42.453   4.710
13392W        W77116  16.274  21.672   3.842
13393W        W77117   3.252  41.352  11.994
13394W        W77118  17.120  13.653  12.042
13395W        W77119  14.760  16.807   4.185
13396W        W77120   7.868  29.463  11.932
13397W        W77121  21.247  28.548   3.829
13398W        W77122  36.854  29.664  12.443
13399W        W77123  20.584  43.363   3.213
13400W        W77124  40.412  35.883   4.346
13401W        W77125  13.140  28.647  10.992
13402W        W77126  33.910  12.670   9.970
13403W        W77127   4.791  30.082   0.960
13404W        W77128   9.766  16.255  13.499
13405W        W77129  43.870  22.056   9.473
13406W        W77130  30.965  15.251   1.879
13407W        W77131   6.849  41.408   2.667
13408W        W77132   3.901  33.516   2.782
13409W        W77133  36.353  19.723  11.426
13410W        W77134  12.714  26.050  14.869
13411W        W77135  24.043  20.177   4.183
13412W        W77136  29.137  20.676  10.462
13413W        W77137  12.660  14.126   1.427
13414W        W77138   2.344  12.744   2.193
13415W        W77139  29.552  32.571  14.903
13416W        W77140  31.592  14.737  14.015
13417W        W77141   7.286  12.139  12.447
13418W        W77142   6.729   0.398   0.924
13419W        W77143  23.695  24.494   2.840
13420W        W77144   5.770  23.640  11.955
13421W        W77145   9.759  37.903   1.842
13422W        W77146  32.466  22.154   2.198
13423W        W77147  40.053  18.643   2.804
13424W        W77148  29.120  11.652  12.941
13425W        W77149  38.852  32.967  12.926
13426W        W77150  19.153  23.592  14.350
13427W        W77151  23.729   8.166   2.411
13428W        W77152  43.464   0.467   1.426
13429W        W77153  25.044  41.007   4.772
13430W        W77154  41.989  25.525  11.558
13431W        W77155  24.182   8.315   2.827
13432W        W77156  36.557  30.636  12.996
13433W        W77157  32.510   7.883   1.706
13434W        W77158  19.580   1.803   4.216
13435W        W77159  16.692  16.259   4.602
13436W        W77160  37.912   8.675   1.702
13437W        W77161  16.182  17.600  10.611
13438W        W77162  12.208  29.956  12.426
13439W        W77163  12.318  41.342   2.305
13440W        W77164  25.078   8.380   4.126
13441W        W77165  35.374   0.264   2.368
13442W        W77166  14.667  21.066  10.491
13443W        W77167  19.102   8.673   3.636
13444W        W77168  43.784  28.053   4.242
13445W        W77169  10.150  27.611  13.478
13446W        W77170  27.688  36.907   4.788
13447W        W77171  28.930  38.984  11.575
13448W        W77172   8.655  43.435   1.399
13449W        W77173   4.765  18.698  10.046
13450W        W77174  28.084   7.375  13.851
13451W        W77175  11.199  19.058  13.379
13452W        W77176   1.451   3.825  12.053
13453W        W77177  26.486   5.334  14.825
13454W        W77178  24.490  22.544   2.414
13455W        W77179  16.679  20.675  13.995
13456W        W77180  28.149  10.267   0.910
13457W        W77181  14.752  42.470  14.851
13458W        W77182  14.655  19.656  10.418
13459W        W77183  11.297  11.796  11.946
13460W        W77184  12.318  25.965  12.554
13461W        W77185   3.888  32.596  13.452
13462W        W77186  44.383  32.432  11.074
13463W        W77187  38.377  14.706  10.537
13464W        W77188  41.803  34.996  14.962
13465W        W77189  40.806  25.675   5.186
13466W        W77190  35.011  12.686   3.671
13467W        W77191  37.422  24.159   2.282
13468W        W77192  25.699   7.182  14.802
13469W        W77193   2.400   8.403  14.360
13470W        W77194  35.045  20.766  13.397
13471W        W77195  19.627  15.212   1.906
13472W        W77196  21.521  19.565   4.612
13473W        W77197  11.130   3.390  10.612
13474W        W77198  34.991   2.809   2.405
13475W        W77199  34.473  12.262   9.975
13476W        W77200   8.733  33.092   4.139
13477W        W77201  36.467  13.270  14.011
13478W        W77202   7.671  15.616  11.079
13479W        W77203  22.052   8.216  14.375
13480W        W77204  19.110  14.686  12.978
13481W        W77205  28.668  29.438   2.181
13482W        W77206  23.714  29.594   1.846
13483W        W77207  15.690  19.197   0.778
13484W        W77208  40.536   2.824   1.856
13485W        W77209   9.347  39.826   0.364
13486W        W77210  12.650  37.519  12.560
13487W        W77211  21.160  21.185   2.699
13488W        W77212  18.202  32.410  11.086
13489W        W77213  36.955  28.972   3.303
13490W        W77214   5.279  36.426   2.692
13491W        W77215   2.757   5.368  14.008
13492W        W77216  34.549  23.107  10.890
13493W        W77217  15.777  19.721  11.568
13494W        W77218  33.996  29.577   3.714
13495W        W77219  31.979  43.370   2.758
13496W        W77220  34.523  42.975  14.804
13497W        W77221  42.322  11.731   4.728
13498W        W77222  19.059  27.573  14.907
13499W        W77223  42.290  37.354  13.396
13500W        W77224  28.546  42.500  11.924
13501W        W77225  36.553  43.940   4.345
13502W        W77226  11.788  33.949   4.639
13503W        W77227   1.858  35.518   3.243
13504W        W77228  43.946  13.755   1.753
13505W        W77229  30.569  13.696  14.846
13506W        W77230  23.169  12.700   2.219
13507W        W77231  16.749  26.698   3.280
13508W        W77232  30.096  33.616  11.407
13509W        W77233  23.020   4.818  14.867
13510W        W77234   0.885  36.529  12.919
13511W        W77235  30.136  31.569   1.923
13512W        W77236  18.670  41.529   0.899
13513W        W77237  44.912  29.130  14.432
13514W        W77238  13.741   1.799  13.357
13515W        W77239   8.740  39.945   3.635
13516W        W77240  11.722   9.210  14.886
13517W        W77241  15.179  40.367  12.854
13518W        W77242  31.566   8.332  14.955
13519W        W77243  19.110  15.715  12.987
13520W        W77244  42.783  28.008  14.902
13521W        W77245  34.919  39.874   1.928
13522W        W77246  11.810   7.221  10.058
13523W        W77247  21.244   2.335  10.580
13524W        W77248   0.987  17.740   0.935
13525W        W77249  38.357  12.823  14.776
13526W        W77250  22.566  15.243  12.948
13527W        W77251  14.314  29.988  13.480
13528W        W77252  20.588   0.454  12.926
13529W        W77253   0.842   3.892   4.263
13530W        W77254   9.730  24.665   2.239
13531W        W77255  16.772  14.298   4.651
13532W        W77256  29.050  43.467  12.573
13533W        W77257   2.294  19.095  10.501
13534W        W77258  19.608  25.539   5.154
13535W        W77259  30.992  19.050   2.239
13536W        W77260  21.080  13.138  10.625
13537W        W77261  27.026  33.114   4.322
13538W        W77262   2.288  31.990   4.761
13539W        W77263  31.451  13.632   4.229
13540W        W77264   6.191  28.584   2.230
13541W        W77265  39.928  41.527  12.370
13542W        W77266   7.835  13.232   1.703
13543W        W77267   8.364  24.633  12.952
13544W        W77268   9.331   7.870   3.381
13545W        W77269  13.752  17.728  14.454
13546W        W77270  38.540  40.891  13.367
13547W        W77271  19.717  18.665  10.952
13548W        W77272  24.636  19.594  12.005
13549W        W77273  34.573  34.924  13.036
13550W        W77274  39.823   2.947  10.460
13551W        W77275  31.642  18.761  14.941
13552W        W77276  25.606  32.089  13.545
13553W        W77277   1.271   8.205   0.964
13554W        W77278  27.025   6.796   4.198
13555W        W77279  21.663  32.516  12.493
13556W        W77280  44.790   7.694  12.997
13557W        W77281  34.385  27.456  13.917
13558W        W77282  39.348  24.066   5.308
13559W        W77283  35.545  13.293   2.888
13560W        W77284  14.168  34.558   3.652
13561W        W77285  37.482  25.088  14.983
13562W        W77286  16.154  15.174   4.782
13563W        W77287   2.767  21.245   0.872
13564W        W77288  31.010  27.125   4.802
13565W        W77289  14.824   8.694   0.740
13566W        W77290   5.746  37.446   1.245
13567W        W77291  38.832  28.438  14.469
13568W        W77292  26.697   0.937  12.462
13569W        W77293  36.888  23.236  14.319
13570W        W77294  28.990  15.083  10.498
13571W        W77295   4.831  21.052  14.968
13572W        W77296  27.679  18.761   1.932
13573W        W77297  28.617  41.002   0.443
13574W        W77298   8.885  42.390  14.280
13575W        W77299  15.299  21.669  12.969
13576W        W77300  12.755  14.225   5.307
13577W        W77301  11.696  11.814  12.447
13578W        W77302  18.570  16.248  12.946
13579W        W77303  13.627  43.799   3.146
13580W        W77304  39.840   6.412  11.016
13581W        W77305  44.277  25.101   3.261
13582W        W77306   7.175  39.967  13.032
13583W        W77307  19.751  29.597  11.424
13584W        W77308   2.229  21.060   2.253
13585W        W77309  27.463  29.587  14.943
13586W        W77310   1.295   7.366  14.279
13587W        W77311  40.936  31.471  13.016
13588W        W77312  25.107  38.475   0.462
13589W        W77313  23.593  43.927   0.378
13590W        W77314   1.251  34.592   4.215
13591W        W77315  42.911  19.194   1.893
13592W        W77316  31.085  23.113   1.880
13593W        W77317   0.314  38.993   4.683
13594W        W77318   3.372  13.771  14.025
13595W        W77319  38.363  43.890  11.116
13596W        W77320   0.836  15.655  11.081
13597W        W77321   5.907  18.545  11.085
13598W        W77322   3.709  29.018   3.745
13599W        W77323  37.035  18.675   4.305
13600W        W77324   0.795   6.281  10.580
13601W        W77325  27.152  19.648   3.751
13602W        W77326  22.065  40.526   0.398
13603W        W77327  44.841  34.887   4.328
13604W        W77328  42.332  28.939   4.826
13605W        W77329  29.039  38.826  14.999
13606W        W77330  38.556   7.897   1.431
13607W        W77331  36.043  18.180  12.487
13608W        W77332  16.211  25.131   0.867
13609W        W77333  28.456  44.989   2.267
13610W        W77334  28.598  27.569  14.972
13611W        W77335  25.023  43.475   1.759
13612W        W77336  23.585  14.249  13.402
13613W        W77337   5.883  19.165  14.981
13614W        W77338   3.810   9.804  11.918
13615W        W77339  23.118  10.692   4.613
13616W        W77340   1.846  15.175   4.823
13617W        W77341  10.636  40.981   0.877
13618W        W77342  24.586  34.478  10.569
13619W        W77343  23.215  37.444   1.264
13620W        W77344  37.337  22.237  13.436
13621W        W77345   4.373  37.890  14.465
13622W        W77346  35.443  28.064   4.176
13623W        W77347   9.387  26.974  13.419
13624W        W77348  35.904  30.552  11.440
13625W        W77349  25.707  28.162   5.301
13626W        W77350  18.762  35.027  14.289
13627W        W77351  27.666  34.408  11.558
13628W        W77352  23.001  36.042   2.292
13629W        W77353  11.189   4.222  11.409
13630W        W77354  17.600  12.634  12.899
13631W        W77355   6.850   9.370  13.390
13632W        W77356   3.926   8.251  14.434
13633W        W77357  42.969  23.024  12.910
13634W        W77358   1.872  16.216   0.851
13635W        W77359  24.611  12.697   0.324
13636W        W77360  25.633  44.502  13.903
13637W        W77361  10.223  24.178   1.264
13638W        W77362   1.950  14.591   2.722
13639W        W77363  33.594   1.977   4.724
13640W        W77364  34.983  13.763  10.901
13641W        W77365  14.234  25.206   4.658
13642W        W77366  14.281  33.621   2.417
13643W        W77367  35.000   4.740   2.248
13644W        W77368  26.564  29.153  12.371
13645W        W77369  32.108  24.145   2.229
13646W        W77370  20.030  41.318  13.019
13647W        W77371  27.681   8.295   0.878
13648W        W77372  28.569   1.455   1.231
13649W        W77373  39.058   7.884   4.231
13650W        W77374  35.988  29.665  12.029
13651W        W77375   7.252  17.685  12.473
13652W        W77376  12.772  23.564   2.899
13653W        W77377  12.840  36.002  13.375
13654W        W77378  41.493  44.370  10.496
13655W        W77379  12.214  16.086   2.199
13656W        W77380  36.378  15.119  11.399
13657W        W77381  30.037  39.328  12.072
13658W        W77382  34.568  11.246   4.767
13659W        W77383  23.668  30.529   4.234
13660W        W77384  36.368  11.769   9.933
13661W        W77385  32.972  38.562   4.350
13662W        W77386  17.592  19.762   2.887
13663W        W77387  43.273  15.149  12.904
13664W        W77388  12.325  40.908  10.541
13665W        W77389  29.538  11.694   0.371
13666W        W77390  18.169  36.447   2.894
13667W        W77391  16.311  11.816  12.498
13668W        W77392  44.894  41.304  12.993
13669W        W77393  40.444  33.551   2.831
13670W        W77394  13.650  40.908   1.796
13671W        W77395  29.528   4.342   4.298
13672W        W77396  25.141  42.338   4.676
13673W        W77397   1.292  11.700   2.825
13674W        W77398  24.159  36.879  11.538
13675W        W77399   3.399   4.813   4.334
13676W        W77400  10.187   9.776  13.941
13677W        W77401  31.628  39.351  13.859
13678W        W77402  31.575  31.095   3.773
13679W        W77403   4.272  30.053   0.331
13680W        W77404  36.474  23.735   1.312
13681W        W77405  14.658   4.262  11.587
13682W        W77406   8.315  14.589  12.034
13683W        W77407   7.861   5.834   4.630
13684W        W77408  33.982   9.389  11.036
13685W        W77409  29.139  35.560  13.381
13686W        W77410  36.051  41.787  14.801
13687W        W77411  26.594   7.285   5.705
13688W        W77412  22.172   6.419   2.712
13689W        W77413  41.849  34.953  12.422
13690W        W77414  27.522  33.049   2.217
13691W        W77415  11.661  19.232   2.790
13692W        W77416  35.371  22.019  13.041
13693W        W77417  20.708  14.172   5.178
13694W        W77418  10.149  23.734   3.219
13695W        W77419  17.668  14.314   2.348
13696W        W77420  28.017  11.341  10.078
13697W        W77421  22.190  11.713  12.924
13698W        W77422   8.343  24.064   3.163
13699W        W77423  24.598  25.679  10.497
13700W        W77424   5.711  26.459   0.803
13701W        W77425  17.670  34.891  12.046
13702W        W77426  30.591  21.240  14.325
13703W        W77427  13.140  24.576   0.741
13704W        W77428  37.960   6.213  10.499
13705W        W77429  16.247  31.487   1.864
13706W        W77430  37.069  36.515   1.921
13707W        W77431  14.306  10.219   0.343
13708W        W77432  16.802   1.903  13.032
13709W        W77433  41.489  14.104  13.795
13710W        W77434  16.724   9.656  12.495
13711W        W77435  13.671  38.359  12.036
13712W        W77436  22.027  16.282  13.837
13713W        W77437  42.316  43.384   1.869
13714W        W77438   7.744   2.250  10.981
13715W        W77439  32.583  29.512   4.119
13716W        W77440  41.351  37.422  13.063
13717W        W77441   3.407  34.397   1.929
13718W        W77442  34.063  36.490  11.555
13719W        W77443  29.127   8.253  14.943
13720W        W77444   5.777   3.943   3.664
13721W        W77445  20.557  23.103   3.679
13722W        W77446   1.427  27.086   2.787
13723W        W77447   9.717   3.870  12.865
13724W        W77448  14.680  35.926   5.188
13725W        W77449  11.792   0.252  14.956
13726W        W77450  16.633  21.583  13.917
13727W        W77451  43.898  30.503  12.062
13728W        W77452  17.745   9.672   0.864
13729W        W77453   7.373  28.111   1.213
13730W        W77454  10.742  24.537   4.762
13731W        W77455  11.143   6.404  14.500
13732W        W77456  43.285  37.026   5.270
13733W        W77457  11.751   4.878   1.911
13734W        W77458   1.838  20.631  13.352
13735W        W77459  16.728  27.160  10.483
13736W        W77460  27.197  16.622  11.497
13737W        W77461   2.899  19.694   0.342
13738W        W77462  28.140   6.288   4.646
13739W        W77463   9.782  16.706  12.073
13740W        W77464   2.870  31.011   3.631
13741W        W77465   8.165  14.119  12.051
13742W        W77466  38.359  24.640   3.802
13743W        W77467  43.451  17.169   4.156
13744W        W77468   3.419  10.380  13.010
13745W        W77469  13.142  12.789   4.292
13746W        W77470   9.782  16.666   3.821
13747W        W77471  18.241  19.159  11.051
13748W        W77472   9.394  41.894   0.944
13749W        W77473  15.322  13.819  12.579
13750W        W77474  17.204  20.246   2.186
13751W        W77475  21.668  29.920   0.895
13752W        W77476  18.715  35.051   0.449
13753W        W77477  29.068  12.813  10.576
13754W        W77478  22.099  35.589   0.428
13755W        W77479  22.603   1.773  12.536
13756W        W77480  30.952  29.623   3.783
13757W        W77481  11.716  41.481   4.626
13758W        W77482  16.710  17.602  12.432
13759W        W77483   2.842  36.058   0.965
13760W        W77484   7.891   0.850   3.834
13761W        W77485  13.796  42.022   3.661
13762W        W77486  11.195  19.609   0.269
13763W        W77487   4.421  18.256  11.424
13764W        W77488   2.406   4.380  10.495
13765W        W77489   9.229  17.596  14.424
13766W        W77490  12.729  34.002   4.793
13767W        W77491   5.855  31.508   4.192
13768W        W77492  24.505  10.142  13.542
13769W        W77493  25.679  11.639   0.377
13770W        W77494  13.683   6.262   4.719
13771W        W77495   3.445  31.493  10.427
13772W        W77496  19.153  25.536  14.994
13773W        W77497  17.787  18.633   1.784
13774W        W77498  41.952  39.942   1.703
13775W        W77499   0.788  30.536  14.922
13776W        W77500  31.110  10.155   1.440
13777W        W77501  32.040  12.651   2.355
13778W        W77502  26.079   5.898   4.760
13779W        W77503   2.731  42.884   1.281
13780W        W77504   4.311   7.362   1.246
13781W        W77505  23.559  43.827  11.423
13782W        W77506  10.169  38.019  11.382
13783W        W77507  41.847  38.989  13.870
13784W        W77508  34.066  44.490   1.764
13785W        W77509  23.624  36.395  10.504
13786W        W77510  25.060   5.247   0.328
13787W        W77511  31.521  13.290  13.531
13788W        W77512  19.259  12.347   3.324
13789W        W77513  35.935  28.535  13.797
13790W        W77514  12.829  34.504   3.846
13791W        W77515  35.537   8.898  11.586
13792W        W77516  25.094  20.265   3.204
13793W        W77517  31.978   0.857   2.203
13794W        W77518   7.777  38.376   1.834
13795W        W77519  19.135  13.617   0.762
13796W        W77520  25.611  17.306   0.271
13797W        W77521  38.879  37.960  12.429
13798W        W77522  16.699  12.258  14.409
13799W        W77523   5.701  21.154  10.895
13800W        W77524  22.728   9.354   0.476
13801W        W77525  25.017  40.337  11.023
13802W        W77526  37.456   7.792  11.887
13803W        W77527  27.603  12.234   4.191
13804W        W77528   5.789  43.804   3.871
13805W        W77529  40.420  16.126  11.577
13806W        W77530  42.862   3.873  10.600
13807W        W77531   4.419   1.817   0.757
13808W        W77532  44.910  43.782   3.289
13809W        W77533  22.698  11.136   3.712
13810W        W77534  13.314   0.259  14.317
13811W        W77535  43.778  44.863  11.997
13812W        W77536  29.143  33.992   0.260
13813W        W77537  22.513  42.930   1.416
13814W        W77538  23.991  24.104   1.805
13815W        W77539   7.671   7.401   2.182
13816W        W77540  25.162   8.244  13.314
13817W        W77541  19.756   9.225  12.011
13818W        W77542  29.096   1.465   3.773
13819W        W77543  24.090  24.532   4.343
13820W        W77544  26.651  22.574  12.550
13821W        W77545  20.202  17.296   0.349
13822W        W77546  33.616   9.165  12.874
13823W        W77547   4.744  16.617  14.489
13824W        W77548  17.110  42.306   2.824
13825W        W77549  11.142  39.992  14.333
13826W        W77550   5.847  37.462  13.439
13827W        W77551  31.544  42.375  14.444
13828W        W77552  40.896   9.210  10.524
13829W        W77553  43.934  10.693  13.892
13830W        W77554  41.900   0.324  10.406
13831W        W77555  29.555  14.792  11.039
13832W        W77556   7.204  21.675   0.448
13833W        W77557  17.713  24.101   1.924
13834W        W77558  29.638  38.353   0.351
13835W        W77559  43.957  11.850  13.498
13836W        W77560   7.231  11.264   5.281
13837W        W77561  17.768  35.357   2.269
13838W        W77562  26.500   5.895  12.921
13839W        W77563  19.734  36.842   2.275
13840W        W77564   0.491  44.895   4.608
13841W        W77565  31.060  12.194  13.837
13842W        W77566   0.777  13.249  14.024
13843W        W77567  32.534   9.803   2.301
13844W        W77568  13.619  27.099   0.406
13845W        W77569  27.453  12.278   3.736
13846W        W77570  27.688  37.956   0.821
13847W        W77571  28.054  24.637   5.303
13848W        W77572  10.244  40.358  10.889
13849W        W77573   3.434  35.039  12.882
13850W        W77574   1.830  17.783  14.425
13851W        W77575  10.165  14.198  13.448
13852W        W77576  10.324  28.978   2.670
13853W        W77577  26.061  14.642  10.603
13854W        W77578   4.243  26.177   2.666
13855W        W77579  38.417  36.020   1.211
13856W        W77580  28.939  42.783  13.879
13857W        W77581  15.262  23.008  11.068
13858W        W77582   6.321   3.319   3.689
13859W        W77583  38.483   9.714  13.960
13860W        W77584  22.589  37.063  13.408
13861W        W77585   5.195  42.881  14.320
13862W        W77586  44.757   5.318  12.906
13863W        W77587  11.137  15.290  10.614
13864W        W77588  34.867  16.585   2.181
13865W        W77589   8.238  31.627  11.399
13866W        W77590   9.319   5.365   2.405
13867W        W77591  18.151  14.734  12.051
13868W        W77592  33.471  34.023   1.711
13869W        W77593  31.001  11.695   3.237
13870W        W77594  35.064   4.311   2.693
13871W        W77595  39.813   1.958  14.311
13872W        W77596  17.298   6.277   2.229
13873W        W77597  39.395  17.289   3.184
13874W        W77598   4.353   2.900   2.767
13875W        W77599  19.112   5.429   3.842
13876W        W77600  23.679  41.317  11.042
13877W        W77601   2.354  36.031  13.021
13878W        W77602  18.678  43.949  11.400
13879W        W77603  39.520  32.894   3.743
13880W        W77604  20.636   2.869   2.683
13881W        W77605  27.193  28.937   2.244
13882W        W77606  33.579  35.984   3.310
13883W        W77607  39.378  16.185  12.359
13884W        W77608  28.132  28.955  11.928
13885W        W77609   6.270  10.171   4.350
13886W        W77610  36.025   7.245  10.888
13887W        W77611  32.421   8.892   3.839
13888W        W77612  15.751  30.085  13.038
13889W        W77613  14.806  24.697   1.253
13890W        W77614  43.019  14.630  12.979
13891W        W77615  34.589  14.623  12.048
13892W        W77616  41.448  23.624  14.980
13893W        W77617  42.981   2.471   5.116
13894W        W77618   4.940  43.407  10.146
13895W        W77619  21.731   5.415  13.816
13896W        W77620  41.843  33.979   9.949
13897W        W77621  42.863  23.115   3.666
13898W        W77622  28.006  10.381   1.258
13899W        W77623  10.834  32.575  11.922
13900W        W77624  41.299   7.783   1.766
13901W        W77625  34.960  18.732  13.314
13902W        W77626  36.560  26.106   2.792
13903W        W77627  34.102  40.446  14.889
13904W        W77628  17.762  26.526   1.407
13905W        W77629  38.979  40.312  12.503
13906W        W77630  14.261  25.630  13.929
13907W        W77631   8.697  19.206  11.102
13908W        W77632  43.287   9.668  10.904
13909W        W77633   4.812   9.660   4.666
13910W        W77634  39.877  32.564  12.496
13911W        W77635  22.632  41.873  12.959
13912W        W77636  18.592   3.890   1.442
13913W        W77637  11.764  31.144   3.833
13914W        W77638   2.794  18.172  13.846
13915W        W77639  40.863  17.167  13.509
13916W        W77640  43.903  34.055   0.932
13917W        W77641   1.406   8.221  11.880
13918W        W77642  37.477  31.968   0.437
13919W        W77643  31.415  44.855  14.765
13920W        W77644  15.259  34.597   4.603
13921W        W77645  15.261  17.659  10.506
13922W        W77646   8.246  15.690  12.507
13923W        W77647  42.338  44.312   3.695
13924W        W77648  43.790  44.493  14.920
13925W        W77649  34.560  42.395  12.503
13926W        W77650  20.592   1.913   4.278
13927W        W77651  27.068  40.491   0.450
13928W        W77652  37.912  26.963   4.148
13929W        W77653  27.123  32.085   4.302
13930W        W77654  13.729  38.529  14.465
13931W        W77655   1.364  27.954  10.592
13932W        W77656  29.541  21.048  13.800
13933W        W77657   6.346   3.711  11.867
13934W        W77658  21.652  29.021  11.052
13935W        W77659  30.420  42.476   4.183
13936W        W77660   9.293  11.157  13.802
13937W        W77661  40.015  42.327  12.450
13938W        W77662  35.476  10.267  14.448
13939W        W77663  36.887  18.123   4.716
13940W        W77664  42.893   9.838   3.233
13941W        W77665  43.407  23.165   9.971
13942W        W77666  26.503  44.989  14.879
13943W        W77667  19.710  23.175   4.140
13944W        W77668  33.541  27.483   0.767
13945W        W77669  35.385  42.488   3.871
13946W        W77670   1.899  20.160   0.756
13947W        W77671  27.459  12.219  10.531
13948W        W77672  34.990  32.979  11.444
13949W        W77673  12.841  31.087  14.373
13950W        W77674   0.766  18.678  11.881
13951W        W77675  21.550  16.231  14.487
13952W        W77676  15.318  23.669  13.431
13953W        W77677   6.919   8.860  10.462
13954W        W77678  38.947  42.025  11.528
13955W        W77679  30.938  39.331   0.469
13956W        W77680   0.302  37.552  12.980
13957W        W77681  17.690   7.808   4.205
13958W        W77682  29.931  36.372  13.460
13959W        W77683  44.344  43.895   1.712
13960W        W77684   1.778  12.758   3.845
13961W        W77685  44.010  29.465   1.318
13962W        W77686  32.063  28.672   4.777
13963W        W77687  14.335  26.987   1.907
13964W        W77688  27.073  40.868   4.682
13965W        W77689  14.791  22.680  14.380
13966W        W77690  10.255   4.802   2.354
13967W        W77691  11.659   6.374  13.430
13968W        W77692  30.012  38.966  13.048
13969W        W77693  27.621  14.714   3.384
13970W        W77694  26.970  20.205   3.241
13971W        W77695  12.776  44.758  14.281
13972W        W77696  38.517  24.592   4.180
13973W        W77697  17.588  20.577  10.442
13974W        W77698  37.488   0.879  13.451
13975W        W77699  19.233   7.695   4.817
13976W        W77700   2.391  10.866  10.593
13977W        W77701  24.526   2.763   3.686
13978W        W77702  13.238  35.893   0.473
13979W        W77703   2.749  40.871   2.207
13980W        W77704  40.020  20.262   2.880
13981W        W77705  25.179  33.426   0.919
13982W        W77706  38.570  15.687   0.444
13983W        W77707  28.573  19.587   3.648
13984W        W77708   2.384  42.998  14.945
13985W        W77709  29.928  34.516   3.869
13986W        W77710  11.774  12.199   1.281
13987W        W77711  11.245  40.948  14.471
13988W        W77712   5.347   8.395   0.922
13989W        W77713   2.845  38.942   1.422
13990W        W77714  10.786  16.080   4.791
13991W        W77715  39.396  18.066   2.703
13992W        W77716  14.175   3.883   4.143
13993W        W77717  13.153  30.064  11.379
13994W        W77718  17.229   9.254  12.339
13995W        W77719  23.729  21.642  14.972
13996W        W77720  30.021  32.550   4.615
13997W        W77721  37.548  27.544   2.882
13998W        W77722   9.336  31.407   2.218
13999W        W77723  41.427  29.508   0.308
14000W        W77724  37.391  32.116  12.501
14001W        W77725  39.063  11.188   3.203
14002W        W77726  29.136  13.833  11.452
14003W        W77727  44.432  16.608  14.404
14004W        W77728  35.025  23.594   0.281
14005W        W77729  30.642  31.998  11.103
14006W        W77730  15.755  19.696   1.214
14007W        W77731   2.382  41.856   4.635
14008W        W77732  34.577  24.695   4.765
14009W        W77733   7.387  16.253  14.339
14010W        W77734  30.941  14.228  12.393
14011W        W77735  22.666  13.278   4.258
14012W        W77736   6.346  43.470   0.255
14013W        W77737  27.131  26.989   1.426
14014W        W77738  18.787  26.989   1.311
14015W        W77739   5.892  41.353   0.448
14016W        W77740  38.028  29.492  10.525
14017W        W77741   7.879  44.878  14.366
14018W        W77742   5.217  26.954   1.755
14019W        W77743  15.668  17.093   0.903
14020W        W77744  10.787  38.042  10.643
14021W        W77745  32.976  24.230   0.877
14022W        W77746   4.730  31.609  14.991
14023W        W77747  39.318  44.008  11.411
14024W        W77748   6.690  25.680  10.513
14025W        W77749  35.016  20.174  11.859
14026W        W77750   8.269  39.980   1.891
14027W        W77751  27.171   7.883  14.954
14028W        W77752  19.272   4.855  10.607
14029W        W77753  23.735  23.606   1.927
14030W        W77754   9.342  15.622   2.263
14031W        W77755  21.654  30.523   2.755
14032W        W77756  30.069  44.369   2.208
14033W        W77757  27.096  30.035   0.372
14034W        W77758  15.607  39.909   3.180
14035W        W77759  32.434  44.486  10.112
14036W        W77760   4.833  19.259  11.425
14037W        W77761  39.534  41.888   0.263
14038W        W77762   9.649  13.766   1.742
14039W        W77763  10.809  36.455  14.476
14040W        W77764  35.961  40.975   1.235
14041W        W77765  44.756  13.812  10.591
14042W        W77766  10.368  19.744  10.039
14043W        W77767  31.093  39.498   0.803
14044W        W77768  34.081  14.277  13.548
14045W        W77769  17.609  14.832   3.801
14046W        W77770  34.084  37.445   1.278
14047W        W77771  43.981  21.223  14.927
14048W        W77772  30.467   4.765   0.379
14049W        W77773  38.548  30.153   2.711
14050W        W77774  18.202   9.227  14.499
14051W        W77775   2.861  14.218   4.776
14052W        W77776   8.735  39.902   4.806
14053W        W77777   7.352  18.063  11.443
14054W        W77778  23.545  36.034  13.994
14055W        W77779  24.129   1.443   0.441
14056W        W77780   5.886  17.306  10.999
14057W        W77781  38.982  16.074  11.904
14058W        W77782  27.072  18.791  13.010
14059W        W77783  21.114  18.157  13.332
14060W        W77784  14.643   2.329   3.169
14061W        W77785  34.443  27.117   1.901
14062W        W77786  10.295  13.703   4.613
14063W        W77787  11.343  27.541  11.872
14064W        W77788   0.878  35.915   5.083
14065W        W77789  25.143   0.950   1.764
14066W        W77790  16.674   7.180   3.802
14067W        W77791   2.777   8.299  11.391
14068W        W77792   1.374  19.629  10.511
14069W        W77793   8.295  38.386  14.988
14070W        W77794   0.324  36.384  11.973
14071W        W77795   4.241  29.995  13.030
14072W        W77796   2.819  22.073  10.915
14073W        W77797  44.437  11.756   2.368
14074W        W77798  32.547  10.174   3.334
14075W        W77799  35.007  44.841  12.002
14076W        W77800  42.350  22.557  11.485
14077W        W77801  19.728   2.451  12.969
14078W        W77802  36.386  24.987  14.816
14079W        W77803  28.549  15.612  14.435
14080W        W77804  33.090  25.575   4.155
14081W        W77805  11.204  14.684  13.837
14082W        W77806  14.813  44.378  14.352
14083W        W77807  39.324   5.436   3.171
14084W        W77808   9.311  32.558   0.253
14085W        W77809  21.068  17.734  14.313
14086W        W77810  35.037  31.019   3.744
14087W        W77811  40.394  11.319   3.185
14088W        W77812  42.482  24.587  14.486
14089W        W77813  38.474  23.635  14.932
14090W        W77814  23.515  24.113  13.389
14091W        W77815  17.077  11.636  14.947
14092W        W77816  10.662  11.325  14.900
14093W        W77817  24.704   8.248  14.931
14094W        W77818   1.795  37.015  12.578
14095W        W77819  11.814  42.358  13.045
14096W        W77820  17.127   9.885  14.366
14097W        W77821  10.646  30.037  12.981
14098W        W77822  42.787   3.773   4.765
14099W        W77823  28.067  26.057   2.294
14100W        W77824  34.115   3.934  12.895
14101W        W77825  34.092   0.838  12.931
14102W        W77826  41.454  17.667   4.614
14103W        W77827  37.427   3.241   0.309
14104W        W77828  41.788  17.287  14.426
14105W        W77829  41.037  20.054   3.790
14106W        W77830   2.389   3.335  10.627
14107W        W77831  41.999   4.779  14.884
14108W        W77832  26.462  35.417  13.858
14109W        W77833   7.319  23.734  14.496
14110W        W77834  40.010  43.500   3.784
14111W        W77835   9.259  39.889  10.411
14112W        W77836   2.891   3.810   3.169
14113W        W77837  44.263  32.899   0.259
14114W        W77838  12.803   9.761  11.077
14115W        W77839  16.576  31.425   0.742
14116W        W77840   4.380  12.338   5.632
14117W        W77841  37.832   2.937  14.507
14118W        W77842  15.634  40.960  13.511
14119W        W77843  27.049  24.103   0.266
14120W        W77844  34.372   6.897   3.152
14121W        W77845   0.865  40.051   1.275
14122W        W77846  34.510  21.149  10.492
14123W        W77847  39.330   3.877  12.496
14124W        W77848  40.007  27.131   0.872
14125W        W77849   1.813  22.717  14.860
14126W        W77850  32.901  41.022   4.254
14127W        W77851   4.283  15.706  12.413
14128W        W77852  36.575  21.162  11.597
14129W        W77853  31.574  27.042  10.623
14130W        W77854  37.540  44.263   0.324
14131W        W77855   8.773  26.604  11.391
14132W        W77856   3.334   7.765   3.869
14133W        W77857  16.643  15.177   3.305
14134W        W77858  17.699  21.539  12.900
14135W        W77859   4.857   0.448  11.435
14136W        W77860   0.772  30.578   5.097
14137W        W77861  33.931  32.434  14.339
14138W        W77862  41.821  26.047  10.551
14139W        W77863   3.250  28.055  12.563
14140W        W77864  32.008  36.475   0.336
14141W        W77865  17.190  28.014  12.341
14142W        W77866   7.353   2.301  12.011
14143W        W77867  23.612  44.870  12.086
14144W        W77868  44.822  28.548   2.843
14145W        W77869  11.285   1.933  11.083
14146W        W77870  36.409   9.316  10.939
14147W        W77871   6.811  12.284  14.335
14148W        W77872  36.444  25.593  11.103
14149W        W77873  14.247  28.465  13.413
14150W        W77874  23.137  23.029   4.699
14151W        W77875   4.388  38.942  13.809
14152W        W77876  28.666  17.181   0.352
14153W        W77877  35.861   9.836   4.147
14154W        W77878  43.498  33.493  10.047
14155W        W77879  29.455  12.655  13.361
14156W        W77880  42.317  22.650   5.586
14157W        W77881  10.783  20.114   3.257
14158W        W77882  36.988  44.363  11.925
14159W        W77883  23.712  31.049   2.684
14160W        W77884  23.582   4.834  13.984
14161W        W77885  37.480   1.240   1.738
14162W        W77886  38.944  34.399  12.857
14163W        W77887  30.416  15.152  14.939
14164W        W77888   2.325  33.891   1.910
14165W        W77889  42.346  44.981  13.524
14166W        W77890   5.343   0.285   1.228
14167W        W77891  38.540   0.437   2.734
14168W        W77892  39.820   9.889  11.459
14169W        W77893  35.036  40.916  14.424
14170W        W77894  37.462  44.840  13.900
14171W        W77895  34.462  22.674   3.704
14172W        W77896   9.752  15.272   4.342
14173W        W77897  19.103  39.331   0.471
14174W        W77898  19.234   2.878   1.714
14175W        W77899  21.059  15.132  13.461
14176W        W77900  20.769  38.991   4.231
14177W        W77901  20.745  26.547  11.408
14178W        W77902  40.004  27.071   1.398
14179W        W77903   0.811  32.624  14.906
14180W        W77904  16.608  38.972   0.928
14181W        W77905  21.222   0.902   4.277
14182W        W77906   6.392  32.568   4.672
14183W        W77907  23.023  20.614  11.052
14184W        W77908  38.361  26.130  12.459
14185W        W77909  33.935  22.503   4.740
14186W        W77910  18.567   6.901   0.422
14187W        W77911   8.187  42.303  14.002
14188W        W77912  41.445  15.651   1.239
14189W        W77913  28.528  40.426   3.276
14190W        W77914  10.817  31.488   2.897
14191W        W77915  32.478  12.815   1.402
14192W        W77916  40.432  30.557   0.301
14193W        W77917  16.318  24.499   4.329
14194W        W77918  30.106   8.753  11.992
14195W        W77919  13.752  11.784  12.062
14196W        W77920  12.622  31.935  10.424
14197W        W77921  42.971  38.977  10.610
14198W        W77922  24.097  43.473  11.411
14199W        W77923  35.862   1.807   4.151
14200W        W77924  10.360  20.152   2.806
14201W        W77925  28.465  30.413   2.271
14202W        W77926  43.788   0.850   2.792
14203W        W77927  31.567   2.820  11.022
14204W        W77928  13.130  14.750  10.492
14205W        W77929  35.011  26.027   0.246
14206W        W77930   5.849  30.520   4.117
14207W        W77931   0.291  19.251  10.530
14208W        W77932  12.753  20.033  13.831
14209W        W77933  42.386  22.691  11.090
14210W        W77934  19.261   5.230  13.005
14211W        W77935  24.722  25.591   4.285
14212W        W77936  20.269   6.315  10.443
14213W        W77937  40.831   8.740  11.546
14214W        W77938   0.988  17.156  11.092
14215W        W77939  24.498  44.778   4.736
14216W        W77940   8.846  28.680   4.665
14217W        W77941  44.461  15.797   0.336
14218W        W77942  44.793  24.147  14.393
14219W        W77943  20.193   0.827  12.478
14220W        W77944  32.080  21.740   4.599
14221W        W77945  32.621  30.442  14.362
14222W        W77946   6.827   1.280  10.585
14223W        W77947  34.435  38.436   1.855
14224W        W77948  33.498   2.959  13.338
14225W        W77949  31.414  38.478   4.353
14226W        W77950   7.674  24.220   1.451
14227W        W77951  23.713  20.201  13.877
14228W        W77952  24.071  29.164  11.476
14229W        W77953  21.518  34.938   3.779
14230W        W77954  26.094   9.350  13.520
14231W        W77955  30.944  40.522   1.806
14232W        W77956  44.839  18.602  12.046
14233W        W77957  15.281  14.815   2.317
14234W        W77958  38.543  28.977   0.964
14235W        W77959  12.336  43.827   0.275
14236W        W77960  26.959  19.656  11.585
14237W        W77961   0.747  21.529  12.044
14238W        W77962   7.788  18.100  14.400
14239W        W77963   3.249   5.363   2.709
14240W        W77964  20.591  44.880   3.694
14241W        W77965  41.422  36.905  11.564
14242W        W77966  27.691  34.952   4.237
14243W        W77967  33.428   3.931   2.221
14244W        W77968  35.872  13.716   4.181
14245W        W77969  42.782  43.288   1.928
14246W        W77970  34.499   8.774  11.440
14247W        W77971  42.282  44.870  10.097
14248W        W77972  40.514  27.130  14.370
14249W        W77973  41.955  33.113   9.490
14250W        W77974  17.071  25.011   3.370
14251W        W77975  43.875  38.537  13.838
14252W        W77976   2.389  42.340  11.525
14253W        W77977   0.819  23.630   2.706
14254W        W77978  32.909  10.192   4.340
14255W        W77979  25.043   7.386   2.398
14256W        W77980  23.082  43.986  10.990
14257W        W77981  38.943  13.819  11.570
14258W        W77982  21.700   9.305   0.856
14259W        W77983  35.074   5.218   2.875
14260W        W77984  37.076  27.623  11.533
14261W        W77985   4.381  17.595   1.697
14262W        W77986  24.664  17.264  10.535
14263W        W77987   5.430  34.609  12.910
14264W        W77988  38.424  38.059  12.460
14265W        W77989  33.991  14.297  12.041
14266W        W77990   8.717  38.392   0.431
14267W        W77991  22.562  37.063   0.859
14268W        W77992  41.459  36.464  13.942
14269W        W77993  22.712  33.513  13.863
14270W        W77994  19.115  19.235   1.284
14271W        W77995   1.321  27.471  10.570
14272W        W77996   7.330   8.347  13.346
14273W        W77997  20.043   9.710  11.898
14274W        W77998  14.807  29.435   0.911
14275W        W77999  11.826  10.662   3.712
14276W        W78000  19.041  44.311   3.147
14277W        W78001  14.737  40.895   2.848
14278W        W78002  35.097  33.587   1.748
14279W        W78003   4.444  37.978   0.387
14280W        W78004  44.383  31.516   1.896
14281W        W78005  13.600   7.740   2.802
14282W        W78006  12.647   8.317   2.736
14283W        W78007  29.530  27.446   4.331
14284W        W78008   7.666  34.485  14.995
14285W        W78009  25.482  27.682  13.876
14286W        W78010  13.219  33.983   2.301
14287W        W78011  41.847   0.302   3.368
14288W        W78012  33.121  40.032  14.475
14289W        W78013  12.194  34.570  11.451
14290W        W78014  34.463  44.920   2.411
14291W        W78015  35.593  16.149   4.713
14292W        W78016   5.390  44.464   4.719
14293W        W78017  28.523  13.699  13.957
14294W        W78018  39.380   8.362  14.428
14295W        W78019  29.453  33.960   1.319
14296W        W78020  37.436  23.616   4.734
14297W        W78021  34.095  35.548  13.501
14298W        W78022  26.980  38.379   3.726
14299W        W78023  29.523  37.534  12.050
14300W        W78024  22.120  43.895  11.544
14301W        W78025  37.440  14.708   2.406
14302W        W78026  44.808  21.694  14.426
14303W        W78027  15.608  39.837  13.534
14304W        W78028  32.891  13.304   2.819
14305W        W78029  27.145   3.822   2.748
14306W        W78030  40.500  28.156  14.302
14307W        W78031  10.674  29.654  12.848
14308W        W78032  29.046  11.253   3.359
14309W        W78033  13.111  32.558   1.451
14310W        W78034  10.364  27.058  11.562
14311W        W78035  29.162  17.251   4.231
14312W        W78036   2.780  20.212  11.951
14313W        W78037   4.839  43.786  11.031
14314W        W78038  13.343  39.482  13.487
14315W        W78039  27.152  44.864  11.586
14316W        W78040  17.699  41.530  13.010
14317W        W78041  33.440  41.874   3.733
14318W        W78042  44.382  25.139  13.937
14319W        W78043  32.945  43.984   0.353
14320W        W78044  39.453  14.591   2.311
14321W        W78045  28.632  26.594   2.675
14322W        W78046  23.527  30.945   4.649
14323W        W78047  13.351  29.424   2.765
14324W        W78048  41.033  35.024  12.022
14325W        W78049  18.265   8.220  14.425
14326W        W78050  21.535  41.420   1.699
14327W        W78051  23.098  41.803  13.986
14328W        W78052  11.783  28.128  13.388
14329W        W78053  22.054  15.277  14.018
14330W        W78054  40.459  22.740  12.470
14331W        W78055  35.978   5.255  10.499
14332W        W78056  26.501   5.424  14.302
14333W        W78057  27.100   9.700   2.772
14334W        W78058   8.883  18.226  11.929
14335W        W78059  43.396   5.203   4.640
14336W        W78060  41.313  42.852  11.451
14337W        W78061   8.832   7.860   2.768
14338W        W78062  14.214  29.568   5.194
14339W        W78063  34.916  29.036   3.658
14340W        W78064  22.690  10.177  10.137
14341W        W78065   7.692  14.592  14.951
14342W        W78066  11.655   8.737  14.806
14343W        W78067   6.396  33.898   1.410
14344W        W78068  43.984  19.551  14.789
14345W        W78069  21.099  44.262   3.261
14346W        W78070  13.672  36.091   2.674
14347W        W78071  27.526  25.983   0.742
14348W        W78072  11.646  16.201  10.434
14349W        W78073  38.413  37.503  12.548
14350W        W78074  23.563  27.668   2.288
14351W        W78075  23.035   2.464   4.229
14352W        W78076   6.843  26.492   5.298
14353W        W78077   4.856  19.719  12.523
14354W        W78078  23.546   4.432  13.357
14355W        W78079   0.746  44.974  10.951
14356W        W78080  26.040   4.268  12.489
14357W        W78081  42.310   6.681  12.374
14358W        W78082   4.444  43.389   0.777
14359W        W78083  18.183   9.154   4.607
14360W        W78084  40.001  29.142   4.298
14361W        W78085  25.664  43.277   3.747
14362W        W78086  27.006  22.704  11.605
14363W        W78087  14.320  41.382   0.748
14364W        W78088  25.962   4.246   2.257
14365W        W78089   4.809  15.811  12.843
14366W        W78090  38.063  23.537   5.149
14367W        W78091  31.960  32.512   3.633
14368W        W78092   3.760  10.278  11.895
14369W        W78093  11.373  38.518   3.741
14370W        W78094   9.712  37.002   2.178
14371W        W78095  16.764   6.324   4.761
14372W        W78096   7.205   9.215   0.289
14373W        W78097  13.149  35.377   4.671
14374W        W78098  16.154  40.044  12.553
14375W        W78099  24.000  13.347   1.269
14376W        W78100  26.544  28.487  13.890
14377W        W78101  22.011  19.198   2.287
14378W        W78102  24.640  30.466   2.791
14379W        W78103  41.372  25.484   1.828
14380W        W78104  11.306  24.552  13.923
14381W        W78105  37.369  14.754  12.045
14382W        W78106  29.065  24.077  11.897
14383W        W78107  26.497  43.373  11.494
14384W        W78108  31.526   6.260   0.278
14385W        W78109  29.583  21.120  12.005
14386W        W78110  24.590  37.371   2.860
14387W        W78111  17.259  34.993  10.631
14388W        W78112  43.001  14.807  14.826
14389W        W78113  37.520   7.189  11.910
14390W        W78114  20.113   7.772   3.193
14391W        W78115   7.263  11.328   0.803
14392W        W78116  16.663  31.033   1.715
14393W        W78117  44.991  38.467  13.000
14394W        W78118  12.271  42.926  13.003
14395W        W78119  35.922   7.365  11.963
14396W        W78120  19.179  30.574  11.542
14397W        W78121  25.696   5.876   0.364
14398W        W78122  30.565  41.797  13.445
14399W        W78123  15.228   8.369  12.444
14400W        W78124  12.627  33.534  12.883
14401W        W78125  44.856  13.250  12.951
14402W        W78126  36.977  38.418  14.005
14403W        W78127   6.879  13.109   2.297
14404W        W78128  12.309  33.956  14.484
14405W        W78129   4.437   8.257   2.205
14406W        W78130  12.795  10.215  12.074
14407W        W78131  16.809  41.441  11.495
14408W        W78132  41.895  10.274  13.379
14409W        W78133  30.969   1.314   3.319
14410W        W78134  28.181  19.613  10.550
14411W        W78135  30.143  26.690  12.492
14412W        W78136  29.561  17.074  14.406
14413W        W78137   9.251  37.897  14.352
14414W        W78138   4.701   0.958   0.816
14415W        W78139  18.115  12.668  11.569
14416W        W78140   4.205  26.639   1.890
14417W        W78141  21.056  42.867   3.847
14418W        W78142  39.973   1.286  12.983
14419W        W78143  21.535  42.303   2.410
14420W        W78144  29.029  43.959   1.435
14421W        W78145  36.488  30.589  14.885
14422W        W78146  32.430  21.258  10.441
14423W        W78147  40.878  12.235   3.818
14424W        W78148  32.025  41.984   2.691
14425W        W78149  26.460  20.169  10.890
14426W        W78150  13.142  10.857  12.484
14427W        W78151  30.434   9.812  11.398
14428W        W78152  28.046  23.235   2.181
14429W        W78153  15.782   0.304  14.990
14430W        W78154   0.824   9.673  11.869
14431W        W78155  30.143  36.886   0.289
14432W        W78156  40.995  32.933   2.298
14433W        W78157  37.910  41.791  12.020
14434W        W78158  30.546  14.103   4.800
14435W        W78159   8.339   4.205  11.489
14436W        W78160   7.190  34.538  13.457
14437W        W78161  25.134  14.640  11.978
14438W        W78162  26.044  30.508  11.951
14439W        W78163  23.618  42.926   4.719
14440W        W78164  20.677   5.903  11.106
14441W        W78165  38.487   1.242   3.868
14442W        W78166  35.393  20.629   2.190
14443W        W78167   0.471  10.804  13.899
14444W        W78168  20.178  19.229   4.181
14445W        W78169  19.196  15.816   5.567
14446W        W78170  39.405   4.751  12.351
14447W        W78171   4.399   1.872  10.905
14448W        W78172  30.920   6.321   5.092
14449W        W78173  28.136  33.523  10.888
14450W        W78174   3.784  13.844  13.427
14451W        W78175   3.838  33.485  13.794
14452W        W78176  43.869  22.224   1.935
14453W        W78177  19.112  37.402  10.000
14454W        W78178  34.380   7.224  11.088
14455W        W78179   1.965   0.828  10.564
14456W        W78180  19.620  30.500   4.154
14457W        W78181  13.106  21.035  10.973
14458W        W78182  41.962  31.997  10.998
14459W        W78183  21.158  10.806  12.997
14460W        W78184  43.910  23.109   3.709
14461W        W78185  29.048  44.784  11.415
14462W        W78186  11.677   9.689  14.911
14463W        W78187  24.544  32.030   4.284
14464W        W78188  23.021  34.936  10.583
14465W        W78189  35.529  38.507   3.310
14466W        W78190   2.383   4.441   3.156
14467W        W78191  21.553  43.883   2.378
14468W        W78192  13.266  25.046  12.511
14469W        W78193  14.800  39.496   4.267
14470W        W78194  15.088  43.273   4.126
14471W        W78195   2.434  16.163   0.311
14472W        W78196  31.464  44.493   4.703
14473W        W78197  42.284   6.265  13.821
14474W        W78198  19.772   2.805   1.788
14475W        W78199  38.000  22.076  12.020
14476W        W78200   2.355  43.329   2.397
14477W        W78201  31.456  33.913   2.218
14478W        W78202  41.476  26.987   4.646
14479W        W78203  36.941  26.174  12.010
14480W        W78204  42.399  34.885   9.922
14481W        W78205  24.696  34.610   2.226
14482W        W78206  16.766  17.107   4.303
14483W        W78207   1.413  32.057  12.405
14484W        W78208   3.303  40.808  11.395
14485W        W78209  28.140  42.433   4.695
14486W        W78210  14.828   7.319  13.967
14487W        W78211   1.974  39.430  11.374
14488W        W78212  39.913  42.927  10.930
14489W        W78213  20.135  20.103   4.660
14490W        W78214  33.544   6.392  12.915
14491W        W78215  42.855  20.734  12.045
14492W        W78216   1.748  44.804   2.852
14493W        W78217  19.160   2.769  11.964
14494W        W78218   0.355  44.840   3.353
14495W        W78219   6.901   5.193  14.473
14496W        W78220  25.649  17.063  11.961
14497W        W78221  14.737  19.081   3.258
14498W        W78222  17.085  13.263  12.084
14499W        W78223  30.079  35.910   2.769
14500W        W78224  20.705  33.034   3.238
14501W        W78225   4.902   5.753  11.034
14502W        W78226  40.904  13.297   2.195
14503W        W78227   7.877  26.104   1.415
14504W        W78228   7.866  43.812  13.473
14505W        W78229  22.604  40.027   0.463
14506W        W78230   3.428  32.488   1.396
14507W        W78231  22.220  24.642  13.003
14508W        W78232   6.899  39.048   4.317
14509W        W78233  29.507   1.884  10.929
14510W        W78234  26.496  25.514   1.316
14511W        W78235  38.874  17.607   0.408
14512W        W78236  25.184  28.062   0.468
14513W        W78237  13.768  40.538   1.344
14514W        W78238  31.077  22.223   0.313
14515W        W78239  20.743  10.357   2.736
14516W        W78240  27.448   1.401   0.394
14517W        W78241  21.715   6.259   0.302
14518W        W78242  42.904  29.562   2.358
14519W        W78243  34.101  26.092  12.044
14520W        W78244  20.697  10.370  12.476
14521W        W78245   2.265  24.003   1.384
14522W        W78246  44.002  40.854  10.961
14523W        W78247   3.397  33.987   3.771
14524W        W78248  28.552   0.317   1.879
14525W        W78249   5.355  30.457  12.058
14526W        W78250  42.383  17.610   0.424
14527W        W78251   6.310   2.751  13.035
14528W        W78252  30.035  24.988   4.286
14529W        W78253  21.618  15.718   2.397
14530W        W78254  35.083  13.347   2.237
14531W        W78255   5.778  34.886   1.841
14532W        W78256  25.475  23.531  11.885
14533W        W78257  33.903  18.239   2.793
14534W        W78258  34.938  24.215  11.599
14535W        W78259  29.947  14.682  13.510
14536W        W78260  31.520  26.573  12.510
14537W        W78261  36.443  34.966   2.736
14538W        W78262  21.120  22.688   2.894
14539W        W78263  10.711   9.394   4.199
14540W        W78264  36.507  14.687   3.276
14541W        W78265  17.137   5.690   2.869
14542W        W78266  12.333  34.006  10.901
14543W        W78267  30.150  43.471  12.965
14544W        W78268  31.912  40.926   1.322
14545W        W78269   8.174  23.534  14.846
14546W        W78270  39.383   5.897   4.345
14547W        W78271   9.803  41.498   1.399
14548W        W78272  31.935   0.851  12.874
14549W        W78273  20.056   1.271  13.451
14550W        W78274   6.880   4.259   1.342
14551W        W78275   2.907  16.283   3.257
14552W        W78276  18.266  24.065   2.851
14553W        W78277   8.184  25.210  12.518
14554W        W78278  20.078   8.892  14.922
14555W        W78279  13.238  43.775   4.700
14556W        W78280   8.728  41.386  12.041
14557W        W78281  11.225  38.513  14.028
14558W        W78282  36.566  12.274  14.809
14559W        W78283  23.580  13.310   4.832
14560W        W78284  39.058  31.005  10.566
14561W        W78285   4.823   0.871  14.844
14562W        W78286   3.267  31.067   2.371
14563W        W78287  27.074  26.570   0.438
14564W        W78288  24.528  40.020  14.287
14565W        W78289  27.512  31.570   3.282
14566W        W78290   2.451  26.132   4.786
14567W        W78291  21.183  22.662   1.257
14568W        W78292   4.267  37.450  13.931
14569W        W78293  14.165  36.049  12.869
14570W        W78294  19.728  24.144   0.761
14571W        W78295  37.579   1.310  14.312
14572W        W78296  31.975  30.619  10.078
14573W        W78297  35.509  31.141   1.248
14574W        W78298  28.985   0.747  14.995
14575W        W78299  32.893  18.638  14.307
14576W        W78300  23.129  17.231  10.642
14577W        W78301   2.441  32.569   4.699
14578W        W78302  29.940  27.111   2.692
14579W        W78303  23.733  37.956   2.890
14580W        W78304  43.831  38.476  13.463
14581W        W78305  31.576  29.589  11.477
14582W        W78306   9.334  23.176   0.932
14583W        W78307  26.679  21.719  14.846
14584W        W78308  41.473  10.812   2.799
14585W        W78309  14.138   8.871   4.617
14586W        W78310   1.277   4.205  14.307
14587W        W78311  36.378  16.773   3.762
14588W        W78312  25.215  31.585  13.940
14589W        W78313  33.395   7.310  11.494
14590W        W78314   7.383   8.232   2.251
14591W        W78315  37.935  11.800   1.439
14592W        W78316  32.463  35.490   1.840
14593W        W78317  30.920   5.228   4.704
14594W        W78318  27.044  30.113  10.625
14595W        W78319  23.092   2.368   0.902
14596W        W78320  25.617  34.379  12.532
14597W        W78321  35.961   5.902  14.932
14598W        W78322  18.656  31.521  14.405
14599W        W78323  11.748  14.312  12.839
14600W        W78324   2.355   1.369  10.544
14601W        W78325  38.454  10.167  12.942
14602W        W78326  10.680  18.705   2.206
14603W        W78327  18.112  42.300   2.853
14604W        W78328  44.317   4.735   4.259
14605W        W78329  12.784   3.805  13.529
14606W        W78330  14.722  40.318  14.315
14607W        W78331  19.069  12.146  11.463
14608W        W78332  27.642  22.043  13.349
14609W        W78333  18.597   0.924  10.440
14610W        W78334  38.832  36.059   3.262
14611W        W78335  19.689  25.198   2.345
14612W        W78336   6.818  32.412   0.843
14613W        W78337   2.816  16.728  14.020
14614W        W78338  43.798  37.559  14.978
14615W        W78339  10.633  16.184  13.353
14616W        W78340  20.669   9.268   3.355
14617W        W78341  12.789   9.182  13.973
14618W        W78342  27.178   4.873  14.941
14619W        W78343  28.034   0.451  13.046
14620W        W78344  30.984  17.721   2.699
14621W        W78345  22.158  38.973   4.665
14622W        W78346  29.512  18.209  14.367
14623W        W78347  31.967  32.092  10.131
14624W        W78348  24.071  16.074  14.352
14625W        W78349   9.256   8.293   3.273
14626W        W78350   7.303   1.272   0.281
14627W        W78351  14.161   9.314  14.993
14628W        W78352  26.492   8.340   0.479
14629W        W78353   6.188  39.977   4.117
14630W        W78354  22.179  21.674   4.354
14631W        W78355   1.323   1.799  14.420
14632W        W78356  11.684  31.510   0.372
14633W        W78357  19.086  14.278   3.711
14634W        W78358  21.249   7.734  14.976
14635W        W78359  12.296  38.422   2.663
14636W        W78360  39.351  33.468   1.907
14637W        W78361  41.974  30.524  12.367
14638W        W78362  12.698  32.453   3.813
14639W        W78363   6.374   7.870   1.933
14640W        W78364  22.557  42.508  14.982
14641W        W78365  11.171   7.874   1.882
14642W        W78366  21.737  24.973   3.317
14643W        W78367  44.984  20.218  11.923
14644W        W78368  25.696  36.955   0.963
14645W        W78369   0.890  13.345   3.712
14646W        W78370  17.220  20.160  14.461
14647W        W78371   8.738  21.601  11.900
14648W        W78372  25.982  30.513  14.435
14649W        W78373  38.436  38.863   2.230
14650W        W78374   1.285  24.130   3.840
14651W        W78375  22.057  35.065   0.390
14652W        W78376  18.190  30.633  10.606
14653W        W78377   2.409  28.549   1.866
14654W        W78378  38.460  16.242  14.858
14655W        W78379  43.414   4.788   0.301
14656W        W78380  12.215   7.753   4.245
14657W        W78381  18.775  30.505  11.077
14658W        W78382  21.087  16.102   4.836
14659W        W78383  37.990   4.746  11.539
14660W        W78384   2.250  41.362  14.882
14661W        W78385  41.366   5.361   2.404
14662W        W78386  14.765  26.582   2.686
14663W        W78387  15.666  33.022  14.459
14664W        W78388  12.344  26.608  11.919
14665W        W78389  34.572  36.465   4.781
14666W        W78390  32.962   7.254  12.039
14667W        W78391  28.138  28.576  10.452
14668W        W78392  35.387  27.181  11.417
14669W        W78393   6.777   8.277  13.040
14670W        W78394  23.005   5.374  10.513
14671W        W78395  39.972   0.795   1.326
14672W        W78396  44.937  33.075  14.502
14673W        W78397  31.601   0.274  12.929
14674W        W78398   1.392  43.768  12.963
14675W        W78399  29.425  29.603  13.449
14676W        W78400  12.678  37.538  13.004
14677W        W78401  36.860   4.857  11.874
14678W        W78402  22.131   2.821  14.952
14679W        W78403  19.557  34.103  13.373
14680W        W78404  35.426  21.536  12.069
14681W        W78405  15.113   9.302  14.918
14682W        W78406  34.456  17.557   4.267
14683W        W78407  33.397  32.617  11.954
14684W        W78408   6.840  21.181   2.722
14685W        W78409  25.551  10.775   4.288
14686W        W78410   1.257  43.953   3.631
14687W        W78411  10.375  40.991   5.084
14688W        W78412  39.538  12.828  12.854
14689W        W78413   8.893   0.297  13.976
14690W        W78414   5.363  22.681   4.166
14691W        W78415  10.250   5.363  14.341
14692W        W78416  38.013   8.764  10.444
14693W        W78417  11.141  42.830   5.261
14694W        W78418  43.456  33.484   3.754
14695W        W78419  24.532  37.523   1.274
14696W        W78420  19.572  14.197   1.911
14697W        W78421  36.887  17.724  12.054
14698W        W78422  41.041   8.702  10.915
14699W        W78423  10.859  23.224   3.849
14700W        W78424  20.570  43.797  11.407
14701W        W78425  34.372  41.958   0.369
14702W        W78426  30.077  19.261   4.676
14703W        W78427  40.013  28.971   3.786
14704W        W78428  37.844  10.320  13.435
14705W        W78429  28.654  31.437  12.039
14706W        W78430  14.199   5.256  11.469
14707W        W78431  36.556  37.397  12.394
14708W        W78432  25.493   0.858  11.027
14709W        W78433  20.074  29.506  11.012
14710W        W78434  12.163  43.851   0.780
14711W        W78435  25.471  40.471  10.926
14712W        W78436  19.777  27.458   4.611
14713W        W78437   8.788   3.420  12.984
14714W        W78438  11.653  17.735  11.041
14715W        W78439   0.263  30.420   1.324
14716W        W78440  12.318  44.323  12.382
14717W        W78441  19.209  38.530  13.465
14718W        W78442  11.865  36.396   1.867
14719W        W78443  27.175  11.227   2.285
14720W        W78444  10.876   0.270  14.390
14721W        W78445  24.211  24.030   0.852
14722W        W78446  39.865  43.771   4.825
14723W        W78447   0.761  44.467  12.000
14724W        W78448  27.676   7.241   0.297
14725W        W78449  30.614  18.589  10.441
14726W        W78450  43.306  13.281   2.805
14727W        W78451  43.356  38.494  13.312
14728W        W78452  12.252  20.724   2.211
14729W        W78453  41.346  28.636   0.886
14730W        W78454  28.636   9.866   9.498
14731W        W78455  26.140  28.457   3.147
14732W        W78456  24.619   7.842   0.964
14733W        W78457   3.811  28.626  13.964
14734W        W78458   2.351  29.505   1.761
14735W        W78459   0.425  40.439   1.841
14736W        W78460  40.957   8.257   0.833
14737W        W78461  21.668  26.099   0.947
14738W        W78462  29.036   9.820  13.035
14739W        W78463  41.415  44.468  13.309
14740W        W78464  43.907   3.265  10.432
14741W        W78465  32.510   9.153  10.564
14742W        W78466  23.123  37.581   1.747
14743W        W78467   7.900  42.432  12.919
14744W        W78468  15.721  17.563   1.915
14745W        W78469  27.645  25.617  10.971
14746W        W78470  43.472  26.625   2.869
14747W        W78471  40.411  10.697   1.367
14748W        W78472  23.228  15.307  13.506
14749W        W78473  36.366  35.601   2.224
14750W        W78474  30.456  42.895  12.357
14751W        W78475  37.838   4.236  11.997
14752W        W78476  12.788  15.100  14.773
14753W        W78477   8.859  21.596  14.896
14754W        W78478  28.621  24.987  10.432
14755W        W78479  25.099  43.333  10.621
14756W        W78480  32.990  33.032  11.022
14757W        W78481  12.309  11.693   3.149
14758W        W78482  41.897  22.519   3.263
14759W        W78483  39.999  31.480  10.982
14760W        W78484  17.758  30.040   3.717
14761W        W78485  43.895  25.201  10.005
14762W        W78486  15.776  40.479  14.326
14763W        W78487  24.619   0.870  12.558
14764W        W78488  14.153  12.308   2.898
14765W        W78489  43.373  11.727  11.995
14766W        W78490  17.228  32.430  12.880
14767W        W78491   3.781  20.240   0.412
14768W        W78492  44.424  20.551  11.970
14769W        W78493   8.747   1.844   2.743
14770W        W78494  22.059  37.876  14.353
14771W        W78495   8.718   9.720   0.828
14772W        W78496  25.637  34.084   0.834
14773W        W78497   3.731  17.594   1.298
14774W        W78498  16.737  32.018   0.364
14775W        W78499  33.436  10.182  14.008
14776W        W78500   7.855   9.267   4.622
14777W        W78501  21.530  11.276   2.369
14778W        W78502  31.641   3.456  13.843
14779W        W78503  26.985  28.638   9.463
14780W        W78504  19.545  32.026  13.507
14781W        W78505   5.843  40.973  12.837
14782W        W78506  40.911   0.313   4.728
14783W        W78507  20.132  39.518   2.402
14784W        W78508  41.515  21.622   9.591
14785W        W78509  16.236  32.902   2.856
14786W        W78510  40.381  33.010  11.561
14787W        W78511  41.942  22.069   5.255
14788W        W78512  24.559  40.361  11.048
14789W        W78513   7.816  22.581   2.893
14790W        W78514  29.427  10.187  13.935
14791W        W78515  42.418   9.283  12.453
14792W        W78516  29.537  19.259  14.771
14793W        W78517  31.130   6.188   2.271
14794W        W78518  32.441  26.541   2.818
14795W        W78519  18.604  35.042  14.835
14796W        W78520  28.967  31.958  10.499
14797W        W78521   6.788  25.572  12.030
14798W        W78522  28.937  21.737   4.127
14799W        W78523   1.280  34.464  11.940
14800W        W78524  22.106  21.173   4.753
14801W        W78525  12.670  31.537  14.767
14802W        W78526  43.452  23.021   2.264
14803W        W78527  14.831  27.049   0.774
14804W        W78528  26.569  18.231  12.536
14805W        W78529   7.833  17.098  11.387
14806W        W78530   7.839  21.154  13.944
14807W        W78531  13.233  36.403   1.934
14808W        W78532  43.290   1.961   4.353
14809W        W78533  44.354  40.363  14.424
14810W        W78534   2.394  36.391  12.013
14811W        W78535  22.525  31.557  10.897
14812W        W78536   5.339   3.909   4.681
14813W        W78537  19.625  14.781  10.942
14814W        W78538   5.206  24.576  13.425
14815W        W78539  36.368  18.635   4.207
14816W        W78540  42.442   5.319  12.447
14817W        W78541  40.345  44.332  14.799
14818W        W78542   2.815  44.897   4.159
14819W        W78543  44.451  41.435   1.807
14820W        W78544  35.380  12.276   4.299
14821W        W78545  13.744  13.147   1.369
14822W        W78546  18.105  33.478  10.610
14823W        W78547  42.951   9.844   4.294
14824W        W78548   3.387  40.838   0.856
14825W        W78549  25.532  22.034   4.305
14826W        W78550  43.441   5.368  14.765
14827W        W78551  29.147   4.784   4.339
14828W        W78552  25.074  29.526  12.055
14829W        W78553  20.563  41.930   2.403
14830W        W78554  43.481  17.559   2.664
14831W        W78555  37.542   2.893   3.801
14832W        W78556  10.786  18.633   3.148
14833W        W78557  44.996  10.636   2.836
14834W        W78558   9.385  44.915  13.061
14835W        W78559   8.253   4.261  10.922
14836W        W78560  31.593   5.196  10.529
14837W        W78561   9.175  14.157   0.876
14838W        W78562  12.745  44.333  12.417
14839W        W78563   4.446  32.625  11.531
14840W        W78564   3.327  44.944   3.683
14841W        W78565   2.405  17.287   4.121
14842W        W78566  39.460  10.193   3.673
14843W        W78567  38.328  38.023   4.762
14844W        W78568   2.942  28.471   2.787
14845W        W78569   6.378  27.060  14.284
14846W        W78570  19.103   8.820  12.890
14847W        W78571  28.566  13.823   0.777
14848W        W78572  19.594  28.572   1.367
14849W        W78573  32.890  16.604  10.559
14850W        W78574  15.791  28.007   3.319
14851W        W78575  19.552  34.415   0.380
14852W        W78576   8.375  32.081  14.774
14853W        W78577   5.857   4.713  11.982
14854W        W78578  27.098   0.405   0.881
14855W        W78579   1.441  13.350  12.543
14856W        W78580   0.396  10.196  14.477
14857W        W78581  36.994  43.776  13.931
14858W        W78582  39.477  41.016  10.419
14859W        W78583  13.305  21.678   1.306
14860W        W78584  29.154  16.711   2.709
14861W        W78585  29.134  20.662   1.359
14862W        W78586  16.737  10.364  10.548
14863W        W78587   7.180  27.677   0.400
14864W        W78588  32.474  13.784   2.795
14865W        W78589  18.730  27.589  14.432
14866W        W78590  44.334  20.216   2.298
14867W        W78591  39.436  11.371  10.446
14868W        W78592  18.624  12.741   2.390
14869W        W78593   6.313  22.624   3.208
14870W        W78594  39.981  12.159   4.624
14871W        W78595  21.516  28.629   2.385
14872W        W78596  17.100   4.369  10.937
14873W        W78597  26.074  23.709  11.933
14874W        W78598  43.448  16.614  13.319
14875W        W78599  12.818  16.225  11.578
14876W        W78600   2.815  11.308   4.832
14877W        W78601  39.877  40.488   2.838
14878W        W78602  28.130   9.310  13.889
14879W        W78603  18.220  42.950  11.085
14880W        W78604  13.669  18.763  12.983
14881W        W78605  15.657  33.008  10.009
14882W        W78606  33.438  23.586   9.947
14883W        W78607   4.906  27.645  14.306
14884W        W78608   3.937  35.948   4.296
14885W        W78609  44.783  34.541   1.775
14886W        W78610  25.161  40.536  13.527
14887W        W78611   8.267  36.591   3.841
14888W        W78612  25.586  17.223   0.755
14889W        W78613  24.050   1.787  11.119
14890W        W78614  37.540  42.002   4.132
14891W        W78615   9.231  29.647   2.773
14892W        W78616   2.965  44.829   1.442
14893W        W78617  41.383   4.373   4.754
14894W        W78618  11.658  13.137   0.479
14895W        W78619  28.999  10.671   1.807
14896W        W78620  27.194  35.442   3.869
14897W        W78621   5.423  14.109  12.974
14898W        W78622  36.432  43.301  10.918
14899W        W78623  37.530   3.744   3.347
14900W        W78624  39.545  17.114   0.785
14901W        W78625  21.714  42.968  11.384
14902W        W78626  14.114  27.148   3.205
14903W        W78627  34.920  16.797  14.874
14904W        W78628  14.192  11.213  13.881
14905W        W78629  16.589  20.186   1.388
14906W        W78630  21.558   3.718  13.495
14907W        W78631   7.900  41.334   2.777
14908W        W78632  26.634   5.748  11.393
14909W        W78633  13.795   6.714  11.083
14910W        W78634  32.964  42.981  13.335
14911W        W78635  11.196  30.581  13.388
14912W        W78636  27.069  43.324  12.952
14913W        W78637  35.880  19.212  13.410
14914W        W78638  18.699   8.699   3.639
14915W        W78639   7.840   4.225  14.824
14916W        W78640  17.726  11.240   1.290
14917W        W78641  25.997  33.469   2.398
14918W        W78642  34.497  42.967  10.937
14919W        W78643  31.575  28.112   0.469
14920W        W78644   1.928  24.069  11.595
14921W        W78645  15.191  16.228   1.874
14922W        W78646  33.918  38.329  10.448
14923W        W78647  10.875  15.593   2.220
14924W        W78648   1.754  15.601  11.898
14925W        W78649  21.524  22.718   2.765
14926W        W78650  43.359  39.056  12.064
14927W        W78651  32.461   1.279  10.468
14928W        W78652  10.297   0.364  12.517
14929W        W78653  44.841  18.580  12.960
14930W        W78654   1.901  26.618  12.882
14931W        W78655  13.610  35.000  13.360
14932W        W78656  30.414  43.965   0.449
14933W        W78657  20.272  34.512   4.826
14934W        W78658  19.682  21.642  14.001
14935W        W78659  19.129  12.755  14.480
14936W        W78660   8.338  28.550  13.833
14937W        W78661  35.413  19.082  14.276
14938W        W78662  28.546  31.591   4.748
14939W        W78663   8.339  11.149  11.965
14940W        W78664  41.368  38.358  14.994
14941W        W78665  16.287  25.171   5.168
14942W        W78666  38.535  18.760  11.107
14943W        W78667   6.302   0.976   2.197
14944W        W78668   2.384  35.366  14.453
14945W        W78669  42.781  12.704   0.424
14946W        W78670  35.444   6.202   0.431
14947W        W78671  12.834  40.861  11.612
14948W        W78672   9.777   9.870   0.400
14949W        W78673  21.092  14.164  11.001
14950W        W78674  19.047  35.877  13.419
14951W        W78675  25.102   0.423  11.070
14952W        W78676  22.562   1.369   0.819
14953W        W78677  26.623  42.427   0.820
14954W        W78678  24.596  28.680  13.930
14955W        W78679   9.805  42.959  11.948
14956W        W78680  28.473  40.800   4.264
14957W        W78681  17.118  37.464   4.144
14958W        W78682   4.282   4.790  12.863
14959W        W78683  33.983  16.772  11.002
14960W        W78684   7.179  14.777   3.844
14961W        W78685  25.605   0.322  14.849
14962W        W78686  21.033   0.289   3.216
14963W        W78687  37.985  29.981   3.358
14964W        W78688  20.572  34.376   2.343
14965W        W78689  27.657  29.942   4.180
14966W        W78690  38.848  21.230  12.841
14967W        W78691  29.522  28.168  13.511
14968W        W78692  18.242  32.124   4.677
14969W        W78693  10.650  25.512  13.342
14970W        W78694   6.278  18.609  12.572
14971W        W78695   0.755  14.213   3.776
14972W        W78696  22.069  20.265  13.530
14973W        W78697   5.404   7.865   2.671
14974W        W78698  27.689  26.546  12.072
14975W        W78699  13.140  19.755   5.264
14976W        W78700  21.056  27.954  11.467
14977W        W78701   3.879   3.269   3.152
14978W        W78702  44.863  23.573   3.198
14979W        W78703   4.857  27.949  13.471
14980W        W78704  12.666  27.048   4.713
14981W        W78705  25.196   0.417  11.862
14982W        W78706  33.879  31.443  14.510
14983W        W78707  26.480  10.798   2.841
14984W        W78708  28.444  22.080   2.194
14985W        W78709  14.261   5.349  10.936
14986W        W78710  43.441  43.320  12.012
14987W        W78711  12.635  13.134   1.803
14988W        W78712   1.839  24.702   0.433
14989W        W78713   0.382  21.600  10.468
14990W        W78714   9.835  21.529  10.608
14991W        W78715  28.966   4.816  12.366
14992W        W78716  18.126  22.659  13.370
14993W        W78717  32.972  44.390  14.922
14994W        W78718  29.622  32.472   4.232
14995W        W78719   9.760   2.776  11.083
14996W        W78720  19.195  16.177  11.578
14997W        W78721  39.471   2.295  12.927
14998W        W78722  43.350  23.735   5.577
14999W        W78723  32.445   3.298  12.835
15000W        W78724  24.614  42.925   0.294
15001W        W78725  26.588   7.273   9.984
15002W        W78726  36.033  18.547   4.162
15003W        W78727   7.242  42.902  10.893
15004W        W78728  13.305  24.980   1.921
15005W        W78729  18.283  21.723  14.770
15006W        W78730  11.684  34.056   3.151
15007W        W78731   1.881   7.388   4.281
15008W        W78732  20.573  44.958  13.527
15009W        W78733  32.960   0.394   4.165
15010W        W78734  12.713  22.671   0.752
15011W        W78735  15.800   5.334   3.789
15012W        W78736   0.832  18.276   0.280
15013W        W78737  32.894  29.151  11.121
15014W        W78738  18.637  21.695  10.583
15015W        W78739  19.159  38.333  12.868
15016W        W78740  38.410   1.424  13.791
15017W        W78741  38.357  31.008  12.905
15018W        W78742   8.166   3.856  12.986
15019W        W78743  24.107  27.184  14.302
15020W        W78744  36.843  32.502  13.830
15021W        W78745  15.092   0.289   4.672
15022W        W78746  25.040   0.744   1.320
15023W        W78747   9.217  28.972  10.909
15024W        W78748  38.371  23.585   1.448
15025W        W78749   7.842  14.147  12.547
15026W        W78750  21.238  31.563  12.041
15027W        W78751  39.417  34.443  10.962
15028W        W78752  35.529  32.103  10.498
15029W        W78753  15.298  11.296  14.394
15030W        W78754  14.211   9.643  12.446
15031W        W78755  40.417   9.292  14.410
15032W        W78756   7.822  32.061   1.801
15033W        W78757  28.960  42.818   2.228
15034W        W78758  38.403  36.463   3.639
15035W        W78759  22.563   6.384   2.870
15036W        W78760  37.341  41.021  13.958
15037W        W78761  32.103  35.861  13.016
15038W        W78762  33.005  27.052  11.996
15039W        W78763   7.762  31.416  11.109
15040W        W78764  43.772  23.127   3.212
15041W        W78765  11.808  11.695   5.213
15042W        W78766   9.713  41.450  13.334
15043W        W78767  39.823  40.471  13.411
15044W        W78768  24.017  43.895  13.927
15045W        W78769   4.285  30.113   1.709
15046W        W78770  39.828  37.888  11.524
15047W        W78771   8.829  38.952   0.368
15048W        W78772  32.528   4.867  13.352
15049W        W78773  20.063  21.725   2.309
15050W        W78774   0.757  11.696  13.863
15051W        W78775  14.201   0.917  13.985
15052W        W78776  19.670  13.666   4.656
15053W        W78777  43.290  42.860   2.812
15054W        W78778  42.399  33.044   3.295
15055W        W78779  19.570  42.442  12.346
15056W        W78780  41.301  33.932  13.928
15057W        W78781  36.852  12.184   4.653
15058W        W78782  34.375  37.036  14.422
15059W        W78783  35.380  24.595  11.039
15060W        W78784  13.662  14.231   3.682
15061W        W78785  18.790   4.251  12.476
15062W        W78786  44.281  34.958  10.966
15063W        W78787  42.922  19.717  11.570
15064W        W78788  41.413   9.264  11.948
15065W        W78789  43.463  27.491   1.859
15066W        W78790  31.634  38.545   0.967
15067W        W78791  20.199   4.364  13.944
15068W        W78792  18.248  42.422  10.965
15069W        W78793  31.960   3.830   2.409
15070W        W78794  42.404   2.345  10.610
15071W        W78795   6.211  17.207   5.146
15072W        W78796   4.930  33.499  10.629
15073W        W78797   8.814  17.148  13.374
15074W        W78798  39.823  15.266   4.285
15075W        W78799  36.982  25.527   0.397
15076W        W78800   8.284   3.712   4.123
15077W        W78801   4.713  15.244  13.908
15078W        W78802  14.811   6.773  12.522
15079W        W78803  32.947  13.287   1.791
15080W        W78804   7.352   5.339  10.557
15081W        W78805  34.014  20.664   1.807
15082W        W78806   5.379   9.298  11.885
15083W        W78807   0.793  29.078   2.888
15084W        W78808  21.596  40.303  11.864
15085W        W78809  39.058  30.999  14.956
15086W        W78810  43.281  16.576  14.842
15087W        W78811  16.150  27.959   3.764
15088W        W78812  10.199  14.105   2.230
15089W        W78813  16.169   1.846   0.411
15090W        W78814  40.317  17.704  14.377
15091W        W78815  21.227   5.433  11.406
15092W        W78816  17.130  39.971  12.064
15093W        W78817   0.329  35.474   0.879
15094W        W78818   4.839  42.512  11.896
15095W        W78819  43.849  37.979  13.872
15096W        W78820  23.005   5.742  14.968
15097W        W78821  29.927  31.025   1.448
15098W        W78822  44.944  33.944   3.182
15099W        W78823  10.329  31.981   4.193
15100W        W78824  24.060  42.855   2.336
15101W        W78825  15.812   8.253  12.442
15102W        W78826   0.375  18.708   0.328
15103W        W78827  21.563   8.230  14.399
15104W        W78828  32.097   0.750   4.347
15105W        W78829  13.609  16.612  11.543
15106W        W78830   3.386  18.651   0.473
15107W        W78831  10.728  40.942   3.229
15108W        W78832  26.625  39.031   4.310
15109W        W78833  39.920   2.295  14.995
15110W        W78834   0.769  31.538  14.349
15111W        W78835  28.930  21.532  13.330
15112W        W78836   8.759  26.085  10.914
15113W        W78837   4.268  36.444   4.747
15114W        W78838  44.930  28.536  13.445
15115W        W78839   2.857   5.754   2.389
15116W        W78840  23.642  43.370   1.751
15117W        W78841  12.678  18.191  14.765
15118W        W78842   8.220  14.742   0.483
15119W        W78843  20.677  42.470  12.565
15120W        W78844  20.195  23.158   4.831
15121W        W78845   2.393  29.925   4.618
15122W        W78846  28.669  31.484  13.916
15123W        W78847  18.267  18.776  14.447
15124W        W78848  30.610  17.107   4.821
15125W        W78849  30.524  28.439  11.017
15126W        W78850   3.262  39.022   2.890
15127W        W78851  15.169  15.299   4.775
15128W        W78852  35.012   3.931   1.405
15129W        W78853  11.309  13.653   1.379
15130W        W78854   3.939  37.357  12.866
15131W        W78855  41.489  22.092   5.282
15132W        W78856  11.747  21.034   2.726
15133W        W78857  42.890  20.264   2.179
15134W        W78858  43.448   9.320   0.254
15135W        W78859  24.100  38.839   1.387
15136W        W78860  26.993  34.968  11.403
15137W        W78861  16.316  37.974   0.251
15138W        W78862   3.892   2.269   2.666
15139W        W78863  10.647  37.034  11.483
15140W        W78864  23.503  37.029   4.729
15141W        W78865  16.163  14.153   1.787
15142W        W78866   3.745  27.975   4.599
15143W        W78867  24.155  13.182   4.830
15144W        W78868   1.333  28.512  10.587
15145W        W78869  16.634  13.835  13.977
15146W        W78870  18.585   8.382   0.884
15147W        W78871   9.709  26.702  14.290
15148W        W78872   7.764   0.311  12.973
15149W        W78873  35.888  15.800   0.292
15150W        W78874  29.424  18.110   4.741
15151W        W78875  26.523  33.574   0.327
15152W        W78876  41.351  37.521   4.157
15153W        W78877   9.224  10.834   2.205
15154W        W78878   9.214  22.746   3.799
15155W        W78879  42.363  21.222   1.728
15156W        W78880  28.443  44.453   1.366
15157W        W78881  12.221  21.673  13.474
15158W        W78882  30.565  28.969   4.644
15159W        W78883  22.040  35.589  14.891
15160W        W78884  35.050  11.855  10.981
15161W        W78885  17.798   4.304   2.680
15162W        W78886  18.286   0.870   1.243
15163W        W78887  26.556  15.748   2.339
15164W        W78888  36.008   8.321   1.239
15165W        W78889  37.553  10.172  10.117
15166W        W78890  22.252  19.154  13.874
15167W        W78891   7.376  44.296  11.384
15168W        W78892  29.471  21.565  13.810
15169W        W78893  19.750  37.394   3.274
15170W        W78894  11.717   3.428   2.828
15171W        W78895  32.135  15.116  14.010
15172W        W78896  31.002   2.238   1.358
15173W        W78897  30.612   7.746   2.270
15174W        W78898  35.418   9.702   4.233
15175W        W78899  41.956   4.373  13.498
15176W        W78900  22.695   5.906  11.506
15177W        W78901  34.426  43.427  14.888
15178W        W78902  34.586  44.902  12.530
15179W        W78903  10.162  29.052   1.296
15180W        W78904  42.375   8.827  14.852
15181W        W78905  11.637  21.248   0.890
15182W        W78906  29.506  38.827  14.919
15183W        W78907  18.599  10.808  12.535
15184W        W78908  17.244   1.902   4.656
15185W        W78909  15.209   7.788   0.941
15186W        W78910   4.374  30.516   1.898
15187W        W78911   6.187   3.443  11.097
15188W        W78912  20.033  16.108   0.282
15189W        W78913  21.226  28.942   4.319
15190W        W78914   9.661   5.720  14.937
15191W        W78915   5.830  15.320   2.294
15192W        W78916  44.393   8.365   4.785
15193W        W78917  32.946  23.090   2.704
15194W        W78918  41.382  18.258   3.275
15195W        W78919  36.990  25.482   2.411
15196W        W78920  14.591  20.568  12.991
15197W        W78921   9.674  14.197   0.818
15198W        W78922  20.546  13.243   2.224
15199W        W78923  21.054  15.165   0.248
15200W        W78924  10.259  42.781   2.815
15201W        W78925  17.296  44.847   1.278
15202W        W78926  37.361   9.244   2.378
15203W        W78927  15.142  13.834   4.274
15204W        W78928  41.517  18.151  14.991
15205W        W78929  18.761  14.181  13.874
15206W        W78930  33.989   0.966  14.457
15207W        W78931  33.484  26.564   3.357
15208W        W78932   5.353  39.367  13.495
15209W        W78933  25.097  27.455   2.238
15210W        W78934  18.109  42.318   1.446
15211W        W78935  17.640  28.964   2.186
15212W        W78936  35.422   2.755  10.614
15213W        W78937  29.143  42.420   1.695
15214W        W78938  37.433  34.475   2.821
15215W        W78939  34.058  13.285   4.155
15216W        W78940   4.794  35.077   4.748
15217W        W78941   5.324   3.743  12.446
15218W        W78942  21.041  32.121   3.177
15219W        W78943   4.439  29.929  14.491
15220W        W78944  42.926   1.395  14.446
15221W        W78945  11.814  13.126   1.344
15222W        W78946  24.999   7.393  14.932
15223W        W78947  38.954  11.327   2.322
15224W        W78948  33.546  10.847  14.795
15225W        W78949  14.799  15.787   3.796
15226W        W78950  14.697   7.825  13.318
15227W        W78951   6.270   1.922  10.050
15228W        W78952  28.067  44.317   3.753
15229W        W78953   4.735   9.701  12.519
15230W        W78954  39.451  36.481   3.308
15231W        W78955  37.981   6.303  11.613
15232W        W78956  21.119  21.071   0.484
15233W        W78957  13.673  17.590   4.311
15234W        W78958  43.005  29.631  12.574
15235W        W78959  23.563   4.307   0.967
15236W        W78960  21.585  38.565  12.343
15237W        W78961  35.372   9.285  13.459
15238W        W78962  27.018  41.813   2.849
15239W        W78963  28.491  41.871  13.889
15240W        W78964  26.049   2.725   3.241
15241W        W78965  24.032  10.851  12.442
15242W        W78966  35.364   0.856  12.364
15243W        W78967   7.377  38.025  10.904
15244W        W78968  35.563  27.483   0.874
15245W        W78969  11.658   1.735  14.947
15246W        W78970  32.945   9.362   1.388
15247W        W78971  36.032  35.397   0.336
15248W        W78972  34.031  10.294  12.916
15249W        W78973  43.374   6.721   4.742
15250W        W78974  28.003  26.134  11.504
15251W        W78975  24.983  13.693  13.415
15252W        W78976   7.687  21.647  13.036
15253W        W78977  12.729  34.887  12.003
15254W        W78978  16.625   5.291  11.974
15255W        W78979  15.583   5.421  12.031
15256W        W78980   1.479   0.912   0.794
15257W        W78981   8.188  33.940   1.874
15258W        W78982   4.909  42.508  13.055
15259W        W78983  20.142  17.600   1.720
15260W        W78984   1.459  39.354  12.516
15261W        W78985   4.368  37.400   0.316
15262W        W78986  24.576  26.194   1.773
15263W        W78987  34.385  12.155  11.910
15264W        W78988  14.309  21.083  13.890
15265W        W78989  12.182  24.518  10.934
15266W        W78990  32.035  34.535   2.386
15267W        W78991  16.584   8.303   2.847
15268W        W78992  37.540  19.139   3.642
15269W        W78993   4.844  17.560  14.954
15270W        W78994   5.346  27.968   1.359
15271W        W78995  33.381   6.201   5.167
15272W        W78996  15.585  31.472   4.690
15273W        W78997  32.115  21.564  10.444
15274W        W78998  19.107   6.362   2.313
15275W        W78999  29.940   6.761  14.835
15276W        W79000   3.392  21.622   3.168
15277W        W79001  22.092   7.751   4.173
15278W        W79002   3.396   7.383   4.295
15279W        W79003  39.548  27.497   0.425
15280W        W79004  27.520  41.867   0.856
15281W        W79005   4.318   3.313  14.972
15282W        W79006   5.303  26.087  11.416
15283W        W79007  25.497  18.684   3.689
15284W        W79008  27.963   0.953   4.191
15285W        W79009  20.525  34.541  11.096
15286W        W79010  34.878  29.597   2.845
15287W        W79011   3.382  16.576  13.972
15288W        W79012  32.424  38.541  11.557
15289W        W79013  35.398  43.801   2.288
15290W        W79014   2.941  33.557   4.690
15291W        W79015  24.517   8.880   1.354
15292W        W79016   9.643  26.018  14.949
15293W        W79017  40.883  37.481   9.955
15294W        W79018  44.790  34.053  12.488
15295W        W79019   0.796  24.657  14.987
15296W        W79020  31.015   1.334   4.133
15297W        W79021  34.397  30.524   2.676
15298W        W79022   7.739   8.358  13.902
15299W        W79023  25.514  26.137  10.419
15300W        W79024   4.857  37.894  14.793
15301W        W79025   4.727  41.479   2.198
15302W        W79026   5.367  17.303   0.270
15303W        W79027  16.296  18.241   4.710
15304W        W79028   2.279  27.032   3.708
15305W        W79029   7.218   8.657  10.895
15306W        W79030  31.583  39.398   0.445
15307W        W79031   3.740  15.697   4.134
15308W        W79032   9.364  33.128  11.006
15309W        W79033   1.856  37.886   0.382
15310W        W79034  21.584  14.136   0.378
15311W        W79035  20.162  23.673  13.357
15312W        W79036  30.126  34.515  13.967
15313W        W79037  17.165  35.501  12.869
15314W        W79038   5.332  25.505   1.758
15315W        W79039  12.327   8.227  13.528
15316W        W79040   2.855  31.117  12.366
15317W        W79041  32.516  21.170   1.426
15318W        W79042  20.212  35.042  10.901
15319W        W79043   4.789   1.811  11.936
15320W        W79044  20.119   5.901   2.811
15321W        W79045  10.749  40.422   3.383
15322W        W79046  30.923  37.368  12.576
15323W        W79047  39.408   4.736  12.941
15324W        W79048  40.491   5.379   4.272
15325W        W79049  43.403   3.246  13.961
15326W        W79050  18.235  25.637  14.900
15327W        W79051  22.015   0.333  11.494
15328W        W79052  34.434   9.249  14.004
15329W        W79053   3.930   4.764   3.640
15330W        W79054  38.903  12.659  11.378
15331W        W79055   2.957  31.984  11.576
15332W        W79056  38.393  14.765  14.971
15333W        W79057  34.406  10.669   3.830
15334W        W79058  11.754  28.009  12.925
15335W        W79059  10.718  44.763   2.267
15336W        W79060  32.121   7.228  14.909
15337W        W79061  33.566  20.034  11.452
15338W        W79062  28.594  30.578   3.291
15339W        W79063  38.384  32.453   3.271
15340W        W79064  41.333  23.556   4.830
15341W        W79065  14.330  26.966  12.861
15342W        W79066  10.771   3.459   5.194
15343W        W79067  42.414   0.443   4.773
15344W        W79068  35.527  28.094  12.972
15345W        W79069  26.599  32.921   3.682
15346W        W79070   3.356  22.149  14.315
15347W        W79071  18.593   8.765  13.354
15348W        W79072   9.862  14.704  10.487
15349W        W79073  21.616  38.410   0.767
15350W        W79074   0.293  26.527  12.954
15351W        W79075  11.200  12.787   3.315
15352W        W79076   9.307  36.486   0.852
15353W        W79077  38.999  18.608   0.817
15354W        W79078  30.528  33.996   4.818
15355W        W79079  37.404  41.025  13.434
15356W        W79080  25.043   7.769   9.996
15357W        W79081  31.453  39.930  10.921
15358W        W79082  10.704  37.960   2.330
15359W        W79083  31.124  19.192  12.340
15360W        W79084  37.349   2.296  13.323
15361W        W79085   2.801   6.698  10.572
15362W        W79086   3.280  21.174  13.858
15363W        W79087  16.136  11.795   3.159
15364W        W79088   1.931  11.826   1.756
15365W        W79089   6.774  27.624  10.638
15366W        W79090  41.983   7.868  12.915
15367W        W79091  37.939  22.578  13.846
15368W        W79092  36.942  13.836   3.707
15369W        W79093  14.824  25.491  13.438
15370W        W79094  42.317  44.446   4.637
15371W        W79095  26.479  31.441   1.421
15372W        W79096  39.872  38.879   4.659
15373W        W79097   9.857  21.194   4.837
15374W        W79098  34.018  34.096   1.255
15375W        W79099  11.824   1.467   3.644
15376W        W79100   2.913  34.512  12.946
15377W        W79101  16.251  14.705  13.537
15378W        W79102  26.624  44.784   0.848
15379W        W79103  23.496  22.592  10.489
15380W        W79104  43.458  26.055   2.753
15381W        W79105  29.973  24.158   2.263
15382W        W79106   6.257  31.957   4.625
15383W        W79107  19.752   0.318  10.139
15384W        W79108  32.061  21.114   2.239
15385W        W79109  10.251  32.948   1.781
15386W        W79110  27.197  29.445  14.284
15387W        W79111  27.591   2.402   4.640
15388W        W79112  36.871   0.747   3.724
15389W        W79113  38.909  20.239   4.735
15390W        W79114  17.068  19.694   0.346
15391W        W79115  20.671  32.033   4.608
15392W        W79116  31.544  41.531  10.976
15393W        W79117   3.946  20.575   2.215
15394W        W79118   7.857  17.707  13.404
15395W        W79119  30.633  27.448  12.569
15396W        W79120  18.235   5.867   0.459
15397W        W79121  18.104  35.564   0.285
15398W        W79122  40.530  14.178   4.753
15399W        W79123  39.403  12.333  13.338
15400W        W79124  20.669  15.680   5.107
15401W        W79125  29.632  43.930   2.288
15402W        W79126  11.373  42.955  10.550
15403W        W79127  18.119   3.272  14.402
15404W        W79128  15.592  10.784   3.211
15405W        W79129  34.095  15.816   1.402
15406W        W79130  19.114  41.819  11.120
15407W        W79131   8.358   8.776   1.250
15408W        W79132  24.096  30.440  10.462
15409W        W79133  12.232  38.032   2.767
15410W        W79134  32.036  11.138  14.765
15411W        W79135  17.597  13.241  12.035
15412W        W79136  10.175  32.559   1.927
15413W        W79137  37.424   9.694  11.555
15414W        W79138  17.587  39.514  13.936
15415W        W79139   1.828  24.227  12.992
15416W        W79140  34.983   2.939  14.370
15417W        W79141  44.459  11.303  11.431
15418W        W79142  30.999  33.577  11.933
15419W        W79143  27.142  21.103  11.103
15420W        W79144  27.025  20.057  11.940
15421W        W79145  19.229  43.870   1.730
15422W        W79146  15.651  39.332  12.572
15423W        W79147  37.463  33.524  11.032
15424W        W79148   6.831  22.160   1.259
15425W        W79149  21.613   6.206  11.982
15426W        W79150  26.522  32.529  13.951
15427W        W79151  22.056  40.433   9.933
15428W        W79152  22.689   2.838   3.663
15429W        W79153  32.473  28.629   2.230
15430W        W79154  18.604  12.723   1.399
15431W        W79155   6.408  12.742   4.763
15432W        W79156  41.441  15.269  14.305
15433W        W79157  16.271  22.529  11.866
15434W        W79158  14.269  29.001   2.814
15435W        W79159   3.459  18.776  13.323
15436W        W79160  36.443  42.418   0.882
15437W        W79161  40.803  37.518  12.092
15438W        W79162  40.819   3.304  10.892
15439W        W79163  17.280  19.224   2.216
15440W        W79164  34.480  39.417  14.876
15441W        W79165  40.322  43.971  11.093
15442W        W79166  43.459  22.151  13.916
15443W        W79167  42.793  39.982   1.781
15444W        W79168  41.403  29.502   4.719
15445W        W79169  28.082  11.723  14.489
15446W        W79170  35.054  22.501  13.031
15447W        W79171  21.563  28.067  10.111
15448W        W79172  24.990   4.784  12.452
15449W        W79173  36.043  26.573  12.392
15450W        W79174  15.818  23.573  13.354
15451W        W79175   3.215  35.934  14.986
15452W        W79176   6.768  43.308  13.363
15453W        W79177  24.493  14.749   3.251
15454W        W79178  22.156  31.624  14.949
15455W        W79179  35.373  37.412   3.850
15456W        W79180  11.736  13.113   4.791
15457W        W79181  38.915  24.007  14.936
15458W        W79182  25.481  23.062  10.519
15459W        W79183   9.828  14.732  13.049
15460W        W79184  17.067  10.356  10.586
15461W        W79185  44.890   3.757   0.746
15462W        W79186  42.799  29.589   4.661
15463W        W79187  34.121  35.465   3.709
15464W        W79188  10.650  12.257  11.564
15465W        W79189   1.734  40.921  10.604
15466W        W79190  40.496  38.392  14.966
15467W        W79191   7.753  20.584   4.765
15468W        W79192   4.898  14.112  12.063
15469W        W79193   8.790  10.267   4.648
15470W        W79194  36.419   8.734  12.082
15471W        W79195  10.716  14.796  14.810
15472W        W79196  25.563  16.168  14.492
15473W        W79197  42.030   7.758  12.413
15474W        W79198  27.059  34.047   1.216
15475W        W79199  41.944  33.476   1.238
15476W        W79200  20.231  10.868  13.434
15477W        W79201  22.114  42.309   1.871
15478W        W79202  29.539  13.256  10.544
15479W        W79203  27.463   0.392  13.045
15480W        W79204  18.571  21.029  11.546
15481W        W79205   9.200  29.050  11.399
15482W        W79206  16.770  13.686  12.857
15483W        W79207  11.767  17.659  10.493
15484W        W79208  42.364  39.560   0.788
15485W        W79209   0.887   5.260   2.771
15486W        W79210   4.864  27.650  10.062
15487W        W79211   5.708  19.230  11.016
15488W        W79212   3.767  40.022  11.053
15489W        W79213  14.206  20.085   3.685
15490W        W79214  30.524   0.772  11.484
15491W        W79215  16.761   0.773  10.944
15492W        W79216  36.086  36.512   5.291
15493W        W79217   0.958  22.699  12.428
15494W        W79218   0.826  38.520  11.872
15495W        W79219  10.772  44.493   3.793
15496W        W79220   0.808  22.033   0.413
15497W        W79221  40.445  19.048   0.897
15498W        W79222  24.990  15.760   3.160
15499W        W79223  39.999  44.499   2.793
15500W        W79224  34.611   7.909  10.522
15501W        W79225  16.228  10.281  12.977
15502W        W79226  43.408  21.685  10.934
15503W        W79227  12.343  33.082  13.855
15504W        W79228  30.007  41.941   3.264
15505W        W79229   0.950  21.202   5.110
15506W        W79230  25.138  34.880  11.992
15507W        W79231  37.573  39.379  13.307
15508W        W79232  30.641  16.217   1.721
15509W        W79233  38.054  32.393   3.292
15510W        W79234   4.879   3.446   9.939
15511W        W79235  40.948  17.221  10.416
15512W        W79236  10.720  17.233   1.850
15513W        W79237  12.793   6.917  10.940
15514W        W79238   2.748  41.366  14.763
15515W        W79239  11.157  13.628  10.432
15516W        W79240  31.002  10.691   1.374
15517W        W79241   3.740   6.911  11.980
15518W        W79242  23.056  41.440  12.930
15519W        W79243  18.074  28.992   4.297
15520W        W79244  10.202  22.548   2.402
15521W        W79245  30.631   2.963  11.034
15522W        W79246   7.687  34.919  11.460
15523W        W79247   8.768  31.578  12.043
15524W        W79248  39.313   2.882   3.222
15525W        W79249  29.459  10.828   4.190
15526W        W79250   6.247  30.526   1.377
15527W        W79251  17.700  14.678   3.260
15528W        W79252  19.065  36.413  14.451
15529W        W79253  29.142  18.225  11.084
15530W        W79254   9.307  43.398   2.816
15531W        W79255   0.794  20.146   3.733
15532W        W79256  22.086  21.041  14.965
15533W        W79257  31.487  37.939   1.933
15534W        W79258  24.493   7.307  13.502
15535W        W79259  13.662  34.934  11.495
15536W        W79260  17.699  36.891   2.266
15537W        W79261  42.983   2.357   3.745
15538W        W79262  15.248  23.576  13.997
15539W        W79263  12.847  17.725   1.241
15540W        W79264   1.373  29.646   3.792
15541W        W79265  21.167  34.973   1.803
15542W        W79266   2.954  16.308  13.031
15543W        W79267  13.664   6.852   3.871
15544W        W79268  38.346   9.803  10.448
15545W        W79269  36.029   8.162   3.843
15546W        W79270  25.628  41.453  13.435
15547W        W79271  42.415  44.323   0.729
15548W        W79272  10.164  17.127   3.202
15549W        W79273  14.237  37.352   2.677
15550W        W79274  43.398  44.880  10.635
15551W        W79275   4.348  15.232   0.345
15552W        W79276  35.414  20.155   2.373
15553W        W79277  39.905  44.915   1.431
15554W        W79278  27.089  44.815   4.788
15555W        W79279  28.990   2.275   4.764
15556W        W79280   4.703  23.618  11.899
15557W        W79281  10.719   1.362  13.494
15558W        W79282   2.722  21.160   0.315
15559W        W79283  29.623  27.064  10.487
15560W        W79284   6.842   6.351   3.761
15561W        W79285  41.324  28.955   2.750
15562W        W79286  14.251  39.396  12.473
15563W        W79287   6.418   1.312  10.600
15564W        W79288  43.863  16.167  11.508
15565W        W79289  40.858  26.017  14.997
15566W        W79290  37.996  24.521  10.519
15567W        W79291   3.834  36.040  11.050
15568W        W79292  19.671  20.622   2.374
15569W        W79293  44.792  19.186   0.370
15570W        W79294  42.450  20.060  10.900
15571W        W79295  25.488  24.680  12.834
15572W        W79296   5.268  27.150   4.717
15573W        W79297  17.061  13.795   5.166
15574W        W79298  12.197   6.839  12.046
15575W        W79299   8.823   7.687  11.420
15576W        W79300  34.452  44.942   0.739
15577W        W79301  26.012   9.329  12.447
15578W        W79302  11.846  44.814   0.383
15579W        W79303   4.315  11.187   2.199
15580W        W79304  19.566  31.517  11.001
15581W        W79305  29.158  19.204  10.914
15582W        W79306  28.570   8.870  14.377
15583W        W79307  31.498  36.984   2.402
15584W        W79308  26.116   2.964  12.836
15585W        W79309  25.986  20.615  13.444
15586W        W79310  14.714  22.633  10.039
15587W        W79311  39.959  12.814   0.449
15588W        W79312  40.374  17.255   0.726
15589W        W79313  19.726  14.166   3.859
15590W        W79314  15.773  34.014   3.774
15591W        W79315  41.380  32.918   4.715
15592W        W79316  19.730  20.247  10.619
15593W        W79317   9.297  29.642   1.764
15594W        W79318   3.761  32.611   1.354
15595W        W79319  17.089  24.176  10.417
15596W        W79320  18.089  38.853  11.414
15597W        W79321  37.468  24.504  10.515
15598W        W79322  30.081  35.416  12.458
15599W        W79323  19.269  40.493  13.535
15600W        W79324  20.043   0.768  11.378
15601W        W79325  41.794  40.889   3.347
15602W        W79326  22.102   7.316  13.376
15603W        W79327  18.784   5.809  11.898
15604W        W79328  38.353   5.897   2.768
15605W        W79329  42.898  36.075  14.908
15606W        W79330  24.981   3.259  13.044
15607W        W79331  36.876  10.791   2.315
15608W        W79332   4.849   1.923  14.824
15609W        W79333  42.992  30.927   2.205
15610W        W79334  13.674  15.130   4.616
15611W        W79335  38.357  14.596  13.901
15612W        W79336   6.189  11.817   3.758
15613W        W79337  33.613  36.910   0.849
15614W        W79338  41.326  40.448   2.319
15615W        W79339  44.500   1.476  12.991
15616W        W79340  21.562   5.364   0.250
15617W        W79341  32.034   9.879   4.234
15618W        W79342   5.318  30.107  10.990
15619W        W79343  22.655  23.506  12.923
15620W        W79344   9.383  44.840   4.739
15621W        W79345  22.539   3.874  14.321
15622W        W79346  41.786  22.532   0.814
15623W        W79347  27.052  39.357  11.102
15624W        W79348  43.270  27.580  13.347
15625W        W79349  44.278  41.808  12.042
15626W        W79350  42.470  22.125   4.314
15627W        W79351  28.154   0.888  14.880
15628W        W79352   8.228  26.671   2.272
15629W        W79353   4.894  33.422   4.287
15630W        W79354  15.793  42.962  14.766
15631W        W79355  32.502  13.737  11.031
15632W        W79356  44.797  12.658   5.114
15633W        W79357  17.153   6.217   9.934
15634W        W79358  31.026  22.507   1.227
15635W        W79359   9.751  39.875   1.342
15636W        W79360  22.718  39.987   1.300
15637W        W79361  29.449  41.821   0.921
15638W        W79362   7.406  35.523   4.820
15639W        W79363  16.222  28.437   4.345
15640W        W79364  29.092  40.331   0.411
15641W        W79365   6.196  32.958  14.923
15642W        W79366   7.187  27.556  11.581
15643W        W79367  16.184  10.200  13.924
15644W        W79368  28.981  34.385  14.369
15645W        W79369  41.331  37.397   2.817
15646W        W79370  33.955  34.499   0.784
15647W        W79371  32.488  15.581  14.929
15648W        W79372   7.369   3.303   2.194
15649W        W79373  43.474   7.885  12.434
15650W        W79374   0.964  39.427   2.227
15651W        W79375  40.836  44.814   1.280
15652W        W79376  44.337  38.517   4.317
15653W        W79377  11.349  35.588   3.182
15654W        W79378  22.687  23.576  14.930
15655W        W79379  21.608  10.265  14.434
15656W        W79380  19.061  27.572   1.713
15657W        W79381  26.457  31.901  10.616
15658W        W79382   1.339  20.523   0.912
15659W        W79383  41.914  32.471  14.920
15660W        W79384  28.579  16.232  12.836
15661W        W79385  12.708  42.883  11.398
15662W        W79386  44.479  32.039   2.184
15663W        W79387  44.259  37.055   2.196
15664W        W79388  42.876  41.347  11.535
15665W        W79389   7.267  10.691  10.005
15666W        W79390  38.412  17.253  13.378
15667W        W79391  41.827  19.750  12.447
15668W        W79392   6.335  20.220  14.016
15669W        W79393  36.554   3.363  11.513
15670W        W79394   8.709  31.417   0.273
15671W        W79395   4.726  13.146  13.524
15672W        W79396  21.086  39.997   3.766
15673W        W79397  31.608  32.935  14.987
15674W        W79398  30.118  37.055  11.120
15675W        W79399  37.390  31.138   4.313
15676W        W79400  35.032  28.103   9.936
15677W        W79401  37.003  28.608  10.970
15678W        W79402  43.007   2.344  13.546
15679W        W79403  42.024  25.627   4.787
15680W        W79404  39.411  12.169  14.283
15681W        W79405  33.559  38.923   3.223
15682W        W79406  18.711  15.755   1.734
15683W        W79407   2.804  32.627  14.996
15684W        W79408  28.115   7.706   3.334
15685W        W79409  27.589   9.835   5.117
15686W        W79410  15.329  14.618   4.833
15687W        W79411  38.448  44.001   4.621
15688W        W79412  24.701  23.551  11.102
15689W        W79413  29.440  30.097  14.988
15690W        W79414  40.527  11.725  10.498
15691W        W79415  15.136  20.593  10.560
15692W        W79416   5.777  15.606   4.287
15693W        W79417  20.711  30.103   3.302
15694W        W79418   2.900   9.149   0.470
15695W        W79419  29.958  17.191   2.873
15696W        W79420   9.166   4.265  10.456
15697W        W79421  13.277  38.460   4.283
15698W        W79422  26.544  17.162   0.359
15699W        W79423  22.729   8.402  13.417
15700W        W79424  32.996   7.806   3.658
15701W        W79425   4.772  32.030   2.188
15702W        W79426  21.235  38.349  10.953
15703W        W79427  36.993  21.119   3.339
15704W        W79428   6.746  15.614  11.388
15705W        W79429  13.748  13.726   4.707
15706W        W79430  31.426  25.073  14.407
15707W        W79431  11.269  33.537   0.273
15708W        W79432  10.178  29.622   0.952
15709W        W79433  28.073  39.537   0.797
15710W        W79434  32.418   7.311  10.033
15711W        W79435  18.609  39.825   4.729
15712W        W79436  12.665  43.901  12.864
15713W        W79437  38.974   0.795   3.737
15714W        W79438  26.634  41.901  11.598
15715W        W79439  18.125  32.914  10.537
15716W        W79440  19.126  11.688   0.306
15717W        W79441  36.493  14.593   3.757
15718W        W79442  21.521  27.574   3.171
15719W        W79443  31.150  43.966  14.847
15720W        W79444  24.217  35.990  10.932
15721W        W79445  12.151  16.109   0.454
15722W        W79446  28.178   6.380   3.765
15723W        W79447  22.161  32.033  10.588
15724W        W79448  37.931  23.638  11.068
15725W        W79449  26.615   2.781  10.426
15726W        W79450  12.168  38.370  14.896
15727W        W79451  41.012  25.138  13.954
15728W        W79452  16.589  24.196   3.677
15729W        W79453  25.608  10.759  14.910
15730W        W79454  16.736  37.053  13.833
15731W        W79455  44.495  14.287   9.968
15732W        W79456  32.940  32.993  13.337
15733W        W79457  43.435   8.297   2.196
15734W        W79458   4.340   9.244   4.190
15735W        W79459  33.443  24.226   3.850
15736W        W79460  41.974  20.644  11.596
15737W        W79461  21.145  37.349  11.092
15738W        W79462   7.259  22.647   4.729
15739W        W79463  36.405   0.962  11.558
15740W        W79464  20.030  38.353   3.644
15741W        W79465  13.235  37.929   3.378
15742W        W79466  34.545   0.951   3.156
15743W        W79467  34.965  30.096  10.918
15744W        W79468  21.227  20.241   3.369
15745W        W79469  41.368   3.394   0.403
15746W        W79470  44.323  37.070   1.448
15747W        W79471  27.515   0.479   4.653
15748W        W79472  37.842  18.213  13.341
15749W        W79473  16.804  16.639  14.491
15750W        W79474  13.745  26.566   3.789
15751W        W79475   3.892  37.543  10.551
15752W        W79476   8.201  44.772  11.612
15753W        W79477  29.575  37.336   3.216
15754W        W79478   5.341  12.261  11.489
15755W        W79479  22.670  37.963   2.703
15756W        W79480  44.945   3.815  14.894
15757W        W79481  42.300   2.359   1.804
15758W        W79482  31.521  27.692   0.826
15759W        W79483  16.231   0.963  11.403
15760W        W79484  13.769  31.127  11.024
15761W        W79485  43.479   4.390  14.968
15762W        W79486   7.906  14.166   0.839
15763W        W79487  18.083  31.019   1.445
15764W        W79488   0.460   8.733  14.494
15765W        W79489  19.206  44.273  11.974
15766W        W79490   2.301   8.860  12.576
15767W        W79491   6.259  33.571   4.169
15768W        W79492  20.144  27.519  14.774
15769W        W79493  31.143  34.410  11.050
15770W        W79494  23.064  24.516  12.388
15771W        W79495   2.432  23.175   4.283
15772W        W79496  34.594  32.621  12.974
15773W        W79497  29.988  36.901   2.712
15774W        W79498  44.261  19.598  12.894
15775W        W79499  38.827  40.524   3.704
15776W        W79500   1.880  21.693   4.170
15777W        W79501  32.564  14.832   1.701
15778W        W79502  32.048  24.045  12.908
15779W        W79503  25.608  37.068  11.582
15780W        W79504  11.709  32.122   2.357
15781W        W79505  11.655   3.899   4.206
15782W        W79506   1.464   9.207  11.892
15783W        W79507  18.135  43.485   3.845
15784W        W79508   4.841  40.873   0.256
15785W        W79509   9.881  23.992  13.796
15786W        W79510  41.832  37.928  12.079
15787W        W79511   8.188  12.291  14.450
15788W        W79512   3.939  10.812  10.989
15789W        W79513   1.239  37.012   1.239
15790W        W79514  33.451  38.010  10.915
15791W        W79515   1.823  17.286  10.527
15792W        W79516   8.263  31.126   0.924
15793W        W79517  22.193  43.932   4.278
15794W        W79518  41.924  38.914   4.625
15795W        W79519  35.472  18.104  10.894
15796W        W79520   4.832  23.077   4.633
15797W        W79521  38.013   9.671  14.968
15798W        W79522   1.933  10.381  13.398
15799W        W79523   6.346  26.094  12.900
15800W        W79524   9.683  35.483  14.336
15801W        W79525  26.563  20.715   2.189
15802W        W79526  11.664  14.715   3.167
15803W        W79527  33.016  14.749  11.898
15804W        W79528  20.723  10.715   0.864
15805W        W79529  44.922  39.884   0.477
15806W        W79530  40.049  19.580   3.734
15807W        W79531  41.295  21.723  12.060
15808W        W79532  22.609  11.364  12.487
15809W        W79533  36.941   2.771  10.518
15810W        W79534  14.281   0.367  14.952
15811W        W79535  37.907   1.356  12.403
15812W        W79536  11.830   3.296   2.384
15813W        W79537  17.657  11.824   2.391
15814W        W79538   2.410  12.618   1.274
15815W        W79539  15.741  14.317  10.072
15816W        W79540  40.914   4.757  13.469
15817W        W79541  25.482  32.445  14.406
15818W        W79542  13.699  44.993   1.751
15819W        W79543   8.805  22.155   3.707
15820W        W79544  34.561  25.180   3.188
15821W        W79545  40.413  32.950   3.212
15822W        W79546  38.832   0.827   1.704
15823W        W79547   0.792  37.001  11.018
15824W        W79548  20.106  10.866   3.733
15825W        W79549  19.254  44.940  10.562
15826W        W79550   7.296   5.893  10.532
15827W        W79551  43.890  37.010   3.253
15828W        W79552   0.373  28.029  12.914
15829W        W79553  34.010  36.395  14.942
15830W        W79554  34.905  35.049  11.521
15831W        W79555  19.195  19.731  11.558
15832W        W79556  12.329  25.697   3.633
15833W        W79557  27.105  10.874  11.083
15834W        W79558  22.557  14.676   0.350
15835W        W79559  40.963  44.504   2.700
15836W        W79560   3.899   9.263  13.355
15837W        W79561  14.656   6.879   3.200
15838W        W79562   6.364  37.981  11.107
15839W        W79563  25.603   1.341  11.115
15840W        W79564   0.897   5.324  13.314
15841W        W79565  39.407  32.467  11.025
15842W        W79566   5.196  33.945  14.380
15843W        W79567  30.110  15.089   4.760
15844W        W79568   8.893   2.928   1.828
15845W        W79569  17.065  14.146   0.349
15846W        W79570  22.136   7.292   1.297
15847W        W79571  21.688   1.378  14.439
15848W        W79572  15.193  31.437   3.360
15849W        W79573  29.953  24.126  14.457
15850W        W79574   2.324  13.319   3.769
15851W        W79575  31.594  22.241  14.465
15852W        W79576  42.360  10.384   4.796
15853W        W79577   3.827  29.100  13.870
15854W        W79578  32.441  41.031   3.689
15855W        W79579  16.274  41.400   2.245
15856W        W79580  12.148   3.793   5.280
15857W        W79581   8.248  22.131  13.892
15858W        W79582   5.833  28.061  13.011
15859W        W79583  11.821   2.782  10.529
15860W        W79584  34.048  27.561   0.859
15861W        W79585  31.131  26.141  10.581
15862W        W79586  13.787  32.464  10.454
15863W        W79587   2.849  29.553   1.268
15864W        W79588  25.654  20.562  12.390
15865W        W79589  25.073  41.428  10.626
15866W        W79590  39.504  42.870   3.860
15867W        W79591  25.078  10.846   3.824
15868W        W79592  34.564  40.338   2.355
15869W        W79593  22.094  43.360  14.870
15870W        W79594  42.414  10.753  10.554
15871W        W79595  38.462  26.045   2.773
15872W        W79596  33.907   0.407  14.997
15873W        W79597  37.058  33.626   1.230
15874W        W79598  29.103  42.332  14.972
15875W        W79599  43.401  14.656   2.724
15876W        W79600  35.469  37.393   1.879
15877W        W79601  41.867  24.627   1.331
15878W        W79602  38.889  14.104   2.850
15879W        W79603  21.727  22.022  14.495
15880W        W79604  17.239  10.187  12.995
15881W        W79605  10.264  12.199   1.835
15882W        W79606  10.666   4.346  10.896
15883W        W79607  19.632  11.172  14.836
15884W        W79608  26.584   3.784   0.836
15885W        W79609  18.104  26.472   1.433
15886W        W79610  33.455  23.518  11.452
15887W        W79611  10.842  14.599  13.317
15888W        W79612  23.091  25.481   4.797
15889W        W79613  13.119  12.254   2.883
15890W        W79614  27.089  13.649   1.391
15891W        W79615  41.388   6.294   2.412
15892W        W79616  44.820  43.356  13.429
15893W        W79617  31.527  28.563  13.021
15894W        W79618  31.607  41.955   0.396
15895W        W79619   5.348  35.004   1.716
15896W        W79620  12.227  18.699   3.231
15897W        W79621  18.699  39.497  11.934
15898W        W79622  39.341  16.294   2.187
15899W        W79623  27.970  23.688   2.208
15900W        W79624   5.288  16.103  13.826
15901W        W79625  40.532   3.779   3.834
15902W        W79626  38.927  32.112   1.316
15903W        W79627  26.103  21.045   2.236
15904W        W79628  19.280  34.582  11.552
15905W        W79629  31.461   0.490  11.039
15906W        W79630  40.351   4.703  12.017
15907W        W79631  30.589   2.811   0.737
15908W        W79632  42.449  22.744   3.231
15909W        W79633  19.689  15.153  12.570
15910W        W79634  19.722  42.975  11.483
15911W        W79635   0.281  10.852  13.450
15912W        W79636  10.361  32.475  13.945
15913W        W79637  31.466   5.221  13.929
15914W        W79638  20.528  30.489  12.429
15915W        W79639   3.875  40.832  10.941
15916W        W79640   7.250  40.921   4.279
15917W        W79641   8.869  31.539  14.368
15918W        W79642  16.796  42.371  11.610
15919W        W79643   6.869  11.664   2.746
15920W        W79644  21.634  25.588  12.088
15921W        W79645  35.059  23.519   2.237
15922W        W79646   4.316   3.934  11.503
15923W        W79647  41.435  20.713  14.821
15924W        W79648   0.756  17.764  12.423
15925W        W79649  29.948  31.987  11.498
15926W        W79650  34.489   7.404   2.680
15927W        W79651  20.619  42.833  14.846
15928W        W79652  37.007  22.528  11.388
15929W        W79653  37.513  32.508  14.777
15930W        W79654  31.958  26.596   1.926
15931W        W79655  12.235  24.547   0.424
15932W        W79656  16.100   6.201   3.189
15933W        W79657  41.008   7.675   0.429
15934W        W79658  20.579   5.283   3.750
15935W        W79659  25.644  26.614   4.317
15936W        W79660  13.298  27.196  13.477
15937W        W79661  14.297  31.902   4.818
15938W        W79662  39.538   2.783  14.879
15939W        W79663   0.339  29.937  12.393
15940W        W79664   3.444  44.913   4.620
15941W        W79665  37.437   8.162   1.406
15942W        W79666  44.302  24.111   2.669
15943W        W79667   7.184   3.303  14.483
15944W        W79668  29.175   7.416   2.370
15945W        W79669  35.575  15.701   2.205
15946W        W79670  35.069  22.601  13.427
15947W        W79671  18.100  10.732  12.399
15948W        W79672  35.070  10.143   4.148
15949W        W79673  44.793  38.051  13.905
15950W        W79674  11.203  25.964   1.337
15951W        W79675  23.026  14.608  13.389
15952W        W79676  10.764   7.322  10.506
15953W        W79677   7.192  37.356  11.478
15954W        W79678  37.912  10.878   0.812
15955W        W79679   8.297  13.664  13.931
15956W        W79680  36.031  17.210  10.153
15957W        W79681  41.404  12.636   0.745
15958W        W79682  42.423  37.853   1.324
15959W        W79683  42.933   3.422   4.612
15960W        W79684  36.977  23.238  14.889
15961W        W79685   2.406  35.395   1.269
15962W        W79686  24.684  27.646  11.875
15963W        W79687  44.271  30.143  14.333
15964W        W79688  29.053  23.071  13.857
15965W        W79689  13.599  30.531   4.788
15966W        W79690  20.541   0.256   2.846
15967W        W79691  20.570  18.145   4.347
15968W        W79692  36.477  18.197   2.901
15969W        W79693  21.620  22.121   0.943
15970W        W79694  15.083   5.268  11.129
15971W        W79695   5.374  19.239  13.045
15972W        W79696  34.558  34.028   4.835
15973W        W79697   7.284   8.169   1.338
15974W        W79698  43.276   2.728  12.538
15975W        W79699  21.185  30.072  12.998
15976W        W79700  16.094  29.946  13.357
15977W        W79701  36.008   7.410  14.319
15978W        W79702  11.140  42.295   2.703
15979W        W79703  24.582  32.562   0.399
15980W        W79704  14.129   3.302   5.739
15981W        W79705   1.954  32.462  12.041
15982W        W79706  31.525  39.961  11.549
15983W        W79707  16.729  44.772  10.504
15984W        W79708   2.897   8.172   2.896
15985W        W79709  25.630  20.570   0.873
15986W        W79710  40.483   2.238   5.158
15987W        W79711   2.327  34.107   2.727
15988W        W79712  18.108   9.163  13.802
15989W        W79713  44.989  40.376  13.455
15990W        W79714  14.148  11.680   3.248
15991W        W79715  42.930  26.121   0.728
15992W        W79716   9.194  41.903   1.392
15993W        W79717  25.089   4.713  14.425
15994W        W79718  24.040  41.913   3.314
15995W        W79719  28.052  20.744   0.965
15996W        W79720  22.082  13.692  13.969
15997W        W79721  24.224  35.864  10.449
15998W        W79722  41.822  39.877  14.863
15999W        W79723  29.451   9.680  10.468
16000W        W79724  34.886  11.779  14.781
16001W        W79725  32.633  30.993   0.940
16002W        W79726  42.928   8.762  11.938
16003W        W79727   5.414  39.056   4.116
16004W        W79728  27.592   7.885  13.023
16005W        W79729   3.325  26.164  14.870
16006W        W79730  12.234   9.781  13.968
16007W        W79731  32.976   4.703  10.599
16008W        W79732  33.472  13.191   1.318
16009W        W79733  37.530   0.843   0.346
16010W        W79734   2.360   2.743   3.794
16011W        W79735  14.733   5.739   5.713
16012W        W79736  44.504   8.375   4.282
16013W        W79737   5.374  16.682  14.411
16014W        W79738  42.954  10.175   0.948
16015W        W79739  26.513  42.332  12.093
16016W        W79740  44.350  43.372   4.128
16017W        W79741  27.051  10.233   2.270
16018W        W79742   2.371  26.573   5.090
16019W        W79743  21.613  15.252  12.356
16020W        W79744  18.585  37.483   2.353
16021W        W79745   5.356   6.224   1.859
16022W        W79746  22.684  31.946  12.509
16023W        W79747  38.456  22.640  14.808
16024W        W79748  31.451   9.849   0.314
16025W        W79749   8.302  17.297  12.013
16026W        W79750   8.741   7.288  11.082
16027W        W79751  28.094  16.649  14.417
16028W        W79752  23.564  24.204   0.914
16029W        W79753  42.330  39.497  13.942
16030W        W79754  13.160  16.701   0.483
16031W        W79755  43.830  26.535  11.886
16032W        W79756  41.957   7.805  11.034
16033W        W79757  28.497  30.640  13.852
16034W        W79758  27.650  23.547  14.990
16035W        W79759  37.516  20.763   1.241
16036W        W79760  24.176   9.745   2.377
16037W        W79761  24.085  22.556   0.319
16038W        W79762  44.430   2.439   5.176
16039W        W79763  35.454  11.744   0.442
16040W        W79764  22.643  14.263   2.266
16041W        W79765  37.478  42.346   1.273
16042W        W79766   1.407  44.920  10.427
16043W        W79767  23.541  10.346  14.902
16044W        W79768  35.458  25.646  12.022
16045W        W79769  17.248  42.827  11.900
16046W        W79770  38.887  27.145   3.803
16047W        W79771  11.729  29.666   4.776
16048W        W79772  31.897  20.603  12.921
16049W        W79773   3.229  26.113   2.256
16050W        W79774  24.022  38.033  14.344
16051W        W79775  15.673  30.964   9.931
16052W        W79776  34.063  21.642  13.451
16053W        W79777  35.009   4.283  14.840
16054W        W79778  33.450  23.015   1.253
16055W        W79779  11.371  33.427   4.661
16056W        W79780  39.335  16.138   4.172
16057W        W79781  11.337   6.788  14.420
16058W        W79782  25.137  26.587  11.127
16059W        W79783  41.532  39.360  11.534
16060W        W79784  23.121  20.136  14.909
16061W        W79785  15.776  18.202   1.765
16062W        W79786  31.118  44.974   1.881
16063W        W79787   9.233  44.385  13.855
16064W        W79788  30.111  26.118   4.816
16065W        W79789   7.834  26.013   3.820
16066W        W79790  44.419  36.863   3.748
16067W        W79791  41.457   0.290  12.410
16068W        W79792  31.063  26.662   1.444
16069W        W79793  37.976  29.158   4.833
16070W        W79794   5.435  23.240   4.162
16071W        W79795   1.338   3.224   3.832
16072W        W79796   2.755   7.263  11.916
16073W        W79797  14.659   0.954  13.064
16074W        W79798   7.822   5.202   2.821
16075W        W79799   3.346   6.721   2.208
16076W        W79800   9.210  40.396   2.218
16077W        W79801  36.483  11.764  12.392
16078W        W79802  24.056  15.588  11.504
16079W        W79803   0.351  21.244   0.940
16080W        W79804   2.885  11.784  12.511
16081W        W79805  37.055  41.336   2.276
16082W        W79806  13.610  43.783   1.848
16083W        W79807  41.532   4.710   2.743
16084W        W79808  40.370  24.509  11.991
16085W        W79809  44.006  33.432  12.381
16086W        W79810  23.034  10.357   3.340
16087W        W79811   9.662  34.896   3.147
16088W        W79812  17.224  41.823   4.317
16089W        W79813  22.584  36.053   1.282
16090W        W79814  23.064  32.900  11.877
16091W        W79815   6.832   0.386  13.986
16092W        W79816  14.291  44.770   1.913
16093W        W79817   0.326   3.847   2.762
16094W        W79818   6.821  37.016   2.184
16095W        W79819  19.686  31.142   1.257
16096W        W79820  25.036  32.552   3.816
16097W        W79821  38.833   5.768   1.800
16098W        W79822  37.355  36.067   9.939
16099W        W79823  38.989  26.620  14.373
16100W        W79824  29.946  16.700  12.453
16101W        W79825  31.440  25.596   4.671
16102W        W79826  18.671  40.364  12.070
16103W        W79827  42.400   7.254   4.340
16104W        W79828  24.156  43.486   3.671
16105W        W79829  23.502  15.677   0.793
16106W        W79830  42.832   5.747  14.280
16107W        W79831  16.275  27.579   0.748
16108W        W79832  41.332  13.678  13.475
16109W        W79833   1.397  15.092   1.451
16110W        W79834  41.526   1.395  14.806
16111W        W79835  15.713  24.577   4.635
16112W        W79836   2.240   4.238  10.963
16113W        W79837  29.097  20.634   0.476
16114W        W79838  37.833   7.732   4.621
16115W        W79839  19.181  12.771  11.859
16116W        W79840  32.046  25.642  10.545
16117W        W79841   0.305  43.503   2.751
16118W        W79842  17.611  16.115  10.924
16119W        W79843   5.728   5.818  11.427
16120W        W79844  22.713  10.201   5.295
16121W        W79845  31.468   0.975  11.041
16122W        W79846  33.063  43.906  11.900
16123W        W79847  33.875   8.673  14.887
16124W        W79848  14.268   4.316   0.426
16125W        W79849  21.600   6.236  12.541
16126W        W79850  17.785  39.889  13.841
16127W        W79851   7.863   2.852   2.205
16128W        W79852   6.405  23.140  13.320
16129W        W79853   0.977  43.845  13.459
16130W        W79854  12.718  10.750   1.824
16131W        W79855  24.184  34.014  12.899
16132W        W79856  39.877  10.752   2.390
16133W        W79857  13.274   0.319  13.454
16134W        W79858  10.336  21.736  14.971
16135W        W79859   1.374  31.458   3.796
16136W        W79860  10.141   7.689  11.558
16137W        W79861  22.206  37.572   1.781
16138W        W79862  29.010   9.204   2.719
16139W        W79863  23.667   1.297   1.839
16140W        W79864  27.080  34.558  14.782
16141W        W79865  20.564  13.843   3.787
16142W        W79866  39.507   0.316   5.110
16143W        W79867  38.499  35.549   0.860
16144W        W79868  19.057  22.096  10.520
16145W        W79869  20.674   9.172   1.759
16146W        W79870  19.731  43.011  10.627
16147W        W79871   3.367  16.296   0.402
16148W        W79872  16.159   4.940  10.951
16149W        W79873  15.655  17.130   3.167
16150W        W79874   5.384   6.912   2.329
16151W        W79875   3.358  42.526   0.444
16152W        W79876  36.543   5.296  13.380
16153W        W79877   0.862  15.587   5.091
16154W        W79878  36.017  15.171   4.756
16155W        W79879  14.108   4.810  13.937
16156W        W79880  16.617   7.909   5.592
16157W        W79881  42.424  10.774  14.950
16158W        W79882  20.652   1.277   0.934
16159W        W79883  36.008   4.338  14.941
16160W        W79884   3.404  35.089   3.237
16161W        W79885  23.067  32.939   1.322
16162W        W79886   7.889  44.910   2.354
16163W        W79887  35.566  18.760  14.906
16164W        W79888  36.526  14.770   1.745
16165W        W79889  34.894   9.761  10.476
16166W        W79890  17.753  40.360  13.383
16167W        W79891   5.413  23.515   2.761
16168W        W79892  24.996  15.679   2.809
16169W        W79893  12.642  16.575   1.277
16170W        W79894  19.105  31.053   3.786
16171W        W79895   1.374  18.073  12.348
16172W        W79896  36.414  16.252  14.807
16173W        W79897  41.787  17.738   0.460
16174W        W79898   0.742   7.743  10.404
16175W        W79899  31.518  37.340  14.293
16176W        W79900  41.967   3.778  13.396
16177W        W79901  43.299  12.181   0.957
16178W        W79902  37.362  10.197  11.485
16179W        W79903  26.076   7.702  10.944
16180W        W79904  13.619  23.565  10.906
16181W        W79905  41.037   9.276   1.781
16182W        W79906  27.195   1.910  11.581
16183W        W79907  35.402  18.123   3.662
16184W        W79908  30.497  23.597  13.820
16185W        W79909   1.887  39.895   2.683
16186W        W79910  14.311   0.475  14.388
16187W        W79911   1.779  37.035  11.067
16188W        W79912  41.927   9.830  10.447
16189W        W79913  37.364  33.928  12.920
16190W        W79914  24.137  20.119  12.867
16191W        W79915   1.452  37.876   0.914
16192W        W79916  36.439   7.176   4.123
16193W        W79917  21.641  41.414   4.229
16194W        W79918  25.499  18.158   2.290
16195W        W79919  25.037  39.831  11.501
16196W        W79920  35.449  19.742  14.857
16197W        W79921  30.046   4.835   4.191
16198W        W79922  33.475  19.097   2.232
16199W        W79923   7.785  32.013  14.334
16200W        W79924  38.894   6.285   5.214
16201W        W79925   0.446   4.846   3.757
16202W        W79926  22.700  41.380  11.932
16203W        W79927   7.417  14.665  11.939
16204W        W79928  17.566  12.682  13.816
16205W        W79929  11.298  30.084  11.389
16206W        W79930   4.288  21.747  10.933
16207W        W79931  43.809  25.479  11.108
16208W        W79932  39.837  44.370  14.300
16209W        W79933  17.746  38.942   0.830
16210W        W79934   8.773  16.283  10.497
16211W        W79935   6.314   6.370  10.622
16212W        W79936  39.443  15.628  10.580
16213W        W79937   6.327  20.610   1.780
16214W        W79938  28.617   6.399   0.478
16215W        W79939   5.928   0.825  13.902
16216W        W79940   5.765  14.742  13.953
16217W        W79941  39.542  15.640  11.479
16218W        W79942   5.434  23.171   1.888
16219W        W79943   3.926  18.772   4.289
16220W        W79944  20.087  39.988  14.475
16221W        W79945   2.379  41.967  10.538
16222W        W79946  26.092  30.500   4.635
16223W        W79947  44.390  42.863   1.328
16224W        W79948  31.616  33.616  14.432
16225W        W79949  40.303  25.634   4.804
16226W        W79950  11.730  30.460   1.802
16227W        W79951  27.637  42.403  10.596
16228W        W79952  38.861  25.565  14.462
16229W        W79953  12.765  33.479  14.871
16230W        W79954  19.666  31.991  11.945
16231W        W79955  12.677  32.997  14.472
16232W        W79956  41.453   6.205  14.439
16233W        W79957  11.272  32.629   0.478
16234W        W79958  11.625  32.402  12.446
16235W        W79959  12.317  20.157  11.579
16236W        W79960  12.641  40.519   3.841
16237W        W79961  32.404  23.097   4.333
16238W        W79962  12.733   0.884   2.325
16239W        W79963  27.198  39.404   2.742
16240W        W79964  28.111  40.049  10.105
16241W        W79965  23.062   0.761  12.513
16242W        W79966  18.545  19.069  12.511
16243W        W79967  23.021  23.232  14.305
16244W        W79968  10.237  11.683  13.839
16245W        W79969  43.880  44.960   3.285
16246W        W79970  33.503  42.381  10.893
16247W        W79971  15.588  14.791   0.738
16248W        W79972  17.112  29.625   3.307
16249W        W79973  18.200  34.479  11.378
16250W        W79974  30.421  10.641   3.800
16251W        W79975  15.310  34.399   0.477
16252W        W79976  20.755  28.446   2.406
16253W        W79977  18.776  33.506  10.479
16254W        W79978  23.690  44.337   1.419
16255W        W79979  38.869   4.894   4.133
16256W        W79980  20.636  19.637   2.802
16257W        W79981  29.929  19.201   3.809
16258W        W79982  18.121   3.292   1.868
16259W        W79983   2.786  11.710  11.448
16260W        W79984  11.181  21.201   3.868
16261W        W79985  13.648   4.836  12.379
16262W        W79986  41.296  29.473  13.898
16263W        W79987   3.871  41.879   3.298
16264W        W79988  34.439   4.786   3.701
16265W        W79989   6.806   6.778   0.476
16266W        W79990  37.957  33.468   0.369
16267W        W79991  16.650   9.889  14.910
16268W        W79992  27.110  40.493  13.967
16269W        W79993  27.049   7.359  13.906
16270W        W79994  11.692  29.943   3.705
16271W        W79995   4.319  38.956   3.856
16272W        W79996  20.083  24.218  13.830
16273W        W79997   1.887   4.836   0.294
16274W        W79998  44.805  30.527  10.446
16275W        W79999  16.159  26.586  14.779
16276W        W80000  30.639   3.910  12.573
16277W        W80001   5.723   4.226  10.620
16278W        W80002  13.687  16.603  14.999
16279W        W80003   7.894   1.315  13.544
16280W        W80004  23.541  26.581  10.091
16281W        W80005  30.136   3.949   3.657
16282W        W80006  16.261  38.026  13.020
16283W        W80007  12.630  14.639  13.379
16284W        W80008   9.796  19.106  11.040
16285W        W80009   4.350  10.144  13.523
16286W        W80010  14.763  37.335  13.893
16287W        W80011  35.368   8.806   1.857
16288W        W80012  37.046  31.066   1.888
16289W        W80013  31.956  41.508  14.381
16290W        W80014  38.913  35.100  14.841
16291W        W80015  13.218  25.103   4.301
16292W        W80016   8.368   0.478  12.865
16293W        W80017  27.092  32.050  11.509
16294W        W80018   7.405  29.090  12.495
16295W        W80019  34.938  44.462  11.502
16296W        W80020  37.967  26.481   0.415
16297W        W80021   7.739  10.713  13.435
16298W        W80022  43.450  21.160   1.324
16299W        W80023  43.912  32.617   4.353
16300W        W80024  37.476  25.522   2.820
16301W        W80025  25.169  14.678  14.295
16302W        W80026   9.879  30.513  14.857
16303W        W80027  11.662  13.624   4.600
16304W        W80028   1.418  16.772  12.433
16305W        W80029  21.758  11.863  13.964
16306W        W80030  40.469  19.697   1.363
16307W        W80031  39.833  22.165  12.934
16308W        W80032  36.381   1.873   5.251
16309W        W80033  38.486  24.491   4.760
16310W        W80034   5.753   1.441   3.795
16311W        W80035  24.006  27.488  12.064
16312W        W80036  36.424  10.249   0.444
16313W        W80037  15.730  14.298   5.199
16314W        W80038   2.388  28.632  13.813
16315W        W80039  26.084  18.728  14.390
16316W        W80040   1.946  25.045   4.166
16317W        W80041  36.853  41.332  12.034
16318W        W80042  24.532  14.746  14.914
16319W        W80043  19.640  37.361   1.762
16320W        W80044  44.986   0.465  11.377
16321W        W80045  15.785  40.307   0.757
16322W        W80046   2.802   9.787  12.469
16323W        W80047  29.052  25.131   3.209
16324W        W80048  37.385  31.917  11.908
16325W        W80049  41.949  15.652  13.326
16326W        W80050  19.779  26.999  13.359
16327W        W80051  31.084  40.353  10.111
16328W        W80052  37.395   1.296   3.242
16329W        W80053  36.019  19.242   4.775
16330W        W80054  35.391  13.599  12.423
16331W        W80055  25.988  16.143  10.967
16332W        W80056  13.735  15.107  14.925
16333W        W80057  13.671  17.135   2.707
16334W        W80058  11.322   1.912   1.433
16335W        W80059  27.507   6.248   0.476
16336W        W80060  43.793  19.081   3.694
16337W        W80061  26.475   4.717  14.014
16338W        W80062  17.693  41.791  14.317
16339W        W80063  13.274  15.685  12.443
16340W        W80064  30.130  35.415   3.247
16341W        W80065  15.744  32.949  12.956
16342W        W80066  21.239  13.636   4.343
16343W        W80067  19.719   7.218  11.575
16344W        W80068   6.857  32.937   4.314
16345W        W80069  38.337  19.576   1.860
16346W        W80070  21.171  31.073  12.392
16347W        W80071  19.681  22.099   1.914
16348W        W80072   6.229  41.856  13.844
16349W        W80073  13.337  40.910  10.618
16350W        W80074   9.770  29.938   2.688
16351W        W80075  21.533   1.946   1.308
16352W        W80076  23.095  26.496  10.611
16353W        W80077  31.003  34.545  12.942
16354W        W80078  34.871  23.617  10.588
16355W        W80079  40.539  38.887   1.833
16356W        W80080  37.059  10.829   1.231
16357W        W80081  43.276  22.208   9.953
16358W        W80082   7.213  12.251   3.820
16359W        W80083   2.444  42.935  11.016
16360W        W80084   0.446  37.353  10.645
16361W        W80085  10.377  12.794   4.636
16362W        W80086   1.356  13.794   0.329
16363W        W80087  33.993  36.561   1.922
16364W        W80088   8.832  25.113  10.410
16365W        W80089  22.565  40.530  11.524
16366W        W80090  21.685   6.254  11.428
16367W        W80091  26.625   5.806   4.317
16368W        W80092  38.914  40.533  10.078
16369W        W80093   3.943  31.027   3.192
16370W        W80094  11.151  25.625  12.988
16371W        W80095  29.150   1.965  11.388
16372W        W80096  12.242  18.551   4.763
16373W        W80097  27.998  32.926   3.175
16374W        W80098  21.117   8.392   1.335
16375W        W80099  12.329  38.368   3.769
16376W        W80100  33.051   7.196  12.376
16377W        W80101  15.682   8.322   0.276
16378W        W80102   3.256  44.862   2.404
16379W        W80103   8.177   0.851  13.943
16380W        W80104  40.519  36.053   0.771
16381W        W80105   5.699  20.186   3.249
16382W        W80106   0.789  17.611  13.948
16383W        W80107  36.011  12.246   3.238
16384W        W80108  27.132  43.996  11.949
16385W        W80109  17.291  16.685   3.200
16386W        W80110  22.713  18.084   2.201
16387W        W80111  37.856  32.094   2.684
16388W        W80112  40.396  38.851  11.470
16389W        W80113  44.856  26.951  11.372
16390W        W80114  21.238  33.917  11.063
16391W        W80115  34.477   3.314   3.720
16392W        W80116  17.648  30.646   1.779
16393W        W80117  36.955  25.683  11.372
16394W        W80118  26.971  18.577   0.282
16395W        W80119  26.574  11.823  14.408
16396W        W80120  44.488  13.688  10.966
16397W        W80121  37.564  41.987  11.920
16398W        W80122  43.933  34.586   4.296
16399W        W80123  43.887   3.229  12.415
16400W        W80124  25.022  27.177  14.888
16401W        W80125   3.955  31.462  12.423
16402W        W80126  31.581  31.626   1.830
16403W        W80127   8.747   3.398   3.671
16404W        W80128  16.630  19.563   2.330
16405W        W80129  19.561  22.081   3.821
16406W        W80130   7.853  31.496  14.438
16407W        W80131  22.560   2.316  10.466
16408W        W80132  40.854  33.537  10.493
16409W        W80133   1.352   4.809   4.649
16410W        W80134   6.184  13.313  10.580
16411W        W80135  15.702   8.236  10.442
16412W        W80136  17.131  44.484   0.374
16413W        W80137  44.900   0.826  12.005
16414W        W80138  22.094   7.237  14.758
16415W        W80139  16.585  10.738   1.225
16416W        W80140   1.462  27.644  13.045
16417W        W80141  31.420  12.840   3.809
16418W        W80142  40.797   2.306  12.087
16419W        W80143   3.443  23.591  14.369
16420W        W80144  31.443   2.318   2.682
16421W        W80145   4.326  41.835   2.834
16422W        W80146  41.529  21.262  14.869
16423W        W80147  13.817  42.293  14.990
16424W        W80148  10.736  35.075   2.717
16425W        W80149   6.247   1.347   3.369
16426W        W80150  23.020   2.449   3.266
16427W        W80151  16.317   8.219   1.710
16428W        W80152  25.003  15.669   4.801
16429W        W80153  28.139  21.648   0.883
16430W        W80154   8.808  41.001   2.297
16431W        W80155  18.573  15.804  11.512
16432W        W80156  42.936  41.864  14.927
16433W        W80157  10.142  19.566   2.305
16434W        W80158  19.771  12.146  13.352
16435W        W80159  26.472  39.479  14.919
16436W        W80160   0.393  42.927   3.673
16437W        W80161   3.406  33.392  14.944
16438W        W80162  14.195  19.231  14.799
16439W        W80163  39.455   3.330  14.984
16440W        W80164  38.459  12.188  12.946
16441W        W80165  26.098  19.654   4.670
16442W        W80166   2.887   2.920   1.828
16443W        W80167  37.576  41.502  10.439
16444W        W80168  18.081   6.885  14.381
16445W        W80169  21.111   1.327   4.347
16446W        W80170   1.276  19.575  12.834
16447W        W80171  13.746  15.279   0.316
16448W        W80172  26.601  23.566  12.525
16449W        W80173  20.115  28.936   4.335
16450W        W80174  34.065  15.178  13.003
16451W        W80175  37.376   3.393   1.353
16452W        W80176  38.829  10.318   2.376
16453W        W80177  27.153  29.425   3.815
16454W        W80178  29.576   1.850   4.194
16455W        W80179  10.206  17.070  10.949
16456W        W80180   3.238  21.618  11.983
16457W        W80181  21.731   9.811  12.464
16458W        W80182  38.829  29.094  13.492
16459W        W80183  12.742  35.364   1.439
16460W        W80184  43.276  43.989   0.808
16461W        W80185  37.935   8.889  12.918
16462W        W80186  40.047  28.468   0.920
16463W        W80187  41.369  26.700  12.945
16464W        W80188  13.764  21.602   2.390
16465W        W80189  31.432   3.448   2.876
16466W        W80190  34.541  17.160  13.002
16467W        W80191  42.284   6.234  13.044
16468W        W80192   2.723  20.057   2.223
16469W        W80193  18.727   0.826  13.441
16470W        W80194   4.313  44.344   0.284
16471W        W80195  39.495   9.709  14.764
16472W        W80196  26.621  39.488   2.297
16473W        W80197   5.249   1.824  10.423
16474W        W80198  10.654  34.873   1.833
16475W        W80199  31.109  17.283   1.316
16476W        W80200  22.036  12.797  11.610
16477W        W80201  17.218   2.373   4.779
16478W        W80202  17.096  27.519  13.811
16479W        W80203   7.779   2.414   4.838
16480W        W80204   7.217  21.547   2.360
16481W        W80205  34.475  27.621   2.764
16482W        W80206  21.734  35.976  12.406
16483W        W80207  19.159  33.510   1.240
16484W        W80208   8.789   8.844  13.347
16485W        W80209   9.707  30.637   1.848
16486W        W80210  33.989  17.233  14.324
16487W        W80211  13.323  39.468  13.027
16488W        W80212  27.192  30.157  14.856
16489W        W80213  31.480  43.906   0.375
16490W        W80214   5.687  39.522   4.750
16491W        W80215  24.013  41.870  10.490
16492W        W80216  18.058  19.074  11.893
16493W        W80217  32.605   5.277  14.384
16494W        W80218  11.234   4.252   4.338
16495W        W80219  33.895   5.339  11.076
16496W        W80220   2.432  22.090   2.776
16497W        W80221  44.487  42.484  13.021
16498W        W80222   5.914  42.884   3.758
16499W        W80223  25.511  14.616   4.645
16500W        W80224   2.434   5.841  10.477
16501W        W80225  26.972  38.381  10.627
16502W        W80226  39.439  12.224  14.811
16503W        W80227  11.165  40.028   2.274
16504W        W80228  25.993  35.969  13.897
16505W        W80229   0.911  40.820   1.371
16506W        W80230  34.559  29.158   2.751
16507W        W80231  15.168  16.594  14.847
16508W        W80232  27.679   5.348  11.396
16509W        W80233  35.879  21.051   3.304
16510W        W80234   4.839  28.667  11.537
16511W        W80235  42.347  43.509   3.798
16512W        W80236  43.814  19.170   0.758
16513W        W80237  32.942  33.610  11.417
16514W        W80238  43.961  38.971  12.457
16515W        W80239   2.275  19.165   4.203
16516W        W80240   1.826  33.047   0.949
16517W        W80241  15.124   4.416  11.021
16518W        W80242  24.675  27.139  14.976
16519W        W80243  30.486  23.572  14.501
16520W        W80244  31.102  36.449   3.679
16521W        W80245   2.299  12.783  11.945
16522W        W80246  30.510   8.335   1.723
16523W        W80247  21.018   5.437  14.372
16524W        W80248   8.729  24.985   1.370
16525W        W80249  36.543  17.225  10.607
16526W        W80250   9.885  14.310   2.295
16527W        W80251  41.843  22.636  13.943
16528W        W80252  21.135  31.148  14.374
16529W        W80253   2.952  15.723   3.784
16530W        W80254  11.700   6.381   3.862
16531W        W80255  41.316  21.154  14.367
16532W        W80256  13.742  13.173   2.735
16533W        W80257  30.017  43.914   1.406
16534W        W80258  11.362  39.879  10.941
16535W        W80259   4.713  37.579   2.807
16536W        W80260  22.682  13.327  12.857
16537W        W80261   0.852   3.278  11.856
16538W        W80262  20.752  27.619   2.743
16539W        W80263  40.851  21.618   0.475
16540W        W80264  38.885  14.119  13.826
16541W        W80265  27.544  25.604  14.431
16542W        W80266  23.065  36.962  14.946
16543W        W80267  17.096  42.812   2.385
16544W        W80268  36.050  28.532  10.511
16545W        W80269  11.638  43.292  13.924
16546W        W80270  36.564  19.562   2.411
16547W        W80271  35.060  12.146  12.958
16548W        W80272  12.197  21.262   2.853
16549W        W80273  25.506  22.548  12.559
16550W        W80274  19.674  35.883   1.696
16551W        W80275   5.342  32.552  11.886
16552W        W80276  23.603  26.078   3.662
16553W        W80277  33.604  42.955   0.755
16554W        W80278  11.169  38.865   2.341
16555W        W80279  41.911  28.662   4.781
16556W        W80280  13.124  35.569  11.083
16557W        W80281  28.139  34.922  10.928
16558W        W80282  32.951  44.832   0.902
16559W        W80283  12.123  24.040  11.934
16560W        W80284  33.487  30.083   1.329
16561W        W80285  27.565   7.229   5.288
16562W        W80286  11.277  30.584  11.569
16563W        W80287  22.084  24.068   3.194
16564W        W80288  35.471  22.159  10.907
16565W        W80289  27.659   9.794  14.899
16566W        W80290  40.012  36.470   3.847
16567W        W80291  26.565  39.355   2.780
16568W        W80292  21.173  31.029   4.116
16569W        W80293  19.242  12.788  13.313
16570W        W80294   9.263   9.262   2.318
16571W        W80295  34.035  11.258   3.334
16572W        W80296  18.686  19.585   0.474
16573W        W80297  17.611  14.714  14.346
16574W        W80298   8.254  42.488  14.440
16575W        W80299   5.338  37.405  13.939
16576W        W80300  22.226   2.246  11.567
16577W        W80301   4.758   4.224  10.959
16578W        W80302  20.159  22.717  10.520
16579W        W80303  23.647   5.362   1.934
16580W        W80304   9.832  43.995   4.757
16581W        W80305   9.210  17.221  13.479
16582W        W80306  25.043  27.988   3.225
16583W        W80307  43.956   9.872  13.440
16584W        W80308  20.101   3.423  11.966
16585W        W80309  16.572  34.056   4.813
16586W        W80310  17.157  33.571  13.510
16587W        W80311  16.293  30.657  12.377
16588W        W80312  40.835   9.200   3.637
16589W        W80313  35.885   2.744  12.485
16590W        W80314  43.889   2.759  14.275
16591W        W80315  43.403  39.994  11.017
16592W        W80316  37.071  35.938   2.290
16593W        W80317  35.875  39.366  13.003
16594W        W80318  40.321  43.949   3.706
16595W        W80319  19.050  13.153  11.507
16596W        W80320  22.108   9.178   1.399
16597W        W80321  25.137   6.300  11.415
16598W        W80322  21.124  22.542   0.277
16599W        W80323  12.263  25.213  11.433
16600W        W80324  23.076  13.135   1.278
16601W        W80325  21.238  40.894  10.435
16602W        W80326  13.682  34.459   3.763
16603W        W80327  29.932  14.113  12.420
16604W        W80328   2.350  27.612   4.235
16605W        W80329   0.934  22.599   4.774
16606W        W80330   7.874  12.707  13.376
16607W        W80331  20.029  11.304   4.248
16608W        W80332  23.559  38.996   3.739
16609W        W80333  20.597  20.535  13.461
16610W        W80334   4.907   7.313  10.555
16611W        W80335  17.239  13.340   0.751
16612W        W80336  15.693  17.781  14.025
16613W        W80337  43.921  40.855  12.050
16614W        W80338  36.568  25.712   4.235
16615W        W80339  37.906   1.753  10.610
16616W        W80340   0.419  41.960   3.803
16617W        W80341  28.057  22.738  13.946
16618W        W80342  35.094  44.990   1.767
16619W        W80343  30.000   9.372   0.783
16620W        W80344  39.442  24.115  12.933
16621W        W80345  19.687  23.013  13.922
16622W        W80346   9.784  39.357  14.382
16623W        W80347  35.869   5.780  12.348
16624W        W80348  28.026  22.207  11.589
16625W        W80349  25.103  17.170  10.495
16626W        W80350   7.316   9.236   1.233
16627W        W80351  17.093   9.202  13.903
16628W        W80352  12.721  26.005   1.387
16629W        W80353  31.644   4.843  11.917
16630W        W80354  32.629  13.204  11.885
16631W        W80355   0.799  20.180   4.774
16632W        W80356  27.059  39.832  13.339
16633W        W80357  10.287  38.505  14.893
16634W        W80358  34.070   3.296  13.509
16635W        W80359  37.367  38.443  14.989
16636W        W80360  36.524  25.069   3.795
16637W        W80361  16.659  32.424   4.130
16638W        W80362   2.879  18.730   2.739
16639W        W80363   9.206  11.216   4.232
16640W        W80364  13.188   7.173   2.855
16641W        W80365  37.535   8.710   4.835
16642W        W80366  36.871   6.423   2.903
16643W        W80367   3.830  34.063  13.400
16644W        W80368  27.167  31.123  14.437
16645W        W80369  13.272  35.881  14.836
16646W        W80370   4.356  30.008  11.489
16647W        W80371   2.910  30.585   0.965
16648W        W80372   5.210   1.815   2.325
16649W        W80373   6.798  12.713  10.513
16650W        W80374   7.354   2.375  10.892
16651W        W80375  11.684  33.935   1.319
16652W        W80376  43.932  32.047  13.444
16653W        W80377  27.600   3.256   2.707
16654W        W80378  41.882  17.183   0.401
16655W        W80379   0.388   8.804  12.497
16656W        W80380  35.854  12.270  14.359
16657W        W80381  11.705  24.542   0.830
16658W        W80382  29.567  17.586  10.525
16659W        W80383   0.333   8.370  14.919
16660W        W80384  40.016  37.079  11.013
16661W        W80385  23.054  12.703   1.306
16662W        W80386  36.969  32.091  10.897
16663W        W80387   7.837  32.624   4.190
16664W        W80388   5.272  37.073   1.347
16665W        W80389  18.174  31.428   4.139
16666W        W80390  32.930  21.543  13.436
16667W        W80391  18.199   5.320  14.959
16668W        W80392  25.097   6.710   1.852
16669W        W80393  21.085   8.778  11.446
16670W        W80394  25.668   4.936  12.915
16671W        W80395  34.008   7.184  12.082
16672W        W80396  28.953  12.192  13.016
16673W        W80397  37.024  41.473   1.355
16674W        W80398  20.574  11.355   0.852
16675W        W80399   6.747  20.144  14.941
16676W        W80400  23.664  25.585  14.483
16677W        W80401  20.557   4.410   0.858
16678W        W80402  35.977   4.277   4.754
16679W        W80403   1.940  27.564  14.938
16680W        W80404  41.444  36.085  13.885
16681W        W80405  16.093  14.724  12.493
16682W        W80406  43.988   1.393  11.499
16683W        W80407  27.459  32.400   2.887
16684W        W80408  31.527  20.539  11.498
16685W        W80409   4.447  18.740  12.557
16686W        W80410  30.067   1.301  12.973
16687W        W80411   1.879  36.534  10.957
16688W        W80412  15.230  11.128   4.151
16689W        W80413  23.189  27.678  13.421
16690W        W80414  22.633   3.919  13.795
16691W        W80415  34.050  14.795  13.989
16692W        W80416  38.529   6.737  14.798
16693W        W80417  25.044  15.703   0.757
16694W        W80418  42.344  13.298   3.765
16695W        W80419  12.798  44.463   3.673
16696W        W80420  41.524  39.915   3.271
16697W        W80421  14.614  38.995   2.882
16698W        W80422  32.126  16.590  14.977
16699W        W80423  21.691  40.924  10.906
16700W        W80424  35.920  13.661   2.336
16701W        W80425   7.407  19.559  13.327
16702W        W80426  17.579  31.970  14.283
16703W        W80427  30.474  41.970   0.806
16704W        W80428   3.373  37.458   3.367
16705W        W80429  18.068  23.088  11.376
16706W        W80430  42.324  40.319  12.917
16707W        W80431  22.576  40.950   0.951
16708W        W80432   6.920  38.982  14.781
16709W        W80433  24.619  40.835   3.217
16710W        W80434  41.517  32.028   1.745
16711W        W80435  41.315  43.851   4.294
16712W        W80436  43.878  25.490  12.482
16713W        W80437  19.726   2.442  12.509
16714W        W80438  17.119   9.654   2.201
16715W        W80439  27.518  29.667   2.736
16716W        W80440   5.793  24.483  13.840
16717W        W80441  16.159  22.083  12.579
16718W        W80442  35.854  34.567  13.864
16719W        W80443  42.834  41.337   4.183
16720W        W80444  33.919  15.153  11.608
16721W        W80445   7.872   6.398   0.381
16722W        W80446   9.153  20.709  13.456
16723W        W80447  32.917  32.415   2.327
16724W        W80448  17.752  36.589   1.771
16725W        W80449  18.555  16.575   2.880
16726W        W80450  36.892   7.298   3.864
16727W        W80451   8.244  10.684  13.383
16728W        W80452  34.398  22.203   1.262
16729W        W80453  18.130  26.509  14.920
16730W        W80454  27.101  37.449  11.593
16731W        W80455  16.238  25.596   3.273
16732W        W80456  44.408  27.457  13.336
16733W        W80457  43.989  17.140  12.875
16734W        W80458   1.922   9.344  11.572
16735W        W80459  17.710  32.971   4.765
16736W        W80460  18.790   6.378   1.771
16737W        W80461   7.898  31.062  13.340
16738W        W80462  26.972  35.061  13.543
16739W        W80463  22.159  14.308   4.265
16740W        W80464  40.320  15.758   5.182
16741W        W80465  33.623  25.032  12.073
16742W        W80466  10.331  40.835   4.118
16743W        W80467  15.149  40.875   1.808
16744W        W80468  19.694   4.915  11.430
16745W        W80469  21.636   0.984   0.428
16746W        W80470   1.774  32.046  13.055
16747W        W80471   6.743  25.194   1.361
16748W        W80472  23.121  44.009  13.028
16749W        W80473  22.693  39.345  12.526
16750W        W80474  21.738  11.850   4.322
16751W        W80475  37.875  40.054   3.310
16752W        W80476   9.778  12.700  10.012
16753W        W80477   8.268   2.307   2.688
16754W        W80478  13.317  18.215  14.425
16755W        W80479  19.758  11.750   1.751
16756W        W80480  27.640   7.736   9.924
16757W        W80481   1.291   2.445   3.646
16758W        W80482   9.222  35.932   2.763
16759W        W80483  24.531   8.304   4.752
16760W        W80484   3.897   6.225  12.535
16761W        W80485  43.333  35.945   9.559
16762W        W80486  21.537  31.915   3.705
16763W        W80487   1.318  23.661  11.084
16764W        W80488  30.064  42.901  10.996
16765W        W80489   4.780  41.915  11.995
16766W        W80490  19.110  42.526   3.824
16767W        W80491   3.933  33.508   4.335
16768W        W80492  40.528  21.046   1.800
16769W        W80493  40.512  30.989   0.784
16770W        W80494  44.800   8.737   0.778
16771W        W80495   4.932  31.496  11.127
16772W        W80496  36.079  14.177  11.868
16773W        W80497   2.330   4.430   3.640
16774W        W80498  29.952  43.003   3.293
16775W        W80499  40.436  21.637  11.897
16776W        W80500   7.905   2.876  13.477
16777W        W80501  24.646  20.563   0.853
16778W        W80502  21.230  38.921   0.806
16779W        W80503   8.384  30.505   4.666
16780W        W80504  33.394  29.533   3.208
16781W        W80505   6.903  11.763  12.836
16782W        W80506  41.507  28.629  12.939
16783W        W80507  25.042  41.860   5.100
16784W        W80508  39.384  23.061  13.064
16785W        W80509   1.446  11.289  11.592
16786W        W80510  10.193   0.750   0.813
16787W        W80511  40.324  16.650   3.813
16788W        W80512  42.432  40.522   4.667
16789W        W80513  33.030  11.241   2.227
16790W        W80514  21.178  18.691  10.946
16791W        W80515  13.762  27.052  13.901
16792W        W80516  39.392  21.580  13.455
16793W        W80517  19.075  31.633  13.320
16794W        W80518  40.342  23.702  14.891
16795W        W80519  38.503  42.318   1.321
16796W        W80520  39.058  25.579  13.016
16797W        W80521   2.258   2.278   3.850
16798W        W80522  21.239  34.449   3.784
16799W        W80523  43.450  43.304   0.409
16800W        W80524  34.051  41.309  14.768
16801W        W80525  33.098  16.573  14.873
16802W        W80526  44.966  10.732   1.414
16803W        W80527  23.122  12.638   4.133
16804W        W80528  26.194   3.868   2.231
16805W        W80529  36.053  30.599   2.794
16806W        W80530  19.092  33.921  14.363
16807W        W80531   0.397  39.394   1.839
16808W        W80532  11.725   2.309  11.566
16809W        W80533  23.048  29.035  11.533
16810W        W80534  33.581  29.480   2.832
16811W        W80535  42.007  12.248   0.965
16812W        W80536  42.419  44.451  13.352
16813W        W80537   5.870  16.732   2.789
16814W        W80538   3.406  35.027  11.997
16815W        W80539  22.683  38.513  10.975
16816W        W80540  17.757  26.121  11.538
16817W        W80541   9.791  28.186   3.772
16818W        W80542  44.924   5.343   0.816
16819W        W80543  37.580  35.993   1.773
16820W        W80544   4.254  40.464  11.487
16821W        W80545  13.228  16.238   1.782
16822W        W80546   6.272   4.810   3.348
16823W        W80547  32.106   7.317   3.331
16824W        W80548  31.540  14.184  13.459
16825W        W80549  36.046   2.344  12.949
16826W        W80550  16.212  35.943  14.030
16827W        W80551  22.567  40.373  13.949
16828W        W80552  12.720   6.409  12.566
16829W        W80553  44.979  44.376  14.343
16830W        W80554  10.716  26.693  11.494
16831W        W80555  31.090  20.037   1.745
16832W        W80556  40.422  29.113   4.622
16833W        W80557  22.560  28.100   3.834
16834W        W80558  30.018  15.633  13.047
16835W        W80559  34.397  42.525  14.787
16836W        W80560  32.943  32.585  12.980
16837W        W80561  39.899  44.342   1.210
16838W        W80562  12.307  28.614   2.409
16839W        W80563  38.558  22.660   2.236
16840W        W80564  37.503  39.334   4.638
16841W        W80565  25.588  10.168  12.355
16842W        W80566  24.000  29.516  12.359
16843W        W80567  21.660  35.007   2.394
16844W        W80568   6.920  28.602  11.548
16845W        W80569   9.804  36.451  11.460
16846W        W80570  22.745  14.741   2.819
16847W        W80571  38.002  31.573   3.250
16848W        W80572   5.813  31.016  10.622
16849W        W80573   0.940  42.007  14.436
16850W        W80574  43.772   7.789  13.499
16851W        W80575  10.790  11.771   2.751
16852W        W80576   3.733  39.452  12.577
16853W        W80577   8.683  21.254  14.784
16854W        W80578   8.871  38.935  14.479
16855W        W80579  34.900  27.190  12.983
16856W        W80580  16.131  28.179  10.427
16857W        W80581  21.150  30.459  14.449
16858W        W80582  11.148   8.840  11.422
16859W        W80583  16.156  20.200  13.492
16860W        W80584   7.907  14.249   2.751
16861W        W80585  12.340  15.665  14.466
16862W        W80586   5.240  42.920   2.180
16863W        W80587  24.590  38.570  13.547
16864W        W80588  34.426   8.896   3.701
16865W        W80589  26.159  38.325  11.995
16866W        W80590  39.476  25.541  10.452
16867W        W80591  28.142  34.930  10.645
16868W        W80592  11.830   6.876   0.388
16869W        W80593  26.498  10.317   0.360
16870W        W80594  26.591  19.143   4.762
16871W        W80595  38.382  35.561   3.699
16872W        W80596  39.545  35.925   0.861
16873W        W80597  38.518  19.749  10.995
16874W        W80598  27.620   0.888  13.320
16875W        W80599  26.519  21.569   4.231
16876W        W80600   1.321   7.713  11.088
16877W        W80601  25.577  20.697  13.819
16878W        W80602  19.055  36.527  13.380
16879W        W80603  27.173  16.301   3.782
16880W        W80604   9.164  26.978   2.726
16881W        W80605  40.382  41.018   5.170
16882W        W80606  32.921  15.665   2.749
16883W        W80607  20.605  43.879   2.789
16884W        W80608  29.110   9.721   4.219
16885W        W80609  14.303  41.431  14.367
16886W        W80610  24.126  10.673   1.431
16887W        W80611  42.930  16.191  13.460
16888W        W80612  14.695  11.255   0.341
16889W        W80613  20.175  42.804   0.290
16890W        W80614   5.272  33.396  10.968
16891W        W80615   5.353  21.695   4.266
16892W        W80616   4.323  42.433  11.447
16893W        W80617  12.680  23.171  14.375
16894W        W80618  37.430  19.696  13.890
16895W        W80619  13.684  20.082  14.008
16896W        W80620  32.048  13.715  12.358
16897W        W80621  32.984  36.044   0.481
16898W        W80622  42.503  20.068  14.988
16899W        W80623  44.800  37.512  12.869
16900W        W80624  32.451  17.143   0.926
16901W        W80625   2.227  35.363  11.513
16902W        W80626  34.055  15.591   4.704
16903W        W80627  21.714  42.974   1.763
16904W        W80628   8.406  31.098  11.383
16905W        W80629  41.395  42.367   4.215
16906W        W80630   0.315  35.371  11.021
16907W        W80631  12.361  29.628   1.856
16908W        W80632  36.478  24.548  14.963
16909W        W80633  22.040  23.683  12.887
16910W        W80634   2.733  34.941   3.257
16911W        W80635  31.937  15.641  11.879
16912W        W80636  32.527   4.284   3.261
16913W        W80637  35.927  28.624  13.470
16914W        W80638  33.053   5.777   1.385
16915W        W80639   0.798   5.290  12.028
16916W        W80640  15.104  11.812   3.741
16917W        W80641  37.339   4.761  12.935
16918W        W80642  36.533   6.808   0.786
16919W        W80643  30.610  28.953  10.628
16920W        W80644   8.736  21.554   3.824
16921W        W80645  13.328  28.513  14.796
16922W        W80646  34.467  14.126   3.337
16923W        W80647   0.272  10.348   2.727
16924W        W80648  31.406  34.498  14.032
16925W        W80649   1.766  24.984  14.984
16926W        W80650  11.783  20.127   2.876
16927W        W80651   4.756  24.121  10.929
16928W        W80652  34.473   8.358   1.896
16929W        W80653  17.183  44.306  11.014
16930W        W80654  20.151  41.862  12.905
16931W        W80655  10.265  16.157  10.543
16932W        W80656  14.789  11.328   2.894
16933W        W80657  33.043  17.746  11.503
16934W        W80658  15.698   4.398   1.754
16935W        W80659  33.934  38.006   2.232
16936W        W80660  42.473   0.269  13.809
16937W        W80661  14.639  20.229  13.479
16938W        W80662   8.371  44.456  11.894
16939W        W80663  23.224   7.807  11.505
16940W        W80664  29.620  41.436  13.892
16941W        W80665  31.918  10.829  14.419
16942W        W80666  19.095  42.886  13.312
16943W        W80667  19.608  12.789  11.601
16944W        W80668  18.275  30.554  14.347
16945W        W80669  31.638   0.328   1.320
16946W        W80670  37.408   9.846   2.876
16947W        W80671   7.179  34.476   3.669
16948W        W80672   4.399  44.505  10.982
16949W        W80673  22.236  18.088  13.831
16950W        W80674   9.354  41.436  13.343
16951W        W80675  19.120  22.232  13.987
16952W        W80676  40.870   1.320  14.338
16953W        W80677  13.201  26.973  12.886
16954W        W80678  33.890   2.403  12.440
16955W        W80679  39.862  39.329  11.430
16956W        W80680  43.269   2.900   3.829
16957W        W80681  14.658  34.524  13.492
16958W        W80682  15.230  36.440   1.810
16959W        W80683   2.354   4.424   4.249
16960W        W80684  20.537  44.280   1.432
16961W        W80685  36.420  40.834   3.703
16962W        W80686  35.897  40.025  14.795
16963W        W80687  36.582  28.121  13.342
16964W        W80688  44.865   4.323   1.848
16965W        W80689  14.164  40.818   4.612
16966W        W80690   0.441  44.783  11.524
16967W        W80691  41.790  24.718   0.732
16968W        W80692  43.374  27.459  11.980
16969W        W80693   3.734  35.110  13.462
16970W        W80694  21.588  12.158   2.864
16971W        W80695  14.119  43.020  11.522
16972W        W80696   0.917   5.429  14.275
16973W        W80697  21.693   9.813   2.246
16974W        W80698  33.893  25.504   0.816
16975W        W80699  16.171  40.471   4.249
16976W        W80700  25.032  22.094  13.057
16977W        W80701  19.550  41.806   0.268
16978W        W80702   5.300  33.010  11.977
16979W        W80703   1.921  38.068  14.775
16980W        W80704  28.465  16.135  13.382
16981W        W80705  42.984  37.438   2.415
16982W        W80706  25.681  15.179   1.327
16983W        W80707  42.980  41.968   2.202
16984W        W80708   0.385  33.611  10.434
16985W        W80709  15.257  15.249  10.611
16986W        W80710  18.786  20.240   3.146
16987W        W80711  11.318  10.325  11.502
16988W        W80712  22.157  38.471   4.289
16989W        W80713  12.763   5.284   3.167
16990W        W80714  44.787  15.321  10.907
16991W        W80715  19.228  43.463  14.913
16992W        W80716  35.918   4.798   3.338
16993W        W80717  30.570   9.181   4.281
16994W        W80718  38.864  18.681  11.055
16995W        W80719  34.502  43.870   3.222
16996W        W80720  33.076  27.987   2.762
16997W        W80721  39.816  42.980  13.472
16998W        W80722  42.424  29.923  14.797
16999W        W80723   0.397  28.956   1.257
17000W        W80724   1.905  19.561   0.772
17001W        W80725   8.691  37.475  10.888
17002W        W80726  26.500  17.639  13.530
17003W        W80727   6.346   2.846  13.909
17004W        W80728  14.773  10.861  10.462
17005W        W80729  38.958   8.269  12.899
17006W        W80730  26.030  29.512  12.546
17007W        W80731  28.549  40.941  12.900
17008W        W80732   7.704  19.674  11.495
17009W        W80733   6.775  11.271  11.082
17010W        W80734  27.660  38.485   4.609
17011W        W80735   1.457   9.697  13.034
17012W        W80736  42.929  34.456   4.728
17013W        W80737  17.253  21.589  14.487
17014W        W80738   6.421  17.593   2.252
17015W        W80739  36.937  44.452   3.280
17016W        W80740  24.559  20.181   3.351
17017W        W80741  40.332  35.401  13.828
17018W        W80742  31.488  16.187   3.153
17019W        W80743  41.381  40.988  13.913
17020W        W80744  24.110  34.871   2.717
17021W        W80745  44.981  34.093  11.890
17022W        W80746  25.474  17.278   4.231
17023W        W80747  29.920  12.624  10.513
17024W        W80748  44.950   8.883   4.598
17025W        W80749   0.915  23.996   3.284
17026W        W80750  14.631   9.870  13.876
17027W        W80751  38.415  19.639   2.697
17028W        W80752  15.233  42.820   1.899
17029W        W80753  40.486  43.422   2.774
17030W        W80754  42.807  12.717   4.601
17031W        W80755  18.240   0.458  14.310
17032W        W80756  39.530  36.370   2.377
17033W        W80757  40.310  27.007  10.497
17034W        W80758  19.085  40.343   1.352
17035W        W80759  17.709  22.518   2.803
17036W        W80760  16.222  42.901  13.819
17037W        W80761  44.477  14.618  12.880
17038W        W80762  31.069  10.781   3.152
17039W        W80763  24.983  42.320  11.069
17040W        W80764   4.735  12.348  14.762
17041W        W80765  20.268  25.491  13.308
17042W        W80766  11.184  30.629   3.783
17043W        W80767  31.109   8.843  10.529
17044W        W80768  38.003  39.998  14.019
17045W        W80769  28.077  32.962  13.421
17046W        W80770  22.245  32.516  11.468
17047W        W80771  27.537  29.576   3.362
17048W        W80772  34.579  22.609  11.412
17049W        W80773  17.743  31.050  10.949
17050W        W80774  40.869  11.306   4.804
17051W        W80775   7.365   8.181  11.604
17052W        W80776  12.311  30.160   0.258
17053W        W80777   3.403  33.068   2.816
17054W        W80778  24.207   2.894  13.483
17055W        W80779  43.371  44.329   3.684
17056W        W80780  27.649  44.486   3.160
17057W        W80781  40.845  34.501   4.745
17058W        W80782  17.612  20.238  13.932
17059W        W80783   4.285  43.902  12.829
17060W        W80784   7.677  13.116  11.609
17061W        W80785  36.051  19.596   1.217
17062W        W80786  39.540  21.540  14.442
17063W        W80787  25.191  44.906  10.626
17064W        W80788  22.096  16.291   0.863
17065W        W80789  44.956  31.008  14.984
17066W        W80790  42.461  30.453   1.438
17067W        W80791   7.704   7.213   4.760
17068W        W80792  41.332   2.299  12.915
17069W        W80793  41.314  23.625   2.294
17070W        W80794   3.842  27.547   2.375
17071W        W80795  25.032   6.794   3.867
17072W        W80796   6.237  17.578   2.778
17073W        W80797  29.459  33.562  12.459
17074W        W80798  32.457  24.596   0.363
17075W        W80799  35.058  37.453   4.170
17076W        W80800  20.070  35.970  11.962
17077W        W80801  43.967  30.460   4.694
17078W        W80802  15.648  34.893   3.658
17079W        W80803  20.169   6.200  13.929
17080W        W80804  44.901  35.961   1.893
17081W        W80805  16.578  40.983   1.365
17082W        W80806   5.914   6.723   4.706
17083W        W80807  28.558  39.556   0.427
17084W        W80808   4.446  44.407  14.515
17085W        W80809  20.103  32.132   4.265
17086W        W80810   8.247  21.671  12.981
17087W        W80811  19.679   9.889  13.814
17088W        W80812  23.639   9.805  13.829
17089W        W80813  27.943  39.455  13.889
17090W        W80814  28.651  40.907   4.673
17091W        W80815  17.577  43.941  13.386
17092W        W80816  42.432  20.084   1.827
17093W        W80817   2.733  28.972   1.782
17094W        W80818  34.102  16.253  10.565
17095W        W80819  41.417  20.241   2.349
17096W        W80820  43.370  34.891  10.610
17097W        W80821  27.663   4.745   0.791
17098W        W80822  35.474  39.473   2.778
17099W        W80823  24.218  22.649  14.851
17100W        W80824  42.803  38.854  10.142
17101W        W80825  10.295  16.223   2.842
17102W        W80826  38.939  25.043  10.002
17103W        W80827   7.855  17.283  14.306
17104W        W80828  33.470  34.968  11.948
17105W        W80829  33.897  26.635  12.399
17106W        W80830  29.002  42.449   2.894
17107W        W80831  40.316  19.552  10.457
17108W        W80832   3.215  17.642   4.310
17109W        W80833  38.865  37.421  13.386
17110W        W80834  31.898  13.345   5.278
17111W        W80835  15.592  26.128  11.129
17112W        W80836  12.198  10.169  13.372
17113W        W80837  26.074  34.102  10.434
17114W        W80838   0.890   9.832   4.674
17115W        W80839  10.235   7.338   1.841
17116W        W80840  34.904  30.459   0.967
17117W        W80841  11.331  22.718   0.356
17118W        W80842  31.550  42.902   3.222
17119W        W80843  32.057  22.563  12.897
17120W        W80844  42.024   3.828   2.752
17121W        W80845  44.000  20.249   4.751
17122W        W80846   2.278  11.696  10.446
17123W        W80847  11.742   9.734  13.929
17124W        W80848  22.554  37.579   2.358
17125W        W80849  32.636   9.250   2.833
17126W        W80850  36.041  31.029  13.800
17127W        W80851  20.213  18.057   3.377
17128W        W80852  42.980  23.137  10.910
17129W        W80853  43.952  32.949   2.809
17130W        W80854   9.889  10.734   9.997
17131W        W80855  26.157  23.576  14.945
17132W        W80856  30.967  12.662   5.319
17133W        W80857   6.289  14.687  12.946
17134W        W80858  14.660   1.741   3.357
17135W        W80859  18.102  38.858   4.674
17136W        W80860  21.214  31.624   2.713
17137W        W80861   6.853  33.979  12.531
17138W        W80862  34.506  22.028   2.850
17139W        W80863  31.627  19.555   4.352
17140W        W80864  32.450  20.550  11.471
17141W        W80865   0.776   4.439  11.063
17142W        W80866  38.926  23.067   5.719
17143W        W80867  10.744   6.286   3.645
17144W        W80868  37.926  34.394   0.389
17145W        W80869   7.302   4.233  13.048
17146W        W80870  12.168   5.305  13.832
17147W        W80871   8.298  38.046  14.868
17148W        W80872  13.731  12.304  10.425
17149W        W80873  21.587  36.508  13.906
17150W        W80874  23.666  11.788   0.945
17151W        W80875   2.749  11.758   0.244
17152W        W80876   4.807   9.273  10.891
17153W        W80877  34.083  32.058  12.383
17154W        W80878  24.168  29.426  10.956
17155W        W80879  11.235  43.426   3.200
17156W        W80880   4.810  38.057  10.428
17157W        W80881  25.497   3.366  12.833
17158W        W80882  28.094   5.206   1.307
17159W        W80883  22.053   2.332  13.388
17160W        W80884  27.661  11.318  12.093
17161W        W80885   4.219  37.382   0.816
17162W        W80886  44.351  10.227  11.957
17163W        W80887  35.920  43.014  12.495
17164W        W80888  20.628  15.777  14.320
17165W        W80889   8.326  16.170  11.958
17166W        W80890  43.998   9.206  12.844
17167W        W80891   9.818  31.079  13.806
17168W        W80892  11.250  24.124  12.571
17169W        W80893  35.931   5.253  13.022
17170W        W80894  14.661  30.617   0.750
17171W        W80895   3.352   7.229   0.902
17172W        W80896   5.313  36.861  14.496
17173W        W80897  13.767  38.428   1.712
17174W        W80898   7.387  18.079   3.289
17175W        W80899   8.701  15.186   2.874
17176W        W80900  21.213  15.258  13.964
17177W        W80901  20.255  37.005  11.421
17178W        W80902  20.530  18.592   0.929
17179W        W80903  12.131  41.856  13.986
17180W        W80904  37.070  13.779  11.549
17181W        W80905  36.000   0.744   3.868
17182W        W80906  15.295  41.450  14.419
17183W        W80907  36.863  21.622  14.496
17184W        W80908  25.055  11.681  15.000
17185W        W80909  20.177  37.997   0.752
17186W        W80910   3.216  29.138  13.379
17187W        W80911  34.029   8.766   2.846
17188W        W80912  30.640  43.391   1.449
17189W        W80913  28.021  26.594   2.735
17190W        W80914  44.885  31.022   4.327
17191W        W80915  40.041  29.637   2.246
17192W        W80916  44.849  28.607   4.306
17193W        W80917  16.693  23.566   3.751
17194W        W80918   6.904  40.478  10.482
17195W        W80919   3.767   4.887   4.744
17196W        W80920  31.009   2.908   4.715
17197W        W80921  24.546  28.939   0.328
17198W        W80922  11.745  29.627   5.202
17199W        W80923   8.277  23.512  14.318
17200W        W80924  43.913  30.009  10.405
17201W        W80925  19.696  43.356  11.412
17202W        W80926  22.034  11.224  13.969
17203W        W80927  15.239  26.524  10.925
17204W        W80928  23.674  13.175   1.857
17205W        W80929   1.298  30.518   3.273
17206W        W80930   5.206   5.784   1.854
17207W        W80931   2.848  17.602   1.217
17208W        W80932  20.694   6.311  11.462
17209W        W80933  20.204  35.399  11.599
17210W        W80934  12.350  10.228  10.422
17211W        W80935  31.559   7.740  13.389
17212W        W80936   7.323  10.689   1.211
17213W        W80937  40.904  42.409   0.810
17214W        W80938  13.121  43.904   3.700
17215W        W80939  44.839  40.452  10.938
17216W        W80940  39.484   3.232   2.418
17217W        W80941  27.949   1.321  12.547
17218W        W80942  11.764  10.682  14.308
17219W        W80943  24.627   8.740   2.319
17220W        W80944   3.258  43.921   0.916
17221W        W80945  27.169  34.884   4.687
17222W        W80946  35.559  13.831   0.794
17223W        W80947  23.602   2.311   2.788
17224W        W80948  14.694  31.448  13.367
17225W        W80949  27.079  10.751   1.879
17226W        W80950   8.337   8.768  11.881
17227W        W80951  18.154   4.751  12.923
17228W        W80952  40.828  40.326   3.182
17229W        W80953  15.583  22.230   4.294
17230W        W80954  16.670  16.740  11.979
17231W        W80955  13.832  39.319   2.385
17232W        W80956  15.675   4.259  11.436
17233W        W80957  10.672  37.569   3.687
17234W        W80958  28.181  22.007   2.876
17235W        W80959  35.380  10.278  11.033
17236W        W80960  18.242   5.305  13.030
17237W        W80961  29.936   6.875   2.267
17238W        W80962  25.970  26.048   4.720
17239W        W80963   0.378  28.490  14.920
17240W        W80964  26.115  15.604  13.026
17241W        W80965  28.141   7.232   0.788
17242W        W80966  15.234  12.123   1.711
17243W        W80967  34.390   0.799  13.947
17244W        W80968  39.387  29.062   4.830
17245W        W80969   4.710  25.528   0.260
17246W        W80970   8.718  42.903   2.271
17247W        W80971  43.978  36.472  11.430
17248W        W80972   5.428  17.707  11.533
17249W        W80973  15.663  43.764  11.558
17250W        W80974  40.364  32.512   0.914
17251W        W80975  31.080   5.879  14.803
17252W        W80976  34.050  19.680  14.422
17253W        W80977  19.051  24.092  13.834
17254W        W80978  14.815  27.618  14.927
17255W        W80979  31.626  12.260   1.380
17256W        W80980  21.247  44.788  10.463
17257W        W80981  31.638  18.167   3.319
17258W        W80982   6.721  13.775  14.323
17259W        W80983   7.684  42.803  10.615
17260W        W80984  30.991  26.645   1.818
17261W        W80985  17.647   0.754   1.305
17262W        W80986  28.127   1.265  13.327
17263W        W80987  25.659  41.845  11.408
17264W        W80988  29.072  26.478  13.831
17265W        W80989   6.892  42.981  12.826
17266W        W80990  11.644  34.485   0.255
17267W        W80991   3.763  18.290  12.020
17268W        W80992  41.500  28.106  10.567
17269W        W80993  39.383  18.613  13.793
17270W        W80994  10.658  20.165  11.450
17271W        W80995  26.012  39.022   0.904
17272W        W80996  39.038  37.044   0.368
17273W        W80997   7.331  41.974   2.824
17274W        W80998  34.898  36.913   1.727
17275W        W80999  28.493  27.034   0.780
17276W        W81000  43.501  17.250   0.963
17277W        W81001  38.952  19.146  10.948
17278W        W81002   6.802  42.374  11.997
17279W        W81003  14.716  13.780  14.946
17280W        W81004  37.843   3.318  14.438
17281W        W81005  40.947  23.146   0.899
17282W        W81006  12.715   6.320   1.317
17283W        W81007  10.160   0.962  12.400
17284W        W81008  38.889  23.703  12.089
17285W        W81009  19.535  21.735   1.287
17286W        W81010   4.214  39.346  11.456
17287W        W81011  19.756  21.549   4.219
17288W        W81012  27.195  11.789   4.677
17289W        W81013  41.869  26.125  11.017
17290W        W81014  22.021  20.127  11.452
17291W        W81015  40.336  40.348   4.258
17292W        W81016  24.536  27.010  13.450
17293W        W81017  34.472  41.389   3.862
17294W        W81018  41.862  44.298   3.638
17295W        W81019  12.322  24.046  14.032
17296W        W81020  25.647  41.800  12.458
17297W        W81021   1.868  43.953  10.947
17298W        W81022  15.198  12.658   3.317
17299W        W81023  44.262   7.285   0.392
17300W        W81024  39.358  25.577  13.530
17301W        W81025  43.398  22.028  12.504
17302W        W81026  18.191  38.832   2.373
17303W        W81027  20.254  13.826   2.875
17304W        W81028  17.602   6.209   1.917
17305W        W81029  36.481  41.517   2.841
17306W        W81030   2.406  29.007  14.427
17307W        W81031  21.741  15.621   9.996
17308W        W81032  37.005   2.271  14.873
17309W        W81033  14.832   2.803   1.271
17310W        W81034   6.346   2.770   1.229
17311W        W81035  16.166  21.027   4.636
17312W        W81036   0.488  39.351   2.312
17313W        W81037  36.511  22.571   4.625
17314W        W81038  37.474  12.623   2.842
17315W        W81039  21.020  39.459  14.485
17316W        W81040   5.787  11.682  11.090
17317W        W81041  24.519   0.902   2.701
17318W        W81042  15.772  10.804   2.223
17319W        W81043  13.278  29.489  13.015
17320W        W81044  37.006   2.349   4.180
17321W        W81045  25.611  16.212   4.268
17322W        W81046  21.135   4.762   2.665
17323W        W81047  15.712  29.496  14.870
17324W        W81048   5.872  35.029   3.261
17325W        W81049   7.315   6.801   3.364
17326W        W81050  19.175  30.911  11.458
17327W        W81051  22.144   1.297   1.830
17328W        W81052   9.279  23.620  13.825
17329W        W81053  34.068  27.164   3.291
17330W        W81054  36.072   3.284  10.592
17331W        W81055  18.249  25.570  10.517
17332W        W81056  16.229   3.872   5.083
17333W        W81057  21.611  36.516   2.350
17334W        W81058  32.982  20.230   3.665
17335W        W81059  14.202  25.113  13.482
17336W        W81060  34.871   4.775  11.392
17337W        W81061  40.907  24.113  14.831
17338W        W81062  30.444   6.265   3.169
17339W        W81063  19.080  32.890   0.911
17340W        W81064  14.220   3.459  12.561
17341W        W81065  42.826   4.842  10.976
17342W        W81066  21.590  25.485  12.993
17343W        W81067  26.685   9.887  13.344
17344W        W81068  23.119  32.461  11.861
17345W        W81069  35.072  43.407   0.249
17346W        W81070  12.192   6.397   4.655
17347W        W81071  35.999  30.045   3.763
17348W        W81072  27.082  27.099   2.267
17349W        W81073  18.610  37.428   5.297
17350W        W81074  44.966  31.596   3.220
17351W        W81075   4.854  41.356   0.879
17352W        W81076   6.282  17.072   3.822
17353W        W81077  44.890   7.250   1.880
17354W        W81078  21.576  43.843  14.985
17355W        W81079  15.144   6.197   5.727
17356W        W81080  42.884  40.535  13.313
17357W        W81081   5.370  37.368  12.353
17358W        W81082  32.631  38.995   0.268
17359W        W81083  41.437  10.203  12.908
17360W        W81084  43.826  37.478   3.302
17361W        W81085  37.540  44.362  10.939
17362W        W81086  10.176   0.284  11.413
17363W        W81087  34.476   0.781  14.938
17364W        W81088  30.568  43.508   1.717
17365W        W81089   1.839   8.292   0.353
17366W        W81090  28.034  39.408  10.923
17367W        W81091   1.740   7.887   4.778
17368W        W81092  28.032  13.295   0.441
17369W        W81093  33.555  32.586  10.946
17370W        W81094  22.062  35.369  12.957
17371W        W81095  24.118  39.841  10.894
17372W        W81096  31.950   5.732   3.183
17373W        W81097  22.632  22.675  11.606
17374W        W81098  24.066  19.207  11.528
17375W        W81099  27.137   9.750   1.711
17376W        W81100   7.373  19.630  14.426
17377W        W81101  22.579  33.036  13.796
17378W        W81102  22.627  20.146   3.708
17379W        W81103  23.535  43.406   1.266
17380W        W81104  41.860   2.736  12.961
17381W        W81105  44.817   0.795  10.517
17382W        W81106  24.017  41.976  12.051
17383W        W81107  19.665  39.543   3.682
17384W        W81108  21.125  40.471  12.057
17385W        W81109  30.592  31.962  13.994
17386W        W81110  30.564  28.598   3.303
17387W        W81111  11.677  24.609  10.521
17388W        W81112  17.652  24.576  12.828
17389W        W81113  12.855  15.805   0.277
17390W        W81114  22.200  25.116   1.763
17391W        W81115  23.229   9.264  12.893
17392W        W81116  21.718  18.604   2.203
17393W        W81117  29.606  30.578  14.439
17394W        W81118  27.647  41.480  10.552
17395W        W81119  39.419  44.304   0.375
17396W        W81120  28.112  10.211   0.298
17397W        W81121  18.753  42.449   3.636
17398W        W81122  23.561   1.389   1.413
17399W        W81123  14.179   8.267   2.316
17400W        W81124  44.388  18.554   2.696
17401W        W81125  17.741  17.558   0.404
17402W        W81126  30.644  40.432   0.266
17403W        W81127  24.084  18.295   1.389
17404W        W81128  32.612  21.102  10.959
17405W        W81129  35.096   2.413  10.545
17406W        W81130  39.469  10.858   3.153
17407W        W81131  19.680   0.395  14.929
17408W        W81132   2.340  28.668  14.813
17409W        W81133  26.626   6.850   5.108
17410W        W81134  15.255  24.980   2.764
17411W        W81135  15.650  31.019  12.046
17412W        W81136   8.248  40.334   4.206
17413W        W81137  24.720  31.530  11.875
17414W        W81138  17.662   6.898  12.842
17415W        W81139  16.760  35.031   2.247
17416W        W81140  35.391  31.600   0.457
17417W        W81141  35.053   7.665  11.896
17418W        W81142  35.544  38.075   2.250
17419W        W81143  10.841  41.795   0.905
17420W        W81144  19.216  13.751  14.933
17421W        W81145   9.713  36.972  10.446
17422W        W81146   8.218  26.636   2.667
17423W        W81147  28.678  25.667   2.873
17424W        W81148  17.764  28.026   4.258
17425W        W81149  16.720  17.792  11.887
17426W        W81150   9.181   2.341  13.372
17427W        W81151   9.858  30.625  14.403
17428W        W81152  10.815  37.549   1.830
17429W        W81153   5.320   3.225   2.799
17430W        W81154  37.563  14.206   2.881
17431W        W81155  28.171  32.060   0.288
17432W        W81156  32.007   4.344  11.924
17433W        W81157  30.450  27.030  10.907
17434W        W81158  31.430  33.075  10.600
17435W        W81159  13.158  20.166  13.817
17436W        W81160   7.808  28.569  12.502
17437W        W81161  43.515  43.509   4.758
17438W        W81162  24.612  33.574   0.294
17439W        W81163   3.420  28.946   0.921
17440W        W81164  29.445  39.333  12.949
17441W        W81165  43.295  30.587  13.488
17442W        W81166  21.045  37.475  10.016
17443W        W81167  34.518  29.073  13.488
17444W        W81168  30.474  16.285  12.342
17445W        W81169  36.400  19.628   4.323
17446W        W81170   8.400  31.076  14.310
17447W        W81171   6.910  14.606   9.493
17448W        W81172  21.518  41.532   9.482
17449W        W81173  15.101  30.964  14.376
17450W        W81174  20.753  16.680  12.454
17451W        W81175  30.059  18.104  11.121
17452W        W81176  26.570  22.501   1.842
17453W        W81177  42.432  39.022   2.694
17454W        W81178  24.045   1.916   5.167
17455W        W81179  34.905   4.249  12.479
17456W        W81180  30.532  26.504  11.595
17457W        W81181   3.320  39.486   4.171
17458W        W81182  38.558  10.849  14.277
17459W        W81183  39.316  12.182   4.139
17460W        W81184  20.240  28.936  11.493
17461W        W81185  34.060  28.175   2.825
17462W        W81186  38.537  12.209   4.263
17463W        W81187  23.104  20.196   0.932
17464W        W81188  12.302   2.449   1.440
17465W        W81189  32.513   0.853   2.748
17466W        W81190   8.730  42.380   4.242
17467W        W81191  21.673  41.328   0.916
17468W        W81192   6.693   1.418   1.211
17469W        W81193  43.932  36.882  12.356
17470W        W81194   9.263  18.653  11.054
17471W        W81195   8.891  27.992  11.560
17472W        W81196  17.641  11.699   0.395
17473W        W81197  12.838  23.600   4.324
17474W        W81198   1.738   2.915  11.531
17475W        W81199   2.450  15.718  13.841
17476W        W81200  44.776  25.605   2.852
17477W        W81201  25.124   7.336   1.219
17478W        W81202  13.203  31.616  14.998
17479W        W81203   1.859  37.853  13.958
17480W        W81204  36.399  24.702   1.868
17481W        W81205  12.325  17.596   1.847
17482W        W81206   4.445  17.232  12.363
17483W        W81207  42.525   2.375  11.958
17484W        W81208  13.270  11.623   3.717
17485W        W81209  24.618  15.105  12.025
17486W        W81210   2.781  16.148   2.241
17487W        W81211  28.471  29.000  14.764
17488W        W81212   4.304  30.114   4.719
17489W        W81213  40.932   0.463   0.320
17490W        W81214  34.543  40.394   0.367
17491W        W81215  30.614  15.289   4.721
17492W        W81216  21.080  21.750  13.928
17493W        W81217  42.996  39.349  13.416
17494W        W81218  41.855  42.986  12.012
17495W        W81219   7.678  42.887  10.091
17496W        W81220  33.597   2.964  12.383
17497W        W81221  17.797  35.039  14.863
17498W        W81222  16.198  33.905  11.430
17499W        W81223  10.862  19.737  10.995
17500W        W81224  19.165  10.177   3.680
17501W        W81225  38.855  28.079   1.869
17502W        W81226  18.633  27.546   2.246
17503W        W81227  26.164  33.548   1.777
17504W        W81228  18.571  11.788  14.821
17505W        W81229  24.977  28.452   2.280
17506W        W81230  22.083  41.959   0.363
17507W        W81231  33.987  21.686  14.885
17508W        W81232  33.598   3.260   0.465
17509W        W81233   6.267   0.797  11.609
17510W        W81234   5.335   9.268   2.397
17511W        W81235   3.728   0.945  11.999
17512W        W81236  22.111  28.468  14.018
17513W        W81237  25.496  34.491   2.709
17514W        W81238  31.470  13.194   1.417
17515W        W81239   9.659   8.248  11.508
17516W        W81240   4.893  42.306   1.709
17517W        W81241   0.885  15.665   2.765
17518W        W81242   4.832  16.756   3.655
17519W        W81243  40.439  41.950   2.208
17520W        W81244  19.775  14.336  13.335
17521W        W81245  39.028  21.536  12.544
17522W        W81246   0.867   7.278   1.847
17523W        W81247  13.657  34.568  12.392
17524W        W81248  32.945  12.184   2.348
17525W        W81249  35.453  35.094   3.164
17526W        W81250  30.443   9.375   0.757
17527W        W81251  36.582  38.873  11.445
17528W        W81252  14.247  15.738  14.761
17529W        W81253  26.510  39.454  13.807
17530W        W81254  13.225  24.502   4.152
17531W        W81255  26.173  10.352  10.070
17532W        W81256   4.886  36.584   1.222
17533W        W81257  29.458  28.648   0.322
17534W        W81258  12.748  10.637  13.417
17535W        W81259  31.982   8.226  10.503
17536W        W81260  16.209   3.426  12.003
17537W        W81261  19.090  20.724  12.047
17538W        W81262  21.667   0.899  10.940
17539W        W81263  31.916  17.065  12.449
17540W        W81264   3.942  32.548   3.651
17541W        W81265   6.366  11.791   2.397
17542W        W81266  41.499  13.806  11.429
17543W        W81267  15.762  40.810  13.853
17544W        W81268  15.714  36.894  10.639
17545W        W81269  26.526  44.385  14.446
17546W        W81270  19.206  16.691  14.300
17547W        W81271   2.767   1.340   1.450
17548W        W81272  22.733   6.184  10.017
17549W        W81273  11.769  44.965   1.861
17550W        W81274   2.914   3.937  11.872
17551W        W81275   5.401   4.364   2.318
17552W        W81276  18.281  19.238   1.317
17553W        W81277  15.601  30.022  14.303
17554W        W81278   2.293  17.071   0.460
17555W        W81279  43.434   8.390  14.368
17556W        W81280  38.371   2.321   1.274
17557W        W81281   4.838  24.639   2.728
17558W        W81282   6.282  27.042   1.422
17559W        W81283  34.996  35.369   1.792
17560W        W81284  15.742  19.612  10.891
17561W        W81285  15.747   0.385  14.421
17562W        W81286  41.884  33.402  13.929
17563W        W81287  23.492  11.654   3.275
17564W        W81288  10.206  20.659  10.075
17565W        W81289  20.154   3.946  13.448
17566W        W81290  11.753  31.576  14.933
17567W        W81291  27.571   4.699   2.354
17568W        W81292  30.526  44.001   2.671
17569W        W81293  39.025  42.009  13.334
17570W        W81294  36.502  10.320  12.889
17571W        W81295  28.652  26.142   4.687
17572W        W81296  21.200  18.570   0.844
17573W        W81297   7.285  17.218  13.937
17574W        W81298  37.479  24.011  11.440
17575W        W81299  21.115  13.262   2.397
17576W        W81300  38.569  23.052  10.521
17577W        W81301  22.134  39.835  12.858
17578W        W81302  33.584  39.407  13.955
17579W        W81303  18.591  20.522   2.196
17580W        W81304  36.529  25.641  13.355
17581W        W81305  10.834  40.384  14.847
17582W        W81306  36.851   1.852  12.519
17583W        W81307  25.097  33.482   2.355
17584W        W81308  27.462   4.207  14.307
17585W        W81309  44.772  23.715   0.731
17586W        W81310  37.868   0.918  13.931
17587W        W81311  10.815   1.829  11.441
17588W        W81312   6.844  26.041   4.189
17589W        W81313  21.747  15.237  14.778
17590W        W81314  12.630  12.640   3.369
17591W        W81315  10.311  14.731   0.399
17592W        W81316  39.551   8.816  14.928
17593W        W81317   2.413   8.357   1.402
17594W        W81318  32.485   0.277   0.391
17595W        W81319  42.012  17.262  11.947
17596W        W81320  40.036  20.635   1.230
17597W        W81321   3.230  17.290  12.554
17598W        W81322  19.279  35.390  13.808
17599W        W81323  32.415  41.367  10.406
17600W        W81324  29.106  16.715   0.788
17601W        W81325  13.343  31.646  12.437
17602W        W81326  12.227  41.330  10.643
17603W        W81327  24.003  40.363   4.822
17604W        W81328  20.174  31.569  12.521
17605W        W81329  23.726  27.995  11.470
17606W        W81330  17.662   8.386   4.228
17607W        W81331   4.769   9.188   3.740
17608W        W81332   1.319  35.925  14.806
17609W        W81333  20.114  41.864  12.493
17610W        W81334  18.732  38.037  11.416
17611W        W81335   5.256  12.772  10.923
17612W        W81336  31.645  40.353   4.217
17613W        W81337  34.930  10.329  13.876
17614W        W81338  25.115  19.125  13.879
17615W        W81339   9.732  36.065  12.355
17616W        W81340  40.909  13.734  13.499
17617W        W81341   2.831  19.165  14.860
17618W        W81342  11.771   7.827  14.873
17619W        W81343  20.080  37.472  10.076
17620W        W81344  22.722  11.226  11.997
17621W        W81345  20.735   0.888   1.830
17622W        W81346  44.467  35.073  12.347
17623W        W81347  19.169  44.890  11.374
17624W        W81348   6.757  33.080  12.932
17625W        W81349  25.487  18.790   0.901
17626W        W81350  19.101  20.118   0.339
17627W        W81351  27.568  30.101   0.251
17628W        W81352  21.534  12.179  13.050
17629W        W81353  27.573  10.678  11.999
17630W        W81354   5.353   0.380   0.895
17631W        W81355   7.883   7.309  13.925
17632W        W81356   2.808  44.965  14.877
17633W        W81357   9.766  28.621   0.763
17634W        W81358   5.338   5.803   0.359
17635W        W81359  36.523  10.793  12.043
17636W        W81360  39.431   6.690   2.243
17637W        W81361  44.471  32.015   4.329
17638W        W81362   3.822  23.987  13.827
17639W        W81363  30.115   4.372  12.858
17640W        W81364  24.596  23.233   1.786
17641W        W81365  42.471   0.338  14.788
17642W        W81366  32.538  40.335  10.417
17643W        W81367  33.111  12.175  13.034
17644W        W81368  30.152  16.635   0.909
17645W        W81369   3.404  40.050   1.316
17646W        W81370  16.126  11.255   1.338
17647W        W81371  22.642  35.981  13.364
17648W        W81372   2.266  37.873   4.157
17649W        W81373   8.800  34.906   2.405
17650W        W81374  38.853  33.963   0.901
17651W        W81375  26.666  34.906  12.048
17652W        W81376  18.165  40.373   1.811
17653W        W81377  36.877  16.784  14.329
17654W        W81378  24.132  31.914  13.325
17655W        W81379  22.689  24.602  12.870
17656W        W81380  20.727  27.161  13.401
17657W        W81381  10.330  42.907   5.216
17658W        W81382  32.959   3.886  12.957
17659W        W81383  32.141  31.042   3.340
17660W        W81384  38.477  26.507   0.277
17661W        W81385   2.234   9.301  14.402
17662W        W81386  23.733  40.529  10.061
17663W        W81387  37.354  37.887  13.936
17664W        W81388   7.405  33.959  13.359
17665W        W81389  21.571   3.917   0.471
17666W        W81390   0.419  40.419   0.392
17667W        W81391  17.140  19.754  12.991
17668W        W81392  10.331   3.936  11.599
17669W        W81393   7.668   3.413  13.050
17670W        W81394  20.618  24.677  13.527
17671W        W81395  33.037  10.215  13.323
17672W        W81396   7.831   6.280   3.158
17673W        W81397  27.973  14.602  14.794
17674W        W81398  35.425  41.447  13.458
17675W        W81399   6.898  27.119   4.754
17676W        W81400   6.750  25.596   1.221
17677W        W81401  18.100  44.942   2.192
17678W        W81402   4.728  36.369   5.209
17679W        W81403  22.030  25.194  11.923
17680W        W81404   7.702  18.283   4.804
17681W        W81405   9.868  13.203  10.013
17682W        W81406  24.157   2.369  11.611
17683W        W81407  36.513  36.564  11.007
17684W        W81408  31.904  36.450  13.010
17685W        W81409  39.059  43.473   0.942
17686W        W81410   8.662  25.536  12.026
17687W        W81411  11.281  18.168   0.847
17688W        W81412   5.897  12.702  10.635
17689W        W81413  32.064  20.555  13.962
17690W        W81414   9.385  34.012  14.461
17691W        W81415  33.966   5.355  13.042
17692W        W81416   7.802  41.953   0.740
17693W        W81417  14.758   8.741  11.520
17694W        W81418  16.082   4.847  13.855
17695W        W81419   5.760  36.392   2.383
17696W        W81420  41.318  36.044  13.496
17697W        W81421  16.305   6.900  11.904
17698W        W81422  19.605  39.044   4.833
17699W        W81423  35.378   9.802  13.470
17700W        W81424  11.780   8.360   1.713
17701W        W81425  34.440  40.494  13.541
17702W        W81426  16.149  25.653   0.904
17703W        W81427  19.099  12.724   1.705
17704W        W81428  39.952  37.439  14.825
17705W        W81429  42.353   6.343   0.473
17706W        W81430  44.858  19.730   4.773
17707W        W81431  14.713  44.363   2.879
17708W        W81432  29.499  16.123  12.393
17709W        W81433  12.631  18.088   2.705
17710W        W81434   9.791  31.040  12.445
17711W        W81435  36.851  11.674   0.406
17712W        W81436  34.031  36.000  14.765
17713W        W81437  31.992   2.416   1.735
17714W        W81438  23.505  33.957   3.637
17715W        W81439  38.478   3.861  12.994
17716W        W81440  37.431  44.842   2.408
17717W        W81441  21.204  10.276   1.771
17718W        W81442  17.735  23.220  11.489
17719W        W81443  21.164  35.374   4.765
17720W        W81444  26.000  38.008   3.674
17721W        W81445   2.450  42.811   1.285
17722W        W81446  12.786   2.782   3.807
17723W        W81447  13.750  29.972   1.713
17724W        W81448   0.755  32.606  11.042
17725W        W81449  22.186  36.030   2.667
17726W        W81450  40.302  18.605   0.731
17727W        W81451  39.929  30.067  13.396
17728W        W81452  18.110  12.745  10.998
17729W        W81453  24.211  38.454  14.460
17730W        W81454  24.622  38.400  11.514
17731W        W81455  42.501  22.640  12.056
17732W        W81456  14.823  31.625   4.773
17733W        W81457  12.303   2.884  14.022
17734W        W81458  43.976  41.851  13.526
17735W        W81459  39.483  29.466  13.012
17736W        W81460   2.757  25.577   1.294
17737W        W81461   6.682  17.613   1.793
17738W        W81462  20.134  38.876  13.326
17739W        W81463  37.982  13.793   3.715
17740W        W81464   6.278   7.870   2.237
17741W        W81465  21.514  23.207  10.962
17742W        W81466  27.483  32.906  12.862
17743W        W81467   4.839  42.988  10.083
17744W        W81468  32.491  15.269  10.627
17745W        W81469  38.941  24.723  10.964
17746W        W81470  37.876  18.627  13.313
17747W        W81471  39.017   2.777   0.256
17748W        W81472  38.412  41.898   9.502
17749W        W81473   0.332  30.973  13.310
17750W        W81474  35.584  11.266   2.409
17751W        W81475  38.382  11.228  12.090
17752W        W81476  12.209  34.120  13.979
17753W        W81477  35.479  12.288   0.425
17754W        W81478  25.993  20.246  12.006
17755W        W81479  28.655  18.745   3.857
17756W        W81480  42.779  14.617   1.699
17757W        W81481  15.328  10.820   4.219
17758W        W81482  26.082  43.291  14.479
17759W        W81483   9.390  40.004   2.880
17760W        W81484   3.923  36.855   3.216
17761W        W81485   5.330  41.294   0.319
17762W        W81486  44.329  41.531   0.733
17763W        W81487   8.262  19.060  11.420
17764W        W81488  36.435  40.813   1.870
17765W        W81489  15.169  38.459   0.346
17766W        W81490  29.452  36.865   3.213
17767W        W81491   9.730  10.710  13.457
17768W        W81492  18.264  28.963   1.348
17769W        W81493  22.073  36.516   1.855
17770W        W81494   8.886   8.261  14.964
17771W        W81495  18.120  33.109  14.862
17772W        W81496  30.936  15.659   3.721
17773W        W81497  12.720   2.803   5.119
17774W        W81498  12.177  35.591  10.545
17775W        W81499  15.116  42.853   3.188
17776W        W81500  43.306  39.317   4.119
17777W        W81501  10.632  28.606  13.791
17778W        W81502  10.186   5.363  13.010
17779W        W81503  39.930  29.936   4.288
17780W        W81504  29.473  19.096   0.337
17781W        W81505  22.099  24.095  14.914
17782W        W81506  26.508  17.272  11.934
17783W        W81507  30.588  10.320   2.890
17784W        W81508   3.867  39.891  13.021
17785W        W81509   0.911  29.957   0.302
17786W        W81510   9.271  36.365   4.719
17787W        W81511  15.732  31.491  11.993
17788W        W81512   9.866  29.975  12.894
17789W        W81513  29.607  22.598  11.604
17790W        W81514  24.050  34.527   3.798
17791W        W81515  25.665   8.752  14.953
17792W        W81516  35.365   4.720   2.216
17793W        W81517  33.380  16.079   3.738
17794W        W81518  29.079  38.931   2.400
17795W        W81519  31.455  15.674  12.052
17796W        W81520   5.750  17.758  11.450
17797W        W81521  31.505  23.642  12.874
17798W        W81522  35.517  30.436   4.160
17799W        W81523  36.485  20.547   0.257
17800W        W81524  37.406   3.944  12.830
17801W        W81525   2.779  32.604   4.303
17802W        W81526   9.666  32.526  14.437
17803W        W81527  44.428  14.803  14.417
17804W        W81528  38.953  30.542  12.997
17805W        W81529  22.079  39.487   2.307
17806W        W81530  11.842  25.170  13.410
17807W        W81531  13.735   3.797   4.340
17808W        W81532  23.649  26.609   9.645
17809W        W81533   1.905  10.155  11.068
17810W        W81534  39.875  36.856  13.892
17811W        W81535  24.150  12.671  10.892
17812W        W81536  31.645  33.024  13.462
17813W        W81537   2.426  16.685   3.677
17814W        W81538  29.002  25.054   2.859
17815W        W81539  40.341  22.690   2.785
17816W        W81540  15.673  22.735  14.848
17817W        W81541   7.818   9.708  13.918
17818W        W81542  19.619  43.311   5.300
17819W        W81543   7.409  34.008  13.033
17820W        W81544  13.141  38.946   3.375
17821W        W81545  38.446   3.285   4.787
17822W        W81546  32.065  24.014  14.475
17823W        W81547   8.706   8.679  14.430
17824W        W81548   0.267   8.721  13.027
17825W        W81549  24.541   5.347  11.099
17826W        W81550  33.405  33.006  10.552
17827W        W81551   4.354  21.565   1.433
17828W        W81552  41.966  15.664   0.462
17829W        W81553  34.968  14.116  14.867
17830W        W81554  38.494  11.252  11.585
17831W        W81555  25.200  38.847   4.179
17832W        W81556  35.566   0.857   1.239
17833W        W81557  23.577  30.612  10.635
17834W        W81558  18.201  10.724   4.729
17835W        W81559  15.782   7.814   2.709
17836W        W81560  10.861  37.066  14.433
17837W        W81561   7.750  12.831   2.880
17838W        W81562   0.478   7.278   0.950
17839W        W81563  41.293   8.290   3.301
17840W        W81564  16.298  31.543   3.237
17841W        W81565   8.196  42.377  13.319
17842W        W81566  29.450  20.585   4.703
17843W        W81567   8.893   2.879  13.398
17844W        W81568   2.828  30.000   0.472
17845W        W81569   5.830  10.165  12.980
17846W        W81570   3.711  40.466  12.527
17847W        W81571   8.753   4.209  12.523
17848W        W81572  18.769  13.108  14.453
17849W        W81573  35.370  24.705  13.429
17850W        W81574  32.468  38.396   1.303
17851W        W81575  27.029   9.781  13.986
17852W        W81576   8.757   8.216   0.295
17853W        W81577  12.304  19.555   0.377
17854W        W81578   5.237  34.466   4.689
17855W        W81579  10.352  18.742   0.383
17856W        W81580   7.414  35.082   3.335
17857W        W81581   3.853  22.037  14.952
17858W        W81582  25.538  20.053   2.702
17859W        W81583   5.718   3.860  14.995
17860W        W81584   1.743   0.759   2.785
17861W        W81585  38.550  25.518  14.499
17862W        W81586   7.273  11.143   1.433
17863W        W81587   0.886  11.782   4.807
17864W        W81588  11.138   6.400   2.690
17865W        W81589  26.672   1.868  11.555
17866W        W81590  40.024  33.502  11.536
17867W        W81591   5.430  32.535   2.393
17868W        W81592  23.085  35.440   0.819
17869W        W81593  37.902   1.305   0.826
17870W        W81594   1.269  25.068  12.363
17871W        W81595  26.209  26.673   1.309
17872W        W81596  16.681   2.381  12.458
17873W        W81597  21.748  42.911   4.312
17874W        W81598  20.231  42.801   3.845
17875W        W81599  35.089  38.057  10.633
17876W        W81600   4.770  16.737   3.149
17877W        W81601  19.061  22.214  11.384
17878W        W81602  41.396  21.619   4.819
17879W        W81603   7.247  18.704   3.297
17880W        W81604  34.417  25.574   3.697
17881W        W81605   3.282  10.857   0.258
17882W        W81606  16.726  37.055  12.974
17883W        W81607  42.809  23.568   3.635
17884W        W81608  33.972  41.000  12.938
17885W        W81609  21.575   1.469   1.851
17886W        W81610  24.166   7.228  14.428
17887W        W81611   6.741  31.117   3.651
17888W        W81612  37.530  30.068   2.848
17889W        W81613   5.808   4.236  13.018
17890W        W81614   5.331   7.803  14.286
17891W        W81615  39.450  16.100   0.282
17892W        W81616  18.698  11.198   1.741
17893W        W81617  30.152  33.613   1.270
17894W        W81618  34.545  28.122   1.720
17895W        W81619  36.974   6.301  14.328
17896W        W81620  40.306  12.805   2.897
17897W        W81621  38.879   4.698  14.989
17898W        W81622  18.248  11.362   4.826
17899W        W81623  23.162  11.775  13.055
17900W        W81624   5.687  19.577  12.546
17901W        W81625  36.875  16.254  14.288
17902W        W81626   1.778   3.783   0.860
17903W        W81627  40.905  11.792   0.752
17904W        W81628  25.973  36.945   2.676
17905W        W81629   0.773  40.526   1.357
17906W        W81630  40.826  34.936  10.932
17907W        W81631  35.005  23.514   9.960
17908W        W81632  33.931  37.977  10.978
17909W        W81633  27.083  33.433  12.493
17910W        W81634  31.517  22.220   1.921
17911W        W81635  33.587  37.069   0.337
17912W        W81636   5.723   6.799   1.780
17913W        W81637  30.599  33.520  10.950
17914W        W81638  42.790   1.936   3.252
17915W        W81639   1.287  36.868  10.980
17916W        W81640   4.803   8.229  10.563
17917W        W81641  31.513  21.159  12.919
17918W        W81642  25.679  42.315   2.710
17919W        W81643   3.771   9.741  13.360
17920W        W81644  27.449  10.199  12.448
17921W        W81645   3.806   4.326   0.326
17922W        W81646   9.700   9.691  11.999
17923W        W81647  13.192  26.678   5.114
17924W        W81648  26.472  16.664   0.768
17925W        W81649  28.506   2.464  12.531
17926W        W81650  25.063   3.846  14.880
17927W        W81651  11.350  42.026   0.282
17928W        W81652   3.925  34.506   3.849
17929W        W81653   7.346  29.666   0.447
17930W        W81654   9.654  42.917  14.426
17931W        W81655  29.990  30.425   0.802
17932W        W81656  20.121  33.557  11.463
17933W        W81657  30.594  17.131   1.366
17934W        W81658  25.486   3.751  12.957
17935W        W81659  42.420   6.392   4.727
17936W        W81660  25.515  22.163   2.860
17937W        W81661  28.579  41.454  11.520
17938W        W81662  37.881   9.753   3.147
17939W        W81663   9.852  15.749  14.849
17940W        W81664  19.742  41.337  14.905
17941W        W81665  39.898  15.246   3.150
17942W        W81666  17.105  41.914  11.490
17943W        W81667  10.185  34.571  13.483
17944W        W81668   2.325  14.797   1.726
17945W        W81669  36.399  12.795  10.007
17946W        W81670  32.488  36.575  14.984
17947W        W81671  11.776   6.869   3.811
17948W        W81672  11.186  22.524   4.346
17949W        W81673   0.307  36.531   0.375
17950W        W81674  22.623  17.109  13.001
17951W        W81675  27.003   6.738   0.942
17952W        W81676  16.254  24.549  10.502
17953W        W81677  37.412  15.783   3.369
17954W        W81678   2.878   4.903  11.502
17955W        W81679  13.284  12.207   2.220
17956W        W81680  13.771  32.963   1.382
17957W        W81681   4.878  21.648  11.431
17958W        W81682  42.805  28.029  14.515
17959W        W81683   7.690  13.233   9.642
17960W        W81684  35.551  31.152  10.634
17961W        W81685  42.953  16.796   2.880
17962W        W81686  19.585  26.587  10.501
17963W        W81687  20.589  44.774  10.534
17964W        W81688  42.441   2.956   2.881
17965W        W81689  25.146  27.483   3.823
17966W        W81690   9.200  40.828   4.630
17967W        W81691  30.121  32.534  14.801
17968W        W81692   5.881  24.144   0.290
17969W        W81693  21.643  19.719   2.329
17970W        W81694  13.142  26.539  13.827
17971W        W81695  42.996  31.552   1.870
17972W        W81696  33.948  16.615  12.488
17973W        W81697   7.807  18.598  14.834
17974W        W81698  31.112   0.747  11.386
17975W        W81699  26.175  11.323   1.414
17976W        W81700  37.990   1.440   1.735
17977W        W81701   4.429  11.189   4.834
17978W        W81702  43.405  32.567   4.783
17979W        W81703  40.950  26.462  13.830
17980W        W81704  23.530  30.013   0.415
17981W        W81705  33.401  36.949  14.024
17982W        W81706   8.764   0.319   1.884
17983W        W81707  23.105  10.746   2.286
17984W        W81708  20.566  32.128  12.522
17985W        W81709  35.477  38.549   0.822
17986W        W81710  33.472  26.620  14.319
17987W        W81711  24.607  23.691   0.783
17988W        W81712   6.904   8.820   2.711
17989W        W81713  36.472  11.826   4.170
17990W        W81714  13.635  42.016  11.611
17991W        W81715  14.825   8.790  10.908
17992W        W81716  24.664  29.918   3.351
17993W        W81717  32.930  15.118  11.466
17994W        W81718  36.879  39.010   2.261
17995W        W81719  44.003   6.690  10.412
17996W        W81720  40.517  38.539  11.084
17997W        W81721  22.539   4.207   3.720
17998W        W81722  27.486  32.955   4.248
17999W        W81723  17.598  11.787   4.621
18000W        W81724  11.654   0.942  12.448
18001W        W81725  17.250   2.787  10.936
18002W        W81726   1.401  35.942  10.575
18003W        W81727  17.678  28.021   2.770
18004W        W81728  33.595  22.190  11.050
18005W        W81729  15.148  33.973  11.474
18006W        W81730   8.291  16.569   3.352
18007W        W81731  33.486  37.361   2.709
18008W        W81732  26.952  13.685  12.843
18009W        W81733   0.916  27.453  12.480
18010W        W81734  17.688  11.741   3.733
18011W        W81735  37.992  32.595   1.833
18012W        W81736  12.183  34.496  13.323
18013W        W81737  23.590  43.980  12.895
18014W        W81738  30.592  37.548   1.866
18015W        W81739  25.005   8.860   2.754
18016W        W81740  19.774  31.965  12.533
18017W        W81741  20.076  31.528   4.315
18018W        W81742  22.047  10.347   0.904
18019W        W81743  29.133  29.012  14.902
18020W        W81744  19.697  24.679   2.336
18021W        W81745  36.055  11.141  14.513
18022W        W81746  30.621  23.096   1.731
18023W        W81747   9.221  11.799   9.446
18024W        W81748  33.094  35.474   1.272
18025W        W81749   7.337   6.790  12.370
18026W        W81750  27.579  25.988  13.451
18027W        W81751  10.185  10.670  11.437
18028W        W81752  38.036   1.755  14.367
18029W        W81753  33.904  15.580   0.334
18030W        W81754  34.956  31.604   2.688
18031W        W81755  36.544  34.892  12.075
18032W        W81756  10.636  41.403  13.310
18033W        W81757   2.760   8.281   4.231
18034W        W81758  31.044  16.569  13.483
18035W        W81759  43.459  30.129   2.292
18036W        W81760  24.212  23.190  12.910
18037W        W81761  14.719  13.648  12.531
18038W        W81762  28.496  19.270  12.448
18039W        W81763  42.868  30.034  12.913
18040W        W81764  38.366   1.458  10.509
18041W        W81765  20.049  34.901  13.405
18042W        W81766  38.897  20.185   1.282
18043W        W81767   3.292  15.585   0.757
18044W        W81768  13.788  11.317  14.444
18045W        W81769  39.906  34.446  12.890
18046W        W81770   0.813  11.349  14.499
18047W        W81771  34.115  10.752   0.367
18048W        W81772  23.504   0.923  11.877
18049W        W81773  21.055  29.065   2.769
18050W        W81774   3.879   5.748   5.180
18051W        W81775   4.333  38.417  13.462
18052W        W81776  12.118  10.261  11.434
18053W        W81777  33.038   5.811   3.639
18054W        W81778  26.015  36.858  11.554
18055W        W81779  31.911  25.096   4.282
18056W        W81780  44.787  38.354   4.305
18057W        W81781  19.134  31.055   4.232
18058W        W81782  25.998   9.241  14.487
18059W        W81783  13.307  14.743   4.764
18060W        W81784  11.220  30.530  10.929
18061W        W81785  16.567   1.263  12.954
18062W        W81786  36.408  33.499   2.873
18063W        W81787  28.053  25.487  13.853
18064W        W81788  34.017  33.100  12.926
18065W        W81789  26.111  17.769   1.358
18066W        W81790  26.526  12.615  11.970
18067W        W81791  44.368  41.316   3.172
18068W        W81792  23.148  17.211  10.973
18069W        W81793  37.944  22.233  12.972
18070W        W81794  32.950  10.838  10.528
18071W        W81795  33.408  13.124   2.409
18072W        W81796   6.269  32.455  14.929
18073W        W81797  16.650   8.197   0.929
18074W        W81798  39.823  38.355  14.946
18075W        W81799  30.120  13.693  11.425
18076W        W81800  20.581   4.778  11.603
18077W        W81801  12.206  27.651   3.345
18078W        W81802  19.712  11.230   1.252
18079W        W81803  31.052  38.993  13.815
18080W        W81804  29.449  41.926  11.487
18081W        W81805  27.068  20.258   3.668
18082W        W81806  19.763  25.099   0.413
18083W        W81807  35.398   3.859  11.076
18084W        W81808  40.410  38.046   4.236
18085W        W81809  29.077  23.511   0.434
18086W        W81810   9.839   1.268   1.798
18087W        W81811  13.134  29.087  12.080
18088W        W81812   5.256  35.017  14.876
18089W        W81813   2.312   2.361   2.329
18090W        W81814  22.211  24.661  12.041
18091W        W81815  33.043  30.415  14.948
18092W        W81816   8.297  30.591   1.289
18093W        W81817  22.668  12.766  13.968
18094W        W81818   7.222   9.315  13.875
18095W        W81819  18.659  33.051  12.427
18096W        W81820  18.696  41.420   3.188
18097W        W81821   0.304  28.087  10.480
18098W        W81822  28.620  16.304   4.315
18099W        W81823  20.268  23.583   1.735
18100W        W81824  42.519  20.589   2.883
18101W        W81825   0.800  15.274   1.825
18102W        W81826  44.419  11.719  13.059
18103W        W81827   9.714   0.306   0.908
18104W        W81828  40.480  25.019  11.053
18105W        W81829  14.674   7.232   0.255
18106W        W81830   8.767   7.311  11.889
18107W        W81831  17.648  28.097   0.271
18108W        W81832   7.209  25.110   4.199
18109W        W81833  14.214  12.740  10.580
18110W        W81834  33.575  11.185   4.627
18111W        W81835  27.110  14.608   3.371
18112W        W81836  43.814  36.899  11.086
18113W        W81837  38.028  42.522  13.797
18114W        W81838  23.534   1.825  13.820
18115W        W81839   7.671   1.926   2.225
18116W        W81840  39.032  18.734   3.866
18117W        W81841  35.003   1.477  14.917
18118W        W81842  36.506  43.930  13.986
18119W        W81843  28.961  33.949   2.372
18120W        W81844  13.601   6.291  14.379
18121W        W81845  25.138  42.842  10.476
18122W        W81846   4.418   0.361   1.384
18123W        W81847  28.589   2.415  11.954
18124W        W81848   9.251  36.891  13.798
18125W        W81849  12.132  25.487  14.769
18126W        W81850  23.146  16.660   0.415
18127W        W81851   4.817  35.958  12.831
18128W        W81852  36.903  23.565   2.859
18129W        W81853  24.558  43.416  14.020
18130W        W81854  34.979   1.930   2.352
18131W        W81855  24.983  32.004   1.228
18132W        W81856  10.265  30.550  11.959
18133W        W81857  37.434  32.535  13.996
18134W        W81858  23.727  36.568   3.713
18135W        W81859  41.358  21.081   3.243
18136W        W81860   8.184   5.713   2.695
18137W        W81861   8.754  28.080   2.803
18138W        W81862   1.349   1.961  12.520
18139W        W81863   2.341   5.308   3.719
18140W        W81864  42.883  24.070  11.382
18141W        W81865  42.911  44.340   4.280
18142W        W81866  42.833   7.748  13.911
18143W        W81867  44.841  19.533  14.314
18144W        W81868  35.948  28.512   4.639
18145W        W81869  32.612  35.563   3.209
18146W        W81870  38.482   1.898  14.857
18147W        W81871  33.003  16.231   2.764
18148W        W81872  21.633  41.914   2.230
18149W        W81873  21.587  42.012   4.287
18150W        W81874  20.648  40.818  12.370
18151W        W81875  40.977  20.130   4.176
18152W        W81876  42.894  41.385  12.989
18153W        W81877  29.612  23.043  13.516
18154W        W81878  17.237  12.261   0.342
18155W        W81879  24.651  38.075   2.693
18156W        W81880  12.838  11.321   4.149
18157W        W81881  21.106  18.296  10.972
18158W        W81882  36.970  18.245   3.709
18159W        W81883  29.577  23.675  10.506
18160W        W81884  19.582  35.858  11.405
18161W        W81885  29.599   5.383  13.915
18162W        W81886   7.911  39.481   2.750
18163W        W81887  42.023  38.073   1.237
18164W        W81888  44.399  42.819   4.208
18165W        W81889  31.093  43.514   3.299
18166W        W81890  42.795  36.550  12.071
18167W        W81891  38.541  16.211  13.946
18168W        W81892  10.194  23.588   2.854
18169W        W81893   1.842  26.965   4.723
18170W        W81894  10.815  15.149  12.467
18171W        W81895  31.908  21.633   1.429
18172W        W81896  43.288  18.625   1.278
18173W        W81897  26.050   8.402  11.504
18174W        W81898   5.877  35.059   4.802
18175W        W81899  42.430   5.239  13.430
18176W        W81900  41.476  37.956  12.559
18177W        W81901  13.241  26.509  12.572
18178W        W81902  16.701  44.311   0.269
18179W        W81903  12.711  37.468   4.779
18180W        W81904  26.063  36.451  12.047
18181W        W81905  28.978  15.210  11.582
18182W        W81906  25.703  23.574   3.372
18183W        W81907  21.691   9.689   4.121
18184W        W81908   1.900  26.699   2.192
18185W        W81909   4.742  23.724  10.944
18186W        W81910  18.683  28.601   3.208
18187W        W81911  18.602  10.364  14.920
18188W        W81912  43.999  31.018  10.642
18189W        W81913  40.418   2.443   2.781
18190W        W81914  34.015  35.404   1.709
18191W        W81915  41.894  27.657  13.060
18192W        W81916  18.239  32.530  13.016
18193W        W81917   1.847  23.562  13.002
18194W        W81918  13.306  21.674   4.244
18195W        W81919  35.063  33.605   3.283
18196W        W81920   7.214  24.510  11.946
18197W        W81921   8.746  14.662   3.162
18198W        W81922  19.061  24.224   2.357
18199W        W81923  13.614  29.155  11.976
18200W        W81924  40.897  39.816  10.462
18201W        W81925  37.073  25.003  14.930
18202W        W81926  10.236  40.387  14.915
18203W        W81927  33.586  40.463   0.926
18204W        W81928  41.887  25.541  10.481
18205W        W81929   3.905  39.858  14.281
18206W        W81930  36.902   3.245   1.767
18207W        W81931   6.404  20.213  14.454
18208W        W81932  35.871  35.455  13.802
18209W        W81933  23.149  19.757   3.243
18210W        W81934  39.956  18.705   3.840
18211W        W81935  28.673  35.072  12.922
18212W        W81936   8.799  21.530  14.458
18213W        W81937  37.382  30.542  13.465
18214W        W81938  13.744  21.214   2.227
18215W        W81939  28.523  15.275   4.119
18216W        W81940  17.670  13.809   3.209
18217W        W81941  19.538  13.260   3.663
18218W        W81942  21.744  41.307  13.348
18219W        W81943  43.800  22.197   3.852
18220W        W81944  17.230  42.007  10.935
18221W        W81945  21.718  38.037  13.379
18222W        W81946  12.652  30.078   1.804
18223W        W81947  27.188  32.439  12.995
18224W        W81948  16.265  37.976   0.868
18225W        W81949  39.868  23.615   3.284
18226W        W81950  14.167  20.542  14.509
18227W        W81951   0.826  11.190  10.491
18228W        W81952  18.687  39.320   3.306
18229W        W81953  37.838   5.841  12.450
18230W        W81954   7.278  42.881   1.379
18231W        W81955  10.217  30.968  13.858
18232W        W81956  11.777   0.753   1.877
18233W        W81957  37.864  35.481  14.778
18234W        W81958  33.049  42.876  14.455
18235W        W81959  20.230   4.940   0.896
18236W        W81960  31.907   3.238   5.157
18237W        W81961   1.319  31.556  12.064
18238W        W81962  12.133  17.305  14.405
18239W        W81963  27.501   7.905   3.200
18240W        W81964   1.301  39.489  13.868
18241W        W81965  43.335  41.893   2.902
18242W        W81966  42.028  43.315  13.348
18243W        W81967  10.371  28.152  13.864
18244W        W81968  41.498  29.956  11.384
18245W        W81969  44.884  33.995  11.022
18246W        W81970  29.991  28.137   1.793
18247W        W81971   7.251  24.586   1.849
18248W        W81972   6.284  28.935  12.873
18249W        W81973  24.118  10.244   2.821
18250W        W81974   1.328   4.322  12.366
18251W        W81975  16.120  28.601  12.905
18252W        W81976   9.834   1.314  12.392
18253W        W81977  23.685  32.631   0.815
18254W        W81978  40.342  16.688  11.583
18255W        W81979   8.853  21.721  10.943
18256W        W81980  15.788   1.881   3.633
18257W        W81981  32.900  28.558  10.999
18258W        W81982   9.806  39.011  12.518
18259W        W81983  11.361   8.685  14.348
18260W        W81984  25.617  24.155  10.465
18261W        W81985  24.973  16.135  14.948
18262W        W81986  30.583  44.336   4.294
18263W        W81987  14.757  23.067   3.263
18264W        W81988  22.043  21.083  10.965
18265W        W81989  12.770  21.161  10.934
18266W        W81990  35.459   5.727  13.479
18267W        W81991  27.996  40.387   3.847
18268W        W81992  37.423  25.092   3.258
18269W        W81993  26.192  13.317  11.524
18270W        W81994  10.825  23.533   1.253
18271W        W81995  24.559  28.088  11.480
18272W        W81996  30.910  31.140   4.751
18273W        W81997   3.812  13.318  13.036
18274W        W81998  22.151  26.969   0.406
18275W        W81999   0.250  27.681   1.808
18276W        W82000  28.505   2.774  12.054
18277W        W82001  36.083  29.955  10.461
18278W        W82002   6.426  23.502  10.612
18279W        W82003  22.245  11.853  10.511
18280W        W82004  22.035  26.680  14.788
18281W        W82005  12.825  43.873  10.622
18282W        W82006  33.031  34.474  13.032
18283W        W82007  12.612   2.263   4.759
18284W        W82008  15.695  19.774   2.887
18285W        W82009  24.149  17.245  11.452
18286W        W82010  44.753   6.722  13.038
18287W        W82011  23.002  32.101  14.509
18288W        W82012  40.893  16.274  12.360
18289W        W82013  33.388  26.136   2.717
18290W        W82014  38.849  39.868  12.404
18291W        W82015  32.087  22.083   4.686
18292W        W82016   4.885  12.617  14.817
18293W        W82017  18.788   7.177   3.793
18294W        W82018   2.272   0.358  11.098
18295W        W82019   4.203   2.934   0.465
18296W        W82020  33.012  29.136   0.950
18297W        W82021  29.042  40.526  14.935
18298W        W82022  11.202  44.426   2.257
18299W        W82023   9.657   8.273  14.334
18300W        W82024   0.256   6.322   2.672
18301W        W82025  11.198   5.775  10.403
18302W        W82026  34.867  10.269  12.971
18303W        W82027  29.983  16.672  14.351
18304W        W82028  42.024   7.412   1.723
18305W        W82029  28.010  37.997  11.955
18306W        W82030   0.902   6.695  14.759
18307W        W82031  10.296  41.433   0.857
18308W        W82032   6.187  41.858   0.328
18309W        W82033   7.318  18.677  11.485
18310W        W82034   5.248  20.030  12.474
18311W        W82035  22.147  38.463  11.905
18312W        W82036  22.676  22.737  11.995
18313W        W82037   3.918  22.716   2.857
18314W        W82038   5.244  24.150   3.835
18315W        W82039   9.167  44.354  10.458
18316W        W82040   9.196  12.852   4.787
18317W        W82041  12.184  17.717   0.318
18318W        W82042   0.863  10.261  13.513
18319W        W82043   2.320   1.732  11.606
18320W        W82044  31.941  12.810  12.016
18321W        W82045  18.691  44.459   2.781
18322W        W82046  28.136  37.876   1.333
18323W        W82047  32.456  43.370   1.299
18324W        W82048  40.925   2.368   3.737
18325W        W82049  15.087   1.919   5.180
18326W        W82050  35.951  39.450   3.643
18327W        W82051  19.098   2.446   3.643
18328W        W82052  15.670  39.487  14.348
18329W        W82053   8.863   4.859   1.328
18330W        W82054  28.517  18.058  11.580
18331W        W82055  15.297  33.585  10.583
18332W        W82056   0.980  30.978  10.935
18333W        W82057  25.161   5.261  12.467
18334W        W82058  24.111   6.723  11.498
18335W        W82059   4.737  34.592  13.821
18336W        W82060   2.808  15.702  12.009
18337W        W82061   2.444  26.571   1.223
18338W        W82062  25.175   7.731  11.073
18339W        W82063   5.908  25.172  14.311
18340W        W82064  32.109  16.690   4.166
18341W        W82065  43.313  11.709   0.756
18342W        W82066  38.470  29.020   4.775
18343W        W82067  38.064   1.975  12.512
18344W        W82068  42.343   8.694   0.757
18345W        W82069  19.570   5.833  13.453
18346W        W82070  31.134  27.545  10.903
18347W        W82071  23.240  29.634  13.994
18348W        W82072  40.426   4.343   0.912
18349W        W82073  25.500   2.350  14.792
18350W        W82074  38.828  24.480   4.195
18351W        W82075   4.309  20.588  12.373
18352W        W82076   3.900  14.123   1.754
18353W        W82077  39.038   6.789  12.353
18354W        W82078  36.360  12.267  12.004
18355W        W82079  27.519  14.816   0.921
18356W        W82080   0.883  43.816  11.488
18357W        W82081   1.386  10.751   1.831
18358W        W82082  16.723  38.930   4.144
18359W        W82083  37.520  10.298   3.294
18360W        W82084  10.177  18.167   1.263
18361W        W82085  25.109  34.504  12.545
18362W        W82086  42.495  10.324   2.206
18363W        W82087  33.002  40.863   1.866
18364W        W82088  39.856  29.954  14.898
18365W        W82089  15.104   0.984  11.448
18366W        W82090  39.348  14.124  10.505
18367W        W82091   8.373  24.619   4.662
18368W        W82092  37.079  19.758   5.170
18369W        W82093   4.267  28.489   4.672
18370W        W82094  32.435   3.778   1.355
18371W        W82095  18.264  17.178  13.345
18372W        W82096  40.051  30.559  11.856
18373W        W82097  32.099  27.188  11.023
18374W        W82098  42.014   8.844  11.985
18375W        W82099  41.538   9.163  14.776
18376W        W82100  42.942  15.089   0.407
18377W        W82101   7.694  26.571   3.376
18378W        W82102  20.717  11.204   4.644
18379W        W82103   1.733  32.431  10.533
18380W        W82104   0.932  20.077   1.799
18381W        W82105  38.394  34.933   2.305
18382W        W82106  43.778  41.302   1.355
18383W        W82107   2.847  35.033   4.132
18384W        W82108  31.108  33.468  12.477
18385W        W82109   6.802  26.643   2.798
18386W        W82110  24.680   7.672  13.975
18387W        W82111   2.412  40.978  11.582
18388W        W82112  31.543  16.661   0.271
18389W        W82113  33.054  36.914   1.292
18390W        W82114  25.967  17.205  13.843
18391W        W82115  37.502  43.856  10.969
18392W        W82116  16.578  20.111  10.528
18393W        W82117  36.432  41.805  12.408
18394W        W82118   5.814  42.482  12.475
18395W        W82119  25.165  43.459   4.172
18396W        W82120  33.606  11.863   2.352
18397W        W82121   3.387  21.183  14.894
18398W        W82122  22.138  15.184  12.473
18399W        W82123  15.761  39.483   3.346
18400W        W82124  31.455  41.902   4.644
18401W        W82125   4.859  13.698   2.202
18402W        W82126  24.103   0.967   0.746
18403W        W82127  26.658  43.314   5.161
18404W        W82128  10.742  37.974   0.400
18405W        W82129   4.794   4.280   1.304
18406W        W82130  14.257  13.208   2.868
18407W        W82131  27.047   7.204   3.684
18408W        W82132  39.016  10.858  13.917
18409W        W82133  27.035  43.499   0.362
18410W        W82134   8.803  28.099  14.892
18411W        W82135   3.808  14.733  12.427
18412W        W82136  23.106  29.008   3.639
18413W        W82137  28.453  42.789   1.324
18414W        W82138  21.738  20.535  11.003
18415W        W82139   8.756   4.406   2.875
18416W        W82140  28.050  26.653   0.436
18417W        W82141  11.836  32.078   4.703
18418W        W82142  37.524  19.563  14.847
18419W        W82143  37.392  37.535   1.718
18420W        W82144   4.320  32.434   4.238
18421W        W82145  42.845  43.853   3.683
18422W        W82146  36.090   0.257  11.105
18423W        W82147  20.575  23.722   2.820
18424W        W82148  27.676  29.568  14.412
18425W        W82149  20.741  10.320   4.343
18426W        W82150  29.009  10.818  12.026
18427W        W82151  15.807  24.631  12.494
18428W        W82152  36.998  40.539   4.788
18429W        W82153  15.094  37.340  13.022
18430W        W82154  18.773  37.452  13.503
18431W        W82155  31.080  37.891   3.653
18432W        W82156  10.309  43.007  13.516
18433W        W82157  21.676  30.422   3.724
18434W        W82158   5.279  17.690   4.799
18435W        W82159  32.403  17.752  14.407
18436W        W82160  21.512  19.202  11.439
18437W        W82161  22.598  16.313  10.619
18438W        W82162   4.910  44.450  13.327
18439W        W82163  34.058  38.077  13.983
18440W        W82164  41.440  36.978   4.244
18441W        W82165   7.853  13.805   4.739
18442W        W82166  44.429  34.432  11.122
18443W        W82167  23.490  38.912  13.546
18444W        W82168   3.947  17.202  14.781
18445W        W82169  39.819  40.874  13.413
18446W        W82170  41.922  34.417  14.336
18447W        W82171   8.293  16.086  12.497
18448W        W82172  35.501  26.996  14.762
18449W        W82173  24.533  26.107   2.756
18450W        W82174  43.834   6.689   0.855
18451W        W82175  33.890  33.017   3.629
18452W        W82176  33.505  37.071   2.783
18453W        W82177   6.764  36.943   0.295
18454W        W82178  20.039  42.497  11.397
18455W        W82179  28.615  27.622   1.374
18456W        W82180  31.112  28.037   2.881
18457W        W82181   9.726   4.226   3.255
18458W        W82182  43.355  24.527   1.323
18459W        W82183  30.068  10.182  13.362
18460W        W82184   9.683   5.362  14.882
18461W        W82185  39.326  28.979  12.470
18462W        W82186  19.660   0.368  13.908
18463W        W82187  39.059   0.893  12.464
18464W        W82188  10.774  40.517   0.345
18465W        W82189   1.800  34.110  10.467
18466W        W82190  17.773  22.082   2.888
18467W        W82191  35.950  40.354  14.865
18468W        W82192   0.742  21.528  14.419
18469W        W82193  32.512  27.015  13.405
18470W        W82194  41.298  22.022  14.841
18471W        W82195  44.892  14.679  11.526
18472W        W82196   5.815   1.822  12.980
18473W        W82197  38.567  11.809   2.779
18474W        W82198   4.387   2.731  12.532
18475W        W82199  33.596  42.373   2.220
18476W        W82200  15.709   2.754   2.807
18477W        W82201  24.571  15.604  13.365
18478W        W82202  20.224  29.030  13.439
18479W        W82203  39.447  22.073   5.261
18480W        W82204  31.557  19.763   2.717
18481W        W82205  44.423  39.824   2.355
18482W        W82206   0.431  42.874  13.938
18483W        W82207  21.047  16.766  10.439
18484W        W82208  24.152  28.446  12.347
18485W        W82209   4.878  23.045  12.386
18486W        W82210  37.437  22.161   2.889
18487W        W82211  15.212   0.435  14.945
18488W        W82212  43.331  37.344  12.561
18489W        W82213   7.912  23.602   0.358
18490W        W82214  19.659  17.658  12.513
18491W        W82215  34.469  42.506  14.294
18492W        W82216  23.161   8.853   0.327
18493W        W82217  15.295  23.705   3.749
18494W        W82218  41.807   9.376   1.218
18495W        W82219  44.815  10.376   2.692
18496W        W82220  27.485  13.826   1.923
18497W        W82221  36.847   7.306  12.855
18498W        W82222  44.969   7.223  13.387
18499W        W82223   0.863   1.241   0.915
18500W        W82224  27.651  18.166   0.309
18501W        W82225   8.287  27.637  13.961
18502W        W82226  26.590  23.204  14.391
18503W        W82227  31.152   4.735  10.085
18504W        W82228  34.519  19.665  13.030
18505W        W82229  12.847  22.182   1.266
18506W        W82230  29.042  14.696  14.807
18507W        W82231   8.177  18.780  11.902
18508W        W82232  10.639  31.973  14.855
18509W        W82233  26.007  10.340   2.822
18510W        W82234  35.447  13.267   1.309
18511W        W82235  12.715   2.441   0.888
18512W        W82236  40.842  39.445   0.257
18513W        W82237  10.672   0.405  13.411
18514W        W82238  10.726  38.981  10.564
18515W        W82239   0.937  34.905   3.759
18516W        W82240   2.913  16.675  13.485
18517W        W82241  18.177   6.690   1.900
18518W        W82242  14.219  37.921  11.051
18519W        W82243  39.326  13.110   3.653
18520W        W82244  44.480  13.832  11.926
18521W        W82245  34.066  17.646   3.722
18522W        W82246   6.767  24.045   1.856
18523W        W82247  10.171   8.399   2.206
18524W        W82248  20.235   2.740  11.917
18525W        W82249  35.910  42.018  14.491
18526W        W82250  25.659  22.204   2.199
18527W        W82251  16.243   6.391  14.276
18528W        W82252  25.129  22.739  13.800
18529W        W82253  15.750   9.699  12.505
18530W        W82254  33.940  13.777  10.112
18531W        W82255  38.914  11.315   0.314
18532W        W82256  29.175   8.187   4.149
18533W        W82257   9.337   1.367   3.805
18534W        W82258   7.820  14.770   4.728
18535W        W82259  40.009  18.277   0.967
18536W        W82260  12.250  12.652   3.735
18537W        W82261  24.605  23.210  14.331
18538W        W82262  37.953  14.612  10.542
18539W        W82263   9.756  23.238   1.749
18540W        W82264  41.312  35.071   3.674
18541W        W82265  15.645  25.611  14.938
18542W        W82266  26.561  37.508   2.375
18543W        W82267   6.914  16.236  14.335
18544W        W82268  17.722   7.268   4.121
18545W        W82269  41.392  41.961   5.604
18546W        W82270  16.746  43.783   3.733
18547W        W82271  28.670  12.766  13.380
18548W        W82272  33.414   9.678   3.350
18549W        W82273  42.488  16.715  11.052
18550W        W82274  18.250  19.714  12.470
18551W        W82275  27.658  15.173   4.304
18552W        W82276  26.147  29.489   3.366
18553W        W82277  21.240   0.852   2.320
18554W        W82278  39.454   0.443   2.301
18555W        W82279  33.521  31.911   2.415
18556W        W82280  12.231  41.425   0.441
18557W        W82281   6.697  37.577  11.119
18558W        W82282  22.557  21.661  13.800
18559W        W82283  20.241  13.266   1.756
18560W        W82284  20.659  31.448  14.394
18561W        W82285  29.526  28.455  11.381
18562W        W82286   2.381  19.086  10.937
18563W        W82287  13.667  22.702   0.732
18564W        W82288  13.289  35.592  13.909
18565W        W82289  41.934  32.469  11.111
18566W        W82290  38.547  16.302   0.478
18567W        W82291  37.558   1.276  11.567
18568W        W82292  34.023  37.417  10.947
18569W        W82293  21.179   5.353   1.739
18570W        W82294  26.590   5.193  13.330
18571W        W82295   1.452  20.168   3.711
18572W        W82296   2.366  24.669   0.955
18573W        W82297  33.982  28.021  13.537
18574W        W82298  28.547  15.605   3.339
18575W        W82299  40.911  22.197   3.356
18576W        W82300  43.380  33.614   2.249
18577W        W82301  10.682  42.438  13.399
18578W        W82302  22.523  28.632  11.546
18579W        W82303   8.188   1.749  11.379
18580W        W82304  26.172  44.480  10.575
18581W        W82305  30.524  17.620   2.895
18582W        W82306  23.105  37.038   4.182
18583W        W82307  30.458  37.044   2.903
18584W        W82308   0.430   4.772  11.051
18585W        W82309  14.190  38.831   3.769
18586W        W82310  35.540  26.491  10.626
18587W        W82311  27.091  10.803  14.339
18588W        W82312   9.252   3.335   1.316
18589W        W82313   4.207  34.427  10.965
18590W        W82314  32.912  13.247   4.162
18591W        W82315   4.860   3.361  11.891
18592W        W82316  12.817  28.074   3.261
18593W        W82317  25.113  44.835  11.914
18594W        W82318   0.867  28.548  14.825
18595W        W82319   6.862  41.844  12.038
18596W        W82320  18.706  37.450   0.442
18597W        W82321  42.816  35.473  13.501
18598W        W82322  41.855   5.903   0.952
18599W        W82323  20.236  11.198  12.543
18600W        W82324  43.471   4.258   2.689
18601W        W82325  41.417  19.254   2.722
18602W        W82326  18.201   7.206   4.635
18603W        W82327   0.843  36.538  13.843
18604W        W82328  22.026  11.195  12.560
18605W        W82329   4.216  13.218  11.116
18606W        W82330  13.624  35.902   1.793
18607W        W82331  34.375   0.400  13.368
18608W        W82332   2.339   9.685   1.231
18609W        W82333  20.135   9.719   0.346
18610W        W82334  37.020  38.553   2.312
18611W        W82335   3.373  23.150   0.755
18612W        W82336  22.628   6.817  12.353
18613W        W82337   8.891   1.442  13.382
18614W        W82338  27.190  35.371  14.866
18615W        W82339  29.661  26.110  14.335
18616W        W82340   7.196  13.163  13.859
18617W        W82341  11.355  14.239  11.014
18618W        W82342  33.535  17.561   0.247
18619W        W82343   5.261   7.720   3.646
18620W        W82344  39.978  14.287  12.375
18621W        W82345   9.739  35.911  13.345
18622W        W82346  33.907  42.939  10.574
18623W        W82347   2.306  37.455  11.445
18624W        W82348  19.120   7.817   0.804
18625W        W82349  36.544  15.328   2.217
18626W        W82350  24.163  22.611  11.001
18627W        W82351  21.164  18.257   4.312
18628W        W82352   1.365  10.189   2.398
18629W        W82353   5.803  29.463  11.051
18630W        W82354  25.107  34.565  14.802
18631W        W82355  10.274  41.369  10.527
18632W        W82356  15.129  15.705   3.196
18633W        W82357  32.624  26.697   1.285
18634W        W82358  18.284  25.041   0.379
18635W        W82359  10.685  43.282   3.788
18636W        W82360  16.638  42.398  13.543
18637W        W82361  39.348  32.139  11.048
18638W        W82362  19.071  27.028   4.251
18639W        W82363  10.786  17.733  14.020
18640W        W82364  35.470   8.387   0.444
18641W        W82365  38.917  18.709  12.878
18642W        W82366   8.832  36.097   1.790
18643W        W82367   4.385  41.954  13.935
18644W        W82368  24.116  26.580   3.770
18645W        W82369  17.235   8.781   1.863
18646W        W82370  31.480   7.289  12.861
18647W        W82371  24.983  43.448   4.713
18648W        W82372  25.602  23.618   4.325
18649W        W82373  16.239   1.843   4.257
18650W        W82374   4.943  35.028   5.127
18651W        W82375  21.542  22.658  14.471
18652W        W82376  38.540  44.967  13.428
18653W        W82377  31.489  41.978   2.371
18654W        W82378   6.731  39.812   3.308
18655W        W82379  38.963  18.559   1.778
18656W        W82380   1.861  33.907  14.007
18657W        W82381  34.512   5.857  10.555
18658W        W82382   5.420  37.903   2.193
18659W        W82383  29.075  17.150  14.315
18660W        W82384  25.177  27.984   2.218
18661W        W82385  44.962   0.458   0.891
18662W        W82386   4.794  35.922   2.814
18663W        W82387  18.201   3.408   0.872
18664W        W82388   1.405  44.978   0.959
18665W        W82389  43.968  41.028   3.811
18666W        W82390  43.418  17.641  12.078
18667W        W82391   9.341  18.687  12.905
18668W        W82392  11.821  28.178   0.911
18669W        W82393  32.444  16.206   4.688
18670W        W82394  24.558  26.535  11.609
18671W        W82395  32.571  37.343  14.024
18672W        W82396  27.637  35.402   1.795
18673W        W82397  19.623  14.831  12.856
18674W        W82398  26.462  38.506   3.808
18675W        W82399  15.235  33.429   0.316
18676W        W82400  33.976  25.026   4.288
18677W        W82401  10.323  16.813   4.791
18678W        W82402   2.448  35.447  12.008
18679W        W82403   4.266  20.129  12.499
18680W        W82404  34.888  32.525  10.511
18681W        W82405  22.583   6.805   0.905
18682W        W82406   4.206  39.408   4.332
18683W        W82407  17.242   3.339  10.458
18684W        W82408  33.906  27.193  12.853
18685W        W82409  30.547  15.185  13.827
18686W        W82410  23.506   4.921   3.326
18687W        W82411  18.750  22.043  11.392
18688W        W82412  10.784  39.454   0.843
18689W        W82413  38.953  13.811  12.894
18690W        W82414  24.192  14.241   4.280
18691W        W82415  16.205  10.210  12.092
18692W        W82416  13.347  41.860   2.226
18693W        W82417  43.781   5.772  14.513
18694W        W82418  28.671   8.347   4.135
18695W        W82419  44.755   7.251  12.422
18696W        W82420  33.931  21.687   1.345
18697W        W82421  10.217  12.225  10.944
18698W        W82422  39.050   4.230   2.668
18699W        W82423  18.672  12.296   4.660
18700W        W82424  15.716  37.336  10.927
18701W        W82425   7.753  30.970   3.234
18702W        W82426  28.479  28.570   0.938
18703W        W82427  27.485  34.554   2.224
18704W        W82428  15.092  32.443   2.763
18705W        W82429  11.765  44.391   1.818
18706W        W82430  33.449  15.759  11.612
18707W        W82431  19.686  30.979   0.420
18708W        W82432  34.885  40.384   0.957
18709W        W82433  22.701  40.417   4.797
18710W        W82434   1.855  32.483   1.383
18711W        W82435  15.589  11.252  11.932
18712W        W82436  23.224   5.918   1.272
18713W        W82437  22.034  33.108  14.888
18714W        W82438   0.826  25.205  13.999
18715W        W82439  21.744  29.600  12.362
18716W        W82440  40.849  17.167   4.197
18717W        W82441  15.257  33.063   1.713
18718W        W82442  10.330  39.438   2.261
18719W        W82443  17.607   2.414  12.960
18720W        W82444   6.228   6.801  14.297
18721W        W82445  33.625  10.183   4.215
18722W        W82446  13.816  20.647   1.878
18723W        W82447  44.843   9.860  12.361
18724W        W82448   4.807  15.176   1.325
18725W        W82449  36.082  41.445  11.055
18726W        W82450  10.222  25.106  12.396
18727W        W82451  41.507  39.000   4.144
18728W        W82452  38.056   1.462  14.323
18729W        W82453  27.094  20.119   2.804
18730W        W82454   2.804  25.989  14.281
18731W        W82455  12.688   5.812  12.886
18732W        W82456  20.104   8.861  13.423
18733W        W82457  36.868  16.256  10.074
18734W        W82458  37.365  44.329   3.229
18735W        W82459  30.983   8.339   0.432
18736W        W82460   7.728  27.072  10.908
18737W        W82461  37.480  21.637   2.323
18738W        W82462  16.597   4.204   4.276
18739W        W82463  33.525   2.280  12.574
18740W        W82464  31.050  35.919   3.851
18741W        W82465  35.380  14.149   4.258
18742W        W82466  14.161  12.357  14.306
18743W        W82467  14.776  32.898   0.288
18744W        W82468  35.895   0.265  11.384
18745W        W82469   9.839  42.296   2.330
18746W        W82470  33.508   4.213  11.998
18747W        W82471  40.530   3.748  12.863
18748W        W82472  17.607  24.665  12.410
18749W        W82473  43.358  35.574  13.388
18750W        W82474  28.497  14.759   2.686
18751W        W82475  31.623  12.756   9.924
18752W        W82476  29.996  31.960  13.852
18753W        W82477  31.062  26.687  14.474
18754W        W82478  26.073  30.627  11.483
18755W        W82479  13.248  27.055  12.544
18756W        W82480  23.163   0.322  14.415
18757W        W82481  11.776   2.923  11.458
18758W        W82482   1.762  26.962  10.901
18759W        W82483   4.226  29.992   1.261
18760W        W82484  11.626   3.297   5.175
18761W        W82485  16.079  22.143  13.996
18762W        W82486   4.939  18.060   0.322
18763W        W82487   6.296  14.310   1.780
18764W        W82488  12.204   1.747   2.291
18765W        W82489  17.601  26.093   4.163
18766W        W82490  37.007   3.272   1.346
18767W        W82491  36.371  38.407   0.748
18768W        W82492   4.799  13.170   4.269
18769W        W82493  35.896  30.957  14.982
18770W        W82494  27.688  30.557   3.170
18771W        W82495   8.881  12.166   2.705
18772W        W82496   2.306   4.447  11.502
18773W        W82497   8.849  34.615  13.967
18774W        W82498  35.992  40.036  13.362
18775W        W82499  20.625   2.370  11.030
18776W        W82500  42.823  24.137   3.654
18777W        W82501  25.133   7.210   9.498
18778W        W82502  39.024  40.449   0.927
18779W        W82503  35.001   9.849  11.388
18780W        W82504  44.324  26.054   3.201
18781W        W82505  26.159  27.469  14.425
18782W        W82506  34.874  21.694  11.928
18783W        W82507  24.692  31.004   2.269
18784W        W82508   6.263  15.763   3.314
18785W        W82509   2.922  33.942  14.788
18786W        W82510  16.123  34.431   2.209
18787W        W82511  34.385  37.367   2.835
18788W        W82512   4.852  13.750   0.440
18789W        W82513  23.206  12.312   3.724
18790W        W82514  21.690   2.779  10.526
18791W        W82515  34.010  19.702   4.237
18792W        W82516  15.812  35.887   1.231
18793W        W82517  17.597  41.400  12.543
18794W        W82518  34.992  44.825  14.920
18795W        W82519  13.793  39.941   0.383
18796W        W82520  44.771  27.692   3.686
18797W        W82521  44.008  19.192   0.422
18798W        W82522  34.906  24.499   3.282
18799W        W82523  29.939  19.051   4.121
18800W        W82524  20.608   9.157  12.425
18801W        W82525  32.583  26.973   3.675
18802W        W82526  44.278  18.051  12.043
18803W        W82527   9.186  15.271  12.934
18804W        W82528  14.608  15.266  12.347
18805W        W82529  17.240  11.655   2.338
18806W        W82530  13.600  39.820   4.305
18807W        W82531  19.088  34.099   1.765
18808W        W82532  27.619  27.536  12.397
18809W        W82533  16.112  29.665   2.798
18810W        W82534   4.811  28.535   1.344
18811W        W82535  22.158  22.541  14.969
18812W        W82536   7.180  39.341  13.010
18813W        W82537  32.123   4.357   3.306
18814W        W82538   6.723  40.512  14.480
18815W        W82539  27.987  17.170  13.900
18816W        W82540   7.814  17.783   2.317
18817W        W82541  17.719  17.284  11.886
18818W        W82542  26.542   4.782   1.888
18819W        W82543   3.734  18.634  14.805
18820W        W82544  39.040  10.810  14.305
18821W        W82545  11.207  26.509  12.937
18822W        W82546  36.492  43.870  11.921
18823W        W82547  32.117  34.021   3.771
18824W        W82548  41.376   4.255   0.802
18825W        W82549   3.350  14.769  12.036
18826W        W82550  23.716  42.027  14.914
18827W        W82551  28.048  13.746  12.547
18828W        W82552  31.606  41.510  13.884
18829W        W82553  13.743  26.631  13.028
18830W        W82554  26.618  33.949  14.026
18831W        W82555   6.212  25.162   0.447
18832W        W82556  35.501  33.596   3.718
18833W        W82557   3.953   5.858  11.965
18834W        W82558   1.926  40.867  12.950
18835W        W82559  31.131  36.079   0.372
18836W        W82560   0.278  42.422  11.004
18837W        W82561  23.111  13.737  12.924
18838W        W82562  32.516  11.795  14.442
18839W        W82563  14.717  26.091   3.323
18840W        W82564  12.148   9.754   1.718
18841W        W82565  28.055  15.301   4.153
18842W        W82566  37.536  25.983   0.315
18843W        W82567  21.032  29.938  10.058
18844W        W82568  18.178  22.158   4.273
18845W        W82569  28.155  21.737   3.273
18846W        W82570  12.199  28.175   1.882
18847W        W82571  38.841  26.989  11.526
18848W        W82572  10.165  20.559  10.536
18849W        W82573  29.006  33.945  10.548
18850W        W82574  21.150  19.612   0.857
18851W        W82575   2.725  18.147   1.359
18852W        W82576  39.325  32.895   2.218
18853W        W82577  23.105  36.072  14.830
18854W        W82578  41.393  36.547  11.561
18855W        W82579   9.374  20.212   0.299
18856W        W82580  41.456  12.678  14.454
18857W        W82581  32.499  24.081  11.419
18858W        W82582   9.160  39.915   4.161
18859W        W82583  31.023  21.710  12.504
18860W        W82584   7.742  44.423  11.431
18861W        W82585  37.897  22.593   3.269
18862W        W82586  44.857  13.763  12.540
18863W        W82587   8.309   6.904  11.948
18864W        W82588  43.930   1.390   2.679
18865W        W82589  11.261  29.134  14.822
18866W        W82590   9.285  36.394   0.370
18867W        W82591  24.060   2.375  14.878
18868W        W82592   6.747  22.693   4.599
18869W        W82593  16.199  37.356  12.904
18870W        W82594   5.262  32.487  12.983
18871W        W82595  16.591   4.239   2.802
18872W        W82596  37.509  42.835   1.821
18873W        W82597  25.558  29.661  12.974
18874W        W82598  40.823  38.028   5.804
18875W        W82599   5.329  13.797   2.331
18876W        W82600  14.766   6.691   2.793
18877W        W82601  32.572  25.964  14.780
18878W        W82602  34.078  14.687  10.075
18879W        W82603  29.632  27.119   2.738
18880W        W82604  12.225  17.646  12.890
18881W        W82605  14.272  35.875   0.851
18882W        W82606  33.580   6.873   3.354
18883W        W82607  29.552  31.440   3.331
18884W        W82608   0.374  28.553   0.282
18885W        W82609  23.110  18.788   1.731
18886W        W82610  40.847  20.146   2.333
18887W        W82611  16.748   7.273  14.012
18888W        W82612  32.001  37.571   0.258
18889W        W82613   6.676  23.589   1.861
18890W        W82614  26.566  38.938   5.230
18891W        W82615  25.529   1.302  11.894
18892W        W82616  10.298  41.950   2.680
18893W        W82617  11.711  38.487  14.438
18894W        W82618  39.317   3.829  14.443
18895W        W82619  44.903  16.187   1.866
18896W        W82620  26.183  40.391   2.683
18897W        W82621  10.790  10.184   0.937
18898W        W82622  33.003   5.732  11.100
18899W        W82623  36.569  15.291  14.462
18900W        W82624  33.443  21.116  13.463
18901W        W82625  31.016  44.768   1.377
18902W        W82626  37.547   7.790  12.992
18903W        W82627  27.049  23.033   4.650
18904W        W82628  24.621  33.969  14.822
18905W        W82629  26.149  26.481   3.653
18906W        W82630  29.651   2.266  12.854
18907W        W82631  28.157   5.386  14.932
18908W        W82632  30.032  43.374  12.011
18909W        W82633   4.752  24.155   2.663
18910W        W82634  27.152  40.456  12.518
18911W        W82635   6.713  44.774  13.511
18912W        W82636  30.596  15.612   2.250
18913W        W82637  27.147  27.592  14.018
18914W        W82638   2.299  25.690  13.044
18915W        W82639  41.465  10.807   4.332
18916W        W82640   1.364  21.553   1.876
18917W        W82641  40.342  39.327   0.392
18918W        W82642  15.792   1.926   1.854
18919W        W82643   7.369   5.342   3.769
18920W        W82644  26.533  43.911   2.675
18921W        W82645   3.953  43.312  14.880
18922W        W82646  26.094   1.422   2.860
18923W        W82647  34.873   9.796  12.987
18924W        W82648  36.998  34.382  14.804
18925W        W82649  32.446  29.001  11.529
18926W        W82650  10.760  32.113  10.590
18927W        W82651  27.026   7.714   4.239
18928W        W82652  23.598  12.693   4.207
18929W        W82653  39.932   6.395   3.376
18930W        W82654   2.382  35.070  12.985
18931W        W82655  28.522  23.999   2.885
18932W        W82656   1.382  17.093   0.766
18933W        W82657  28.483  23.016  11.389
18934W        W82658  28.492  10.353   1.330
18935W        W82659  38.328  12.830   0.332
18936W        W82660  42.829   1.438   0.318
18937W        W82661  19.686   0.256   1.704
18938W        W82662   9.711  15.125  13.855
18939W        W82663  10.736  27.015  13.391
18940W        W82664  40.384  17.784  13.807
18941W        W82665  22.556   7.808   1.382
18942W        W82666  12.343  39.870  14.970
18943W        W82667  32.038  34.527  12.566
18944W        W82668  19.061  12.198  14.453
18945W        W82669  19.602  22.064  14.842
18946W        W82670  27.532  37.476   1.249
18947W        W82671   4.336  31.545   2.303
18948W        W82672  32.925  15.103   3.822
18949W        W82673  41.337   9.716  14.010
18950W        W82674  25.087  14.637  14.893
18951W        W82675   7.776  27.150   1.729
18952W        W82676  15.224  12.323   1.256
18953W        W82677  30.076  24.563   2.368
18954W        W82678   0.373  33.485  14.937
18955W        W82679  30.990  18.661   3.340
18956W        W82680   7.829  26.083   2.778
18957W        W82681   6.369  23.726  14.863
18958W        W82682  27.076  39.886   0.272
18959W        W82683  42.933  33.493   4.137
18960W        W82684  12.268  26.102  11.955
18961W        W82685  19.072   2.379  14.025
18962W        W82686   6.293  23.638   3.317
18963W        W82687  40.908  12.808  12.954
18964W        W82688  15.259   2.728   1.328
18965W        W82689  15.275  44.421   3.310
18966W        W82690   9.669  23.626   1.448
18967W        W82691  37.438  18.131   3.157
18968W        W82692  41.899   5.412  12.973
18969W        W82693   0.927  36.030   3.660
18970W        W82694  16.098   0.372  12.862
18971W        W82695  18.278  11.785   0.434
18972W        W82696   2.445  36.474   4.776
18973W        W82697  26.014  16.205   3.183
18974W        W82698   6.303  42.488  11.072
18975W        W82699  17.280  29.089   4.696
18976W        W82700  29.655  43.021   2.359
18977W        W82701  26.967   3.838   1.216
18978W        W82702  28.616  36.027  12.860
18979W        W82703  18.064  22.027   3.648
18980W        W82704   8.857   9.307   4.726
18981W        W82705  23.085   9.807   4.191
18982W        W82706  17.802  25.216  10.546
18983W        W82707  38.507  21.689  13.495
18984W        W82708   7.865  20.157   1.705
18985W        W82709  10.269   8.184  13.412
18986W        W82710   6.286  38.058   2.255
18987W        W82711   6.705  37.898   1.291
18988W        W82712  10.803  20.552   4.718
18989W        W82713  17.197   5.804  14.308
18990W        W82714  17.787  17.697  10.952
18991W        W82715  39.515   7.864   2.833
18992W        W82716  11.309  20.084   2.275
18993W        W82717  19.161  17.559  14.461
18994W        W82718  20.745  40.811  10.576
18995W        W82719   6.834  29.003  12.385
18996W        W82720  12.745  18.618  11.569
18997W        W82721   8.176  41.884  11.499
18998W        W82722  34.525  34.027   3.704
18999W        W82723  21.517  19.216  14.012
19000W        W82724  32.440  28.636  14.510
19001W        W82725  28.446   3.410  10.497
19002W        W82726  43.351   3.764  10.956
19003W        W82727  18.183  10.362   1.344
19004W        W82728  28.067   1.762  14.852
19005W        W82729  32.417   1.309   1.850
19006W        W82730   5.804   8.213  11.543
19007W        W82731  37.570  17.728  14.433
19008W        W82732  44.934   6.188   1.218
19009W        W82733  19.586  36.500   4.782
19010W        W82734  23.117  42.400   2.295
19011W        W82735   8.312  44.350  13.040
19012W        W82736  16.127  25.082   2.871
19013W        W82737   0.850  42.913  13.457
19014W        W82738  19.147   8.660   1.240
19015W        W82739   5.905  29.050   4.728
19016W        W82740  33.578   0.912   4.606
19017W        W82741  38.401  26.174   2.295
19018W        W82742  40.404  21.020   3.345
19019W        W82743  30.091  19.147  10.904
19020W        W82744   7.342  40.027   3.759
19021W        W82745   4.760  29.998  14.878
19022W        W82746  26.648  35.913  14.928
19023W        W82747  22.534  30.012   1.270
19024W        W82748  36.011  36.522  13.897
19025W        W82749  37.364  18.063   1.286
19026W        W82750  38.826  29.940  11.393
19027W        W82751  44.996  18.575  10.420
19028W        W82752   6.334   4.762  11.017
19029W        W82753  36.038  37.902   3.165
19030W        W82754  14.150  13.275  10.895
19031W        W82755   8.668   4.726   4.779
19032W        W82756  19.058  24.039  10.595
19033W        W82757  38.027  17.593  11.493
19034W        W82758   8.374  37.511  13.818
19035W        W82759  35.399  18.571   0.253
19036W        W82760  41.343  25.612  10.042
19037W        W82761  43.009  43.349  13.040
19038W        W82762  13.820  23.733  14.286
19039W        W82763   8.674  19.255   3.849
19040W        W82764  26.000   5.233  11.601
19041W        W82765  31.130  28.593   2.806
19042W        W82766   1.393  35.937   1.821
19043W        W82767  40.900  21.188   3.709
19044W        W82768   2.312  37.338  10.551
19045W        W82769  44.266  33.034   4.837
19046W        W82770   4.261   2.747  11.867
19047W        W82771   0.428  15.661   4.169
19048W        W82772  45.000  20.134   4.616
19049W        W82773  41.429  38.913   3.215
19050W        W82774  33.396  38.492   1.802
19051W        W82775  32.989  41.363   1.748
19052W        W82776  36.375   1.787   0.434
19053W        W82777  32.888  26.536  12.366
19054W        W82778  16.810  21.535   3.818
19055W        W82779  16.310  39.494   4.191
19056W        W82780  13.284  26.080  10.494
19057W        W82781  15.143  36.937   0.422
19058W        W82782  11.234  17.621   2.758
19059W        W82783  37.086  30.080  11.470
19060W        W82784  36.421   5.694   0.309
19061W        W82785   9.749   0.481  12.453
19062W        W82786  28.157  36.082   0.872
19063W        W82787  22.228  25.176  12.535
19064W        W82788  15.737   4.806  13.982
19065W        W82789  27.149  31.416  12.887
19066W        W82790  30.953  22.648   0.814
19067W        W82791  31.492   8.229  12.470
19068W        W82792   2.363  42.287  12.851
19069W        W82793   0.477   3.950  13.540
19070W        W82794  20.568  17.645   2.865
19071W        W82795  20.258  43.833  12.501
19072W        W82796  37.064  30.603   0.912
19073W        W82797   2.452  34.945  14.968
19074W        W82798  29.557   9.860  10.034
19075W        W82799  26.076   0.797   1.337
19076W        W82800  42.861  17.206  11.374
19077W        W82801  25.529  22.117  13.944
19078W        W82802  10.681   7.392  11.474
19079W        W82803  24.654  36.417   1.359
19080W        W82804  17.720  29.011   0.818
19081W        W82805  10.793  24.147   3.805
19082W        W82806   8.802  11.696  14.831
19083W        W82807   1.453   7.909   1.297
19084W        W82808   0.297  31.138  13.885
19085W        W82809  29.551  42.985  12.939
19086W        W82810  41.792  32.071   0.817
19087W        W82811  22.062   4.283  10.531
19088W        W82812  23.104  26.193  11.076
19089W        W82813  37.544  33.128  11.881
19090W        W82814   1.753  41.958   0.828
19091W        W82815  21.740   7.884  13.963
19092W        W82816  32.506  17.180  13.827
19093W        W82817  29.541   7.675   0.348
19094W        W82818   8.361   9.267   2.334
19095W        W82819  35.429  15.179   0.936
19096W        W82820   0.462  40.438   3.222
19097W        W82821   1.410  25.707   4.779
19098W        W82822  28.997  24.533   4.713
19099W        W82823  29.615   2.461   1.280
19100W        W82824   9.806   7.335  13.394
19101W        W82825  21.242  35.374   1.934
19102W        W82826   7.695  27.035   3.186
19103W        W82827  42.974   6.314  14.983
19104W        W82828  29.486   5.382   0.275
19105W        W82829  33.027  31.526  12.924
19106W        W82830  30.558  28.939  12.365
19107W        W82831  38.373   0.385   1.431
19108W        W82832  28.479  11.285   0.739
19109W        W82833   6.235  21.610  14.002
19110W        W82834   4.742   7.858   3.165
19111W        W82835  33.996  24.178  12.369
19112W        W82836   6.848  42.394   2.392
19113W        W82837  15.112   9.731   3.684
19114W        W82838  31.115  42.397   2.703
19115W        W82839  37.401   3.751  13.514
19116W        W82840  22.561  13.290  10.407
19117W        W82841  41.032  17.709   2.329
19118W        W82842  17.668   2.949  11.517
19119W        W82843  23.116  10.367  13.830
19120W        W82844  15.803   7.832   3.248
19121W        W82845   6.863  31.912   1.884
19122W        W82846   9.779  28.051  13.052
19123W        W82847   1.302  24.104  12.565
19124W        W82848  37.476  12.816  11.869
19125W        W82849  12.643  25.069  14.356
19126W        W82850  28.038  10.784  10.620
19127W        W82851  32.434  38.982  12.549
19128W        W82852  34.581   4.449  13.371
19129W        W82853  25.556  10.349   4.663
19130W        W82854  36.373   2.451  11.595
19131W        W82855  14.204  10.729   4.765
19132W        W82856  14.314  28.939   4.216
19133W        W82857  20.678  29.436   0.879
19134W        W82858  11.815  15.596   4.198
19135W        W82859   6.247  35.450  10.581
19136W        W82860  22.043  21.677   2.743
19137W        W82861  12.769  36.095   0.727
19138W        W82862   9.167  22.603  11.992
19139W        W82863  17.635  38.993  14.463
19140W        W82864  32.578   8.711  10.416
19141W        W82865  42.846  37.488  12.363
19142W        W82866   0.934  27.995  13.889
19143W        W82867  27.597  19.771   3.800
19144W        W82868  12.204  29.968   0.750
19145W        W82869   5.877   0.983   3.675
19146W        W82870  36.564  16.702   3.159
19147W        W82871  17.712   6.404  13.319
19148W        W82872  13.684  38.069   0.901
19149W        W82873   9.260  16.282  10.568
19150W        W82874   6.801   9.793  10.409
19151W        W82875  20.524  32.975  13.381
19152W        W82876  29.954  24.008  14.994
19153W        W82877   0.891  10.246   4.724
19154W        W82878  21.191  41.842   5.787
19155W        W82879  18.596  21.629   1.853
19156W        W82880   1.923   6.407  10.532
19157W        W82881  25.633  18.647   2.353
19158W        W82882  44.352  11.193   4.322
19159W        W82883   4.301  41.960   3.705
19160W        W82884  41.362   2.903   4.331
19161W        W82885  29.142   1.342  10.514
19162W        W82886  41.823   8.737   4.819
19163W        W82887  25.143  23.030  11.015
19164W        W82888  36.075  13.764  10.567
19165W        W82889  34.004  25.180   2.816
19166W        W82890  36.371  10.798   3.328
19167W        W82891  17.109  16.775   0.260
19168W        W82892  21.554  31.961   0.474
19169W        W82893  18.563  41.901   4.197
19170W        W82894  28.104  23.217  14.008
19171W        W82895  34.957  11.238   3.235
19172W        W82896  33.618  42.294   0.303
19173W        W82897   5.260  30.559  12.971
19174W        W82898  39.400  23.608  11.947
19175W        W82899  29.626   3.339  14.384
19176W        W82900  36.457  39.936   2.794
19177W        W82901  17.726  40.923   2.326
19178W        W82902  29.081  44.898   4.259
19179W        W82903   6.283  31.041  14.788
19180W        W82904  42.005  36.880   0.817
19181W        W82905  35.524   5.417  13.862
19182W        W82906  11.795   7.797  13.515
19183W        W82907   2.352  23.004   0.372
19184W        W82908   7.908  37.012   3.313
19185W        W82909  20.612   4.797   3.152
19186W        W82910  43.514  40.450   2.239
19187W        W82911  25.032   1.341  13.013
19188W        W82912  17.231  13.789   2.187
19189W        W82913  37.900  26.504  14.901
19190W        W82914  39.401  38.010   0.290
19191W        W82915  37.842   1.915   4.772
19192W        W82916  28.183  44.945  14.880
19193W        W82917   7.833  10.181  13.320
19194W        W82918  36.488  43.402   0.466
19195W        W82919  24.521   3.361  11.105
19196W        W82920   6.788   8.274  14.325
19197W        W82921  29.045  21.143   0.286
19198W        W82922   9.210  42.441  13.428
19199W        W82923  43.795   9.339  11.064
19200W        W82924   1.320   5.793  11.914
19201W        W82925  26.498   5.894   1.354
19202W        W82926  14.761  37.367  13.384
19203W        W82927  26.129  24.506  14.324
19204W        W82928  41.954  39.879   3.722
19205W        W82929  40.469  38.456  10.528
19206W        W82930   4.379  32.927  12.552
19207W        W82931  22.584  22.208   0.330
19208W        W82932  19.180  17.287   3.248
19209W        W82933  42.975   8.396   3.247
19210W        W82934   4.874  35.446   1.696
19211W        W82935   3.220   8.812   2.825
19212W        W82936   2.877  19.628  11.938
19213W        W82937  27.979   6.252  10.967
19214W        W82938  39.427  15.765  14.975
19215W        W82939  41.959  19.706   1.297
19216W        W82940   0.808  23.736   4.120
19217W        W82941   0.335  43.766  12.861
19218W        W82942  42.330  12.770   4.117
19219W        W82943  30.446  29.590  14.806
19220W        W82944   5.381  14.170  11.893
19221W        W82945  14.610  10.812  11.428
19222W        W82946  42.003  30.634   4.837
19223W        W82947  27.665  16.719   1.838
19224W        W82948  37.560  42.523  13.873
19225W        W82949  28.091  21.237   4.630
19226W        W82950   3.377  21.594  12.907
19227W        W82951  13.647  17.095  12.994
19228W        W82952   2.378  22.109  12.571
19229W        W82953  24.030   9.660   3.252
19230W        W82954  17.768   9.222  11.866
19231W        W82955  19.231   3.361  11.410
19232W        W82956   6.845  19.130   4.649
19233W        W82957  42.779  17.115   1.244
19234W        W82958  11.210   0.386   1.285
19235W        W82959   8.258  32.480   1.705
19236W        W82960   4.917  35.886  11.535
19237W        W82961  33.623  34.950  13.835
19238W        W82962  34.409  26.692   4.815
19239W        W82963  11.649  40.451  14.912
19240W        W82964  19.703  19.280   4.307
19241W        W82965  36.890  14.607  12.918
19242W        W82966  35.453   2.341   1.412
19243W        W82967  25.178  44.285   4.143
19244W        W82968  32.596  28.958  12.831
19245W        W82969  33.095  17.064   3.192
19246W        W82970  44.381  37.044  13.007
19247W        W82971   3.728  21.754  14.352
19248W        W82972  44.280  19.042   4.185
19249W        W82973  41.880  35.556   1.430
19250W        W82974  19.567   5.366   1.339
19251W        W82975  34.042  16.119   3.724
19252W        W82976  34.463  39.819   0.405
19253W        W82977   1.324  35.068  11.923
19254W        W82978  24.012  15.111  12.546
19255W        W82979   0.352  26.521  14.396
19256W        W82980  42.029  39.384   1.882
19257W        W82981  23.059   1.336   4.133
19258W        W82982  14.185  28.039   0.292
19259W        W82983  21.550   6.859   4.822
19260W        W82984   7.860  38.445  13.050
19261W        W82985  11.195  24.562  11.414
19262W        W82986  10.324   3.830   5.118
19263W        W82987   0.822  10.166  11.411
19264W        W82988  15.609   5.807   0.860
19265W        W82989   1.758  10.748   4.301
19266W        W82990  22.163  10.239   0.377
19267W        W82991  16.667  26.461  12.434
19268W        W82992   8.405   4.800   4.645
19269W        W82993  30.913  20.602  11.902
19270W        W82994  30.518  30.589  12.458
19271W        W82995  39.518  25.985  13.845
19272W        W82996  42.452  21.737  14.305
19273W        W82997  18.777  40.965   0.780
19274W        W82998   7.684  39.977   0.962
19275W        W82999  12.174  44.398  10.577
19276W        W83000   1.418  21.738  14.323
19277W        W83001   6.849  19.698  12.359
19278W        W83002   1.300  21.187   4.307
19279W        W83003  12.792  11.778   2.791
19280W        W83004  17.723  44.771  12.444
19281W        W83005   8.251  43.436   4.233
19282W        W83006  11.257  14.782   1.925
19283W        W83007  34.932   9.361  11.529
19284W        W83008  14.734  42.873   2.335
19285W        W83009  25.075  17.576  14.933
19286W        W83010  28.171  24.505   3.381
19287W        W83011   4.915   0.280   0.733
19288W        W83012  19.552  16.173  11.547
19289W        W83013  14.603  42.900   3.736
19290W        W83014   7.777  37.988  10.604
19291W        W83015  37.444  17.693   4.328
19292W        W83016  24.078  35.550  13.367
19293W        W83017  17.128  10.346  12.544
19294W        W83018  42.312   2.798   4.149
19295W        W83019  37.426  22.653  10.426
19296W        W83020   1.297  44.408  13.864
19297W        W83021  12.630  35.931   1.410
19298W        W83022  39.378  36.347  14.355
19299W        W83023  20.159  41.995   4.813
19300W        W83024  36.039  44.398  14.854
19301W        W83025  27.686  27.054   4.348
19302W        W83026  29.921  26.485  13.048
19303W        W83027  44.409  35.529   4.284
19304W        W83028  32.056  40.008   0.382
19305W        W83029  44.909  16.791   2.824
19306W        W83030  32.937  24.040   2.313
19307W        W83031  35.531  18.255  11.907
19308W        W83032  27.113  30.940   4.651
19309W        W83033  44.894  30.054  14.285
19310W        W83034  37.086  20.618   3.675
19311W        W83035   5.704  20.567   0.884
19312W        W83036   6.318  14.621   4.329
19313W        W83037  17.178  38.932  13.939
19314W        W83038   3.808  13.129  11.017
19315W        W83039  26.661   5.367   1.323
19316W        W83040   9.342  14.244  14.297
19317W        W83041  28.966  15.706  13.522
19318W        W83042  20.536   7.398   4.663
19319W        W83043  36.969  42.029  11.495
19320W        W83044  43.272  40.845   2.290
19321W        W83045  39.036  23.570   9.985
19322W        W83046  27.616   7.732   5.655
19323W        W83047   6.774  28.186   4.146
19324W        W83048   9.294   1.289  11.041
19325W        W83049  26.625  27.614  11.545
19326W        W83050  12.201  27.596  14.276
19327W        W83051  31.534  32.085   1.387
19328W        W83052  28.158  23.595   1.912
19329W        W83053  33.475  29.070   4.312
19330W        W83054  11.736   8.853  11.611
19331W        W83055  16.247   2.753  13.795
19332W        W83056  31.419   1.791  13.452
19333W        W83057   1.957  31.097   0.249
19334W        W83058  18.775   8.345   2.899
19335W        W83059   9.823  27.663   1.298
19336W        W83060  36.413  13.225   4.250
19337W        W83061  41.872   4.777  14.459
19338W        W83062  29.988  26.581   3.210
19339W        W83063  39.537   5.331  11.553
19340W        W83064  41.531  16.812   2.718
19341W        W83065  21.530  19.741  10.454
19342W        W83066   7.686   8.811   3.183
19343W        W83067  34.954  24.165  12.865
19344W        W83068  11.257  34.090  13.991
19345W        W83069  28.940   5.777  14.436
19346W        W83070   0.309  15.806  13.023
19347W        W83071  17.606   7.858  14.400
19348W        W83072  16.785  28.642   1.747
19349W        W83073  29.053  15.725   4.689
19350W        W83074  30.076  13.126  10.639
19351W        W83075  38.365   0.270  12.406
19352W        W83076  17.125  36.017  11.436
19353W        W83077   3.419   1.751  13.042
19354W        W83078  29.020   2.798   1.218
19355W        W83079  22.643  28.612   1.817
19356W        W83080  25.510  14.298  11.397
19357W        W83081  43.308   5.930  11.062
19358W        W83082   8.342  33.560  10.606
19359W        W83083  34.440  22.730  13.936
19360W        W83084  37.013  34.917  12.853
19361W        W83085  42.836  14.792  13.447
19362W        W83086  37.455  42.827  10.068
19363W        W83087  36.980  13.604   0.858
19364W        W83088  30.554  25.678  12.826
19365W        W83089  10.149  16.187   3.238
19366W        W83090  12.659   1.246  14.277
19367W        W83091  28.147  27.575  11.931
19368W        W83092  41.431   4.789   2.313
19369W        W83093   5.242  30.550   2.298
19370W        W83094  37.070  43.355  14.484
19371W        W83095   8.281  12.122  11.499
19372W        W83096  19.181  36.978   1.305
19373W        W83097  42.463  42.925   0.783
19374W        W83098  13.780  29.601  14.966
19375W        W83099   6.915   9.725   3.658
19376W        W83100  10.302  22.561   3.662
19377W        W83101  39.060  32.134   2.860
19378W        W83102  35.534  34.371   1.419
19379W        W83103  44.832  21.588  11.434
19380W        W83104  37.336   9.266   4.751
19381W        W83105   8.311  33.478  13.990
19382W        W83106  35.602  15.590   5.291
19383W        W83107  20.593   1.278  12.538
19384W        W83108  10.254   1.975  14.422
19385W        W83109   1.753  34.391  10.504
19386W        W83110  36.975  30.526   1.754
19387W        W83111  44.384   4.792  13.975
19388W        W83112  14.717   0.744   4.295
19389W        W83113  43.871  16.217   2.667
19390W        W83114  21.134   3.902  14.804
19391W        W83115  27.675  43.815  13.516
19392W        W83116  44.464  24.078  13.812
19393W        W83117   2.467  18.126  11.578
19394W        W83118  30.046  15.155  11.015
19395W        W83119  28.091  19.572  10.950
19396W        W83120  39.920   8.855   3.648
19397W        W83121   0.754  10.333  12.907
19398W        W83122  16.125  25.158  11.526
19399W        W83123  43.916  21.097  10.026
19400W        W83124  13.733  35.885  13.894
19401W        W83125   0.441  38.425  10.415
19402W        W83126  31.462  14.183   0.324
19403W        W83127   8.318  38.537  13.050
19404W        W83128   3.273  31.487  14.824
19405W        W83129  17.210  42.486  11.081
19406W        W83130  14.659  26.061   1.437
19407W        W83131  39.459  34.559  14.001
19408W        W83132  43.884  22.119   0.833
19409W        W83133  32.620  42.505  12.478
19410W        W83134  21.076  20.060  11.457
19411W        W83135   5.802  10.723  14.925
19412W        W83136   5.294   9.164  13.000
19413W        W83137  22.144  17.747   3.208
19414W        W83138  13.754  38.431   1.317
19415W        W83139  21.081  40.401  11.072
19416W        W83140  35.947  31.473   0.348
19417W        W83141  10.237  21.112   3.737
19418W        W83142   9.848  24.542   0.458
19419W        W83143  36.562  30.999  10.917
19420W        W83144  19.176  29.638   2.893
19421W        W83145   7.851  30.643   5.138
19422W        W83146  25.040  14.195   4.241
19423W        W83147  20.538  40.837   2.180
19424W        W83148  23.084  21.104  14.027
19425W        W83149   0.283  21.081  12.558
19426W        W83150  43.764  28.569   2.203
19427W        W83151  23.626  21.658   0.280
19428W        W83152  35.984   8.215  10.460
19429W        W83153  43.765  38.365   0.381
19430W        W83154  35.501  20.667   3.347
19431W        W83155  44.992  38.480  10.442
19432W        W83156  43.395  12.146   4.604
19433W        W83157  34.980  37.502   0.418
19434W        W83158  13.756  11.819  13.455
19435W        W83159  22.014  31.079   5.238
19436W        W83160  35.066  31.938  14.382
19437W        W83161   2.472  24.094  13.029
19438W        W83162   8.283   4.321  12.912
19439W        W83163   0.486   5.930  11.110
19440W        W83164  40.434  44.905   3.860
19441W        W83165   3.813   5.336   3.358
19442W        W83166  21.106  25.038   3.186
19443W        W83167  23.638  35.568   1.256
19444W        W83168  33.127  29.025   2.185
19445W        W83169  15.231  33.609  12.905
19446W        W83170  34.940  31.627   4.742
19447W        W83171  20.648  14.286   3.862
19448W        W83172  18.599  17.739   2.377
19449W        W83173   6.677   4.324  12.482
19450W        W83174  22.692  23.497   3.853
19451W        W83175  24.150  15.264   0.381
19452W        W83176  26.095  10.146  11.591
19453W        W83177  11.857  32.894  10.935
19454W        W83178  10.837  39.951   1.864
19455W        W83179  33.874  11.825  12.399
19456W        W83180  35.082  41.989   1.279
19457W        W83181  30.997   9.242  11.968
19458W        W83182  34.888  34.944  14.951
19459W        W83183  29.633  12.327   0.471
19460W        W83184  43.280  44.973   0.319
19461W        W83185   6.803  10.683  10.932
19462W        W83186   8.295   5.370   1.374
19463W        W83187   5.393  26.567  13.484
19464W        W83188   4.307  41.937  12.491
19465W        W83189  22.708  38.847   3.636
19466W        W83190   9.759  25.519   2.847
19467W        W83191  19.267  21.133  13.026
19468W        W83192   3.740  31.044   1.240
19469W        W83193  18.198  30.082  10.580
19470W        W83194  21.239  40.384   2.283
19471W        W83195   8.688  40.545   2.728
19472W        W83196  26.619  21.120   0.363
19473W        W83197  20.723   2.758  13.313
19474W        W83198  17.619  38.024   1.410
19475W        W83199   9.647  36.865  10.899
19476W        W83200  44.768  10.228  14.844
19477W        W83201  24.565  41.416   1.336
19478W        W83202  21.607  40.443   3.294
19479W        W83203  37.001   8.356  13.325
19480W        W83204   6.323   3.925   2.237
19481W        W83205  31.438  29.085   0.457
19482W        W83206   7.237   8.227   2.887
19483W        W83207  41.415  35.881   2.831
19484W        W83208  35.987  28.177  11.076
19485W        W83209  33.127  35.906  13.984
19486W        W83210   1.975  32.037  12.547
19487W        W83211  11.260  31.480  12.354
19488W        W83212  16.136  17.262  11.530
19489W        W83213  26.130   1.294   1.361
19490W        W83214  13.793  18.583  14.466
19491W        W83215  40.327  17.790  12.969
19492W        W83216  41.451  31.056   2.253
19493W        W83217  20.564  39.909  12.432
19494W        W83218  26.099  21.538   1.768
19495W        W83219  16.647  31.630  10.632
19496W        W83220  12.118   2.315  14.777
19497W        W83221  26.128   9.771   0.790
19498W        W83222   6.817  24.096   4.131
19499W        W83223  20.117  22.602   1.319
19500W        W83224  10.706  30.165   3.765
19501W        W83225  26.015  34.114  11.937
19502W        W83226  17.623  30.057   4.740
19503W        W83227   0.938  20.042  12.397
19504W        W83228  13.634  26.501   4.129
19505W        W83229  37.576  13.277  12.571
19506W        W83230  27.584  17.678  11.561
19507W        W83231  31.074   6.354  11.936
19508W        W83232  40.864  32.512   2.764
19509W        W83233   4.868  20.677  13.908
19510W        W83234  30.980  33.020   2.875
19511W        W83235  32.076  15.201  14.816
19512W        W83236   6.223  20.082  11.516
19513W        W83237   4.231  43.799   3.761
19514W        W83238   0.300  40.850   0.461
19515W        W83239  43.408  31.553  11.092
19516W        W83240  39.815  34.924   0.890
19517W        W83241  14.790  16.222   0.823
19518W        W83242  39.465  33.489   4.815
19519W        W83243  30.495  36.436   3.649
19520W        W83244  21.099  25.132   1.326
19521W        W83245   4.776  42.868  13.009
19522W        W83246  39.912  36.944  14.365
19523W        W83247   3.289  12.842  11.430
19524W        W83248  14.098  30.037   4.724
19525W        W83249  33.104  36.973   4.140
19526W        W83250  36.455   2.734  14.431
19527W        W83251  11.290  40.414   0.396
19528W        W83252   9.321  42.806  14.905
19529W        W83253  30.436  31.123  12.881
19530W        W83254  23.204  18.121  13.855
19531W        W83255   7.757  27.994  11.911
19532W        W83256  28.160  19.618   1.745
19533W        W83257  36.465  13.663  10.059
19534W        W83258   0.407  33.980  11.550
19535W        W83259  17.654   4.715   1.932
19536W        W83260   4.805  22.180   0.730
19537W        W83261  41.901  44.008  13.979
19538W        W83262  23.528  22.232  10.432
19539W        W83263  42.933  19.128  10.433
19540W        W83264  10.358  24.081  14.878
19541W        W83265   3.800  24.196  11.579
19542W        W83266   3.716  33.389  10.496
19543W        W83267  12.309  37.362   4.811
19544W        W83268  39.030  15.262   3.299
19545W        W83269   3.726  26.178  13.522
19546W        W83270  33.467  22.601   1.297
19547W        W83271   2.928  36.970  14.029
19548W        W83272   8.780  27.488  14.382
19549W        W83273  39.457  31.152  11.109
19550W        W83274  41.335   7.819  11.112
19551W        W83275  44.941  12.311  12.471
19552W        W83276  39.834   2.879   2.778
19553W        W83277   2.931  10.875   3.304
19554W        W83278   1.263  44.776  14.871
19555W        W83279  33.462  27.191   0.477
19556W        W83280  43.886  11.743   3.381
19557W        W83281  39.991  43.318  11.567
19558W        W83282  23.996  37.542  13.885
19559W        W83283  43.475  18.292   5.181
19560W        W83284  22.187  21.106   9.996
19561W        W83285  21.712  37.341   9.465
19562W        W83286  44.384  26.138   2.877
19563W        W83287  44.436  17.792  14.404
19564W        W83288  10.772   3.231  10.628
19565W        W83289  40.470  17.136  12.829
19566W        W83290  24.984  21.048   4.345
19567W        W83291  16.681  26.117  11.980
19568W        W83292  14.833  22.196   0.423
19569W        W83293  35.524  13.314  13.052
19570W        W83294  12.797  13.308   5.321
19571W        W83295   3.775  42.976   2.219
19572W        W83296  14.657  44.003   3.159
19573W        W83297  43.275  37.543  10.937
19574W        W83298  31.587  39.554  12.857
19575W        W83299  35.446   3.343  14.322
19576W        W83300  36.982   9.244   0.791
19577W        W83301  11.738   9.686  10.002
19578W        W83302  31.645  34.467   4.278
19579W        W83303   4.334  21.207  12.346
19580W        W83304   2.826  18.238   4.674
19581W        W83305  19.127  42.019  13.386
19582W        W83306  23.072   5.361   3.243
19583W        W83307   8.320   5.282  14.005
19584W        W83308  39.468  25.099   3.217
19585W        W83309  27.122  33.918  14.296
19586W        W83310  12.758  21.553  11.111
19587W        W83311  28.973   4.915   4.640
19588W        W83312  40.048   2.409   4.827
19589W        W83313  36.884   6.823   1.413
19590W        W83314  31.955   9.317  11.957
19591W        W83315   1.338  17.569  11.093
19592W        W83316   0.852  22.120  14.812
19593W        W83317  40.506   8.704  10.622
19594W        W83318  22.201  14.272  13.524
19595W        W83319  18.160  25.990  13.026
19596W        W83320  21.040  38.904   4.273
19597W        W83321  14.137  27.475  14.810
19598W        W83322   2.895  44.431   1.353
19599W        W83323  39.358  21.632   2.194
19600W        W83324  27.514  29.962   1.747
19601W        W83325   5.428  14.174   3.316
19602W        W83326   6.696  11.350  14.275
19603W        W83327  23.105  42.894   2.417
19604W        W83328  18.192  20.556   1.368
19605W        W83329   9.875  20.613  13.061
19606W        W83330   8.256  19.728  13.495
19607W        W83331  39.941  43.806   5.173
19608W        W83332  39.001  20.213  12.373
19609W        W83333  12.740  25.651  11.989
19610W        W83334  22.722  44.002   4.297
19611W        W83335  23.187   5.700  11.922
19612W        W83336  21.172  23.639  14.838
19613W        W83337  39.862  11.701   1.866
19614W        W83338  24.014  37.869  11.605
19615W        W83339  34.600  27.514   1.843
19616W        W83340  33.574   2.935   2.374
19617W        W83341   1.902  17.293  12.350
19618W        W83342  33.898  31.422  14.799
19619W        W83343  29.503   6.219   3.655
19620W        W83344   0.421   0.261   0.291
19621W        W83345  28.010  33.094   4.660
19622W        W83346   4.769  40.486  13.850
19623W        W83347   0.347  41.306  10.456
19624W        W83348  14.130  36.591  11.906
19625W        W83349  16.810  41.935  12.535
19626W        W83350  30.035   6.802  10.463
19627W        W83351  34.490  15.150   1.439
19628W        W83352   6.850  17.679  12.402
19629W        W83353   3.823  27.655  13.495
19630W        W83354  33.963  44.831   0.933
19631W        W83355  27.169   0.306  11.102
19632W        W83356  12.676  25.690  12.474
19633W        W83357  28.589   0.431   1.446
19634W        W83358  38.435  12.311   3.199
19635W        W83359  16.745  38.838  13.518
19636W        W83360   9.732  16.300  14.299
19637W        W83361  29.965  27.072  12.999
19638W        W83362  37.071  13.200   0.438
19639W        W83363  25.066   4.335   0.831
19640W        W83364  43.362   9.359  14.292
19641W        W83365  29.659  34.062   3.698
19642W        W83366  25.592  42.347   1.268
19643W        W83367  18.259  41.494  14.919
19644W        W83368  30.940  35.899  13.875
19645W        W83369   8.771   0.281   1.400
19646W        W83370  42.455  30.046  11.994
19647W        W83371  33.967  19.571   1.345
19648W        W83372   3.910   8.700   3.339
19649W        W83373  11.660  15.682   2.892
19650W        W83374   4.264  20.171  11.473
19651W        W83375   4.719  13.784  13.389
19652W        W83376  13.232  23.118   3.324
19653W        W83377  39.944   3.772   4.117
19654W        W83378  12.619  33.938  12.875
19655W        W83379  25.622   3.359   1.219
19656W        W83380  15.624   4.268   2.778
19657W        W83381  12.207  10.804  13.406
19658W        W83382  31.602   3.857   3.176
19659W        W83383  21.032  24.058   3.372
19660W        W83384   7.678  24.147   1.728
19661W        W83385   4.872  35.432  12.082
19662W        W83386   5.316   6.406  13.426
19663W        W83387  24.654  36.523   1.795
19664W        W83388  18.140  10.757  14.464
19665W        W83389  34.980  28.655   0.907
19666W        W83390   9.266   7.294   3.207
19667W        W83391   7.790  23.201  13.977
19668W        W83392  22.227  30.458   2.707
19669W        W83393  18.597  24.541  12.013
19670W        W83394  24.542  17.075   4.657
19671W        W83395  30.072  10.694  13.546
19672W        W83396  30.511  33.908  14.296
19673W        W83397  19.140  36.877  12.374
19674W        W83398  27.112  44.417  14.994
19675W        W83399   3.393   6.871   1.769
19676W        W83400  14.788  25.019   2.254
19677W        W83401  22.542  44.443  10.143
19678W        W83402  20.143  12.851   4.225
19679W        W83403  19.656  12.143   1.868
19680W        W83404  42.796  11.222   4.665
19681W        W83405  29.033  19.652  12.918
19682W        W83406  41.802  18.098   3.344
19683W        W83407  39.444  30.100  12.973
19684W        W83408  19.680   5.698  11.445
19685W        W83409  33.608  35.510   3.324
19686W        W83410  17.751   1.309   4.819
19687W        W83411   8.725  35.503   4.244
19688W        W83412  40.394   8.219  13.794
19689W        W83413  25.209  31.629  14.503
19690W        W83414  44.974  38.370   4.760
19691W        W83415  28.097  10.819   5.777
19692W        W83416   5.203  19.076   2.850
19693W        W83417   6.246   1.478   1.434
19694W        W83418  16.294   7.728   3.837
19695W        W83419  30.045  37.429   5.217
19696W        W83420  24.188  13.798   2.854
19697W        W83421   3.750  17.677   0.456
19698W        W83422  30.162  15.595   1.909
19699W        W83423  29.058  38.512  14.407
19700W        W83424   7.401  29.472   3.818
19701W        W83425  12.322  38.332   1.422
19702W        W83426  40.951   0.930   4.670
19703W        W83427  21.690   7.673  14.404
19704W        W83428  36.444  18.284   2.312
19705W        W83429   5.746  12.138   4.743
19706W        W83430  21.531  16.279   3.328
19707W        W83431  15.679  30.512  10.001
19708W        W83432  34.864  43.835  14.834
19709W        W83433  40.978  16.749  14.383
19710W        W83434  34.049   1.460  14.317
19711W        W83435   2.948   9.836  10.559
19712W        W83436  43.376  12.721   2.352
19713W        W83437   5.911   8.770   3.373
19714W        W83438   9.861  19.230   1.374
19715W        W83439   2.945  13.627   4.735
19716W        W83440   1.435  42.937  10.630
19717W        W83441   5.829  34.600   0.891
19718W        W83442  34.391  20.240  10.476
19719W        W83443  37.054  25.594  14.809
19720W        W83444  31.524  22.661   1.308
19721W        W83445   8.172  23.550   2.732
19722W        W83446  34.899  14.697   2.854
19723W        W83447  12.128   7.349  14.985
19724W        W83448  23.560  21.146   0.907
19725W        W83449   7.320  10.294   0.276
19726W        W83450   7.350   3.783  12.062
19727W        W83451  15.322  16.103  11.382
19728W        W83452  29.539   0.454   4.661
19729W        W83453  37.914  12.292  13.955
19730W        W83454   4.308  22.569   3.685
19731W        W83455  25.657  19.756  14.812
19732W        W83456  44.457  13.697  13.799
19733W        W83457  19.761  40.879   5.113
19734W        W83458   3.283  30.645  10.454
19735W        W83459  25.981  34.869   4.600
19736W        W83460  34.879  38.517  11.562
19737W        W83461   0.454   0.850   0.886
19738W        W83462   2.807  36.047  10.486
19739W        W83463   0.487  33.076  10.970
19740W        W83464  41.885   4.827  10.494
19741W        W83465  31.574  43.997  11.920
19742W        W83466  14.276  22.192  12.579
19743W        W83467  19.170  36.955   3.788
19744W        W83468  24.185  40.978   5.171
19745W        W83469  12.232  29.078   4.670
19746W        W83470   0.280  30.963   4.660
19747W        W83471   5.756  28.939  13.001
19748W        W83472  30.430  17.247   0.824
19749W        W83473   5.899   8.766  12.541
19750W        W83474   7.885  18.697   0.887
19751W        W83475   5.241  22.601  13.967
19752W        W83476  31.033   6.750   4.183
19753W        W83477  35.472  32.960   3.807
19754W        W83478  18.226  21.539  12.898
19755W        W83479  36.448  14.777   0.796
19756W        W83480  32.599  28.497   2.830
19757W        W83481   5.826  24.043   1.768
19758W        W83482  21.124   3.936   0.892
19759W        W83483  17.103  43.970  13.947
19760W        W83484  24.047  18.753   4.788
19761W        W83485   5.919  23.540   1.424
19762W        W83486  20.030  20.116  10.631
19763W        W83487  26.654  41.994   3.716
19764W        W83488  30.120  35.570   0.423
19765W        W83489  18.758  19.760  10.459
19766W        W83490   2.237  43.456  12.483
19767W        W83491  10.799   9.859   4.139
19768W        W83492   9.220  12.227  14.320
19769W        W83493   5.920  17.228   0.925
19770W        W83494   7.779   0.917   2.669
19771W        W83495  15.255  39.390   3.359
19772W        W83496   8.184   3.904  14.318
19773W        W83497  19.682   3.311   3.798
19774W        W83498  37.419  12.841  14.892
19775W        W83499  27.191   0.766  12.348
19776W        W83500  27.102   7.741  11.903
19777W        W83501   8.187  38.891   1.729
19778W        W83502  41.420  43.270   9.526
19779W        W83503  42.781  22.642  12.978
19780W        W83504  42.941  18.769   2.366
19781W        W83505  12.343  14.157  11.103
19782W        W83506  30.033  33.995  12.892
19783W        W83507   7.397  38.828  13.445
19784W        W83508  30.000   6.271   0.369
19785W        W83509   2.276  42.385  13.423
19786W        W83510   7.815  42.331   0.837
19787W        W83511  39.491  11.658   0.805
19788W        W83512  16.227  23.673   0.368
19789W        W83513  14.791  30.503   1.726
19790W        W83514  40.421  19.164   3.657
19791W        W83515  16.156  39.814  13.960
19792W        W83516  42.888  33.505  14.926
19793W        W83517  36.479  10.140  11.865
19794W        W83518   4.329  34.040   4.773
19795W        W83519  25.153  38.530   2.354
19796W        W83520  27.950  33.903   2.717
19797W        W83521  37.007  38.829   1.305
19798W        W83522  11.254   2.330   1.410
19799W        W83523   5.720  18.198  10.627
19800W        W83524  41.476  20.547   5.289
19801W        W83525  29.046  14.230   0.790
19802W        W83526   1.301  39.384  14.954
19803W        W83527   6.720  40.330   1.911
19804W        W83528   3.220  42.823   2.311
19805W        W83529  35.039   3.269  11.471
19806W        W83530  39.842   1.793   4.216
19807W        W83531  41.339  11.360   1.799
19808W        W83532   7.313  30.938   2.264
19809W        W83533  13.325  39.019   1.728
19810W        W83534  31.058  18.180  13.831
19811W        W83535  24.035  20.703  14.988
19812W        W83536   1.742  17.772   2.212
19813W        W83537  41.955  11.674   5.168
19814W        W83538  27.164  31.585   2.825
19815W        W83539  34.383  35.573   2.703
19816W        W83540   9.246  11.257  12.560
19817W        W83541  17.730  21.738  12.341
19818W        W83542   2.451  16.159  14.313
19819W        W83543  13.142  40.813   1.244
19820W        W83544  32.546   5.690  12.830
19821W        W83545  23.045  41.502   4.155
19822W        W83546  23.219  33.433  14.371
19823W        W83547  23.072   3.883  14.389
19824W        W83548  19.256  32.415   4.119
19825W        W83549  16.631  38.367  14.959
19826W        W83550   9.203   7.910   0.784
19827W        W83551   6.255   1.394   4.811
19828W        W83552  24.126  37.338  14.781
19829W        W83553  10.281   0.255   2.296
19830W        W83554  42.409  21.733   1.793
19831W        W83555  26.553   3.277   4.754
19832W        W83556  31.558  10.860   2.410
19833W        W83557   0.472   1.877  12.382
19834W        W83558  26.073  44.274   4.321
19835W        W83559  42.459  32.535   1.768
19836W        W83560  16.788   8.717  10.443
19837W        W83561   1.282   1.885  12.950
19838W        W83562   4.899  33.421   3.716
19839W        W83563  21.068  21.588   3.771
19840W        W83564  24.524  10.746   0.767
19841W        W83565  42.514  20.182   3.657
19842W        W83566  17.800   8.747  11.508
19843W        W83567  38.821   9.153   2.196
19844W        W83568  25.617  14.745  14.357
19845W        W83569  18.778  29.145   4.627
19846W        W83570   9.304  16.201   1.447
19847W        W83571  25.499  16.304   1.449
19848W        W83572   1.390  25.074   1.275
19849W        W83573  24.032  18.635   4.233
19850W        W83574  22.057  15.266   1.238
19851W        W83575  24.512  25.089  11.449
19852W        W83576  29.583  21.747  12.403
19853W        W83577  26.477  43.834   0.270
19854W        W83578   4.379  41.425  10.481
19855W        W83579  31.453  10.197  12.899
19856W        W83580  39.878  40.049  13.458
19857W        W83581  20.036  11.222   2.276
19858W        W83582  10.186  35.566   3.780
19859W        W83583  25.072  12.680   9.995
19860W        W83584  21.585   8.387   4.150
19861W        W83585  42.776   9.885   2.416
19862W        W83586  41.498  43.492  11.590
19863W        W83587  32.033  21.734   3.744
19864W        W83588   8.282  24.982  11.090
19865W        W83589  42.523   5.246   3.363
19866W        W83590   9.725   5.318  11.585
19867W        W83591  28.578  23.685   2.893
19868W        W83592  23.713  40.916  14.893
19869W        W83593   6.810   5.761  14.001
19870W        W83594  17.609  21.730   3.203
19871W        W83595  14.094   3.449  14.416
19872W        W83596  25.121  12.768   3.704
19873W        W83597   8.335  21.675  10.526
19874W        W83598  15.724   0.387   4.130
19875W        W83599  12.238   8.188  14.472
19876W        W83600  11.765  16.787   0.418
19877W        W83601  41.797  44.984   2.240
19878W        W83602  40.329  42.405   2.205
19879W        W83603  19.712  35.433   1.924
19880W        W83604   2.939  11.218  10.960
19881W        W83605  44.840  41.441   4.286
19882W        W83606   1.435  42.281   1.917
19883W        W83607  36.396  42.993   1.854
19884W        W83608  32.455  32.014  14.794
19885W        W83609   2.842  44.823   2.224
19886W        W83610  20.554  29.628   4.256
19887W        W83611  34.021   0.370  13.924
19888W        W83612  22.542  36.947   2.795
19889W        W83613  20.748   9.207  11.097
19890W        W83614   5.407  27.536  11.105
19891W        W83615  18.104   1.755  10.976
19892W        W83616  37.504  17.301  10.619
19893W        W83617  28.985   2.753   2.180
19894W        W83618   7.698   5.887  13.334
19895W        W83619  10.832  42.525  11.977
19896W        W83620  43.928  14.333  13.057
19897W        W83621  43.976   6.418  11.579
19898W        W83622   3.372   7.760   4.599
19899W        W83623  10.701   2.881  10.611
19900W        W83624  40.889   1.258   1.931
19901W        W83625  29.929   4.342  12.048
19902W        W83626  15.807  23.028   2.275
19903W        W83627  29.657  36.486  11.521
19904W        W83628  31.619  23.153   1.870
19905W        W83629  30.917  37.840   0.264
19906W        W83630  10.347  18.630  12.551
19907W        W83631  18.684  10.851  13.001
19908W        W83632  23.499   0.889   3.272
19909W        W83633  18.628  32.996   3.847
19910W        W83634  23.067  10.165  12.347
19911W        W83635  26.574  15.581  14.841
19912W        W83636  13.133  12.279  14.783
19913W        W83637  31.026  37.507  14.429
19914W        W83638  42.908  23.608   1.414
19915W        W83639  17.584  28.542  14.456
19916W        W83640  27.033  39.999  11.599
19917W        W83641   7.821  27.028  13.824
19918W        W83642  30.495  10.648   3.258
19919W        W83643   8.762  35.434  14.507
19920W        W83644   1.812  27.446   1.792
19921W        W83645  32.556   8.735  14.294
19922W        W83646  14.096  32.042  13.453
19923W        W83647  13.126  16.090   1.375
19924W        W83648  42.825  19.228  11.573
19925W        W83649  36.074  11.719   0.840
19926W        W83650  11.728   2.914   0.422
19927W        W83651  26.014  33.125   0.315
19928W        W83652  27.126   0.921  14.412
19929W        W83653  30.565  24.158  14.891
19930W        W83654  34.067  43.476   3.669
19931W        W83655  16.569  11.865   0.739
19932W        W83656   7.810  17.627   1.388
19933W        W83657  13.189   5.423  13.545
19934W        W83658  14.722  16.117  13.818
19935W        W83659  36.045  42.839   0.318
19936W        W83660  41.983  11.205  14.966
19937W        W83661  10.267  10.157  13.841
19938W        W83662  24.087   4.724   0.302
19939W        W83663  44.319  31.411   0.749
19940W        W83664   3.368   1.400  13.947
19941W        W83665  32.108  25.581   0.464
19942W        W83666   8.846  17.763  12.548
19943W        W83667  28.974  11.701   5.236
19944W        W83668   1.815  26.090   1.817
19945W        W83669  33.409  18.105   1.395
19946W        W83670   6.687  21.189  12.492
19947W        W83671  23.202  33.905   2.846
19948W        W83672   6.715  34.943  13.312
19949W        W83673  38.511  13.601   4.314
19950W        W83674  44.841   9.206   2.843
19951W        W83675   0.257  15.303   2.364
19952W        W83676  16.186  36.590   0.913
19953W        W83677  34.968   1.910   2.897
19954W        W83678  35.026  25.181  12.394
19955W        W83679  20.076  33.984   4.141
19956W        W83680  41.826  34.521   3.736
19957W        W83681   1.890  22.567   2.393
19958W        W83682  43.770  37.551  12.061
19959W        W83683  39.484  30.417  11.873
19960W        W83684  40.005  31.531  13.033
19961W        W83685   2.341  16.177   1.329
19962W        W83686  36.071  37.358   4.204
19963W        W83687   6.187  38.062   1.388
19964W        W83688  27.179  26.491   3.661
19965W        W83689  18.127   6.202   1.864
19966W        W83690  18.623  28.437  11.904
19967W        W83691  21.641  33.470  14.896
19968W        W83692  12.832  21.034   3.366
19969W        W83693  29.951  40.050  10.528
19970W        W83694  18.200  18.115   1.245
19971W        W83695  38.537  27.580   0.837
19972W        W83696  37.970  13.769   1.361
19973W        W83697   0.275  34.598  10.411
19974W        W83698   8.876   4.302   2.414
19975W        W83699   4.389   5.856   2.850
19976W        W83700  32.978   2.787   0.874
19977W        W83701  14.280  38.980  11.097
19978W        W83702   8.256  25.559  12.479
19979W        W83703  44.262   6.273  11.089
19980W        W83704  43.345  38.925   3.779
19981W        W83705  27.045   8.850   1.319
19982W        W83706   6.313  33.466   1.226
19983W        W83707  38.461  19.637   4.240
19984W        W83708  41.865  31.564   4.824
19985W        W83709  39.454  38.961   2.685
19986W        W83710  44.294  32.443  10.430
19987W        W83711  22.551  41.818   9.993
19988W        W83712  39.889  36.457  11.546
19989W        W83713  25.503   7.688   0.888
19990W        W83714  28.443  43.891   3.330
19991W        W83715  20.171  12.757   9.984
19992W        W83716  38.877  23.667  13.530
19993W        W83717   2.929  16.704   0.345
19994W        W83718  34.031  35.090   0.361
19995W        W83719  26.107  33.577  13.917
19996W        W83720  20.704  25.119   2.354
19997W        W83721  19.275  12.826  14.891
19998W        W83722  37.050  39.852  12.484
19999W        W83723  20.629  27.520  11.496
20000W        W83724  18.277  28.977   3.307
20001W        W83725  24.578  22.076   4.766
20002W        W83726  24.087   1.880  14.443
20003W        W83727  12.827   8.387   0.957
20004W        W83728  43.923  14.167  11.990
20005W        W83729  11.696  41.001   3.376
20006W        W83730  43.408  38.530   3.189
20007W        W83731  33.031  14.273   1.827
20008W        W83732   2.422  37.550   1.763
20009W        W83733  35.480  21.644  10.499
20010W        W83734  13.210   7.203   1.403
20011W        W83735  38.064   5.842  11.101
20012W        W83736  42.464  11.194   3.165
20013W        W83737  31.494  40.399  14.328
20014W        W83738  24.196  35.043   1.877
20015W        W83739  29.009  44.822  14.476
20016W        W83740  22.701  10.855  12.017
20017W        W83741  36.894   7.203   1.442
20018W        W83742  14.219  44.947  14.786
20019W        W83743  44.881  21.568   1.734
20020W        W83744  34.596  16.156   2.359
20021W        W83745   7.408  41.382  10.963
20022W        W83746  21.515  35.452  10.914
20023W        W83747  20.632  24.687  13.934
20024W        W83748  35.958  24.624   1.776
20025W        W83749  25.042  26.135   0.862
20026W        W83750  30.160  34.505   1.269
20027W        W83751  20.743   1.909   4.677
20028W        W83752  33.063  16.234   2.389
20029W        W83753  35.503  24.147  13.033
20030W        W83754   5.269  22.066   4.702
20031W        W83755  42.857   7.279  13.356
20032W        W83756  26.526  20.266   0.952
20033W        W83757  28.587  32.974   4.155
20034W        W83758  14.715  28.574   1.331
20035W        W83759  39.865  15.092   2.246
20036W        W83760  24.486   4.414   0.798
20037W        W83761  26.659  13.338  12.077
20038W        W83762  27.571  32.517  13.439
20039W        W83763  24.501  29.454  13.496
20040W        W83764  24.139  23.202  10.960
20041W        W83765   1.769  36.983  12.918
20042W        W83766   0.804  36.854   4.813
20043W        W83767  33.585  13.269  14.911
20044W        W83768  21.067  35.002  14.394
20045W        W83769   0.436  14.616   0.463
20046W        W83770  16.082  23.632   3.204
20047W        W83771  21.223  36.999  10.980
20048W        W83772  26.532  26.647   4.154
20049W        W83773  18.130   5.864   2.413
20050W        W83774  24.490   6.291  10.631
20051W        W83775   8.272   2.907  11.025
20052W        W83776  36.962  15.646   5.282
20053W        W83777  43.907  11.743  10.935
20054W        W83778  16.600  17.599  13.425
20055W        W83779  38.990  44.932  12.896
20056W        W83780  32.070  38.851   0.727
20057W        W83781  16.144  32.097  10.950
20058W        W83782  27.117  10.758  13.494
20059W        W83783   4.894  38.836   0.445
20060W        W83784  11.196  12.252  13.415
20061W        W83785  37.398  25.111  10.099
20062W        W83786  10.369   0.807   4.761
20063W        W83787  30.484   1.755   0.848
20064W        W83788  27.497   7.825   0.314
20065W        W83789  33.966  35.993   1.904
20066W        W83790  39.887  39.936  10.413
20067W        W83791  42.302  42.983   3.382
20068W        W83792  15.301  40.901  11.476
20069W        W83793  32.423  24.210  13.406
20070W        W83794  43.513  10.702  13.518
20071W        W83795  31.969   9.281   4.169
20072W        W83796  39.928  36.525   4.211
20073W        W83797   3.819  23.585  11.448
20074W        W83798  16.788  24.554   4.218
20075W        W83799  36.565  12.140   2.671
20076W        W83800  43.904  28.982  11.457
20077W        W83801  14.810  16.636  13.839
20078W        W83802  11.649  12.256  10.132
20079W        W83803  32.079  26.661  14.295
20080W        W83804   2.323  32.936   0.915
20081W        W83805  38.987   8.730  11.574
20082W        W83806  11.656  35.376   0.375
20083W        W83807   3.858   8.838   3.645
20084W        W83808  25.609   7.727  10.606
20085W        W83809  21.558   6.331  13.436
20086W        W83810  27.009  37.504   1.227
20087W        W83811  12.300  19.680  11.047
20088W        W83812  31.024  10.178  13.322
20089W        W83813   3.298  35.964   2.304
20090W        W83814  10.370  21.173  14.903
20091W        W83815  27.957   9.297  11.866
20092W        W83816  36.522   2.252   1.751
20093W        W83817  26.005  32.990  12.854
20094W        W83818  29.573  24.707   0.810
20095W        W83819  18.256  38.044  10.574
20096W        W83820   3.335  15.725  10.965
20097W        W83821  13.185  37.341  13.871
20098W        W83822  25.615  26.487   1.815
20099W        W83823  16.242  29.173   0.420
20100W        W83824  28.035  27.619   2.700
20101W        W83825   6.912  19.757   3.249
20102W        W83826  41.006  42.303   2.717
20103W        W83827  34.041  28.027  11.070
20104W        W83828   3.410  43.011   5.304
20105W        W83829  27.077  40.957   3.635
20106W        W83830  36.927  28.442  11.479
20107W        W83831   4.303  18.105   3.162
20108W        W83832  14.190  15.626   3.760
20109W        W83833  37.451  19.227   2.284
20110W        W83834  41.937  18.191  14.962
20111W        W83835  27.173  29.565  12.007
20112W        W83836   4.849  12.198   4.821
20113W        W83837  16.715  24.696  14.293
20114W        W83838  11.738  38.500   1.314
20115W        W83839  40.385  33.476   1.699
20116W        W83840  18.213  31.479  13.908
20117W        W83841  22.734   6.706  11.097
20118W        W83842   3.851  22.247   1.695
20119W        W83843  43.784  41.820  10.424
20120W        W83844  39.425   2.868   3.739
20121W        W83845   4.338  13.668   0.802
20122W        W83846   1.926  40.893  13.963
20123W        W83847  44.362  29.440  12.417
20124W        W83848   1.762  22.647   1.805
20125W        W83849  19.262  41.345  14.833
20126W        W83850   3.245   9.267  13.931
20127W        W83851  30.608   1.432  12.832
20128W        W83852  26.951  10.234  13.921
20129W        W83853  36.869   3.439  11.594
20130W        W83854  44.350  44.846   2.784
20131W        W83855   8.843  23.171  14.440
20132W        W83856  25.141  32.891   4.767
20133W        W83857  26.072  41.305  12.415
20134W        W83858  34.404   6.230  11.594
20135W        W83859  15.300  27.964  11.594
20136W        W83860  37.967  33.579  14.379
20137W        W83861  28.064  41.821   0.481
20138W        W83862  24.709  22.578   3.652
20139W        W83863   3.380  15.809   1.720
20140W        W83864  24.992   5.698  14.498
20141W        W83865  44.872  26.092   3.674
20142W        W83866  22.247   1.786  11.382
20143W        W83867  23.670  14.688   2.739
20144W        W83868  11.765   4.792  13.886
20145W        W83869  27.505  12.136   1.412
20146W        W83870   9.336  36.536  12.527
20147W        W83871  11.348   5.308   2.337
20148W        W83872  14.151   8.346  11.504
20149W        W83873  21.655  14.595   1.225
20150W        W83874  28.482  11.718  13.955
20151W        W83875   7.173  20.624   2.272
20152W        W83876  38.917  38.379   4.603
20153W        W83877  30.600  35.543  11.110
20154W        W83878  42.421   1.281  13.520
20155W        W83879  12.157  30.603   4.641
20156W        W83880  31.565  14.592   1.393
20157W        W83881   9.387  26.995   2.273
20158W        W83882  29.663  16.174   3.812
20159W        W83883   7.690   7.416  11.073
20160W        W83884  21.083   8.264   4.315
20161W        W83885  22.023  29.542  10.432
20162W        W83886  22.530  25.523  13.527
20163W        W83887  10.356  35.436   3.212
20164W        W83888   4.743  16.086  11.502
20165W        W83889  19.137  24.041   4.292
20166W        W83890  40.303  29.108   5.109
20167W        W83891   2.860  10.140  13.478
20168W        W83892   4.789  21.198   3.674
20169W        W83893  33.027  19.172   3.761
20170W        W83894  12.619  23.668  13.807
20171W        W83895  25.713  22.124  14.761
20172W        W83896   9.310  39.498   3.695
20173W        W83897  41.903  33.399   1.882
20174W        W83898  41.882  25.565  12.043
20175W        W83899  42.964  33.439  13.026
20176W        W83900  41.809  43.312  11.493
20177W        W83901  34.459  18.778  12.533
20178W        W83902  35.109  36.094  14.475
20179W        W83903   0.331  36.362  12.864
20180W        W83904  11.348  30.988  12.927
20181W        W83905  12.347   3.445   0.296
20182W        W83906  34.537  22.683  10.416
20183W        W83907  12.628  19.136   3.728
20184W        W83908   8.737  15.773  13.846
20185W        W83909  16.293   4.434   2.239
20186W        W83910  21.164  20.149  13.013
20187W        W83911  34.924  41.419   1.724
20188W        W83912  24.108  19.194   0.897
20189W        W83913   6.737   2.847  12.375
20190W        W83914   0.489  41.446  12.017
20191W        W83915  42.813  19.268   3.245
20192W        W83916  40.497  29.061   2.862
20193W        W83917  10.709  34.369  12.033
20194W        W83918  23.719  30.989   4.229
20195W        W83919   8.786  30.067   4.146
20196W        W83920   5.237  28.488  12.927
20197W        W83921  25.589  30.981  12.928
20198W        W83922  24.504  27.550  10.585
20199W        W83923  31.078   1.859  11.946
20200W        W83924  22.655  12.236   0.447
20201W        W83925  12.704  29.997   0.850
20202W        W83926  41.874  27.553  14.415
20203W        W83927  31.403   9.337  13.503
20204W        W83928   1.821  30.044  12.943
20205W        W83929   9.351  22.056   1.888
20206W        W83930  32.597   0.868   0.316
20207W        W83931  37.882   3.219   1.419
20208W        W83932  19.746  14.161   3.234
20209W        W83933  41.914  30.480  11.930
20210W        W83934  13.772  24.026   3.149
20211W        W83935   5.708   9.205  14.867
20212W        W83936  39.879  36.987  14.944
20213W        W83937  17.772  14.784  13.525
20214W        W83938   9.360   2.777  14.320
20215W        W83939   4.249  24.635   1.900
20216W        W83940  34.863  19.716   5.298
20217W        W83941   2.872  34.517  10.946
20218W        W83942  41.037  44.393   5.132
20219W        W83943  18.171  16.799  12.565
20220W        W83944  27.180  17.636   0.329
20221W        W83945  17.200   3.750   4.696
20222W        W83946   7.808  44.330   3.663
20223W        W83947  41.926  24.042   3.676
20224W        W83948  30.944  34.486   3.674
20225W        W83949  25.131   2.459  13.010
20226W        W83950  26.161  36.474  11.066
20227W        W83951  33.033   4.887  14.824
20228W        W83952  28.529  31.624   1.350
20229W        W83953  33.971  35.489   2.745
20230W        W83954  13.802  43.886  13.824
20231W        W83955  14.134  33.549   3.749
20232W        W83956  24.219  38.464  10.926
20233W        W83957  43.939   6.728  13.525
20234W        W83958   8.732  23.495  13.960
20235W        W83959  14.233  25.635   4.257
20236W        W83960  33.041  17.107   4.737
20237W        W83961  40.516  10.298  10.526
20238W        W83962  24.625   6.742  13.957
20239W        W83963  41.848   2.930   3.174
20240W        W83964  19.761  40.409   5.093
20241W        W83965  34.029  44.890   3.680
20242W        W83966   8.809  16.730  12.863
20243W        W83967   5.882   0.257   3.177
20244W        W83968  15.787  40.429   2.805
20245W        W83969   4.747  11.673  14.835
20246W        W83970  28.084  25.593  11.384
20247W        W83971  10.355   7.406   4.612
20248W        W83972  20.726  33.972  11.045
20249W        W83973  29.945  22.666  11.928
20250W        W83974  27.191   1.775   2.793
20251W        W83975   7.179  16.206  12.340
20252W        W83976   5.862  29.538   3.734
20253W        W83977  18.671   3.359  13.946
20254W        W83978  41.506  23.690  11.891
20255W        W83979  12.140   7.417   4.813
20256W        W83980  19.107  34.556  11.910
20257W        W83981   2.440  25.130  11.435
20258W        W83982  15.329  17.268  11.914
20259W        W83983  24.668  15.635  14.322
20260W        W83984  26.494  42.357  11.003
20261W        W83985  41.305  38.836  10.980
20262W        W83986  10.827   4.842  14.485
20263W        W83987  16.783   8.177   2.375
20264W        W83988   3.758  23.518   2.759
20265W        W83989   7.334  44.833  13.320
20266W        W83990   8.399  42.319   0.257
20267W        W83991  27.169   0.935  10.495
20268W        W83992  32.098  25.674   3.763
20269W        W83993  10.812   6.425  13.381
20270W        W83994  28.164  17.566   1.898
20271W        W83995  37.457  31.059  14.457
20272W        W83996   9.860  33.049   4.234
20273W        W83997   5.899  42.393   2.685
20274W        W83998   5.346  28.027  10.632
20275W        W83999  12.802  20.719  11.570
20276W        W84000  17.292  26.652  10.084
20277W        W84001  10.264  12.323  11.378
20278W        W84002  39.973   2.848  14.498
20279W        W84003  31.404  18.295   2.844
20280W        W84004   2.272  29.990   3.346
20281W        W84005  41.302  38.560  13.437
20282W        W84006  16.632  17.184  10.499
20283W        W84007  24.544  20.177  14.382
20284W        W84008  36.928   6.801   3.351
20285W        W84009  44.938  36.497   0.894
20286W        W84010  31.594  39.949  14.377
20287W        W84011  41.900  18.747  13.453
20288W        W84012  23.188   6.382  13.822
20289W        W84013  43.299  22.607   9.513
20290W        W84014  41.381   9.699  13.536
20291W        W84015   8.313  27.469  14.958
20292W        W84016  40.321  35.405   0.391
20293W        W84017  13.316  30.929   4.140
20294W        W84018  12.251  13.200   4.260
20295W        W84019  38.487   6.805  10.941
20296W        W84020   2.774  36.914   2.776
20297W        W84021  31.601  15.140   3.320
20298W        W84022   2.893  32.970  13.995
20299W        W84023  26.987   0.387   4.760
20300W        W84024  27.024  24.625   3.813
20301W        W84025  20.190   8.704   2.901
20302W        W84026  37.834  10.164   9.999
20303W        W84027  22.121  25.647  12.551
20304W        W84028  42.379  11.694   3.194
20305W        W84029  23.564  42.359  13.029
20306W        W84030  23.683  16.307  13.027
20307W        W84031  38.851  44.473   0.825
20308W        W84032  39.436  27.160   0.869
20309W        W84033  11.793  21.211   4.835
20310W        W84034  24.143  40.403  13.885
20311W        W84035  39.007  33.108  13.794
20312W        W84036  15.612  17.187   5.165
20313W        W84037  24.074   5.913   4.803
20314W        W84038   1.327   4.793   1.255
20315W        W84039  32.943  21.712   4.610
20316W        W84040  44.960  28.018   1.379
20317W        W84041   6.334  30.969  11.106
20318W        W84042  17.649  42.359   0.911
20319W        W84043  14.237  19.123  11.892
20320W        W84044  24.073  26.482  13.905
20321W        W84045   3.247  34.057  10.509
20322W        W84046  32.010  41.016  10.963
20323W        W84047  24.535  27.668   0.892
20324W        W84048  10.788   6.825   1.823
20325W        W84049  29.575  25.987  10.525
20326W        W84050   7.787  39.012   2.672
20327W        W84051  38.415   8.697  13.328
20328W        W84052  16.131  37.398   1.259
20329W        W84053  38.401  14.683   4.760
20330W        W84054   4.757  24.678   3.784
20331W        W84055  35.433   7.859  12.465
20332W        W84056  13.153  31.504  11.112
20333W        W84057  18.622  28.522  11.103
20334W        W84058  40.021  23.095   3.159
20335W        W84059  15.646  41.830   2.259
20336W        W84060   2.751  13.264  11.463
20337W        W84061  37.360  15.232   4.796
20338W        W84062   2.233   7.890   1.234
20339W        W84063  15.221  26.608   1.797
20340W        W84064  35.903  41.393  10.432
20341W        W84065  33.516  20.243   1.763
20342W        W84066  41.491  13.107   0.788
20343W        W84067  31.125  19.202  14.821
20344W        W84068  19.659  37.546   0.729
20345W        W84069  25.472   6.295   2.326
20346W        W84070  14.156   1.349   1.793
20347W        W84071  33.985  36.922  12.893
20348W        W84072  30.603  25.564   1.244
20349W        W84073   4.933  33.053  14.990
20350W        W84074  18.178   1.894   2.355
20351W        W84075  32.960  22.706  14.411
20352W        W84076  15.726  19.252   1.920
20353W        W84077  44.775  27.675  11.924
20354W        W84078  38.927  41.956   9.540
20355W        W84079   6.780  26.028  13.521
20356W        W84080  31.484  35.051   2.730
20357W        W84081  42.796   5.752   0.947
20358W        W84082  18.159   5.354   3.729
20359W        W84083  35.852  19.131  14.832
20360W        W84084   6.211   3.748  14.451
20361W        W84085  39.956  35.999   1.699
20362W        W84086  23.596  10.378  11.454
20363W        W84087   9.332  42.398  11.433
20364W        W84088  18.594  37.362   4.306
20365W        W84089  14.770  13.301   0.848
20366W        W84090  11.141  36.354  14.884
20367W        W84091  21.700  42.919  14.806
20368W        W84092  27.169  10.305   1.832
20369W        W84093  30.003   8.878  13.054
20370W        W84094  41.867  43.329   1.736
20371W        W84095  27.171  10.207  14.871
20372W        W84096  31.003  44.432  12.469
20373W        W84097  10.371  21.732   3.239
20374W        W84098  16.690  15.605   2.253
20375W        W84099  15.628  21.694   0.367
20376W        W84100  35.577  39.035   1.339
20377W        W84101  17.695  19.588  13.313
20378W        W84102  29.173  42.323  14.331
20379W        W84103   9.761  13.687   2.800
20380W        W84104   0.891   3.795   0.920
20381W        W84105  17.081  40.927  11.863
20382W        W84106  38.503  41.881  10.549
20383W        W84107  21.091   2.303   3.678
20384W        W84108  28.947  39.837   0.288
20385W        W84109   2.935  14.717   1.784
20386W        W84110  23.092  22.656   3.635
20387W        W84111  34.511  44.768  13.934
20388W        W84112  38.855  10.706  11.095
20389W        W84113  11.153  21.718  10.957
20390W        W84114  39.850  38.330   4.778
20391W        W84115  44.867   0.422  13.394
20392W        W84116   2.324  23.559   3.674
20393W        W84117  34.513  11.323  14.445
20394W        W84118  26.074  21.647  11.417
20395W        W84119  26.526  38.367   4.177
20396W        W84120  10.306   7.301   1.263
20397W        W84121  38.832   9.297  12.429
20398W        W84122  15.319   0.923   3.712
20399W        W84123   7.205  10.210   3.855
20400W        W84124  42.509  33.433   3.778
20401W        W84125  35.560  12.160  10.446
20402W        W84126  41.010  38.823  13.976
20403W        W84127  20.130  37.081  11.859
20404W        W84128  37.993   1.467   0.370
20405W        W84129  30.163  40.374  12.414
20406W        W84130   9.821  38.511   2.277
20407W        W84131  42.965   1.308  12.537
20408W        W84132  13.641   6.719  11.486
20409W        W84133  16.164  19.078   0.370
20410W        W84134  16.569  21.051   2.361
20411W        W84135  40.450  17.218   1.819
20412W        W84136  44.317   9.209   2.710
20413W        W84137  10.753  42.361   3.184
20414W        W84138  41.444  22.077  11.612
20415W        W84139  28.475  12.201  12.492
20416W        W84140  27.596  40.335   2.710
20417W        W84141  33.591  29.060   1.367
20418W        W84142  29.477  30.435  13.416
20419W        W84143  28.933   6.767  11.401
20420W        W84144  38.041  28.175  13.001
20421W        W84145  25.502  29.480   0.445
20422W        W84146  18.627  18.558   2.860
20423W        W84147   8.332  25.621  10.556
20424W        W84148  11.161   6.792   1.840
20425W        W84149  24.040  23.055  13.962
20426W        W84150  43.394  32.056  10.057
20427W        W84151  18.665  39.335   2.332
20428W        W84152  16.259  37.076   2.199
20429W        W84153  27.960  28.148   1.224
20430W        W84154  35.586  18.204   2.401
20431W        W84155  30.085   3.312  10.568
20432W        W84156   8.881  32.525  14.791
20433W        W84157   1.314   1.918   1.280
20434W        W84158  24.605   9.363  13.528
20435W        W84159   8.311  33.098  10.414
20436W        W84160  25.686   9.878  13.441
20437W        W84161  44.406  27.960  13.019
20438W        W84162  24.095  22.108  11.372
20439W        W84163  18.252  12.305  13.445
20440W        W84164   3.260  18.126   2.815
20441W        W84165   4.820  22.047  11.898
20442W        W84166  29.439  35.031  13.878
20443W        W84167   1.878  30.004  10.985
20444W        W84168   0.858  29.604   0.963
20445W        W84169  17.276  26.139  14.848
20446W        W84170  39.402  43.427   0.348
20447W        W84171  42.984  23.156   1.813
20448W        W84172  22.009  13.773   2.322
20449W        W84173  22.734  14.690  11.945
20450W        W84174  35.093  36.930   3.299
20451W        W84175   4.936  32.031  10.973
20452W        W84176  44.918   1.749   0.294
20453W        W84177  37.020  44.392  13.840
20454W        W84178  28.105   5.929   3.800
20455W        W84179  44.936  29.016  10.963
20456W        W84180  14.616  41.928  14.857
20457W        W84181   3.218  24.046   0.471
20458W        W84182  21.540  24.214  14.851
20459W        W84183  40.437  36.462   0.965
20460W        W84184  14.117   8.399  14.437
20461W        W84185  25.061  43.298   0.439
20462W        W84186  27.004  26.615  11.923
20463W        W84187  11.267  17.700  14.477
20464W        W84188  16.805   8.703  10.938
20465W        W84189   2.266  32.095   3.148
20466W        W84190   6.718  30.557  14.440
20467W        W84191  43.348  23.500  14.938
20468W        W84192  21.623   9.300  14.308
20469W        W84193  14.832  43.973   4.640
20470W        W84194  17.081   3.375   0.758
20471W        W84195  31.496  31.121  12.549
20472W        W84196  43.782  16.191  12.095
20473W        W84197  40.960   5.772   1.775
20474W        W84198  21.605  17.084   3.296
20475W        W84199  25.483  11.686   3.661
20476W        W84200  35.584   6.206   3.870
20477W        W84201   1.390   9.681   0.419
20478W        W84202  23.196   3.408   0.276
20479W        W84203  13.739   8.817   4.807
20480W        W84204  43.912  33.990  12.074
20481W        W84205  30.112  14.250  10.487
20482W        W84206   4.225   1.271  11.412
20483W        W84207   1.422  25.076   0.764
20484W        W84208  39.509  21.207   1.858
20485W        W84209  31.409  29.539  12.935
20486W        W84210  35.993  25.645  10.930
20487W        W84211  12.147  25.962  14.505
20488W        W84212  38.921  13.243  11.893
20489W        W84213   5.804  44.338   0.796
20490W        W84214  33.448   9.876  10.431
20491W        W84215  42.299   1.386   2.398
20492W        W84216  15.225  33.119   1.295
20493W        W84217  36.079  40.502  12.081
20494W        W84218   6.724  24.533   0.824
20495W        W84219  30.626   1.948   3.312
20496W        W84220  35.010   3.234  10.011
20497W        W84221  21.029  18.227   3.384
20498W        W84222  21.191  23.681  11.875
20499W        W84223  39.832  16.752  11.596
20500W        W84224  25.681   4.834   1.935
20501W        W84225  21.679  36.021   1.859
20502W        W84226  21.660  15.133   5.316
20503W        W84227  38.039  41.348  13.531
20504W        W84228  24.179  14.590  12.057
20505W        W84229  34.536   4.232   3.653
20506W        W84230  23.100  38.037   4.228
20507W        W84231  36.026   7.695  13.382
20508W        W84232   2.260  24.204   1.934
20509W        W84233   4.753  41.019   3.258
20510W        W84234  13.322  21.719  13.387
20511W        W84235   5.428  44.792   1.824
20512W        W84236   1.343  22.193  13.360
20513W        W84237   3.907  25.536   2.308
20514W        W84238   2.448  22.007  11.558
20515W        W84239  42.298  36.946   2.363
20516W        W84240  12.781  21.607  10.539
20517W        W84241  34.949  34.983   4.690
20518W        W84242  28.074  33.404   3.795
20519W        W84243  40.045  19.103  11.878
20520W        W84244   8.386   2.429  13.374
20521W        W84245  19.203   1.826  10.577
20522W        W84246  20.155  42.409  12.871
20523W        W84247   3.427  30.027  10.547
20524W        W84248   2.801  22.643  12.034
20525W        W84249   2.866  42.331  14.003
20526W        W84250  33.446  26.678  11.049
20527W        W84251  32.580  43.906   4.692
20528W        W84252   5.901  11.288  13.963
20529W        W84253  20.558  22.515   4.295
20530W        W84254  32.583  21.564  10.640
20531W        W84255   4.864  43.816   2.850
20532W        W84256  12.680  42.281  12.378
20533W        W84257  11.243   2.886  13.878
20534W        W84258  17.063   2.458  13.947
20535W        W84259  22.540  21.620  13.527
20536W        W84260   3.346   2.374  12.091
20537W        W84261  42.306  43.461   1.348
20538W        W84262   5.345  15.116   0.325
20539W        W84263  21.516  41.993   1.826
20540W        W84264  13.833  15.083  11.519
20541W        W84265   8.259   5.757  10.937
20542W        W84266  22.503   2.456   1.762
20543W        W84267  18.714  24.141  12.387
20544W        W84268   0.482  17.642  13.017
20545W        W84269  13.313  28.603   1.219
20546W        W84270  34.914  11.221   4.724
20547W        W84271  18.279  27.680   4.824
20548W        W84272  12.662   7.797  14.311
20549W        W84273  40.935  24.655  13.956
20550W        W84274  21.528  39.526  12.558
20551W        W84275  41.532  27.574  14.774
20552W        W84276  14.158  14.741   0.854
20553W        W84277  26.110  12.203  14.915
20554W        W84278   4.883  34.907   9.964
20555W        W84279  27.609  19.255  13.045
20556W        W84280  35.463   5.309  11.565
20557W        W84281   7.328  23.164  13.060
20558W        W84282  13.704  35.068  11.073
20559W        W84283  31.034  22.584  12.450
20560W        W84284  18.227  44.436   3.643
20561W        W84285  16.207   7.787   2.830
20562W        W84286  37.556  28.668  14.890
20563W        W84287   3.366  39.883  14.030
20564W        W84288  25.566  27.065  12.404
20565W        W84289   6.863  28.570   3.173
20566W        W84290   9.295  23.135  12.468
20567W        W84291  17.085   1.806   0.370
20568W        W84292  27.688  34.468  11.979
20569W        W84293  29.448  14.679   2.200
20570W        W84294  11.351  42.410  13.950
20571W        W84295   0.825  33.526  10.157
20572W        W84296  27.103  40.392  12.844
20573W        W84297  33.441  24.216   1.272
20574W        W84298  11.772   2.372  13.924
20575W        W84299  22.061  11.833  14.763
20576W        W84300  16.611  18.139   2.783
20577W        W84301  10.742   4.920  11.478
20578W        W84302  38.967   4.774  11.983
20579W        W84303  42.878  16.787  11.902
20580W        W84304  29.974  19.174   0.733
20581W        W84305   3.306  38.954   4.210
20582W        W84306  19.609  16.313   0.273
20583W        W84307  11.704  40.528  14.371
20584W        W84308   6.230  40.923  12.959
20585W        W84309  40.532  38.865   2.891
20586W        W84310  18.228  20.246   3.183
20587W        W84311  44.396  10.333  10.451
20588W        W84312  42.466  23.134  13.926
20589W        W84313  39.833  32.964  10.620
20590W        W84314  26.584  12.321   1.769
20591W        W84315  20.647  13.627  14.402
20592W        W84316  33.111  29.979  12.493
20593W        W84317  14.708  35.446   4.753
20594W        W84318   2.832  31.433   4.603
20595W        W84319  19.556  26.614  14.317
20596W        W84320  17.131  31.026   4.782
20597W        W84321  35.434   9.314   2.180
20598W        W84322  31.418  39.893   2.192
20599W        W84323  23.993  41.995  13.831
20600W        W84324  31.940   9.705   0.857
20601W        W84325   6.321  10.661   4.290
20602W        W84326   9.656  38.862  11.001
20603W        W84327   9.164  13.205   0.281
20604W        W84328  39.929  25.152  13.473
20605W        W84329  20.050  36.897  13.968
20606W        W84330  12.196  24.565  11.953
20607W        W84331  25.487  12.621  12.581
20608W        W84332  26.690  39.456   3.296
20609W        W84333   3.833  36.020  13.041
20610W        W84334  35.998  23.094   2.710
20611W        W84335  29.431  18.683   2.180
20612W        W84336  24.570  36.397   4.704
20613W        W84337   0.264   1.307   1.793
20614W        W84338  20.664  21.050   9.961
20615W        W84339  19.148  23.016   2.885
20616W        W84340   6.858  21.536   1.704
20617W        W84341  13.335   5.221  14.908
20618W        W84342  15.187  34.476   1.357
20619W        W84343   1.267  14.760   2.859
20620W        W84344   3.398  41.311  11.055
20621W        W84345  35.955  24.579  10.448
20622W        W84346  17.172  18.170   3.822
20623W        W84347   0.273  40.928  14.873
20624W        W84348   6.310  31.427  10.457
20625W        W84349   8.887  31.562  13.415
20626W        W84350  16.096  22.044  11.504
20627W        W84351  40.546  15.618  11.411
20628W        W84352  44.829  10.734  14.418
20629W        W84353  16.736  36.527  13.325
20630W        W84354  10.229  23.999   4.687
20631W        W84355   5.329  43.922   3.167
20632W        W84356  31.927   6.713  11.962
20633W        W84357  19.050  17.302   4.789
20634W        W84358  27.179   7.411  11.115
20635W        W84359  43.397   3.749  12.356
20636W        W84360  39.394   3.724   1.888
20637W        W84361  41.511  42.032   0.739
20638W        W84362  18.748  16.728  10.961
20639W        W84363  32.957  27.067  13.375
20640W        W84364  39.977  38.037   0.414
20641W        W84365  10.278  34.947   0.861
20642W        W84366  44.479  38.826  13.807
20643W        W84367  40.481  10.311   0.838
20644W        W84368  10.742  43.943   3.673
20645W        W84369  37.392   1.934  10.915
20646W        W84370  43.862  32.004   2.317
20647W        W84371  32.559  22.743   0.890
20648W        W84372   8.879  14.691   5.121
20649W        W84373  24.168   7.853  12.523
20650W        W84374   0.886  42.834  12.363
20651W        W84375  25.001  15.133   4.665
20652W        W84376   5.801  26.981  13.511
20653W        W84377  42.378  31.639   3.728
20654W        W84378  11.817   1.474  13.797
20655W        W84379  39.888  19.726   2.308
20656W        W84380  30.148   9.323  13.910
20657W        W84381  12.766  39.876  12.982
20658W        W84382  17.802  42.933  12.015
20659W        W84383  28.968  42.498  11.458
20660W        W84384   7.909  17.084   4.119
20661W        W84385  23.516  35.418   3.243
20662W        W84386  21.598  34.457   2.317
20663W        W84387   6.312  31.555  13.389
20664W        W84388  10.343  26.640  10.956
20665W        W84389  43.431  20.578  14.386
20666W        W84390  14.614   9.189   3.805
20667W        W84391  17.683  10.839  11.519
20668W        W84392  21.552   4.741   1.375
20669W        W84393  36.869  28.964  13.327
20670W        W84394  29.669   6.322  12.358
20671W        W84395  21.212  29.154   4.789
20672W        W84396  44.884  29.112  11.449
20673W        W84397  15.646  27.982   2.312
20674W        W84398   6.192  11.633   0.244
20675W        W84399  28.943  11.656  10.561
20676W        W84400  34.991  31.592   0.734
20677W        W84401  30.603  18.288  11.542
20678W        W84402  42.864   2.770  10.893
20679W        W84403  40.519  35.929   1.214
20680W        W84404  33.051  44.349  12.561
20681W        W84405  42.868   8.259   0.776
20682W        W84406  36.936  24.563  13.948
20683W        W84407  11.794  10.667  12.080
20684W        W84408  11.169  23.225  12.086
20685W        W84409  20.078   0.331  12.369
20686W        W84410  21.525  13.843  12.518
20687W        W84411  10.701  42.782   0.379
20688W        W84412  27.467   3.813   2.737
20689W        W84413  29.471   5.327  11.916
20690W        W84414   2.382  43.453  11.572
20691W        W84415  31.595  25.486  13.959
20692W        W84416  24.196  25.009   2.377
20693W        W84417  30.653  26.154   3.190
20694W        W84418  26.060  41.792  13.319
20695W        W84419  34.875  41.357   3.183
20696W        W84420  22.641  21.111   3.334
20697W        W84421   9.829  40.911   3.148
20698W        W84422   5.439  33.114  12.389
20699W        W84423  42.281  19.156   1.868
20700W        W84424   9.805  26.966   4.811
20701W        W84425  29.505  11.282  13.909
20702W        W84426  41.491  32.610  11.583
20703W        W84427  22.218  34.055  12.979
20704W        W84428  16.263  31.959  13.509
20705W        W84429  13.150  14.781   4.206
20706W        W84430  38.904  35.867  11.013
20707W        W84431  10.632  16.231  14.415
20708W        W84432  33.123  44.845   2.833
20709W        W84433  36.074  10.353  14.435
20710W        W84434   5.835   9.303  10.982
20711W        W84435  22.555   7.242  14.830
20712W        W84436  39.003  44.321   4.815
20713W        W84437  32.913  20.699   1.382
20714W        W84438  29.605  22.098  11.892
20715W        W84439   7.183  43.923   4.678
20716W        W84440  14.117  32.430   3.819
20717W        W84441  44.828  29.516  11.546
20718W        W84442  14.117  17.090   4.761
20719W        W84443  19.239  21.588   0.946
20720W        W84444  11.724  41.406   1.223
20721W        W84445  17.138  27.479  11.883
20722W        W84446  34.024  15.599   4.195
20723W        W84447  27.118   6.875   5.151
20724W        W84448  41.906  43.941   2.754
20725W        W84449  23.074  23.677   0.874
20726W        W84450  38.870   8.738  12.086
20727W        W84451  32.475  42.823  12.468
20728W        W84452   5.424  42.330  10.443
20729W        W84453  15.286  33.964  14.314
20730W        W84454  33.383  16.215   0.883
20731W        W84455  41.533   4.245  14.907
20732W        W84456  10.313   2.940  14.494
20733W        W84457  28.670  36.539   1.233
20734W        W84458  19.585  25.543  10.923
20735W        W84459  22.025  20.742  11.024
20736W        W84460  29.611  20.666   3.755
20737W        W84461   0.942  33.981   1.695
20738W        W84462  39.040  14.648  14.513
20739W        W84463  21.042  12.764  10.137
20740W        W84464  15.650  29.158   2.198
20741W        W84465  30.959   5.794  13.868
20742W        W84466  20.577  20.115  13.882
20743W        W84467   1.277  10.183   0.877
20744W        W84468  25.136  27.958  11.984
20745W        W84469   7.319   0.463  10.579
20746W        W84470  22.240  33.588   0.771
20747W        W84471  23.651  26.038   1.791
20748W        W84472  37.453  29.102  13.437
20749W        W84473  31.549  15.767   0.417
20750W        W84474   7.356   6.717  14.813
20751W        W84475  10.308  13.760   1.700
20752W        W84476  32.042  17.257  13.316
20753W        W84477   8.877  20.050  12.860
20754W        W84478  19.096  11.220   1.258
20755W        W84479  18.266  16.241   1.319
20756W        W84480  21.694  43.825   0.860
20757W        W84481  27.622  27.042   2.227
20758W        W84482  13.314  37.041  11.415
20759W        W84483  43.387  34.906  10.949
20760W        W84484  18.178   0.422   3.800
20761W        W84485  20.143  27.591  12.057
20762W        W84486  21.544  23.553   0.340
20763W        W84487  40.321  20.706   3.761
20764W        W84488  12.313  18.226   3.822
20765W        W84489  22.537  20.167  14.820
20766W        W84490  21.575  28.172   4.274
20767W        W84491  17.605  42.451  12.041
20768W        W84492  27.576  38.894   1.224
20769W        W84493   5.901  38.980   3.375
20770W        W84494  22.204  37.845  12.558
20771W        W84495  32.111  42.472  11.478
20772W        W84496  16.779  42.954  12.508
20773W        W84497  16.788   5.196  14.393
20774W        W84498  32.919  37.501  10.135
20775W        W84499  28.508   7.849   2.321
20776W        W84500  34.879   0.834   3.197
20777W        W84501  18.557  12.123   1.772
20778W        W84502  22.741  39.810  11.978
20779W        W84503  29.026  25.637  14.995
20780W        W84504  24.975  11.220  14.896
20781W        W84505  39.356  18.568  11.099
20782W        W84506  11.632  12.185  13.829
20783W        W84507  21.672  13.125  13.515
20784W        W84508  11.821  29.489  10.623
20785W        W84509  33.882  33.909   3.246
20786W        W84510   6.225  10.869  11.102
20787W        W84511  33.950  21.737   4.670
20788W        W84512  41.852  43.775   2.384
20789W        W84513   9.844  39.929  12.341
20790W        W84514  28.097  25.175  13.494
20791W        W84515  43.848  39.320  14.884
20792W        W84516  24.554  27.110   1.899
20793W        W84517  42.427  25.663   2.814
20794W        W84518  36.574   9.288   3.835
20795W        W84519   0.417  35.054   2.752
20796W        W84520  27.995  22.532  11.459
20797W        W84521  31.459   8.749  11.057
20798W        W84522  18.170   3.289  12.503
20799W        W84523  30.095  34.490   2.396
20800W        W84524  29.008   2.904   0.819
20801W        W84525  37.398  26.157   4.605
20802W        W84526  14.272  24.172  13.994
20803W        W84527  19.571  12.733   4.693
20804W        W84528  31.407  39.491  11.487
20805W        W84529  25.661  28.129   3.737
20806W        W84530  22.563  41.500   2.785
20807W        W84531  33.433   5.255   4.256
20808W        W84532  42.414  24.702  10.574
20809W        W84533  13.229  41.447   2.299
20810W        W84534  25.526  13.121   3.806
20811W        W84535  28.931  15.727   3.367
20812W        W84536  34.605  15.765   2.289
20813W        W84537  26.013  15.230   1.780
20814W        W84538   1.374  42.283   4.257
20815W        W84539   8.248  21.099  14.810
20816W        W84540  43.931  36.350  10.088
20817W        W84541  38.056  44.368   2.729
20818W        W84542  39.836  31.464   1.754
20819W        W84543  20.605  24.103   2.181
20820W        W84544  30.594  12.814   3.369
20821W        W84545  19.680  21.709   2.227
20822W        W84546  23.074   5.737   4.729
20823W        W84547  16.165  19.730   3.314
20824W        W84548  20.622  11.818  10.971
20825W        W84549  34.107  18.186   0.271
20826W        W84550  23.688  18.655  11.049
20827W        W84551   7.214  42.904  12.917
20828W        W84552   8.694  12.697  12.395
20829W        W84553  18.687   8.304  11.927
20830W        W84554  33.609   6.221  12.027
20831W        W84555   4.800  25.641  11.101
20832W        W84556   4.856  41.502   2.666
20833W        W84557  23.137  14.623   3.718
20834W        W84558  30.069  33.093  12.068
20835W        W84559   0.749   6.723  13.317
20836W        W84560   0.788   2.386   1.331
20837W        W84561  23.049  25.056  14.299
20838W        W84562  25.689  35.928   0.480
20839W        W84563  17.219  14.130  12.059
20840W        W84564   1.731  43.509  10.451
20841W        W84565   6.223  17.127   4.291
20842W        W84566  23.073  29.014   3.165
20843W        W84567   0.368  34.894  10.535
20844W        W84568  42.954   4.899   1.237
20845W        W84569  42.777  41.967   5.719
20846W        W84570  43.935   5.196   2.816
20847W        W84571  23.710  25.538   1.401
20848W        W84572  22.725  35.378   4.673
20849W        W84573  11.688  33.541   3.828
20850W        W84574  27.033  16.780   1.439
20851W        W84575  37.022  18.731  12.461
20852W        W84576  21.712  29.637  11.999
20853W        W84577  12.635  37.499  11.426
20854W        W84578  36.075  11.829   1.244
20855W        W84579  21.245  43.799   9.947
20856W        W84580  10.331  21.239   0.764
20857W        W84581  36.567   4.810  10.908
20858W        W84582  18.119  35.515   3.841
20859W        W84583  30.499  12.622   2.309
20860W        W84584  44.259  16.708  12.950
20861W        W84585   2.323  39.954  13.312
20862W        W84586   9.678  29.661  14.966
20863W        W84587  35.937   8.165   0.284
20864W        W84588  18.189  33.484   4.694
20865W        W84589  38.919  44.348  10.542
20866W        W84590  19.745   6.801   2.678
20867W        W84591  23.582  30.482   1.258
20868W        W84592   0.954  36.426   3.731
20869W        W84593  36.028  15.704  14.928
20870W        W84594  15.706  36.577   1.401
20871W        W84595  22.690  11.765  12.969
20872W        W84596  44.830   7.665   2.187
20873W        W84597  40.334  35.427  13.053
20874W        W84598   1.938  20.060  13.435
20875W        W84599  21.189  44.350   5.322
20876W        W84600   4.759  38.399  12.468
20877W        W84601  29.430   0.377  13.993
20878W        W84602  16.813  29.953   1.802
20879W        W84603   5.319  15.106  13.378
20880W        W84604   1.421  44.294   1.917
20881W        W84605   9.842  43.399   4.812
20882W        W84606  23.702   6.380   2.716
20883W        W84607   8.280  34.004  13.891
20884W        W84608  20.182  36.537  14.926
20885W        W84609  26.132  35.092  10.912
20886W        W84610  33.908  20.199   1.247
20887W        W84611  22.066  31.586  12.546
20888W        W84612  12.180   3.923   2.754
20889W        W84613  23.687   6.800  11.108
20890W        W84614  35.477  15.182  13.945
20891W        W84615  36.943  19.172  12.876
20892W        W84616   4.298   3.915  12.380
20893W        W84617   5.246  21.731   3.630
20894W        W84618  23.137   1.401  11.603
20895W        W84619  15.742  32.899  13.310
20896W        W84620  26.973  36.507   0.805
20897W        W84621   1.763   4.923  13.356
20898W        W84622  26.059  11.842  11.495
20899W        W84623  34.525  14.618   2.819
20900W        W84624  31.485  24.129   0.826
20901W        W84625   0.350   7.838   0.888
20902W        W84626  33.931  13.618  13.443
20903W        W84627  18.707  43.855  14.350
20904W        W84628  39.004  27.961   1.390
20905W        W84629  37.579  14.821   4.277
20906W        W84630  40.892  32.935   0.299
20907W        W84631  28.149  17.231  12.479
20908W        W84632  33.104   0.897   3.197
20909W        W84633  11.814  32.572  14.412
20910W        W84634  15.763  26.120  12.957
20911W        W84635   6.271  28.495   3.799
20912W        W84636  11.216  18.613  11.514
20913W        W84637  11.860  22.252   1.450
20914W        W84638   7.884  19.197  10.955
20915W        W84639   9.808  37.039   3.758
20916W        W84640  43.424  35.906   1.806
20917W        W84641  34.548  23.146  11.977
20918W        W84642   4.375  43.444  10.577
20919W        W84643  43.479  35.091  13.537
20920W        W84644  32.885  20.714   4.649
20921W        W84645  33.602  41.417  11.444
20922W        W84646  31.950  10.690  11.485
20923W        W84647  43.454   1.457  13.934
20924W        W84648   5.400   6.256  12.445
20925W        W84649  13.820   8.656   1.924
20926W        W84650  19.647  15.822   5.572
20927W        W84651  15.607  20.548  14.004
20928W        W84652  43.852  19.746   2.315
20929W        W84653   4.208  34.028  10.905
20930W        W84654  37.841  14.303   1.365
20931W        W84655  35.509  40.358  12.395
20932W        W84656  42.973  21.639   3.675
20933W        W84657  11.316  35.531   0.274
20934W        W84658  11.664   6.279  12.385
20935W        W84659  26.580  10.213   1.779
20936W        W84660  41.839  12.345  14.816
20937W        W84661  42.395  14.755   0.739
20938W        W84662  42.952  34.936  13.841
20939W        W84663  22.139  28.665  14.789
20940W        W84664  23.534  28.438   2.784
20941W        W84665  13.794  41.035   3.187
20942W        W84666  17.093   5.748  14.842
20943W        W84667  30.015  28.643  13.515
20944W        W84668  31.000  29.612  12.078
20945W        W84669  38.433  21.608   2.884
20946W        W84670   1.819  38.395   2.832
20947W        W84671  21.705   2.406   3.251
20948W        W84672  44.305  34.041   0.822
20949W        W84673   0.356  43.461   0.955
20950W        W84674  43.274  27.186   2.703
20951W        W84675  11.272   7.767   0.436
20952W        W84676  27.989   3.295  13.372
20953W        W84677   5.856  13.698   2.804
20954W        W84678  22.210  32.541   3.232
20955W        W84679   6.286  15.703  13.971
20956W        W84680   2.948  26.204   1.889
20957W        W84681  28.980  36.402  10.945
20958W        W84682  14.712  18.759   2.245
20959W        W84683   0.903   6.891  10.516
20960W        W84684  33.566  44.852   1.284
20961W        W84685  26.463  44.271   2.273
20962W        W84686  30.512  37.919  13.978
20963W        W84687   3.461  38.444   0.966
20964W        W84688  36.462   0.485   1.814
20965W        W84689   0.413  40.813   2.280
20966W        W84690   6.826  33.525   0.840
20967W        W84691   9.312   8.680  12.021
20968W        W84692  37.500   5.853   1.338
20969W        W84693   7.273  17.194  12.426
20970W        W84694  24.535  44.911   1.354
20971W        W84695  14.283  35.406  12.004
20972W        W84696  17.166  39.544  14.329
20973W        W84697  20.700  23.036   2.231
20974W        W84698  33.438  36.556   3.355
20975W        W84699   2.942  36.990   0.913
20976W        W84700   9.711  33.477   1.734
20977W        W84701  10.665   9.216   0.793
20978W        W84702   5.759  42.006  10.556
20979W        W84703  16.085  35.856  11.913
20980W        W84704  11.720  20.603   4.249
20981W        W84705  20.729  19.590  10.596
20982W        W84706   3.853  18.606   1.424
20983W        W84707  10.310  18.179  11.388
20984W        W84708  44.887  25.682  11.033
20985W        W84709   8.804  42.426   0.746
20986W        W84710  19.185  35.367  14.976
20987W        W84711  42.391   8.397  13.841
20988W        W84712  37.990   6.755  13.932
20989W        W84713  38.839  38.040  14.762
20990W        W84714  30.563  42.312   2.185
20991W        W84715  12.201  33.946   4.791
20992W        W84716  18.294  41.462  10.888
20993W        W84717  28.557  39.378  12.473
20994W        W84718   3.322  16.174  14.309
20995W        W84719  14.709   7.362   1.833
20996W        W84720  29.115  40.391  13.522
20997W        W84721  25.631   9.678  11.892
20998W        W84722  36.888   5.824  14.297
20999W        W84723  34.442  41.529   1.787
21000W        W84724  33.892  24.633   2.203
21001W        W84725  19.684  30.549  11.896
21002W        W84726  35.990  36.561   2.734
21003W        W84727  25.206   7.236  10.969
21004W        W84728  28.147  12.724   4.690
21005W        W84729  37.507  27.154   1.935
21006W        W84730  41.370  26.164   2.189
21007W        W84731  32.093  41.480  13.844
21008W        W84732   9.390  35.913  11.122
21009W        W84733  11.165   0.949   0.326
21010W        W84734  12.632  15.605   4.767
21011W        W84735   5.284  11.661   2.706
21012W        W84736  28.642  11.127  12.977
21013W        W84737   7.219  24.210  13.959
21014W        W84738  42.360  36.494  13.309
21015W        W84739  12.788   3.884   1.243
21016W        W84740  39.903  13.660   0.777
21017W        W84741   3.257  22.717  12.395
21018W        W84742  41.809   2.818   1.853
21019W        W84743  41.474  34.958  10.928
21020W        W84744  16.775  42.995  10.430
21021W        W84745  41.503   9.314   1.837
21022W        W84746  12.663  40.886   3.301
21023W        W84747  13.110  30.993  13.030
21024W        W84748  41.811  25.129  10.117
21025W        W84749   8.805  15.302  12.013
21026W        W84750  23.137  23.679  12.056
21027W        W84751  22.148  15.743  11.923
21028W        W84752  25.083   2.410  10.578
21029W        W84753   6.784  34.464   0.334
21030W        W84754  44.303  31.481   3.304
21031W        W84755  32.484  41.863  13.814
21032W        W84756  35.897  31.621   4.837
21033W        W84757  23.529  29.647  12.432
21034W        W84758  22.685  15.796   3.833
21035W        W84759  19.055   3.380  13.975
21036W        W84760  23.725  30.104   2.728
21037W        W84761  20.180  29.645  11.433
21038W        W84762   5.233   0.419   3.706
21039W        W84763  30.622  24.537  13.061
21040W        W84764  14.133  40.973  12.871
21041W        W84765  22.665  28.970   0.945
21042W        W84766   3.781   5.258  10.427
21043W        W84767   3.831  34.870   3.688
21044W        W84768  11.346  33.888   3.629
21045W        W84769  32.095  24.024   0.806
21046W        W84770  25.989  16.098   2.312
21047W        W84771  37.075  34.025   1.374
21048W        W84772   2.256   2.925  14.462
21049W        W84773  40.347   5.777   0.759
21050W        W84774  21.119  23.005  14.482
21051W        W84775  23.233  29.509   1.452
21052W        W84776  35.071  12.251  11.872
21053W        W84777  38.469  29.960   4.128
21054W        W84778   4.246  32.009   4.612
21055W        W84779  42.962  25.713  13.938
21056W        W84780  36.436  31.503   3.869
21057W        W84781  13.270   0.473  10.583
21058W        W84782  31.506  37.422   0.874
21059W        W84783  11.652   1.775  13.334
21060W        W84784  42.432  10.194   4.149
21061W        W84785  40.320  13.351   4.331
21062W        W84786  19.717  39.058   0.904
21063W        W84787  28.630  15.609   1.931
21064W        W84788   1.825   8.351   2.289
21065W        W84789  38.051  24.659   0.430
21066W        W84790  21.227   0.879  11.587
21067W        W84791   9.175  36.555   1.772
21068W        W84792   5.269  39.506   3.844
21069W        W84793  40.333   9.887  14.442
21070W        W84794  29.501  20.140  13.823
21071W        W84795  24.725  37.538  10.959
21072W        W84796   1.783  33.581  11.089
21073W        W84797  25.038  19.546  11.378
21074W        W84798  15.696  42.506   2.223
21075W        W84799  44.458  32.938  13.477
21076W        W84800   6.277  17.093  13.333
21077W        W84801  29.648  17.105   0.911
21078W        W84802  23.019   9.246   3.837
21079W        W84803  22.200   1.266   3.282
21080W        W84804  22.246  37.461  12.862
21081W        W84805  30.998  24.652   0.884
21082W        W84806  15.701  32.975  11.557
21083W        W84807  16.193  13.339  11.920
21084W        W84808  22.212  27.536   1.719
21085W        W84809  22.077   8.169   1.243
21086W        W84810  22.633  13.127  12.007
21087W        W84811   8.386  12.782   1.234
21088W        W84812  18.605  20.528  12.876
21089W        W84813  41.831  44.850  11.965
21090W        W84814  25.531  40.037  13.796
21091W        W84815  39.316  26.000   3.238
21092W        W84816  14.631  14.100   1.239
21093W        W84817  12.252  25.151   4.123
21094W        W84818  40.374  28.493   3.171
21095W        W84819  20.579  33.893  11.531
21096W        W84820  12.743  38.827  14.883
21097W        W84821   5.929  16.792   0.784
21098W        W84822  14.327  12.719  14.308
21099W        W84823   4.443  38.882   4.630
21100W        W84824   6.334  39.912  10.095
21101W        W84825  37.875  24.980  12.021
21102W        W84826  22.179  43.467   4.753
21103W        W84827  16.193  26.083   3.194
21104W        W84828  33.566  42.936   3.724
21105W        W84829  39.542  13.781  14.366
21106W        W84830  44.492  32.046  13.848
21107W        W84831  43.895  26.013   2.829
21108W        W84832  31.620  18.753   1.422
21109W        W84833  22.692  32.392  14.984
21110W        W84834  40.938  31.116  13.903
21111W        W84835   3.731  40.014   3.311
21112W        W84836   7.872  22.589   2.365
21113W        W84837  16.155   3.926   4.191
21114W        W84838   6.792  33.553   0.282
21115W        W84839  39.843   0.798  13.799
21116W        W84840  33.911  42.888  11.389
21117W        W84841  38.516  32.108  14.419
21118W        W84842  12.728  14.629  10.586
21119W        W84843  18.085  23.559  11.868
21120W        W84844  44.486  13.232   4.678
21121W        W84845   7.666  24.975  10.064
21122W        W84846  43.300   1.823  12.400
21123W        W84847  32.929  10.331   4.704
21124W        W84848   3.256  41.811   2.830
21125W        W84849  31.914   6.201   3.846
21126W        W84850  34.397  19.593  14.934
21127W        W84851   2.762   2.450   0.251
21128W        W84852   1.750  39.889   4.732
21129W        W84853   2.848   8.401   3.694
21130W        W84854  32.073   7.807   1.911
21131W        W84855   2.251   5.284  10.472
21132W        W84856  17.101   4.224  11.538
21133W        W84857  34.403  21.700  10.611
21134W        W84858  15.784  12.752   0.735
21135W        W84859  43.866  13.335   3.869
21136W        W84860  41.960  35.103   3.263
21137W        W84861  24.096   1.252  10.466
21138W        W84862  28.519  36.462   4.234
21139W        W84863  41.822  21.162   0.384
21140W        W84864  26.546  36.857  11.496
21141W        W84865  38.435  31.642   3.638
21142W        W84866  39.961  31.996   2.704
21143W        W84867  12.165  24.549   4.741
21144W        W84868  42.463   4.751   0.306
21145W        W84869  31.016   9.385   4.161
21146W        W84870  42.476  25.594   3.200
21147W        W84871  19.069  10.842  11.870
21148W        W84872  35.516   0.367   0.452
21149W        W84873  36.389   4.862   4.612
21150W        W84874  32.018  32.079   0.408
21151W        W84875   6.341  22.078  14.436
21152W        W84876  19.186  17.307   1.802
21153W        W84877   5.808  17.249  13.012
21154W        W84878  28.553  43.293  11.034
21155W        W84879  21.703  10.329   3.691
21156W        W84880  38.960  11.721  14.414
21157W        W84881  13.321  36.460   4.224
21158W        W84882  43.781  18.669   1.708
21159W        W84883  18.086  28.070   0.399
21160W        W84884  11.768  19.720  12.470
21161W        W84885  11.176  13.300   2.761
21162W        W84886   6.685  42.902  11.410
21163W        W84887  18.281  44.924   3.286
21164W        W84888  16.078  32.509   1.294
21165W        W84889  43.281  27.635   1.409
21166W        W84890  20.634  26.966  12.913
21167W        W84891  27.130  11.721   3.682
21168W        W84892  29.453  29.538   4.118
21169W        W84893   1.961  23.588   2.368
21170W        W84894  16.618   2.318   1.825
21171W        W84895   8.727  10.307  11.954
21172W        W84896  43.880  22.112  14.311
21173W        W84897   4.828  44.427   3.717
21174W        W84898  35.969  34.597  10.612
21175W        W84899  29.126   5.822   3.234
21176W        W84900  39.451   8.827   4.743
21177W        W84901   3.239   5.918   2.226
21178W        W84902  21.732  39.503  13.497
21179W        W84903  24.011   7.843   2.303
21180W        W84904  11.344   8.404  11.947
21181W        W84905   0.327   9.349  13.802
21182W        W84906  27.579  13.319  11.372
21183W        W84907  28.002  35.565  11.067
21184W        W84908  33.037  36.923   3.688
21185W        W84909  33.083  37.488  13.323
21186W        W84910  11.335  28.119   3.372
21187W        W84911  20.072  35.957   0.302
21188W        W84912  19.589   1.322  12.866
21189W        W84913  22.727   1.755   3.747
21190W        W84914  21.212   9.195  13.927
21191W        W84915  28.125   1.888   1.795
21192W        W84916   4.362  20.274  13.334
21193W        W84917   7.244   9.277  13.008
21194W        W84918  39.545  20.105   4.770
21195W        W84919  27.129  42.900  13.309
21196W        W84920   1.279  31.510  10.570
21197W        W84921  17.656   6.259   5.314
21198W        W84922   1.872   9.180   0.852
21199W        W84923  19.579  36.430   3.331
21200W        W84924  38.954  13.340  11.512
21201W        W84925  16.124  41.002  14.974
21202W        W84926   1.313  26.680   2.380
21203W        W84927  18.592  12.280  12.934
21204W        W84928  28.936  11.805  10.964
21205W        W84929  12.647  16.710  11.532
21206W        W84930  15.259  14.142  11.123
21207W        W84931  20.594  33.477   1.252
21208W        W84932  29.041   2.356  10.540
21209W        W84933  40.457  39.912  12.514
21210W        W84934   9.188  12.129  11.047
21211W        W84935  38.568  20.138  14.453
21212W        W84936  19.701  13.166   0.462
21213W        W84937  36.043  42.998   1.267
21214W        W84938  32.978   0.257  12.349
21215W        W84939  15.774  35.021  14.287
21216W        W84940  15.680  43.019   0.958
21217W        W84941   8.829  33.094  14.823
21218W        W84942  37.568   4.865   4.324
21219W        W84943  12.291   1.849   4.137
21220W        W84944  23.051  10.851  12.996
21221W        W84945   1.915  21.112  11.979
21222W        W84946  16.597   9.169   1.415
21223W        W84947  38.369   0.292  13.951
21224W        W84948  36.979  43.464   0.359
21225W        W84949  10.338  35.578  14.996
21226W        W84950   5.738  25.515   4.161
21227W        W84951  29.013  17.062  10.970
21228W        W84952  10.143   4.282  10.412
21229W        W84953   5.219  24.716   3.806
21230W        W84954  27.529  16.579  12.454
21231W        W84955  28.638  20.092  12.940
21232W        W84956  39.434  15.715  14.473
21233W        W84957   9.349  44.971  13.396
21234W        W84958  11.348  24.170  13.822
21235W        W84959  27.949  44.961   3.732
21236W        W84960  28.475   3.857   4.607
21237W        W84961   4.432  25.065   4.657
21238W        W84962  15.690  14.736   2.349
21239W        W84963   3.899   3.261  11.499
21240W        W84964  35.059  37.398  10.133
21241W        W84965  21.022  29.467  14.471
21242W        W84966   0.842  23.533  14.403
21243W        W84967  27.988  26.669  11.127
21244W        W84968  18.721  38.997  11.386
21245W        W84969  15.279   3.398   1.706
21246W        W84970   2.370   9.234   0.306
21247W        W84971  34.523   2.380  11.982
21248W        W84972  31.621   0.274   4.748
21249W        W84973  36.391   5.865  13.474
21250W        W84974   1.444  44.376  12.991
21251W        W84975  13.806  30.553   3.294
21252W        W84976   3.923  19.099   1.833
21253W        W84977   9.849   0.260  14.876
21254W        W84978  26.684  38.364   1.920
21255W        W84979  10.261   2.953   1.440
21256W        W84980  30.064  31.448  12.035
21257W        W84981   5.762  41.832  12.875
21258W        W84982  10.289  43.352   4.127
21259W        W84983   0.894   5.312  14.913
21260W        W84984  14.803  44.473  11.062
21261W        W84985   6.183  37.050   4.114
21262W        W84986  28.039  33.090  13.052
21263W        W84987  15.717  43.940  10.904
21264W        W84988   6.301  40.409   0.959
21265W        W84989  42.465  42.965  11.442
21266W        W84990  37.991  19.732  11.380
21267W        W84991  24.015  27.159   3.759
21268W        W84992  36.903  12.232  10.970
21269W        W84993  34.896   3.340  10.411
21270W        W84994   0.911  19.093  11.908
21271W        W84995  19.119  31.585   2.703
21272W        W84996  30.966   4.360  11.549
21273W        W84997   5.279  43.807   3.733
21274W        W84998   7.698  33.069   3.294
21275W        W84999  30.985  41.304   0.818
21276W        W85000  21.621  11.748  11.932
21277W        W85001  28.668   6.309   2.839
21278W        W85002  34.494  34.093  12.908
21279W        W85003  39.873  24.195   4.293
21280W        W85004   8.324   7.387   0.288
21281W        W85005  39.967  32.565  11.520
21282W        W85006   5.195   5.715  13.928
21283W        W85007  15.646  37.504   1.358
21284W        W85008   9.218  17.602  11.993
21285W        W85009  39.519  43.350   3.762
21286W        W85010  29.027  35.544   1.438
21287W        W85011  16.084  37.471   0.762
21288W        W85012  11.280  24.670   4.215
21289W        W85013  11.344  20.271  13.053
21290W        W85014  11.765  27.124  10.496
21291W        W85015   0.970  26.037  12.827
21292W        W85016   3.753   9.392  11.951
21293W        W85017   1.252   9.809   1.803
21294W        W85018  44.763  36.901   2.213
21295W        W85019  30.570  30.432   0.323
21296W        W85020   3.398  35.077  13.895
21297W        W85021  30.150   0.308  12.368
21298W        W85022  30.576  31.449   0.762
21299W        W85023  17.760  27.077   4.235
21300W        W85024  37.396  27.162   1.375
21301W        W85025  25.204  23.568  10.957
21302W        W85026  29.604   8.373  10.115
21303W        W85027  36.498  38.022   2.391
21304W        W85028  44.824  28.452   0.884
21305W        W85029  30.588  35.025   2.259
21306W        W85030  19.074  41.480   3.270
21307W        W85031   4.435  26.621  13.876
21308W        W85032   6.283  26.532  12.848
21309W        W85033  25.988   0.315  11.386
21310W        W85034   2.412   3.951   4.660
21311W        W85035  27.488  31.514   3.792
21312W        W85036  14.142  33.928   3.644
21313W        W85037   1.788   4.263   0.742
21314W        W85038  25.968  14.601   4.297
21315W        W85039  35.602  10.333   0.343
21316W        W85040   7.272  20.657  12.554
21317W        W85041  40.007   5.234   1.722
21318W        W85042  30.913  33.526   3.351
21319W        W85043  15.812  40.512  13.521
21320W        W85044   0.943  10.271  14.449
21321W        W85045  13.833  32.128   2.736
21322W        W85046  31.434   3.325  12.945
21323W        W85047  16.259  44.867   3.277
21324W        W85048   4.279  30.557  11.572
21325W        W85049  35.377  21.529  14.379
21326W        W85050  42.027   8.242   3.184
21327W        W85051   1.308  11.296   2.364
21328W        W85052  34.540  19.696  12.470
21329W        W85053  31.496  22.501   1.913
21330W        W85054   0.328  23.602   3.182
21331W        W85055  33.897  29.441  13.521
21332W        W85056  23.490  12.295   0.787
21333W        W85057  26.103   7.244   4.319
21334W        W85058   4.238  15.678   3.758
21335W        W85059  36.441  39.421  10.500
21336W        W85060  42.908  32.630   2.887
21337W        W85061   0.490  16.605   1.405
21338W        W85062  14.176  21.034   4.726
21339W        W85063  17.105  11.193  10.993
21340W        W85064   0.971   7.667   0.912
21341W        W85065  38.968  42.284  12.950
21342W        W85066  14.679   4.788  10.105
21343W        W85067   5.901  14.637   3.664
21344W        W85068  32.931  20.058  13.990
21345W        W85069  11.640  23.997   3.841
21346W        W85070  28.140   4.930   0.364
21347W        W85071  32.046  37.364  14.917
21348W        W85072  33.948  36.019  10.617
21349W        W85073  34.482   0.758   1.313
21350W        W85074  13.789  29.006   1.368
21351W        W85075  21.678   7.769  13.398
21352W        W85076  21.063   7.249  11.376
21353W        W85077  12.242  11.326   0.807
21354W        W85078  40.413   1.884  13.359
21355W        W85079  10.869  20.185  13.540
21356W        W85080  21.233  43.347  11.467
21357W        W85081  15.243  35.416   2.759
21358W        W85082  18.234  25.134   1.821
21359W        W85083   7.720   7.694   1.708
21360W        W85084   3.404  24.708   3.754
21361W        W85085   3.425  31.061  10.510
21362W        W85086   9.789   6.905  12.923
21363W        W85087  33.927  12.753   1.866
21364W        W85088  14.290  33.484  10.050
21365W        W85089  28.627  16.263  11.019
21366W        W85090  20.163  37.956  11.548
21367W        W85091   5.419  22.688   0.734
21368W        W85092  24.512  16.733   4.763
21369W        W85093   4.215  21.241   0.811
21370W        W85094  26.475  29.601   4.248
21371W        W85095   8.307  44.314   4.835
21372W        W85096  34.013  41.504  12.925
21373W        W85097  44.465  28.021  11.523
21374W        W85098  25.195  29.670  13.999
21375W        W85099  29.668  37.994  14.444
21376W        W85100  29.662   7.312  11.573
21377W        W85101   8.771  11.717   0.367
21378W        W85102  36.917  13.625   0.425
21379W        W85103  27.064  34.385   4.259
21380W        W85104  41.884  27.639   4.175
21381W        W85105  36.383   1.763  11.906
21382W        W85106   9.254  26.960  11.433
21383W        W85107  41.489  29.464  13.423
21384W        W85108  41.842  12.616   1.241
21385W        W85109  33.470  24.567  13.028
21386W        W85110  30.146  23.077   4.150
21387W        W85111   7.386   3.263  11.400
21388W        W85112  32.554   0.913  13.383
21389W        W85113  20.063   0.823   1.921
21390W        W85114  24.494  17.675  13.511
21391W        W85115  28.985  40.381  10.447
21392W        W85116  37.065   3.359  11.860
21393W        W85117  15.683  12.654  11.096
21394W        W85118  38.324  24.986  13.037
21395W        W85119  19.685  20.268  12.348
21396W        W85120  41.475  19.724   3.244
21397W        W85121  35.365   8.880   0.317
21398W        W85122  15.705  42.331  12.480
21399W        W85123  43.351  38.004   5.209
21400W        W85124  42.385  44.494  13.041
21401W        W85125  41.975   2.388  13.832
21402W        W85126  37.475   5.427   4.675
21403W        W85127  35.463  40.321   0.397
21404W        W85128  24.643  44.844   1.742
21405W        W85129  21.526  20.120  11.112
21406W        W85130  32.110  18.652  13.913
21407W        W85131   7.775  32.461   1.263
21408W        W85132  24.704  21.023  10.441
21409W        W85133  41.011  29.986   2.768
21410W        W85134  35.061  15.134  14.976
21411W        W85135  42.505  39.024   3.864
21412W        W85136  19.642  37.883  10.118
21413W        W85137  39.986  38.919   2.784
21414W        W85138   4.923  27.570   2.356
21415W        W85139  34.462   1.934   1.695
21416W        W85140  19.205   4.407   0.464
21417W        W85141  26.104  33.444  13.430
21418W        W85142  15.748  14.187  10.467
21419W        W85143  42.338   9.795  11.066
21420W        W85144   2.285  14.218  14.442
21421W        W85145  41.426  38.460   0.884
21422W        W85146  19.050  15.704  12.422
21423W        W85147   2.267   6.290  12.375
21424W        W85148  37.990  11.185   1.333
21425W        W85149  30.137  44.283  12.424
21426W        W85150   0.358  39.978   4.143
21427W        W85151  12.688  19.675   0.407
21428W        W85152  37.380  27.555  13.841
21429W        W85153  43.927  29.099  13.458
21430W        W85154  35.545  43.481  12.436
21431W        W85155  41.987  14.643   3.239
21432W        W85156  20.658   9.233  14.392
21433W        W85157  22.709  40.312   3.702
21434W        W85158  38.391   6.797   1.725
21435W        W85159  41.305  41.878  13.992
21436W        W85160  18.214   4.711   1.858
21437W        W85161  24.702  33.116   4.766
21438W        W85162   5.909  35.032  13.378
21439W        W85163  15.303  16.752  10.566
21440W        W85164  21.201  40.526  12.473
21441W        W85165   5.814  23.632   0.274
21442W        W85166  35.970  21.595   3.772
21443W        W85167  44.834  42.785  12.983
21444W        W85168  18.194  43.393  11.875
21445W        W85169  19.570  42.457   2.822
21446W        W85170  44.312   6.920  13.512
21447W        W85171  43.974  25.106  11.061
21448W        W85172  42.309  19.224   2.761
21449W        W85173  14.798  10.766   4.291
21450W        W85174  30.462  31.110  10.953
21451W        W85175  23.528  42.884  12.361
21452W        W85176  37.337  43.315  13.476
21453W        W85177  38.853  39.817   1.292
21454W        W85178  37.082  38.052   3.265
21455W        W85179   8.361  36.978  13.497
21456W        W85180  16.592  35.864   1.796
21457W        W85181  28.932  20.633  14.425
21458W        W85182  31.452  40.013   0.371
21459W        W85183  15.208  10.177   9.936
21460W        W85184   1.364   6.733  11.874
21461W        W85185  28.093  37.864  10.921
21462W        W85186  20.529   9.798  11.872
21463W        W85187  21.695   0.288  13.503
21464W        W85188  14.827   5.206  14.282
21465W        W85189  23.093  28.044  14.912
21466W        W85190  15.113  35.053  10.563
21467W        W85191   8.353  27.603   4.763
21468W        W85192   5.780  41.900   1.425
21469W        W85193  36.384  32.036   0.445
21470W        W85194  24.542   3.838   1.918
21471W        W85195  17.699  38.842  13.467
21472W        W85196  23.017  11.761   1.892
21473W        W85197  36.072  13.320  11.444
21474W        W85198  43.929   4.821  10.500
21475W        W85199  21.614   7.278  11.505
21476W        W85200   6.211  34.583   0.736
21477W        W85201   0.815  34.463   3.639
21478W        W85202  32.409  18.184  11.124
21479W        W85203   7.365   9.347   4.177
21480W        W85204   2.315  36.452  14.320
21481W        W85205  41.927   6.197  11.406
21482W        W85206  20.769  17.273  12.841
21483W        W85207   7.386  13.635   1.237
21484W        W85208  34.391   3.936  12.426
21485W        W85209  40.990  14.120  13.538
21486W        W85210  18.205   8.235   2.240
21487W        W85211  31.071  27.166  14.326
21488W        W85212  17.764  26.594  14.977
21489W        W85213  23.611  27.538  12.854
21490W        W85214   8.326   9.192  12.375
21491W        W85215  10.712  35.502   1.370
21492W        W85216  32.565  35.439  10.442
21493W        W85217  18.669  21.105   2.766
21494W        W85218  14.659   8.404  12.511
21495W        W85219  43.421  19.626   4.295
21496W        W85220  18.614  20.535  10.989
21497W        W85221  27.622   9.346  14.027
21498W        W85222  23.721  40.032   2.701
21499W        W85223   0.815  24.092  10.513
21500W        W85224  34.107  16.130   2.718
21501W        W85225   4.300   9.244  11.880
21502W        W85226  15.134   5.775   1.391
21503W        W85227  30.541  29.591  13.408
21504W        W85228  22.130   4.903   1.870
21505W        W85229  23.987  28.938   4.165
21506W        W85230  40.013  33.490  12.385
21507W        W85231  43.966  33.128   1.899
21508W        W85232  42.826  10.230  13.358
21509W        W85233  10.818  30.480  14.429
21510W        W85234  27.663  22.664   1.368
21511W        W85235  25.613  19.099  10.612
21512W        W85236  33.401   7.284  10.517
21513W        W85237   4.769  22.241   3.714
21514W        W85238  44.812  23.023   2.273
21515W        W85239  43.916  23.535   3.198
21516W        W85240  16.690  29.137   3.333
21517W        W85241  26.675  14.765   4.652
21518W        W85242  31.583  20.268  10.588
21519W        W85243  19.594   1.943  10.092
21520W        W85244   3.935  31.143  13.542
21521W        W85245  29.518  28.553   4.758
21522W        W85246  12.338  19.209   3.681
21523W        W85247  11.353  18.676  13.042
21524W        W85248   7.771   2.789   0.753
21525W        W85249  40.040   2.951  11.050
21526W        W85250  25.117  42.026   1.840
21527W        W85251  25.571  33.606   4.146
21528W        W85252   8.766  40.321   0.356
21529W        W85253  11.181  41.507   4.172
21530W        W85254   5.865  33.046   4.271
21531W        W85255  40.976   4.269   1.280
21532W        W85256  20.260   1.903  11.889
21533W        W85257  39.956  21.669   3.249
21534W        W85258  25.549  35.590   3.176
21535W        W85259   9.161  39.354  14.943
21536W        W85260   7.197  36.869  12.844
21537W        W85261  41.788  30.030   3.377
21538W        W85262  35.929  43.489   0.914
21539W        W85263  19.051  16.092   5.149
21540W        W85264  24.713  23.067   3.230
21541W        W85265   6.727   9.265  11.472
21542W        W85266  24.635   4.255   3.300
21543W        W85267   9.239   9.382   0.363
21544W        W85268  41.334  37.036  14.471
21545W        W85269  24.565  22.559  10.488
21546W        W85270   2.792  37.564  14.913
21547W        W85271  36.031  30.608   1.327
21548W        W85272   1.283  34.880   0.383
21549W        W85273  15.819  19.267   0.371
21550W        W85274   1.291  40.352   1.213
21551W        W85275   8.392  29.496   0.279
21552W        W85276  40.452  31.912   4.142
21553W        W85277  13.213  42.992   0.904
21554W        W85278   1.750   8.824   1.353
21555W        W85279  32.401  29.940  12.015
21556W        W85280  28.161  29.024   2.209
21557W        W85281   5.379  42.806   4.707
21558W        W85282  24.207  37.532  12.948
21559W        W85283  18.724  11.310  12.997
21560W        W85284  41.988  34.591  13.002
21561W        W85285  14.718  29.468  13.796
21562W        W85286  37.574  15.604   4.661
21563W        W85287  28.000  24.116  13.885
21564W        W85288  33.956  31.123  14.945
21565W        W85289  33.617  16.569   1.248
21566W        W85290   0.898  30.442   2.888
21567W        W85291  22.634  41.447   1.739
21568W        W85292   8.684  18.650  13.064
21569W        W85293  24.182   4.307   1.828
21570W        W85294  42.913  34.466  13.968
21571W        W85295  37.903  34.553  14.943
21572W        W85296  22.088  29.998  10.892
21573W        W85297  25.600  23.104   4.741
21574W        W85298  20.185   1.760   3.228
21575W        W85299   4.769  23.554   2.885
21576W        W85300  37.997   7.810   2.283
21577W        W85301  28.045   7.240   1.749
21578W        W85302  39.464  27.132  11.550
21579W        W85303  23.105  29.082  12.859
21580W        W85304  16.753   7.399   5.196
21581W        W85305  30.654   7.305   2.199
21582W        W85306  14.251   5.761  12.430
21583W        W85307  13.238  33.986  10.551
21584W        W85308  30.056  42.352   3.659
21585W        W85309  28.940  40.801  11.113
21586W        W85310   9.744  35.389  12.462
21587W        W85311   7.339  19.166  10.600
21588W        W85312  25.969   3.941  10.465
21589W        W85313   1.403  29.000   0.422
21590W        W85314  38.074  29.175   0.255
21591W        W85315  44.276  27.614  14.878
21592W        W85316  16.756  32.507  12.515
21593W        W85317   1.302   6.278  12.484
21594W        W85318  39.982  25.038  12.882
21595W        W85319  22.247  17.098   4.143
21596W        W85320  44.883   3.847   0.291
21597W        W85321  22.250  20.624  14.023
21598W        W85322  36.904  37.550  12.056
21599W        W85323   4.713   8.852  14.468
21600W        W85324  44.956  36.476  10.622
21601W        W85325   2.417  44.004  14.894
21602W        W85326  30.982  42.392   1.364
21603W        W85327  37.842  25.704  12.093
21604W        W85328  14.700   1.863   4.215
21605W        W85329  36.939  23.138   3.313
21606W        W85330  13.797  21.520  14.381
21607W        W85331   6.412  26.599  14.791
21608W        W85332  15.108  27.122   3.865
21609W        W85333   5.356   4.291   3.291
21610W        W85334  19.760  18.283   3.160
21611W        W85335  36.853  31.647   2.728
21612W        W85336  41.861  28.041  14.372
21613W        W85337  19.597  36.558  14.475
21614W        W85338   4.312  31.101   4.688
21615W        W85339  26.493  10.365   2.305
21616W        W85340  36.842  14.222  11.508
21617W        W85341  20.140  41.445   1.301
21618W        W85342  10.248  25.147  14.297
21619W        W85343  22.115  40.926  11.091
21620W        W85344  18.295  18.606  14.848
21621W        W85345   3.444  28.609  11.987
21622W        W85346  22.516  25.553   0.884
21623W        W85347  16.179  13.680  11.010
21624W        W85348  17.125  23.610   1.369
21625W        W85349  25.624  38.522   2.858
21626W        W85350  29.164   2.879  13.020
21627W        W85351   0.371  30.446  11.545
21628W        W85352  22.744  30.448  10.940
21629W        W85353  21.038   3.423  10.539
21630W        W85354   6.256  36.990   1.336
21631W        W85355   6.853  39.435   4.305
21632W        W85356  44.284   8.794  10.614
21633W        W85357  25.519   5.796  12.980
21634W        W85358   4.921  34.504  14.467
21635W        W85359   4.276  17.730   2.243
21636W        W85360  38.983  24.165   0.865
21637W        W85361  26.098  30.491   2.867
21638W        W85362  31.608  25.512   3.257
21639W        W85363  35.980  43.010   2.374
21640W        W85364  16.572  11.779  12.437
21641W        W85365   6.238  10.170  10.493
21642W        W85366  40.906  14.316  14.979
21643W        W85367  24.018  25.179  10.907
21644W        W85368  33.969  38.989   3.689
21645W        W85369   7.389  13.648   3.754
21646W        W85370  26.007  28.094   4.825
21647W        W85371   7.815  19.070  12.902
21648W        W85372  14.323  19.281  13.006
21649W        W85373  42.491  20.612   0.274
21650W        W85374  24.096  18.658   2.869
21651W        W85375  36.497  43.285   0.818
21652W        W85376  27.950   7.703   0.770
21653W        W85377  12.765  16.089  13.007
21654W        W85378  23.612  11.715  11.977
21655W        W85379  13.249  39.876  13.377
21656W        W85380  43.770  42.304  12.088
21657W        W85381  15.782  12.278  14.965
21658W        W85382   1.242  14.177  13.312
21659W        W85383  32.940  24.097  14.984
21660W        W85384  21.538  17.300  11.408
21661W        W85385  39.945  12.629  13.343
21662W        W85386  28.131   3.781  12.414
21663W        W85387   9.212   1.890  14.399
21664W        W85388  42.843  35.438  11.958
21665W        W85389  10.658  24.519  14.318
21666W        W85390  21.614   1.275  12.886
21667W        W85391  17.722  16.729   4.663
21668W        W85392  23.190  22.612  13.323
21669W        W85393  19.149   8.361   2.194
21670W        W85394   3.943  21.154  10.008
21671W        W85395  30.106  22.649   3.779
21672W        W85396  25.030  10.710   0.877
21673W        W85397  26.513  38.832  13.064
21674W        W85398   0.485  32.141  11.376
21675W        W85399   0.862  19.779   2.738
21676W        W85400  41.971  12.339  11.592
21677W        W85401  25.996   9.834   1.259
21678W        W85402  19.635   9.277  14.860
21679W        W85403  33.460  40.446  10.075
21680W        W85404  20.115  34.028  11.478
21681W        W85405  35.401  26.066  13.484
21682W        W85406  29.950   6.911  11.057
21683W        W85407  39.340  30.642   3.184
21684W        W85408  15.194  29.584   4.601
21685W        W85409  36.522  33.393   2.330
21686W        W85410   9.277  13.184  10.969
21687W        W85411  31.590   2.455  11.992
21688W        W85412  17.084  14.229   1.262
21689W        W85413  10.654  22.562  13.434
21690W        W85414  42.016  14.260  10.436
21691W        W85415  28.464  16.665  12.887
21692W        W85416  44.914  31.415   0.483
21693W        W85417  23.157  11.705   0.866
21694W        W85418   2.269  11.222   4.745
21695W        W85419  36.924  26.082   4.310
21696W        W85420  23.174  32.942  14.846
21697W        W85421  25.152  25.110   3.199
21698W        W85422  17.800  42.341   0.325
21699W        W85423  17.690  43.497   2.262
21700W        W85424  21.718  21.177  13.044
21701W        W85425   9.390  10.808   5.606
21702W        W85426  13.204  34.043  14.994
21703W        W85427  35.969  28.082   1.295
21704W        W85428  11.785  16.081   4.790
21705W        W85429   1.881   5.923  12.925
21706W        W85430  26.172   5.695   2.255
21707W        W85431  23.227  22.106  14.365
21708W        W85432  37.009  20.599   1.429
21709W        W85433  40.994  23.721  13.819
21710W        W85434  34.903  12.821  11.977
21711W        W85435  32.024  35.069   2.703
21712W        W85436  22.064   3.312  11.860
21713W        W85437   9.862  10.753   2.898
21714W        W85438   8.267  36.511   4.249
21715W        W85439  20.735  14.749  11.005
21716W        W85440  11.228  36.042   2.756
21717W        W85441  34.505  33.906  11.945
21718W        W85442   8.788  12.219  12.543
21719W        W85443   6.421   2.865   0.822
21720W        W85444  15.119  33.464  13.350
21721W        W85445  42.353  25.213   4.274
21722W        W85446  19.251  43.806   0.364
21723W        W85447   7.364   9.861   4.243
21724W        W85448   4.245  19.130   1.784
21725W        W85449  26.524   6.322   5.117
21726W        W85450   6.425   5.919  12.960
21727W        W85451  40.432  22.212   9.925
21728W        W85452  42.814  36.525   1.719
21729W        W85453  18.296   5.831  14.493
21730W        W85454  44.495   1.856   1.437
21731W        W85455   8.846   9.852  14.760
21732W        W85456  44.934  41.512   2.330
21733W        W85457  34.063   3.299  12.006
21734W        W85458  23.520  33.933  12.533
21735W        W85459  15.643  24.991   1.702
21736W        W85460  16.760  27.535  10.999
21737W        W85461  27.691  43.499  14.760
21738W        W85462  29.928  40.417   4.290
21739W        W85463  17.635  29.578   1.902
21740W        W85464  37.005  44.994   2.760
21741W        W85465   0.313  20.221  14.788
21742W        W85466  10.762  37.438  12.033
21743W        W85467  34.462  43.427  14.373
21744W        W85468   0.824  33.951   1.420
21745W        W85469  27.009  13.203   2.862
21746W        W85470  11.705  23.240   0.930
21747W        W85471   5.741  33.027   3.718
21748W        W85472   7.386  19.780   3.786
21749W        W85473   0.779  40.051   3.765
21750W        W85474  17.593  12.330  14.031
21751W        W85475  23.188  37.942  11.087
21752W        W85476  26.064   1.883  12.561
21753W        W85477  28.098  39.849  12.867
21754W        W85478  39.354  17.245   2.196
21755W        W85479  32.069  33.463  14.762
21756W        W85480  29.579  36.435  13.002
21757W        W85481  20.649  41.441  13.537
21758W        W85482  22.674   0.435  10.957
21759W        W85483  25.568   3.783   4.759
21760W        W85484  24.567  41.018  14.909
21761W        W85485  40.452  29.472   4.325
21762W        W85486  41.027  28.611   0.483
21763W        W85487   5.726   3.917  13.895
21764W        W85488  34.029   4.928   3.351
21765W        W85489  36.875  26.683   4.179
21766W        W85490  14.321   3.457  11.040
21767W        W85491  17.293   8.803   4.295
21768W        W85492  11.742  33.445  11.025
21769W        W85493  10.686  28.463  12.503
21770W        W85494  20.624  13.280   4.351
21771W        W85495  30.539  32.621   4.626
21772W        W85496  26.085  33.434   4.227
21773W        W85497  22.628  44.915  11.417
21774W        W85498  42.427  17.563   1.254
21775W        W85499  44.992  42.436   1.784
21776W        W85500   7.697  21.113   3.172
21777W        W85501   2.235  25.164  14.350
21778W        W85502  43.464  18.579  14.429
21779W        W85503  36.963  21.754  12.923
21780W        W85504  25.187  23.210  11.971
21781W        W85505  32.928  28.946  12.844
21782W        W85506  22.703  18.187  11.380
21783W        W85507  18.698  17.707   4.599
21784W        W85508   9.375  19.197   4.244
21785W        W85509  39.895   2.787   4.833
21786W        W85510  33.387  10.816  12.433
21787W        W85511  12.718   0.775  14.313
21788W        W85512   1.334   9.267   0.449
21789W        W85513   6.307  23.014   3.234
21790W        W85514  21.027  10.183  10.042
21791W        W85515   0.313   0.746  14.351
21792W        W85516  27.468  44.305   4.814
21793W        W85517  11.826  14.597  13.389
21794W        W85518   7.668  20.729  14.291
21795W        W85519  28.556  29.984   3.332
21796W        W85520  33.402  17.770  11.080
21797W        W85521   4.886  30.455   1.718
21798W        W85522  29.636  19.630   3.220
21799W        W85523   4.232   4.820   3.148
21800W        W85524  29.010  22.526  12.519
21801W        W85525  43.019  12.658  13.839
21802W        W85526  35.022  11.789  14.023
21803W        W85527   2.368  14.312   1.817
21804W        W85528   9.721  44.318  12.513
21805W        W85529  38.542  33.462  12.426
21806W        W85530   0.773  12.847   1.390
21807W        W85531  32.555   3.838   4.303
21808W        W85532   8.285  14.177   1.282
21809W        W85533  19.186  43.917   1.423
21810W        W85534  13.672  21.043   3.678
21811W        W85535  33.425  19.685   3.789
21812W        W85536   6.846  33.010   2.727
21813W        W85537  15.799  34.615   0.863
21814W        W85538  17.674  34.589  11.612
21815W        W85539  33.942  26.028   0.928
21816W        W85540  20.632   3.921  10.590
21817W        W85541  17.228  12.254  10.449
21818W        W85542   6.219   0.973   5.087
21819W        W85543  29.038  15.640  13.842
21820W        W85544  13.229  32.141   0.742
21821W        W85545  36.915   3.457   2.345
21822W        W85546   7.816  42.792  13.463
21823W        W85547  34.442  42.795   1.237
21824W        W85548  38.951  19.232   1.282
21825W        W85549  26.681  14.308   0.461
21826W        W85550   2.370  41.493  11.894
21827W        W85551  33.889  26.034  12.827
21828W        W85552  39.394  34.387   4.622
21829W        W85553  43.276  22.616   4.114
21830W        W85554  21.210  15.321  12.872
21831W        W85555  10.846  34.101   0.872
21832W        W85556  16.283  11.353   0.794
21833W        W85557  32.067  41.996  14.469
21834W        W85558   1.414  29.946   4.601
21835W        W85559  25.094  22.134   0.777
21836W        W85560  33.103  22.674   4.724
21837W        W85561  13.655   2.434   3.865
21838W        W85562   3.846   6.405  13.048
21839W        W85563  36.993  38.409   4.138
21840W        W85564  18.571  25.043   1.924
21841W        W85565  22.025   3.755   0.868
21842W        W85566  15.298  11.150  12.077
21843W        W85567   6.858  35.921  10.572
21844W        W85568  18.626  25.191  11.868
21845W        W85569  17.763  17.304   1.881
21846W        W85570  27.078  19.640   1.800
21847W        W85571   9.282  32.438   3.270
21848W        W85572  13.110   2.350  11.002
21849W        W85573   1.362  35.422  10.978
21850W        W85574  14.714   2.412  10.466
21851W        W85575  43.276  13.224  12.370
21852W        W85576  21.125  31.534  13.477
21853W        W85577   7.802  31.589   3.298
21854W        W85578   6.347  36.929  12.833
21855W        W85579   3.301   9.387   1.878
21856W        W85580  30.593   0.926   0.457
21857W        W85581  41.304  26.969  11.894
21858W        W85582  30.636  34.551  12.430
21859W        W85583  20.666  23.666   0.464
21860W        W85584  26.191  26.067  14.979
21861W        W85585   8.188  16.812  12.899
21862W        W85586   6.308  23.725   0.371
21863W        W85587  29.493  36.078   9.952
21864W        W85588   5.224   9.645   1.442
21865W        W85589   6.843   2.818  11.945
21866W        W85590   4.383   3.312  13.832
21867W        W85591  25.521  18.050  13.511
21868W        W85592  35.068   0.373   0.383
21869W        W85593  24.105  35.437   2.182
21870W        W85594  37.920  42.958   3.715
21871W        W85595  23.710  27.092  10.961
21872W        W85596  17.702  22.734   0.325
21873W        W85597   3.255  41.802  12.500
21874W        W85598   8.696   4.227  13.451
21875W        W85599  16.129   6.704   0.421
21876W        W85600  22.631  11.726  10.895
21877W        W85601  17.763   9.710   2.841
21878W        W85602   7.346  33.415  14.306
21879W        W85603  40.006  12.350   0.378
21880W        W85604  38.451  22.517   9.940
21881W        W85605  37.844  38.934   2.783
21882W        W85606  26.655  44.883   1.362
21883W        W85607  11.648  28.678   2.776
21884W        W85608  37.364  35.873  10.527
21885W        W85609   9.215   0.365  14.952
21886W        W85610  39.820  39.046  14.310
21887W        W85611  36.955   8.248  13.990
21888W        W85612   5.250  19.636  10.894
21889W        W85613  38.828  36.351  11.374
21890W        W85614  35.979   9.259   2.859
21891W        W85615  13.742  14.596  11.932
21892W        W85616  34.495  17.780  10.024
21893W        W85617  43.995  42.514   1.744
21894W        W85618  42.525   8.262   0.260
21895W        W85619   0.906  24.055   3.671
21896W        W85620  28.454  34.925   1.766
21897W        W85621   6.317   9.362   2.332
21898W        W85622  15.643  19.274  10.437
21899W        W85623   6.746  27.181   3.731
21900W        W85624  26.200   1.271  10.903
21901W        W85625  17.236  23.608  14.765
21902W        W85626   9.866  37.488  14.959
21903W        W85627  24.139  10.800   2.253
21904W        W85628  35.031   4.748  12.859
21905W        W85629  32.625   0.261  10.410
21906W        W85630  14.668  32.985  12.078
21907W        W85631  22.727  11.647   9.945
21908W        W85632  38.928   1.298  11.969
21909W        W85633  44.390  43.894  13.956
21910W        W85634  26.151  41.792   3.790
21911W        W85635  37.076  40.305  10.583
21912W        W85636  38.000  40.491   3.679
21913W        W85637  38.826  43.903   0.764
21914W        W85638  19.284  21.126   2.823
21915W        W85639  34.562  34.553  11.067
21916W        W85640  44.855  39.882  14.498
21917W        W85641   5.732  39.325   0.348
21918W        W85642  22.236   9.367  13.928
21919W        W85643  15.602  12.790   2.776
21920W        W85644  12.342  39.948  11.466
21921W        W85645  22.522  24.681   3.794
21922W        W85646  32.061  33.411   2.816
21923W        W85647  18.690   0.762  14.515
21924W        W85648   9.859  23.586  11.591
21925W        W85649  21.676  23.615  12.978
21926W        W85650   9.751   8.900  14.020
21927W        W85651   7.745  15.313  13.969
21928W        W85652   0.745  22.035   4.346
21929W        W85653  37.581  44.804  13.380
21930W        W85654   8.677  44.805  12.847
21931W        W85655  38.377  21.607   3.151
21932W        W85656  38.530  34.007  13.999
21933W        W85657   3.426  31.959   0.956
21934W        W85658  32.009   9.268  13.997
21935W        W85659  34.425  41.794   1.334
21936W        W85660  27.059   6.428   1.298
21937W        W85661  36.531  43.971  13.053
21938W        W85662  11.202  29.963   3.728
21939W        W85663  36.394  12.817   0.860
21940W        W85664  14.334  40.348   1.257
21941W        W85665  18.591   4.276  13.924
21942W        W85666  38.028  21.716   4.735
21943W        W85667  25.662  42.857  14.842
21944W        W85668   6.771  35.005   0.925
21945W        W85669  20.606  32.442  12.474
21946W        W85670  14.310   5.305  13.820
21947W        W85671  38.979  31.493  13.059
21948W        W85672  22.064  25.671   2.185
21949W        W85673  34.981   8.308  11.126
21950W        W85674  14.271  27.569   0.887
21951W        W85675   5.835  32.932  10.977
21952W        W85676  21.699  37.393   5.584
21953W        W85677  15.668  25.204  10.572
21954W        W85678  14.692  37.966  12.054
21955W        W85679  14.815  16.141  11.885
21956W        W85680  33.523   7.259   3.644
21957W        W85681  12.178  21.579  14.278
21958W        W85682  16.233  34.006   1.327
21959W        W85683  36.049  32.140  14.836
21960W        W85684  37.443  33.984  12.521
21961W        W85685  40.892  25.076   2.796
21962W        W85686  10.682  22.040  12.875
21963W        W85687  31.110  36.515  14.767
21964W        W85688  19.196  38.075  10.441
21965W        W85689   7.303  32.076   2.205
21966W        W85690  41.882  44.778  10.052
21967W        W85691  28.005  39.009  14.358
21968W        W85692  39.351  17.191  10.926
21969W        W85693  33.433  40.863  10.995
21970W        W85694   1.330  14.631  10.507
21971W        W85695  37.542  35.586   3.775
21972W        W85696   7.203  17.608  13.524
21973W        W85697  35.391  36.535   0.821
21974W        W85698  35.484  24.040   2.780
21975W        W85699  28.633  21.025   0.755
21976W        W85700   7.210  33.087  13.000
21977W        W85701  40.814  14.170   5.158
21978W        W85702   6.700  40.902  10.506
21979W        W85703  34.372  25.192   2.391
21980W        W85704  18.130   9.661  11.602
21981W        W85705   8.281  12.353   2.381
21982W        W85706  18.664  21.659  14.390
21983W        W85707  20.686  19.266  13.036
21984W        W85708  37.367  18.113   1.853
21985W        W85709   9.313  24.206  10.595
21986W        W85710  33.575  33.064  13.308
21987W        W85711  10.183  31.940  14.930
21988W        W85712  25.177  35.999   0.374
21989W        W85713  13.832  35.876   0.765
21990W        W85714  42.945   8.161   1.345
21991W        W85715  23.689   8.879  11.024
21992W        W85716  15.603  19.552  13.434
21993W        W85717  19.244  12.628   4.173
21994W        W85718  42.370  29.463  12.929
21995W        W85719  39.431  32.562  13.809
21996W        W85720  40.812  15.224  14.992
21997W        W85721  30.979  32.405  12.936
21998W        W85722   9.819   3.277  14.352
21999W        W85723  12.685  32.034  11.479
22000W        W85724  37.016  24.620  13.424
22001W        W85725   1.291   5.310   2.889
22002W        W85726  41.479  44.867  14.419
22003W        W85727  41.472  12.817   4.627
22004W        W85728  35.894   3.798   2.663
22005W        W85729   9.169   4.758  14.027
22006W        W85730  18.641   4.846   3.276
22007W        W85731   7.866  21.231  10.079
22008W        W85732   9.155  16.188  11.404
22009W        W85733  40.006  31.151   1.720
22010W        W85734  38.550  36.370   4.353
22011W        W85735   6.784  12.849   0.354
22012W        W85736  35.370  25.510   4.616
22013W        W85737  27.080   4.255   1.254
22014W        W85738  12.617  13.240  11.397
22015W        W85739  15.612  16.097  13.049
22016W        W85740  15.768  36.950   1.332
22017W        W85741   0.785  23.540   3.315
22018W        W85742   8.733  29.157   3.149
22019W        W85743   5.218  44.878  14.362
22020W        W85744  22.042  34.556  14.860
22021W        W85745  26.693  18.661   4.158
22022W        W85746  31.465   7.350  14.429
22023W        W85747  14.225   9.835   1.804
22024W        W85748  43.931  35.472  10.583
22025W        W85749   1.895  20.068  10.617
22026W        W85750   1.315  25.568   3.663
22027W        W85751  44.336   7.788   0.442
22028W        W85752  21.561  30.033   2.876
22029W        W85753  29.447   0.785   1.230
22030W        W85754  13.225  37.454   5.197
22031W        W85755   3.345  30.994  14.320
22032W        W85756  29.565  13.676  13.373
22033W        W85757  34.435   5.429   0.476
22034W        W85758  14.137  33.104   0.899
22035W        W85759  18.227  17.738   4.652
22036W        W85760  11.212  18.162   1.702
22037W        W85761  28.962  42.896   5.201
22038W        W85762  16.760  14.635   3.189
22039W        W85763  44.367   3.725   3.271
22040W        W85764  28.049  36.559   1.896
22041W        W85765  43.285  16.765  13.818
22042W        W85766  30.106  18.561   3.345
22043W        W85767   3.949  25.582  10.975
22044W        W85768  40.313  29.481   4.721
22045W        W85769  13.606  12.688   2.821
22046W        W85770  42.483  42.910  11.918
22047W        W85771  35.406  14.755   2.384
22048W        W85772  35.066   3.242  13.851
22049W        W85773  29.555  35.542  12.002
22050W        W85774  14.722   3.867  13.489
22051W        W85775  14.673  16.137   3.257
22052W        W85776  25.679  44.823   0.879
22053W        W85777   9.834  17.705  10.951
22054W        W85778  20.100  16.767   3.176
22055W        W85779  39.457  27.581   3.734
22056W        W85780  22.063   3.760   3.803
22057W        W85781  37.053  17.656   2.836
22058W        W85782  29.977  42.836  13.950
22059W        W85783   6.742   7.375   4.180
22060W        W85784   9.278  42.815   3.210
22061W        W85785  44.400  29.669   0.430
22062W        W85786   6.400  17.689  14.904
22063W        W85787   3.874  39.549  14.403
22064W        W85788  17.124  32.913  11.532
22065W        W85789  41.944  41.940  10.412
22066W        W85790  38.369  26.055  12.944
22067W        W85791   7.367  10.315  11.975
22068W        W85792  14.104  30.646  13.833
22069W        W85793  39.882  21.739   2.300
22070W        W85794  15.712  22.734   1.321
22071W        W85795  42.329  14.203   0.336
22072W        W85796   6.300  26.480   5.234
22073W        W85797  26.984  28.584   4.796
22074W        W85798  17.121   3.256   1.443
22075W        W85799  10.638  20.734   0.407
22076W        W85800  39.041  30.597   1.231
22077W        W85801  37.021  28.461  13.414
22078W        W85802  25.988  27.976   2.217
22079W        W85803  38.854  35.445   4.822
22080W        W85804  17.295  32.428  14.779
22081W        W85805  27.065  41.395   3.267
22082W        W85806  11.354   2.892   0.956
22083W        W85807  21.215  31.003   3.685
22084W        W85808  30.972  27.171   0.462
22085W        W85809   0.929  33.421  11.129
22086W        W85810  26.696   7.348   2.793
22087W        W85811  10.182  37.996   0.364
22088W        W85812   1.427  17.732  13.848
22089W        W85813  15.712   7.197   3.283
22090W        W85814  29.945  21.249   1.935
22091W        W85815   9.849   5.219  10.540
22092W        W85816  30.088  38.328   1.800
22093W        W85817  20.676  44.762  11.986
22094W        W85818  41.403  38.829   1.731
22095W        W85819  44.323  17.178   0.390
22096W        W85820  41.972  25.984  14.854
22097W        W85821  25.544  27.062  12.975
22098W        W85822  25.673  30.650  14.796
22099W        W85823  37.337  17.302   2.809
22100W        W85824  32.917  28.014   0.452
22101W        W85825   2.893  35.076  14.357
22102W        W85826  16.635  10.159  13.416
22103W        W85827   5.910  32.087  12.432
22104W        W85828  24.501  30.442   0.390
22105W        W85829  26.487   0.457  13.034
22106W        W85830  21.073   7.408   3.866
22107W        W85831  39.551  19.055   0.862
22108W        W85832  31.581  24.018  14.786
22109W        W85833   9.186  31.417   0.841
22110W        W85834   9.654   5.438  13.500
22111W        W85835   6.361  15.207  12.830
22112W        W85836  35.067  40.843  12.556
22113W        W85837  30.054   9.751   5.285
22114W        W85838   5.716  34.467   3.787
22115W        W85839  10.793  20.680   3.298
22116W        W85840  29.513   3.452  11.453
22117W        W85841  15.743   1.476  13.489
22118W        W85842  26.092  22.557  10.429
22119W        W85843  20.042  18.673  14.831
22120W        W85844  19.584   0.369   4.212
22121W        W85845  16.807  25.595   1.792
22122W        W85846  42.845  12.242   0.338
22123W        W85847   6.757  25.482  14.828
22124W        W85848  24.076  20.148   0.387
22125W        W85849   5.238  12.264   2.830
22126W        W85850   5.203  18.114  12.933
22127W        W85851  15.188  39.848   1.730
22128W        W85852  12.624   6.790   4.823
22129W        W85853  23.031  22.134  13.977
22130W        W85854  30.594  43.006  10.060
22131W        W85855  42.439  13.724  14.845
22132W        W85856  21.518  18.082  10.644
22133W        W85857  10.279  41.410  12.487
22134W        W85858   4.726  35.100  14.504
22135W        W85859  39.508  14.183  13.376
22136W        W85860  13.235  22.546  14.007
22137W        W85861   2.270  32.470  11.870
22138W        W85862  28.054   8.870   2.834
22139W        W85863  29.605  16.641  11.436
22140W        W85864  32.393  16.167  12.365
22141W        W85865  41.925   6.271   4.121
22142W        W85866  16.155   3.793  12.850
22143W        W85867  32.591  13.230   1.345
22144W        W85868  29.582  44.982   3.774
22145W        W85869   8.165  43.884   1.793
22146W        W85870  31.055  31.929   3.738
22147W        W85871  10.190  26.032   3.172
22148W        W85872   9.651  28.078  11.942
22149W        W85873  34.515  43.506   4.296
22150W        W85874  30.547  43.941   3.752
22151W        W85875  43.821  13.298  13.915
22152W        W85876  14.823  16.779   1.823
22153W        W85877  35.376  37.399  12.498
22154W        W85878   5.365  30.483   0.912
22155W        W85879  13.116  35.054  12.887
22156W        W85880  28.029   7.286  10.572
22157W        W85881   2.827  30.628   3.319
22158W        W85882   3.336  22.106  10.504
22159W        W85883  23.648  37.083  11.044
22160W        W85884  36.072  34.393  13.453
22161W        W85885   7.757  26.686  14.490
22162W        W85886  43.907   9.782  10.940
22163W        W85887   9.250  13.124   1.860
22164W        W85888  13.736  26.036   2.778
22165W        W85889  21.530  24.096   0.921
22166W        W85890   4.801  31.027   4.115
22167W        W85891  43.812   0.333   0.788
22168W        W85892  27.177  29.498  10.438
22169W        W85893   6.901  37.582   0.817
22170W        W85894  35.579  42.847   2.207
22171W        W85895   9.215   2.816   4.335
22172W        W85896  30.912   7.907   0.772
22173W        W85897  13.800  13.805   1.303
22174W        W85898   1.928   1.816  12.528
22175W        W85899  10.335  43.337  10.902
22176W        W85900  35.871  37.476  13.337
22177W        W85901   2.459   6.272  10.560
22178W        W85902  38.970  32.534  10.914
22179W        W85903  34.950  34.403  14.457
22180W        W85904  33.072  42.312  14.453
22181W        W85905  31.937  18.149   1.419
22182W        W85906  40.339   7.383   2.299
22183W        W85907  18.596  44.916   2.712
22184W        W85908  30.013  25.653  13.951
22185W        W85909  42.011  12.237   2.873
22186W        W85910   3.735  26.072   4.723
22187W        W85911   0.808  44.901   1.878
22188W        W85912  12.243  36.413   2.837
22189W        W85913  38.559  10.276   2.193
22190W        W85914  10.228  30.548   9.980
22191W        W85915  29.063  20.065   1.724
22192W        W85916  39.325  44.478  11.417
22193W        W85917  11.127  17.576  11.892
22194W        W85918  40.903   7.862   2.192
22195W        W85919  13.712  18.194   4.597
22196W        W85920  27.580   7.839  14.346
22197W        W85921   9.703  25.477  13.397
22198W        W85922  31.049  20.156  13.868
22199W        W85923  38.391  10.312   1.873
22200W        W85924  10.255  21.198   3.309
22201W        W85925  37.925  11.814  13.390
22202W        W85926   8.209  35.099   0.851
22203W        W85927   2.311  34.115   4.793
22204W        W85928  31.498  42.377  12.354
22205W        W85929  25.644   8.241  11.462
22206W        W85930  11.627   0.986  12.997
22207W        W85931  16.777  40.881   3.731
22208W        W85932  13.645  34.411  11.545
22209W        W85933   9.852  37.412  13.346
22210W        W85934  14.749  36.361  12.049
22211W        W85935   6.835  13.673   4.810
22212W        W85936   0.880  27.092   0.728
22213W        W85937  35.959   5.220  11.496
22214W        W85938  26.615   1.918   3.383
22215W        W85939  10.309   1.768  12.553
22216W        W85940  13.110  28.552  11.939
22217W        W85941   9.709  22.703  13.413
22218W        W85942  35.006  40.367  14.461
22219W        W85943   0.900   4.899  11.392
22220W        W85944  35.989  10.827  11.874
22221W        W85945  11.803  44.394   2.288
22222W        W85946  39.829   3.330   2.280
22223W        W85947  28.674  35.413  12.460
22224W        W85948  17.125  10.807   1.764
22225W        W85949  44.433  23.115   0.381
22226W        W85950  33.400   7.359   2.846
22227W        W85951  43.882  26.536   4.223
22228W        W85952  10.713  30.144  13.523
22229W        W85953  22.676   6.363   5.310
22230W        W85954  42.422  13.634   2.695
22231W        W85955  13.329  35.037   2.271
22232W        W85956  28.960  18.296  10.478
22233W        W85957  35.504  31.925  11.860
22234W        W85958  22.519   3.387  14.401
22235W        W85959  12.239  44.413   4.137
22236W        W85960  18.714  35.955   3.162
22237W        W85961  10.643   6.183  12.473
22238W        W85962   1.738  26.628   1.220
22239W        W85963   9.718  17.647  13.513
22240W        W85964   5.829  38.935   1.325
22241W        W85965   3.832  26.546   3.653
22242W        W85966  32.470  32.476   3.797
22243W        W85967  41.879   5.700  12.075
22244W        W85968   3.216   2.723  13.923
22245W        W85969  44.347  33.532  12.992
22246W        W85970   4.940  43.898  11.569
22247W        W85971  36.506   1.374   4.247
22248W        W85972  10.166  11.752  14.325
22249W        W85973  32.999  33.568   4.699
22250W        W85974  10.145   6.253  12.374
22251W        W85975  33.874  24.715   4.672
22252W        W85976  36.589  41.398  10.109
22253W        W85977   0.833  43.314  11.450
22254W        W85978  21.093   7.895  13.383
22255W        W85979  28.659  15.744  10.983
22256W        W85980  35.369  43.475  14.461
22257W        W85981  27.118  34.556   4.695
22258W        W85982  24.164  18.253  13.990
22259W        W85983   3.949  40.456   2.692
22260W        W85984  23.113  17.564  12.835
22261W        W85985  32.062  28.074   2.826
22262W        W85986   3.262  14.255  11.460
22263W        W85987  24.630  23.998  11.374
22264W        W85988  34.935   3.712   2.182
22265W        W85989  43.854  39.981  10.510
22266W        W85990   1.877  44.915   0.739
22267W        W85991  26.626   1.732   3.730
22268W        W85992  18.155  19.590   1.853
22269W        W85993  28.570  21.169   1.774
22270W        W85994  41.995  34.521  14.906
22271W        W85995  23.728  28.051  13.413
22272W        W85996  42.968  10.834  12.925
22273W        W85997  36.908  25.650  14.436
22274W        W85998  24.145  17.558  11.595
22275W        W85999  18.074   8.743  12.493
22276W        W86000  30.981  20.181   0.354
22277W        W86001  25.083  33.574   4.706
22278W        W86002  15.246  21.069   2.196
22279W        W86003  16.704  26.482  14.400
22280W        W86004  32.995  27.161  10.911
22281W        W86005   9.722   3.953   3.817
22282W        W86006  26.557  20.082   4.768
22283W        W86007  11.135   1.354  13.810
22284W        W86008   1.749  22.251   1.729
22285W        W86009  16.797  24.105  13.341
22286W        W86010  40.823  12.314  12.403
22287W        W86011  38.481  22.628   1.775
22288W        W86012   3.949   6.723  12.567
22289W        W86013  32.470   0.448  12.965
22290W        W86014  35.976   3.849  10.590
22291W        W86015  24.634   0.335   0.432
22292W        W86016  11.855   3.805  13.947
22293W        W86017  10.306  19.765   4.263
22294W        W86018  34.526  18.583   1.780
22295W        W86019  24.542   2.401  10.451
22296W        W86020  36.466  13.626  14.782
22297W        W86021   3.286   8.836   0.767
22298W        W86022  38.050  27.185  11.884
22299W        W86023  13.615   9.231   4.811
22300W        W86024   3.244  17.264  13.814
22301W        W86025  19.704  32.400  10.928
22302W        W86026  27.998  19.731   4.319
22303W        W86027  28.929  17.781   0.317
22304W        W86028   6.304  32.448  11.595
22305W        W86029  32.098  33.105  14.883
22306W        W86030  42.305  42.797   1.695
22307W        W86031  37.480  31.581  11.387
22308W        W86032  29.501   3.790   3.235
22309W        W86033  14.616  25.964   1.755
22310W        W86034  30.562  14.223   0.815
22311W        W86035  10.315  18.084   3.299
22312W        W86036  25.051  11.190   4.736
22313W        W86037  21.701   1.965  11.525
22314W        W86038  11.746  39.336  13.388
22315W        W86039  28.104  10.682   5.233
22316W        W86040  30.972   7.862  12.505
22317W        W86041   0.928  27.017  12.924
22318W        W86042  39.994   4.213  13.064
22319W        W86043  11.837  10.645  12.938
22320W        W86044   7.239   0.840   1.917
22321W        W86045   8.242  25.070   1.392
22322W        W86046   7.267   7.324   0.264
22323W        W86047   6.418   9.831   2.843
22324W        W86048  21.720  28.009  11.920
22325W        W86049  18.660   3.836  13.471
22326W        W86050  13.711  44.456  14.908
22327W        W86051  16.081  28.066   0.967
22328W        W86052  39.943   5.752   1.330
22329W        W86053   2.835  31.590   4.229
22330W        W86054  25.510  21.708  14.348
22331W        W86055  28.478  16.095   0.358
22332W        W86056  17.291  31.995   2.192
22333W        W86057  11.314  19.084  14.995
22334W        W86058  13.718  38.846   2.322
22335W        W86059  29.027  12.617  14.514
22336W        W86060   5.694  40.449   4.128
22337W        W86061  24.106  16.748   4.231
22338W        W86062  18.131  35.954  12.384
22339W        W86063  40.341  21.197  11.513
22340W        W86064  44.282  41.417  13.835
22341W        W86065   0.443  31.953  12.558
22342W        W86066   4.400  38.351   1.704
22343W        W86067   0.477  14.219   2.327
22344W        W86068   8.777  22.637   4.314
22345W        W86069   1.906  43.014   0.460
22346W        W86070  35.916   8.665  13.046
22347W        W86071  15.191  44.996   0.861
22348W        W86072  18.189  42.856  12.911
22349W        W86073  11.799  39.034   0.418
22350W        W86074   3.911   4.446   0.785
22351W        W86075  17.727  13.673  13.358
22352W        W86076  31.117  10.813  14.448
22353W        W86077   7.890  29.447   4.805
22354W        W86078  34.038  20.185   3.708
22355W        W86079  29.535  42.024   2.242
22356W        W86080  27.114  41.905  14.455
22357W        W86081  19.195  23.686   2.752
22358W        W86082  44.274   6.806  11.000
22359W        W86083  33.089  14.146   0.384
22360W        W86084  17.278  35.069   1.382
22361W        W86085   8.233  24.127   2.760
22362W        W86086  39.471  41.360   5.266
22363W        W86087  17.599  22.089  13.961
22364W        W86088  32.103  34.912  12.506
22365W        W86089  36.028  37.947   2.180
22366W        W86090   4.742  21.155  10.458
22367W        W86091  40.960   1.978   1.786
22368W        W86092  23.521  19.551   1.450
22369W        W86093  28.085  36.364  13.836
22370W        W86094   3.769  22.996  14.959
22371W        W86095  24.668  12.844   4.353
22372W        W86096  22.136  24.146  11.079
22373W        W86097  18.719  33.949  11.546
22374W        W86098  28.546   3.723   3.171
22375W        W86099  36.553  18.741  11.519
22376W        W86100  15.587   6.345  14.398
22377W        W86101  25.049   9.234   4.797
22378W        W86102  40.981   8.884  13.354
22379W        W86103   4.333  32.897   3.345
22380W        W86104   6.796  13.230  11.473
22381W        W86105  19.664  17.678  14.861
22382W        W86106  40.898   7.206  13.824
22383W        W86107  18.186  32.891  10.921
22384W        W86108   7.334  19.053  12.549
22385W        W86109  42.032  15.237  13.873
22386W        W86110  32.556  33.399  13.503
22387W        W86111  40.342  32.496  14.430
22388W        W86112  32.033   8.276  14.305
22389W        W86113  10.679   5.356  13.928
22390W        W86114  26.662  25.215  11.518
22391W        W86115  42.423  43.271   2.258
22392W        W86116  37.534  35.100   1.848
22393W        W86117   6.251   3.387  12.944
22394W        W86118   3.955  32.968   3.808
22395W        W86119  35.520  44.824  13.003
22396W        W86120   6.895  41.959  14.287
22397W        W86121  42.873  37.362  13.428
22398W        W86122  15.131  23.196   2.675
22399W        W86123  32.397   6.248  10.478
22400W        W86124  44.489  26.642  10.933
22401W        W86125  10.184  43.416   1.781
22402W        W86126  22.614   3.309   0.444
22403W        W86127  31.139  30.500  11.408
22404W        W86128  23.113  28.055   0.312
22405W        W86129  43.504  30.551   2.225
22406W        W86130  32.897  40.348  11.527
22407W        W86131  12.641  30.963  13.350
22408W        W86132  18.228  31.912   3.208
22409W        W86133  11.274   6.693   4.228
22410W        W86134  20.044   0.432   2.882
22411W        W86135  34.973  12.679  11.443
22412W        W86136  32.935  23.087  13.036
22413W        W86137  35.592  23.161   1.756
22414W        W86138  38.495  34.438  14.765
22415W        W86139  15.815  15.664  12.831
22416W        W86140   7.843  42.018   3.247
22417W        W86141  21.573   1.354  10.954
22418W        W86142  39.056  21.052   1.444
22419W        W86143  25.032  39.492  14.340
22420W        W86144  24.540   9.276  12.835
22421W        W86145  40.922   2.899  12.449
22422W        W86146   5.427  13.840   4.630
22423W        W86147  41.949  41.377   1.729
22424W        W86148  37.948  10.748  10.976
22425W        W86149  42.827  10.835   2.313
22426W        W86150  36.516   7.246   2.197
22427W        W86151   1.264   0.914   4.704
22428W        W86152  21.701  26.109   2.181
22429W        W86153  23.003  24.564   3.660
22430W        W86154  19.657  44.356   5.097
22431W        W86155  19.109   1.302  13.337
22432W        W86156   9.850  25.604   1.263
22433W        W86157  26.659  43.395  12.832
22434W        W86158  14.120  34.934  10.925
22435W        W86159  26.486  12.306  14.341
22436W        W86160   7.869   8.749  14.500
22437W        W86161  32.529   0.269   4.764
22438W        W86162  42.007  14.679  11.980
22439W        W86163   8.824  44.326  11.925
22440W        W86164  19.649  27.670   0.407
22441W        W86165  16.617  31.535   3.766
22442W        W86166  12.164  38.563   0.923
22443W        W86167  32.989   0.282  11.435
22444W        W86168  32.507  31.619  11.046
22445W        W86169  18.552  36.543  10.617
22446W        W86170   5.882   2.797  13.890
22447W        W86171  22.219  26.624   1.762
22448W        W86172   8.681  17.601   3.304
22449W        W86173  25.599   5.859  10.023
22450W        W86174  44.919  37.046  14.321
22451W        W86175  35.453  40.983   0.907
22452W        W86176  20.607  15.173  12.057
22453W        W86177  13.636  32.592  11.870
22454W        W86178  28.514  11.630   2.692
22455W        W86179   0.362   9.316   2.270
22456W        W86180  14.630  36.010   0.864
22457W        W86181  31.592  36.387  14.873
22458W        W86182  41.818  22.552   3.864
22459W        W86183  22.025  25.595  13.974
22460W        W86184  31.531  41.794   4.146
22461W        W86185  14.266  22.174   2.226
22462W        W86186  14.789  13.235   3.380
22463W        W86187  22.118   1.305   2.187
22464W        W86188   9.724  22.129   2.896
22465W        W86189  26.523   7.801   2.880
22466W        W86190   4.310  28.009  10.907
22467W        W86191   2.361  35.880  14.288
22468W        W86192  43.912   7.353  13.894
22469W        W86193  17.601  29.082   1.844
22470W        W86194  36.055   6.719  14.506
22471W        W86195   3.301  13.631   1.801
22472W        W86196  40.838   3.839  11.388
22473W        W86197  18.238  18.212  13.456
22474W        W86198  13.693  20.036   0.749
22475W        W86199  33.585  12.225   1.725
22476W        W86200  27.034  15.105   0.461
22477W        W86201  44.867  19.110  13.054
22478W        W86202   1.248  13.120  12.858
22479W        W86203  30.989  43.398  10.548
22480W        W86204  40.895   3.420   3.261
22481W        W86205  43.436  10.315  11.523
22482W        W86206  14.165  43.881   0.333
22483W        W86207  31.495   5.704   2.792
22484W        W86208  44.388  38.424  14.917
22485W        W86209  38.469  24.701   3.309
22486W        W86210   1.456  30.441   4.781
22487W        W86211  18.590  36.084  14.301
22488W        W86212  12.180  14.228  13.384
22489W        W86213   0.924   3.335   1.750
22490W        W86214  33.506   2.274   2.299
22491W        W86215  36.021   3.935   0.341
22492W        W86216  25.678  32.957   3.315
22493W        W86217  43.474  32.918   4.618
22494W        W86218  28.994  36.015  14.505
22495W        W86219  18.611  32.462  10.613
22496W        W86220  29.109  41.906   4.236
22497W        W86221  29.659  36.926  13.504
22498W        W86222  14.273  11.811   2.822
22499W        W86223   1.818  19.570   4.739
22500W        W86224   7.176  21.145  11.483
22501W        W86225  20.162  11.320   1.908
22502W        W86226   7.751  40.498   1.335
22503W        W86227   3.454  41.963   0.279
22504W        W86228  20.183  29.639   4.313
22505W        W86229  14.801  18.146  12.389
22506W        W86230   0.827   8.164  10.966
22507W        W86231  20.221  17.281  12.371
22508W        W86232  17.723  38.380  10.446
22509W        W86233  35.375  42.288  10.540
22510W        W86234  42.844  25.079  12.427
22511W        W86235   9.745  37.054  14.799
22512W        W86236  26.624  27.112   4.739
22513W        W86237  20.554  38.922  13.862
22514W        W86238  14.637  17.695  13.330
22515W        W86239  24.212   0.872   4.316
22516W        W86240  30.602  15.775   3.638
22517W        W86241   4.289  23.055  11.088
22518W        W86242  11.258  36.491   1.392
22519W        W86243   7.375  22.106   1.700
22520W        W86244   3.379  35.048   2.395
22521W        W86245  21.212  21.201  14.373
22522W        W86246  23.715  23.525  12.828
22523W        W86247  21.060   9.676   1.342
22524W        W86248  26.463  39.938  11.009
22525W        W86249  16.607  24.696  11.480
22526W        W86250  40.857  43.374  14.854
22527W        W86251  23.648  12.714   0.814
22528W        W86252  17.638  12.831   1.820
22529W        W86253   4.720  37.371  14.432
22530W        W86254  41.843  11.717   4.355
22531W        W86255  25.529  41.328   1.770
22532W        W86256   4.294  34.112  14.993
22533W        W86257   6.313  19.090   4.154
22534W        W86258  13.157  36.479   0.811
22535W        W86259   7.193  33.903  13.812
22536W        W86260  25.590   1.757  14.963
22537W        W86261  26.591  38.834   1.756
22538W        W86262  31.562  11.245  14.898
22539W        W86263  30.432  37.402   3.231
22540W        W86264  29.635  15.320  12.065
22541W        W86265  26.113  13.822  12.974
22542W        W86266  17.240  28.603   3.274
22543W        W86267  15.281   9.712  14.483
22544W        W86268  36.963  34.523  12.022
22545W        W86269  16.131  25.572  10.970
22546W        W86270  23.002   8.809   3.694
22547W        W86271  26.059  38.899   3.861
22548W        W86272   1.308  27.000  12.861
22549W        W86273  40.910  20.572   4.316
22550W        W86274  15.661  10.307  12.504
22551W        W86275   3.305   9.817  13.345
22552W        W86276  39.973  27.477  12.394
22553W        W86277  38.569   1.456   3.331
22554W        W86278  12.355  34.452  11.069
22555W        W86279  35.945   4.447   3.796
22556W        W86280  10.372  37.548  13.849
22557W        W86281  26.489  35.463  13.423
22558W        W86282   5.293   0.429  11.023
22559W        W86283  43.309  41.826  12.043
22560W        W86284  14.704  24.188   1.435
22561W        W86285  20.083   4.213  14.488
22562W        W86286  24.009   7.698  11.380
22563W        W86287  21.172   3.423   3.833
22564W        W86288  41.914  43.342   2.201
22565W        W86289  39.927  33.976   3.326
22566W        W86290  27.465  12.791   4.271
22567W        W86291  29.477   5.334   4.158
22568W        W86292  24.126  11.759   5.220
22569W        W86293  12.805  38.836  13.337
22570W        W86294  40.424  12.639  13.811
22571W        W86295  43.308  10.651   4.261
22572W        W86296  38.898  15.772   1.376
22573W        W86297  30.496  29.647   1.910
22574W        W86298  36.386   9.694   3.803
22575W        W86299   5.897  29.010  12.420
22576W        W86300  43.328  19.770   0.331
22577W        W86301  32.448  26.101  11.925
22578W        W86302  34.010  34.915  13.438
22579W        W86303  11.331  31.563   0.289
22580W        W86304  36.918  18.123   3.212
22581W        W86305   2.926  17.249  13.022
22582W        W86306  24.711  26.658   3.160
22583W        W86307  29.453  43.414  13.964
22584W        W86308  33.440   1.736   0.269
22585W        W86309  32.570   5.438   0.298
22586W        W86310  14.595   1.393   3.296
22587W        W86311   7.300  22.735  14.762
22588W        W86312  33.546  38.541   3.254
22589W        W86313  33.415  15.771  14.312
22590W        W86314  31.111  25.634  10.616
22591W        W86315   5.325  17.753   3.317
22592W        W86316  13.701   1.287  14.948
22593W        W86317  18.259  14.597   1.275
22594W        W86318  10.218  17.292   4.667
22595W        W86319  16.093  29.946   3.246
22596W        W86320  35.047  21.121  10.537
22597W        W86321   4.766  37.005   3.650
22598W        W86322  22.524  17.713   4.722
22599W        W86323  44.835  43.817   3.811
22600W        W86324   2.873  20.173  11.567
22601W        W86325  40.879  21.031   1.775
22602W        W86326  19.580  10.793   0.854
22603W        W86327  10.246  36.592  14.350
22604W        W86328  16.725   0.862  10.544
22605W        W86329  44.832  14.283   4.244
22606W        W86330   4.274  36.419  12.502
22607W        W86331  41.536  16.573  11.969
22608W        W86332  35.603  41.901   0.329
22609W        W86333  33.993   8.163   1.297
22610W        W86334   5.335  10.644  10.574
22611W        W86335  28.962  42.380  11.862
22612W        W86336  31.517  42.284  11.480
22613W        W86337  30.548   0.443   4.153
22614W        W86338   1.787  14.130  13.965
22615W        W86339  10.244  27.946  13.060
22616W        W86340  19.598  18.727  11.376
22617W        W86341  14.335   4.279  13.526
22618W        W86342  23.697  22.706  13.826
22619W        W86343   8.845  10.768   4.641
22620W        W86344  40.407   1.371  12.841
22621W        W86345   2.231  30.951  14.485
22622W        W86346  16.149   7.316   0.925
22623W        W86347   9.665   7.229   3.772
22624W        W86348  38.051  22.552   2.285
22625W        W86349  44.398  38.998   0.344
22626W        W86350   7.348  42.948  11.476
22627W        W86351  40.954   7.840   1.821
22628W        W86352  44.870  21.684   4.121
22629W        W86353  30.089  40.950  11.017
22630W        W86354   2.880   5.291   0.308
22631W        W86355   6.716  34.507  10.916
22632W        W86356   5.416   2.752   3.200
22633W        W86357  20.083  25.179   2.881
22634W        W86358  34.959  28.620   1.448
22635W        W86359   7.380  19.583   4.189
22636W        W86360  40.937  16.128  13.545
22637W        W86361  39.495   7.708  10.965
22638W        W86362   0.844  20.616  12.513
22639W        W86363  27.621  34.504  10.467
22640W        W86364   6.392  41.999  14.510
22641W        W86365   3.335  36.542   3.198
22642W        W86366   5.749  32.470  12.406
22643W        W86367   6.801  20.601  11.033
22644W        W86368   7.773   8.795   1.233
22645W        W86369  22.634  10.171   1.407
22646W        W86370  28.448  44.937  12.063
22647W        W86371  37.570  44.780  14.887
22648W        W86372  11.186  14.306   2.858
22649W        W86373  25.006  14.698  13.984
22650W        W86374   5.796  38.340   0.872
22651W        W86375  43.387  18.698   3.691
22652W        W86376   2.819  27.098  14.371
22653W        W86377  31.900  12.674  13.021
22654W        W86378  35.526  10.202   3.367
22655W        W86379  38.848  16.280   0.473
22656W        W86380  10.247  25.631   1.259
22657W        W86381  31.138   3.899  10.550
22658W        W86382   3.410   2.741  12.442
22659W        W86383  14.809  29.453   3.723
22660W        W86384   1.242  17.268  12.931
22661W        W86385  40.529  17.154   2.311
22662W        W86386  15.626  30.913  14.991
22663W        W86387  30.967   5.803  14.425
22664W        W86388  37.396  12.717  13.037
22665W        W86389  32.599  25.123   3.283
22666W        W86390  42.016  28.134   4.149
22667W        W86391  12.289  13.795   0.249
22668W        W86392  39.954  34.932  12.843
22669W        W86393  12.692  26.685   2.820
22670W        W86394   2.337  21.620   2.247
22671W        W86395  40.890  19.698   1.838
22672W        W86396  22.059  27.506  14.949
22673W        W86397  23.662  31.082   3.282
22674W        W86398  26.466  43.503  14.445
22675W        W86399  44.766  32.931   1.375
22676W        W86400  18.171  36.087  14.835
22677W        W86401  27.992  29.156  13.397
22678W        W86402  37.030  14.258   2.416
22679W        W86403  33.477  30.050   4.337
22680W        W86404  32.514  12.353   3.634
22681W        W86405   3.257  33.939   4.770
22682W        W86406  43.312  19.135   1.765
22683W        W86407   7.804   4.245   1.376
22684W        W86408  13.323  44.264  10.159
22685W        W86409  23.177   9.395   0.464
22686W        W86410  29.974   8.189  14.865
22687W        W86411  31.585  36.452   4.301
22688W        W86412  30.088  10.760   3.295
22689W        W86413   6.725  20.630   0.801
22690W        W86414  27.039  36.898  10.477
22691W        W86415  10.241  26.089  11.062
22692W        W86416   8.405  10.869   0.388
22693W        W86417   8.362   9.741   0.963
22694W        W86418   9.385  34.470   0.885
22695W        W86419   7.754   8.803   0.318
22696W        W86420   7.674  36.489   3.655
22697W        W86421   9.211  19.169  13.891
22698W        W86422  27.001  26.695  14.485
22699W        W86423  41.332  43.299   4.816
22700W        W86424   9.191  35.063  13.820
22701W        W86425   1.402   5.320   3.231
22702W        W86426  42.920  43.321  14.479
22703W        W86427  36.569   7.680  12.510
22704W        W86428  36.535  16.735   2.704
22705W        W86429  27.640   2.919  12.970
22706W        W86430   0.402  28.517   1.824
22707W        W86431  41.488  31.506   1.808
22708W        W86432  29.009  10.835  14.767
22709W        W86433  15.235  42.914  11.049
22710W        W86434  30.541  36.387   2.332
22711W        W86435  20.177  26.641  11.873
22712W        W86436  22.066  38.499   2.295
22713W        W86437  33.529  25.000   3.291
22714W        W86438  18.281  10.287  12.579
22715W        W86439  24.157  21.540   0.394
22716W        W86440  44.425  11.726  11.934
22717W        W86441  40.911  43.999  12.989
22718W        W86442  24.540   1.298   3.223
22719W        W86443  21.030  35.030  11.411
22720W        W86444  37.468  43.381   0.757
22721W        W86445   8.246  25.211  10.501
22722W        W86446  44.796  43.505  12.883
22723W        W86447  42.377  43.404  11.581
22724W        W86448  38.525  12.764   4.759
22725W        W86449  25.556  31.061   3.299
22726W        W86450   5.856   3.826   1.703
22727W        W86451  42.414  27.019   1.377
22728W        W86452  33.888   7.355   1.419
22729W        W86453  10.219  37.531  12.893
22730W        W86454  34.492  40.316   2.819
22731W        W86455  29.127   9.276   4.190
22732W        W86456  24.621  22.578  13.531
22733W        W86457  40.441  19.141   4.247
22734W        W86458  24.130  13.302  11.406
22735W        W86459   0.274  19.724  12.452
22736W        W86460  44.846   0.766   1.752
22737W        W86461  16.267  38.929  11.975
22738W        W86462  44.396  13.675  10.418
22739W        W86463  38.567  14.252   3.198
22740W        W86464  34.526  24.073   4.703
22741W        W86465  29.090  24.138  11.127
22742W        W86466  32.552  20.646   3.685
22743W        W86467  17.570  14.115   1.923
22744W        W86468   7.324  26.658   3.371
22745W        W86469  41.857  37.081   2.897
22746W        W86470  14.290  20.150   0.349
22747W        W86471  40.457  14.157  14.356
22748W        W86472   7.180  11.784  10.971
22749W        W86473  33.918  15.726  12.018
22750W        W86474   0.795  15.167  13.430
22751W        W86475  36.009   5.380   0.753
22752W        W86476  10.766  40.385  14.486
22753W        W86477  42.441  36.422  13.945
22754W        W86478   2.471  24.540  11.380
22755W        W86479  30.448  44.973   3.216
22756W        W86480   0.831  10.254  10.159
22757W        W86481   6.748  26.132  14.446
22758W        W86482  33.430   1.864  13.352
22759W        W86483  37.941  36.356   2.275
22760W        W86484  32.127  42.945  14.327
22761W        W86485   5.225  35.578   1.242
22762W        W86486  42.330  12.689  11.517
22763W        W86487  44.302  31.009  10.551
22764W        W86488   9.889   2.229  12.090
22765W        W86489  30.554  34.605  14.892
22766W        W86490  30.017  33.598   4.760
22767W        W86491  19.596  44.333   2.404
22768W        W86492  32.916  17.727   1.230
22769W        W86493  28.056  19.537   4.795
22770W        W86494   1.943  12.161   3.274
22771W        W86495   5.405  31.005   1.248
22772W        W86496  29.168  39.016  14.464
22773W        W86497  25.623   3.373   0.283
22774W        W86498  21.049  24.708   3.320
22775W        W86499  15.755  26.018  10.587
22776W        W86500  43.778  30.992   4.614
22777W        W86501   9.195  42.806  12.078
22778W        W86502  39.358   9.646  13.455
22779W        W86503  39.532   8.373  10.937
22780W        W86504  21.201   7.232   5.209
22781W        W86505  23.636  30.013  11.488
22782W        W86506  10.776  15.166   2.775
22783W        W86507   0.822   7.374   1.337
22784W        W86508  19.059  10.702   2.405
22785W        W86509  44.923  15.763  10.491
22786W        W86510  17.231  18.709   4.171
22787W        W86511  35.082  37.905   2.727
22788W        W86512   5.239  18.283  11.382
22789W        W86513  39.354  37.892  10.452
22790W        W86514  22.550   5.825   0.401
22791W        W86515  23.126  37.569  12.923
22792W        W86516  13.281  22.029  11.471
22793W        W86517  29.995  31.481   2.704
22794W        W86518  14.103  29.541   1.253
22795W        W86519  14.276   7.832   3.809
22796W        W86520  23.592   9.808   0.913
22797W        W86521  39.942  26.697  12.507
22798W        W86522  17.299  44.264   1.303
22799W        W86523  32.108  17.587   1.712
22800W        W86524  22.732  11.841   4.323
22801W        W86525  32.591   4.224  13.359
22802W        W86526  44.831  11.675   4.703
22803W        W86527   6.247  37.385  11.535
22804W        W86528  30.041  14.156  13.389
22805W        W86529  14.752   4.895  14.767
22806W        W86530  29.650  25.522  13.032
22807W        W86531  20.597  15.260   2.683
22808W        W86532  25.172  19.650  14.496
22809W        W86533  36.943  38.937   3.671
22810W        W86534  35.065   6.765  11.993
22811W        W86535  11.169  44.485  12.405
22812W        W86536   7.735  19.570  13.917
22813W        W86537  33.436  16.164  14.365
22814W        W86538  31.413  20.536  14.402
22815W        W86539  33.060   9.698   0.964
22816W        W86540  20.264  12.300  10.531
22817W        W86541  21.629   4.837  14.827
22818W        W86542   2.455   0.813  14.514
22819W        W86543  44.933  25.613   3.318
22820W        W86544   4.786  43.295  13.845
22821W        W86545  39.339  20.046   4.307
22822W        W86546  40.325  36.522  14.362
22823W        W86547  41.371  27.572   1.395
22824W        W86548  33.990   5.821   4.786
22825W        W86549  26.973  39.321  13.324
22826W        W86550  19.268  28.072   2.215
22827W        W86551  35.079  42.403  14.786
22828W        W86552  28.441  39.874  13.897
22829W        W86553  42.293  40.868   0.803
22830W        W86554  40.329  39.013  12.522
22831W        W86555  33.080  14.161  14.508
22832W        W86556  19.224  25.588  11.493
22833W        W86557  35.028  33.971   2.820
22834W        W86558   3.277  11.666   5.166
22835W        W86559  41.465  15.804   2.850
22836W        W86560  38.961  41.974   3.387
22837W        W86561  42.919   3.259   0.397
22838W        W86562   9.286  16.740   4.753
22839W        W86563  14.778  23.696   3.212
22840W        W86564  13.177  41.790   1.881
22841W        W86565  17.135  13.626   1.298
22842W        W86566  33.987   5.800  13.409
22843W        W86567  35.585  16.190   2.794
22844W        W86568  19.682  38.524   4.135
22845W        W86569  19.269  40.311   0.342
22846W        W86570  25.604  44.271  12.373
22847W        W86571  14.227   5.355   1.407
22848W        W86572  23.122  31.981   4.828
22849W        W86573  22.093  26.655  10.954
22850W        W86574  22.051  16.777   1.712
22851W        W86575   6.288  29.462  11.563
22852W        W86576   9.812  39.813   2.669
22853W        W86577   2.809   6.276   2.228
22854W        W86578  28.038  19.225  14.432
22855W        W86579  10.815  12.799   3.821
22856W        W86580  25.146  17.261   1.800
22857W        W86581  35.538  11.701  10.520
22858W        W86582  16.691  33.508  10.539
22859W        W86583  12.274  36.439   3.634
22860W        W86584  26.459   6.192  14.012
22861W        W86585  35.007  31.984  10.431
22862W        W86586  31.951  15.622  13.020
22863W        W86587  14.305  15.693   2.337
22864W        W86588   3.930  38.941  14.422
22865W        W86589  24.719  12.619  11.016
22866W        W86590  44.786  24.539   2.699
22867W        W86591   0.482   7.782   4.266
22868W        W86592  10.333   2.921  11.558
22869W        W86593   5.916  27.635  13.984
22870W        W86594  14.599  20.534   1.896
22871W        W86595  26.083  26.605  12.956
22872W        W86596   2.792  17.085  12.515
22873W        W86597  37.422  40.026  13.482
22874W        W86598  38.973  34.513  11.554
22875W        W86599  29.156  26.699   1.866
22876W        W86600  16.292   4.794  12.863
22877W        W86601  21.567  25.523   2.674
22878W        W86602  24.059  32.521   5.666
22879W        W86603  24.017   9.252  14.813
22880W        W86604  10.364   6.232   4.646
22881W        W86605  42.820  19.198  12.026
22882W        W86606  17.082  19.767  12.054
22883W        W86607  15.162  38.973   1.312
22884W        W86608  29.039  36.402   4.800
22885W        W86609  21.079  41.819  10.100
22886W        W86610   0.966   1.804   1.699
22887W        W86611  38.571   7.743  10.973
22888W        W86612   3.353  44.923   0.902
22889W        W86613   8.261   7.850  11.592
22890W        W86614   7.296  25.549  14.767
22891W        W86615  37.017  23.082   0.251
22892W        W86616  43.883  20.690  12.555
22893W        W86617  40.346   0.348  13.889
22894W        W86618  31.409  13.727  14.920
22895W        W86619  22.541  39.019   2.347
22896W        W86620  22.155   4.788  11.959
22897W        W86621  42.491   3.378   0.439
22898W        W86622  26.679   8.276  14.514
22899W        W86623  27.044  35.491  13.050
22900W        W86624  33.904   9.239   1.694
22901W        W86625  16.263   0.410  14.860
22902W        W86626   3.852  20.118  11.856
22903W        W86627  23.539  32.931  12.033
22904W        W86628   0.915  43.350  13.037
22905W        W86629  33.592  27.046  11.979
22906W        W86630  20.106  35.072   2.397
22907W        W86631  16.568   8.887   0.967
22908W        W86632  13.714  19.282   1.361
22909W        W86633  28.593  29.575   1.343
22910W        W86634  30.476  13.630  10.414
22911W        W86635  29.956   7.256   4.138
22912W        W86636   5.829   8.885   0.258
22913W        W86637   6.852  12.770  13.522
22914W        W86638  38.329  14.785   4.334
22915W        W86639  25.086  40.899   0.335
22916W        W86640  41.030   7.720   4.236
22917W        W86641  31.542  13.140  14.948
22918W        W86642  34.600  14.192  10.948
22919W        W86643  22.999  39.938  13.349
22920W        W86644  40.014  40.830  12.078
22921W        W86645   8.743  27.940  14.431
22922W        W86646  15.183  38.426   2.191
22923W        W86647   2.343  15.194  12.092
22924W        W86648  23.609  16.196   2.851
22925W        W86649   0.779  42.021  11.945
22926W        W86650  24.117  35.012  11.919
22927W        W86651  21.033  17.102  13.498
22928W        W86652   6.391  12.339  12.894
22929W        W86653  28.030  26.203  11.078
22930W        W86654   4.804  26.461  14.966
22931W        W86655  21.258  19.540  14.440
22932W        W86656   1.466  11.309   1.246
22933W        W86657  40.925  36.038   3.215
22934W        W86658  22.692  24.994   0.279
22935W        W86659  29.576  15.608  10.075
22936W        W86660  12.786   1.436  13.898
22937W        W86661  18.728  34.541   4.308
22938W        W86662  11.805  20.583   0.895
22939W        W86663  42.929  27.122  12.477
22940W        W86664  42.968  41.909   9.650
22941W        W86665   5.205  41.925  13.345
22942W        W86666  11.341  14.182   3.277
22943W        W86667  39.960  40.426  12.018
22944W        W86668  44.868  35.923  13.546
22945W        W86669  38.886   2.852   3.802
22946W        W86670  26.500  29.546   5.210
22947W        W86671  42.889  27.991   3.185
22948W        W86672  17.232  36.007   4.706
22949W        W86673   2.317  32.048  13.916
22950W        W86674  26.975   6.725   3.149
22951W        W86675  12.719  32.110  14.760
22952W        W86676   4.412  42.380  10.611
22953W        W86677   8.311   4.226  12.445
22954W        W86678   7.215  12.210  10.916
22955W        W86679  26.671  17.215   1.865
22956W        W86680  39.924  20.563   4.649
22957W        W86681  10.320  42.876   4.218
22958W        W86682  38.917  39.422  11.412
22959W        W86683   9.372  15.157   2.218
22960W        W86684  20.225  26.964  12.932
22961W        W86685  41.342  33.504  12.490
22962W        W86686  23.595  22.189  14.834
22963W        W86687  22.125  33.580  13.380
22964W        W86688  37.043  42.502  10.596
22965W        W86689  18.748  28.176  10.975
22966W        W86690  20.041  11.707  12.061
22967W        W86691   8.666  41.872  11.606
22968W        W86692   9.330  16.731  11.990
22969W        W86693  27.121  20.215   4.296
22970W        W86694  28.568  26.147   1.750
22971W        W86695  33.471  35.519   0.360
22972W        W86696  35.449  39.497  11.562
22973W        W86697  15.739   3.359   4.680
22974W        W86698  18.129  28.498  11.612
22975W        W86699  31.496  36.048   3.772
22976W        W86700  39.362  26.115   1.431
22977W        W86701   8.376   0.937   3.373
22978W        W86702  15.248  41.864   2.369
22979W        W86703  41.031  25.680   4.781
22980W        W86704  17.167  31.574  12.439
22981W        W86705  15.599  43.364   0.924
22982W        W86706  15.771  12.856  14.424
22983W        W86707  44.011  40.885   4.660
22984W        W86708  21.176  17.752   0.268
22985W        W86709  41.430  25.096  11.431
22986W        W86710  13.206   1.803  10.474
22987W        W86711  19.586  18.780   0.406
22988W        W86712  31.985   4.295  12.379
22989W        W86713  33.493  35.457  14.804
22990W        W86714  34.956   7.389   0.763
22991W        W86715   1.313   6.289  10.962
22992W        W86716  24.124  10.294  13.490
22993W        W86717  17.790   6.752   2.281
22994W        W86718  32.618  18.709   2.187
22995W        W86719  18.248  33.027   4.763
22996W        W86720  26.673  36.066   2.763
22997W        W86721   2.458  17.167  12.504
22998W        W86722  28.678  41.987  14.330
22999W        W86723  33.554  34.906   1.440
23000W        W86724  14.665  18.644  12.423
23001W        W86725  34.613  32.470  10.997
23002W        W86726  29.592   0.424   3.644
23003W        W86727  32.966   2.962  14.954
23004W        W86728  11.657   3.738   1.446
23005W        W86729  19.638  40.536   3.327
23006W        W86730  21.541  38.853  14.812
23007W        W86731  17.643   1.447   2.219
23008W        W86732  17.736  27.582  13.948
23009W        W86733  15.668  25.057   4.645
23010W        W86734  13.611   3.284  10.485
23011W        W86735  16.741   8.673   2.706
23012W        W86736  38.851  17.285  10.104
23013W        W86737  43.786   5.879  13.324
23014W        W86738  29.054  19.057  14.855
23015W        W86739   9.719  43.448  11.938
23016W        W86740  38.518  31.953   2.814
23017W        W86741  21.089  31.503  13.865
23018W        W86742  37.953  41.365   4.712
23019W        W86743  13.821  39.039   1.840
23020W        W86744  27.990  29.012  14.810
23021W        W86745  35.546   0.376  10.613
23022W        W86746  33.059  26.493   2.209
23023W        W86747  11.177  11.794   1.397
23024W        W86748  28.680  29.973  11.442
23025W        W86749   8.711  39.363   2.395
23026W        W86750  26.606  27.534  12.579
23027W        W86751  33.995  22.010   2.685
23028W        W86752  30.531  19.636   0.391
23029W        W86753   6.293  42.881   1.372
23030W        W86754  24.109  42.469   3.643
23031W        W86755  35.052  41.924  12.071
23032W        W86756  16.684  11.194   2.862
23033W        W86757  44.811  32.070  11.099
23034W        W86758  25.977   1.754  13.985
23035W        W86759   8.728  26.195   1.321
23036W        W86760  39.481  23.715   0.286
23037W        W86761   7.295   7.905  10.921
23038W        W86762   2.950   8.789   0.831
23039W        W86763  33.911  26.624  13.032
23040W        W86764  26.102  31.407   4.247
23041W        W86765  14.750  25.472   0.836
23042W        W86766  21.150  15.675  11.425
23043W        W86767  27.075  30.065  12.037
23044W        W86768  14.756  42.460   3.655
23045W        W86769  41.001  25.528   2.239
23046W        W86770  32.576  27.942   3.762
23047W        W86771   0.862  38.388   2.702
23048W        W86772  20.136  15.106  12.955
23049W        W86773  34.375  28.940  11.522
23050W        W86774  35.545  29.073  12.940
23051W        W86775  30.112  42.497   0.478
23052W        W86776   2.753  21.535  12.529
23053W        W86777  11.281  17.763  13.499
23054W        W86778   8.293  24.711   0.915
23055W        W86779  35.972  27.122  11.605
23056W        W86780  42.865   6.363  14.312
23057W        W86781  43.406  42.976   2.358
23058W        W86782  36.479  15.596   0.371
23059W        W86783  41.825   6.418  11.874
23060W        W86784  29.444  16.276  10.512
23061W        W86785  30.124   9.820  12.034
23062W        W86786  30.476  15.248  12.552
23063W        W86787  41.389  36.352  11.109
23064W        W86788  29.942  36.846   4.801
23065W        W86789  13.755  30.090  10.613
23066W        W86790  14.620  40.401   3.680
23067W        W86791  44.887  43.805   2.779
23068W        W86792  29.483  34.540   3.771
23069W        W86793  12.131  11.157   4.127
23070W        W86794   4.744  21.165  14.315
23071W        W86795  43.780  43.341   3.367
23072W        W86796  42.399  43.458  14.309
23073W        W86797   4.301  22.188   0.297
23074W        W86798  36.537  40.843   4.609
23075W        W86799  27.641  15.289   2.409
23076W        W86800  23.118  41.795  12.097
23077W        W86801   9.789  31.557   4.748
23078W        W86802  26.623   7.185   3.335
23079W        W86803  24.005  33.571   5.239
23080W        W86804   8.360  21.648  11.388
23081W        W86805  13.146  30.504  14.404
23082W        W86806   1.285  24.687  11.882
23083W        W86807  20.059  16.309  14.836
23084W        W86808  33.464  24.516   3.743
23085W        W86809   2.363  28.542   0.466
23086W        W86810  42.879  11.195  13.936
23087W        W86811   3.217   4.809   0.483
23088W        W86812   4.905  32.112  13.349
23089W        W86813  13.330  39.330  11.091
23090W        W86814   2.241  28.096   3.713
23091W        W86815  11.857  10.140   3.640
23092W        W86816  16.796  20.655   0.456
23093W        W86817  12.242  36.946  14.308
23094W        W86818  35.540  39.903   4.746
23095W        W86819  36.526   0.808   4.143
23096W        W86820  21.735  24.080   3.858
23097W        W86821  21.627   7.717  11.927
23098W        W86822  26.058  19.738   1.821
23099W        W86823  44.897   6.253   4.678
23100W        W86824  41.910   6.378  11.007
23101W        W86825  18.773  29.589  11.095
23102W        W86826  31.980   8.711   2.267
23103W        W86827  43.356  12.777   2.694
23104W        W86828   0.826  19.533  10.586
23105W        W86829  12.636   5.884   3.183
23106W        W86830  19.675  44.494  14.830
23107W        W86831  33.970  24.505   0.909
23108W        W86832  26.102  18.051  13.416
23109W        W86833  28.576   4.699   0.787
23110W        W86834  34.998   8.221  13.354
23111W        W86835   4.808  18.257  14.801
23112W        W86836   3.745  24.081  12.859
23113W        W86837  44.447  19.606   2.790
23114W        W86838  14.271  35.052   1.392
23115W        W86839  35.075  41.879   3.277
23116W        W86840  39.044  34.993   0.259
23117W        W86841  17.598  31.464  13.420
23118W        W86842   0.910  40.896  11.108
23119W        W86843  41.949  38.892   0.889
23120W        W86844  42.802  19.673   4.259
23121W        W86845  34.547  10.187   4.170
23122W        W86846  34.873   7.269  13.031
23123W        W86847  39.344  40.936   1.436
23124W        W86848  32.040  13.180   2.684
23125W        W86849  19.700  11.225  12.516
23126W        W86850   8.732  37.453   1.304
23127W        W86851   6.749  43.000  13.370
23128W        W86852   2.842  30.426   4.684
23129W        W86853  21.250  25.506   0.741
23130W        W86854  31.956  17.713  13.390
23131W        W86855  41.461  13.171   1.850
23132W        W86856  33.046  43.919  13.816
23133W        W86857  39.360  42.452   3.763
23134W        W86858  34.058  21.023  11.535
23135W        W86859  16.640  41.328  10.541
23136W        W86860  32.026   3.378   1.255
23137W        W86861  22.110   3.395   0.299
23138W        W86862  42.820  32.949   3.364
23139W        W86863  38.056  20.131  12.078
23140W        W86864  17.140  18.657  11.411
23141W        W86865  11.669  44.480  11.468
23142W        W86866  17.704  15.722  12.894
23143W        W86867  34.917  35.064   0.807
23144W        W86868   0.752  12.806   1.774
23145W        W86869  21.689   8.317  11.983
23146W        W86870  13.138  38.388  14.785
23147W        W86871  22.089  21.125  13.899
23148W        W86872  29.013  25.476  13.494
23149W        W86873  15.213   1.248  11.541
23150W        W86874  15.620  34.499  12.544
23151W        W86875  17.607   1.852   3.319
23152W        W86876   4.422   4.210  11.072
23153W        W86877  34.923   7.364  12.521
23154W        W86878  34.077  44.929   2.351
23155W        W86879  33.098  11.263  12.505
23156W        W86880  17.300   4.267   2.211
23157W        W86881  37.085  42.947  10.428
23158W        W86882  29.496  41.838   4.668
23159W        W86883  23.610  21.168  13.856
23160W        W86884  19.556  36.510  11.504
23161W        W86885  12.280  17.170  13.959
23162W        W86886  27.021  22.198   0.817
23163W        W86887  12.708  25.647  14.452
23164W        W86888  23.043   9.860  10.496
23165W        W86889  13.619   0.304   0.277
23166W        W86890  41.354   4.377   2.310
23167W        W86891   5.764  18.677   3.285
23168W        W86892  22.219  38.068  10.125
23169W        W86893  13.318  26.616  12.946
23170W        W86894  10.815  13.707  10.989
23171W        W86895  28.161  35.365   4.254
23172W        W86896   3.330  14.337   4.301
23173W        W86897  21.061  25.189  11.416
23174W        W86898  37.512  35.515  12.359
23175W        W86899   9.646  24.685   4.676
23176W        W86900  38.548  33.437   2.179
23177W        W86901  42.850   4.861   2.712
23178W        W86902  22.074  18.211   4.237
23179W        W86903  34.479  31.132   3.176
23180W        W86904  37.342  28.539   2.278
23181W        W86905  33.974  38.015   2.723
23182W        W86906  26.996   9.777  12.028
23183W        W86907   5.414   1.747  14.910
23184W        W86908  14.224  19.768  11.007
23185W        W86909  23.672   6.277   2.252
23186W        W86910   5.266  12.246  10.941
23187W        W86911  30.947  18.623   3.671
23188W        W86912  36.094  13.351   2.737
23189W        W86913  37.932  43.862   3.163
23190W        W86914  39.038  13.235   3.331
23191W        W86915  24.648  44.365   0.867
23192W        W86916   3.354  37.861   3.834
23193W        W86917   0.294  38.020   3.182
23194W        W86918   3.753  27.669  13.836
23195W        W86919   9.310  23.114  14.919
23196W        W86920  14.799  39.041  13.411
23197W        W86921   7.851  40.545  12.473
23198W        W86922  13.344  14.337  12.341
23199W        W86923  25.015  11.129  13.004
23200W        W86924   1.363  41.342  13.021
23201W        W86925  17.771  22.664   4.607
23202W        W86926  27.053  24.607  14.881
23203W        W86927  15.151  21.095   2.701
23204W        W86928  39.510   6.772  13.909
23205W        W86929   2.940  32.627   0.807
23206W        W86930  26.995  29.094  10.404
23207W        W86931  38.336  37.510   4.722
23208W        W86932  16.119  21.583  11.877
23209W        W86933  19.690  31.411  12.411
23210W        W86934  16.640   3.253  13.337
23211W        W86935  38.076  15.700   3.227
23212W        W86936   8.683  37.354   4.796
23213W        W86937  31.463  38.900  14.770
23214W        W86938  16.160  31.465  14.298
23215W        W86939  35.479  40.960  13.863
23216W        W86940   3.940  18.155   2.782
23217W        W86941  42.510  39.960  14.437
23218W        W86942  22.081  23.548   4.287
23219W        W86943  43.935  16.748  12.430
23220W        W86944  33.118  38.045  10.893
23221W        W86945  31.974  40.424  13.964
23222W        W86946  14.314  29.526   2.667
23223W        W86947  36.090  20.197  13.831
23224W        W86948  29.029  17.079   2.214
23225W        W86949  28.084  41.826  10.906
23226W        W86950  42.993  19.733   2.290
23227W        W86951   4.374  31.023   3.353
23228W        W86952   5.806   4.755  14.280
23229W        W86953   3.876  22.649   1.420
23230W        W86954   0.840  15.315  14.305
23231W        W86955  18.213   9.812  12.562
23232W        W86956  40.986  19.116   0.734
23233W        W86957  23.238  42.325   4.284
23234W        W86958  42.461  22.166   0.448
23235W        W86959  33.544   9.255  13.463
23236W        W86960  12.703  23.193   2.769
23237W        W86961  39.995  44.308  13.352
23238W        W86962  21.735  39.438   3.845
23239W        W86963  22.691   9.266  13.329
23240W        W86964  15.681  18.589  12.376
23241W        W86965  23.566  37.844   0.375
23242W        W86966  31.412  33.455  11.487
23243W        W86967  10.871  26.649   4.240
23244W        W86968  13.339  19.053   4.686
23245W        W86969  42.320  24.147   1.395
23246W        W86970  31.521  29.447   2.867
23247W        W86971  28.677  42.853   4.215
23248W        W86972  24.117   5.326   4.150
23249W        W86973   3.387  16.193   1.816
23250W        W86974  18.237  33.996  10.909
23251W        W86975   5.858   7.369   3.298
23252W        W86976   9.281  16.654   0.278
23253W        W86977  31.640  13.162  13.913
23254W        W86978  20.746  14.137   0.429
23255W        W86979  11.792  29.087  10.642
23256W        W86980   5.887  15.273   1.311
23257W        W86981  32.536   6.892  11.972
23258W        W86982  16.285  18.186  13.890
23259W        W86983  42.341  36.347   9.959
23260W        W86984   5.232  40.931  13.878
23261W        W86985   2.784  19.691  10.618
23262W        W86986  30.609   8.172  12.581
23263W        W86987  41.862  44.426  14.969
23264W        W86988  30.120  27.185  14.336
23265W        W86989  24.194  30.944   3.728
23266W        W86990   0.789  10.267   5.232
23267W        W86991  44.498  43.969   4.329
23268W        W86992   1.456  20.216  14.989
23269W        W86993  10.334  40.889  10.619
23270W        W86994  30.575  29.647  12.354
23271W        W86995  14.795  13.311   4.754
23272W        W86996   0.406  15.808  12.090
23273W        W86997   2.393  19.157   1.388
23274W        W86998  13.318  25.602   2.760
23275W        W86999  28.078  44.950  12.017
23276W        W87000  40.010   4.268  14.788
23277W        W87001  16.800  28.162   0.779
23278W        W87002  24.192   6.360   0.884
23279W        W87003  38.413   5.426  10.444
23280W        W87004  27.074  40.954  14.429
23281W        W87005  33.937  29.626  10.913
23282W        W87006  10.276   6.183  14.953
23283W        W87007   7.359  10.802   0.941
23284W        W87008  26.962  16.106  14.912
23285W        W87009  17.794  41.013  11.095
23286W        W87010  35.972  14.758   1.701
23287W        W87011  27.490  31.421   4.169
23288W        W87012  22.029  23.537  11.608
23289W        W87013   0.337  44.926   4.153
23290W        W87014  31.026  41.443   0.413
23291W        W87015  28.034   5.211   1.853
23292W        W87016   0.363  43.274  13.331
23293W        W87017  14.124  35.471   2.315
23294W        W87018   1.895   5.867   4.796
23295W        W87019  35.109  10.822  11.529
23296W        W87020   1.292  24.675   3.294
23297W        W87021   2.266  28.022  12.513
23298W        W87022  29.435  39.910   0.423
23299W        W87023  40.007  15.697  12.036
23300W        W87024   7.216  44.838  13.001
23301W        W87025   8.784  26.515   2.805
23302W        W87026  26.577  44.784  10.893
23303W        W87027  32.444  16.110   2.182
23304W        W87028   9.331   9.368   3.260
23305W        W87029  41.927   6.797   1.293
23306W        W87030  35.020  22.588   2.407
23307W        W87031   4.785  16.103   4.758
23308W        W87032  18.679   9.827   3.247
23309W        W87033  29.429  31.456  12.030
23310W        W87034   8.710  39.837  12.058
23311W        W87035  43.489  23.218   4.605
23312W        W87036  37.456  18.115  10.537
23313W        W87037  25.592  39.932   1.819
23314W        W87038  13.262   8.870   0.276
23315W        W87039   1.426  19.606  13.449
23316W        W87040  33.876   5.687  10.411
23317W        W87041  41.849   2.904  13.504
23318W        W87042  18.145  36.475   3.775
23319W        W87043  31.574   6.336   3.679
23320W        W87044  19.663  24.198  14.395
23321W        W87045  14.214   7.863   2.736
23322W        W87046  18.672  35.077   2.870
23323W        W87047  12.803   7.672   0.736
23324W        W87048  29.584  41.327  11.932
23325W        W87049  34.979  36.882  13.410
23326W        W87050   5.293   4.308  11.993
23327W        W87051   5.736  28.936  11.890
23328W        W87052   7.864  15.626  12.359
23329W        W87053   3.258  18.066   3.637
23330W        W87054  39.914   2.462   3.205
23331W        W87055  11.826  18.092   3.376
23332W        W87056  11.182  36.461  12.852
23333W        W87057  35.857  13.315   1.809
23334W        W87058  36.030  41.018  14.304
23335W        W87059  40.398  41.367   1.396
23336W        W87060  34.032  15.762   1.705
23337W        W87061  35.476  25.979  11.867
23338W        W87062  18.664  18.184   1.311
23339W        W87063  12.761   6.853  10.160
23340W        W87064   4.915  37.364  14.775
23341W        W87065  22.138   5.371   2.696
23342W        W87066  44.759  42.825   3.648
23343W        W87067   6.329  26.162   4.690
23344W        W87068   9.888   9.175   3.640
23345W        W87069  18.714  11.361   0.288
23346W        W87070   5.332  21.625   1.234
23347W        W87071  18.690   4.743  13.541
23348W        W87072  17.670   1.333  12.939
23349W        W87073   0.266  20.664  14.283
23350W        W87074  37.951  28.673  13.499
23351W        W87075   7.322  30.019   4.308
23352W        W87076  44.266  24.696   4.745
23353W        W87077  34.613  10.273   1.903
23354W        W87078  13.786  35.070  10.436
23355W        W87079  38.364  10.717  11.524
23356W        W87080  25.064  38.986  12.355
23357W        W87081  10.646   8.707  13.467
23358W        W87082  17.577  32.473  11.892
23359W        W87083  25.199  16.782  10.910
23360W        W87084  30.141  12.690  14.762
23361W        W87085  25.211   4.246   3.697
23362W        W87086  15.219   4.783   3.762
23363W        W87087  41.408  11.271  13.516
23364W        W87088  10.147  38.499   4.696
23365W        W87089  11.269  21.078   1.709
23366W        W87090   6.851   8.353   3.309
23367W        W87091  20.583  17.061  10.508
23368W        W87092  19.549  32.981   1.425
23369W        W87093  33.398  14.600  14.302
23370W        W87094  33.005   3.265   3.150
23371W        W87095  14.745  14.604   3.632
23372W        W87096   9.242   9.717   2.361
23373W        W87097  30.050  20.177  14.406
23374W        W87098  37.936  23.065  13.059
23375W        W87099  23.650   4.230   4.177
23376W        W87100  29.477  26.463  11.416
23377W        W87101  30.515   6.710   3.279
23378W        W87102  27.484   7.182   1.821
23379W        W87103  19.620  26.572   1.358
23380W        W87104  19.643  38.847   4.273
23381W        W87105   5.924  13.640   2.205
23382W        W87106  26.557  10.664  11.944
23383W        W87107  27.634  14.789   3.669
23384W        W87108  29.990  39.860  14.900
23385W        W87109   8.839  33.538   3.741
23386W        W87110  21.548   8.670  13.394
23387W        W87111  32.899  14.618   4.169
23388W        W87112  11.230  13.736  14.025
23389W        W87113   0.985  17.275  12.372
23390W        W87114  13.143   2.289  13.795
23391W        W87115  37.996   7.254  14.880
23392W        W87116  22.014   7.773   1.428
23393W        W87117   1.941   3.897  12.041
23394W        W87118  37.393  31.025   0.379
23395W        W87119  41.815  17.766  10.462
23396W        W87120  35.062  35.573  13.934
23397W        W87121  42.489  11.143  14.316
23398W        W87122  31.476   7.877   3.307
23399W        W87123  29.597  30.909  11.011
23400W        W87124   7.707   1.400  12.341
23401W        W87125  39.346  31.974  14.014
23402W        W87126  18.648  34.374  11.463
23403W        W87127  14.726  40.915  11.052
23404W        W87128  22.075  43.372   0.877
23405W        W87129  42.522  36.871  13.866
23406W        W87130   0.307  37.401  10.979
23407W        W87131  29.575  42.328  10.522
23408W        W87132  43.943  42.363  12.342
23409W        W87133   4.821  22.116   2.229
23410W        W87134  41.986  22.500  12.010
23411W        W87135  26.959   1.957  13.461
23412W        W87136  15.122   9.304  11.604
23413W        W87137  14.229  29.626  11.572
23414W        W87138   9.202  29.055   3.736
23415W        W87139   7.849  22.194   0.299
23416W        W87140  25.976   2.771   0.468
23417W        W87141  25.144  10.370  13.031
23418W        W87142  18.198   8.794  14.344
23419W        W87143  26.461  30.034   3.735
23420W        W87144  35.397  24.102   0.801
23421W        W87145   5.759  15.680  11.966
23422W        W87146  41.802   3.776  11.012
23423W        W87147  26.015  20.733  11.003
23424W        W87148  38.490  23.701  14.031
23425W        W87149  37.521  44.009   0.849
23426W        W87150  10.752  12.202  11.068
23427W        W87151  32.613  44.284  11.058
23428W        W87152   3.767  36.581  12.938
23429W        W87153  10.287   5.770  11.865
23430W        W87154   7.847   9.772   2.344
23431W        W87155  44.324  40.024  14.989
23432W        W87156  10.292  38.954   2.312
23433W        W87157  10.879  25.146   0.397
23434W        W87158  33.600  21.077   0.470
23435W        W87159  11.247   7.223   3.692
23436W        W87160  35.580  32.025   0.285
23437W        W87161   0.494  21.210  13.038
23438W        W87162  36.011  33.491   1.782
23439W        W87163  41.946  35.599  12.972
23440W        W87164  33.047  10.340  12.909
23441W        W87165   8.295  33.001  13.953
23442W        W87166  27.481   9.864   2.674
23443W        W87167  11.305  25.696  14.323
23444W        W87168  38.994   9.678   9.938
23445W        W87169  31.096  40.808  10.928
23446W        W87170  43.872   1.260  13.970
23447W        W87171  14.160  11.208  11.033
23448W        W87172   1.236  40.002  12.388
23449W        W87173   4.840  44.317   3.241
23450W        W87174  29.477   7.280  13.830
23451W        W87175  24.180  40.457   0.932
23452W        W87176  24.646  18.097  14.480
23453W        W87177  19.273  44.937   2.400
23454W        W87178  13.160   2.781   2.373
23455W        W87179  38.450  10.742   0.892
23456W        W87180  44.790  27.500   0.881
23457W        W87181   3.942  38.002  14.889
23458W        W87182  37.387  11.220   0.454
23459W        W87183  21.102  24.071  12.079
23460W        W87184   7.802  26.487   1.867
23461W        W87185  26.107  22.155  10.443
23462W        W87186  21.699  25.030   5.201
23463W        W87187   1.353  40.947   3.283
23464W        W87188  30.014   3.313   2.877
23465W        W87189  36.845  43.835   5.658
23466W        W87190  26.022   0.775  10.944
23467W        W87191  13.703  16.146  11.038
23468W        W87192  27.516  23.071   4.172
23469W        W87193  33.529  27.464   3.775
23470W        W87194   4.821   1.914   4.211
23471W        W87195  36.471  20.652   4.113
23472W        W87196  19.170  12.220   0.403
23473W        W87197   7.388  16.160  13.913
23474W        W87198  17.124  33.385   3.851
23475W        W87199  26.647   7.331  13.383
23476W        W87200  14.164  37.560   1.755
23477W        W87201  42.795  31.508  13.526
23478W        W87202  33.045   5.848  11.546
23479W        W87203  26.656  18.742   3.752
23480W        W87204  40.001   2.332  14.458
23481W        W87205  22.637  11.326  12.826
23482W        W87206  28.543   4.831  11.501
23483W        W87207  23.022  13.144  10.492
23484W        W87208  34.931  42.788  14.024
23485W        W87209   7.863   7.172   0.292
23486W        W87210   8.286  27.003  11.893
23487W        W87211   1.970  12.779  14.943
23488W        W87212  39.396  24.600  12.063
23489W        W87213  39.840  37.941  11.891
23490W        W87214  37.418   4.932   0.910
23491W        W87215   3.899   7.685  14.951
23492W        W87216  32.567  22.588   9.941
23493W        W87217  19.207  40.898   2.722
23494W        W87218   8.775   4.901  12.549
23495W        W87219  44.301  42.281   2.796
23496W        W87220  40.529   6.306   5.101
23497W        W87221  18.274  20.671  14.346
23498W        W87222  34.520  31.412  14.442
23499W        W87223   0.321  27.975  11.481
23500W        W87224  35.881  37.535   0.868
23501W        W87225  26.631  33.887   0.377
23502W        W87226  21.145  27.155   3.649
23503W        W87227  23.571  10.160  14.025
23504W        W87228  19.665  43.925   4.345
23505W        W87229  22.250  20.694   0.406
23506W        W87230  29.597  29.156   2.859
23507W        W87231  22.512  32.985  11.429
23508W        W87232  29.063   2.246  13.810
23509W        W87233   3.271  13.758   0.395
23510W        W87234   5.699  43.488   3.771
23511W        W87235  37.391  30.005  13.477
23512W        W87236  30.489  20.658   1.766
23513W        W87237  23.069  12.812  12.953
23514W        W87238  41.413   3.363   0.858
23515W        W87239   8.699  34.439   2.325
23516W        W87240  33.511  33.616  12.937
23517W        W87241  11.179  40.376   1.828
23518W        W87242  29.940  16.183  13.921
23519W        W87243  27.996   4.867  14.362
23520W        W87244  23.095  26.605   4.702
23521W        W87245  17.202  15.753   9.928
23522W        W87246  21.546  20.571  12.040
23523W        W87247  33.498  44.276  12.567
23524W        W87248   6.376   7.780   5.111
23525W        W87249   9.824  26.575   2.738
23526W        W87250  36.578  40.797   0.348
23527W        W87251  14.712   5.394  11.865
23528W        W87252  14.116  43.985   2.856
23529W        W87253  38.032  15.596   1.765
23530W        W87254  34.607  41.464   4.799
23531W        W87255  28.024  28.984  12.577
23532W        W87256  15.603  29.139  10.974
23533W        W87257  35.389  30.440   3.764
23534W        W87258  32.458  35.033  13.972
23535W        W87259   2.740  37.487   3.244
23536W        W87260   8.878  39.878   0.365
23537W        W87261   3.360  34.593   4.164
23538W        W87262  26.645  41.996   2.838
23539W        W87263  26.624  19.767   0.387
23540W        W87264   9.160  34.112   1.860
23541W        W87265  22.142   3.770  14.982
23542W        W87266  11.349   9.233  12.348
23543W        W87267  36.037  11.170   3.860
23544W        W87268  23.607   9.260   3.690
23545W        W87269  23.600  21.651   4.656
23546W        W87270  32.532  13.664   2.246
23547W        W87271  42.454  19.278   3.159
23548W        W87272  40.944  23.513  14.965
23549W        W87273  33.572  42.959   4.775
23550W        W87274  12.323  39.346   0.906
23551W        W87275  28.631   0.937  12.064
23552W        W87276   1.784  19.175  11.392
23553W        W87277  10.848  31.090  12.091
23554W        W87278  16.220   9.681   3.840
23555W        W87279  16.672  15.144   1.799
23556W        W87280  39.525  34.081  12.532
23557W        W87281  33.565  15.105   0.732
23558W        W87282  24.073  35.044   3.385
23559W        W87283   9.664  29.556   4.311
23560W        W87284  29.443  11.279   1.873
23561W        W87285   1.395  28.604   3.854
23562W        W87286  38.414  35.445  10.588
23563W        W87287  17.625  39.017   3.640
23564W        W87288  26.996  25.046  14.323
23565W        W87289  14.815  32.970   1.923
23566W        W87290  38.357  44.857  12.863
23567W        W87291   5.810  37.554   5.243
23568W        W87292  35.956  14.810   0.943
23569W        W87293  12.119  22.200   1.732
23570W        W87294  23.503  16.231   4.256
23571W        W87295  27.028   4.342  13.820
23572W        W87296  31.430  25.643   2.804
23573W        W87297  28.636  22.010  14.938
23574W        W87298  23.054  35.592   2.273
23575W        W87299   5.744  10.302  10.551
23576W        W87300  12.209   5.270   1.779
23577W        W87301   2.846  29.061  14.363
23578W        W87302   5.403  34.523   1.781
23579W        W87303  30.967  17.257   2.662
23580W        W87304   9.830  20.167  13.002
23581W        W87305  12.821  13.629  13.897
23582W        W87306   4.944  23.101   3.203
23583W        W87307  36.064  35.407   2.265
23584W        W87308  17.801  25.568   1.223
23585W        W87309  12.228  40.352   3.821
23586W        W87310   7.210  27.946  13.033
23587W        W87311   9.655  34.583   2.251
23588W        W87312  27.561  18.671   1.322
23589W        W87313   6.696  29.974   3.795
23590W        W87314  44.374  30.076  10.550
23591W        W87315  18.657  28.435   1.732
23592W        W87316  20.157  28.494  10.902
23593W        W87317  34.907  35.509  12.044
23594W        W87318   5.236  35.457  12.544
23595W        W87319   1.833   9.294  13.434
23596W        W87320   1.771  25.003   3.835
23597W        W87321  27.973  29.424   0.772
23598W        W87322  29.470  25.510  10.900
23599W        W87323   4.306  40.871  14.890
23600W        W87324   3.329   2.407   4.122
23601W        W87325  17.288  43.355  12.893
23602W        W87326  20.647  25.005   0.396
23603W        W87327  34.963  12.800   2.181
23604W        W87328  29.136  30.061   1.879
23605W        W87329   2.783  10.836  14.829
23606W        W87330  25.615  28.182   1.242
23607W        W87331   1.826  13.349   0.747
23608W        W87332  23.079  28.064  13.813
23609W        W87333  11.275  25.195  13.431
23610W        W87334   0.856  22.008  12.948
23611W        W87335  41.960  14.330   1.781
23612W        W87336   2.901  32.392   3.367
23613W        W87337  12.124  14.719  13.323
23614W        W87338   6.347  30.470  12.431
23615W        W87339  27.162  35.035   3.800
23616W        W87340  32.513  11.758   2.748
23617W        W87341  40.411  36.411   0.278
23618W        W87342  32.981   3.321  11.020
23619W        W87343  38.537  21.119  12.849
23620W        W87344  31.920  32.421   2.876
23621W        W87345  40.880  16.178  11.883
23622W        W87346  35.054  37.903   4.674
23623W        W87347  28.672  26.625  13.948
23624W        W87348  13.148   5.374  13.857
23625W        W87349  13.685  20.634  14.481
23626W        W87350  27.480   7.371  11.090
23627W        W87351  28.585  44.423  13.488
23628W        W87352   4.414   2.797  14.824
23629W        W87353  41.925  21.242  12.950
23630W        W87354  31.602   2.882  12.485
23631W        W87355  13.149  34.609  10.532
23632W        W87356  14.204  17.208  13.834
23633W        W87357  11.254  27.964  10.501
23634W        W87358  18.148  10.306  14.767
23635W        W87359  14.259  16.157   0.294
23636W        W87360  44.807  37.932  11.898
23637W        W87361  37.076  34.962   3.172
23638W        W87362  30.512  42.875   1.375
23639W        W87363   1.249   5.421   0.391
23640W        W87364  32.014  27.647  13.472
23641W        W87365  12.209  44.772  11.495
23642W        W87366  13.155  26.205  12.019
23643W        W87367  19.733  35.019  12.854
23644W        W87368  36.965   4.932   4.600
23645W        W87369   4.863  27.083  10.562
23646W        W87370  34.890  13.261   0.349
23647W        W87371  40.452  11.822   1.852
23648W        W87372  17.759   9.253   1.834
23649W        W87373  33.970  44.951   4.666
23650W        W87374  35.479  44.837   1.890
23651W        W87375  24.590   8.764  14.456
23652W        W87376  37.061  11.795  11.103
23653W        W87377  38.500   3.216  14.479
23654W        W87378   0.746   8.678  11.534
23655W        W87379  28.546  18.769  11.096
23656W        W87380  30.138  41.360  11.054
23657W        W87381  29.575  42.938  11.937
23658W        W87382   6.392   3.812  10.587
23659W        W87383   0.852  43.886   0.447
23660W        W87384   1.759  29.533  12.431
23661W        W87385  31.079  11.221   2.857
23662W        W87386   8.727  37.958  10.505
23663W        W87387  12.187  12.276   4.810
23664W        W87388  43.863  18.627  14.823
23665W        W87389  26.484  39.846   2.202
23666W        W87390  35.956  12.288  10.951
23667W        W87391  37.450  13.110  13.524
23668W        W87392  19.566   6.703  12.022
23669W        W87393  39.353  37.455  13.340
23670W        W87394  32.449  30.585   3.806
23671W        W87395  28.009  27.600   4.166
23672W        W87396  19.118  39.493  12.462
23673W        W87397  43.959  38.005  13.487
23674W        W87398  42.428  24.203   0.456
23675W        W87399  12.829  30.110   0.412
23676W        W87400  14.743  39.881  14.811
23677W        W87401   7.390  21.120   2.253
23678W        W87402  36.996  44.855   4.213
23679W        W87403  37.932  19.582   4.619
23680W        W87404   6.716  40.872   4.812
23681W        W87405  36.971   4.863  13.413
23682W        W87406  25.010   2.737  14.307
23683W        W87407  33.565   0.971  12.417
23684W        W87408   1.933  41.935  10.929
23685W        W87409  16.180  33.557   0.389
23686W        W87410  38.953  42.909  11.609
23687W        W87411   9.880  42.309  11.449
23688W        W87412   5.873  38.466   2.226
23689W        W87413   6.266  26.583  10.417
23690W        W87414  12.340  17.571  11.434
23691W        W87415   4.760  33.073   3.332
23692W        W87416  18.609  22.631   0.438
23693W        W87417  16.597   8.395   3.823
23694W        W87418   1.759  16.722   2.792
23695W        W87419  14.129   4.424  13.877
23696W        W87420  34.557   3.899  11.910
23697W        W87421  39.826  28.031  14.863
23698W        W87422   4.703  27.992  10.896
23699W        W87423   0.849  33.938  10.492
23700W        W87424   1.386  40.003  13.056
23701W        W87425  22.036  39.522  14.356
23702W        W87426  36.448   8.232  11.495
23703W        W87427  34.386   9.355  14.831
23704W        W87428  43.384  15.198  10.514
23705W        W87429   1.383  36.506   1.408
23706W        W87430  14.795  14.631  11.044
23707W        W87431  40.978  25.649   5.800
23708W        W87432   0.836  28.123   0.443
23709W        W87433   9.689  37.961   0.935
23710W        W87434  16.266  16.107   1.219
23711W        W87435  26.013   7.251  14.493
23712W        W87436  12.323  42.406   4.254
23713W        W87437  29.630   8.319  14.424
23714W        W87438   0.963  19.104  13.496
23715W        W87439  25.526  18.662   4.766
23716W        W87440  36.956  37.567   0.387
23717W        W87441  10.697  16.737   0.868
23718W        W87442  41.984  35.082  12.014
23719W        W87443  31.629  43.371  11.401
23720W        W87444  30.571  32.456   3.649
23721W        W87445   3.217  30.525   0.730
23722W        W87446   3.850  20.624   3.262
23723W        W87447  41.010  23.239   2.213
23724W        W87448  42.368  34.434  13.441
23725W        W87449  11.621   0.808   4.269
23726W        W87450  33.435  41.307   3.386
23727W        W87451  37.543  31.145   3.248
23728W        W87452  17.639  43.902  10.529
23729W        W87453   4.330  11.748   3.798
23730W        W87454  35.994   9.389   0.355
23731W        W87455   1.324  43.307  13.415
23732W        W87456  32.908  34.950  11.126
23733W        W87457   2.328  30.518  10.098
23734W        W87458  22.716  37.908   1.832
23735W        W87459  20.545  38.460   9.597
23736W        W87460  39.859  39.363   1.386
23737W        W87461   0.353  42.491  14.401
23738W        W87462   9.729  43.963  12.534
23739W        W87463  15.688  15.089   3.762
23740W        W87464  19.045  14.116  14.489
23741W        W87465  18.266  18.661   2.375
23742W        W87466  36.425  18.606   0.791
23743W        W87467  13.192  13.611  14.310
23744W        W87468  23.094  38.942   0.267
23745W        W87469  29.550  10.338   1.887
23746W        W87470  44.379   4.273   1.264
23747W        W87471  27.975  36.892   3.386
23748W        W87472  20.109  18.204  13.861
23749W        W87473  13.325  34.554   2.270
23750W        W87474  23.616  27.122  10.518
23751W        W87475  15.655   5.934   5.164
23752W        W87476  40.435  31.620  10.493
23753W        W87477   3.731  34.084  11.572
23754W        W87478  24.527  39.023  10.959
23755W        W87479  14.114   7.213   3.707
23756W        W87480  30.104  43.919  11.599
23757W        W87481   8.683  13.269  11.457
23758W        W87482   4.207  36.940   3.231
23759W        W87483  44.392  33.511  13.906
23760W        W87484  37.532  24.071  14.999
23761W        W87485  28.039  36.414   2.723
23762W        W87486  13.205  21.039  11.512
23763W        W87487   5.321  39.827   3.198
23764W        W87488  44.300  14.327  13.033
23765W        W87489   9.339   0.756  11.490
23766W        W87490  32.133  39.424   1.859
23767W        W87491  29.995   3.362  13.876
23768W        W87492   1.321   8.876  13.052
23769W        W87493   2.801  31.470   0.843
23770W        W87494  42.444   6.221   3.216
23771W        W87495  34.049  29.131   3.702
23772W        W87496   0.489  39.465  12.348
23773W        W87497   3.442   7.179  13.317
23774W        W87498  15.767  16.176  13.867
23775W        W87499   4.877  23.241  14.381
23776W        W87500  41.378  12.334  11.071
23777W        W87501   5.195  25.704  12.974
23778W        W87502  30.914   1.452   1.390
23779W        W87503   8.826  17.149   2.730
23780W        W87504  10.845   7.677  13.887
23781W        W87505  27.451  27.995   0.781
23782W        W87506  43.379  43.349  11.005
23783W        W87507   5.754  14.189  13.506
23784W        W87508  36.466  42.980  11.119
23785W        W87509  23.526   5.783   4.128
23786W        W87510  10.210   4.753   3.345
23787W        W87511  17.686   5.436   2.370
23788W        W87512  17.595  10.818  10.454
23789W        W87513  18.645  42.284  11.543
23790W        W87514   0.401   2.434   2.666
23791W        W87515  41.475  42.995  12.455
23792W        W87516  34.491  40.503  12.978
23793W        W87517  28.141  38.534   3.854
23794W        W87518  40.897  17.656   2.751
23795W        W87519  15.227  18.765   4.822
23796W        W87520  40.923  39.525   1.248
23797W        W87521  38.952  44.770  11.915
23798W        W87522  31.529  29.158   2.357
23799W        W87523  41.399   4.777  12.995
23800W        W87524  11.227  23.111   1.926
23801W        W87525  27.043  21.663   2.828
23802W        W87526  21.591  43.272  11.412
23803W        W87527  39.885   9.206   1.269
23804W        W87528  29.644  10.166   0.951
23805W        W87529   8.771  31.594   1.323
23806W        W87530  37.398  40.882   4.280
23807W        W87531  22.099  40.909   2.365
23808W        W87532  11.736  42.439   4.323
23809W        W87533   3.874   7.885   0.307
23810W        W87534  38.821  13.748  10.948
23811W        W87535  17.098  31.112   2.219
23812W        W87536  14.208  35.026   3.270
23813W        W87537   7.813   6.896  10.519
23814W        W87538  37.964  37.892  11.860
23815W        W87539   2.932  18.097   3.769
23816W        W87540   5.758   0.890  12.881
23817W        W87541  24.001  14.315  14.438
23818W        W87542  16.269  33.573  14.855
23819W        W87543  20.655  17.094  14.974
23820W        W87544  27.656  36.085  10.536
23821W        W87545  31.617  21.639   1.365
23822W        W87546  44.913  28.446  11.386
23823W        W87547  21.612  41.316   3.250
23824W        W87548   0.394  42.490   2.370
23825W        W87549   5.282  30.460  10.934
23826W        W87550  22.569  37.399   4.628
23827W        W87551   2.934   8.354   4.687
23828W        W87552   5.322  23.501   4.286
23829W        W87553   6.286  14.640  11.898
23830W        W87554  36.906  26.498   3.155
23831W        W87555  39.327  39.997   0.443
23832W        W87556  43.471  29.987  11.985
23833W        W87557   7.258  14.759  14.963
23834W        W87558  13.225   1.953   4.166
23835W        W87559   6.677  40.815   4.193
23836W        W87560  25.507   7.311  12.065
23837W        W87561  43.348  14.703   0.909
23838W        W87562  38.420  25.054   0.307
23839W        W87563  20.065  14.175  13.996
23840W        W87564  37.982  28.964   1.345
23841W        W87565  34.480  20.549   3.184
23842W        W87566  22.149  17.089   1.236
23843W        W87567  22.999  37.930  13.855
23844W        W87568  29.987  25.169   4.646
23845W        W87569   5.381  41.968   0.884
23846W        W87570  23.101  40.508  14.463
23847W        W87571  23.074  39.982  11.005
23848W        W87572   4.320  43.334  12.440
23849W        W87573  15.744  26.620   3.755
23850W        W87574  28.937  14.644   1.884
23851W        W87575  21.546  22.723   0.887
23852W        W87576  19.146  38.386  12.533
23853W        W87577  22.039  33.502  11.064
23854W        W87578   5.249  19.259  11.388
23855W        W87579  25.006   5.840  11.959
23856W        W87580  42.852   6.710   2.882
23857W        W87581  16.763  22.604  13.017
23858W        W87582  37.359   0.368   3.356
23859W        W87583   4.824  17.157  11.021
23860W        W87584  14.719  17.781  11.126
23861W        W87585  22.568  34.522  13.811
23862W        W87586  40.877  13.332   1.796
23863W        W87587  33.428   2.253  13.377
23864W        W87588   2.935  28.677  12.419
23865W        W87589  34.606   5.696   3.653
23866W        W87590  42.289  38.054   3.187
23867W        W87591  24.141  31.054  12.964
23868W        W87592  22.710  33.421   0.324
23869W        W87593   5.897  25.986   3.795
23870W        W87594  22.182   1.371   1.416
23871W        W87595  15.671  12.700  10.475
23872W        W87596  28.544  38.457  10.969
23873W        W87597  25.631   2.737   1.893
23874W        W87598  38.366  33.580  10.940
23875W        W87599  35.418  21.063  14.775
23876W        W87600   4.704   8.242  13.381
23877W        W87601  40.819  27.562  14.476
23878W        W87602  23.511  25.585  12.374
23879W        W87603  16.211  22.188   3.725
23880W        W87604  36.554  43.342  13.521
23881W        W87605  41.488  43.449   5.749
23882W        W87606  17.765  32.932   0.286
23883W        W87607  36.000  39.370   0.940
23884W        W87608   2.887   3.719  13.337
23885W        W87609  16.678  27.490  14.446
23886W        W87610  18.178  20.267   1.301
23887W        W87611  41.912  33.072   4.228
23888W        W87612  24.514   7.753   2.673
23889W        W87613  26.629  31.003  11.066
23890W        W87614  29.085   8.673   3.732
23891W        W87615   8.830  25.487   2.759
23892W        W87616   6.410  24.209   1.915
23893W        W87617   9.215  42.933   0.333
23894W        W87618   6.911   7.896   2.344
23895W        W87619  34.426   0.809  13.323
23896W        W87620   0.770  37.920  10.624
23897W        W87621  42.449  27.664  12.854
23898W        W87622  12.189   8.875  11.044
23899W        W87623  13.307  11.187  12.032
23900W        W87624  19.727  26.662  13.446
23901W        W87625  12.126  19.226  12.419
23902W        W87626   6.330  17.118  11.911
23903W        W87627  17.742  21.150   1.752
23904W        W87628  39.493   9.879   0.861
23905W        W87629  12.321  19.172   4.293
23906W        W87630  26.685  11.282   4.614
23907W        W87631  39.866  41.924   1.363
23908W        W87632   5.336  25.556  13.967
23909W        W87633  16.717  16.179  12.436
23910W        W87634  13.245  13.244   1.403
23911W        W87635   9.370  19.586  12.963
23912W        W87636  25.536  15.620  13.999
23913W        W87637  41.460  24.593  13.827
23914W        W87638   4.868  16.739  13.429
23915W        W87639  28.471  26.087  10.928
23916W        W87640  26.997  23.008   0.477
23917W        W87641  17.191  43.443  13.327
23918W        W87642  38.988  18.060   3.280
23919W        W87643   0.859   6.330   2.696
23920W        W87644  23.126  17.746   0.261
23921W        W87645  26.649  34.576   0.262
23922W        W87646  42.031  34.897  11.121
23923W        W87647  10.737  23.073   2.778
23924W        W87648  23.156  11.355  11.119
23925W        W87649  42.435  19.707   4.810
23926W        W87650  45.000   4.861   2.260
23927W        W87651  33.571   9.821  14.981
23928W        W87652  35.960   8.291   3.223
23929W        W87653   2.253  22.015   1.234
23930W        W87654   5.871  10.338  11.880
23931W        W87655  14.237  28.984  10.064
23932W        W87656  38.961  28.985  12.072
23933W        W87657  24.221  21.228  10.454
23934W        W87658  36.447  29.169  14.792
23935W        W87659  23.150  24.016   2.209
23936W        W87660   0.797  26.115   4.648
23937W        W87661  33.115   4.354   3.741
23938W        W87662   9.245  15.291   0.279
23939W        W87663  10.193  24.591  12.569
23940W        W87664  15.247  20.724   0.439
23941W        W87665  23.993  39.858   1.318
23942W        W87666  23.025  30.482   1.237
23943W        W87667  21.021   8.837  10.049
23944W        W87668  42.515  15.180  14.315
23945W        W87669  20.167  31.021   3.750
23946W        W87670  37.962  34.874  14.766
23947W        W87671  29.094  25.041  12.545
23948W        W87672  10.253  19.724  14.366
23949W        W87673  10.157  23.576   4.225
23950W        W87674   4.353  28.534  12.461
23951W        W87675  30.631   8.365  10.642
23952W        W87676  32.095  20.190   0.826
23953W        W87677   6.285  23.195  11.984
23954W        W87678  30.565  18.739   1.909
23955W        W87679  37.523  41.830   3.759
23956W        W87680  13.314  16.077   3.333
23957W        W87681  14.239  14.765  14.337
23958W        W87682   1.908  33.993   1.227
23959W        W87683  42.864  44.428   3.747
23960W        W87684  26.642  24.011   1.402
23961W        W87685  26.456  16.751   4.183
23962W        W87686   9.862  37.440  14.406
23963W        W87687  19.272  19.183  11.959
23964W        W87688  29.164  26.633  12.017
23965W        W87689   6.847   1.843   2.797
23966W        W87690  24.076   8.873  11.550
23967W        W87691  39.056  34.877   4.722
23968W        W87692  23.731  34.528   1.727
23969W        W87693  20.169  22.159   4.837
23970W        W87694  34.897   6.282  11.541
23971W        W87695  29.102  34.499  12.449
23972W        W87696   0.317  31.099  10.632
23973W        W87697  31.647  10.140   4.253
23974W        W87698  23.572  22.620  13.000
23975W        W87699   4.439   9.643  10.092
23976W        W87700  21.739  33.046  10.604
23977W        W87701   0.887  40.048   1.896
23978W        W87702  13.703  25.030   4.320
23979W        W87703  21.242  31.107   2.223
23980W        W87704  10.160  15.273   3.652
23981W        W87705  11.814  38.338  13.821
23982W        W87706  12.177  12.279   0.293
23983W        W87707  30.649  18.683   4.264
23984W        W87708  24.001  37.839   9.935
23985W        W87709  10.812  34.524  12.443
23986W        W87710  36.000  40.425   4.155
23987W        W87711  15.610  22.215   4.756
23988W        W87712  10.745  13.284  10.954
23989W        W87713  29.947  34.387   3.270
23990W        W87714  40.394  44.403  11.052
23991W        W87715  41.873  26.957  14.934
23992W        W87716  27.612  23.724  10.899
23993W        W87717   8.242   6.911   2.828
23994W        W87718  21.730   9.266  14.983
23995W        W87719   3.411  40.012  11.950
23996W        W87720  19.047  32.131   0.783
23997W        W87721  28.499  19.207  13.403
23998W        W87722  29.607  11.160   0.339
23999W        W87723   2.360  43.471  13.481
24000W        W87724   1.292  29.995  12.356
24001W        W87725   4.704  30.516   4.639
24002W        W87726  42.288  13.640  12.934
24003W        W87727   3.263   8.252   3.718
24004W        W87728  18.248  35.455  13.815
24005W        W87729   3.339  11.295   4.174
24006W        W87730  19.571  20.130   2.224
24007W        W87731  40.933  34.583   5.791
24008W        W87732  21.218  25.635   0.464
24009W        W87733  39.913   1.474  11.870
24010W        W87734  27.992  36.076  11.493
24011W        W87735  26.053  44.800  13.948
24012W        W87736  16.612   3.884   1.293
24013W        W87737  36.088  34.958  14.496
24014W        W87738  20.701   8.759   4.292
24015W        W87739  35.941  40.370  13.849
24016W        W87740  39.496  26.464   3.304
24017W        W87741  35.368   7.848   1.845
24018W        W87742  42.305  24.165   5.776
24019W        W87743  14.185   4.391  14.838
24020W        W87744  26.550  20.553  12.842
24021W        W87745  12.683  37.969  11.944
24022W        W87746   7.375  32.907  12.090
24023W        W87747  39.992  28.135   4.626
24024W        W87748  19.534  31.416   3.150
24025W        W87749   0.947  14.792  11.482
24026W        W87750  19.732  39.895   5.135
24027W        W87751  43.446  31.591  12.006
24028W        W87752   5.246  26.694  12.347
24029W        W87753  24.480   7.391   2.324
24030W        W87754  43.366  32.473  13.024
24031W        W87755  37.914  17.227  12.547
24032W        W87756   4.836  14.596   4.305
24033W        W87757  12.305  43.364   2.812
24034W        W87758  30.057  12.140   1.705
24035W        W87759  18.609   7.794  12.872
24036W        W87760  19.633  12.234   9.636
24037W        W87761  37.422   4.376   3.678
24038W        W87762   8.294  20.046   1.812
24039W        W87763  13.648   9.275   3.829
24040W        W87764   0.395   2.756   3.290
24041W        W87765  34.534  15.127  14.358
24042W        W87766  36.463  34.556   2.308
24043W        W87767  22.056  41.516  11.579
24044W        W87768  37.434  27.180   0.436
24045W        W87769  38.474  36.542  14.861
24046W        W87770  20.236  10.793  14.435
24047W        W87771  13.751  15.776   2.705
24048W        W87772  43.378  25.971  11.992
24049W        W87773  11.760  12.741  12.013
24050W        W87774  39.014  35.502   3.356
24051W        W87775  29.025  13.604  13.324
24052W        W87776  25.574  40.903   2.676
24053W        W87777  44.829   6.338   0.478
24054W        W87778  34.542   8.813  14.975
24055W        W87779   0.259  41.838   0.344
24056W        W87780  30.107   5.220   2.776
24057W        W87781  31.574  36.421  11.537
24058W        W87782  10.637  10.716   4.329
24059W        W87783  21.575  25.471   3.629
24060W        W87784  10.348  29.481  14.818
24061W        W87785  14.643   7.311   4.244
24062W        W87786  25.079  21.025  11.986
24063W        W87787  24.673  35.033   1.398
24064W        W87788   1.252  14.729  14.333
24065W        W87789  39.348  13.640   2.884
24066W        W87790   0.760  42.959  11.452
24067W        W87791  41.018  32.964  12.006
24068W        W87792  12.760  30.977   3.767
24069W        W87793  30.095  25.562   0.791
24070W        W87794  10.365   3.311   4.613
24071W        W87795   5.772  15.656  12.996
24072W        W87796  13.717   9.213  12.954
24073W        W87797  19.233   1.739  13.909
24074W        W87798  23.692  42.924   0.942
24075W        W87799   2.456  35.869   0.779
24076W        W87800  17.692   7.763  12.965
24077W        W87801  32.108  23.698  11.391
24078W        W87802  40.431   0.907  13.019
24079W        W87803  29.167  37.495  12.380
24080W        W87804  33.054  20.239   1.829
24081W        W87805  24.577  39.878  11.090
24082W        W87806  28.504   7.265   4.281
24083W        W87807   6.814  22.575   1.218
24084W        W87808   4.445  34.608   3.197
24085W        W87809  21.041  37.400  13.474
24086W        W87810   9.797  39.873   0.365
24087W        W87811  13.741  39.051  13.400
24088W        W87812  16.594  24.551   4.725
24089W        W87813   7.803   2.943   1.821
24090W        W87814  32.094  39.908   4.681
24091W        W87815  37.533  42.525  10.528
24092W        W87816  20.176  25.000   0.905
24093W        W87817  29.093   3.915  14.402
24094W        W87818  38.039  41.488  11.121
24095W        W87819  34.038  26.007   3.785
24096W        W87820  20.258  14.780  14.509
24097W        W87821   3.825   9.688   0.437
24098W        W87822  14.185  36.352  12.939
24099W        W87823  22.052  22.049  12.980
24100W        W87824  40.508  28.641  10.633
24101W        W87825  44.470  31.078   0.473
24102W        W87826  41.972  28.434   3.726
24103W        W87827  26.685  36.447  14.914
24104W        W87828  12.832  33.385   2.842
24105W        W87829  36.473  15.176  13.884
24106W        W87830  21.570  23.079  14.481
24107W        W87831  21.512  35.484  12.862
24108W        W87832  15.702  29.574   4.158
24109W        W87833  12.298  12.749  13.979
24110W        W87834   0.431  41.863  10.620
24111W        W87835  38.443  16.778   4.804
24112W        W87836  20.556  28.132  12.888
24113W        W87837  14.245  36.591   4.138
24114W        W87838  20.198   5.799  11.568
24115W        W87839  25.020   5.309  12.027
24116W        W87840  38.349  43.405   1.804
24117W        W87841  23.168   3.955   1.224
24118W        W87842  35.073   9.178   4.672
24119W        W87843  13.787  16.658   2.259
24120W        W87844  28.582  27.940  12.873
24121W        W87845  23.494  13.617   4.244
24122W        W87846  23.665  17.211  11.060
24123W        W87847  27.121  24.520   2.414
24124W        W87848  41.797  34.604   4.678
24125W        W87849  19.705  33.465   3.817
24126W        W87850  16.784  43.398   1.774
24127W        W87851   3.755  36.087   1.930
24128W        W87852  30.989  14.794  12.522
24129W        W87853   0.745  28.625   1.321
24130W        W87854  26.669  40.814   1.738
24131W        W87855  29.938  29.972   4.802
24132W        W87856  11.365  12.853  12.058
24133W        W87857  35.437  10.823   0.787
24134W        W87858  21.618  31.069   0.910
24135W        W87859  21.574  36.933   2.332
24136W        W87860  33.434  41.532   4.676
24137W        W87861  29.649   1.249   2.319
24138W        W87862   6.250  35.070   5.189
24139W        W87863  26.620  13.240   2.293
24140W        W87864  28.128  40.994   2.224
24141W        W87865  20.583  15.252   0.308
24142W        W87866  19.263   3.750   0.455
24143W        W87867   6.920  27.169  13.318
24144W        W87868   8.716   4.818  12.844
24145W        W87869  37.389  10.860  10.482
24146W        W87870   7.907  19.685  12.579
24147W        W87871   7.816  38.434   2.208
24148W        W87872  39.018  24.183  10.897
24149W        W87873  21.024  39.879   1.349
24150W        W87874  42.994  28.012  13.428
24151W        W87875  34.116  39.065   0.299
24152W        W87876  38.937  16.778   0.244
24153W        W87877  17.127  32.093   3.291
24154W        W87878  32.491   8.821  13.328
24155W        W87879  44.283  39.963   4.725
24156W        W87880  43.515   7.405   0.248
24157W        W87881  33.573  10.723  10.549
24158W        W87882  23.632   2.249   3.864
24159W        W87883  10.848  20.668   1.882
24160W        W87884  17.171  14.603  13.972
24161W        W87885  36.539  26.019   4.673
24162W        W87886  20.715   3.319  10.542
24163W        W87887  18.761   1.304  14.965
24164W        W87888   8.174  21.091   2.870
24165W        W87889   9.748   8.173   0.456
24166W        W87890  12.306  42.896  12.446
24167W        W87891   9.838  29.068   3.153
24168W        W87892  28.479  11.239   0.308
24169W        W87893  29.135   1.394   0.874
24170W        W87894  12.214   0.286   0.874
24171W        W87895  31.488  40.982  14.028
24172W        W87896  27.035  11.280   0.914
24173W        W87897  14.297  38.415   3.242
24174W        W87898  29.663  36.355   0.455
24175W        W87899   2.814  20.585  14.462
24176W        W87900   5.923  32.109   1.264
24177W        W87901  20.602   3.770  13.366
24178W        W87902   9.386  13.201  13.954
24179W        W87903   2.803  22.069  13.521
24180W        W87904  29.542  19.086   4.125
24181W        W87905   4.411  36.072  12.370
24182W        W87906  38.353  28.070   2.227
24183W        W87907  24.981  34.019   0.440
24184W        W87908  21.680  40.489  11.088
24185W        W87909  19.577  29.575   2.231
24186W        W87910   9.283  38.055  11.416
24187W        W87911  18.789  11.710   1.419
24188W        W87912  33.088  12.714   2.729
24189W        W87913  14.760  34.372  11.027
24190W        W87914  16.578  22.072   2.852
24191W        W87915  22.664  14.661   3.722
24192W        W87916  22.219  28.657   0.294
24193W        W87917  35.545  17.602   1.812
24194W        W87918   7.844  36.087   9.922
24195W        W87919  10.835  31.066  11.009
24196W        W87920  27.501  41.363   4.664
24197W        W87921   6.426   7.790   4.268
24198W        W87922   9.737   9.823  11.060
24199W        W87923  22.644  16.138   3.241
24200W        W87924  32.399   4.826  11.869
24201W        W87925   1.476  23.127  14.984
24202W        W87926  15.215   5.705  12.381
24203W        W87927  38.417  18.188  14.437
24204W        W87928  20.170   3.783  11.378
24205W        W87929  10.721   3.347  12.839
24206W        W87930  41.832  10.320   0.825
24207W        W87931  30.512  34.474   3.732
24208W        W87932  29.468  24.681  14.022
24209W        W87933  44.497  32.026   4.612
24210W        W87934  29.026  15.778   2.785
24211W        W87935  39.394  40.839  10.145
24212W        W87936  19.633  28.501  14.943
24213W        W87937  35.470  11.150   3.216
24214W        W87938  30.427  26.495  14.013
24215W        W87939  17.118  10.247  12.070
24216W        W87940  14.181  35.101  13.927
24217W        W87941   8.697  28.085   4.643
24218W        W87942  12.159  27.190   2.212
24219W        W87943   5.711  39.323   0.952
24220W        W87944  17.304  20.747  11.378
24221W        W87945  20.693  29.994   4.313
24222W        W87946   8.791  16.786   3.229
24223W        W87947  39.471   0.379  14.844
24224W        W87948  42.977  38.974   4.838
24225W        W87949  43.480  23.986   4.704
24226W        W87950  14.136  32.444  10.601
24227W        W87951  40.499   4.282   4.607
24228W        W87952  31.580  41.847   2.823
24229W        W87953  11.167  41.482  12.465
24230W        W87954  10.776  30.470  10.516
24231W        W87955  23.228  42.029  10.507
24232W        W87956  17.767   7.769  11.424
24233W        W87957  29.153  37.501  11.889
24234W        W87958  38.954  31.485   4.640
24235W        W87959   2.754  36.564   0.912
24236W        W87960  28.174  34.042   1.918
24237W        W87961  37.916   4.447   2.713
24238W        W87962  35.983  13.254  11.982
24239W        W87963  26.606  39.916   3.352
24240W        W87964  17.095  42.996   4.832
24241W        W87965  34.504   8.398   4.304
24242W        W87966  34.065   6.289   2.240
24243W        W87967  44.876  37.461  11.473
24244W        W87968  32.987   0.801   1.707
24245W        W87969  33.983   6.356   2.681
24246W        W87970  44.370  43.301   1.331
24247W        W87971   3.943  22.528   4.182
24248W        W87972  13.625  32.447  14.291
24249W        W87973  30.926  15.122  11.592
24250W        W87974   0.783  17.115  11.417
24251W        W87975  18.122   3.219   4.272
24252W        W87976  37.997  40.921  14.854
24253W        W87977  31.635  25.687  14.997
24254W        W87978  11.339  11.320  12.090
24255W        W87979  19.250   6.708  12.487
24256W        W87980   3.764  41.949  12.417
24257W        W87981  17.573  28.140  13.496
24258W        W87982   6.229  30.909   0.965
24259W        W87983  29.967  43.805  11.037
24260W        W87984  33.993  40.461  12.845
24261W        W87985  32.490  18.569  12.417
24262W        W87986  31.151  44.464   0.383
24263W        W87987  22.680  18.285   3.165
24264W        W87988  31.145  11.332  14.512
24265W        W87989  28.032   2.449  14.344
24266W        W87990  21.682  39.894  11.061
24267W        W87991  30.592  20.049  14.352
24268W        W87992  15.100  23.113  13.016
24269W        W87993  25.547  16.750   2.802
24270W        W87994  28.608   4.232  12.437
24271W        W87995  10.341  18.744   5.181
24272W        W87996  28.160  28.989  13.885
24273W        W87997  16.624   2.732   4.630
24274W        W87998  37.043  11.336   1.385
24275W        W87999  30.546  10.278  12.947
24276W        W88000  29.498  30.113  12.036
24277W        W88001  25.552  10.139   2.813
24278W        W88002  12.817  16.221  12.006
24279W        W88003  23.492   3.755  13.876
24280W        W88004  39.553   6.191  14.778
24281W        W88005  21.741  33.483   0.807
24282W        W88006   7.346  34.578  12.095
24283W        W88007  29.933  25.207   2.310
24284W        W88008  37.871   1.252  11.432
24285W        W88009  26.699  28.535  11.392
24286W        W88010   1.887  32.485  11.000
24287W        W88011  44.425  42.962  12.424
24288W        W88012   4.805   6.256   0.418
24289W        W88013  31.515  34.527  10.510
24290W        W88014  16.284  29.603  10.482
24291W        W88015  10.874  14.271  12.538
24292W        W88016  29.597  26.175  13.852
24293W        W88017  13.801  19.223   4.255
24294W        W88018  36.427  31.964   1.828
24295W        W88019   6.756   1.889   4.616
24296W        W88020  41.993   1.931  12.580
24297W        W88021   5.325  44.467  12.052
24298W        W88022  10.734  33.024   1.788
24299W        W88023   6.735  20.114  10.888
24300W        W88024  40.326  30.618   9.988
24301W        W88025  11.659   4.431  13.909
24302W        W88026  24.226   9.783  12.976
24303W        W88027  30.526  41.331  10.900
24304W        W88028  21.244   6.190   0.803
24305W        W88029   2.777  30.996  11.028
24306W        W88030  19.590  38.000   3.848
24307W        W88031  42.435  34.019   4.697
24308W        W88032   5.743  25.562   2.672
24309W        W88033  35.039  43.464   2.374
24310W        W88034  37.990   7.695   3.200
24311W        W88035   9.150  15.302   0.764
24312W        W88036  16.079  34.981   3.724
24313W        W88037  41.930  40.542  10.160
24314W        W88038  15.595  31.553   1.401
24315W        W88039  23.169  15.252   4.763
24316W        W88040  22.031  25.039  13.035
24317W        W88041   3.895  24.582  11.553
24318W        W88042  22.661  29.506   1.277
24319W        W88043  12.145   6.234   0.793
24320W        W88044  36.936  34.887  10.932
24321W        W88045  32.966  36.370   1.296
24322W        W88046   4.423  10.372   1.383
24323W        W88047  30.986  37.929  12.344
24324W        W88048  35.493  12.157   3.160
24325W        W88049  26.011  30.014   4.330
24326W        W88050  25.489  33.966  14.024
24327W        W88051   0.812  20.656   1.770
24328W        W88052  26.542  42.324  12.505
24329W        W88053  17.126  13.246   2.223
24330W        W88054   4.212  30.539  12.886
24331W        W88055  12.255  41.378  12.489
24332W        W88056  32.050  28.631   2.276
24333W        W88057  18.222  25.492  13.997
24334W        W88058   7.715   1.802  10.615
24335W        W88059   9.335   1.332  13.024
24336W        W88060   4.248  10.244   4.283
24337W        W88061  35.063   8.716   3.704
24338W        W88062  31.008  24.998  11.937
24339W        W88063  15.717  39.426  13.336
24340W        W88064  33.487   4.298  14.008
24341W        W88065  15.598  28.140   0.916
24342W        W88066  31.634  37.075  12.439
24343W        W88067  12.163  22.568  12.553
24344W        W88068  25.628  25.218   4.208
24345W        W88069  29.145   5.771   3.683
24346W        W88070   9.292  24.131  11.105
24347W        W88071  43.377   6.308   4.168
24348W        W88072  36.420  37.400   2.664
24349W        W88073  38.519   0.290  11.610
24350W        W88074  35.979  33.586  11.115
24351W        W88075   9.831  16.663   0.857
24352W        W88076  11.326  32.000  12.492
24353W        W88077  10.726  44.856   2.778
24354W        W88078  23.997  30.157   1.444
24355W        W88079  40.546  32.042   2.223
24356W        W88080  43.879  40.014   4.197
24357W        W88081  17.638  24.642   4.271
24358W        W88082  31.531  10.318   2.698
24359W        W88083  43.426  16.218   4.256
24360W        W88084   9.369  32.063  11.461
24361W        W88085  21.743   4.850  13.060
24362W        W88086  22.149  12.310   3.281
24363W        W88087  21.037  15.258  12.459
24364W        W88088   0.813  14.212  14.859
24365W        W88089  28.468  36.370  14.362
24366W        W88090  28.969  19.050   3.262
24367W        W88091  15.590   6.216   4.156
24368W        W88092   4.873  40.544  13.460
24369W        W88093  18.057  20.185   0.749
24370W        W88094  22.594   5.900   4.646
24371W        W88095  34.443   8.188   2.185
24372W        W88096  44.979  22.537  10.567
24373W        W88097  21.258   3.363   2.290
24374W        W88098   0.445  14.254  10.929
24375W        W88099  43.433   6.191   2.885
24376W        W88100  29.560  35.946   5.322
24377W        W88101  26.490  23.695   3.222
24378W        W88102  31.043  34.925  12.465
24379W        W88103  40.914  30.995   4.165
24380W        W88104  39.365  19.196   2.309
24381W        W88105  11.179   8.844   0.458
24382W        W88106  33.970  37.556  10.537
24383W        W88107  37.525  31.978   1.792
24384W        W88108   0.291  44.283  11.029
24385W        W88109  29.557  15.152  10.982
24386W        W88110  42.327  31.925  11.093
24387W        W88111  43.849  27.592  13.859
24388W        W88112   5.389  37.462   2.350
24389W        W88113  23.672  24.993  12.086
24390W        W88114   6.206  18.784  11.475
24391W        W88115   7.797   0.482   0.933
24392W        W88116   0.779   3.828   2.698
24393W        W88117  23.623  41.832   0.937
24394W        W88118   5.725  11.809   0.396
24395W        W88119   8.801  15.782  13.023
24396W        W88120  44.382  40.818  11.123
24397W        W88121  19.547  39.548  11.545
24398W        W88122  31.435  16.287   0.264
24399W        W88123  35.563  13.743   2.405
24400W        W88124  20.066  24.495   0.261
24401W        W88125   4.742  27.647  13.415
24402W        W88126  30.569  23.139  13.524
24403W        W88127  17.715  39.914  10.534
24404W        W88128  13.330  34.476  12.484
24405W        W88129  41.805  25.187  10.575
24406W        W88130  44.330  15.252  12.020
24407W        W88131  39.511  17.564   3.353
24408W        W88132   8.663  36.518  12.502
24409W        W88133  37.542  10.312   1.442
24410W        W88134  28.170  15.126  12.042
24411W        W88135  15.249   9.757  14.925
24412W        W88136   7.355   0.851  11.887
24413W        W88137  35.052  30.603   1.430
24414W        W88138  19.169  29.018  11.988
24415W        W88139  37.838   8.343  12.475
24416W        W88140  34.882  41.899  10.887
24417W        W88141  22.202   6.740   1.395
24418W        W88142  38.847  28.629   1.353
24419W        W88143  37.980   4.871  10.522
24420W        W88144  12.777  15.152  11.922
24421W        W88145  16.298  37.860   1.850
24422W        W88146  32.975  17.125   1.743
24423W        W88147  43.824  18.732   1.414
24424W        W88148  34.484  43.953  13.525
24425W        W88149  39.020  35.369  13.038
24426W        W88150   2.468  33.393  10.903
24427W        W88151  36.944  21.234  13.008
24428W        W88152  32.437   9.776   0.295
24429W        W88153  22.217  30.082   0.414
24430W        W88154   7.874  31.495   1.902
24431W        W88155   0.742  39.391   1.446
24432W        W88156  21.541  36.022  11.036
24433W        W88157  15.281  16.767   1.227
24434W        W88158  16.706  40.502   0.965
24435W        W88159   1.811   8.883  10.554
24436W        W88160  41.013  39.458   3.719
24437W        W88161  23.591   2.383   4.645
24438W        W88162  41.965  13.741   1.840
24439W        W88163  30.109  26.109   1.439
24440W        W88164  13.128  11.705   4.690
24441W        W88165  39.453  36.009  13.436
24442W        W88166  28.486  35.933   3.241
24443W        W88167  11.193   1.948  11.415
24444W        W88168   8.875   5.867   2.791
24445W        W88169  39.397  16.172   0.886
24446W        W88170  24.483  22.537   2.761
24447W        W88171  44.862  33.123   4.674
24448W        W88172  11.164   8.326  11.603
24449W        W88173   0.931  21.129   9.937
24450W        W88174   1.293  20.177  12.965
24451W        W88175  13.625   4.853   1.697
24452W        W88176  31.925   1.786   4.659
24453W        W88177   4.284   4.912   1.928
24454W        W88178  35.415  22.172  13.381
24455W        W88179   1.438   1.857   4.290
24456W        W88180  31.630  37.085   2.887
24457W        W88181  25.986   1.759  10.998
24458W        W88182   1.298   2.827   3.671
24459W        W88183  32.126  34.495  14.293
24460W        W88184  30.598  10.356  13.963
24461W        W88185  30.050   2.963  14.476
24462W        W88186  22.529  33.008   4.221
24463W        W88187  17.689  32.584  12.926
24464W        W88188  21.206  41.862  11.974
24465W        W88189  23.510  17.249   0.394
24466W        W88190  24.590  40.475  14.453
24467W        W88191  14.117   9.803   3.836
24468W        W88192  16.288  19.132  13.471
24469W        W88193   7.871  22.650  11.968
24470W        W88194   0.251  34.939  14.902
24471W        W88195  23.047  33.078  10.985
24472W        W88196   8.348  34.887   3.154
24473W        W88197   6.227  15.100  14.940
24474W        W88198  44.968  16.787  11.610
24475W        W88199  24.667  18.228  11.976
24476W        W88200  15.257  27.534  12.450
24477W        W88201  36.955   1.782   3.802
24478W        W88202  23.047  19.672   4.713
24479W        W88203  19.115   3.429   4.219
24480W        W88204  29.547   7.297   1.890
24481W        W88205  11.260   4.262  10.893
24482W        W88206  15.589  32.974   2.774
24483W        W88207   0.480   4.920  11.494
24484W        W88208   1.349  15.790  11.496
24485W        W88209  39.939  25.000  11.080
24486W        W88210  27.469   7.761   2.216
24487W        W88211  16.774  14.223  14.917
24488W        W88212   4.328  25.073   0.906
24489W        W88213   5.712  40.360   3.757
24490W        W88214   2.380  22.552   4.301
24491W        W88215   4.873   7.890  12.395
24492W        W88216  13.266  35.042  11.530
24493W        W88217   0.284  43.401  13.839
24494W        W88218  10.713   9.378   0.315
24495W        W88219  23.187   9.211   0.826
24496W        W88220  30.420  31.525  12.434
24497W        W88221  11.184  16.207   1.306
24498W        W88222  24.124  37.948   2.862
24499W        W88223  13.269  39.444  14.422
24500W        W88224  22.045  11.364  14.500
24501W        W88225  14.707   4.306   1.834
24502W        W88226  22.705  20.734   0.336
24503W        W88227  13.680  27.606   4.762
24504W        W88228  11.762  18.201  14.802
24505W        W88229  44.344  37.397  11.454
24506W        W88230  39.515  24.680   0.779
24507W        W88231  36.512  25.521   1.370
24508W        W88232  27.967   4.747  11.961
24509W        W88233   7.285  20.034   3.179
24510W        W88234  14.778  25.969  10.603
24511W        W88235  39.030  18.264   0.289
24512W        W88236   5.435  19.230   4.130
24513W        W88237  31.529  44.954  14.026
24514W        W88238  28.616   0.392   2.890
24515W        W88239   4.797  28.068   4.779
24516W        W88240  38.849   5.348   0.800
24517W        W88241  19.607  36.976  13.370
24518W        W88242  37.928  20.184   4.164
24519W        W88243  18.162   9.272  12.832
24520W        W88244   8.819  33.489   4.781
24521W        W88245   5.889  10.871   3.384
24522W        W88246  21.127   7.832   0.952
24523W        W88247  30.994   3.942   1.765
24524W        W88248  41.036   8.289  11.114
24525W        W88249  12.826  43.313  10.474
24526W        W88250  43.813  18.057   0.451
24527W        W88251  44.319  21.692   4.737
24528W        W88252  39.850  31.954  13.994
24529W        W88253  30.942  19.068  13.330
24530W        W88254  35.017  16.625  12.371
24531W        W88255  14.792  22.193   4.201
24532W        W88256   4.429  24.184  11.938
24533W        W88257  13.839  34.116  13.416
24534W        W88258  38.482  28.543  10.916
24535W        W88259   7.809  38.888   4.694
24536W        W88260   9.329   6.736   3.740
24537W        W88261  13.166   2.811   0.286
24538W        W88262  44.984  11.335  10.418
24539W        W88263   6.677  33.040  13.429
24540W        W88264  27.585  43.312  13.916
24541W        W88265  14.674  28.648   3.332
24542W        W88266  29.945  36.841  11.930
24543W        W88267  11.246  10.809   0.819
24544W        W88268  37.004   6.892  10.472
24545W        W88269  12.734   3.840   0.361
24546W        W88270  25.130  30.921   2.779
24547W        W88271  35.585   6.418  12.498
24548W        W88272  41.973  30.439   4.210
24549W        W88273   9.314   3.916  11.896
24550W        W88274  24.491  25.183  14.333
24551W        W88275   0.849   7.697  13.062
24552W        W88276   2.936  40.911  12.424
24553W        W88277   6.280  43.289  11.873
24554W        W88278  36.488  42.959  14.514
24555W        W88279   8.272  22.054   2.792
24556W        W88280  19.145  33.127   0.346
24557W        W88281  10.293  34.400  10.905
24558W        W88282  28.182  10.167  12.432
24559W        W88283   5.317   6.334  14.432
24560W        W88284  25.127  36.004   0.734
24561W        W88285  25.653  24.059  14.759
24562W        W88286  44.456  21.517   2.892
24563W        W88287  35.872  34.965  13.441
24564W        W88288   8.169  24.090   0.838
24565W        W88289  37.582  27.666   4.251
24566W        W88290  23.104  26.605  14.006
24567W        W88291  12.294   8.170   2.727
24568W        W88292  34.933  36.887   4.713
24569W        W88293  39.959  10.257  13.009
24570W        W88294   0.849   2.293  14.020
24571W        W88295  32.452  22.508  14.800
24572W        W88296  26.524  15.598   2.754
24573W        W88297   6.404  35.952  10.586
24574W        W88298  25.681  13.240  11.400
24575W        W88299   8.662  10.795   1.338
24576W        W88300  27.166  28.460  10.456
24577W        W88301  28.597  39.499  12.996
24578W        W88302  40.838  33.018  13.937
24579W        W88303  27.046  34.537  14.485
24580W        W88304  44.421  14.186  11.995
24581W        W88305  17.691  31.440   3.154
24582W        W88306  44.430   3.411   4.217
24583W        W88307  21.109  27.668   4.776
24584W        W88308   9.882  23.164   2.193
24585W        W88309  18.076  41.510   1.726
24586W        W88310  32.584  43.431  12.486
24587W        W88311  25.618   7.904   5.202
24588W        W88312  23.535  25.047  11.560
24589W        W88313  16.117   9.716  13.876
24590W        W88314  19.556  13.283   5.201
24591W        W88315   4.936   6.771  11.594
24592W        W88316  14.289  31.061   3.199
24593W        W88317  40.532  23.074  11.487
24594W        W88318  34.473  20.550   0.468
24595W        W88319  11.141  30.455   3.339
24596W        W88320  31.965  15.669   4.804
24597W        W88321   5.318  37.462  12.830
24598W        W88322   5.311   8.793   2.772
24599W        W88323  35.469  19.746  12.553
24600W        W88324   8.226  33.430  10.899
24601W        W88325  26.144   5.305  10.996
24602W        W88326  20.618  12.622   1.353
24603W        W88327  23.051  16.195  12.473
24604W        W88328  37.400  38.407   1.277
24605W        W88329   9.371  10.809  11.441
24606W        W88330   3.868  40.385  11.559
24607W        W88331  15.804  34.026   0.463
24608W        W88332  16.309  28.447   3.729
24609W        W88333  30.479  33.895  13.940
24610W        W88334  22.538  16.206   4.726
24611W        W88335   9.306   7.417   5.252
24612W        W88336  40.483  36.446   2.239
24613W        W88337   1.394  15.596  12.929
24614W        W88338  36.073  24.015   0.439
24615W        W88339   3.846  35.390   1.294
24616W        W88340  31.574  24.620  12.951
24617W        W88341  25.998   8.282   2.284
24618W        W88342  39.980  13.325  13.309
24619W        W88343  31.476  17.793   0.398
24620W        W88344  29.928  17.599  10.942
24621W        W88345   0.825   3.780  14.971
24622W        W88346  18.556   8.262   0.392
24623W        W88347  27.548  10.665  13.416
24624W        W88348   8.743  36.349   5.197
24625W        W88349  25.974  32.503  11.558
24626W        W88350   1.418   0.356  14.385
24627W        W88351  30.486   9.363   2.370
24628W        W88352   3.411   8.717  13.935
24629W        W88353  14.106   9.293   3.859
24630W        W88354  37.364   5.858   1.811
24631W        W88355  31.086  27.607   4.348
24632W        W88356  43.825  15.323   4.264
24633W        W88357   8.279  21.043  11.545
24634W        W88358  26.639  26.510  10.116
24635W        W88359   5.710   4.436  11.429
24636W        W88360  15.653  30.649  12.576
24637W        W88361  38.965  10.197  13.914
24638W        W88362  22.747  39.930   3.759
24639W        W88363  32.632  24.487   1.327
24640W        W88364  42.433  18.721  13.013
24641W        W88365  42.445  17.165  14.400
24642W        W88366  33.613  25.166   4.705
24643W        W88367   9.754  38.424   1.812
24644W        W88368   8.879  32.608   4.348
24645W        W88369  26.972  34.881  12.904
24646W        W88370  16.208   4.342  10.098
24647W        W88371  27.654  12.171   1.783
24648W        W88372  29.430   9.166  11.011
24649W        W88373  18.053   6.719  11.523
24650W        W88374  26.173  34.500  10.573
24651W        W88375  22.142  18.150   0.331
24652W        W88376   2.465  13.291  14.004
24653W        W88377  18.609   4.884  10.138
24654W        W88378   7.754  37.573  11.440
24655W        W88379  15.720  16.688   1.789
24656W        W88380   9.176  29.949  13.464
24657W        W88381  26.674  32.103   2.275
24658W        W88382  14.711   4.358   2.306
24659W        W88383  15.672   8.721  11.579
24660W        W88384  29.559  20.534   2.223
24661W        W88385  17.700  24.019   2.850
24662W        W88386  35.057  34.419  11.453
24663W        W88387   3.273   5.291   3.383
24664W        W88388  19.669  41.871  14.812
24665W        W88389  43.764  24.717   9.958
24666W        W88390  10.362  10.693  10.942
24667W        W88391  14.105  31.612   0.902
24668W        W88392  41.025  26.142  10.526
24669W        W88393  37.481  27.099  14.824
24670W        W88394  19.109  20.573   3.720
24671W        W88395  28.142  35.923   4.826
24672W        W88396   6.722  19.745  12.940
24673W        W88397  31.965  20.260  11.977
24674W        W88398   1.308   9.151   0.903
24675W        W88399  21.610   2.821   1.898
24676W        W88400  42.346   9.197  10.950
24677W        W88401  22.076  44.994   4.667
24678W        W88402   6.820  43.817   4.693
24679W        W88403  38.991   3.459   0.354
24680W        W88404  38.980  21.671  13.445
24681W        W88405  40.538   3.325  14.456
24682W        W88406  38.500  41.873  12.945
24683W        W88407  22.018  38.003   5.792
24684W        W88408  28.121  18.636   0.886
24685W        W88409   5.792  35.096  11.894
24686W        W88410  41.344  21.549  13.984
24687W        W88411  41.325  20.686  11.076
24688W        W88412  26.136  31.598  11.467
24689W        W88413  29.491  35.387   4.288
24690W        W88414  18.214  30.635  11.888
24691W        W88415  29.665   2.251   3.740
24692W        W88416  42.962  25.140  14.830
24693W        W88417   5.902   3.295   0.772
24694W        W88418  38.479  41.410  14.511
24695W        W88419   9.661  15.099   3.270
24696W        W88420  43.284  44.311  11.959
24697W        W88421  34.608  23.085   0.849
24698W        W88422   3.270  24.566  12.898
24699W        W88423  25.095  34.873   2.312
24700W        W88424  40.032   2.788  11.427
24701W        W88425  33.970   7.680  14.002
24702W        W88426  33.995  14.613  10.888
24703W        W88427  12.823  38.353   4.118
24704W        W88428  24.596  22.093   3.735
24705W        W88429  29.112  28.162   2.297
24706W        W88430  13.252  38.516  13.450
24707W        W88431  30.441   4.333   4.677
24708W        W88432  22.090  19.680   0.440
24709W        W88433   1.752  17.594   4.634
24710W        W88434   8.406   7.841  13.489
24711W        W88435   6.229   6.389  12.048
24712W        W88436  40.044  11.137  14.844
24713W        W88437  39.062  43.957   1.343
24714W        W88438  40.979  28.445   4.229
24715W        W88439   3.435  39.442   2.407
24716W        W88440   5.792  22.030   4.832
24717W        W88441  29.568  15.807   0.263
24718W        W88442  29.932  10.329   2.330
24719W        W88443  26.137  30.658   9.975
24720W        W88444  42.915  33.956  13.030
24721W        W88445  30.649  37.574  11.601
24722W        W88446  44.960  36.096  10.483
24723W        W88447  27.514  18.118   3.366
24724W        W88448  12.352  17.284  11.393
24725W        W88449  34.447   3.855   1.705
24726W        W88450  22.127  25.573  11.481
24727W        W88451  16.579  24.218   3.221
24728W        W88452  28.529   0.826   2.669
24729W        W88453  11.196  20.604  12.000
24730W        W88454   2.848  23.199   4.165
24731W        W88455  39.878   6.839  14.770
24732W        W88456  15.104  36.846  12.000
24733W        W88457  38.555   2.770   0.293
24734W        W88458  10.823  35.409   3.765
24735W        W88459   9.699  14.219  12.522
24736W        W88460  37.932  11.249  14.782
24737W        W88461  36.583   2.417   4.814
24738W        W88462  15.758  27.645  11.894
24739W        W88463  26.193  22.024  13.985
24740W        W88464  25.982  24.518  11.101
24741W        W88465  33.884   4.255  13.504
24742W        W88466  36.995  11.207   2.217
24743W        W88467  23.016   9.875  13.875
24744W        W88468   3.415  37.038   0.917
24745W        W88469   7.667   0.255  14.864
24746W        W88470  38.545  25.966  14.833
24747W        W88471  19.065   3.222   2.328
24748W        W88472  12.672  10.790   3.845
24749W        W88473   3.802   9.156  14.784
24750W        W88474  16.788   8.266  13.471
24751W        W88475  39.442  18.587  11.598
24752W        W88476  21.119   1.268  13.466
24753W        W88477  22.711  42.896  13.528
24754W        W88478  22.174  27.951   0.295
24755W        W88479  10.382  41.836  10.485
24756W        W88480  24.161  30.623   4.130
24757W        W88481  28.464  35.996   1.739
24758W        W88482   2.903  43.453   0.769
24759W        W88483  36.858  41.924  13.912
24760W        W88484  31.143  12.619  13.411
24761W        W88485   4.296  16.581  11.550
24762W        W88486  30.596   8.365   2.301
24763W        W88487  19.281  31.952   0.364
24764W        W88488  19.726  37.065   3.696
24765W        W88489  25.965  14.132   1.396
24766W        W88490   5.866  30.029   0.887
24767W        W88491  35.024   4.738  12.428
24768W        W88492  41.898   1.934   0.265
24769W        W88493   0.804   2.734   0.312
24770W        W88494   3.397  43.394  14.365
24771W        W88495   5.303   3.235   1.907
24772W        W88496  27.561  41.945  12.039
24773W        W88497  11.742   4.247   5.568
24774W        W88498  22.146  26.970   9.577
24775W        W88499  39.450  43.894   4.201
24776W        W88500  25.193   5.695   0.927
24777W        W88501  28.041  21.208   3.699
24778W        W88502  39.332  41.410   3.294
24779W        W88503  17.789  25.471   2.289
24780W        W88504  35.867  44.479   0.927
24781W        W88505  28.162  24.186   2.234
24782W        W88506  40.967  10.875  13.855
24783W        W88507  38.870   2.420  14.921
24784W        W88508  30.600   5.723  11.424
24785W        W88509  33.599   1.382  11.075
24786W        W88510  14.779  39.356   0.449
24787W        W88511   6.679  22.082  13.013
24788W        W88512  34.114  19.722   2.181
24789W        W88513  41.490  10.191   4.354
24790W        W88514   1.821  24.219  13.521
24791W        W88515   4.898   0.834   2.207
24792W        W88516  18.279   6.428   0.778
24793W        W88517  10.225   3.437  10.620
24794W        W88518  27.527   3.755   2.283
24795W        W88519  38.969  44.428  12.458
24796W        W88520  28.039   1.821   3.854
24797W        W88521  27.691  21.177   1.276
24798W        W88522  25.519  13.252  11.078
24799W        W88523  35.100  33.955   4.759
24800W        W88524  25.654  44.880   2.340
24801W        W88525  44.486  40.403   0.758
24802W        W88526  31.587  38.908  12.087
24803W        W88527  26.969  27.168   1.760
24804W        W88528  31.144   6.188   3.841
24805W        W88529  27.116  32.523  10.993
24806W        W88530  25.621  15.148  11.512
24807W        W88531  16.693  22.552  10.614
24808W        W88532  40.429  41.961  13.877
24809W        W88533  32.518  16.596  14.277
24810W        W88534   9.820  16.149  10.955
24811W        W88535  24.068   5.361   2.281
24812W        W88536  41.308  28.151   2.857
24813W        W88537  24.004  12.304   4.626
24814W        W88538  29.438  30.539  12.343
24815W        W88539  42.424  44.420  11.077
24816W        W88540  10.873   9.368   2.697
24817W        W88541  33.612   4.395   4.208
24818W        W88542  27.453  27.156  12.020
24819W        W88543  38.911   3.379   3.309
24820W        W88544  42.345  19.578   2.220
24821W        W88545  30.912  24.551  10.500
24822W        W88546  26.483  14.149  12.475
24823W        W88547  12.834  23.071   4.341
24824W        W88548  42.283  14.820  11.955
24825W        W88549   3.418   7.294  14.967
24826W        W88550  12.279  25.683   1.825
24827W        W88551   9.388  30.108   1.830
24828W        W88552  39.004  24.680   3.730
24829W        W88553   7.390  26.580   0.461
24830W        W88554  37.418   3.794  10.444
24831W        W88555  12.623  16.270  13.827
24832W        W88556  41.534  42.472  13.518
24833W        W88557  44.929  33.604   2.842
24834W        W88558  14.125  44.455   3.153
24835W        W88559  30.096  12.726   0.362
24836W        W88560  30.162  42.795   0.823
24837W        W88561   6.265  26.551   1.439
24838W        W88562  15.226  14.278   4.346
24839W        W88563  17.084  35.988   3.364
24840W        W88564  20.598   2.799   0.856
24841W        W88565  44.348  22.220  11.425
24842W        W88566  17.754  16.239  13.307
24843W        W88567   8.217  18.577   1.843
24844W        W88568   6.289  17.083   1.733
24845W        W88569   5.408  44.966  12.498
24846W        W88570   9.302  11.355  14.375
24847W        W88571  15.271  34.453   0.784
24848W        W88572  21.676  14.137   0.753
24849W        W88573   7.858  37.378   4.749
24850W        W88574  17.748   8.798  13.515
24851W        W88575  20.690   6.819  13.451
24852W        W88576   8.823  35.500   3.680
24853W        W88577   3.296  41.525   0.959
24854W        W88578   2.899   2.262  11.924
24855W        W88579  26.089  43.849  14.030
24856W        W88580  32.982  24.141  11.418
24857W        W88581  43.980  37.579   5.206
24858W        W88582   2.311  35.982   2.809
24859W        W88583  11.726  34.370  14.793
24860W        W88584   5.314  36.959  10.976
24861W        W88585  32.552  31.058   1.319
24862W        W88586  17.284   1.300  14.303
24863W        W88587  30.422   6.398   2.722
24864W        W88588  10.847  23.524   2.702
24865W        W88589  29.036  23.202  11.936
24866W        W88590   5.211  44.322  10.031
24867W        W88591  44.447  13.147   0.936
24868W        W88592   5.291  21.660  12.834
24869W        W88593  23.108  11.244  12.974
24870W        W88594  28.564  19.757   2.246
24871W        W88595  14.818  40.927   4.653
24872W        W88596  39.553  27.168  13.904
24873W        W88597  10.790  11.706  13.810
24874W        W88598   2.955  10.874   0.831
24875W        W88599   6.820  38.540  13.986
24876W        W88600  40.823  25.653   1.906
24877W        W88601  43.964  21.660  12.093
24878W        W88602  27.086  22.117  10.581
24879W        W88603  20.723  10.180  11.112
24880W        W88604   1.906  18.139  10.544
24881W        W88605   4.703  31.446   4.122
24882W        W88606   7.309  12.633   9.654
24883W        W88607  10.289  44.261   2.335
24884W        W88608  15.807  31.130   0.271
24885W        W88609  25.586  15.126  12.071
24886W        W88610   0.754  37.937   2.416
24887W        W88611  24.695  10.726  12.434
24888W        W88612  16.129  39.837   0.843
24889W        W88613   7.347  32.604   4.246
24890W        W88614  12.166  31.601  13.003
24891W        W88615  19.575  17.075  14.835
24892W        W88616  42.359  34.612  12.899
24893W        W88617  28.612  44.763  11.510
24894W        W88618  10.821  14.597   2.857
24895W        W88619  42.318  11.847  14.000
24896W        W88620  20.561   8.795  14.278
24897W        W88621  21.057  36.093  12.538
24898W        W88622  31.582   5.263  12.055
24899W        W88623  21.060  41.042   0.462
24900W        W88624  29.439   8.800   3.711
24901W        W88625  33.078  16.307  13.545
24902W        W88626  13.777  29.001   3.206
24903W        W88627   3.826  36.439   3.818
24904W        W88628  34.580  11.765  13.005
24905W        W88629   5.406   3.392   0.452
24906W        W88630  22.583  39.839  13.045
24907W        W88631  40.016  43.498  14.925
24908W        W88632  11.359  17.613   3.216
24909W        W88633  26.178  23.621  13.403
24910W        W88634  14.319   2.848   0.930
24911W        W88635  14.801  25.581   1.810
24912W        W88636   1.958   0.902  11.987
24913W        W88637  39.407  19.733   3.170
24914W        W88638  20.615  28.004  13.480
24915W        W88639  21.665  30.121   4.268
24916W        W88640  36.008  23.043   0.324
24917W        W88641  18.295  36.976   0.768
24918W        W88642   5.269  43.774  13.365
24919W        W88643  17.150  30.021   2.416
24920W        W88644  19.717  31.013  10.534
24921W        W88645  12.736  15.603  10.546
24922W        W88646  36.877  26.989  10.989
24923W        W88647   1.297  25.686  10.627
24924W        W88648  43.464   2.433  14.937
24925W        W88649   3.348   8.827  10.450
24926W        W88650  41.901  34.036  11.460
24927W        W88651  13.622  31.032   2.218
24928W        W88652   6.385  42.287  13.969
24929W        W88653  19.572  28.053   3.194
24930W        W88654  14.835  30.986  10.542
24931W        W88655   0.886  19.557  12.018
24932W        W88656   6.256  30.533   3.189
24933W        W88657  35.524  38.837  14.008
24934W        W88658  26.163  36.475   2.308
24935W        W88659  41.886  41.003   4.758
24936W        W88660  36.857  35.520  14.029
24937W        W88661   3.280  34.489  10.506
24938W        W88662  35.945  28.453  10.941
24939W        W88663  40.504  44.997   2.333
24940W        W88664  37.511  41.799   0.397
24941W        W88665  30.422   3.766   2.331
24942W        W88666  13.624   1.288  11.588
24943W        W88667  30.589  10.142  11.403
24944W        W88668  19.099  26.702  14.484
24945W        W88669  24.000   4.891   5.259
24946W        W88670  38.871  18.084   2.382
24947W        W88671  16.291  44.999   0.276
24948W        W88672   8.694  38.558  14.301
24949W        W88673  24.007  23.119   4.180
24950W        W88674  18.144  20.655   1.784
24951W        W88675  41.340   4.324  14.367
24952W        W88676   2.723  37.383   3.661
24953W        W88677   0.397  40.326  14.961
24954W        W88678  37.841  35.092   4.782
24955W        W88679  41.809   0.812   3.205
24956W        W88680  36.944  15.309   0.869
24957W        W88681   9.655  23.089   0.759
24958W        W88682  32.561  23.198   2.849
24959W        W88683  16.779  10.752   4.764
24960W        W88684  15.639  20.187   4.292
24961W        W88685  34.952   1.352   1.247
24962W        W88686  21.590  29.497   2.821
24963W        W88687  11.196  40.968   0.334
24964W        W88688  16.195  40.445  13.931
24965W        W88689  40.876  21.638   9.491
24966W        W88690  30.920  17.595  13.836
24967W        W88691  36.966  18.199   1.900
24968W        W88692  12.341  34.442  12.422
24969W        W88693  19.708  17.181  14.470
24970W        W88694   5.851  35.477   1.314
24971W        W88695  37.392  16.162   0.276
24972W        W88696  18.282  20.663  12.001
24973W        W88697  15.585  27.510   2.186
24974W        W88698  32.600  31.515   1.742
24975W        W88699  28.484   0.985   3.668
24976W        W88700   2.396   0.446   3.691
24977W        W88701  20.198  43.802   4.700
24978W        W88702   7.734   0.393   2.886
24979W        W88703  43.298   5.310   4.128
24980W        W88704   8.342  24.083   3.680
24981W        W88705  24.577   4.784  11.486
24982W        W88706   4.273  19.160  11.509
24983W        W88707  30.447  37.975   2.258
24984W        W88708  26.122   1.478  14.928
24985W        W88709   0.346  28.659   3.353
24986W        W88710   0.757   7.363  13.886
24987W        W88711   5.239  14.281   1.852
24988W        W88712   2.780  20.611   3.237
24989W        W88713  44.794  22.065  13.466
24990W        W88714  43.990  30.477  14.829
24991W        W88715  22.656   5.741   2.349
24992W        W88716   5.265  44.345   2.753
24993W        W88717  11.626  41.898   0.905
24994W        W88718   4.921  13.718  10.036
24995W        W88719  17.651  30.022   0.460
24996W        W88720   4.881   7.250  13.832
24997W        W88721  24.531  36.007  10.503
24998W        W88722  44.438  36.991  14.981
24999W        W88723  41.867  17.592  11.419
25000W        W88724  40.825   3.433   0.432
25001W        W88725  29.541  19.720   2.264
25002W        W88726  27.956  30.622   1.816
25003W        W88727  39.493  41.003   2.871
25004W        W88728  25.050  38.001  13.381
25005W        W88729   2.434   7.775   1.883
25006W        W88730   1.781  28.053   4.336
25007W        W88731  13.704   2.261   3.166
25008W        W88732  11.723   4.351  12.082
25009W        W88733   1.245  29.158   0.968
25010W        W88734  19.267  27.597  10.644
25011W        W88735  11.714   8.201  11.400
25012W        W88736   0.467  25.135  10.601
25013W        W88737   9.171  11.625  11.545
25014W        W88738   9.813  14.806   4.756
25015W        W88739  44.268   2.789  10.906
25016W        W88740   4.358  44.913   0.386
25017W        W88741  16.165  19.240   4.816
25018W        W88742  11.821   6.422  13.998
25019W        W88743  29.452  16.668   3.667
25020W        W88744  43.432  29.608   1.251
25021W        W88745  23.116  40.356   1.365
25022W        W88746   1.369   3.341   2.676
25023W        W88747  24.572  10.282   1.703
25024W        W88748  19.125  23.018  13.371
25025W        W88749  15.309   7.692   5.276
25026W        W88750  37.872  41.826  10.085
25027W        W88751  31.958  35.442  11.397
25028W        W88752  25.708  13.663   1.817
25029W        W88753  26.596   2.811   3.349
25030W        W88754  41.501  42.949   0.459
25031W        W88755   1.808  34.038  12.375
25032W        W88756  31.075   1.381   0.736
25033W        W88757   0.481   3.956  12.846
25034W        W88758  14.621  25.648   1.292
25035W        W88759  42.992   8.370  14.928
25036W        W88760   7.337  27.977   0.407
25037W        W88761   5.778   5.430   0.296
25038W        W88762  18.583  20.254   4.279
25039W        W88763  44.449  14.590  14.896
25040W        W88764  12.360  36.457   4.751
25041W        W88765  43.508   8.349  10.428
25042W        W88766  40.863  31.635  14.389
25043W        W88767  24.491  44.792   3.641
25044W        W88768  10.146   8.807   4.272
25045W        W88769  36.431  29.450   4.158
25046W        W88770  12.286   5.920  11.959
25047W        W88771  33.891  13.655   2.329
25048W        W88772  30.929  12.193  14.451
25049W        W88773  41.003  38.489  13.438
25050W        W88774  16.138   2.294  14.472
25051W        W88775  43.508  13.138   0.728
25052W        W88776   6.731  16.156   2.879
25053W        W88777  19.113   3.740   1.259
25054W        W88778  23.987  10.217  10.957
25055W        W88779  31.111  13.298  12.828
25056W        W88780   5.391  23.010  10.540
25057W        W88781  13.126  23.722   4.683
25058W        W88782   0.827   4.915   1.859
25059W        W88783   9.200   2.282  12.946
25060W        W88784  14.304  40.802   2.204
25061W        W88785   5.217  26.058  13.358
25062W        W88786  22.172  21.607  12.072
25063W        W88787  28.100   6.258   2.800
25064W        W88788  21.138  35.534  13.039
25065W        W88789  39.870  15.186  12.937
25066W        W88790  12.666  17.779  11.476
25067W        W88791  36.883  32.542   4.241
25068W        W88792  17.174   3.236   1.715
25069W        W88793  29.432  19.136  11.477
25070W        W88794  38.017  10.705  10.555
25071W        W88795  14.641  27.023   3.310
25072W        W88796  26.092  22.176  13.045
25073W        W88797  19.577   1.408   0.272
25074W        W88798   0.953  13.645  14.900
25075W        W88799  42.907  20.656  14.382
25076W        W88800  41.044  16.697   0.748
25077W        W88801  19.599  38.385  13.461
25078W        W88802  35.993  32.607  11.974
25079W        W88803  13.341   8.862   1.857
25080W        W88804  10.312  37.985  12.908
25081W        W88805  29.976  15.257  12.830
25082W        W88806  30.496  11.220  12.964
25083W        W88807  32.552  19.580   1.808
25084W        W88808  24.984  27.992  14.902
25085W        W88809   7.315  31.915  11.049
25086W        W88810   2.359  15.815   2.839
25087W        W88811  26.661  18.656  13.887
25088W        W88812  16.138  40.964  14.431
25089W        W88813  14.204  38.414  13.978
25090W        W88814  16.621   5.312   0.942
25091W        W88815  14.653  27.627  12.856
25092W        W88816  14.227  12.228   3.259
25093W        W88817  12.759  37.925  14.935
25094W        W88818  25.022  13.731  11.974
25095W        W88819  37.565  22.238   3.671
25096W        W88820  12.662   5.792  12.364
25097W        W88821  16.195  15.734  12.971
25098W        W88822   2.269  27.516  14.845
25099W        W88823  11.803  39.472   3.198
25100W        W88824   3.461   0.254   2.891
25101W        W88825  16.247  33.526  14.328
25102W        W88826  11.796  14.816  11.976
25103W        W88827  16.164  26.194  13.357
25104W        W88828   1.416  37.913   3.191
25105W        W88829  36.360   9.807  12.374
25106W        W88830  37.348  22.605   1.795
25107W        W88831   9.389  27.185   0.368
25108W        W88832  26.189  30.907   0.305
25109W        W88833  20.692  38.325   0.858
25110W        W88834  34.906  16.708  11.464
25111W        W88835  16.316  20.608  13.017
25112W        W88836  38.507   2.299   4.677
25113W        W88837  33.404  25.579   4.705
25114W        W88838  29.975   8.406  11.606
25115W        W88839  22.193  11.711   0.805
25116W        W88840   5.833  20.673   1.922
25117W        W88841  35.941  18.218   2.218
25118W        W88842  31.948  43.349   0.943
25119W        W88843  44.828  16.278  11.424
25120W        W88844  39.857   3.297   1.815
25121W        W88845   2.354  32.900  13.880
25122W        W88846  11.745  43.010  12.514
25123W        W88847   5.714  10.333  14.470
25124W        W88848  26.643  24.568   3.636
25125W        W88849  16.124  36.969  10.591
25126W        W88850  28.660  16.796  13.941
25127W        W88851  20.724  23.986  10.900
25128W        W88852  26.133  22.047   4.713
25129W        W88853  35.503  16.682   0.337
25130W        W88854  33.080  18.677   4.300
25131W        W88855  16.772  21.156  14.276
25132W        W88856  26.559  38.967  11.935
25133W        W88857   5.785  29.941  12.004
25134W        W88858  16.095   5.801  13.863
25135W        W88859  17.079  30.464   0.963
25136W        W88860   0.983  25.617  11.117
25137W        W88861  22.196  25.617   1.270
25138W        W88862  35.870  19.620  12.083
25139W        W88863  41.350   9.668   0.461
25140W        W88864  31.438  37.404  13.824
25141W        W88865   7.856   9.232   1.279
25142W        W88866  26.669   0.435   0.370
25143W        W88867   4.782  42.287  13.883
25144W        W88868   4.289  40.854  11.939
25145W        W88869  31.528  44.496  14.463
25146W        W88870  13.718  34.369   1.379
25147W        W88871  33.039  10.173  11.527
25148W        W88872  26.174  26.988   5.258
25149W        W88873  34.482  31.471  13.328
25150W        W88874  32.504  37.557  11.889
25151W        W88875  43.764  31.557   3.730
25152W        W88876  17.692  31.591  14.356
25153W        W88877  11.677  23.532  13.378
25154W        W88878  20.650  38.891  14.811
25155W        W88879  11.278  34.537  12.869
25156W        W88880  38.333  14.183  13.882
25157W        W88881  18.228  23.718  12.445
25158W        W88882  41.967  15.711   5.271
25159W        W88883  18.733  17.207   4.282
25160W        W88884   5.383  21.249   2.874
25161W        W88885  35.570   4.271  10.455
25162W        W88886  28.986   3.391  10.491
25163W        W88887  20.592  24.486  10.413
25164W        W88888  14.599   7.408  12.011
25165W        W88889  10.727   3.229   2.257
25166W        W88890  29.635  39.457   1.406
25167W        W88891  18.622  23.676   0.739
25168W        W88892  35.907  17.294   0.869
25169W        W88893  28.026  27.579  11.101
25170W        W88894   5.829  22.560  14.890
25171W        W88895   3.406   2.469   3.766
25172W        W88896  33.001  35.910  11.051
25173W        W88897  15.732  36.385   5.311
25174W        W88898   9.205   6.398  14.873
25175W        W88899   2.259  14.157  12.408
25176W        W88900  40.937   4.342  12.914
25177W        W88901   1.890   2.239   0.377
25178W        W88902  17.626  44.432  11.882
25179W        W88903  29.138   4.733   3.633
25180W        W88904  22.503  43.899   3.727
25181W        W88905  36.978  19.717  13.044
25182W        W88906  24.128  40.414  11.413
25183W        W88907  40.907  31.933   4.173
25184W        W88908  18.115  25.641  11.588
25185W        W88909  44.996  41.855   4.725
25186W        W88910  37.562  28.625  11.090
25187W        W88911  28.654  24.033   3.203
25188W        W88912   9.177  34.964   4.269
25189W        W88913  42.953  19.563   0.357
25190W        W88914   7.276   2.460   4.301
25191W        W88915   1.398   5.877   4.788
25192W        W88916  15.283  35.973   2.875
25193W        W88917   7.268  28.130   3.651
25194W        W88918  28.462  36.851  13.420
25195W        W88919   1.454  43.403  14.813
25196W        W88920   0.933  42.496   4.215
25197W        W88921   1.811  26.111  12.392
25198W        W88922  19.090   7.235   1.220
25199W        W88923  24.523  17.583   0.961
25200W        W88924  16.183  28.967   3.155
25201W        W88925  17.181  11.760  11.409
25202W        W88926   8.323  22.043  14.994
25203W        W88927  43.973  27.661  11.929
25204W        W88928   6.364  24.519   4.346
25205W        W88929   5.715  16.662   0.291
25206W        W88930  43.766  44.998   1.866
25207W        W88931  17.651  19.660   4.617
25208W        W88932  28.004  21.112  13.880
25209W        W88933  21.643  36.879  10.444
25210W        W88934  29.589  33.418  14.342
25211W        W88935  30.460  14.245   2.210
25212W        W88936  31.489  17.109   3.686
25213W        W88937  10.364  18.056  14.991
25214W        W88938  15.649  11.742  14.958
25215W        W88939  35.105  44.433   3.795
25216W        W88940  24.165   9.874   4.157
25217W        W88941  14.804  10.793  11.113
25218W        W88942  33.074  18.770   3.190
25219W        W88943  16.582  22.067  13.518
25220W        W88944  39.886  23.564   2.739
25221W        W88945  34.092  35.075  11.935
25222W        W88946   7.837  44.974   4.300
25223W        W88947  31.929  40.840   4.821
25224W        W88948  34.034   1.755   3.382
25225W        W88949   7.833  14.719  12.453
25226W        W88950  25.023  27.044   3.298
25227W        W88951  42.403  15.105  12.903
25228W        W88952  39.316  21.140   2.301
25229W        W88953  40.346  18.574   1.855
25230W        W88954   1.442  43.995   2.383
25231W        W88955  42.377   1.245   4.277
25232W        W88956  27.182  19.701   5.290
25233W        W88957  32.890  13.153   3.772
25234W        W88958  10.192  43.796  14.513
25235W        W88959  27.678   2.768  14.312
25236W        W88960   7.397  37.874  13.326
25237W        W88961  39.375  44.972   1.822
25238W        W88962  25.661  21.101  10.499
25239W        W88963  26.609  34.479  14.972
25240W        W88964  20.127  43.280   3.335
25241W        W88965  42.929  18.581   1.888
25242W        W88966   4.444  38.400  10.965
25243W        W88967   6.421  28.476   0.919
25244W        W88968  10.696  31.625   0.728
25245W        W88969  25.210   0.806   4.738
25246W        W88970  17.614  28.511   3.765
25247W        W88971  33.599  30.509  10.925
25248W        W88972  22.636  30.568   0.446
25249W        W88973  28.930  38.513  10.466
25250W        W88974  33.086  33.892   3.648
25251W        W88975   4.806   7.392  10.084
25252W        W88976   1.261  24.620   2.251
25253W        W88977  43.782  27.510   4.188
25254W        W88978  26.146  20.089   3.715
25255W        W88979   6.190  41.926   1.778
25256W        W88980  13.272   3.382  11.896
25257W        W88981   7.313  42.995  14.277
25258W        W88982  25.076  13.345  12.065
25259W        W88983  44.993  30.149   2.719
25260W        W88984  24.593   9.773   3.724
25261W        W88985  10.778   3.728   2.784
25262W        W88986  36.514  34.942   4.769
25263W        W88987  16.129  20.593  14.974
25264W        W88988  28.647  23.538   4.288
25265W        W88989  35.501  41.812  13.396
25266W        W88990  24.488   9.652   5.718
25267W        W88991   4.441   9.767  11.878
25268W        W88992  25.990  44.303  14.397
25269W        W88993   2.243  26.026   0.892
25270W        W88994  42.776  27.633   3.768
25271W        W88995  19.711   4.281  12.407
25272W        W88996  30.458  35.527   1.323
25273W        W88997  11.297  21.232   4.186
25274W        W88998  30.436  10.358  13.465
25275W        W88999  41.855  32.510   1.744
25276W        W89000  43.483  36.538  12.977
25277W        W89001  27.649  38.388  13.873
25278W        W89002  22.598  12.647   3.789
25279W        W89003  10.272  37.036   1.906
25280W        W89004  28.971  15.595  11.517
25281W        W89005  16.248  41.893   2.834
25282W        W89006  10.867   8.839   3.168
25283W        W89007  14.279   1.955  11.122
25284W        W89008  15.583  37.387  11.463
25285W        W89009   2.721  16.739   3.176
25286W        W89010   9.177  40.899   2.371
25287W        W89011  34.876  22.538   9.994
25288W        W89012  22.549   6.751  14.277
25289W        W89013  15.246   5.798  13.855
25290W        W89014  26.028   3.344   1.446
25291W        W89015   5.412  13.185  13.377
25292W        W89016  30.980  44.395  14.884
25293W        W89017  30.461  35.478  11.895
25294W        W89018  20.249  25.084   1.252
25295W        W89019  42.436  26.503   0.736
25296W        W89020  24.064  35.500   0.830
25297W        W89021  13.662   1.291   2.799
25298W        W89022   4.805  40.488  12.927
25299W        W89023  25.488  14.789  13.370
25300W        W89024  15.271   3.829  14.419
25301W        W89025  18.614   2.384   4.605
25302W        W89026  26.645  38.860  10.902
25303W        W89027  19.564  14.743   1.869
25304W        W89028  20.600   2.346   0.744
25305W        W89029  24.708  41.864  13.961
25306W        W89030  35.363  11.205   1.737
25307W        W89031  39.980   2.283  13.820
25308W        W89032  30.599  37.378  14.800
25309W        W89033   6.818  17.603   2.903
25310W        W89034   2.934  12.225   4.660
25311W        W89035  13.665  35.480   0.931
25312W        W89036  28.630  43.455  13.350
25313W        W89037  36.048  12.825   2.857
25314W        W89038  27.575   2.766   0.770
25315W        W89039  42.333  13.643  14.283
25316W        W89040  12.634   0.978  12.432
25317W        W89041  18.564   0.834  14.901
25318W        W89042  33.977  21.161   1.925
25319W        W89043   7.888  25.498  12.922
25320W        W89044   6.722  31.954   4.337
25321W        W89045  33.066   0.820   2.194
25322W        W89046   8.661  18.211   0.420
25323W        W89047  39.483  27.197  14.366
25324W        W89048  21.224  33.083  11.489
25325W        W89049  17.607  37.393   1.713
25326W        W89050  38.517   0.300  11.020
25327W        W89051  37.070   8.785   0.474
25328W        W89052  18.720  33.396  14.297
25329W        W89053  36.389   8.794  10.047
25330W        W89054  13.828   7.309  11.483
25331W        W89055  14.649  31.969  10.947
25332W        W89056  12.743  42.351  14.847
25333W        W89057  16.711   3.766  12.396
25334W        W89058  18.729  11.829  13.810
25335W        W89059  39.378  37.577   3.763
25336W        W89060   0.454  12.299  10.616
25337W        W89061  22.205  40.449  13.517
25338W        W89062  35.004   1.828   5.249
25339W        W89063  28.545  16.630  14.934
25340W        W89064  34.955  33.078   3.223
25341W        W89065  22.583  21.232   2.398
25342W        W89066  16.154   4.897  13.486
25343W        W89067  37.529  33.495  11.433
25344W        W89068  19.090  19.689   4.661
25345W        W89069  43.311  38.494  11.925
25346W        W89070   6.730  25.978  11.894
25347W        W89071  25.001  27.013   0.247
25348W        W89072  42.449  24.141  10.914
25349W        W89073  17.580  36.453  12.354
25350W        W89074  24.685   3.793   2.344
25351W        W89075  38.990  28.084   3.240
25352W        W89076  31.913  23.723   2.291
25353W        W89077   3.406   5.824   3.685
25354W        W89078   2.794   8.404  12.960
25355W        W89079   5.262   3.836   0.958
25356W        W89080   9.253   8.696   3.368
25357W        W89081  36.039  29.087   4.658
25358W        W89082  10.317  42.286   3.247
25359W        W89083  20.610  13.293  13.391
25360W        W89084  35.924   9.851  11.487
25361W        W89085  34.878  38.533   4.764
25362W        W89086  22.526  27.102   2.675
25363W        W89087  40.325   9.326   2.270
25364W        W89088  25.480   0.942   1.808
25365W        W89089  31.969  30.573  14.790
25366W        W89090  32.034  15.114   2.724
25367W        W89091   9.216  22.097  13.062
25368W        W89092  38.475   3.856  13.891
25369W        W89093  10.713  34.923  14.296
25370W        W89094  37.943   1.409  14.007
25371W        W89095  28.930   3.268   1.383
25372W        W89096  17.718  27.466   2.218
25373W        W89097  14.675  37.542   3.166
25374W        W89098  28.177  43.918   3.289
25375W        W89099  24.669  39.885   1.232
25376W        W89100  35.915  11.335  13.414
25377W        W89101  30.463  40.425   5.230
25378W        W89102  27.054  29.146  13.368
25379W        W89103   8.767   5.754  13.887
25380W        W89104  19.281   0.271   2.729
25381W        W89105   0.900  16.124  14.459
25382W        W89106  10.377  33.977  13.476
25383W        W89107  42.914  42.909   0.345
25384W        W89108   6.405  20.253   0.935
25385W        W89109  37.528  33.113   3.804
25386W        W89110  26.167  36.053   2.352
25387W        W89111   4.814  11.362   9.998
25388W        W89112  32.917  26.010   0.807
25389W        W89113  27.189  32.966   1.846
25390W        W89114  22.035   9.180  11.377
25391W        W89115  33.966   3.292  13.939
25392W        W89116  10.801  36.435  12.431
25393W        W89117  20.256  24.531  13.469
25394W        W89118  24.600  22.203  12.355
25395W        W89119  29.131  42.335  12.935
25396W        W89120   4.228   5.888  12.418
25397W        W89121  27.594  38.842   3.829
25398W        W89122  39.926  33.085   0.383
25399W        W89123  39.007  10.225   3.161
25400W        W89124  37.341  33.036  14.827
25401W        W89125  27.502  44.848   2.207
25402W        W89126   4.710  43.489   1.706
25403W        W89127  16.148  29.665   3.748
25404W        W89128  25.651  40.308  13.912
25405W        W89129  40.960   1.340   0.312
25406W        W89130  11.713  18.129  10.494
25407W        W89131  38.402  13.691  14.319
25408W        W89132  13.254  29.532   2.385
25409W        W89133   8.237  21.136   1.240
25410W        W89134   1.886  28.044   3.253
25411W        W89135   5.208   3.335   4.744
25412W        W89136   8.354  16.221   0.789
25413W        W89137  18.746  27.145  14.995
25414W        W89138   0.872  10.276  13.916
25415W        W89139  27.562  32.048   0.260
25416W        W89140  38.869   3.739  14.294
25417W        W89141  12.185  11.157  11.868
25418W        W89142   2.758  15.312  13.873
25419W        W89143   6.884  22.084  13.875
25420W        W89144   6.738  20.600   0.243
25421W        W89145   2.769   9.257   2.351
25422W        W89146   6.377   9.808   3.153
25423W        W89147  24.176  39.939   5.112
25424W        W89148   7.698  42.790   4.779
25425W        W89149  23.688  34.887  14.917
25426W        W89150  20.532   8.405   1.916
25427W        W89151   2.257  30.562   5.143
25428W        W89152  39.370  23.688  11.034
25429W        W89153  33.422  20.083  10.889
25430W        W89154  17.600  26.509  11.579
25431W        W89155  33.050  30.100  11.055
25432W        W89156  10.209  32.545   4.701
25433W        W89157  29.133  17.783  10.921
25434W        W89158   9.208   0.757   0.932
25435W        W89159  36.372  30.599   4.753
25436W        W89160  31.602  44.291  12.972
25437W        W89161  32.121  23.134   4.277
25438W        W89162  30.932  38.054   1.845
25439W        W89163  33.911  13.719  11.552
25440W        W89164   2.835  22.040  12.901
25441W        W89165  27.040  13.292  10.509
25442W        W89166  25.998   0.988  13.976
25443W        W89167  32.906   9.865   4.788
25444W        W89168  16.184   1.339  14.766
25445W        W89169  30.558  28.004   0.274
25446W        W89170  33.478  16.099   1.734
25447W        W89171  11.769  35.383   4.154
25448W        W89172  33.990  44.829  13.342
25449W        W89173  15.606   6.709   2.245
25450W        W89174  27.110  32.598  12.017
25451W        W89175  36.431  28.469  11.477
25452W        W89176  37.870  11.215  14.295
25453W        W89177  20.744  30.941  13.356
25454W        W89178  19.125  37.883  12.886
25455W        W89179  30.996  36.064   5.284
25456W        W89180  30.569  36.397  11.108
25457W        W89181  41.345  44.459   1.273
25458W        W89182  13.604  16.732  12.053
25459W        W89183  28.024   7.344  11.043
25460W        W89184  27.661  21.700  14.783
25461W        W89185  34.982   7.339   4.771
25462W        W89186  25.678  44.373   4.256
25463W        W89187  12.298  24.479   3.313
25464W        W89188  15.648  25.706   1.315
25465W        W89189  32.108  32.105  13.536
25466W        W89190  35.853  43.442  12.872
25467W        W89191  24.686  41.296  12.536
25468W        W89192  14.823   8.750   0.427
25469W        W89193  11.794  19.259   9.933
25470W        W89194  20.530  31.615  13.971
25471W        W89195  10.708  10.153  13.455
25472W        W89196   3.255  30.915   4.675
25473W        W89197  35.547  26.630   1.360
25474W        W89198  42.855  26.548   0.952
25475W        W89199  19.146  10.776  11.413
25476W        W89200   6.800  31.514   0.746
25477W        W89201   9.826  12.254  13.793
25478W        W89202  16.303  41.510  13.898
25479W        W89203   7.224   9.827   2.324
25480W        W89204  24.005  12.627  14.308
25481W        W89205  11.332   2.345   2.318
25482W        W89206  15.188  22.178  10.432
25483W        W89207  44.484  25.017   2.685
25484W        W89208  31.419  32.559  14.801
25485W        W89209  23.546  27.462  10.499
25486W        W89210   6.197  24.613  11.581
25487W        W89211  25.676  25.693  14.347
25488W        W89212  44.873   5.699   1.253
25489W        W89213  43.822   4.804  11.874
25490W        W89214   8.300  23.112   3.333
25491W        W89215  41.993  43.005   4.352
25492W        W89216  19.768  37.383   1.270
25493W        W89217  31.931  30.123   4.748
25494W        W89218  23.496  38.565   3.193
25495W        W89219   1.379   0.349  13.328
25496W        W89220  30.006  22.526   4.783
25497W        W89221   6.419  20.532  11.606
25498W        W89222  44.476  11.310  10.092
25499W        W89223   3.923  14.122  10.545
25500W        W89224   7.733  22.007  11.418
25501W        W89225  14.172  33.115  10.612
25502W        W89226  10.155  26.651  14.866
25503W        W89227   9.759  36.973   0.249
25504W        W89228   1.384  23.029   0.824
25505W        W89229  27.102  28.030  14.880
25506W        W89230   8.724  38.376   0.929
25507W        W89231   3.311  16.681   4.600
25508W        W89232  10.318  34.032   1.777
25509W        W89233  22.582  19.571  12.429
25510W        W89234  41.852  21.143   2.734
25511W        W89235  29.144  29.172   0.475
25512W        W89236  27.591   9.837  11.077
25513W        W89237   0.361   1.240  12.847
25514W        W89238   9.306  22.093   0.392
25515W        W89239  39.866  17.172  13.367
25516W        W89240   3.402  29.609  14.911
25517W        W89241  31.056  17.557   1.928
25518W        W89242  43.947  26.532   4.696
25519W        W89243  24.065  27.158  11.000
25520W        W89244  40.520  20.033   2.870
25521W        W89245  34.875   6.384   0.423
25522W        W89246  15.209  17.251   1.896
25523W        W89247  38.979  35.464   4.334
25524W        W89248  41.402  16.772  11.464
25525W        W89249   6.199  12.131   3.630
25526W        W89250  39.969  38.047  13.851
25527W        W89251   4.278  10.806  10.446
25528W        W89252   9.792   1.763  11.111
25529W        W89253  44.463  20.540   3.251
25530W        W89254  19.761  44.435  13.908
25531W        W89255  44.297   5.258  13.967
25532W        W89256  41.865  32.975  13.391
25533W        W89257   6.757   3.803   2.712
25534W        W89258   6.870  44.314   0.758
25535W        W89259  17.735  38.346  12.025
25536W        W89260   6.347  13.737   2.714
25537W        W89261  19.701  16.194   3.641
25538W        W89262  22.557  23.504  10.080
25539W        W89263   5.689  32.415   1.908
25540W        W89264  32.621   8.359  13.871
25541W        W89265  31.454   1.452   2.308
25542W        W89266  38.358   2.461  13.858
25543W        W89267  10.740  39.888   3.182
25544W        W89268  13.816  21.109  10.431
25545W        W89269  39.338   8.746   0.793
25546W        W89270  33.449  30.147   4.788
25547W        W89271  31.099  27.577  14.994
25548W        W89272  16.302  44.918  10.493
25549W        W89273  11.303   8.185   4.254
25550W        W89274  13.817  41.433  11.377
25551W        W89275  39.502  21.229   3.348
25552W        W89276  43.513   8.805   1.223
25553W        W89277  14.712  35.064   4.277
25554W        W89278  12.797  38.856   1.241
25555W        W89279   8.221  21.227   4.274
25556W        W89280  14.298  12.267  14.972
25557W        W89281  11.197  42.455  11.919
25558W        W89282   1.263   7.683  14.906
25559W        W89283  21.141  28.961  11.939
25560W        W89284  18.237  43.435  14.303
25561W        W89285  19.547   8.397  10.585
25562W        W89286  28.621  18.106  10.537
25563W        W89287  14.166   4.287   1.232
25564W        W89288   3.246  16.749  14.936
25565W        W89289   3.896  28.053   2.187
25566W        W89290  38.943  22.097   3.733
25567W        W89291  44.371  14.742   4.117
25568W        W89292   8.827  11.775   3.156
25569W        W89293  27.086  29.043  13.890
25570W        W89294   8.381   3.410  11.996
25571W        W89295  44.880  37.018   3.763
25572W        W89296  12.345  15.109  11.120
25573W        W89297   9.875  20.197   2.384
25574W        W89298  37.901   9.279  12.871
25575W        W89299  24.507  13.621  11.044
25576W        W89300   8.773  38.066  13.801
25577W        W89301  32.546   3.875  14.760
25578W        W89302  37.535   5.231  10.454
25579W        W89303  44.938  39.461  12.960
25580W        W89304  27.173   1.388  13.801
25581W        W89305  25.638  18.664  14.844
25582W        W89306  25.975   2.295   2.776
25583W        W89307  37.855   0.874  12.025
25584W        W89308  18.619  43.443   0.300
25585W        W89309  19.120  32.949  14.944
25586W        W89310  42.375  10.352   0.437
25587W        W89311  26.641   5.199   4.298
25588W        W89312  43.847  42.970  11.111
25589W        W89313  34.981   9.367   2.839
25590W        W89314  34.944  19.576  13.871
25591W        W89315   2.370  35.920   5.229
25592W        W89316  39.012  39.360   0.369
25593W        W89317  31.147  39.521  11.442
25594W        W89318   8.313   3.921   4.821
25595W        W89319  21.067   4.418  12.880
25596W        W89320  34.964  42.824  10.416
25597W        W89321  44.791  21.543  10.518
25598W        W89322  19.242  43.446  10.498
25599W        W89323  40.848  30.483   2.834
25600W        W89324  20.216  17.303   2.340
25601W        W89325  17.215  35.376  11.453
25602W        W89326   6.895  18.183  10.639
25603W        W89327  27.638  37.925   1.847
25604W        W89328  19.757  32.094   0.284
25605W        W89329  16.760  21.640   3.345
25606W        W89330  14.703  19.060   0.397
25607W        W89331  21.131  31.439  12.950
25608W        W89332  20.565  21.185   4.669
25609W        W89333   8.872  28.022   3.850
25610W        W89334  40.457  19.047   3.189
25611W        W89335   8.175   3.928  10.487
25612W        W89336   3.912  18.699   3.237
25613W        W89337  15.634  31.087   3.209
25614W        W89338  34.982  44.872   0.339
25615W        W89339  44.809  41.013   3.652
25616W        W89340  15.780  18.163  10.497
25617W        W89341  13.616  32.576  13.359
25618W        W89342  31.562  41.940   0.812
25619W        W89343  14.179  37.563  10.931
25620W        W89344  32.440  14.308   1.387
25621W        W89345   7.265  43.965  11.076
25622W        W89346  37.067  36.056  13.007
25623W        W89347   1.875  39.055  14.974
25624W        W89348   6.338  38.328  11.603
25625W        W89349  15.622  32.985   4.732
25626W        W89350  32.487   7.910  13.975
25627W        W89351  13.325  30.082   0.959
25628W        W89352  13.798  15.822  13.545
25629W        W89353  22.589  35.014  14.843
25630W        W89354  37.422  29.519  13.054
25631W        W89355  10.183   3.287   0.815
25632W        W89356  44.901  18.258   3.160
25633W        W89357  13.696  16.255  12.996
25634W        W89358  44.845  29.493  12.919
25635W        W89359  12.324   7.672  11.410
25636W        W89360  27.486  15.172   3.642
25637W        W89361  17.674  28.082   4.773
25638W        W89362  23.203  36.579   3.380
25639W        W89363   2.961  16.099  10.591
25640W        W89364  22.162  11.781   4.173
25641W        W89365  14.094  33.562  12.891
25642W        W89366  32.408  24.558   3.668
25643W        W89367   4.816   6.327   4.829
25644W        W89368  30.581   6.915  13.518
25645W        W89369   0.781  22.125  14.440
25646W        W89370  17.560  41.806   4.237
25647W        W89371  31.615   1.766  12.563
25648W        W89372  16.772  44.959  11.937
25649W        W89373  24.663  31.630  12.961
25650W        W89374  42.342   0.815   1.402
25651W        W89375  30.951  36.872  11.457
25652W        W89376   2.406  41.342  13.921
25653W        W89377  29.445  24.677   3.325
25654W        W89378  40.036  41.912   5.582
25655W        W89379  25.049  21.599  14.353
25656W        W89380  36.994  44.880  13.341
25657W        W89381  36.897  25.962  13.828
25658W        W89382  44.846  44.935   3.759
25659W        W89383  33.423  30.099  14.399
25660W        W89384  37.362  18.657  12.898
25661W        W89385  13.665  44.293   3.315
25662W        W89386  29.499  33.439  11.975
25663W        W89387  25.202   3.732  12.069
25664W        W89388  39.337  27.062  13.018
25665W        W89389   4.309  42.360  14.449
25666W        W89390  20.165  31.118  12.834
25667W        W89391  37.544  13.111   4.754
25668W        W89392  28.067   7.805   2.776
25669W        W89393  20.204  21.608   3.178
25670W        W89394   4.886   0.770  10.448
25671W        W89395  10.864  14.196  13.918
25672W        W89396  15.084  40.971  10.436
25673W        W89397  44.992   6.776   1.390
25674W        W89398   6.284  18.174  11.401
25675W        W89399   6.378   4.284  11.437
25676W        W89400  36.547  23.536  11.993
25677W        W89401  35.024  18.785  10.633
25678W        W89402  42.823  43.297  11.009
25679W        W89403  16.724  27.981   0.418
25680W        W89404   8.728  35.040   0.962
25681W        W89405  20.062   1.814  10.993
25682W        W89406   4.344   5.288   4.344
25683W        W89407  38.520  10.221  13.895
25684W        W89408  32.596  40.305  14.436
25685W        W89409  22.738  39.421   2.740
25686W        W89410   0.888  20.265  11.511
25687W        W89411  28.640  19.242   4.755
25688W        W89412  11.638  13.313   4.115
25689W        W89413   8.258  11.709   0.797
25690W        W89414   6.842   9.270  12.976
25691W        W89415  14.762  28.496  12.833
25692W        W89416  32.618  22.998   1.333
25693W        W89417   7.313   8.670   2.709
25694W        W89418  20.666  12.630  14.015
25695W        W89419  17.580  42.518  11.602
25696W        W89420  31.997  24.990  10.064
25697W        W89421  24.637  33.009  14.364
25698W        W89422   2.325  12.234   0.803
25699W        W89423  39.927  24.131   0.790
25700W        W89424  36.920  19.223   4.268
25701W        W89425  39.503   7.844   0.758
25702W        W89426   2.850   2.908   1.268
25703W        W89427  42.326  37.957   0.285
25704W        W89428  35.912  25.198  13.944
25705W        W89429  15.186   2.426  12.055
25706W        W89430  10.774  24.190   4.611
25707W        W89431  37.536  12.713  10.533
25708W        W89432  25.138  23.679  14.926
25709W        W89433  20.711  18.681   2.247
25710W        W89434  16.163  18.182   0.827
25711W        W89435  32.949  16.785   0.884
25712W        W89436  11.650  21.685   1.449
25713W        W89437  17.564   0.344   4.252
25714W        W89438  15.098   1.965  11.936
25715W        W89439   7.708   9.848   1.903
25716W        W89440  13.263  37.463   0.383
25717W        W89441  14.811  16.082  12.381
25718W        W89442  13.290  32.462   3.829
25719W        W89443  10.864  22.042  10.645
25720W        W89444  29.561  10.314   5.099
25721W        W89445   5.199  30.654   3.694
25722W        W89446  44.381   7.894  13.899
25723W        W89447  24.163  37.499   4.779
25724W        W89448  39.988  39.871  12.431
25725W        W89449   7.741   7.735   0.294
25726W        W89450  42.860  31.444  11.093
25727W        W89451  42.920  17.292  10.414
25728W        W89452  34.423  15.744   5.798
25729W        W89453  28.139  14.126  12.509
25730W        W89454  14.751  36.897  13.993
25731W        W89455   1.902   7.903  14.827
25732W        W89456  20.562  37.430   1.846
25733W        W89457  21.534  31.982   9.952
25734W        W89458  10.348  12.181  13.942
25735W        W89459  17.074  36.031  13.505
25736W        W89460  39.490  40.441  13.325
25737W        W89461  36.510  44.403  13.855
25738W        W89462   1.325   3.292  14.819
25739W        W89463   4.712  44.429   2.830
25740W        W89464   9.775  11.164  12.511
25741W        W89465   7.178  29.469  11.860
25742W        W89466  27.469  36.392  11.941
25743W        W89467  12.836  43.399  13.527
25744W        W89468  19.052  26.116   3.670
25745W        W89469   0.906  36.886   0.879
25746W        W89470  41.977  37.457   0.902
25747W        W89471  22.513   9.687  13.856
25748W        W89472  36.866   9.371   3.298
25749W        W89473  28.540  44.861  12.528
25750W        W89474  35.473  39.020  11.001
25751W        W89475  15.160  19.545  10.570
25752W        W89476  17.153  41.876  14.359
25753W        W89477  34.088   4.228  14.930
25754W        W89478  32.033  23.726   4.215
25755W        W89479   7.767  12.259   3.651
25756W        W89480  37.375  21.728   3.239
25757W        W89481  39.024   7.326  10.538
25758W        W89482   8.739  23.204  13.031
25759W        W89483   6.877  21.042   2.236
25760W        W89484  33.529  13.686   0.398
25761W        W89485   8.256  34.087  12.887
25762W        W89486  40.799  37.854  14.375
25763W        W89487  10.660  38.460  11.436
25764W        W89488   4.268   6.369  12.469
25765W        W89489  17.766  26.148   3.255
25766W        W89490  19.169   5.876  11.599
25767W        W89491  35.946   4.367  10.929
25768W        W89492   9.266  17.173  13.815
25769W        W89493  43.979  30.518  13.479
25770W        W89494  12.217   5.846   2.307
25771W        W89495  33.078  41.866  10.510
25772W        W89496  27.592  18.559   0.753
25773W        W89497  31.608  40.907   4.296
25774W        W89498   0.277  24.594  11.567
25775W        W89499  14.115  18.655   4.311
25776W        W89500  11.683  37.461   3.226
25777W        W89501  32.016  13.309  13.938
25778W        W89502  34.061  34.403   1.746
25779W        W89503   6.887  42.297   1.926
25780W        W89504  14.289  36.416   3.747
25781W        W89505   4.914  19.726  13.818
25782W        W89506   7.185  37.357  13.954
25783W        W89507  18.587  30.978  10.908
25784W        W89508   7.686  36.525   4.310
25785W        W89509   4.389  31.533  11.877
25786W        W89510  30.042   1.411   0.255
25787W        W89511   7.263   6.240   4.733
25788W        W89512   8.660  34.974   1.338
25789W        W89513   4.273  15.718  14.349
25790W        W89514  38.866  19.547   4.731
25791W        W89515  20.626  43.876  12.843
25792W        W89516  26.178  33.536  12.566
25793W        W89517  18.695  24.160   3.676
25794W        W89518   9.331  34.900  12.032
25795W        W89519  18.144  16.729  14.773
25796W        W89520  22.741  28.179   3.373
25797W        W89521  20.101  18.082   1.421
25798W        W89522  36.534  39.402   1.430
25799W        W89523  15.734   9.202  11.884
25800W        W89524  21.575  21.613  11.563
25801W        W89525  23.550  25.671  13.467
25802W        W89526   4.212   3.902   4.238
25803W        W89527  11.232  32.462   2.750
25804W        W89528   4.270  17.726  13.382
25805W        W89529   5.199  33.563   1.829
25806W        W89530  19.573  12.348  11.581
25807W        W89531  25.986  35.438  11.567
25808W        W89532  35.436  12.308  11.454
25809W        W89533   8.796  24.122   1.877
25810W        W89534   1.338  26.538  11.580
25811W        W89535  39.020   1.403  14.865
25812W        W89536  11.207  32.582  12.865
25813W        W89537  14.776  36.354   1.854
25814W        W89538   6.190  22.149   0.313
25815W        W89539  31.926  19.177  10.466
25816W        W89540   4.908   6.745   0.824
25817W        W89541   2.252  30.541  12.389
25818W        W89542  10.735   4.247  14.938
25819W        W89543   6.880  38.036   4.597
25820W        W89544  21.172  31.023   1.706
25821W        W89545  24.579  31.470   3.866
25822W        W89546  21.064   0.388   1.860
25823W        W89547  37.351   8.297   2.763
25824W        W89548   2.772  37.437   0.753
25825W        W89549  25.988   1.313   0.864
25826W        W89550  37.541   7.835   2.801
25827W        W89551  24.135  16.712  13.404
25828W        W89552  19.123  33.584   1.805
25829W        W89553  43.018  19.083  13.533
25830W        W89554  30.499  13.736   4.171
25831W        W89555  27.551  35.082  14.405
25832W        W89556   5.824  12.629  12.478
25833W        W89557   9.750   1.461  14.758
25834W        W89558  14.298  20.251  12.526
25835W        W89559   7.377  42.015  13.996
25836W        W89560   2.752   4.787  14.850
25837W        W89561  21.162  32.936  13.340
25838W        W89562  12.714   7.345  11.499
25839W        W89563  37.384  41.890   0.859
25840W        W89564  43.937  27.998   1.290
25841W        W89565  24.565  17.270  12.376
25842W        W89566   8.654  36.849   4.812
25843W        W89567  12.792   0.248  11.927
25844W        W89568   6.894   9.286  13.954
25845W        W89569  16.162  28.131  12.066
25846W        W89570  36.031  40.981   0.264
25847W        W89571  17.702  40.864  10.622
25848W        W89572  37.887  10.285  11.899
25849W        W89573   0.904  22.598   3.329
25850W        W89574  18.611  10.851  13.858
25851W        W89575  28.584   6.688  14.366
25852W        W89576  38.564   0.824  11.122
25853W        W89577  24.176  12.162   2.705
25854W        W89578   5.759   6.326  14.858
25855W        W89579  34.030   9.647   4.615
25856W        W89580  14.750   3.446   1.301
25857W        W89581  43.998   2.367   2.715
25858W        W89582   4.794   9.210  14.428
25859W        W89583   3.361  22.138  12.079
25860W        W89584  30.058  12.323  11.434
25861W        W89585   8.219  18.613   0.425
25862W        W89586   8.373  16.167   1.415
25863W        W89587   7.716  17.591  11.933
25864W        W89588  41.856  19.619   0.472
25865W        W89589  16.685  37.394  11.002
25866W        W89590  30.009  19.166   3.200
25867W        W89591  23.655  38.023   3.633
25868W        W89592  43.362  29.490  11.936
25869W        W89593   9.227  24.706   1.364
25870W        W89594  26.679  39.372  13.482
25871W        W89595  27.146  25.995   3.210
25872W        W89596  43.768   5.721   4.678
25873W        W89597  12.797  40.968  14.346
25874W        W89598  15.707  32.142  14.394
25875W        W89599  22.731  28.471   1.294
25876W        W89600  25.608  23.205  14.478
25877W        W89601  12.800  43.416   1.258
25878W        W89602   9.252  26.035   2.394
25879W        W89603  14.768  11.707   1.741
25880W        W89604  22.171  28.533  12.555
25881W        W89605  41.969  35.503  11.495
25882W        W89606   5.805  15.694   1.730
25883W        W89607  34.546  20.089   0.766
25884W        W89608  35.083   4.439  11.129
25885W        W89609  28.992  14.180   3.659
25886W        W89610  11.822  29.059  12.857
25887W        W89611  22.623  20.064  12.993
25888W        W89612   8.849  15.093  12.358
25889W        W89613  21.142  20.193   5.081
25890W        W89614  14.130   1.273   4.704
25891W        W89615  34.866  24.204  12.500
25892W        W89616  33.446   8.273  13.522
25893W        W89617   7.837  28.980   2.784
25894W        W89618  41.456   6.239   4.148
25895W        W89619  30.061  41.357   3.747
25896W        W89620  26.566  43.998   1.343
25897W        W89621  39.820  25.617   2.664
25898W        W89622  27.498  13.755   0.467
25899W        W89623  38.443   5.807   0.298
25900W        W89624   1.246  12.669   0.792
25901W        W89625  36.436  41.787   0.755
25902W        W89626  29.474  27.976  14.430
25903W        W89627  13.319  19.158  14.020
25904W        W89628  26.574  34.038   3.692
25905W        W89629  25.135  24.011  10.437
25906W        W89630  10.807  28.618   4.290
25907W        W89631  43.913  18.573   0.269
25908W        W89632  42.320  12.613   1.703
25909W        W89633  42.442   3.863  14.798
25910W        W89634   0.325  35.390   4.694
25911W        W89635  33.573  19.751  13.974
25912W        W89636  24.514  31.004   0.821
25913W        W89637   3.778   4.818   1.886
25914W        W89638  42.376   7.179  11.418
25915W        W89639  24.036  43.509  14.415
25916W        W89640   2.429   6.754   3.199
25917W        W89641  17.188  25.595  13.963
25918W        W89642  38.467  26.694   3.715
25919W        W89643  25.625   6.850  14.379
25920W        W89644  21.645  19.073   0.303
25921W        W89645  10.663   1.316   2.321
25922W        W89646   4.854  11.340   0.248
25923W        W89647  24.537  21.049  14.436
25924W        W89648   4.945  10.301   4.340
25925W        W89649   8.291  18.635   1.252
25926W        W89650  26.996  37.385   3.786
25927W        W89651   5.293  27.577  11.944
25928W        W89652  43.474  43.910   1.712
25929W        W89653   2.462  25.601   2.686
25930W        W89654  37.449  36.435  14.495
25931W        W89655  38.420   6.406   1.317
25932W        W89656  29.438   2.872   1.306
25933W        W89657  26.667  17.758   2.691
25934W        W89658  26.102  24.106  13.948
25935W        W89659  19.258   1.849   1.837
25936W        W89660  35.103  29.605  14.418
25937W        W89661  24.666  14.833  11.004
25938W        W89662   5.430  15.726  13.897
25939W        W89663   2.820  32.089   2.693
25940W        W89664  27.176   7.740  10.438
25941W        W89665  32.058   1.948  10.568
25942W        W89666  37.343  37.851  10.994
25943W        W89667  23.040  32.505  13.063
25944W        W89668  39.907  26.182   4.137
25945W        W89669  39.413  16.152  10.416
25946W        W89670   3.742  14.323  11.990
25947W        W89671  20.745   4.245   2.286
25948W        W89672  32.570  23.093  14.841
25949W        W89673  38.042   5.364  12.876
25950W        W89674  25.680  42.317   0.302
25951W        W89675  39.861  33.415   0.727
25952W        W89676   6.853  14.171   0.803
25953W        W89677  33.394   4.915   1.876
25954W        W89678  12.275  10.381  14.488
25955W        W89679  39.841  21.641   0.264
25956W        W89680  15.138  24.084   1.922
25957W        W89681  20.076  28.619   2.826
25958W        W89682  41.345  25.028  12.911
25959W        W89683  43.966  19.079  11.100
25960W        W89684  25.986  13.118  13.467
25961W        W89685  24.181  12.791  14.889
25962W        W89686  43.793  12.820  12.853
25963W        W89687   7.179  41.489  13.348
25964W        W89688   2.453  18.607   0.380
25965W        W89689  14.702   4.702  12.558
25966W        W89690  42.851  22.733   5.144
25967W        W89691  12.622  18.585   2.222
25968W        W89692  43.009  40.526   1.394
25969W        W89693  39.925  12.133  11.458
25970W        W89694  28.586   1.866  13.918
25971W        W89695  30.609  39.520   4.708
25972W        W89696  22.585   7.715   1.795
25973W        W89697  11.200  30.452   4.318
25974W        W89698  19.769  26.973   0.954
25975W        W89699  22.652  42.006  10.469
25976W        W89700  41.318  19.769  11.372
25977W        W89701  21.097  44.373   0.821
25978W        W89702  39.364  37.386  12.438
25979W        W89703  24.654  25.982  10.488
25980W        W89704  41.301   9.760   1.892
25981W        W89705  15.683  24.506  14.972
25982W        W89706  37.394   0.883   5.255
25983W        W89707   2.423  15.309  14.339
25984W        W89708  40.480   9.688   3.682
25985W        W89709  11.239   3.903   0.479
25986W        W89710  37.060  16.798   0.899
25987W        W89711  40.038  34.905   9.481
25988W        W89712   3.729  19.194  13.319
25989W        W89713  16.158   7.754  10.919
25990W        W89714  41.521   0.799  10.601
25991W        W89715  17.134  11.780   3.850
25992W        W89716  30.459  26.993  11.962
25993W        W89717  21.231   9.376  14.952
25994W        W89718  31.917   0.324   3.691
25995W        W89719  23.024  12.781  12.482
25996W        W89720   2.456  29.455  11.463
25997W        W89721  42.886  29.931  14.906
25998W        W89722  19.123  33.472   3.819
25999W        W89723   7.815  21.225   2.358
26000W        W89724  15.202  43.859  12.470
26001W        W89725   5.687  10.832  14.342
26002W        W89726  16.072   0.251  10.522
26003W        W89727  15.260   3.313   3.660
26004W        W89728  10.365  41.035   0.457
26005W        W89729  29.953  20.229   0.396
26006W        W89730  28.079  32.419  13.961
26007W        W89731  44.003  21.586  10.452
26008W        W89732  41.449   5.212   3.712
26009W        W89733  44.505  12.802   2.236
26010W        W89734   7.238  25.510  10.425
26011W        W89735   4.418  33.055   4.245
26012W        W89736  10.786   7.303  11.874
26013W        W89737  43.965  14.325   3.237
26014W        W89738  16.280  38.997   2.795
26015W        W89739  39.987  39.947   2.668
26016W        W89740  24.518  30.465   3.798
26017W        W89741   3.446  40.888  14.787
26018W        W89742  43.018  30.142  11.463
26019W        W89743  23.227  22.617  11.053
26020W        W89744   4.284  32.054  11.422
26021W        W89745  19.608   9.672   0.376
26022W        W89746  21.564  37.990  14.387
26023W        W89747  36.871  36.038   4.762
26024W        W89748  32.975  19.127   3.284
26025W        W89749  39.014   8.212  13.334
26026W        W89750  18.712  41.485   2.708
26027W        W89751  11.194  16.163   0.772
26028W        W89752  38.382   2.734   2.754
26029W        W89753   2.249  23.190   2.672
26030W        W89754  23.577   8.732   2.356
26031W        W89755   9.373  10.637  13.953
26032W        W89756   5.746  23.173   4.729
26033W        W89757  43.923  22.043   5.097
26034W        W89758  13.672  21.159   3.328
26035W        W89759  17.796  39.984   3.796
26036W        W89760   4.316  21.521   2.250
26037W        W89761  39.434  44.919   4.829
26038W        W89762   4.281   7.244  14.786
26039W        W89763  30.482  35.056  14.870
26040W        W89764  17.700  33.018  14.339
26041W        W89765  31.124  16.587  14.825
26042W        W89766  14.682  20.095   3.314
26043W        W89767  43.301   1.240   3.868
26044W        W89768  42.301  26.175  12.036
26045W        W89769  23.637   9.188   1.314
26046W        W89770  37.461  12.318  12.393
26047W        W89771  40.969  11.709   0.481
26048W        W89772  22.701   1.805  11.569
26049W        W89773  35.971  13.605   4.669
26050W        W89774  41.831  35.389   2.785
26051W        W89775   9.782  39.354  11.025
26052W        W89776  25.655  34.061  11.951
26053W        W89777   4.417  38.937  10.936
26054W        W89778  21.064  39.502   0.883
26055W        W89779  31.061   5.302  11.997
26056W        W89780  37.929  21.040  13.482
26057W        W89781  31.130  34.482   4.248
26058W        W89782  43.429  14.243   0.876
26059W        W89783  12.237  10.228   2.312
26060W        W89784  24.615  12.735  14.020
26061W        W89785  32.431  22.250  11.982
26062W        W89786  35.010   3.256   2.834
26063W        W89787   9.734  18.712  11.504
26064W        W89788  36.021  21.654  12.517
26065W        W89789   4.710  13.157  11.418
26066W        W89790  13.294  36.069  12.012
26067W        W89791  32.518  12.180  14.447
26068W        W89792  20.231  14.705   1.932
26069W        W89793  12.610  26.134  12.407
26070W        W89794   4.212  12.611  12.040
26071W        W89795  44.269  23.059   3.763
26072W        W89796   9.203   3.352   1.763
26073W        W89797  13.346  39.864  14.919
26074W        W89798  23.514  26.672  14.954
26075W        W89799  41.022  13.638  10.445
26076W        W89800  16.235  25.023   3.671
26077W        W89801   1.876   8.323  12.886
26078W        W89802   9.803  20.117   4.672
26079W        W89803  35.567   5.753  14.004
26080W        W89804   7.183  10.687  13.988
26081W        W89805  22.016  22.639   1.299
26082W        W89806  28.527  17.751  10.948
26083W        W89807  19.096  38.509  11.916
26084W        W89808  33.398   6.217  13.939
26085W        W89809  15.114   2.800   2.829
26086W        W89810  37.521  27.134  13.959
26087W        W89811   4.782  42.405   0.429
26088W        W89812   3.307  25.978   2.675
26089W        W89813  14.255  44.371  11.920
26090W        W89814  17.290  40.909  12.373
26091W        W89815  42.987  30.643  10.040
26092W        W89816  37.883  31.929   2.305
26093W        W89817  26.508  30.518   1.380
26094W        W89818   3.433   4.756  14.829
26095W        W89819  36.392  25.074  12.378
26096W        W89820  27.604  26.553  13.466
26097W        W89821   6.358   3.913  11.608
26098W        W89822  40.410  27.586   4.165
26099W        W89823   1.797   6.380  11.945
26100W        W89824   4.285   1.441   2.399
26101W        W89825  31.907   2.452   0.768
26102W        W89826  21.613  26.987  12.095
26103W        W89827  41.904  19.203   3.636
26104W        W89828  11.367  12.133  11.125
26105W        W89829  43.433  31.493   4.604
26106W        W89830   9.213  17.627   4.134
26107W        W89831  30.032  30.108  14.820
26108W        W89832  29.596  32.088  13.529
26109W        W89833  28.439  37.440  14.963
26110W        W89834  37.961  43.929   0.757
26111W        W89835   1.783   9.677  13.027
26112W        W89836  36.357  15.713   4.716
26113W        W89837  43.311  16.189  10.432
26114W        W89838  31.934   1.460   0.838
26115W        W89839  31.063  15.223   2.764
26116W        W89840   5.433  15.644   3.216
26117W        W89841  37.044  44.891  12.423
26118W        W89842   2.775  24.204  11.980
26119W        W89843  12.273   2.299   4.756
26120W        W89844  27.682   7.389   3.311
26121W        W89845   1.448  21.215  12.952
26122W        W89846  22.248  40.480  12.918
26123W        W89847  24.523  35.442   0.827
26124W        W89848  44.309  19.116  10.514
26125W        W89849  20.733  23.502  13.796
26126W        W89850  25.007  39.413   1.925
26127W        W89851  21.661  19.585   5.187
26128W        W89852  15.287  19.237  11.451
26129W        W89853  27.664  11.155   0.859
26130W        W89854  10.782   6.738  11.470
26131W        W89855  38.510  36.367  13.836
26132W        W89856   4.440  22.194  12.509
26133W        W89857  22.045  37.398  11.391
26134W        W89858  42.380  42.343  14.981
26135W        W89859  21.244  43.415  13.982
26136W        W89860  26.172  16.610  11.106
26137W        W89861   5.903  44.810  11.996
26138W        W89862  44.754  21.543   2.344
26139W        W89863   4.242  18.766  14.446
26140W        W89864  12.258   7.753  12.350
26141W        W89865  15.756  20.190   0.334
26142W        W89866   2.418  39.531   3.824
26143W        W89867  10.703  12.174   2.229
26144W        W89868  25.569   0.765   2.677
26145W        W89869   5.728  16.073   0.247
26146W        W89870  19.224  37.357   2.863
26147W        W89871  26.459  33.043  14.853
26148W        W89872  19.746  17.733   3.637
26149W        W89873  15.666  28.022  10.612
26150W        W89874   1.316  21.741   2.288
26151W        W89875  28.047  18.212  12.951
26152W        W89876  33.522  17.708   1.727
26153W        W89877  16.673  18.071  11.522
26154W        W89878  11.251  25.613  13.417
26155W        W89879  34.102  13.156  11.954
26156W        W89880  38.545  38.054   1.396
26157W        W89881  17.109  31.108   0.732
26158W        W89882  19.267  40.001  10.025
26159W        W89883  15.173  28.680   2.807
26160W        W89884  11.184  12.783  13.399
26161W        W89885  26.563  12.852   3.700
26162W        W89886  27.501  19.072  10.456
26163W        W89887   7.876  25.674  13.986
26164W        W89888   1.794   8.312  13.518
26165W        W89889  26.159  35.892   1.919
26166W        W89890  15.261  26.630   0.751
26167W        W89891  26.004  30.122  14.313
26168W        W89892  37.561   5.796   2.360
26169W        W89893  22.525  21.048  12.027
26170W        W89894  18.726  43.863   1.232
26171W        W89895   6.331  21.120   3.853
26172W        W89896  35.420  33.001  10.462
26173W        W89897  35.892   3.264  11.050
26174W        W89898  34.983  34.991   5.085
26175W        W89899   5.687  25.978   2.240
26176W        W89900  10.770  21.184   4.307
26177W        W89901  44.321  31.021  13.806
26178W        W89902  25.676  14.822  12.044
26179W        W89903  35.041  18.732  12.840
26180W        W89904  15.229  31.623   0.414
26181W        W89905  32.047  17.747   3.246
26182W        W89906  40.808  13.826  12.978
26183W        W89907  19.117  42.480  13.515
26184W        W89908  35.049  10.697   4.603
26185W        W89909  21.698   6.256   3.170
26186W        W89910  34.875  16.305  13.942
26187W        W89911   2.472  39.500   0.479
26188W        W89912  39.344   2.809   0.359
26189W        W89913  27.524  39.345   3.852
26190W        W89914  24.563  37.859  12.347
26191W        W89915  29.958  29.600   1.713
26192W        W89916   2.448   7.368   0.904
26193W        W89917  40.499  25.708  14.813
26194W        W89918   8.308  12.651   2.725
26195W        W89919  18.261  43.870   1.446
26196W        W89920  15.084  39.941  13.446
26197W        W89921  19.237   9.888   4.733
26198W        W89922  14.339   4.232   3.820
26199W        W89923  12.610  17.118   0.961
26200W        W89924  40.914  34.897   3.869
26201W        W89925  30.607  26.487   1.809
26202W        W89926  34.421  38.510  12.472
26203W        W89927  39.462  12.254  10.974
26204W        W89928  28.503  24.482  14.399
26205W        W89929  39.402  32.093  11.989
26206W        W89930  44.303  17.261   2.289
26207W        W89931  23.707  37.867  14.476
26208W        W89932  12.236  25.984   0.413
26209W        W89933   6.718  39.345   0.942
26210W        W89934  20.106   2.375  13.474
26211W        W89935  38.374  34.909   1.311
26212W        W89936  26.953  16.589   0.817
26213W        W89937  40.534  44.846  13.853
26214W        W89938  13.178   2.316  12.825
26215W        W89939  10.830  10.372  10.036
26216W        W89940  25.973  40.800  11.377
26217W        W89941   1.423  24.187  10.442
26218W        W89942  30.003  31.413  10.603
26219W        W89943   4.279  27.110   0.324
26220W        W89944  40.963  20.089  11.118
26221W        W89945  44.298  18.157   3.699
26222W        W89946  33.535  40.515   4.711
26223W        W89947  21.150  38.844   2.740
26224W        W89948  38.472  42.781  11.037
26225W        W89949   9.811  12.811   0.312
26226W        W89950  31.921  15.778  10.506
26227W        W89951  40.475  26.978   1.262
26228W        W89952   6.726  28.559  12.940
26229W        W89953  15.749  13.210   1.328
26230W        W89954   8.348  42.427  11.911
26231W        W89955  10.663  26.983   1.310
26232W        W89956   5.912  30.649   3.159
26233W        W89957   4.872  26.659   4.136
26234W        W89958  23.111  14.298  13.833
26235W        W89959   3.276  22.229  12.498
26236W        W89960   8.359  26.086  13.337
26237W        W89961  23.717  21.643   3.676
26238W        W89962   3.882  12.159  12.836
26239W        W89963  43.908  14.709  12.849
26240W        W89964  41.481  39.423  12.418
26241W        W89965  20.139  40.439  12.498
26242W        W89966  35.912  20.086   2.667
26243W        W89967  23.542  21.159   2.719
26244W        W89968   2.304  38.447  12.413
26245W        W89969  35.908  16.603   0.373
26246W        W89970  24.551  12.273  10.447
26247W        W89971  25.132  30.430   5.160
26248W        W89972  38.521  14.699  12.556
26249W        W89973  39.868  25.999   2.316
26250W        W89974  38.382  30.970   4.773
26251W        W89975   8.374   1.814  11.038
26252W        W89976  18.162  24.673   4.718
26253W        W89977  36.987  29.497  14.961
26254W        W89978  38.872  25.091   5.212
26255W        W89979  40.044  39.509   2.835
26256W        W89980   2.373  41.009  12.537
26257W        W89981  17.633  39.884  14.890
26258W        W89982  17.168  31.629   0.934
26259W        W89983   2.935   4.301   3.216
26260W        W89984  23.736  42.986  14.301
26261W        W89985   4.419  41.864   0.367
26262W        W89986  31.954  23.029  11.580
26263W        W89987  11.166  29.484   0.907
26264W        W89988  21.523   6.421  13.963
26265W        W89989  27.174  32.964   1.246
26266W        W89990  28.093  26.207  11.934
26267W        W89991   3.822  39.463   0.755
26268W        W89992  40.817   4.312  13.326
26269W        W89993  19.735  39.325   0.395
26270W        W89994   5.281  44.938   2.716
26271W        W89995  38.977  19.620  12.525
26272W        W89996  33.457  17.177  12.415
26273W        W89997   0.322  17.078   1.311
26274W        W89998   9.689  27.488   0.782
26275W        W89999  39.520  34.384  14.894
26276W        W90000  35.883  19.154   0.378
26277W        W90001  35.416  21.101   4.824
26278W        W90002  37.030  37.558  12.878
26279W        W90003  26.626  19.158  11.986
26280W        W90004  13.818  41.928   0.867
26281W        W90005  37.969  17.670  13.852
26282W        W90006   6.380  32.024   0.468
26283W        W90007  43.396   1.373  12.364
26284W        W90008  29.553  33.954  11.894
26285W        W90009  22.009   7.768  11.436
26286W        W90010   9.195  34.612  13.866
26287W        W90011  22.121  22.098  13.881
26288W        W90012  25.158  39.912  13.919
26289W        W90013  17.112  30.643  13.870
26290W        W90014   8.765  28.065   2.363
26291W        W90015   1.461  33.967   1.214
26292W        W90016  32.067  22.615   0.763
26293W        W90017  14.100  29.564   0.340
26294W        W90018  28.965  40.883   0.849
26295W        W90019  40.053  20.161   3.167
26296W        W90020   1.955  27.135   3.241
26297W        W90021   3.386   3.217  12.422
26298W        W90022  43.397  36.472   3.212
26299W        W90023  32.564  25.110  11.549
26300W        W90024  16.208  31.587   3.709
26301W        W90025  22.580  16.715   4.661
26302W        W90026  16.206  15.286   1.918
26303W        W90027  20.632  16.092  12.540
26304W        W90028  21.736  37.984   1.824
26305W        W90029  40.806  31.962   0.890
26306W        W90030  38.524  34.996  12.831
26307W        W90031  36.408   9.262   4.817
26308W        W90032  21.209  21.741  12.504
26309W        W90033   9.278  12.150   3.802
26310W        W90034  25.971  27.115   3.776
26311W        W90035  11.268  23.658   3.207
26312W        W90036  44.322  15.200  14.402
26313W        W90037   0.337  10.368   3.224
26314W        W90038  17.192   7.183   3.765
26315W        W90039  44.460  24.012  11.978
26316W        W90040  15.596  38.844   0.772
26317W        W90041  23.085  27.943  12.383
26318W        W90042  37.984  21.563   2.279
26319W        W90043   4.836  43.835  14.961
26320W        W90044  22.118  38.059   1.221
26321W        W90045  20.680  26.668   3.208
26322W        W90046   2.722   5.914  11.451
26323W        W90047  26.677  24.697  11.042
26324W        W90048  44.454  26.500   1.431
26325W        W90049  18.119  32.575   3.681
26326W        W90050   9.868  41.374   4.629
26327W        W90051  43.427  23.002   0.768
26328W        W90052   8.239  26.703   4.297
26329W        W90053  42.361   0.861  10.508
26330W        W90054  37.461   1.480  10.497
26331W        W90055  10.228  17.222   0.422
26332W        W90056  36.863  37.439  14.467
26333W        W90057  31.114   2.393  11.911
26334W        W90058  35.877  29.510  10.511
26335W        W90059  36.984  39.879   0.906
26336W        W90060  37.845  30.517   2.723
26337W        W90061  35.994   6.260   0.936
26338W        W90062   1.876   4.755  12.943
26339W        W90063  34.902  31.095   1.791
26340W        W90064   7.240  22.032   0.803
26341W        W90065  38.954  38.827   1.436
26342W        W90066  21.215  42.983  12.480
26343W        W90067  19.552  38.334  12.339
26344W        W90068  24.688   6.907   2.326
26345W        W90069   6.242  29.525   1.364
26346W        W90070  39.896   8.750   1.919
26347W        W90071  10.215  32.560  10.562
26348W        W90072  11.720  43.317  14.816
26349W        W90073   4.917   0.343   4.614
26350W        W90074   8.213  22.052   4.788
26351W        W90075   8.759  41.967  12.947
26352W        W90076  19.578  38.543   9.966
26353W        W90077  31.461   7.308  14.019
26354W        W90078  37.868  14.627  14.014
26355W        W90079   8.335  15.720   4.746
26356W        W90080   0.856  37.070   1.919
26357W        W90081   2.747  26.577   1.776
26358W        W90082  23.578  33.498   1.387
26359W        W90083  28.493  44.903   1.727
26360W        W90084   6.406  34.091   0.331
26361W        W90085  41.794  13.643   2.879
26362W        W90086  24.679  23.084   0.785
26363W        W90087  23.561   7.404  14.767
26364W        W90088  30.965  31.067   0.467
26365W        W90089  38.888   5.332   2.402
26366W        W90090   0.272  16.694  12.972
26367W        W90091  26.965  15.735  11.982
26368W        W90092  29.974   8.825  11.459
26369W        W90093  34.915  22.010   4.262
26370W        W90094  27.452  34.486  12.947
26371W        W90095  26.636  22.578  10.497
26372W        W90096   3.342  43.999  10.493
26373W        W90097  32.558  19.102   3.774
26374W        W90098  11.203  26.613   1.301
26375W        W90099  17.556  13.123  12.505
26376W        W90100  20.035  21.634   1.429
26377W        W90101   2.729  42.988  13.309
26378W        W90102  16.315  26.542   1.698
26379W        W90103  31.432  24.495   0.344
26380W        W90104  24.191  14.152   0.827
26381W        W90105  35.018  20.750  13.925
26382W        W90106  43.920  42.801   4.138
26383W        W90107  14.320  26.180   0.850
26384W        W90108   1.905  26.466   0.290
26385W        W90109   6.321  35.394   0.862
26386W        W90110  21.711  18.659  14.382
26387W        W90111  11.186   9.345   0.928
26388W        W90112  36.031  19.735   2.415
26389W        W90113  15.120  40.999   3.709
26390W        W90114  31.042   8.725  14.945
26391W        W90115   8.890  16.117  11.372
26392W        W90116  21.683   2.821   4.769
26393W        W90117   3.790  19.147  10.413
26394W        W90118  35.409  20.534   4.644
26395W        W90119  28.010   3.283  12.992
26396W        W90120  39.921  21.044   2.702
26397W        W90121  23.666   3.848   0.408
26398W        W90122  28.681  43.469  13.997
26399W        W90123   5.705  38.072   2.859
26400W        W90124  12.361  21.648   0.359
26401W        W90125  13.774  12.691  12.090
26402W        W90126  27.658  44.379   1.298
26403W        W90127  17.133  35.938  10.006
26404W        W90128  34.568  41.903   2.190
26405W        W90129  40.871  22.030  14.994
26406W        W90130  38.054  29.458  14.442
26407W        W90131  12.298   9.179  10.575
26408W        W90132  40.476  26.610  12.828
26409W        W90133  24.572  17.745  13.836
26410W        W90134  16.185  19.776  14.284
26411W        W90135   1.421  16.637   1.265
26412W        W90136  21.738  32.004  12.895
26413W        W90137  35.856  35.522  13.467
26414W        W90138   5.722  10.783   4.631
26415W        W90139  31.909  26.508  11.125
26416W        W90140  25.589  42.797   3.247
26417W        W90141  10.176  38.062  14.313
26418W        W90142  43.340  12.666  11.100
26419W        W90143  29.175  44.472  11.077
26420W        W90144  36.084   1.415  11.059
26421W        W90145  32.397  27.611   2.321
26422W        W90146  27.517  39.548   2.868
26423W        W90147  14.143  28.627   0.342
26424W        W90148  16.678  11.306   3.172
26425W        W90149  33.039  40.017  12.084
26426W        W90150  20.542  28.503  12.074
26427W        W90151  17.284  20.227   3.773
26428W        W90152   2.959   8.401   0.889
26429W        W90153  18.246  38.569   0.866
26430W        W90154   6.920  13.248   1.318
26431W        W90155  28.986  31.119  11.085
26432W        W90156   7.732  38.907  10.606
26433W        W90157  21.165  25.703  10.908
26434W        W90158  36.923   7.260  11.996
26435W        W90159  24.518  13.124   1.829
26436W        W90160  32.600  24.614  11.071
26437W        W90161  44.795  20.273   0.937
26438W        W90162  28.595   8.347   1.383
26439W        W90163  36.379  32.085   2.190
26440W        W90164  37.850  30.924  11.373
26441W        W90165  26.018  43.901  10.990
26442W        W90166   4.371  18.164   0.869
26443W        W90167  41.843  31.960  14.972
26444W        W90168  13.789  42.875  13.539
26445W        W90169  16.151  38.438  12.931
26446W        W90170  25.627   4.351   2.244
26447W        W90171  33.966  38.935   4.616
26448W        W90172   5.289  29.618   0.254
26449W        W90173  11.795  10.247  13.892
26450W        W90174  41.308   8.716   4.608
26451W        W90175  37.945  34.060  13.320
26452W        W90176  21.743  21.221  14.473
26453W        W90177  28.066  39.389  13.365
26454W        W90178  22.568   7.353  13.038
26455W        W90179  37.067  38.034   4.146
26456W        W90180   7.844  26.622   4.117
26457W        W90181  13.143   5.908   0.911
26458W        W90182  20.212   1.424   1.277
26459W        W90183   0.300  16.208   0.751
26460W        W90184  35.517  38.427  12.052
26461W        W90185  24.223  37.078  13.910
26462W        W90186  30.027  15.137   0.415
26463W        W90187   2.736   9.240  14.335
26464W        W90188  39.372  35.522  14.918
26465W        W90189  38.366   3.816  10.948
26466W        W90190  22.604  43.446  13.476
26467W        W90191  29.120   7.717   3.686
26468W        W90192  16.749  44.960   1.904
26469W        W90193  19.224  40.907  11.517
26470W        W90194  26.121   0.920  14.805
26471W        W90195  24.155  34.394   2.298
26472W        W90196   3.809  14.746  14.984
26473W        W90197  42.294  21.729   3.681
26474W        W90198  20.659  23.128   4.754
26475W        W90199  15.137   7.303   0.372
26476W        W90200   1.391  21.061  13.495
26477W        W90201  39.525  39.980  10.138
26478W        W90202   9.185  21.537   4.602
26479W        W90203   4.802   6.227   1.225
26480W        W90204  29.111  44.824   0.368
26481W        W90205   2.922  20.105  12.977
26482W        W90206  38.861  33.992   2.267
26483W        W90207  15.094  20.133  13.418
26484W        W90208   6.870   5.274   1.783
26485W        W90209  43.920  25.168  12.895
26486W        W90210  37.339  35.894   0.259
26487W        W90211  27.456  28.043   2.251
26488W        W90212  10.753  13.234  10.568
26489W        W90213  21.092  36.439  13.989
26490W        W90214  26.207  10.179  14.370
26491W        W90215  13.201   9.297  14.505
26492W        W90216   6.691  38.072   2.704
26493W        W90217  41.377  23.534   2.898
26494W        W90218  38.991   4.874  14.339
26495W        W90219  34.951  11.227  14.763
26496W        W90220  41.892   5.735   2.719
26497W        W90221   0.320  40.547  14.405
26498W        W90222  14.264  20.668  11.445
26499W        W90223  30.160  10.359  12.405
26500W        W90224  22.739  19.561  11.897
26501W        W90225  27.143   4.769  10.117
26502W        W90226  31.494  32.108  14.394
26503W        W90227  37.915   5.386  12.452
26504W        W90228  35.028  10.646   1.440
26505W        W90229  21.516  16.297   1.409
26506W        W90230  33.090   0.967  14.476
26507W        W90231   6.720   4.704   4.714
26508W        W90232  19.589  36.401  13.505
26509W        W90233   4.848  11.265  13.816
26510W        W90234  21.251  37.386   5.304
26511W        W90235  39.340   4.911  11.600
26512W        W90236  27.523  21.216   4.320
26513W        W90237  41.472  17.189  14.445
26514W        W90238  33.958  14.267   0.781
26515W        W90239  28.537  10.216   2.213
26516W        W90240  18.267  34.513  13.915
26517W        W90241  30.062  19.068  14.383
26518W        W90242  35.043  25.003  14.878
26519W        W90243  27.158  29.436  13.015
26520W        W90244  28.523  36.889   3.821
26521W        W90245  25.150  18.286   4.246
26522W        W90246  34.368  18.680   2.303
26523W        W90247  42.797  24.181  12.494
26524W        W90248  13.261  19.770   0.389
26525W        W90249  35.452  20.584  11.078
26526W        W90250  19.714  34.044   3.712
26527W        W90251  29.615  28.997   0.393
26528W        W90252   1.389  40.919   3.728
26529W        W90253  13.846  29.968  13.949
26530W        W90254  36.557  21.227  13.899
26531W        W90255  20.093  43.839   4.309
26532W        W90256   6.695  15.765   3.346
26533W        W90257  20.088   4.255   0.384
26534W        W90258  23.104   6.380  12.889
26535W        W90259  33.890  44.796  11.028
26536W        W90260   7.197  12.627  12.841
26537W        W90261  32.893  10.733   3.711
26538W        W90262   5.873  13.756  11.457
26539W        W90263  12.241  30.589   4.204
26540W        W90264  36.856  17.091   2.785
26541W        W90265  28.602  13.730   3.149
26542W        W90266  41.313   5.814  11.912
26543W        W90267   3.825   8.741  10.621
26544W        W90268  22.212  33.494   4.732
26545W        W90269   0.295   7.323   3.238
26546W        W90270  31.454  40.039   0.742
26547W        W90271  30.454  21.029   4.259
26548W        W90272  15.095  35.858   4.337
26549W        W90273  28.491  38.836   1.837
26550W        W90274  44.973  12.739   3.754
26551W        W90275  14.109  34.496  13.307
26552W        W90276  19.755  26.554  11.912
26553W        W90277   0.310  15.627  14.988
26554W        W90278  39.945  39.930  14.913
26555W        W90279  43.464  20.097   1.798
26556W        W90280  43.286  23.010  14.480
26557W        W90281  27.968  21.186   2.838
26558W        W90282  28.098  16.179  11.871
26559W        W90283  41.318   6.365  12.454
26560W        W90284  14.274  29.614   4.760
26561W        W90285  15.209  35.532   1.766
26562W        W90286  27.618   1.268  14.783
26563W        W90287   4.744  17.215   4.762
26564W        W90288   7.861  28.673   4.801
26565W        W90289  13.620  41.008   4.736
26566W        W90290  26.654  32.511  11.927
26567W        W90291  31.923  28.044   3.317
26568W        W90292   2.782  34.412  10.413
26569W        W90293  37.471  22.747   5.261
26570W        W90294   8.843  44.335   3.314
26571W        W90295  28.534  20.110  13.903
26572W        W90296  11.805  28.508  12.036
26573W        W90297  33.073  12.686  14.322
26574W        W90298  34.115  37.917   1.433
26575W        W90299  20.177  13.726  10.443
26576W        W90300   9.332  22.134  11.586
26577W        W90301   8.308  40.314  12.931
26578W        W90302  12.804  39.390   1.832
26579W        W90303   0.816  31.987   4.807
26580W        W90304  36.873  27.505  11.034
26581W        W90305  11.768  21.031  14.899
26582W        W90306   4.305  42.881  14.483
26583W        W90307   6.870  31.609   3.656
26584W        W90308   1.331  20.606   0.393
26585W        W90309  10.276  14.818  12.036
26586W        W90310  44.973  21.652  10.949
26587W        W90311   8.743  17.749  11.981
26588W        W90312  35.528  15.687   2.702
26589W        W90313  14.219  21.680   2.848
26590W        W90314  33.925  23.019   1.828
26591W        W90315  29.931  11.636   0.298
26592W        W90316   6.789  29.511   2.875
26593W        W90317  44.425  10.763  10.640
26594W        W90318   5.927  33.916   1.251
26595W        W90319   9.665  41.934   3.847
26596W        W90320  31.599  11.191  12.054
26597W        W90321  41.830  20.241  10.896
26598W        W90322  33.580  40.369  13.453
26599W        W90323  25.597   7.836   3.729
26600W        W90324  25.711  16.775   1.852
26601W        W90325   5.353  13.785   0.276
26602W        W90326  38.370  31.135  13.391
26603W        W90327  33.550   1.378   0.386
26604W        W90328  35.592  14.279   2.278
26605W        W90329  19.175  23.015  14.021
26606W        W90330   1.804  36.444   0.273
26607W        W90331  30.097   8.824   1.719
26608W        W90332  29.501  26.567  14.474
26609W        W90333  18.765   9.726   0.922
26610W        W90334  27.540  37.371  13.937
26611W        W90335  27.449  11.161   5.218
26612W        W90336  40.803  27.579   2.192
26613W        W90337  40.797   5.307  12.047
26614W        W90338  28.961  28.089   3.146
26615W        W90339  15.193   7.879  11.889
26616W        W90340  15.290  24.716  13.855
26617W        W90341  40.869  25.054  14.786
26618W        W90342  41.865  39.813   4.234
26619W        W90343  24.163  17.250   1.376
26620W        W90344  43.800   7.813   1.389
26621W        W90345  18.645  39.422  12.481
26622W        W90346   6.755  13.724  14.920
26623W        W90347  12.267  27.122  10.433
26624W        W90348  43.812  33.558  10.572
26625W        W90349  19.708  26.011   3.638
26626W        W90350  44.443  36.407   4.187
26627W        W90351  18.248  19.078  10.611
26628W        W90352  32.586  20.553  10.465
26629W        W90353   1.795  41.402   0.282
26630W        W90354  26.107  16.569   3.204
26631W        W90355  25.111  39.837   3.844
26632W        W90356  14.691  19.176  12.476
26633W        W90357  37.964  44.432   2.351
26634W        W90358  28.092  38.843   5.225
26635W        W90359   7.797  32.982  13.482
26636W        W90360  42.414  19.197  14.820
26637W        W90361  19.656   3.403   1.382
26638W        W90362  32.935  26.129  14.420
26639W        W90363  11.211   7.216   0.788
26640W        W90364  38.017  39.547  13.515
26641W        W90365   8.221  11.250  13.497
26642W        W90366  26.620  21.038  13.852
26643W        W90367  15.781  17.622   0.433
26644W        W90368  39.416  29.039   3.778
26645W        W90369   3.761  35.476  14.898
26646W        W90370  34.382   9.649   2.295
26647W        W90371  38.425   5.289   1.824
26648W        W90372  38.015  10.216   1.228
26649W        W90373  31.153   1.264  14.471
26650W        W90374   1.430  21.132   0.404
26651W        W90375  32.607  10.300  11.450
26652W        W90376  40.473  42.471   0.747
26653W        W90377  26.685  13.121  14.345
26654W        W90378   1.448   6.774  14.872
26655W        W90379  17.172  24.067   3.821
26656W        W90380   5.365  21.159  14.762
26657W        W90381   4.757  38.004   0.926
26658W        W90382  14.190  20.224  10.969
26659W        W90383  44.841  15.131   4.630
26660W        W90384  25.487  23.135  10.907
26661W        W90385  38.047  23.105   2.409
26662W        W90386  34.893  36.389   2.711
26663W        W90387  14.200  33.454   4.603
26664W        W90388  30.018  29.662   2.363
26665W        W90389   9.350  37.993  13.339
26666W        W90390  22.533  17.153  12.001
26667W        W90391  29.471  34.559   2.363
26668W        W90392  31.085  12.690   2.341
26669W        W90393  12.718  29.659  11.095
26670W        W90394  10.841  22.548   0.247
26671W        W90395   2.748  19.743   4.214
26672W        W90396  14.621  42.932   1.221
26673W        W90397  30.992  35.394  12.057
26674W        W90398  41.395  24.716   2.889
26675W        W90399  28.122  12.123  14.772
26676W        W90400   5.388  37.520  10.512
26677W        W90401   4.939  38.890   4.715
26678W        W90402  15.133  36.997  13.395
26679W        W90403  37.919  25.542   0.277
26680W        W90404  14.324  11.691  10.959
26681W        W90405  10.677   1.881   0.884
26682W        W90406  10.324   1.910   4.263
26683W        W90407  30.450   5.295   0.394
26684W        W90408  43.018  30.615  13.823
26685W        W90409   5.880  12.755  14.779
26686W        W90410   8.228  43.963  12.837
26687W        W90411  22.532  32.065   4.660
26688W        W90412   7.257  40.465  14.426
26689W        W90413  14.260  29.463  12.570
26690W        W90414  10.768  13.666   0.741
26691W        W90415  25.530   0.410  13.953
26692W        W90416  20.591  44.999   3.303
26693W        W90417   7.305  26.578   3.643
26694W        W90418  35.873  34.871   1.879
26695W        W90419  19.133  34.934  13.828
26696W        W90420  39.854  15.808  10.452
26697W        W90421  41.835  31.103  13.466
26698W        W90422  41.510  18.777   2.742
26699W        W90423  41.321  21.057   2.187
26700W        W90424  27.940  35.929   3.208
26701W        W90425  19.229  28.994  14.016
26702W        W90426  38.024  11.641  10.917
26703W        W90427  32.911  17.562   2.291
26704W        W90428  23.589  15.319  14.820
26705W        W90429  13.279  10.179   2.342
26706W        W90430  30.471  36.363  14.820
26707W        W90431  11.816  41.814   3.305
26708W        W90432  39.928  21.655   2.687
26709W        W90433  32.926  43.986   1.746
26710W        W90434  22.142  15.735   0.462
26711W        W90435  24.603  19.064  12.477
26712W        W90436  29.617   8.879  10.928
26713W        W90437  32.613  15.791   2.306
26714W        W90438   4.303  37.060  11.914
26715W        W90439  13.136  16.178   0.321
26716W        W90440  12.216  27.588  11.975
26717W        W90441  43.927  20.030  10.891
26718W        W90442  25.045   9.725  10.512
26719W        W90443   8.286  38.835  14.977
26720W        W90444  12.199  16.778  12.578
26721W        W90445  15.106   8.316   9.956
26722W        W90446  38.823  34.556  14.761
26723W        W90447  42.349   4.894   0.771
26724W        W90448  36.948  24.226  12.969
26725W        W90449  22.712   8.400   2.408
26726W        W90450  15.257  35.364   4.201
26727W        W90451  24.660  17.088  13.317
26728W        W90452  27.008   9.753  14.341
26729W        W90453   4.849   1.802  14.459
26730W        W90454  26.008   3.828   3.837
26731W        W90455   1.945  11.856   2.336
26732W        W90456  28.478  32.006   4.289
26733W        W90457  11.128  15.737  14.810
26734W        W90458  24.088  10.306   4.650
26735W        W90459  24.180  25.096  13.971
26736W        W90460  21.727  30.088  11.085
26737W        W90461  25.051   3.273  14.778
26738W        W90462  31.414  44.809   1.247
26739W        W90463  17.293  28.144  13.318
26740W        W90464  39.521  19.768   2.722
26741W        W90465   1.744   9.212   0.380
26742W        W90466  15.770  23.157   1.230
26743W        W90467  43.858  37.460   0.251
26744W        W90468  42.824  34.025   2.902
26745W        W90469  39.896   2.379   1.256
26746W        W90470   1.248  13.642   4.600
26747W        W90471  25.126  29.545  13.441
26748W        W90472  34.039  38.002  11.983
26749W        W90473  12.272  30.602  14.489
26750W        W90474  12.286   9.170   2.673
26751W        W90475  34.497   7.338  12.859
26752W        W90476  11.316  22.095   0.894
26753W        W90477  13.656  11.783   1.377
26754W        W90478  44.904   0.465   1.799
26755W        W90479  11.308  38.856  10.898
26756W        W90480  43.014   8.740   0.850
26757W        W90481  24.142  28.016   4.730
26758W        W90482  31.075  12.213   4.308
26759W        W90483   9.805  28.042   0.949
26760W        W90484  31.603  25.588  14.405
26761W        W90485  26.634   4.874   2.210
26762W        W90486   6.847  40.886   2.319
26763W        W90487   0.440  44.322   0.358
26764W        W90488  33.497   6.708   0.452
26765W        W90489  30.160  26.099   0.786
26766W        W90490   6.854  30.588   1.358
26767W        W90491  13.249  34.511  11.521
26768W        W90492  28.436  27.974  14.468
26769W        W90493  40.970   5.721  11.585
26770W        W90494  36.572  12.296  14.306
26771W        W90495  26.646  11.262  12.041
26772W        W90496   0.951  31.966   2.327
26773W        W90497  14.589  21.613  14.422
26774W        W90498  32.393  43.905   1.709
26775W        W90499   3.355   0.767   5.246
26776W        W90500  31.134  24.082  12.001
26777W        W90501  24.039  22.120   1.394
26778W        W90502  15.186  33.561   0.849
26779W        W90503   1.880  13.682   0.466
26780W        W90504  38.900   1.395   2.180
26781W        W90505  41.887   4.780   4.824
26782W        W90506  14.193  14.597   4.314
26783W        W90507   1.253   0.800  11.079
26784W        W90508   9.329  34.457  12.950
26785W        W90509  24.649  19.110   2.225
26786W        W90510   2.454  29.136  13.042
26787W        W90511   2.235  44.460   4.155
26788W        W90512  44.921  43.962   4.710
26789W        W90513  27.150  10.633   5.756
26790W        W90514  26.956  12.275   9.561
26791W        W90515  33.420  35.055  14.431
26792W        W90516  22.634   1.834  10.421
26793W        W90517  44.269  27.572   4.193
26794W        W90518  21.720  15.677  12.381
26795W        W90519  33.132  33.875  11.906
26796W        W90520   4.918  40.348   0.426
26797W        W90521  24.533  15.630   3.773
26798W        W90522   5.292   1.297   3.659
26799W        W90523  20.613  16.813  10.419
26800W        W90524  35.380  35.494  13.810
26801W        W90525  32.542   6.755  14.304
26802W        W90526  26.098   0.926   3.649
26803W        W90527   1.357   1.336   3.860
26804W        W90528  33.914  12.211  10.999
26805W        W90529  16.800  12.647   3.863
26806W        W90530  29.538   5.825   2.365
26807W        W90531  36.382  25.658   1.744
26808W        W90532  35.082  14.815   1.320
26809W        W90533   0.843  36.982  10.489
26810W        W90534  44.371  34.395  13.817
26811W        W90535  16.108  26.681   4.142
26812W        W90536  41.971  16.244   0.769
26813W        W90537  20.767  18.664  12.001
26814W        W90538  36.435  42.359   4.210
26815W        W90539  23.129  17.238   1.315
26816W        W90540  38.494   6.878   0.925
26817W        W90541  25.658  29.058   2.204
26818W        W90542  36.049  29.582   4.828
26819W        W90543  14.104   8.834  12.391
26820W        W90544  42.862   9.231  11.011
26821W        W90545   3.304  20.609  12.894
26822W        W90546  36.031  33.964  13.883
26823W        W90547  32.561  11.360   2.414
26824W        W90548   5.835  18.612   2.279
26825W        W90549  36.938  37.391  11.583
26826W        W90550  44.483  24.042  12.407
26827W        W90551  39.842  29.424   1.283
26828W        W90552  42.983  22.624   3.732
26829W        W90553  21.104  12.841  14.774
26830W        W90554   5.831   1.911  12.382
26831W        W90555   8.171   1.250   2.775
26832W        W90556  43.800  20.722   3.775
26833W        W90557  27.144  33.513   2.257
26834W        W90558  31.519  19.193  14.287
26835W        W90559   8.242   4.269  14.949
26836W        W90560   5.345  21.589   2.841
26837W        W90561  35.505  33.580  10.455
26838W        W90562   9.309   7.270   9.962
26839W        W90563   6.185  24.009   0.902
26840W        W90564  40.941  33.926  11.911
26841W        W90565  36.348   3.894  10.998
26842W        W90566  18.562  26.116   1.332
26843W        W90567  14.668  44.976  14.807
26844W        W90568  33.430  25.999   3.842
26845W        W90569  20.082  18.610  13.319
26846W        W90570  30.077   5.705   1.875
26847W        W90571   3.762  25.963  12.015
26848W        W90572   3.716  22.542  11.016
26849W        W90573   3.440  44.336  12.066
26850W        W90574  38.457   5.851  10.503
26851W        W90575  42.455  20.042   0.471
26852W        W90576  24.671  26.093  12.399
26853W        W90577  42.356  11.352   1.922
26854W        W90578  14.165   6.834   3.785
26855W        W90579  22.567  11.654   4.604
26856W        W90580  10.845  34.051  12.382
26857W        W90581  16.109  28.491  11.126
26858W        W90582  22.143  13.837   3.700
26859W        W90583   0.796   7.697  14.985
26860W        W90584  30.562   3.265  14.366
26861W        W90585  12.811  35.022  13.416
26862W        W90586   9.822  25.147  10.900
26863W        W90587  43.983   2.909  14.845
26864W        W90588  17.117  41.513  10.984
26865W        W90589  44.268  32.913  11.033
26866W        W90590  44.865  38.871   1.288
26867W        W90591   0.356  18.685  10.411
26868W        W90592  24.518  33.619  13.945
26869W        W90593  21.575  35.584  11.967
26870W        W90594   2.834  31.487  11.057
26871W        W90595  31.044  11.776   1.773
26872W        W90596  27.941  14.670  13.990
26873W        W90597  14.764  43.504  14.831
26874W        W90598  17.770   2.468   0.455
26875W        W90599   3.815  39.516  13.504
26876W        W90600  37.498   2.923   2.362
26877W        W90601   8.756  41.352   1.410
26878W        W90602  12.659  11.795  10.888
26879W        W90603   4.736  10.355   0.856
26880W        W90604  21.203  32.931  14.457
26881W        W90605  25.622  41.010   4.256
26882W        W90606  28.481  30.434  14.921
26883W        W90607   2.351  29.509   3.661
26884W        W90608  43.972  29.584   1.756
26885W        W90609   8.379  40.916   4.176
26886W        W90610  14.197  41.014   0.346
26887W        W90611  30.159  19.267   2.778
26888W        W90612   7.797  14.712  12.857
26889W        W90613  29.163  34.888   2.849
26890W        W90614  30.550  25.111   1.451
26891W        W90615  20.136  23.061  14.971
26892W        W90616  18.213   1.754   3.334
26893W        W90617  29.469  25.599   1.697
26894W        W90618  19.042  19.742   3.672
26895W        W90619  24.525  41.505  12.921
26896W        W90620   6.342  13.350   3.184
26897W        W90621  20.137  25.021   1.867
26898W        W90622  38.034  10.368   2.256
26899W        W90623  22.556  30.416  13.455
26900W        W90624  19.749  44.277  11.915
26901W        W90625  17.222   5.729   3.819
26902W        W90626  18.765  26.464   5.227
26903W        W90627  36.043  18.158   1.836
26904W        W90628  17.186   0.248  12.881
26905W        W90629   1.825  28.452   4.673
26906W        W90630  12.282  25.143  13.986
26907W        W90631  40.872  28.446   3.213
26908W        W90632  29.157  34.991  11.395
26909W        W90633   4.208  22.692   1.729
26910W        W90634   3.712  43.333  11.383
26911W        W90635  27.152  42.964   1.390
26912W        W90636   8.381   8.238  11.101
26913W        W90637  20.694  18.599   3.212
26914W        W90638  13.106  21.569  12.523
26915W        W90639  40.921  21.204   2.235
26916W        W90640  38.881  37.973   2.283
26917W        W90641  15.278  32.061  12.984
26918W        W90642  20.695   4.934   4.680
26919W        W90643   6.299   5.746   4.223
26920W        W90644  35.460  13.258   2.294
26921W        W90645  35.430  14.670   4.297
26922W        W90646  39.927  25.533  14.986
26923W        W90647   9.792  13.806  11.454
26924W        W90648  13.347  37.524   4.169
26925W        W90649  30.595   3.451  11.004
26926W        W90650   7.726  40.023  13.929
26927W        W90651   8.165  12.618   0.821
26928W        W90652   1.961   6.874   1.906
26929W        W90653  19.776  32.950   2.304
26930W        W90654  33.532  24.975  11.032
26931W        W90655  31.924  14.651   3.724
26932W        W90656  33.024  23.489  11.002
26933W        W90657   9.271  28.651  10.517
26934W        W90658  29.628  23.011   3.646
26935W        W90659  22.554  14.224   1.210
26936W        W90660   3.230  26.700   5.114
26937W        W90661  28.155  37.417  14.005
26938W        W90662   6.403   8.221  12.394
26939W        W90663  19.734  14.743   2.708
26940W        W90664   3.863   0.375   3.237
26941W        W90665  24.148  15.670  13.972
26942W        W90666   5.346   5.403  14.283
26943W        W90667   8.763  18.275   4.677
26944W        W90668  33.422  23.619  10.597
26945W        W90669  30.494   3.443   4.771
26946W        W90670  19.682  12.747  14.505
26947W        W90671  29.570  27.598   1.348
26948W        W90672  21.638  35.024   4.165
26949W        W90673  28.026  16.074  13.988
26950W        W90674  16.607  40.806  11.498
26951W        W90675  14.643  24.976   2.842
26952W        W90676  21.043  10.815   4.289
26953W        W90677  13.656  31.442   3.689
26954W        W90678  42.512  10.854   1.309
26955W        W90679  22.104  15.120  11.006
26956W        W90680  29.489   8.258  13.466
26957W        W90681  41.910  11.355   3.735
26958W        W90682  42.937  38.848   1.874
26959W        W90683  13.165   3.351  14.365
26960W        W90684  32.977  24.488   1.885
26961W        W90685  14.194  22.535   4.193
26962W        W90686  32.578  34.430   1.278
26963W        W90687  27.059  12.701  14.919
26964W        W90688  13.296  34.373   0.931
26965W        W90689  34.481  14.623   9.468
26966W        W90690  17.685  43.423  11.504
26967W        W90691  30.993  14.181   2.829
26968W        W90692   8.180  26.511  13.868
26969W        W90693   7.710  42.396  14.350
26970W        W90694   0.424  34.046   0.249
26971W        W90695  36.053   6.693  10.619
26972W        W90696  19.067  14.723   0.887
26973W        W90697  43.420  13.711  12.949
26974W        W90698  38.441   3.310  14.829
26975W        W90699  22.545  26.602  11.984
26976W        W90700  42.487  37.029  10.024
26977W        W90701  15.130  29.107  14.408
26978W        W90702  10.680   3.274  13.853
26979W        W90703  10.202   3.410  14.791
26980W        W90704  40.917  30.015   1.762
26981W        W90705  21.643  31.117  11.925
26982W        W90706   2.854  26.567  11.424
26983W        W90707   6.846  19.144  13.849
26984W        W90708  33.609  11.164  10.075
26985W        W90709   9.701  32.047   4.325
26986W        W90710  37.530  15.803   1.821
26987W        W90711  36.045  42.459  12.479
26988W        W90712  17.597   9.645  13.386
26989W        W90713  29.161  43.371   1.924
26990W        W90714  26.134  13.781   4.758
26991W        W90715  28.047  29.535   4.160
26992W        W90716   3.452  12.272  10.562
26993W        W90717   2.241  31.137  13.053
26994W        W90718  20.735  18.246  11.041
26995W        W90719  15.718  11.789   3.155
26996W        W90720   7.338  13.159  10.441
26997W        W90721  13.657  36.496   1.331
26998W        W90722  34.424  16.216  14.481
26999W        W90723  15.329   2.785  13.041
27000W        W90724  14.261   0.257   4.251
27001W        W90725  37.385  25.121  14.503
27002W        W90726  25.153   8.727   0.407
27003W        W90727   6.330   4.891   2.665
27004W        W90728  18.233  42.314  13.979
27005W        W90729  19.258  22.097   4.183
27006W        W90730  40.931  20.256  14.984
27007W        W90731  15.121  28.478  12.869
27008W        W90732  23.171  37.555   0.405
27009W        W90733  38.388  12.283  11.084
27010W        W90734  40.999  10.218  12.580
27011W        W90735  31.052  21.623   0.460
27012W        W90736  26.493  19.115   2.253
27013W        W90737  44.484  23.173   3.170
27014W        W90738   7.841  43.418  14.775
27015W        W90739  42.424  31.140  11.486
27016W        W90740  19.547  44.784   0.891
27017W        W90741  34.983  10.712  14.320
27018W        W90742  14.803  11.266  14.918
27019W        W90743  31.086  22.640   2.896
27020W        W90744  24.989  44.327  13.054
27021W        W90745  20.636  35.563   3.677
27022W        W90746  36.417  11.312  11.863
27023W        W90747  24.083  11.682   3.384
27024W        W90748  44.953  25.080  13.974
27025W        W90749  39.849  31.920  13.525
27026W        W90750  30.653  14.330  14.992
27027W        W90751   2.381   0.895   1.294
27028W        W90752  43.873   6.303   1.437
27029W        W90753  40.312  18.201   2.319
27030W        W90754  21.082  28.967   1.420
27031W        W90755  16.191  27.485  13.340
27032W        W90756   8.276  19.634   5.273
27033W        W90757  21.599   0.830  12.401
27034W        W90758  24.668  28.470   1.855
27035W        W90759  21.230  27.678   1.237
27036W        W90760  19.146  44.777  12.518
27037W        W90761  17.704  21.133  10.135
27038W        W90762  42.458  28.109   0.347
27039W        W90763  42.884  36.904  12.080
27040W        W90764  19.559  17.759   5.185
27041W        W90765   8.379  14.754  12.957
27042W        W90766   3.781  38.982  13.987
27043W        W90767  12.771   4.903  11.904
27044W        W90768  22.040   0.371   1.807
27045W        W90769  41.980  37.415   0.414
27046W        W90770  17.617   6.732  14.467
27047W        W90771  16.242  26.564   2.744
27048W        W90772  39.501  15.684  13.542
27049W        W90773   4.939  30.030  10.610
27050W        W90774  15.287   9.325   4.227
27051W        W90775  11.796  21.197   2.385
27052W        W90776  24.503   6.245   4.611
27053W        W90777   8.865  30.473  12.842
27054W        W90778  38.428  23.085   2.378
27055W        W90779   9.732  42.334  12.345
27056W        W90780  25.582  34.491   2.398
27057W        W90781  18.082  24.589  13.536
27058W        W90782   2.902  16.187  14.363
27059W        W90783   7.303  37.920  12.983
27060W        W90784  33.392  16.568   5.768
27061W        W90785  11.242  23.088   2.781
27062W        W90786  23.688  26.698   2.764
27063W        W90787  35.434  18.206  13.826
27064W        W90788   7.191   8.834  12.462
27065W        W90789   1.465  42.027   0.743
27066W        W90790  13.300  16.130  12.394
27067W        W90791   5.697   0.341  11.387
27068W        W90792  34.534  11.626   0.899
27069W        W90793  18.591  37.890  11.912
27070W        W90794  36.555  38.041  11.391
27071W        W90795  18.603  19.767  12.566
27072W        W90796  12.648  11.361  10.551
27073W        W90797  10.295  21.618   3.790
27074W        W90798  29.966   9.654   3.779
27075W        W90799  31.979  10.758  10.604
27076W        W90800  27.170  27.557  11.055
27077W        W90801  40.435   0.909  12.458
27078W        W90802   2.308  11.765   3.639
27079W        W90803  15.778  18.185  12.945
27080W        W90804  29.648  26.038   0.920
27081W        W90805   7.306  14.217  11.374
27082W        W90806  32.026  32.010  12.514
27083W        W90807  20.671  15.268   3.726
27084W        W90808  22.066  38.846  14.347
27085W        W90809  32.916  24.025   0.375
27086W        W90810  40.531  18.594   4.786
27087W        W90811   5.359   5.385   2.408
27088W        W90812  21.130   9.728  12.082
27089W        W90813  38.913  30.066   2.881
27090W        W90814  10.367  38.906  14.372
27091W        W90815  39.979  28.068   0.456
27092W        W90816  41.847  42.473   0.361
27093W        W90817  13.768  26.680   5.245
27094W        W90818  31.407  10.327  13.880
27095W        W90819   4.348  39.391   1.909
27096W        W90820  34.904  40.888  11.611
27097W        W90821   4.409   6.729  14.912
27098W        W90822   2.348   5.876   2.706
27099W        W90823  16.147  32.430  14.364
27100W        W90824  43.962  39.834   1.405
27101W        W90825  10.875  10.870   1.759
27102W        W90826  34.004   4.878  13.481
27103W        W90827  23.091  15.653   1.707
27104W        W90828   2.861  41.334  12.385
27105W        W90829  42.941  44.476   2.890
27106W        W90830  10.339  25.558   2.871
27107W        W90831  22.676  26.207  13.048
27108W        W90832  39.462  32.945  10.523
27109W        W90833   3.895  12.217   3.711
27110W        W90834  15.596  38.051   4.348
27111W        W90835  12.129  42.437  14.899
27112W        W90836   9.194  41.831   3.266
27113W        W90837  23.563   0.435   0.954
27114W        W90838  30.007  20.117  11.544
27115W        W90839  24.209  40.883  13.481
27116W        W90840  32.404   8.314  10.963
27117W        W90841  13.115   0.251   2.331
27118W        W90842  17.625  28.931  13.827
27119W        W90843  28.930   7.228  11.057
27120W        W90844  20.542   3.902   2.791
27121W        W90845  16.193  16.646  14.950
27122W        W90846  28.457  37.999  13.955
27123W        W90847  43.359  21.647   2.246
27124W        W90848  37.521   1.304   2.886
27125W        W90849  21.248   9.763  10.538
27126W        W90850  31.098  26.169  11.864
27127W        W90851   4.244  39.991  14.962
27128W        W90852  30.594  41.297   4.824
27129W        W90853  14.252  21.151  13.397
27130W        W90854  42.496  13.275   4.186
27131W        W90855  40.964  23.160   4.320
27132W        W90856  21.668  22.516  11.972
27133W        W90857  30.088  30.447  13.030
27134W        W90858   2.322  29.081  10.585
27135W        W90859  13.348  36.942  10.582
27136W        W90860  32.489  34.921   2.406
27137W        W90861  24.152  28.994   1.883
27138W        W90862  37.917  17.589  10.429
27139W        W90863  40.403  14.100   4.257
27140W        W90864  25.993  39.952  10.622
27141W        W90865  40.346  14.297  11.452
27142W        W90866   6.192  25.135   5.200
27143W        W90867  29.928  44.447   9.982
27144W        W90868  21.178   0.284   1.440
27145W        W90869  16.672   6.388  11.073
27146W        W90870  24.491  35.918  13.848
27147W        W90871  23.673  29.638  14.343
27148W        W90872   9.310  20.623  10.598
27149W        W90873  18.716  31.562  13.861
27150W        W90874  34.527  29.128  13.860
27151W        W90875   7.860  40.016  12.032
27152W        W90876   7.816  16.630   3.216
27153W        W90877  37.375  38.384   1.897
27154W        W90878  34.506  19.624   4.808
27155W        W90879   8.192   5.858   1.733
27156W        W90880  39.525  38.406   4.261
27157W        W90881  42.414  42.894   3.846
27158W        W90882  43.368   8.266  14.986
27159W        W90883  18.083  14.341  13.442
27160W        W90884  37.411   9.776   0.288
27161W        W90885   6.285  34.943   4.811
27162W        W90886  36.433  10.226  10.616
27163W        W90887  30.568  11.799   1.744
27164W        W90888  41.814  13.187  13.439
27165W        W90889  34.413  24.987  13.887
27166W        W90890  42.872  25.573   1.773
27167W        W90891   8.372  11.802   1.419
27168W        W90892  25.080  24.218   0.763
27169W        W90893  41.023  10.720   0.391
27170W        W90894  42.404  29.070   1.295
27171W        W90895  28.459  38.845  11.910
27172W        W90896   8.792  15.088   4.648
27173W        W90897   9.285  43.814   3.224
27174W        W90898  22.651  20.199  11.954
27175W        W90899  23.216  43.498  12.922
27176W        W90900  34.873  21.097  11.433
27177W        W90901  10.282  13.148  10.906
27178W        W90902  16.277  35.972  14.798
27179W        W90903  44.451  25.037   3.659
27180W        W90904  36.538  35.405  13.421
27181W        W90905   1.432   0.845   1.919
27182W        W90906  25.969   3.411   3.849
27183W        W90907   2.817  39.843  10.633
27184W        W90908  23.013  42.496  11.378
27185W        W90909  30.131  10.249   4.722
27186W        W90910  28.645  32.618   2.681
27187W        W90911  44.280  35.045   2.406
27188W        W90912  11.703  35.009  13.531
27189W        W90913   8.769  42.029  10.476
27190W        W90914  38.387  41.787  10.992
27191W        W90915  11.345  15.232   1.213
27192W        W90916  38.402  23.993  14.466
27193W        W90917  33.065  42.379  13.798
27194W        W90918  25.069  40.917   4.311
27195W        W90919   7.173  43.985  10.498
27196W        W90920   8.304  10.177   2.684
27197W        W90921  13.805   5.410   0.347
27198W        W90922   5.793   8.362  13.880
27199W        W90923   8.345  31.940   0.366
27200W        W90924  41.978  25.151  14.313
27201W        W90925  22.618   7.389  11.087
27202W        W90926  34.540  17.567  14.830
27203W        W90927  12.731  32.066   1.256
27204W        W90928  12.724  18.062   4.641
27205W        W90929  18.129   7.327  11.409
27206W        W90930   2.386   2.866  10.626
27207W        W90931   6.838   5.254  10.631
27208W        W90932  35.480  15.323   4.167
27209W        W90933  22.710  12.776   4.704
27210W        W90934  10.742  39.044  13.839
27211W        W90935  17.277  11.651   1.912
27212W        W90936  22.549  13.143   2.851
27213W        W90937  41.294  29.668   2.405
27214W        W90938  42.016  39.452  12.386
27215W        W90939  21.258  34.051   4.647
27216W        W90940  32.009   7.678   0.430
27217W        W90941  25.528   7.366  12.892
27218W        W90942  32.921  16.236   3.301
27219W        W90943  27.004  30.619  14.420
27220W        W90944  28.540  43.447   0.375
27221W        W90945  27.649  13.806  14.996
27222W        W90946   7.885  24.561  12.549
27223W        W90947  31.096  16.118   0.856
27224W        W90948  38.410  16.608  12.341
27225W        W90949  32.944   0.923  12.996
27226W        W90950  41.351   4.812   1.796
27227W        W90951  10.873  22.533   2.354
27228W        W90952  22.127  33.460  11.956
27229W        W90953  31.549  43.468   0.434
27230W        W90954  35.050  23.008  11.467
27231W        W90955  39.981  41.320   5.297
27232W        W90956   2.779  34.879   2.826
27233W        W90957  32.035   6.323   0.481
27234W        W90958   8.746  23.725  12.473
27235W        W90959  30.979  15.296  14.771
27236W        W90960  37.965   7.771   0.953
27237W        W90961  19.765  26.080  11.903
27238W        W90962  15.102  14.323   1.829
27239W        W90963  16.695  12.698   0.845
27240W        W90964  21.751  18.556  10.504
27241W        W90965  24.073  40.896  14.789
27242W        W90966  19.093  16.701   1.778
27243W        W90967  19.594  24.044  12.863
27244W        W90968  18.694  12.793   0.465
27245W        W90969  40.482  24.007   3.274
27246W        W90970  10.637  43.885  12.408
27247W        W90971  18.129   5.269   2.710
27248W        W90972  24.994  10.782  10.550
27249W        W90973  38.412   1.469   0.959
27250W        W90974  12.344  20.094  10.405
27251W        W90975  34.566  18.156   1.830
27252W        W90976  22.566  40.330   1.325
27253W        W90977  35.363   9.855  12.986
27254W        W90978  14.261   7.295   1.292
27255W        W90979  29.431  20.036  11.444
27256W        W90980   3.754   7.397  13.811
27257W        W90981  26.174  22.599   0.945
27258W        W90982  26.970  44.011  11.048
27259W        W90983   8.882   9.779  13.867
27260W        W90984  11.801  10.186  11.992
27261W        W90985  19.720  30.004  11.556
27262W        W90986  19.245  16.102   3.817
27263W        W90987  21.081  27.958   4.274
27264W        W90988  14.606   0.314  14.768
27265W        W90989  42.416  27.137  10.627
27266W        W90990  21.533  31.012  13.510
27267W        W90991  10.301   5.204   3.310
27268W        W90992   6.731  38.885   1.286
27269W        W90993  38.502   5.249  14.810
27270W        W90994  35.938  35.379  14.426
27271W        W90995  18.555  11.347  10.428
27272W        W90996  20.230  21.552  12.566
27273W        W90997  28.949   7.386  10.140
27274W        W90998  13.241  23.695   0.906
27275W        W90999   3.866  14.599  11.028
27276W        W91000   3.718  29.630  12.494
27277W        W91001  18.620   0.901   3.768
27278W        W91002  36.554  35.594   3.229
27279W        W91003  25.618  27.536   0.355
27280W        W91004  10.331   5.239   2.246
27281W        W91005  17.774  32.616   0.946
27282W        W91006   1.940  16.581   4.209
27283W        W91007   8.294   1.248  14.880
27284W        W91008   7.681  27.529   4.769
27285W        W91009  15.632  29.147   0.957
27286W        W91010  12.205  34.555   3.324
27287W        W91011   1.427  21.091   0.875
27288W        W91012   8.748  32.461  12.988
27289W        W91013  12.716  42.292  13.328
27290W        W91014  11.801  15.203   2.784
27291W        W91015  24.109   1.239   4.737
27292W        W91016  43.286  44.412  14.784
27293W        W91017  38.036   6.721   3.227
27294W        W91018  21.561  10.199  10.458
27295W        W91019  31.005  16.692   3.852
27296W        W91020  43.985  32.981   3.367
27297W        W91021  39.514  14.164   0.856
27298W        W91022  44.374   7.813  12.356
27299W        W91023   8.882  44.946   2.850
27300W        W91024  27.594  19.282   0.938
27301W        W91025  38.479   9.837   2.392
27302W        W91026  37.354  38.896   3.267
27303W        W91027  15.737   4.211   4.307
27304W        W91028   0.752  37.518  10.095
27305W        W91029   2.472  31.077  11.597
27306W        W91030  22.185  28.010   3.160
27307W        W91031  18.554  31.572  11.916
27308W        W91032  37.581  37.022   3.680
27309W        W91033  16.233  34.601  12.477
27310W        W91034  35.097  10.725   0.409
27311W        W91035  30.627  27.176   4.316
27312W        W91036   7.692  43.510   4.264
27313W        W91037  14.249   7.738   0.281
27314W        W91038   6.211   0.476  13.958
27315W        W91039  31.013  40.403  12.484
27316W        W91040  20.041  33.436   2.416
27317W        W91041   9.348  19.603  15.000
27318W        W91042  39.820  30.069  12.571
27319W        W91043  17.135  25.110  11.088
27320W        W91044  34.079  19.040  14.794
27321W        W91045  35.571  38.885   0.764
27322W        W91046  16.291  14.829   9.581
27323W        W91047  36.033  41.327  12.831
27324W        W91048  13.756  32.996   3.732
27325W        W91049  15.174  29.984   3.729
27326W        W91050  37.896  26.570   0.744
27327W        W91051  15.205  15.151   1.390
27328W        W91052  37.533   8.864  11.938
27329W        W91053   9.331   3.721  10.916
27330W        W91054  24.525  31.143   5.181
27331W        W91055  11.295  31.014   3.307
27332W        W91056  41.520   5.258  14.780
27333W        W91057  28.172   4.235  12.020
27334W        W91058   4.702  27.091  13.460
27335W        W91059  37.464  40.450   0.915
27336W        W91060  21.584  41.960   0.787
27337W        W91061  33.119  21.100  14.507
27338W        W91062  14.783   8.244   5.572
27339W        W91063  34.910  21.729   2.226
27340W        W91064  26.059   7.359   2.247
27341W        W91065  15.102  37.075  10.489
27342W        W91066  35.942  26.468  10.561
27343W        W91067  25.591   8.686   3.317
27344W        W91068  37.960  16.751  12.954
27345W        W91069  39.064  10.688   1.212
27346W        W91070  40.937  30.543  13.885
27347W        W91071  31.145  23.178   3.335
27348W        W91072  43.946  42.462  13.330
27349W        W91073   5.901  13.134   4.131
27350W        W91074  31.547  19.545  14.351
27351W        W91075  37.461  11.831  12.094
27352W        W91076  36.042   9.855  14.904
27353W        W91077  21.040  18.226  10.512
27354W        W91078   1.798  10.638   0.451
27355W        W91079   6.720  14.307   0.278
27356W        W91080  39.411  19.216  13.985
27357W        W91081  37.005   4.235  10.538
27358W        W91082  36.092  34.500   4.759
27359W        W91083   3.946  20.669   3.660
27360W        W91084   3.436  37.967  11.542
27361W        W91085  39.020   8.353   3.684
27362W        W91086   8.846  28.930  12.033
27363W        W91087  21.691  30.920   2.744
27364W        W91088  27.565  11.723   9.958
27365W        W91089   3.329   9.236   4.633
27366W        W91090  40.391  16.185   3.644
27367W        W91091  31.932   2.343  10.967
27368W        W91092  35.008  17.088   5.127
27369W        W91093  16.170  17.604   1.924
27370W        W91094  39.560  15.177   4.282
27371W        W91095   5.786  17.588   0.395
27372W        W91096  37.361  28.465   3.259
27373W        W91097  39.955  27.551  12.840
27374W        W91098  29.557  38.003   3.364
27375W        W91099  12.832  35.449   2.706
27376W        W91100   5.314  36.421   3.350
27377W        W91101  22.585  29.973   0.424
27378W        W91102  39.934  40.526   2.178
27379W        W91103  38.846  28.993  12.448
27380W        W91104  19.212   7.754  11.573
27381W        W91105  43.319   9.213  14.870
27382W        W91106  17.703  31.106   1.743
27383W        W91107  41.977  18.264   0.277
27384W        W91108  21.196  36.516   4.748
27385W        W91109  36.371   8.168   3.239
27386W        W91110  37.433  27.515  12.943
27387W        W91111  29.430   0.844  14.830
27388W        W91112  25.482  23.143  12.518
27389W        W91113  43.994  29.144   4.784
27390W        W91114   4.762  11.154   5.088
27391W        W91115  35.918  20.147  11.452
27392W        W91116  13.140   7.212   3.287
27393W        W91117  34.482  26.687  14.476
27394W        W91118  16.660   5.202  14.871
27395W        W91119   0.399  40.969   3.326
27396W        W91120  37.860  37.971   3.676
27397W        W91121  39.488  22.726   5.803
27398W        W91122  24.578  29.981   5.703
27399W        W91123  28.555   3.857  14.994
27400W        W91124  38.883  38.886   3.634
27401W        W91125  24.175  44.332  14.485
27402W        W91126  21.044  15.778   4.255
27403W        W91127  26.603   1.265   5.111
27404W        W91128   3.412  32.135  10.502
27405W        W91129  27.014  17.280  11.986
27406W        W91130  30.097   2.810   3.662
27407W        W91131  30.061  18.740  11.886
27408W        W91132  36.062  43.383  12.410
27409W        W91133   4.762  44.848   1.840
27410W        W91134  33.552  22.225   2.668
27411W        W91135   7.405  35.509   4.134
27412W        W91136  27.148   4.429  11.084
27413W        W91137  16.729   2.857   3.663
27414W        W91138  41.325  10.344  10.551
27415W        W91139  11.369  18.192  12.871
27416W        W91140  38.394  25.690  13.481
27417W        W91141  44.835  38.949  12.824
27418W        W91142  18.197  11.291  14.887
27419W        W91143  38.866  29.012  14.929
27420W        W91144  33.884  41.987  11.554
27421W        W91145  23.057  38.952   1.897
27422W        W91146  34.064  31.107  10.954
27423W        W91147  14.673  18.717  14.393
27424W        W91148  37.965  17.770   1.933
27425W        W91149  43.371  39.968  11.856
27426W        W91150  37.499   9.725   0.803
27427W        W91151   9.177  36.400  11.097
27428W        W91152  15.699   6.233   1.879
27429W        W91153   0.842  44.843  11.594
27430W        W91154  43.968   5.226  11.509
27431W        W91155  24.666  33.088   0.788
27432W        W91156  29.933  17.725  12.415
27433W        W91157  15.125  21.160  10.591
27434W        W91158   8.802  37.048  11.126
27435W        W91159  28.655  39.951  11.526
27436W        W91160  20.709   6.353  14.455
27437W        W91161  21.080  41.328  12.421
27438W        W91162  40.415  25.148  12.064
27439W        W91163  11.684  30.453   9.926
27440W        W91164  36.489  41.903  14.982
27441W        W91165   5.263  23.028  13.005
27442W        W91166  38.908   7.399  14.440
27443W        W91167  28.547  40.361  12.501
27444W        W91168  25.473  40.378   1.236
27445W        W91169  41.043  39.879  13.793
27446W        W91170  42.980   1.759  13.902
27447W        W91171  44.828  31.991  12.993
27448W        W91172  15.326   2.326  13.355
27449W        W91173  25.094   1.469   4.773
27450W        W91174  24.605  34.008   2.692
27451W        W91175  42.389  36.053   3.723
27452W        W91176  33.033  44.467  10.560
27453W        W91177  33.589  31.404   2.729
27454W        W91178  11.822  22.034   1.879
27455W        W91179  14.821  29.503  10.452
27456W        W91180  21.080  24.677  11.944
27457W        W91181  30.550  11.676  12.079
27458W        W91182  32.597  16.723   3.647
27459W        W91183  27.454  10.863  10.622
27460W        W91184  26.201  10.707   0.363
27461W        W91185  28.097  14.754  13.364
27462W        W91186   5.813  27.176  10.922
27463W        W91187  26.570  26.971  14.360
27464W        W91188  13.687  20.114   3.834
27465W        W91189  43.841  21.248   3.382
27466W        W91190   9.292  43.976  13.827
27467W        W91191  26.001  37.877  12.488
27468W        W91192  15.185  26.541   0.407
27469W        W91193  32.077  31.043   4.336
27470W        W91194  11.213  30.425   4.769
27471W        W91195   5.261   9.207  11.117
27472W        W91196  12.647  42.021   4.350
27473W        W91197  30.106  35.956  11.891
27474W        W91198  21.634  41.839  12.827
27475W        W91199  12.717   8.828   4.685
27476W        W91200  21.234  28.660   2.878
27477W        W91201   1.868  25.060   2.689
27478W        W91202  26.201  28.003   1.822
27479W        W91203   9.246  44.435  13.480
27480W        W91204  31.535   7.786  12.995
27481W        W91205  24.622   9.218   0.409
27482W        W91206   8.817  20.769  10.148
27483W        W91207  39.005   5.899  11.931
27484W        W91208   6.252  23.036  10.093
27485W        W91209   6.765   7.203   2.786
27486W        W91210  44.009  18.146  11.444
27487W        W91211  15.746  23.185  14.787
27488W        W91212   0.752  26.063   3.330
27489W        W91213  21.076  24.573   0.477
27490W        W91214  17.750  43.329   1.779
27491W        W91215  27.689   3.828  14.361
27492W        W91216  39.401  15.245   3.820
27493W        W91217  15.134  29.484   3.243
27494W        W91218   6.375   3.336  14.372
27495W        W91219   8.181  18.135   1.696
27496W        W91220  15.791  13.818  12.959
27497W        W91221   7.264  17.767  14.319
27498W        W91222  13.817  41.409   1.443
27499W        W91223   6.882  37.448  12.852
27500W        W91224  10.244  28.123   0.832
27501W        W91225  43.270  37.353   3.653
27502W        W91226  24.620  40.363  12.029
27503W        W91227  44.335  18.289  14.796
27504W        W91228  19.727  43.300   1.837
27505W        W91229  40.900  10.737   0.907
27506W        W91230  15.629   5.214  12.520
27507W        W91231  28.948  13.781   1.450
27508W        W91232   0.945  18.150  14.007
27509W        W91233  35.577  24.605   2.776
27510W        W91234   5.898  43.966   4.760
27511W        W91235  30.655  38.014   3.241
27512W        W91236   4.760   2.271   0.734
27513W        W91237  32.587  27.563   4.787
27514W        W91238  11.302   7.335   1.873
27515W        W91239  11.373  15.590   2.227
27516W        W91240   1.418  32.001  14.795
27517W        W91241   8.175  28.038   2.293
27518W        W91242  37.464  37.046  12.942
27519W        W91243   7.848  34.509  12.015
27520W        W91244  38.528  14.607   3.328
27521W        W91245  15.732  39.040   5.256
27522W        W91246  19.768  42.874   2.378
27523W        W91247  21.021   6.400  13.496
27524W        W91248  43.791   0.858  13.925
27525W        W91249  35.416   2.335  13.982
27526W        W91250   7.276   6.866   1.821
27527W        W91251  20.234   3.294   4.620
27528W        W91252  35.023  16.151  12.855
27529W        W91253  23.176   7.690   0.322
27530W        W91254  31.441  28.484  14.426
27531W        W91255  23.146   1.929   0.768
27532W        W91256   9.205  35.374  13.055
27533W        W91257   3.833  27.563   9.955
27534W        W91258  42.880  20.146  13.468
27535W        W91259   4.342   2.253  12.382
27536W        W91260   2.309  43.369  10.973
27537W        W91261  23.237  41.956   3.752
27538W        W91262   5.229  10.826   3.285
27539W        W91263  25.060  28.021   4.155
27540W        W91264  29.041  15.695   1.215
27541W        W91265  20.223  26.626  12.923
27542W        W91266  33.887  39.900  14.396
27543W        W91267   8.727  37.547  10.156
27544W        W91268  16.294  25.206  10.501
27545W        W91269  32.123  14.094   5.670
27546W        W91270  15.222  33.418   3.699
27547W        W91271  23.687  44.363  14.276
27548W        W91272  35.067   4.237  12.909
27549W        W91273  29.157  37.843  10.548
27550W        W91274  17.288   9.313  14.406
27551W        W91275  26.056  28.478   3.758
27552W        W91276   6.768  36.583   2.293
27553W        W91277   4.882   5.932  13.502
27554W        W91278  42.517  38.472  13.061
27555W        W91279  37.450  31.975  12.967
27556W        W91280   7.363  16.567  10.565
27557W        W91281   7.253   8.848  13.518
27558W        W91282  16.076  15.781   0.386
27559W        W91283   7.278  40.414   4.341
27560W        W91284  14.705   2.458  13.515
27561W        W91285   8.251   1.430   4.225
27562W        W91286  13.287  10.744  14.991
27563W        W91287   9.686  24.134  11.575
27564W        W91288  24.623   6.788   0.880
27565W        W91289  32.891  29.922   0.430
27566W        W91290  41.935   8.683  13.997
27567W        W91291  14.664   9.684  11.862
27568W        W91292  10.380  30.451   2.368
27569W        W91293  38.345  14.177  12.870
27570W        W91294   0.262  15.678   2.783
27571W        W91295   9.386   9.292  13.538
27572W        W91296  26.123  16.734  12.552
27573W        W91297  19.606  36.507   1.854
27574W        W91298  21.260  13.201  12.494
27575W        W91299   9.150  35.047   1.732
27576W        W91300  31.904  22.528  10.935
27577W        W91301  18.763  41.999   4.695
27578W        W91302  24.986  19.593   0.769
27579W        W91303   8.181  31.020  12.530
27580W        W91304  38.953  33.564  10.435
27581W        W91305  33.931   0.811  11.444
27582W        W91306   1.354  36.053   1.424
27583W        W91307  16.664  22.051   1.717
27584W        W91308  44.264  41.368   4.348
27585W        W91309  35.500  32.082  14.820
27586W        W91310  25.210  28.956   1.862
27587W        W91311  34.883  38.520   4.189
27588W        W91312  17.110   8.746   0.348
27589W        W91313  34.547  34.440  12.578
27590W        W91314  19.647   3.231   3.268
27591W        W91315  23.990   3.282   4.775
27592W        W91316  38.428   8.323  13.526
27593W        W91317  10.690  41.499   3.341
27594W        W91318  14.640  29.590  11.549
27595W        W91319  41.936   0.840   5.112
27596W        W91320  16.583  15.327   2.720
27597W        W91321  43.337  38.526   2.723
27598W        W91322  33.004  23.645  13.331
27599W        W91323  29.470  41.381   4.622
27600W        W91324  34.863   6.839   1.835
27601W        W91325  16.232  33.099  13.835
27602W        W91326   3.290   0.830   0.408
27603W        W91327  37.007  36.847   2.839
27604W        W91328  42.995  25.500   2.787
27605W        W91329  18.205  38.964  14.923
27606W        W91330   3.233  27.558  13.946
27607W        W91331  27.503  42.775   2.682
27608W        W91332  33.393  23.065   2.694
27609W        W91333  31.120   2.464   3.684
27610W        W91334   0.807  44.002  14.883
27611W        W91335  32.439  15.718   4.277
27612W        W91336  12.717  24.711   2.291
27613W        W91337  22.137  35.092   3.178
27614W        W91338   9.280  24.174   3.770
27615W        W91339  22.720  35.856   1.913
27616W        W91340   8.313   7.222  11.480
27617W        W91341  24.227   6.338  11.534
27618W        W91342  40.349   4.327  13.382
27619W        W91343  14.103  32.456  11.376
27620W        W91344  29.050  43.016   4.698
27621W        W91345  17.706  23.588  10.614
27622W        W91346   5.279  29.510   1.319
27623W        W91347  40.435  27.047  12.855
27624W        W91348  23.521   7.669  11.431
27625W        W91349  24.164  40.373  11.093
27626W        W91350  10.369  20.248  11.385
27627W        W91351  33.895   6.379  13.800
27628W        W91352   5.421  32.963   0.308
27629W        W91353   8.749  32.446  10.901
27630W        W91354  28.156  21.561   1.306
27631W        W91355  30.477  38.386   0.300
27632W        W91356  18.091  14.307  14.281
27633W        W91357  16.269  42.985   1.907
27634W        W91358  16.276  11.269  13.473
27635W        W91359  13.807  25.565  12.364
27636W        W91360   5.918  40.018   2.795
27637W        W91361  24.018  28.573  12.985
27638W        W91362   8.222  13.264  14.978
27639W        W91363   7.263  18.142  10.560
27640W        W91364  44.344  44.285  14.423
27641W        W91365   0.824  21.532   0.903
27642W        W91366  33.518   8.364   1.907
27643W        W91367  33.963   8.798   2.245
27644W        W91368  22.534  18.619  11.107
27645W        W91369  39.416  35.047  14.412
27646W        W91370  25.115   9.319   4.334
27647W        W91371  12.669  35.489  12.516
27648W        W91372  37.051  27.013   1.760
27649W        W91373  34.385  33.013   0.457
27650W        W91374  14.145   6.778  13.317
27651W        W91375  12.122  12.346  11.532
27652W        W91376  13.342  21.249   3.310
27653W        W91377   2.912   1.848   3.786
27654W        W91378  25.508   9.283  13.506
27655W        W91379  13.238  19.148   2.221
27656W        W91380  23.567  40.382  12.859
27657W        W91381  42.450  16.751  11.525
27658W        W91382  14.828  20.546  10.922
27659W        W91383  39.023  43.899  12.531
27660W        W91384  31.017  27.118  12.859
27661W        W91385  21.670  13.635  13.328
27662W        W91386  40.410  20.555  12.390
27663W        W91387  21.069  43.863  13.034
27664W        W91388  37.964  44.319  12.453
27665W        W91389  35.965  18.720   1.323
27666W        W91390  14.305  42.827   4.738
27667W        W91391  30.058  35.475  11.405
27668W        W91392  41.026  21.518   1.323
27669W        W91393   1.866  39.825   2.227
27670W        W91394   3.855  35.915  13.991
27671W        W91395  41.824  39.899   0.256
27672W        W91396  37.892  23.573   1.338
27673W        W91397  26.619  15.706  11.446
27674W        W91398   5.881  43.512   2.210
27675W        W91399   4.332  23.690   3.790
27676W        W91400  40.522  43.309  13.841
27677W        W91401  17.599   3.892  10.894
27678W        W91402  26.126  26.647   0.321
27679W        W91403  33.557   6.315   2.785
27680W        W91404  21.535  35.550  12.572
27681W        W91405  30.446  18.627   2.679
27682W        W91406  41.798  10.201   4.159
27683W        W91407  28.930  16.177   4.784
27684W        W91408   6.889  28.485   4.353
27685W        W91409  12.205  21.662  12.477
27686W        W91410  13.631  28.673   1.345
27687W        W91411  22.506   0.351   9.938
27688W        W91412   0.347  32.394  11.476
27689W        W91413  16.149  33.081  10.484
27690W        W91414  39.375   9.272  13.514
27691W        W91415  24.544  24.591  14.984
27692W        W91416   9.328  35.435   4.353
27693W        W91417  23.016  37.887   3.839
27694W        W91418  29.531  39.857  14.293
27695W        W91419  44.483  12.654  12.359
27696W        W91420  38.047  22.035  10.613
27697W        W91421  30.117   4.779  10.490
27698W        W91422  35.425  28.582  13.058
27699W        W91423   9.195  19.586   4.751
27700W        W91424  15.718   1.872   9.973
27701W        W91425  37.983  40.815   3.838
27702W        W91426  39.989  26.066   1.258
27703W        W91427  29.633  39.972  12.048
27704W        W91428  37.538  19.279  11.449
27705W        W91429   5.815  20.133   4.646
27706W        W91430  26.187  41.859  14.314
27707W        W91431  34.916   5.213  13.475
27708W        W91432  32.522  13.755  14.025
27709W        W91433  10.326   8.874  10.501
27710W        W91434  12.846  23.655  12.050
27711W        W91435  10.172  28.180   2.350
27712W        W91436   5.250   9.848   3.156
27713W        W91437  39.061  29.120  14.405
27714W        W91438  32.985  40.477  14.321
27715W        W91439  42.792  38.470  13.930
27716W        W91440  38.855  26.530  14.989
27717W        W91441  20.061  19.099  12.955
27718W        W91442   3.345   3.905  14.908
27719W        W91443  23.230  43.278  13.825
27720W        W91444  34.600   7.852  13.849
27721W        W91445  14.790  15.606   2.671
27722W        W91446  21.746   7.794   4.672
27723W        W91447  31.517  21.729  14.899
27724W        W91448  24.125  18.637  11.069
27725W        W91449  17.214  30.924  12.904
27726W        W91450  28.505  12.128  14.864
27727W        W91451  33.567   9.774  14.348
27728W        W91452  21.708  33.438   1.749
27729W        W91453   4.884  28.508   0.311
27730W        W91454   4.752   0.384   0.349
27731W        W91455  20.698  16.305   1.818
27732W        W91456  41.986  39.472   4.808
27733W        W91457   7.817   8.830   0.809
27734W        W91458   2.380   9.230   2.779
27735W        W91459  34.505   6.345  13.941
27736W        W91460  26.463   6.225   1.899
27737W        W91461  15.580  44.958  11.010
27738W        W91462   0.369   1.971  11.555
27739W        W91463   2.284  16.648  12.861
27740W        W91464  24.567   5.753  11.992
27741W        W91465  14.159   6.710   1.383
27742W        W91466   4.924  41.345   1.698
27743W        W91467  44.359  38.490   4.777
27744W        W91468  35.951  44.309  11.012
27745W        W91469   4.731  18.673  11.435
27746W        W91470  18.115  42.775   0.467
27747W        W91471   6.391  33.929  11.564
27748W        W91472  38.487  39.358   3.866
27749W        W91473   7.861   8.226   4.212
27750W        W91474  42.469   1.378   0.379
27751W        W91475   8.696  14.251   4.259
27752W        W91476  24.695  23.042  12.530
27753W        W91477   3.721   3.402   4.692
27754W        W91478  18.669   6.229  10.502
27755W        W91479  36.470  28.107   3.859
27756W        W91480  10.344  16.580  14.817
27757W        W91481  22.159   4.818  10.564
27758W        W91482  21.262   1.930   4.287
27759W        W91483  13.845  15.103  14.393
27760W        W91484  14.240  37.986   4.828
27761W        W91485   0.854  36.075  12.080
27762W        W91486  37.899  39.994  12.348
27763W        W91487  41.475  44.944  13.435
27764W        W91488  44.491  16.795   3.153
27765W        W91489   4.881  15.111   0.392
27766W        W91490  22.168  35.571  12.435
27767W        W91491  42.897  40.526   0.814
27768W        W91492  28.620  38.418  11.475
27769W        W91493  29.049   3.921   1.259
27770W        W91494  18.056  19.138  14.900
27771W        W91495  37.578  28.650   1.356
27772W        W91496  41.885   3.358   1.409
27773W        W91497   8.391  32.986  11.379
27774W        W91498  11.645   4.237   3.280
27775W        W91499  30.025  28.543   3.737
27776W        W91500  35.888   8.809   1.781
27777W        W91501  28.944   2.396  11.009
27778W        W91502  22.252  24.059   0.922
27779W        W91503  14.717  39.457   2.704
27780W        W91504  36.462  25.620  10.549
27781W        W91505   7.818  28.942  10.468
27782W        W91506  11.629  13.173   2.833
27783W        W91507  40.510  15.760   0.444
27784W        W91508   1.325   1.455  11.446
27785W        W91509  29.010  17.653   0.877
27786W        W91510   7.905  24.513  13.448
27787W        W91511  23.241  22.560  12.461
27788W        W91512  15.753  18.622  11.564
27789W        W91513   3.909  11.717  12.920
27790W        W91514  42.963  29.115  11.435
27791W        W91515   2.396  18.295  13.841
27792W        W91516   7.875   5.211  13.461
27793W        W91517   1.441  19.620   2.347
27794W        W91518  44.278  33.979  10.539
27795W        W91519  27.598  30.149  11.106
27796W        W91520  42.494   9.202   4.650
27797W        W91521  38.375  39.480   0.933
27798W        W91522  37.922  19.659   2.240
27799W        W91523  38.367  35.484   2.698
27800W        W91524  11.769  29.594   2.771
27801W        W91525  29.452   5.434  14.296
27802W        W91526  41.929  33.546   2.293
27803W        W91527  18.717  31.134   4.216
27804W        W91528  22.623  13.795  13.957
27805W        W91529  37.348  40.938  12.446
27806W        W91530   9.819  38.886  13.811
27807W        W91531  39.435   7.786   3.349
27808W        W91532  12.620  39.348   4.619
27809W        W91533  15.696  38.552  14.868
27810W        W91534  37.465  11.678  14.770
27811W        W91535  34.944   9.773   0.791
27812W        W91536   5.825  29.659   3.326
27813W        W91537   2.925  31.072  12.050
27814W        W91538  10.210  24.166   3.838
27815W        W91539   8.887  40.312  13.918
27816W        W91540  42.863  16.267   4.795
27817W        W91541  39.969  38.532   1.843
27818W        W91542  33.990  27.456  10.424
27819W        W91543  23.182  31.463   3.177
27820W        W91544   1.803   4.237   2.215
27821W        W91545   4.847   0.463  14.001
27822W        W91546  16.643  23.001   4.270
27823W        W91547   5.253  39.040  13.965
27824W        W91548  30.121  22.612  13.450
27825W        W91549  39.519  14.658  13.504
27826W        W91550  15.721  20.057  10.473
27827W        W91551  31.114  35.601   1.865
27828W        W91552  18.556  17.166   3.332
27829W        W91553   8.837  25.105  11.096
27830W        W91554   2.902  35.099  10.455
27831W        W91555  39.876  42.452  11.568
27832W        W91556   1.435  18.725   2.179
27833W        W91557  11.209  14.779  10.465
27834W        W91558  16.151  28.931  14.783
27835W        W91559  10.830  22.567  11.910
27836W        W91560  44.283  42.952  13.883
27837W        W91561   9.297  33.474  10.897
27838W        W91562  37.954  27.121  13.976
27839W        W91563  20.627  42.934  11.373
27840W        W91564  24.634  14.693   1.222
27841W        W91565  41.804  20.656   2.755
27842W        W91566  19.162  40.900   3.802
27843W        W91567  32.393  41.013  14.453
27844W        W91568   9.645  31.043   2.733
27845W        W91569   9.364   3.900   2.851
27846W        W91570   0.494   4.934   3.343
27847W        W91571  26.195  25.007  13.415
27848W        W91572  42.839  44.955   4.717
27849W        W91573  32.933  42.438   1.255
27850W        W91574   4.884  32.567   0.812
27851W        W91575  34.441  25.548  14.835
27852W        W91576  17.731  21.203   3.818
27853W        W91577  25.481   9.386  11.995
27854W        W91578  33.485  12.255  12.482
27855W        W91579   2.301  25.509   1.777
27856W        W91580  20.585  31.126   4.637
27857W        W91581  37.880  32.427   0.298
27858W        W91582  17.735  12.297   3.828
27859W        W91583  31.048  44.854   2.703
27860W        W91584  37.347  16.616   1.752
27861W        W91585  44.981  36.436   1.426
27862W        W91586  36.887  35.901  14.813
27863W        W91587   4.294  30.084   3.251
27864W        W91588  17.172  32.635   0.242
27865W        W91589  23.061  15.807  10.945
27866W        W91590   7.312  20.668  14.848
27867W        W91591   2.397  43.319   0.876
27868W        W91592  12.657  31.580  11.454
27869W        W91593  12.680  16.793  12.364
27870W        W91594  13.797  36.934   3.798
27871W        W91595  18.789  17.591  10.499
27872W        W91596  30.998  43.977  11.118
27873W        W91597  32.544  44.437  13.491
27874W        W91598  35.025   9.718   4.140
27875W        W91599  35.895  24.619  12.856
27876W        W91600   8.718  30.418  12.572
27877W        W91601  12.797  31.121  10.490
27878W        W91602  35.470  28.468   3.232
27879W        W91603  17.290  21.206   1.863
27880W        W91604  32.396  24.614  12.012
27881W        W91605   0.426  39.396  12.049
27882W        W91606  41.469  41.830  12.848
27883W        W91607   5.694  30.048  12.546
27884W        W91608   1.257  36.862   0.368
27885W        W91609  21.056  26.535  14.903
27886W        W91610  29.943   5.866  12.827
27887W        W91611   7.786   7.305   1.719
27888W        W91612  31.012  40.873  13.413
27889W        W91613  25.084   1.266   1.252
27890W        W91614   1.397  18.140   2.317
27891W        W91615  26.518  22.743   3.734
27892W        W91616  28.076   4.243   2.844
27893W        W91617  34.395  44.329  13.033
27894W        W91618   3.421  17.295   3.188
27895W        W91619  22.506   4.732   0.876
27896W        W91620  18.649  34.976  11.014
27897W        W91621  32.442  32.478  12.031
27898W        W91622  32.605  40.441   0.333
27899W        W91623  19.230   6.852  11.375
27900W        W91624  30.510   6.807  11.096
27901W        W91625  27.965  14.155  13.503
27902W        W91626  38.498  18.227   2.872
27903W        W91627  20.722   4.855  13.026
27904W        W91628   1.773   3.813  13.321
27905W        W91629  35.897  28.934  13.534
27906W        W91630  22.030  17.687  14.851
27907W        W91631   9.708  11.781  11.112
27908W        W91632  21.050  31.116  10.610
27909W        W91633   5.873   6.866   4.120
27910W        W91634  39.031   9.170   0.331
27911W        W91635   0.971   5.795  11.411
27912W        W91636  29.501  14.709  13.961
27913W        W91637   5.436  27.542  14.956
27914W        W91638  44.264  43.019   3.751
27915W        W91639  37.886  17.565  14.853
27916W        W91640  29.091  12.742   2.866
27917W        W91641  32.087  12.756   4.610
27918W        W91642  17.238   4.765  14.279
27919W        W91643  22.108  38.884  14.841
27920W        W91644  14.599  26.088   2.778
27921W        W91645  20.634  29.543  12.992
27922W        W91646  14.125   1.418  12.061
27923W        W91647  18.734  16.077  13.934
27924W        W91648  25.042   4.249   0.448
27925W        W91649  25.568  42.813  10.111
27926W        W91650  19.195   0.880  12.967
27927W        W91651  17.741  42.843   3.839
27928W        W91652  44.386   6.389  12.475
27929W        W91653   5.905  28.096  10.959
27930W        W91654  33.484  19.066  14.500
27931W        W91655  44.913  14.326  10.958
27932W        W91656  21.083  14.721  14.019
27933W        W91657  43.848  27.518  11.015
27934W        W91658   8.892  27.516  13.854
27935W        W91659   2.392  10.144   2.799
27936W        W91660  10.817  42.968  10.985
27937W        W91661  35.893   3.945   1.399
27938W        W91662  39.988  35.469  12.512
27939W        W91663  34.486  38.358   4.238
27940W        W91664  33.499  15.092   3.811
27941W        W91665  15.150   4.220   2.888
27942W        W91666  11.680   7.201   2.687
27943W        W91667  36.980  32.142  14.302
27944W        W91668   6.831   5.347   2.356
27945W        W91669  12.287  22.037   3.256
27946W        W91670   3.292  16.741  12.525
27947W        W91671  43.856  44.418   3.711
27948W        W91672  27.022   4.851   3.217
27949W        W91673  37.040  16.081   0.967
27950W        W91674  28.070  41.882   5.194
27951W        W91675  44.399  30.130   4.250
27952W        W91676  18.213  25.051   2.833
27953W        W91677  13.211   8.732  13.951
27954W        W91678  17.071  15.797  11.911
27955W        W91679  36.927  13.829  14.907
27956W        W91680  29.939  39.492   0.919
27957W        W91681   4.268  12.205  13.525
27958W        W91682  20.028  27.608  11.470
27959W        W91683  31.946  20.682   2.769
27960W        W91684  38.012  29.439  13.813
27961W        W91685   5.233  37.452   1.211
27962W        W91686  31.070   0.299  10.434
27963W        W91687  44.978  25.702   1.270
27964W        W91688   5.830  15.711  13.862
27965W        W91689   8.818   7.673  14.305
27966W        W91690  18.153  18.760   4.241
27967W        W91691  12.848  44.261  11.579
27968W        W91692  27.509  40.409   0.785
27969W        W91693  13.272  26.081   2.380
27970W        W91694   3.340  43.324  12.475
27971W        W91695  14.153   4.365  11.501
27972W        W91696  10.355  33.980  10.589
27973W        W91697  31.116  33.108   3.368
27974W        W91698  43.964  13.129   3.231
27975W        W91699   4.728  18.104  10.154
27976W        W91700  32.616   8.835   1.363
27977W        W91701   6.900  28.520  12.370
27978W        W91702  22.159  15.193   1.806
27979W        W91703  14.748   0.894   2.782
27980W        W91704  42.950  19.713   2.719
27981W        W91705  36.013   8.302  13.903
27982W        W91706   5.750  36.459   3.654
27983W        W91707  35.426  30.076   4.832
27984W        W91708  27.541  13.215  12.557
27985W        W91709  37.570   0.302   1.846
27986W        W91710  21.148  27.624  11.969
27987W        W91711   8.664  28.595  10.901
27988W        W91712  26.495  25.484  14.010
27989W        W91713  26.624   0.876   1.760
27990W        W91714  18.290  37.394  14.308
27991W        W91715   3.370  41.447  11.374
27992W        W91716  41.337  10.651   3.379
27993W        W91717  44.358  37.938  14.966
27994W        W91718  24.223  28.084   5.602
27995W        W91719  22.243  24.136   3.798
27996W        W91720  39.013   8.288  14.920
27997W        W91721  31.915   3.870  12.463
27998W        W91722  17.580  20.734  13.929
27999W        W91723   0.488  32.046   4.801
28000W        W91724  19.135  12.693   1.442
28001W        W91725  27.166  14.158  12.926
28002W        W91726   2.886  18.083  13.331
28003W        W91727  21.142  33.386  11.099
28004W        W91728  37.526  11.621  11.036
28005W        W91729  11.659  32.953   4.226
28006W        W91730  25.147  37.541  14.974
28007W        W91731  21.175  36.872  10.085
28008W        W91732  43.380   3.835  11.596
28009W        W91733  42.327  23.165  14.871
28010W        W91734  31.518   3.390   2.368
28011W        W91735  30.092   0.455   2.695
28012W        W91736  20.202   1.380  13.008
28013W        W91737  20.539  13.785  10.054
28014W        W91738   7.296  16.573  12.049
28015W        W91739  10.357   1.790   1.449
28016W        W91740  40.385  35.884  13.951
28017W        W91741   7.906  15.152   1.834
28018W        W91742   4.704  32.916  11.018
28019W        W91743  27.559  42.416  12.537
28020W        W91744  35.407  28.531   0.886
28021W        W91745  31.115  13.252  11.478
28022W        W91746   2.304  32.410   3.215
28023W        W91747  30.120  11.155  14.449
28024W        W91748  34.423  30.621   2.408
28025W        W91749  40.994  12.185  14.828
28026W        W91750  37.970  19.647  11.042
28027W        W91751  21.634  13.613   0.446
28028W        W91752  38.398   3.412   2.754
28029W        W91753  34.403   8.681   4.787
28030W        W91754  40.543  13.300  11.461
28031W        W91755  33.619  31.413   0.316
28032W        W91756  41.884  20.576  10.127
28033W        W91757  31.544   4.865   0.759
28034W        W91758   0.777  21.747   4.831
28035W        W91759  31.936   5.339  13.859
28036W        W91760  16.098  34.082  11.078
28037W        W91761  12.787  19.740  14.306
28038W        W91762  41.850  13.695  11.546
28039W        W91763   7.825  16.626  14.836
28040W        W91764   2.771   1.306   0.279
28041W        W91765  38.878   2.470   2.346
28042W        W91766  24.517  23.984   2.330
28043W        W91767  16.254  16.726  14.016
28044W        W91768  35.423   8.879   2.235
28045W        W91769  31.962  40.403  13.406
28046W        W91770   1.367  21.574  13.833
28047W        W91771  36.905  12.191  14.467
28048W        W91772   7.879  22.536  10.404
28049W        W91773   8.218  14.764   2.404
28050W        W91774   5.307  34.020   4.772
28051W        W91775  36.461  37.533  11.046
28052W        W91776  11.758  12.744   3.829
28053W        W91777   3.819  14.680  12.075
28054W        W91778  43.895  10.689  11.018
28055W        W91779   7.738  16.248  13.459
28056W        W91780  35.492  37.015  14.462
28057W        W91781   8.678  12.766  11.555
28058W        W91782  43.781   6.845  12.830
28059W        W91783  16.096  26.693   3.755
28060W        W91784  23.025  24.557   1.385
28061W        W91785   5.896  10.272  12.381
28062W        W91786  30.104  21.754  12.829
28063W        W91787  22.151  13.214   3.840
28064W        W91788  21.078  13.740   5.104
28065W        W91789  24.711  16.293   1.741
28066W        W91790   9.290  12.851  14.897
28067W        W91791  40.533  21.589  10.505
28068W        W91792   6.244  35.061  10.444
28069W        W91793  13.296  13.803  12.372
28070W        W91794   5.838   1.803   0.304
28071W        W91795  19.177  37.538   2.417
28072W        W91796  43.777  23.544   4.695
28073W        W91797  22.148  35.945   2.214
28074W        W91798  41.386  37.546  10.500
28075W        W91799  16.194  40.464  10.408
28076W        W91800  23.629  12.849  14.972
28077W        W91801  43.772  11.178   1.307
28078W        W91802  24.486   8.727  13.454
28079W        W91803  37.046   3.735  12.461
28080W        W91804  43.324  39.328   3.347
28081W        W91805   8.213  28.486   1.224
28082W        W91806   6.352   5.238   2.692
28083W        W91807  32.057  32.114  11.534
28084W        W91808  24.548   8.350   3.237
28085W        W91809  24.091  41.988   1.211
28086W        W91810  30.145  25.670   4.768
28087W        W91811  10.346  22.588   9.979
28088W        W91812  14.706   6.238   4.298
28089W        W91813  24.014  39.953   3.805
28090W        W91814   8.211  21.696  12.371
28091W        W91815  22.686  16.689  13.377
28092W        W91816  24.081  33.431  12.443
28093W        W91817  19.163  11.269   4.707
28094W        W91818   0.365  40.310   0.799
28095W        W91819  33.878   6.207  11.967
28096W        W91820   3.726   6.203  13.505
28097W        W91821   9.755  14.599   1.385
28098W        W91822  33.534   4.875  10.105
28099W        W91823  39.947  13.803   1.384
28100W        W91824  43.294  35.907   4.688
28101W        W91825  44.920   9.885  13.822
28102W        W91826  33.945  10.770   4.709
28103W        W91827  38.998   4.315   1.707
28104W        W91828  12.252  37.865   2.361
28105W        W91829  38.001  24.560   2.407
28106W        W91830  31.628  32.624   4.701
28107W        W91831   3.239  19.673   3.820
28108W        W91832   2.460  30.952  12.361
28109W        W91833  31.151  10.679   2.197
28110W        W91834  19.761  16.704   3.733
28111W        W91835   0.454  11.836  13.477
28112W        W91836  40.378  13.183   2.280
28113W        W91837  40.041   8.267   1.917
28114W        W91838  20.031   5.917   0.921
28115W        W91839  19.661  32.442  12.359
28116W        W91840  40.852  17.307   2.325
28117W        W91841  17.677  15.809  13.954
28118W        W91842  40.307   4.328   0.434
28119W        W91843  21.543  28.162  10.451
28120W        W91844  29.122  12.265  14.421
28121W        W91845  20.169  12.658   3.348
28122W        W91846  10.139  23.049   3.165
28123W        W91847  31.525  31.484  10.970
28124W        W91848  39.816   3.720   4.734
28125W        W91849  30.550   1.343   3.845
28126W        W91850  18.142  35.089  10.452
28127W        W91851  37.888   5.691  14.834
28128W        W91852   3.902  21.148   4.809
28129W        W91853  22.743  12.235   4.766
28130W        W91854  20.109  41.043  10.557
28131W        W91855  15.597  40.934  14.889
28132W        W91856   3.232  38.419   1.314
28133W        W91857  30.454  12.733   0.899
28134W        W91858  23.647  17.214  11.547
28135W        W91859  38.391  40.312   1.697
28136W        W91860  28.500   1.370  14.453
28137W        W91861  16.165   0.492   1.738
28138W        W91862   8.745   6.326   3.365
28139W        W91863  36.846   7.196  13.471
28140W        W91864   9.743  37.871  13.045
28141W        W91865  29.032  10.137   2.885
28142W        W91866  34.995  29.026   2.677
28143W        W91867  29.077   1.374  14.818
28144W        W91868   6.395  20.730  12.378
28145W        W91869  11.367  15.740   4.792
28146W        W91870   4.220  22.248   4.727
28147W        W91871  15.769  31.551   2.407
28148W        W91872  11.625  23.074  10.441
28149W        W91873   7.671   0.393  12.390
28150W        W91874  42.801  37.868   0.860
28151W        W91875   4.270   1.931   2.774
28152W        W91876  35.558  21.171  10.414
28153W        W91877   9.340  11.634   3.223
28154W        W91878  26.621   3.433  13.511
28155W        W91879  19.115  13.759   4.700
28156W        W91880  38.926   9.369  13.376
28157W        W91881  29.116   3.271  12.568
28158W        W91882  19.095   9.305  12.947
28159W        W91883  31.064  44.869   4.209
28160W        W91884  29.601  32.926   0.736
28161W        W91885  38.034  10.812  11.371
28162W        W91886   6.797  44.939   2.741
28163W        W91887  14.796  26.060  12.034
28164W        W91888   8.292  13.752  10.065
28165W        W91889   7.735  29.520  13.050
28166W        W91890   1.262  31.642  13.412
28167W        W91891  31.439  26.131  11.026
28168W        W91892  21.211   2.755   4.303
28169W        W91893   1.338   2.937   3.201
28170W        W91894  37.369  18.645  11.373
28171W        W91895  20.235  37.950  13.484
28172W        W91896  30.907  32.405   1.293
28173W        W91897  31.593   4.841   1.895
28174W        W91898  36.923  12.763   1.292
28175W        W91899  36.471  18.571  10.490
28176W        W91900  23.152  23.586   4.634
28177W        W91901  23.631  43.979  11.114
28178W        W91902  22.573  32.925  12.836
28179W        W91903  13.245  23.513  10.102
28180W        W91904   6.416  38.473   1.829
28181W        W91905  30.577  12.130   3.766
28182W        W91906   8.886  43.461   3.147
28183W        W91907  29.978  13.750   4.780
28184W        W91908  21.618  16.309   0.813
28185W        W91909  14.654  34.538   3.327
28186W        W91910  16.144  32.398  12.382
28187W        W91911  26.646  33.507  13.817
28188W        W91912  40.822  20.689   1.436
28189W        W91913  15.183  11.324   2.323
28190W        W91914   1.850  11.657  12.075
28191W        W91915   7.252  11.219  10.121
28192W        W91916  23.112  14.285  12.843
28193W        W91917  19.746  35.997  14.514
28194W        W91918   0.761  29.944  14.983
28195W        W91919  39.011  21.017   3.216
28196W        W91920  26.495  23.069   1.856
28197W        W91921  41.832  16.300   4.697
28198W        W91922  43.804   9.332  13.512
28199W        W91923  13.219  19.643  13.833
28200W        W91924   0.300  10.195   1.376
28201W        W91925  28.123  25.596   1.695
28202W        W91926  26.009   7.747   2.178
28203W        W91927   4.757  20.055   0.854
28204W        W91928   2.316  28.026  10.103
28205W        W91929  15.089  17.114  11.576
28206W        W91930  15.168  36.427  10.980
28207W        W91931   3.303  34.014  13.985
28208W        W91932  35.081  14.100  13.454
28209W        W91933  43.964  13.239  14.822
28210W        W91934  20.223  14.193   0.296
28211W        W91935  27.616  31.010   3.358
28212W        W91936   7.364  38.536   2.374
28213W        W91937  36.512  30.450  10.548
28214W        W91938  34.919  22.116  11.541
28215W        W91939  44.931   3.811   3.665
28216W        W91940  30.633  24.042  14.490
28217W        W91941  28.124  27.600   1.308
28218W        W91942  10.227  12.151   3.359
28219W        W91943   0.787  37.566  10.583
28220W        W91944  21.660  14.208  12.032
28221W        W91945  22.615  30.536  10.493
28222W        W91946  25.167  18.073   0.869
28223W        W91947   3.373  19.089   0.472
28224W        W91948   3.315  36.897  11.058
28225W        W91949  26.581  36.555  12.375
28226W        W91950  43.999  34.053   3.792
28227W        W91951  33.383   0.782   3.729
28228W        W91952   4.897  41.974   2.348
28229W        W91953  20.146  38.406   4.601
28230W        W91954   9.214  28.668   2.882
28231W        W91955  28.551   1.944  14.382
28232W        W91956  28.622  43.888   2.332
28233W        W91957  29.428   5.825  13.323
28234W        W91958   9.741   5.817  14.390
28235W        W91959  20.138  29.060   3.339
28236W        W91960  22.996  29.463   3.796
28237W        W91961  44.860  43.269   2.835
28238W        W91962  22.104   2.832   3.309
28239W        W91963  21.703   3.408  13.475
28240W        W91964   0.453  38.473  11.948
28241W        W91965  41.310  18.784  14.012
28242W        W91966  11.367  25.678  12.379
28243W        W91967  29.993  36.407  14.939
28244W        W91968   0.837   9.236  13.336
28245W        W91969  15.680   8.835  13.462
28246W        W91970  32.122  40.822   3.339
28247W        W91971  33.483   6.905  10.419
28248W        W91972  26.638  26.029  14.759
28249W        W91973   7.760  25.507   2.897
28250W        W91974  26.529  19.709   2.783
28251W        W91975  14.201  12.119   2.194
28252W        W91976  28.149  30.995  11.386
28253W        W91977  25.988  22.166   0.282
28254W        W91978  27.020  23.998   3.687
28255W        W91979  36.059  32.935   4.144
28256W        W91980  23.191  40.967  14.383
28257W        W91981  30.600  24.115  12.380
28258W        W91982  42.968  29.060   3.824
28259W        W91983  41.445  34.368   2.834
28260W        W91984  25.703  33.507  12.872
28261W        W91985  36.914  28.653  14.917
28262W        W91986  19.266  31.965   4.611
28263W        W91987  27.055  15.644  13.940
28264W        W91988  32.528   9.394   1.285
28265W        W91989  32.461   4.311  11.968
28266W        W91990  43.513  32.480   0.782
28267W        W91991  10.742   6.191  10.991
28268W        W91992   5.792  15.783  14.511
28269W        W91993  41.334  33.504   2.667
28270W        W91994  41.308   4.275   1.715
28271W        W91995  27.959  26.185  14.914
28272W        W91996  25.997  42.931   4.305
28273W        W91997   6.791  26.681  14.818
28274W        W91998  30.943  19.187  12.831
28275W        W91999  43.944  15.580  13.952
28276W        W92000   0.415   9.237  11.503
28277W        W92001  11.739  11.202  13.917
28278W        W92002  13.725  39.407   0.829
28279W        W92003  41.338   3.255   4.814
28280W        W92004  29.158   5.863   0.942
28281W        W92005  29.468  32.493   0.807
28282W        W92006  29.134  13.208  13.494
28283W        W92007  21.519  36.049   4.616
28284W        W92008   4.228  33.451   2.351
28285W        W92009  39.001  13.154  10.446
28286W        W92010  12.169  24.102   2.402
28287W        W92011  13.255  33.978   0.761
28288W        W92012  42.287  21.745  13.851
28289W        W92013   8.742  25.049   0.410
28290W        W92014  38.330   6.684   4.156
28291W        W92015  14.277  21.180   2.180
28292W        W92016  36.004  43.791   0.802
28293W        W92017  14.705  39.421   3.378
28294W        W92018  12.850   1.978   4.823
28295W        W92019  26.078   7.808   4.329
28296W        W92020  42.952  10.361   3.343
28297W        W92021  12.730   0.937  11.968
28298W        W92022  37.072  42.435   2.308
28299W        W92023  25.992  33.941  11.530
28300W        W92024  19.052  16.586   0.364
28301W        W92025   7.311  16.200   4.205
28302W        W92026  37.427  39.542   2.233
28303W        W92027  44.923  24.481   1.722
28304W        W92028  42.406  28.026   2.372
28305W        W92029  42.363  37.845  12.929
28306W        W92030  43.439   1.341   2.840
28307W        W92031   5.363  36.886   0.749
28308W        W92032  30.629   0.742  14.335
28309W        W92033   7.787   9.201   2.313
28310W        W92034   7.197   4.771   0.905
28311W        W92035  42.016  22.184   4.715
28312W        W92036   4.294  41.522   0.797
28313W        W92037  20.146  36.410   4.326
28314W        W92038  43.877  43.951  11.395
28315W        W92039  39.501  15.281  12.078
28316W        W92040   9.863  19.555  11.904
28317W        W92041  43.434  33.984   2.299
28318W        W92042   2.250  19.099  12.341
28319W        W92043  20.142  28.059  14.023
28320W        W92044  14.194  44.008  14.009
28321W        W92045   8.791  21.186  13.029
28322W        W92046  38.422  25.659  12.507
28323W        W92047  29.429  27.024  14.886
28324W        W92048  21.097   6.705  11.022
28325W        W92049   0.799  22.010   2.267
28326W        W92050  30.960   3.863  11.401
28327W        W92051  15.809  14.663  11.859
28328W        W92052  43.007  13.689  14.344
28329W        W92053  11.367  36.858  13.797
28330W        W92054  24.017   4.321   0.732
28331W        W92055  35.358   5.423   4.282
28332W        W92056  28.611  41.523  10.509
28333W        W92057  43.467  39.428  13.381
28334W        W92058   0.263  18.120   2.843
28335W        W92059  39.940   4.364  12.579
28336W        W92060  25.635  21.642  10.502
28337W        W92061   6.778  20.743  13.393
28338W        W92062  13.105   4.354   3.302
28339W        W92063   4.397   2.841  14.423
28340W        W92064   3.312  17.742   3.757
28341W        W92065  34.497  31.502   2.781
28342W        W92066  28.482  29.508   4.658
28343W        W92067   4.795  11.672  12.003
28344W        W92068  24.536  16.170   2.410
28345W        W92069  11.160  21.263   2.252
28346W        W92070  22.109   1.864   2.324
28347W        W92071  18.784  33.509   1.301
28348W        W92072   4.769  19.666  11.609
28349W        W92073  23.704   3.240  12.858
28350W        W92074  44.413  10.192   4.663
28351W        W92075   3.238  21.149  12.973
28352W        W92076  26.645  15.091  13.362
28353W        W92077  36.038  37.996  14.276
28354W        W92078  30.160  15.658  13.857
28355W        W92079  12.852   0.362  14.800
28356W        W92080   7.196  39.461   2.197
28357W        W92081  40.941  41.818   3.645
28358W        W92082  40.482  11.292   2.823
28359W        W92083  32.130   3.337  14.472
28360W        W92084   1.444  37.989  13.979
28361W        W92085  41.489   6.391   3.837
28362W        W92086  38.534  43.486   2.867
28363W        W92087  10.757  31.423   3.377
28364W        W92088  36.574   4.886   0.746
28365W        W92089  14.674  14.210   4.285
28366W        W92090  23.637  23.699   0.936
28367W        W92091  44.308   3.419   1.399
28368W        W92092  32.453  26.478   0.811
28369W        W92093  33.411   5.347  14.026
28370W        W92094  22.080  17.119  13.855
28371W        W92095  36.426   0.909   3.204
28372W        W92096  24.078   2.428  14.012
28373W        W92097   5.410   3.291   4.259
28374W        W92098   9.254  41.808   4.614
28375W        W92099  20.638  19.176  11.974
28376W        W92100  37.369  23.635  12.954
28377W        W92101  35.968  11.129  13.884
28378W        W92102  22.181  40.004   0.454
28379W        W92103  21.556   4.208   0.450
28380W        W92104  25.039  28.658  12.409
28381W        W92105  36.593  30.584  11.004
28382W        W92106  25.533  10.708  12.372
28383W        W92107  35.037  38.410   3.869
28384W        W92108  40.945  44.330  14.948
28385W        W92109  17.219  34.894  14.510
28386W        W92110   8.269  29.024   0.245
28387W        W92111  43.909   9.766   4.697
28388W        W92112  40.478   0.924   1.804
28389W        W92113   3.809   1.243  13.381
28390W        W92114  24.054   7.830  12.984
28391W        W92115  26.965  14.230   3.698
28392W        W92116   7.212  21.209  11.914
28393W        W92117  13.320  36.027   5.102
28394W        W92118  36.928   3.349  12.951
28395W        W92119  28.090  29.644  12.481
28396W        W92120  22.057  36.507  12.987
28397W        W92121   3.331  11.779  11.933
28398W        W92122  31.074   0.331  11.100
28399W        W92123  19.598   1.367   2.749
28400W        W92124  10.770  39.483   1.703
28401W        W92125  26.597  17.705   4.680
28402W        W92126   7.852  18.291   0.960
28403W        W92127  22.194  35.973   3.338
28404W        W92128  27.570  15.329   1.391
28405W        W92129  16.137  12.679   0.323
28406W        W92130   5.922  36.039   2.217
28407W        W92131  33.564  42.282   2.881
28408W        W92132  11.246  28.042   3.682
28409W        W92133  43.932   8.195  12.529
28410W        W92134  16.601   9.846   3.150
28411W        W92135  26.966  27.516  14.903
28412W        W92136   0.337  24.509  11.946
28413W        W92137  33.588   0.918   0.299
28414W        W92138  33.020  32.470   3.327
28415W        W92139  29.112   4.755   0.762
28416W        W92140  32.994  43.329  13.403
28417W        W92141  11.281  35.429   3.682
28418W        W92142  28.455  11.298   3.698
28419W        W92143  22.546   6.885   3.355
28420W        W92144  11.175   3.260  11.896
28421W        W92145   2.425  19.620   2.228
28422W        W92146  39.008  19.218  13.978
28423W        W92147  39.314  24.167   1.754
28424W        W92148  17.559  40.427  11.577
28425W        W92149  44.861  17.745  10.505
28426W        W92150  31.054  43.364  12.912
28427W        W92151  15.197   5.368  14.854
28428W        W92152  32.630  18.055   2.721
28429W        W92153  16.305  34.884  10.490
28430W        W92154   6.725  31.428  11.395
28431W        W92155  23.551  28.180  10.888
28432W        W92156  20.726  43.429   0.286
28433W        W92157   2.966  24.577   2.868
28434W        W92158  36.099  31.907   2.333
28435W        W92159  22.153  41.956   1.249
28436W        W92160   7.865  22.515   0.266
28437W        W92161  16.602  14.309   9.659
28438W        W92162  13.123  17.211  12.561
28439W        W92163   7.250  41.863  11.527
28440W        W92164  37.557  42.782  11.975
28441W        W92165   7.387  27.599  14.988
28442W        W92166  22.250  12.625  14.764
28443W        W92167  17.114  23.698  12.381
28444W        W92168  10.188  43.488  13.002
28445W        W92169  35.575  17.200  10.412
28446W        W92170  21.205  41.918   1.293
28447W        W92171  39.336  42.969  11.866
28448W        W92172  23.586   7.888  14.803
28449W        W92173  37.039  40.355   2.343
28450W        W92174  37.049  24.183  14.798
28451W        W92175  42.331  44.925  14.439
28452W        W92176  24.061  22.176   1.885
28453W        W92177  40.975  37.884   3.347
28454W        W92178  27.012  16.730  12.830
28455W        W92179  14.340  25.106   1.718
28456W        W92180  18.108  34.446   1.392
28457W        W92181  16.115  41.381  11.508
28458W        W92182  31.042  40.410  14.481
28459W        W92183   3.352  21.569   0.245
28460W        W92184   7.228  12.309  11.595
28461W        W92185  28.041  44.291  13.909
28462W        W92186  12.618  36.988  10.575
28463W        W92187   5.223  40.547   4.202
28464W        W92188  34.104  22.106   4.156
28465W        W92189  38.032  21.019   0.875
28466W        W92190   0.436  19.113  12.044
28467W        W92191   2.337  24.038  10.142
28468W        W92192  24.227  27.164  12.883
28469W        W92193  16.777  14.649  11.995
28470W        W92194  10.178  30.557   1.218
28471W        W92195   6.825  34.085   4.797
28472W        W92196  37.520  28.139  13.892
28473W        W92197  36.386  30.127   4.714
28474W        W92198  39.971  37.411  12.339
28475W        W92199  20.086  34.955  12.996
28476W        W92200   2.884  44.381   0.907
28477W        W92201  41.445  23.178   1.750
28478W        W92202  36.909  21.197  10.930
28479W        W92203   7.198  21.190   2.725
28480W        W92204   0.960   4.421  13.927
28481W        W92205  22.736   7.338   4.813
28482W        W92206  21.542  25.110   4.160
28483W        W92207  42.393  11.838  14.956
28484W        W92208  32.623  39.517   1.723
28485W        W92209  29.964  25.613   1.251
28486W        W92210  31.931  12.232  14.319
28487W        W92211  15.126   0.881  13.793
28488W        W92212   0.408  15.597   0.337
28489W        W92213  20.226  36.027   2.238
28490W        W92214  23.988  25.992   2.284
28491W        W92215  35.557  23.990  14.502
28492W        W92216  38.919  24.983  13.998
28493W        W92217  31.551  35.970   0.841
28494W        W92218   0.797   5.814  12.382
28495W        W92219  19.163  27.975   2.712
28496W        W92220  28.655  43.341   2.902
28497W        W92221  14.226  27.960   3.701
28498W        W92222  30.560  25.470   0.832
28499W        W92223   7.319   8.848  11.432
28500W        W92224  17.651  43.392   0.453
28501W        W92225  13.264  23.071   2.183
28502W        W92226  16.215  17.213  11.088
28503W        W92227  13.142  37.830   0.462
28504W        W92228  41.902  22.041  11.600
28505W        W92229  21.081  44.350   3.665
28506W        W92230  28.552  10.242   0.875
28507W        W92231   7.416  24.193   4.720
28508W        W92232  26.547   1.428  14.822
28509W        W92233   4.839  27.120  14.001
28510W        W92234  12.756   6.213   1.815
28511W        W92235   4.401   3.814   4.811
28512W        W92236  43.825  11.862  10.599
28513W        W92237  16.626   0.984   3.845
28514W        W92238  41.797  19.200   3.326
28515W        W92239  41.974  17.614  11.893
28516W        W92240   6.780  44.265  14.467
28517W        W92241  30.454  39.518   3.751
28518W        W92242  13.754  31.584  12.986
28519W        W92243   0.415   6.340   3.725
28520W        W92244  30.533   9.775  12.093
28521W        W92245  37.991   6.379   0.449
28522W        W92246  39.419   7.236  14.813
28523W        W92247  11.255  14.340   2.310
28524W        W92248  36.952  44.923   0.362
28525W        W92249  43.987   8.849  12.835
28526W        W92250  28.621  15.578  11.562
28527W        W92251  34.577  12.766   9.616
28528W        W92252  24.167  41.530   5.654
28529W        W92253  42.866  27.618   1.232
28530W        W92254  19.198  36.424   0.846
28531W        W92255  15.256  22.638  14.439
28532W        W92256   9.771  36.038  10.947
28533W        W92257   5.360  37.532  11.510
28534W        W92258  33.383   7.239  10.897
28535W        W92259   4.282  37.347  12.939
28536W        W92260  10.667  32.571   2.349
28537W        W92261  32.463  30.114   0.841
28538W        W92262  21.574   2.412   4.684
28539W        W92263  29.639   5.360  13.402
28540W        W92264  42.014  31.469   2.223
28541W        W92265  43.384  27.576  12.354
28542W        W92266   6.299  37.012   1.808
28543W        W92267  25.215   2.908   3.664
28544W        W92268  15.773   3.941  13.922
28545W        W92269  14.830  43.771  13.807
28546W        W92270  16.155  28.479  10.521
28547W        W92271  12.167   0.361  13.311
28548W        W92272  38.843  31.569  10.963
28549W        W92273  42.478  32.584   0.291
28550W        W92274  41.461  34.562   5.745
28551W        W92275  39.524  36.389   4.718
28552W        W92276  32.109  35.526   0.479
28553W        W92277  13.176  14.264   1.793
28554W        W92278  14.685  19.102  14.399
28555W        W92279  16.152  43.977  10.482
28556W        W92280  17.708  40.852  13.410
28557W        W92281  40.505  39.933   0.766
28558W        W92282  11.724  37.520  12.851
28559W        W92283  38.514   2.857  12.064
28560W        W92284  13.599  43.802   0.386
28561W        W92285  25.157   2.382  11.931
28562W        W92286  12.816  14.195   2.203
28563W        W92287  41.376  38.872  14.469
28564W        W92288  37.373  35.440  11.458
28565W        W92289  22.087  36.524  10.626
28566W        W92290  14.192  36.520  12.477
28567W        W92291  39.978  42.459  10.153
28568W        W92292  39.932  27.621  14.929
28569W        W92293   9.299  20.652  11.572
28570W        W92294   5.720  39.981   3.689
28571W        W92295  29.110  34.608  10.632
28572W        W92296  15.589  25.486  14.021
28573W        W92297  30.523  30.938   1.923
28574W        W92298  42.280  27.150   0.897
28575W        W92299  18.152  13.762   3.225
28576W        W92300  15.205  13.736   0.899
28577W        W92301  24.550  17.737   1.363
28578W        W92302  38.994   8.190   2.335
28579W        W92303  19.729  13.610  14.930
28580W        W92304  34.034  36.043   2.763
28581W        W92305  41.898   2.822   2.851
28582W        W92306   3.721  16.595  12.439
28583W        W92307  35.420  31.986  11.471
28584W        W92308  35.932   6.789   2.684
28585W        W92309  24.011  18.051  12.448
28586W        W92310  34.023  11.749   1.902
28587W        W92311  37.016  11.677   4.218
28588W        W92312  14.827   3.781  11.926
28589W        W92313   7.342  15.655   0.318
28590W        W92314  30.496  40.352   3.244
28591W        W92315  10.313   1.350  12.450
28592W        W92316  13.633  44.260  13.461
28593W        W92317  19.218   4.777   0.296
28594W        W92318   9.646  36.011   1.913
28595W        W92319  22.689  29.562   4.213
28596W        W92320   1.392  30.029  13.846
28597W        W92321  24.553   1.732  12.087
28598W        W92322   2.344   9.696  10.466
28599W        W92323   9.840  32.000  12.538
28600W        W92324  19.242  32.006  12.575
28601W        W92325  34.911  31.484  11.025
28602W        W92326  35.042  39.549   4.817
28603W        W92327  27.113  28.165   3.271
28604W        W92328  42.965  22.175  13.871
28605W        W92329  31.041   4.386   3.649
28606W        W92330  37.849   3.932   0.377
28607W        W92331  41.803   2.292   0.734
28608W        W92332  27.185   2.260  14.999
28609W        W92333  34.517  30.029  13.451
28610W        W92334  32.118  16.708   2.829
28611W        W92335  26.977   9.659   2.282
28612W        W92336  28.176  12.206   2.254
28613W        W92337  34.487  27.497  12.965
28614W        W92338   9.247   6.804   0.761
28615W        W92339  15.145  25.530  14.858
28616W        W92340  25.575  32.476   3.299
28617W        W92341  12.846  15.120  11.021
28618W        W92342  34.865  41.816   2.204
28619W        W92343  15.813  32.448   3.360
28620W        W92344   7.894   0.493  13.926
28621W        W92345  41.972   9.217  13.908
28622W        W92346  15.293  12.721   0.868
28623W        W92347  41.520  18.209   4.164
28624W        W92348   3.316  31.564  12.045
28625W        W92349  37.068  34.928   3.751
28626W        W92350  38.569  41.374   0.306
28627W        W92351  43.325   6.798  14.786
28628W        W92352  20.669   3.308   4.728
28629W        W92353  44.853  38.525  12.045
28630W        W92354   3.447  14.287  14.459
28631W        W92355  30.527   1.919  10.622
28632W        W92356  38.443   9.840   3.832
28633W        W92357  23.583  13.676   3.778
28634W        W92358  40.814  26.543  13.019
28635W        W92359  37.388  10.705  14.816
28636W        W92360  41.311  30.594  11.998
28637W        W92361   3.259  26.619  12.053
28638W        W92362  38.496  21.748   4.608
28639W        W92363  12.636  34.039   2.827
28640W        W92364  22.099  43.991   2.742
28641W        W92365  44.821  26.654   3.669
28642W        W92366  24.203  19.674   1.230
28643W        W92367  36.995  21.100   4.614
28644W        W92368   4.412  29.651   4.206
28645W        W92369  39.934  43.305  11.013
28646W        W92370  44.410  11.809  14.509
28647W        W92371  17.694   2.461  14.437
28648W        W92372  38.034  38.977   3.196
28649W        W92373   1.973   4.299   1.825
28650W        W92374  26.536  23.579   1.422
28651W        W92375  38.015  26.961   2.323
28652W        W92376  28.052   2.271   0.814
28653W        W92377  17.772   2.724  14.365
28654W        W92378  35.499  36.972   2.341
28655W        W92379  27.524   7.815  11.479
28656W        W92380  24.212  38.360   4.277
28657W        W92381  21.260  31.051  12.063
28658W        W92382  21.212  37.339  10.510
28659W        W92383  33.587   0.886  11.996
28660W        W92384  14.730  18.105  11.972
28661W        W92385  33.501  29.174  14.848
28662W        W92386  40.848   1.265  12.464
28663W        W92387  41.846  32.095  10.632
28664W        W92388  25.018  32.541   2.881
28665W        W92389  24.700   8.174  10.064
28666W        W92390  29.468  44.386   1.775
28667W        W92391  23.181  34.895  13.034
28668W        W92392  27.190  25.513   1.813
28669W        W92393  10.672  30.598   0.354
28670W        W92394  17.794  23.589   1.215
28671W        W92395  32.459   3.952  12.866
28672W        W92396  11.689  33.917  14.007
28673W        W92397  19.646  20.263  14.851
28674W        W92398  12.311  20.096  11.086
28675W        W92399   0.323  44.279  11.483
28676W        W92400  21.065   3.298   0.318
28677W        W92401  40.450  32.455  12.906
28678W        W92402  22.054  13.834   1.371
28679W        W92403  24.037  12.837   4.325
28680W        W92404   7.744  11.699   1.329
28681W        W92405  27.093  42.893   4.194
28682W        W92406  18.571  30.033  14.884
28683W        W92407  24.676  26.143   4.250
28684W        W92408  31.120  39.853  14.825
28685W        W92409  30.471  37.547  13.380
28686W        W92410  15.104  38.426  10.489
28687W        W92411  23.591  25.561   0.946
28688W        W92412  15.146  43.330  10.563
28689W        W92413  13.745  20.103   4.162
28690W        W92414  14.723  14.137  11.487
28691W        W92415   4.362  23.559   2.294
28692W        W92416  14.294   5.791   4.295
28693W        W92417  33.897   5.827  11.040
28694W        W92418   6.755  30.454   2.345
28695W        W92419  36.058  25.988   3.274
28696W        W92420   8.797   7.895  10.988
28697W        W92421  15.667   1.336  11.502
28698W        W92422  17.066  37.416   0.362
28699W        W92423  19.675  21.094   4.629
28700W        W92424  30.544  22.084  13.445
28701W        W92425  28.582  19.634   5.160
28702W        W92426  15.749  39.461   1.418
28703W        W92427  13.313  13.653   3.269
28704W        W92428  35.030  20.266  12.357
28705W        W92429  15.747  22.514  12.001
28706W        W92430   2.351  19.284  13.315
28707W        W92431   1.908  28.461   3.708
28708W        W92432  43.807   2.840   3.231
28709W        W92433  33.592   8.691   5.191
28710W        W92434  15.305  35.561  14.446
28711W        W92435  30.034  11.226   0.343
28712W        W92436  43.395  11.128  13.487
28713W        W92437  22.736  35.088  11.060
28714W        W92438  20.208  37.469   0.359
28715W        W92439  10.744   6.259  11.524
28716W        W92440  43.794  13.752  13.353
28717W        W92441  25.208  21.746  13.393
28718W        W92442  34.575  18.659   0.250
28719W        W92443  20.746  43.433  10.599
28720W        W92444  17.192   6.731  13.984
28721W        W92445  41.399  15.737   5.309
28722W        W92446   2.741  39.542  13.932
28723W        W92447  37.969   2.966   3.735
28724W        W92448  30.499  39.560   0.740
28725W        W92449  21.728  32.414  10.897
28726W        W92450  37.919   0.842   4.115
28727W        W92451  30.915  28.085  12.568
28728W        W92452   2.763  26.006   2.393
28729W        W92453  35.966   0.317   0.952
28730W        W92454  24.162  29.928   1.863
28731W        W92455   4.875   8.664  12.508
28732W        W92456  20.086  32.029   1.917
28733W        W92457   1.442  32.075  13.930
28734W        W92458  44.273   8.780  10.158
28735W        W92459  19.600   2.257  10.953
28736W        W92460  21.180   5.196  11.111
28737W        W92461  40.394   8.874   1.845
28738W        W92462   8.658  26.089   1.712
28739W        W92463  24.050  41.792   4.791
28740W        W92464   4.897   6.802   0.373
28741W        W92465  38.046  39.450  11.016
28742W        W92466  22.197  37.415   3.719
28743W        W92467  39.009  36.411  10.077
28744W        W92468  37.371  33.032   1.395
28745W        W92469  15.664   1.866  10.415
28746W        W92470  38.352  40.408  11.553
28747W        W92471  17.134  10.633  11.872
28748W        W92472   3.861   4.868   0.274
28749W        W92473  12.624  13.199  11.054
28750W        W92474   1.330  20.766   2.846
28751W        W92475  35.109  10.187  14.925
28752W        W92476  25.699  17.070   2.225
28753W        W92477  17.559  33.507   1.259
28754W        W92478  33.461  25.633  13.390
28755W        W92479  36.907  22.501   4.747
28756W        W92480  41.444   7.417   4.624
28757W        W92481   9.659  28.565  11.901
28758W        W92482  25.047  20.089  11.124
28759W        W92483  17.163  34.041   2.726
28760W        W92484  15.771  24.184  13.478
28761W        W92485  31.473  36.917  10.443
28762W        W92486  15.110  30.479  10.899
28763W        W92487   9.841   3.460   1.719
28764W        W92488   5.751  39.471  13.951
28765W        W92489  22.065  34.068   0.776
28766W        W92490  30.088  35.002   3.651
28767W        W92491   9.658  25.520  13.874
28768W        W92492   3.355  27.123  14.901
28769W        W92493   7.669  33.426  12.576
28770W        W92494   9.250   1.852   1.443
28771W        W92495  44.323  10.270   0.284
28772W        W92496  19.099   8.266  12.834
28773W        W92497  11.255  20.113   2.758
28774W        W92498   3.788  28.558   1.307
28775W        W92499  27.082  20.086   1.700
28776W        W92500  42.438  33.464  11.421
28777W        W92501  30.966  22.166  13.379
28778W        W92502  27.054  23.706   1.772
28779W        W92503  18.786  21.684  12.041
28780W        W92504  19.597  18.789  12.013
28781W        W92505   8.830  31.625  12.522
28782W        W92506  28.658  33.901  10.419
28783W        W92507  18.679  32.408   4.156
28784W        W92508   1.765  27.544   2.691
28785W        W92509   4.839   4.840  11.880
28786W        W92510   4.416  21.182  13.818
28787W        W92511  34.926  41.871   4.810
28788W        W92512  35.413  41.405   2.358
28789W        W92513   1.341  21.149  11.099
28790W        W92514  10.276  26.651   5.203
28791W        W92515  25.070  20.195   5.106
28792W        W92516  14.203  22.155  11.857
28793W        W92517   3.723  31.487  10.501
28794W        W92518   2.233  35.056   4.837
28795W        W92519   6.420  13.705  12.042
28796W        W92520  38.996  39.999  10.893
28797W        W92521  26.504  14.699  12.352
28798W        W92522  23.534  28.506   0.339
28799W        W92523  19.085   9.314   2.815
28800W        W92524  19.546  28.037  13.997
28801W        W92525  26.200   6.795  14.331
28802W        W92526  14.325   2.304  13.413
28803W        W92527  42.477  28.166   3.833
28804W        W92528  22.130   6.264   0.903
28805W        W92529  22.601  34.098   4.710
28806W        W92530  23.202  35.945  12.539
28807W        W92531  22.507  22.153  14.888
28808W        W92532  10.698  20.696   1.401
28809W        W92533   3.264  29.992   0.461
28810W        W92534  14.792   2.868   4.722
28811W        W92535  33.912  33.576  13.970
28812W        W92536  23.056  27.675  10.466
28813W        W92537  21.077  10.299  11.866
28814W        W92538  40.466  14.775  10.502
28815W        W92539  16.624  42.432   3.296
28816W        W92540  22.636  31.898   5.253
28817W        W92541   8.783   9.763  12.444
28818W        W92542  10.681  21.122  10.934
28819W        W92543  20.703  37.380  14.385
28820W        W92544  33.446  25.028   3.845
28821W        W92545  33.125  44.990  14.900
28822W        W92546  14.276  37.379   4.270
28823W        W92547   8.189   7.363   3.643
28824W        W92548  27.627   0.887   4.172
28825W        W92549  38.936   1.313   0.840
28826W        W92550   5.738  35.445  13.961
28827W        W92551   5.851  44.436   3.316
28828W        W92552   5.358   9.187   1.274
28829W        W92553  16.768  11.199  12.412
28830W        W92554  14.165  44.390  14.371
28831W        W92555  21.156  30.607   2.828
28832W        W92556  22.223   3.234   1.808
28833W        W92557   8.776  43.772  11.469
28834W        W92558  29.950  17.183  12.425
28835W        W92559  31.541  28.031  11.546
28836W        W92560  16.630  22.586  12.538
28837W        W92561   3.712  24.615   1.854
28838W        W92562   5.756  17.067   3.824
28839W        W92563   0.840   1.864  12.065
28840W        W92564  28.957  33.097  14.838
28841W        W92565  10.746   8.331   3.658
28842W        W92566  31.644   6.820  13.847
28843W        W92567  26.098  36.042  11.571
28844W        W92568  40.496  16.255   1.437
28845W        W92569  16.096   9.243   2.303
28846W        W92570  19.616  35.043  11.607
28847W        W92571  39.000  31.929   4.621
28848W        W92572  15.666   7.780  12.387
28849W        W92573  17.255  26.557  14.437
28850W        W92574  14.156  12.636  11.998
28851W        W92575  43.343  36.540   2.209
28852W        W92576  38.368  40.462   4.343
28853W        W92577  23.162  41.990  11.412
28854W        W92578   2.809  11.837  11.924
28855W        W92579  16.316   5.782  10.609
28856W        W92580  30.481  25.549   3.823
28857W        W92581   3.373  29.597  11.455
28858W        W92582  24.153  15.210  13.369
28859W        W92583   8.738  42.299  14.926
28860W        W92584  19.560  27.108   2.306
28861W        W92585  28.630  44.962   3.171
28862W        W92586  28.559   7.323  12.414
28863W        W92587  39.007  18.708  10.118
28864W        W92588   0.829  18.715   3.180
28865W        W92589   7.687  40.925   3.776
28866W        W92590  39.416  39.005  11.517
28867W        W92591  33.475  16.736   3.642
28868W        W92592   8.699   8.234   4.641
28869W        W92593   6.678  15.092   0.362
28870W        W92594  37.968  38.866   1.365
28871W        W92595  39.930  11.221   2.740
28872W        W92596  11.765  38.337   3.206
28873W        W92597  36.087  28.592   3.693
28874W        W92598   0.477   7.238  14.821
28875W        W92599   0.862   9.749   1.431
28876W        W92600  32.016   4.910   0.795
28877W        W92601  19.137   9.177  11.046
28878W        W92602  34.887  44.839  13.388
28879W        W92603  20.694  24.567   2.373
28880W        W92604  37.878   0.388  13.938
28881W        W92605  11.689  24.168   0.398
28882W        W92606  22.205  28.127  13.816
28883W        W92607  40.308   0.750   2.364
28884W        W92608   5.772   1.337   4.120
28885W        W92609  28.448   1.473  11.902
28886W        W92610  23.026  16.147  11.883
28887W        W92611  33.088  39.548   2.729
28888W        W92612  36.058  24.656  11.507
28889W        W92613  13.246  22.042   2.348
28890W        W92614   0.939  19.148  14.408
28891W        W92615   7.280  27.590   3.688
28892W        W92616  37.447  13.324  14.458
28893W        W92617   0.790  16.265   3.655
28894W        W92618  13.714  10.818   0.452
28895W        W92619  27.967  33.934  14.773
28896W        W92620  34.582  29.446  14.863
28897W        W92621   0.318  37.412   2.724
28898W        W92622  29.010  15.735   0.775
28899W        W92623  16.772  32.923   1.738
28900W        W92624   4.228  14.785  12.536
28901W        W92625   7.803   2.390   2.766
28902W        W92626  13.619  35.560  10.915
28903W        W92627  39.340  36.884   0.455
28904W        W92628  20.607  40.996  14.430
28905W        W92629   5.923  37.871   1.230
28906W        W92630  40.949  39.338  14.396
28907W        W92631   6.763  23.184  10.491
28908W        W92632   0.919  31.040   0.311
28909W        W92633  13.160  25.526   2.213
28910W        W92634  40.549  44.787   2.785
28911W        W92635   0.363  10.339   2.233
28912W        W92636   6.732  42.949  11.039
28913W        W92637  41.411  25.592  13.458
28914W        W92638  28.452  26.655   1.735
28915W        W92639  38.857   7.813  12.093
28916W        W92640  18.637  26.002  13.810
28917W        W92641  21.737  27.644   1.332
28918W        W92642  16.220  15.239   0.409
28919W        W92643  16.756  16.642  11.400
28920W        W92644  42.992   1.475   3.318
28921W        W92645   3.405   9.790   4.599
28922W        W92646  21.694  31.491   2.179
28923W        W92647  25.679  17.701  13.314
28924W        W92648  32.999  13.341   1.281
28925W        W92649  12.256   7.732   1.257
28926W        W92650  24.017  11.165  11.042
28927W        W92651  29.108  23.228   4.276
28928W        W92652  21.195  41.338  11.874
28929W        W92653  35.584  12.290  13.489
28930W        W92654  21.645  27.076  13.995
28931W        W92655  16.256  19.274  11.543
28932W        W92656   8.836  29.981  14.903
28933W        W92657  17.292  16.666  12.555
28934W        W92658   4.930  43.426  11.910
28935W        W92659  24.065  28.094   5.127
28936W        W92660  38.325  24.035   1.289
28937W        W92661  10.269   4.213   2.682
28938W        W92662  14.267   3.846  11.401
28939W        W92663  14.099  43.969   3.332
28940W        W92664  20.710  31.119   4.232
28941W        W92665  38.388   8.660   2.264
28942W        W92666  22.189  23.224   2.262
28943W        W92667  27.073   3.898   1.708
28944W        W92668  33.935  40.968  13.978
28945W        W92669  39.545   0.932  12.354
28946W        W92670  30.048  25.653   2.867
28947W        W92671  40.428  37.418   0.914
28948W        W92672  13.619  19.577  11.380
28949W        W92673  36.559  35.972   0.465
28950W        W92674  32.083   2.402  12.484
28951W        W92675   2.398   8.169   2.855
28952W        W92676  23.595  42.889   1.293
28953W        W92677   7.259  35.008  13.525
28954W        W92678   5.307  23.657   1.766
28955W        W92679  37.935  11.300  13.904
28956W        W92680  29.451   9.829  11.014
28957W        W92681  11.860   3.416  10.978
28958W        W92682  35.919  13.828  14.814
28959W        W92683  13.840  24.997   0.775
28960W        W92684  25.654  25.087  13.354
28961W        W92685  32.061  23.074   1.320
28962W        W92686   0.809  15.777  12.372
28963W        W92687  28.573  12.346   0.426
28964W        W92688  28.141   0.462  10.951
28965W        W92689  44.360  39.521   4.325
28966W        W92690  11.169   1.977  14.503
28967W        W92691  30.950  15.815   4.615
28968W        W92692  21.710   7.355   3.663
28969W        W92693  26.513   5.396   0.243
28970W        W92694  23.120  23.239   2.720
28971W        W92695  14.140  13.633   3.832
28972W        W92696  29.574  20.578   1.248
28973W        W92697  32.531  39.360  14.827
28974W        W92698  30.500  12.305   2.669
28975W        W92699   5.370  21.179   1.930
28976W        W92700  27.134   5.301   1.828
28977W        W92701  31.582  12.346  14.461
28978W        W92702   3.272  30.535  13.347
28979W        W92703  34.936   3.394   5.212
28980W        W92704   3.950  23.641  10.043
28981W        W92705  18.759  29.429   5.194
28982W        W92706   8.405  33.570   0.367
28983W        W92707  15.806  36.059  13.986
28984W        W92708  31.479  16.073  12.392
28985W        W92709   7.384   8.840  14.878
28986W        W92710   6.369   4.776   4.289
28987W        W92711  40.866  10.314  10.905
28988W        W92712  15.167  44.945  11.417
28989W        W92713  27.499  42.936  12.976
28990W        W92714  38.911  19.759  12.027
28991W        W92715  42.875  43.934  12.933
28992W        W92716  37.366  24.049  13.384
28993W        W92717   4.772  31.021  11.396
28994W        W92718  19.748  42.371   1.859
28995W        W92719  42.514   1.886   3.148
28996W        W92720  29.579  31.464  13.822
28997W        W92721   5.825  38.868   0.784
28998W        W92722  31.405  29.571   4.764
28999W        W92723  42.506  35.937  13.534
29000W        W92724  27.625  27.198   0.954
29001W        W92725  38.515  42.385   3.367
29002W        W92726   1.888  29.515  10.534
29003W        W92727  16.215  41.341   0.857
29004W        W92728  18.653  21.100  10.528
29005W        W92729  28.544   2.365   0.803
29006W        W92730  14.734   0.808  12.482
29007W        W92731  31.634  38.942  14.321
29008W        W92732   5.313  44.785  14.788
29009W        W92733   0.427  36.558  14.907
29010W        W92734  20.755   2.766  12.077
29011W        W92735  20.073  19.534  11.993
29012W        W92736  29.439  36.061   1.222
29013W        W92737   9.736  35.369   3.651
29014W        W92738  43.487  30.138  13.893
29015W        W92739  43.885   7.882   0.831
29016W        W92740   0.455  27.563  12.574
29017W        W92741  16.270  23.060   2.340
29018W        W92742  14.251  28.025  10.603
29019W        W92743   6.352   7.296  10.950
29020W        W92744   8.679   9.324   2.746
29021W        W92745  21.659  41.902  14.941
29022W        W92746  17.710  44.850   4.338
29023W        W92747  43.272  23.728   0.421
29024W        W92748  33.605  44.006   1.370
29025W        W92749  44.362  33.008  12.869
29026W        W92750  41.531  19.260   4.274
29027W        W92751  13.648  22.037  11.952
29028W        W92752  42.980   1.387  11.890
29029W        W92753  37.388   0.775  10.405
29030W        W92754   4.348  24.653  13.327
29031W        W92755  16.780  11.340   1.343
29032W        W92756  27.140  26.154  14.951
29033W        W92757  11.287  40.417  14.289
29034W        W92758  18.090  23.645   3.805
29035W        W92759  32.925  32.594   4.701
29036W        W92760  32.461   6.241   4.307
29037W        W92761   8.374   7.373   0.893
29038W        W92762  32.914  27.487  14.933
29039W        W92763  44.461   2.316   2.417
29040W        W92764  37.409   9.364  11.400
29041W        W92765  32.906  23.675   2.222
29042W        W92766  10.210  30.003   4.805
29043W        W92767  32.571  16.213   0.855
29044W        W92768   7.862  37.024   1.373
29045W        W92769  16.775  18.635   4.243
29046W        W92770  19.141   3.238   0.452
29047W        W92771  20.103  32.014  10.569
29048W        W92772  10.721  15.647  12.421
29049W        W92773  32.536  30.094  14.515
29050W        W92774  13.789   3.231   0.310
29051W        W92775  36.350  19.109  11.395
29052W        W92776   3.773  11.164  12.557
29053W        W92777  24.587  16.611   0.418
29054W        W92778   1.754  26.599  12.406
29055W        W92779  25.076   8.820   1.928
29056W        W92780  24.000   0.459   0.385
29057W        W92781  25.008  38.523  12.899
29058W        W92782  30.583   3.350  13.892
29059W        W92783  43.386   9.709  14.949
29060W        W92784   1.935  38.021   4.324
29061W        W92785  20.108  24.585   4.751
29062W        W92786   5.864   3.814   0.777
29063W        W92787   6.698   9.696   1.267
29064W        W92788  36.922  24.578   1.695
29065W        W92789  44.867  20.696   3.229
29066W        W92790  43.484  36.502  13.514
29067W        W92791   3.458  44.424   5.320
29068W        W92792   2.430  38.014  11.098
29069W        W92793   8.781  39.825  14.858
29070W        W92794   0.911  34.407  14.413
29071W        W92795   7.316   2.896  10.488
29072W        W92796  34.992  21.689  10.539
29073W        W92797  14.662  13.725   0.918
29074W        W92798  30.434  20.628  11.407
29075W        W92799   6.838  10.736   1.765
29076W        W92800  35.416  32.908   0.481
29077W        W92801  28.035  11.198   4.648
29078W        W92802  28.480  22.669   4.799
29079W        W92803  38.976  24.024   3.283
29080W        W92804  14.169   7.252   4.640
29081W        W92805   3.342  39.006   0.347
29082W        W92806   5.376  41.870  14.354
29083W        W92807  22.125  11.237   2.408
29084W        W92808   2.319  14.340   4.215
29085W        W92809   3.836   6.398   4.238
29086W        W92810  32.986  34.990   2.198
29087W        W92811  17.780  30.494   2.819
29088W        W92812  41.390  14.696  11.023
29089W        W92813  38.523  36.971   0.337
29090W        W92814  21.063  15.276   1.329
29091W        W92815   3.716  36.861  14.824
29092W        W92816  37.530  19.706  10.913
29093W        W92817  15.133  35.072  14.992
29094W        W92818   8.280   6.230  13.035
29095W        W92819  19.231  24.974   0.873
29096W        W92820  37.579  32.897  13.534
29097W        W92821  39.493  41.005  14.025
29098W        W92822  15.135  29.024   1.818
29099W        W92823  29.642  33.399   5.240
29100W        W92824  44.894  41.421   1.308
29101W        W92825  42.321  25.002   2.785
29102W        W92826  28.948  37.918  14.458
29103W        W92827   0.303  16.749  12.468
29104W        W92828  25.143  19.051  12.925
29105W        W92829  37.024  18.567   2.822
29106W        W92830  16.802   6.785  13.800
29107W        W92831  20.116  11.841   9.986
29108W        W92832  23.712  32.128  14.795
29109W        W92833  31.562  30.654  14.460
29110W        W92834  27.058  35.584   4.161
29111W        W92835  16.580  19.755  12.070
29112W        W92836   2.782  28.599   0.918
29113W        W92837  38.531   1.349   4.159
29114W        W92838  42.340  29.137  12.378
29115W        W92839  23.506  17.748   3.808
29116W        W92840  18.071  36.899   4.627
29117W        W92841  25.057  26.026   1.724
29118W        W92842  42.425  32.580  11.121
29119W        W92843  23.053  24.078  14.862
29120W        W92844  21.648  13.343  10.898
29121W        W92845  38.950  21.174  11.428
29122W        W92846  11.754  23.601  11.911
29123W        W92847   0.302  39.851  10.527
29124W        W92848  34.532  25.166  11.061
29125W        W92849  36.958  21.701   2.320
29126W        W92850  26.201   8.248  12.030
29127W        W92851   1.899   9.724  12.343
29128W        W92852  40.037  22.161  13.526
29129W        W92853  44.777  11.166  11.111
29130W        W92854  29.947   0.772  14.490
29131W        W92855  24.599   7.382  11.920
29132W        W92856  19.572  22.709  12.530
29133W        W92857   0.383  14.314   1.714
29134W        W92858  38.968  34.478  12.559
29135W        W92859  11.777  10.195  11.471
29136W        W92860  23.012   4.332  14.412
29137W        W92861  24.096  24.005   2.212
29138W        W92862  37.840  29.428   2.372
29139W        W92863   0.784  37.030   4.215
29140W        W92864  37.499   4.825  12.525
29141W        W92865   1.883  35.540  11.901
29142W        W92866   7.777  17.798  12.368
29143W        W92867  36.436  31.102   4.635
29144W        W92868  44.498  39.876   5.199
29145W        W92869  43.781  35.969   1.220
29146W        W92870  41.026  13.246  12.340
29147W        W92871   6.208   6.394   1.282
29148W        W92872  10.836  36.532   0.367
29149W        W92873  33.896  10.376  13.963
29150W        W92874  28.942  19.146  12.043
29151W        W92875  22.566  18.681   2.281
29152W        W92876  33.120  35.591   1.915
29153W        W92877  37.553  20.546   2.253
29154W        W92878   8.213   1.405   0.356
29155W        W92879  38.908  13.677   0.879
29156W        W92880   5.274  11.365  14.426
29157W        W92881  36.543   7.743  11.956
29158W        W92882  36.873  10.796   4.198
29159W        W92883   2.881  40.055   1.413
29160W        W92884  42.788   8.404  13.050
29161W        W92885  43.431  13.737   1.249
29162W        W92886   2.336  43.871   0.371
29163W        W92887  37.860  41.505   3.332
29164W        W92888   5.801   9.282   1.232
29165W        W92889  43.940   5.755   1.809
29166W        W92890  35.039  42.797  14.369
29167W        W92891  37.341  12.625  11.600
29168W        W92892   0.447   0.770   4.795
29169W        W92893  42.877  17.597  14.285
29170W        W92894  21.516  40.928   3.806
29171W        W92895   1.365  25.476  13.956
29172W        W92896  36.569  39.412  14.513
29173W        W92897  38.364   7.814  14.300
29174W        W92898   9.315  39.884  11.456
29175W        W92899   9.701  28.016  12.387
29176W        W92900  33.980  15.186   3.353
29177W        W92901  32.569  10.707  14.419
29178W        W92902  36.900  44.001  10.465
29179W        W92903  19.117   1.372  10.894
29180W        W92904  34.594   1.249   2.317
29181W        W92905  22.228  33.098   0.349
29182W        W92906  18.180  15.242   0.960
29183W        W92907   0.989   3.389  14.434
29184W        W92908  14.722   3.452   5.117
29185W        W92909  40.353  38.357   2.712
29186W        W92910   8.341  33.069   3.809
29187W        W92911   5.284  16.804  11.965
29188W        W92912  33.397  24.553  10.486
29189W        W92913  37.887  20.689  12.509
29190W        W92914  24.174   6.218  12.087
29191W        W92915  38.325  30.923  11.584
29192W        W92916  25.482  42.870   1.405
29193W        W92917  11.232  12.786   2.317
29194W        W92918  40.508  36.062   0.285
29195W        W92919   6.421  26.147  13.959
29196W        W92920   0.483  25.039   4.200
29197W        W92921  40.431  23.554  13.307
29198W        W92922  39.907  38.508   3.179
29199W        W92923   9.184   6.342  12.579
29200W        W92924   2.798  25.512  13.921
29201W        W92925   7.211  30.549  12.901
29202W        W92926  17.098   1.906  10.076
29203W        W92927  19.261  18.088   4.778
29204W        W92928   2.885   7.239   4.349
29205W        W92929  22.657  16.639   3.792
29206W        W92930  31.988  43.415  12.891
29207W        W92931   9.223  27.585   1.822
29208W        W92932   1.737  10.810  14.459
29209W        W92933  37.507  40.926   3.740
29210W        W92934  13.116  10.775   2.747
29211W        W92935   5.736  44.931  12.407
29212W        W92936  36.929   3.918   2.832
29213W        W92937  33.429  33.002  14.475
29214W        W92938  39.990  30.933   3.387
29215W        W92939  37.035  38.403   0.844
29216W        W92940  28.966  42.823   1.887
29217W        W92941  11.133  10.250   1.449
29218W        W92942  18.212   8.856  13.514
29219W        W92943  38.890  30.992   2.254
29220W        W92944  29.529  23.551  13.944
29221W        W92945  23.002  38.404  13.017
29222W        W92946   1.246  35.977  13.916
29223W        W92947  33.908  44.862   0.337
29224W        W92948  31.896  25.672  12.928
29225W        W92949  13.838  26.503   0.883
29226W        W92950  15.147  17.800  11.929
29227W        W92951  37.429  16.751  14.466
29228W        W92952  36.899  22.582  10.478
29229W        W92953  30.585  13.185   3.814
29230W        W92954   6.830  14.638  14.799
29231W        W92955   6.307   8.893  13.498
29232W        W92956  33.114   1.318   3.801
29233W        W92957  33.552  27.482  13.462
29234W        W92958  15.655  26.567  14.022
29235W        W92959  20.560  17.286  13.912
29236W        W92960   4.355  26.677  11.447
29237W        W92961  19.619  29.514  14.780
29238W        W92962  23.536  41.001  12.368
29239W        W92963  25.653  41.416   2.785
29240W        W92964  36.073  28.995  10.431
29241W        W92965  29.469   9.213   2.713
29242W        W92966  26.050  40.926  12.001
29243W        W92967  30.914  17.237   0.930
29244W        W92968   0.275  27.155   4.789
29245W        W92969  37.459  27.191   3.735
29246W        W92970  36.976  26.100   1.731
29247W        W92971  34.573  23.593   1.299
29248W        W92972  37.952  15.114  10.433
29249W        W92973  30.656   5.324   1.443
29250W        W92974  33.478  19.049  10.556
29251W        W92975  39.525  13.301   2.298
29252W        W92976  10.697  10.736   1.316
29253W        W92977  13.791  12.196  11.989
29254W        W92978  31.481  40.875  12.826
29255W        W92979  18.053  26.556  13.309
29256W        W92980  33.944  13.262  12.826
29257W        W92981  22.193  29.938   3.163
29258W        W92982  15.086  40.506   0.250
29259W        W92983   4.818  26.097   1.423
29260W        W92984  34.866  39.556   1.863
29261W        W92985  27.524  39.455   4.347
29262W        W92986   6.814  43.298  14.995
29263W        W92987  34.491  11.851  13.329
29264W        W92988  17.250   0.910   4.690
29265W        W92989  27.653  19.714  12.849
29266W        W92990  22.071  41.843   4.818
29267W        W92991  35.995  36.400  12.567
29268W        W92992  16.123  23.158  14.863
29269W        W92993  28.581   9.694  11.607
29270W        W92994   9.816  30.086   0.855
29271W        W92995  34.927  13.704   2.900
29272W        W92996  13.179  10.354  13.503
29273W        W92997  23.590  15.579  12.894
29274W        W92998  14.657  32.137   3.210
29275W        W92999   6.198  19.628   0.751
29276W        W93000  21.756  38.875   4.329
29277W        W93001  17.307  12.263  11.547
29278W        W93002  41.946  37.912   2.893
29279W        W93003  20.728   8.763   1.706
29280W        W93004   9.747  23.006  13.909
29281W        W93005   3.307  31.033  10.905
29282W        W93006   5.210   0.297  12.866
29283W        W93007  12.800  28.027  13.402
29284W        W93008  13.834  25.709   2.396
29285W        W93009  21.054  30.456   3.231
29286W        W93010   3.755  32.038   2.705
29287W        W93011  44.443  12.323   1.818
29288W        W93012   8.261  16.164  13.049
29289W        W93013   0.983  41.316  14.444
29290W        W93014  24.531  38.032   3.240
29291W        W93015  37.513  42.434   5.714
29292W        W93016  17.773   5.236   4.670
29293W        W93017   0.309  22.041  12.050
29294W        W93018  14.268  28.501  12.528
29295W        W93019   3.899  25.635   1.757
29296W        W93020  22.101  22.561   3.741
29297W        W93021  21.658  11.670  12.498
29298W        W93022   4.706  17.744  14.300
29299W        W93023  32.416   7.761  12.358
29300W        W93024   1.861  31.453   0.861
29301W        W93025  21.224  10.257  12.843
29302W        W93026  17.289  41.537   5.143
29303W        W93027  14.764  17.134   4.672
29304W        W93028  29.153   1.782   0.461
29305W        W93029  36.360  36.389  12.058
29306W        W93030  44.278  14.732   1.357
29307W        W93031  21.632  21.598   3.655
29308W        W93032   9.239  17.720   3.274
29309W        W93033   2.924  23.516  12.569
29310W        W93034  26.513  33.607  14.783
29311W        W93035  15.189   3.945   5.758
29312W        W93036   2.941  21.729  11.884
29313W        W93037   6.901  20.595   4.200
29314W        W93038  29.160  39.869   2.783
29315W        W93039  31.061  32.602  13.847
29316W        W93040  13.722  15.596   0.286
29317W        W93041  43.904  17.204  12.456
29318W        W93042  16.150  26.041  13.984
29319W        W93043  36.900   0.383  12.388
29320W        W93044  27.523  32.947   1.437
29321W        W93045   8.744   7.256   2.321
29322W        W93046  19.090  38.997  14.448
29323W        W93047  21.083  24.163   1.412
29324W        W93048   3.843  27.990  13.398
29325W        W93049  27.025  23.079  11.882
29326W        W93050  18.616  37.373  10.574
29327W        W93051   2.246  16.593  12.042
29328W        W93052  12.791  16.740   0.451
29329W        W93053  43.884  38.044   3.818
29330W        W93054  37.857   0.484   1.211
29331W        W93055  10.148  30.935  12.855
29332W        W93056  17.211  32.922   1.315
29333W        W93057   8.850  12.735   0.870
29334W        W93058  26.982  13.772  14.766
29335W        W93059   9.338  27.054  10.533
29336W        W93060  32.959   6.293  12.459
29337W        W93061   6.304  29.625   3.173
29338W        W93062  38.381   1.816  10.966
29339W        W93063  14.202   2.851  14.883
29340W        W93064  42.526   4.210   1.788
29341W        W93065  16.597  43.840  14.471
29342W        W93066  15.820   3.307  10.600
29343W        W93067   0.460  20.275  13.011
29344W        W93068  28.634  22.556  11.927
29345W        W93069  12.643  23.028  11.899
29346W        W93070  18.172  10.222  13.883
29347W        W93071   2.844  16.759  14.874
29348W        W93072  31.084   3.223   4.337
29349W        W93073   0.483  41.484  10.947
29350W        W93074  31.096  32.524   2.408
29351W        W93075  43.838  23.158  12.010
29352W        W93076  26.648  14.207   1.316
29353W        W93077  23.229  31.647   2.196
29354W        W93078  25.066  11.369  13.437
29355W        W93079  15.254   5.819  11.058
29356W        W93080  36.544  28.586  12.908
29357W        W93081  29.038  27.675   4.224
29358W        W93082  23.074  17.621   3.264
29359W        W93083  42.937   6.724  14.933
29360W        W93084   4.911  35.424  12.508
29361W        W93085  21.647  36.860  14.282
29362W        W93086  14.283  16.079  11.581
29363W        W93087  19.055  19.643  12.955
29364W        W93088  27.114  40.943   4.312
29365W        W93089  40.927   6.847   2.361
29366W        W93090   0.269  39.361  14.462
29367W        W93091   5.730  23.141   3.147
29368W        W93092  28.141  14.681   3.223
29369W        W93093   9.888   3.829   4.303
29370W        W93094   7.181   2.285  10.603
29371W        W93095  38.891  23.677   4.115
29372W        W93096  13.151  30.515   1.793
29373W        W93097  19.285  26.503   2.257
29374W        W93098   0.491  32.570  13.389
29375W        W93099  13.306  16.079   2.743
29376W        W93100  40.485  12.263   2.717
29377W        W93101  14.676  41.415  12.944
29378W        W93102  11.274  24.081   1.904
29379W        W93103  24.542  25.614  14.877
29380W        W93104  44.409   5.877   0.374
29381W        W93105  33.408  44.849   0.909
29382W        W93106   3.230   9.686  11.018
29383W        W93107  32.594  26.200  10.909
29384W        W93108   7.235  35.029   3.739
29385W        W93109  43.394  24.547  13.325
29386W        W93110  39.996  24.573  12.512
29387W        W93111   5.206  13.115   5.291
29388W        W93112  23.606   0.252  12.059
29389W        W93113  12.247  14.605   1.261
29390W        W93114  34.957   7.818  12.394
29391W        W93115  15.753  44.494  10.634
29392W        W93116  16.614  37.406   4.639
29393W        W93117   7.228  21.250  13.341
29394W        W93118  21.586   3.253  13.880
29395W        W93119  16.111  32.600  14.950
29396W        W93120   8.315  19.126   2.327
29397W        W93121  16.599  13.233  12.073
29398W        W93122  35.419  41.827  12.580
29399W        W93123  44.794  21.103  10.483
29400W        W93124   2.328  19.179   0.826
29401W        W93125  39.027  32.625   4.773
29402W        W93126  35.565   8.218   2.807
29403W        W93127  20.589  30.137   3.759
29404W        W93128   0.913   6.774  11.102
29405W        W93129  11.677  17.247  10.013
29406W        W93130   6.746  16.613  14.030
29407W        W93131   3.846  17.094   4.340
29408W        W93132  39.810   0.341   1.370
29409W        W93133  22.015  15.579  13.898
29410W        W93134  33.391  34.863   9.991
29411W        W93135  33.508  36.462  13.951
29412W        W93136  23.132  23.988   2.678
29413W        W93137  23.599  28.988  12.470
29414W        W93138   9.191  41.923  12.032
29415W        W93139  27.147  13.315   0.871
29416W        W93140  37.441   8.723   3.854
29417W        W93141  18.180  14.726   2.758
29418W        W93142  17.751  43.329  12.508
29419W        W93143  34.601  20.736  13.968
29420W        W93144   1.313  12.193  10.899
29421W        W93145  30.907  32.035  13.502
29422W        W93146  11.169  31.119   0.402
29423W        W93147  39.828  44.914  11.868
29424W        W93148  12.733  37.939  12.493
29425W        W93149   7.316  35.539  10.527
29426W        W93150   4.350   9.152   0.270
29427W        W93151   2.404  16.631   4.256
29428W        W93152  20.038  11.162  12.002
29429W        W93153  42.953   5.910   3.797
29430W        W93154  44.366  16.659  13.469
29431W        W93155  11.661  11.661  11.858
29432W        W93156  38.932  43.856   4.195
29433W        W93157  18.724  41.823  12.074
29434W        W93158   5.877  20.662  11.891
29435W        W93159  44.328   1.872  11.395
29436W        W93160  40.903   1.745  13.913
29437W        W93161  32.494  44.433   3.354
29438W        W93162   4.306  16.609   1.311
29439W        W93163   1.364  43.305  11.537
29440W        W93164  21.058  26.971  11.098
29441W        W93165  16.228  19.778  11.462
29442W        W93166   5.296  15.800   1.796
29443W        W93167  13.715  13.210  10.624
29444W        W93168  32.016  27.482   3.765
29445W        W93169  33.062  19.088   0.764
29446W        W93170  25.973  40.392  10.470
29447W        W93171   9.221  37.882   3.317
29448W        W93172  39.393  44.329   2.865
29449W        W93173   7.704   0.474   3.165
29450W        W93174  11.758  31.585  10.432
29451W        W93175  31.001  20.268  10.420
29452W        W93176   2.330  15.195   4.217
29453W        W93177  39.399  15.197   4.677
29454W        W93178  37.966  31.055  13.863
29455W        W93179  41.356  12.238  14.425
29456W        W93180  44.344   4.233  12.497
29457W        W93181  29.974  33.964   0.474
29458W        W93182  40.946  26.669   4.142
29459W        W93183  43.406  27.557  14.483
29460W        W93184  20.620  38.485  13.384
29461W        W93185  39.348  17.768   3.799
29462W        W93186   9.832  40.947   2.690
29463W        W93187  12.337  27.966   4.603
29464W        W93188  20.758  20.631  11.938
29465W        W93189   9.233  32.040   3.361
29466W        W93190  36.955  38.421  13.032
29467W        W93191  22.717  43.512  11.882
29468W        W93192  41.033  15.179   3.155
29469W        W93193  38.024  28.647  10.910
29470W        W93194  13.210   0.916  13.935
29471W        W93195   3.881  32.031  11.541
29472W        W93196  20.589  32.950  13.009
29473W        W93197  13.609  28.467  13.917
29474W        W93198  11.762  42.318   0.391
29475W        W93199  23.230  41.888   0.750
29476W        W93200   5.207  37.548  13.318
29477W        W93201  41.797   9.290  14.908
29478W        W93202  26.641  41.936  10.887
29479W        W93203   2.269   3.772  11.912
29480W        W93204  44.434  38.531   0.247
29481W        W93205   9.674  16.182  11.584
29482W        W93206  39.932   7.823  12.577
29483W        W93207  24.589  26.038  14.936
29484W        W93208  10.175  20.734   0.244
29485W        W93209  17.767   4.300   0.401
29486W        W93210  23.160  39.911  14.962
29487W        W93211  42.941  43.302   4.324
29488W        W93212  19.057  37.541  12.924
29489W        W93213  31.544   1.831  13.973
29490W        W93214  27.490  40.960   3.786
29491W        W93215  33.513  31.072   2.783
29492W        W93216  32.028  10.210   4.200
29493W        W93217  42.512  33.052   2.816
29494W        W93218   6.204  38.565   0.410
29495W        W93219  36.556  31.469  11.608
29496W        W93220  40.415  30.100   3.649
29497W        W93221   6.692   6.708   4.645
29498W        W93222   4.873  20.762  10.529
29499W        W93223  42.839  33.447   1.269
29500W        W93224  26.592  44.433   3.731
29501W        W93225  17.664  14.166   9.627
29502W        W93226  30.908  41.022   3.650
29503W        W93227   7.298   3.846   3.846
29504W        W93228   3.387   9.329   4.348
29505W        W93229  26.570  19.565  12.580
29506W        W93230  20.760  42.306  12.945
29507W        W93231  44.759  25.187   1.251
29508W        W93232  21.233  29.455   1.255
29509W        W93233  32.008  18.768   2.328
29510W        W93234  35.878  16.169  10.446
29511W        W93235  34.050  44.964  10.478
29512W        W93236  28.099  12.686  13.444
29513W        W93237  33.897   1.423   4.117
29514W        W93238   8.711  11.835  10.901
29515W        W93239  21.109  11.624   1.709
29516W        W93240  41.797  19.193  11.116
29517W        W93241  11.702  38.410   0.807
29518W        W93242  36.557   6.881  14.028
29519W        W93243  26.017  39.047  13.432
29520W        W93244   7.711  20.574  11.109
29521W        W93245  37.859  28.171   1.912
29522W        W93246  22.591   6.261   3.304
29523W        W93247  27.593  30.632   4.238
29524W        W93248  24.135  15.125  14.499
29525W        W93249  13.765  16.297  10.575
29526W        W93250  27.111  36.451  10.522
29527W        W93251  27.139  42.515  14.448
29528W        W93252  31.476   1.761   2.221
29529W        W93253  18.080  16.710  11.855
29530W        W93254   7.348  23.507   0.380
29531W        W93255  30.442   9.154  14.489
29532W        W93256  34.870   6.857  10.638
29533W        W93257  17.582  22.586  10.520
29534W        W93258  12.779  40.419  10.486
29535W        W93259  31.557  43.839   1.910
29536W        W93260  41.298  25.587   0.801
29537W        W93261   6.233  40.478   4.170
29538W        W93262  36.059   2.754   0.243
29539W        W93263  25.033  34.936  12.345
29540W        W93264  42.931  39.007  14.844
29541W        W93265  30.613  11.861   4.278
29542W        W93266  17.790  34.942   2.756
29543W        W93267  27.665   6.737  13.535
29544W        W93268  31.973  22.143   0.423
29545W        W93269  35.526  28.144   1.248
29546W        W93270  23.680  16.303   4.811
29547W        W93271   1.256  26.004   0.459
29548W        W93272  10.732   4.280  13.988
29549W        W93273  39.945  10.691  14.878
29550W        W93274  22.676  25.029  11.100
29551W        W93275  26.082  34.523   0.842
29552W        W93276  31.083  33.064   4.317
29553W        W93277   4.286  30.112  11.005
29554W        W93278  26.696   6.259   2.681
29555W        W93279  17.559  44.461   3.290
29556W        W93280  37.547  14.296   4.734
29557W        W93281  31.574  39.541  13.327
29558W        W93282  11.198  28.949   0.832
29559W        W93283   1.395  11.839  12.064
29560W        W93284  23.687  13.338  11.561
29561W        W93285  11.674   5.899  11.981
29562W        W93286  24.613  25.505  14.508
29563W        W93287  28.103  27.625  12.928
29564W        W93288  42.476  20.242   3.213
29565W        W93289  22.519  19.640   3.323
29566W        W93290  15.587  33.896   3.197
29567W        W93291  35.943  36.948  14.955
29568W        W93292  12.838  11.627  14.808
29569W        W93293   9.800  28.565  10.492
29570W        W93294   7.670  14.168   3.790
29571W        W93295  36.514   6.291  11.888
29572W        W93296  12.850  38.871  10.643
29573W        W93297   0.452   7.729   3.242
29574W        W93298  32.531  36.989   4.800
29575W        W93299   7.192  21.225  10.409
29576W        W93300  15.304  44.755  10.427
29577W        W93301  16.089  15.612  11.533
29578W        W93302  20.181  39.981   3.184
29579W        W93303  39.373  37.409  14.852
29580W        W93304  15.688  39.898  12.081
29581W        W93305   3.294   8.344  10.477
29582W        W93306  19.628  34.032  12.029
29583W        W93307  26.569  22.233   3.215
29584W        W93308  34.427  44.358   3.809
29585W        W93309  24.977   2.863   4.163
29586W        W93310  17.599  35.508  11.047
29587W        W93311   6.225  27.183  11.516
29588W        W93312   9.239  43.386  10.413
29589W        W93313  15.772  41.388   3.371
29590W        W93314  28.164  10.811  11.909
29591W        W93315   7.879  35.958  10.889
29592W        W93316  41.798  40.493   1.250
29593W        W93317  22.648  14.651   1.874
29594W        W93318  13.314  18.258  10.532
29595W        W93319   8.172  19.715   3.345
29596W        W93320  15.704  11.775   0.762
29597W        W93321  35.454  26.613   3.744
29598W        W93322  40.368  38.011   0.408
29599W        W93323  31.112  14.255   1.309
29600W        W93324   0.764  38.821   1.258
29601W        W93325   4.390  33.604  10.511
29602W        W93326  27.128  15.145   2.838
29603W        W93327  40.373   4.232  14.911
29604W        W93328  42.426  31.942  11.571
29605W        W93329  28.096  27.654  14.794
29606W        W93330  21.149  34.422  14.951
29607W        W93331  37.427  22.206  12.450
29608W        W93332   8.296   3.739   1.347
29609W        W93333  16.309  35.397  13.992
29610W        W93334  36.533  31.044  11.954
29611W        W93335   3.364  41.032   3.311
29612W        W93336  16.631   4.730  10.975
29613W        W93337   2.894  10.698   1.784
29614W        W93338  40.022  31.944  12.050
29615W        W93339  16.661  12.292   4.242
29616W        W93340  31.526  40.367   3.717
29617W        W93341  23.177  26.001   0.250
29618W        W93342  42.854  31.415   4.705
29619W        W93343   6.211  23.008   1.344
29620W        W93344  13.164  33.956  12.519
29621W        W93345   8.808  22.181   1.346
29622W        W93346  19.680  21.177  13.934
29623W        W93347  16.253  15.724   3.288
29624W        W93348   5.219  23.223  11.112
29625W        W93349  12.202  40.532  12.344
29626W        W93350  28.661  16.285  10.492
29627W        W93351  31.945  23.728   3.349
29628W        W93352  36.387   8.312   0.427
29629W        W93353  17.747  15.249   4.158
29630W        W93354  40.041  17.099  12.568
29631W        W93355  15.685  12.242   2.884
29632W        W93356  29.153  30.032   0.333
29633W        W93357  11.627  38.867  11.039
29634W        W93358  14.273   2.448  13.918
29635W        W93359   3.365  10.345  14.364
29636W        W93360  21.211  17.189   2.733
29637W        W93361   0.782   9.340   1.371
29638W        W93362  34.484  14.134   1.338
29639W        W93363  39.963   8.797   0.835
29640W        W93364  21.652  19.040   3.759
29641W        W93365  38.874  39.053   1.702
29642W        W93366  36.430  24.721  12.853
29643W        W93367  22.187  31.435  13.948
29644W        W93368  34.056  14.159   3.678
29645W        W93369  35.967  33.005  14.016
29646W        W93370  36.999  24.185  13.921
29647W        W93371   9.351   3.842  13.830
29648W        W93372  18.138  20.688   4.813
29649W        W93373  10.843  44.480   2.779
29650W        W93374  32.906  27.662  13.501
29651W        W93375  29.429  43.494   4.785
29652W        W93376  28.043  29.923  13.836
29653W        W93377  34.541  36.495   0.930
29654W        W93378   8.377  30.617  12.063
29655W        W93379  16.282  44.989   0.885
29656W        W93380   9.293  26.046   4.597
29657W        W93381  15.700   5.433   2.335
29658W        W93382  42.343   3.458   3.204
29659W        W93383   7.210   7.188   1.377
29660W        W93384  15.228  36.351   0.897
29661W        W93385   8.318  16.077  10.429
29662W        W93386  25.602  26.119  13.457
29663W        W93387  40.411  24.978   3.294
29664W        W93388   3.302  15.121   1.313
29665W        W93389  27.625   7.263  14.506
29666W        W93390   9.780  38.982  14.766
29667W        W93391   1.783  31.431   2.823
29668W        W93392  39.813  26.486  14.337
29669W        W93393  42.333   9.746  11.975
29670W        W93394  26.208   3.401   1.749
29671W        W93395   6.746  13.603   0.799
29672W        W93396  18.554  20.655  14.489
29673W        W93397  32.899  37.057  13.969
29674W        W93398  21.158  38.075  14.369
29675W        W93399  39.971  25.200  13.820
29676W        W93400  12.742   0.283   4.116
29677W        W93401  44.418  27.966   5.301
29678W        W93402  21.036  34.438   2.339
29679W        W93403  34.596  11.288   2.749
29680W        W93404  26.979   5.903   0.431
29681W        W93405   1.977   4.424  12.018
29682W        W93406  37.008   4.314   1.270
29683W        W93407  33.904  26.082   2.901
29684W        W93408  36.082  35.939   0.247
29685W        W93409   4.777  34.028   3.720
29686W        W93410  11.302  27.022   3.681
29687W        W93411  34.370  42.915   2.828
29688W        W93412  43.415  13.607   3.773
29689W        W93413  12.610  41.302  14.898
29690W        W93414  41.305  18.115  13.034
29691W        W93415  42.296   5.221   2.702
29692W        W93416  27.966  27.955   5.102
29693W        W93417  35.509   3.842  10.562
29694W        W93418   0.986  26.624   3.168
29695W        W93419  36.939   2.888  11.453
29696W        W93420  19.592  13.616  13.840
29697W        W93421  14.707  32.559   3.192
29698W        W93422   8.821  30.603   2.718
29699W        W93423  35.067  25.613  13.905
29700W        W93424  32.428  17.233   4.772
29701W        W93425   5.767   3.933   4.125
29702W        W93426  21.140  19.197  14.799
29703W        W93427  36.896  10.153  13.939
29704W        W93428  19.625  12.837   4.163
29705W        W93429  21.052  26.557   3.329
29706W        W93430  20.751  33.499   4.233
29707W        W93431  17.190  27.028  13.449
29708W        W93432  23.724  22.067   2.289
29709W        W93433  10.299  21.754   4.206
29710W        W93434  16.141  38.933  10.082
29711W        W93435  18.244  24.642   0.482
29712W        W93436  35.079  29.451  11.377
29713W        W93437  22.091  29.045  11.465
29714W        W93438   1.365   6.413   3.716
29715W        W93439  20.031  36.061   5.303
29716W        W93440  39.386  31.516  11.026
29717W        W93441  38.986   1.455  12.358
29718W        W93442  24.521  16.599   2.360
29719W        W93443  11.128   7.179   1.244
29720W        W93444  11.288   6.819   3.730
29721W        W93445  26.577  10.667  13.031
29722W        W93446   8.219  22.744  13.444
29723W        W93447   6.368   8.366  10.556
29724W        W93448  16.760  16.125  11.082
29725W        W93449  14.208   4.791   4.186
29726W        W93450  28.997  11.320  14.766
29727W        W93451  34.505   1.962  13.060
29728W        W93452  17.644  25.479   3.167
29729W        W93453  16.695  27.647   3.255
29730W        W93454  39.063   3.419  14.975
29731W        W93455  22.673  25.123   3.354
29732W        W93456  21.039  35.526  12.350
29733W        W93457  31.150  36.581  11.466
29734W        W93458  11.160  42.871   4.339
29735W        W93459  17.155  29.515   0.354
29736W        W93460  29.056   3.445   3.779
29737W        W93461  33.882  30.467  13.353
29738W        W93462   5.723  16.158  11.378
29739W        W93463  32.535   2.857   4.705
29740W        W93464   2.287  28.954  12.544
29741W        W93465  42.410   7.680   1.237
29742W        W93466  10.265  21.650  11.422
29743W        W93467  22.594   5.785  12.078
29744W        W93468  17.602  17.063  11.602
29745W        W93469  18.086  35.930  13.516
29746W        W93470  12.175   2.470   2.345
29747W        W93471  39.028   4.867  13.913
29748W        W93472  26.519   2.396   1.764
29749W        W93473  17.289   5.860  11.612
29750W        W93474  23.017   0.318  12.921
29751W        W93475   9.842   8.358   0.747
29752W        W93476  10.172  42.291   4.634
29753W        W93477  11.184  15.795  13.867
29754W        W93478   5.772   2.821   4.284
29755W        W93479  40.432   8.723   3.327
29756W        W93480  18.717  33.418   3.309
29757W        W93481   6.205  39.470  12.060
29758W        W93482   8.757  15.661   1.764
29759W        W93483   1.810  31.106   2.798
29760W        W93484  22.636   6.806   4.353
29761W        W93485  40.889  38.400   2.763
29762W        W93486  30.050  24.682   2.867
29763W        W93487  35.008   0.285   1.297
29764W        W93488  22.663  14.626   4.620
29765W        W93489  29.512   0.973  11.417
29766W        W93490  43.817  17.753  11.976
29767W        W93491   3.925  25.069  11.022
29768W        W93492  20.185   0.905   4.745
29769W        W93493  40.330   7.308   0.938
29770W        W93494  19.255  44.442  13.319
29771W        W93495  36.036  19.549  11.014
29772W        W93496  19.544  19.102  12.571
29773W        W93497  17.157  32.980   1.761
29774W        W93498  43.784  12.228   3.326
29775W        W93499  43.388   4.744   3.732
29776W        W93500  44.965  31.050  11.487
29777W        W93501  41.379  14.159  14.823
29778W        W93502  32.597  15.578  11.858
29779W        W93503  14.275  26.003   0.467
29780W        W93504  44.363  18.668  11.391
29781W        W93505  15.178  42.376   3.868
29782W        W93506  37.476   6.228  14.297
29783W        W93507  34.453  35.077  13.362
29784W        W93508  22.644  36.023   2.367
29785W        W93509  24.702  26.465  10.497
29786W        W93510   8.349  32.533   0.824
29787W        W93511  26.176  24.687   3.790
29788W        W93512  11.824  15.596  13.939
29789W        W93513  24.055  35.509  12.421
29790W        W93514  38.502   9.387   1.271
29791W        W93515  14.126   2.889   3.205
29792W        W93516  32.121  41.804   5.308
29793W        W93517  12.127  29.950  11.407
29794W        W93518  26.672  27.507   2.203
29795W        W93519  21.096  18.160   0.374
29796W        W93520  43.328  28.072   3.181
29797W        W93521  30.627  17.576  11.112
29798W        W93522  30.575  24.486   3.631
29799W        W93523  28.008  18.739   3.180
29800W        W93524  20.040  39.383  13.869
29801W        W93525  40.469  38.922   4.697
29802W        W93526   1.747   8.815   4.729
29803W        W93527  42.332   0.949   3.665
29804W        W93528  42.968  34.425  11.602
29805W        W93529   5.780  44.480   2.183
29806W        W93530  18.079  23.649  13.414
29807W        W93531  19.552  39.808  13.923
29808W        W93532  22.055   2.964  12.544
29809W        W93533  44.962  27.605  11.451
29810W        W93534   0.780  34.107  13.437
29811W        W93535  16.659  39.909  12.828
29812W        W93536  11.312  42.013   4.791
29813W        W93537  20.617   7.726  10.998
29814W        W93538  27.557  35.371  11.984
29815W        W93539  21.713  28.450   2.739
29816W        W93540   0.349   2.905  12.033
29817W        W93541  12.737  40.914   3.767
29818W        W93542  32.622  31.152   1.912
29819W        W93543   5.787  42.842   1.815
29820W        W93544  40.845  13.732   4.132
29821W        W93545  34.914   6.725   1.213
29822W        W93546   1.890   6.217  10.966
29823W        W93547  39.453   0.429  10.056
29824W        W93548  18.564   9.864  13.350
29825W        W93549  41.439  36.561  10.638
29826W        W93550   9.152  42.784   4.732
29827W        W93551  20.557  27.605   1.337
29828W        W93552   5.868  39.430   4.283
29829W        W93553  29.986  25.666  10.934
29830W        W93554   7.202  23.229  10.957
29831W        W93555  29.433  11.149  10.476
29832W        W93556  25.480  21.599   0.271
29833W        W93557  24.075   6.682  12.945
29834W        W93558   0.802  23.011   3.149
29835W        W93559  18.174  26.149   3.385
29836W        W93560  15.115  12.292  11.861
29837W        W93561   9.825  26.496  11.471
29838W        W93562  37.388  39.541   1.878
29839W        W93563   1.424  28.630   4.670
29840W        W93564  36.380  32.576  13.327
29841W        W93565  44.957   2.326   4.736
29842W        W93566  13.277   6.298   1.931
29843W        W93567  24.549  30.968   0.379
29844W        W93568  28.039  23.154   2.750
29845W        W93569  19.664  40.913   4.813
29846W        W93570  13.752  23.997   0.306
29847W        W93571   6.196  33.616  13.540
29848W        W93572   0.463  22.246   4.737
29849W        W93573  28.573  26.640  14.478
29850W        W93574  14.214   9.290  11.448
29851W        W93575  12.160   6.773  13.335
29852W        W93576  33.954  31.623   3.328
29853W        W93577  33.919  37.542  12.070
29854W        W93578  28.611   5.425   4.346
29855W        W93579   6.307  35.958  13.045
29856W        W93580  29.936  38.067   1.858
29857W        W93581  27.102  15.775   0.854
29858W        W93582  42.931  12.705   1.740
29859W        W93583  18.782  16.680   0.298
29860W        W93584   1.410  33.884   0.331
29861W        W93585  23.175  26.514   0.894
29862W        W93586  17.108  18.707  13.315
29863W        W93587  19.641  37.987   0.280
29864W        W93588  19.217   8.320   1.302
29865W        W93589   2.916  17.588   4.658
29866W        W93590   6.295   4.797   1.319
29867W        W93591  18.091   1.472  14.773
29868W        W93592  11.668  18.729  12.900
29869W        W93593  33.419  42.414   4.249
29870W        W93594  40.914  19.050   2.793
29871W        W93595  33.582  41.358   4.332
29872W        W93596  35.936   2.301  13.967
29873W        W93597   5.359   6.831   4.126
29874W        W93598  16.276  31.919  10.006
29875W        W93599   2.293  15.250  10.492
29876W        W93600  16.276  20.541  14.385
29877W        W93601  29.473   0.361  10.510
29878W        W93602  42.000  29.107   3.328
29879W        W93603   8.183   6.377   1.727
29880W        W93604  31.435  13.683  13.927
29881W        W93605  43.442  15.169   3.648
29882W        W93606  44.902  35.016  11.958
29883W        W93607  18.223   3.930   0.316
29884W        W93608  19.627   3.353   2.192
29885W        W93609  35.981  18.600   3.633
29886W        W93610  11.727  21.552   2.245
29887W        W93611  19.050  27.070  14.916
29888W        W93612   8.163  35.528   3.169
29889W        W93613  17.117   9.791   0.345
29890W        W93614  40.323  39.000   9.979
29891W        W93615  32.106  23.640   0.351
29892W        W93616  38.934  11.179  10.632
29893W        W93617  38.406  33.386  13.926
29894W        W93618  12.355  30.974  11.521
29895W        W93619  36.473  33.969   4.228
29896W        W93620   1.269  13.148   2.403
29897W        W93621  31.526   2.315   0.893
29898W        W93622  27.177  32.118  10.121
29899W        W93623  17.672  33.383  11.605
29900W        W93624  33.617  27.006   0.756
29901W        W93625  37.931   8.386  12.004
29902W        W93626  19.063  26.687   3.317
29903W        W93627   4.210  13.203  13.850
29904W        W93628  15.172  21.023  11.489
29905W        W93629  12.316   7.395  11.388
29906W        W93630   4.389  26.089  12.448
29907W        W93631  34.542  17.624   4.770
29908W        W93632  26.469   6.206   2.195
29909W        W93633  34.945  21.758   1.768
29910W        W93634   7.347  33.526  12.483
29911W        W93635   5.252  41.843  12.558
29912W        W93636  13.254  22.147  13.400
29913W        W93637   4.719  21.542   4.308
29914W        W93638  16.242  44.383  14.467
29915W        W93639  12.645  11.822  11.584
29916W        W93640  23.720  37.850  13.429
29917W        W93641  24.518   8.355  10.613
29918W        W93642   8.342  13.123   3.289
29919W        W93643   8.804  13.252  10.994
29920W        W93644   9.863  13.220   4.775
29921W        W93645  33.986  23.006  12.518
29922W        W93646   1.351   1.289  12.902
29923W        W93647   0.778  40.839  14.803
29924W        W93648  39.429  14.752  14.505
29925W        W93649  14.715  40.530  11.922
29926W        W93650  42.356  43.401   0.309
29927W        W93651   4.430  20.625  12.029
29928W        W93652   3.937   9.245   0.447
29929W        W93653  20.709  32.087   5.186
29930W        W93654  44.460  31.629  13.419
29931W        W93655  21.126  37.882   1.249
29932W        W93656  37.429  43.274   2.298
29933W        W93657  31.029  12.656  13.900
29934W        W93658  18.631  11.352   0.773
29935W        W93659  41.425  41.502  10.531
29936W        W93660  42.502  38.565   1.350
29937W        W93661   8.173  32.586   3.869
29938W        W93662  25.648  39.925   2.258
29939W        W93663  16.624   5.319  13.369
29940W        W93664  27.578  38.542  10.627
29941W        W93665  40.535  29.937   4.648
29942W        W93666  37.460  35.405   2.401
29943W        W93667   8.323  10.331   1.281
29944W        W93668  31.448  38.031  14.854
29945W        W93669  31.617   1.738   4.236
29946W        W93670  20.086  24.070  10.992
29947W        W93671  15.239  42.944  10.446
29948W        W93672   1.778   2.946   4.834
29949W        W93673   5.420  20.235  11.945
29950W        W93674   2.783   6.864  12.431
29951W        W93675  35.002  26.581   3.364
29952W        W93676   7.228  22.574   1.437
29953W        W93677   8.732   9.646  11.868
29954W        W93678  34.007   3.767  11.399
29955W        W93679  29.433   8.275  11.088
29956W        W93680  44.356  39.907  10.897
29957W        W93681  22.578  44.466   2.719
29958W        W93682  24.174   7.746   1.881
29959W        W93683  42.303  41.362  14.817
29960W        W93684   0.777  24.060   4.836
29961W        W93685   5.896   0.404  14.487
29962W        W93686  44.410  29.622   4.306
29963W        W93687  13.800  28.611  11.606
29964W        W93688  41.795   8.386  11.375
29965W        W93689  40.949  35.064  14.506
29966W        W93690  36.903  22.677   3.827
29967W        W93691  22.186  29.149   5.174
29968W        W93692   5.257  39.891   4.800
29969W        W93693  14.161   4.331   2.821
29970W        W93694  12.274  12.295  12.031
29971W        W93695   8.360  14.738   9.565
29972W        W93696   2.729  43.970   0.324
29973W        W93697  44.829   3.786  13.489
29974W        W93698  42.010  28.458  13.922
29975W        W93699  42.837   4.858  13.816
29976W        W93700   9.158  21.578  12.843
29977W        W93701  35.478  21.134  14.001
29978W        W93702   4.797  39.978   0.866
29979W        W93703  19.081  32.050  14.019
29980W        W93704   2.953  40.365   1.445
29981W        W93705  10.647  30.137   2.258
29982W        W93706  38.957  22.045  14.423
29983W        W93707   5.407  36.986   3.779
29984W        W93708  10.319  19.558  11.467
29985W        W93709  23.609  18.080   4.141
29986W        W93710  32.582  20.191   4.725
29987W        W93711  21.607  19.152  10.453
29988W        W93712  39.036  38.952  13.899
29989W        W93713   2.941  26.121   0.374
29990W        W93714   0.455  41.302  12.465
29991W        W93715  31.498  40.504   0.933
29992W        W93716   6.301  33.528   2.710
29993W        W93717  15.814  38.490   2.309
29994W        W93718  23.514  21.137   3.386
29995W        W93719  29.992   1.355  11.593
29996W        W93720   7.825  32.530   1.753
29997W        W93721  19.201  13.609  12.493
29998W        W93722   6.736  17.593   4.604
29999W        W93723  29.548  19.690  11.502
30000W        W93724  11.634  16.113  12.005
30001W        W93725   7.778  34.029  12.988
30002W        W93726  20.141  19.278  11.475
30003W        W93727   2.416  37.965   4.677
30004W        W93728   6.861  36.471   4.782
30005W        W93729  30.053  34.559   0.907
30006W        W93730  36.986   8.881  14.911
30007W        W93731  12.856  22.591   0.396
30008W        W93732   7.318  40.440  12.912
30009W        W93733  21.179  32.923  12.556
30010W        W93734   7.252  42.473   2.852
30011W        W93735  32.500   0.413  12.003
30012W        W93736  27.971  39.423   1.377
30013W        W93737  16.618  31.407  12.003
30014W        W93738  33.572  35.925  14.298
30015W        W93739  24.674  27.597   1.412
30016W        W93740  37.386   1.916  14.510
30017W        W93741   6.808  39.432  12.925
30018W        W93742   1.354  19.209  13.033
30019W        W93743  28.488  21.065   2.319
30020W        W93744  36.417  29.459  12.962
30021W        W93745  24.527  13.666   0.316
30022W        W93746  10.298  14.192   2.887
30023W        W93747  31.100   9.699  13.023
30024W        W93748   2.261  28.636   4.254
30025W        W93749  31.645  31.101  14.887
30026W        W93750  37.559  18.103  14.490
30027W        W93751   7.246  19.100  13.982
30028W        W93752  21.189  18.703  12.855
30029W        W93753  24.230  18.139  10.570
30030W        W93754  44.952  43.815   0.343
30031W        W93755  27.606  36.076  14.963
30032W        W93756  26.699  39.347   0.752
30033W        W93757  31.645  15.579  14.851
30034W        W93758  11.660  42.515   3.169
30035W        W93759  20.617  41.929  11.609
30036W        W93760   2.438  40.346  14.919
30037W        W93761  17.115   8.701   3.176
30038W        W93762   5.348  24.493   4.159
30039W        W93763  21.605  21.157   1.760
30040W        W93764  18.744  32.563  13.003
30041W        W93765  35.042  39.384   3.307
30042W        W93766  13.661   6.901  12.456
30043W        W93767   3.765  32.902   2.286
30044W        W93768   3.842   4.381  12.918
30045W        W93769  33.573  36.483  10.927
30046W        W93770  36.991  15.689  13.837
30047W        W93771  10.280   5.853  10.548
30048W        W93772  31.416  34.547   4.831
30049W        W93773  10.661  21.683   3.253
30050W        W93774  35.575  12.788   4.122
30051W        W93775  11.636   4.813   1.321
30052W        W93776  17.745  33.006   1.264
30053W        W93777  25.132  15.793  10.451
30054W        W93778  23.646  14.243   2.738
30055W        W93779  25.079  31.903   2.298
30056W        W93780  22.562  41.303  13.880
30057W        W93781   5.406  31.124  13.875
30058W        W93782  27.515   0.883   2.383
30059W        W93783  34.018  36.447  13.012
30060W        W93784  35.362   5.249  13.545
30061W        W93785  29.040  10.314  14.460
30062W        W93786  13.241  35.880  10.049
30063W        W93787  26.593   4.377  13.050
30064W        W93788  18.571   0.395   1.297
30065W        W93789  33.471  13.819  12.958
30066W        W93790  20.588  17.161   1.286
30067W        W93791   3.942  40.826  12.358
30068W        W93792  17.679  37.350  12.468
30069W        W93793  21.242  31.485  10.974
30070W        W93794  33.924  18.703   4.604
30071W        W93795  26.966  18.280  12.092
30072W        W93796  24.215  22.249   2.896
30073W        W93797  25.041  12.258   3.288
30074W        W93798  33.452  16.142   2.723
30075W        W93799  30.117  25.112   3.737
30076W        W93800   1.367  34.455  11.601
30077W        W93801  31.966  22.159   2.759
30078W        W93802   0.373   1.352  13.538
30079W        W93803  44.822  32.540   2.674
30080W        W93804   1.849  44.923  10.578
30081W        W93805  38.829  39.922   4.203
30082W        W93806   5.907  30.020   3.315
30083W        W93807   6.394  41.967  12.538
30084W        W93808  21.602  18.108  13.941
30085W        W93809   1.753   2.242   2.766
30086W        W93810  16.280  16.724   0.744
30087W        W93811   7.674  18.682  13.895
30088W        W93812  14.717   7.410   3.335
30089W        W93813   9.682  10.313   3.348
30090W        W93814  44.803   5.931   0.438
30091W        W93815  17.672  38.556  12.938
30092W        W93816   7.336  29.492  13.472
30093W        W93817  17.180  33.485  13.927
30094W        W93818  41.812  40.875   4.290
30095W        W93819  35.388  16.728  14.894
30096W        W93820  22.700  31.101  14.402
30097W        W93821  31.493  12.334   1.716
30098W        W93822  28.956   6.270   2.849
30099W        W93823  10.691   0.422   0.418
30100W        W93824  41.421  19.586   3.658
30101W        W93825  36.570   5.851   2.861
30102W        W93826  22.668  33.585   1.297
30103W        W93827   1.293   9.775  14.984
30104W        W93828  39.400  15.748   9.949
30105W        W93829   8.704  25.094   2.747
30106W        W93830  30.539  43.368  10.596
30107W        W93831  21.203  41.432  14.885
30108W        W93832  33.446  42.013   4.261
30109W        W93833  42.836  37.943  11.525
30110W        W93834  27.068  28.499  11.104
30111W        W93835  34.878  39.552  13.900
30112W        W93836  22.530   9.730   3.805
30113W        W93837  20.118   2.277  11.427
30114W        W93838   9.742   5.913   1.789
30115W        W93839  38.855   2.382   1.413
30116W        W93840  18.119  37.490   2.384
30117W        W93841  15.188  37.867  13.385
30118W        W93842  20.732  17.196   4.183
30119W        W93843  11.258  37.460  10.494
30120W        W93844  18.743  27.019  11.904
30121W        W93845  17.238  36.940   0.297
30122W        W93846  12.761  38.921   2.780
30123W        W93847  19.596  24.214   1.919
30124W        W93848   7.825  12.626   0.902
30125W        W93849  39.428  40.416  13.945
30126W        W93850  10.875  18.138  11.912
30127W        W93851  42.498  40.860  14.337
30128W        W93852  32.558  40.532   0.771
30129W        W93853  24.719   3.453  14.943
30130W        W93854  37.526   5.216  12.033
30131W        W93855  21.111  38.010   2.903
30132W        W93856  20.642  16.567   3.692
30133W        W93857  10.785  33.004  14.912
30134W        W93858  15.716   8.372   1.755
30135W        W93859  10.171  22.234   5.219
30136W        W93860  35.045   0.978   0.409
30137W        W93861  34.492  34.470  14.838
30138W        W93862  17.274   3.444  13.800
30139W        W93863  26.156  22.023   2.324
30140W        W93864  38.910   0.450  14.490
30141W        W93865  35.503   5.855   3.819
30142W        W93866  35.877   1.957  12.946
30143W        W93867   1.426  37.028  10.553
30144W        W93868  12.653  19.211  11.581
30145W        W93869  33.068  34.096  12.474
30146W        W93870  26.018  33.047  11.458
30147W        W93871  26.611  21.589   1.320
30148W        W93872  39.997  43.968  13.921
30149W        W93873   5.861  21.216   2.407
30150W        W93874   8.843  15.597  12.505
30151W        W93875   0.841  10.781  10.960
30152W        W93876  24.125  40.801   3.258
30153W        W93877  29.087   3.246  10.900
30154W        W93878  32.095  38.537  14.998
30155W        W93879  40.981   1.407   4.218
30156W        W93880  25.067  38.948  11.085
30157W        W93881   0.959  27.540  10.631
30158W        W93882   5.432   1.338   4.193
30159W        W93883  10.797  26.661   0.754
30160W        W93884  36.482  20.038   1.262
30161W        W93885  13.809  22.631  11.124
30162W        W93886  40.343  34.590  12.405
30163W        W93887  28.472  18.708   1.790
30164W        W93888  14.787   0.776   0.827
30165W        W93889  15.235  35.878   1.222
30166W        W93890  31.081  35.102  10.953
30167W        W93891  30.025   3.420  11.879
30168W        W93892   5.723  22.728  11.059
30169W        W93893   2.786  34.480  13.807
30170W        W93894  37.492  11.160   2.813
30171W        W93895  25.982   0.988   0.347
30172W        W93896   3.312   7.203  11.413
30173W        W93897  18.755   7.754   3.676
30174W        W93898  24.185  24.556  14.502
30175W        W93899  28.567  32.548  10.416
30176W        W93900  16.660  23.219  14.818
30177W        W93901  17.193  44.436   0.884
30178W        W93902  28.560  16.144   3.686
30179W        W93903  23.049  11.182   3.772
30180W        W93904  22.707  35.058   0.834
30181W        W93905   7.250   6.878  14.305
30182W        W93906   7.267   5.356  13.462
30183W        W93907  42.309  36.564   5.123
30184W        W93908  12.617  33.068  14.861
30185W        W93909  33.510  37.976   1.424
30186W        W93910  43.484  18.263  13.404
30187W        W93911  31.904  13.158   2.411
30188W        W93912   8.228  40.013  12.546
30189W        W93913  14.243  30.441   4.257
30190W        W93914   4.264  35.409  12.091
30191W        W93915  33.455  33.088   0.949
30192W        W93916  41.470  27.517   2.780
30193W        W93917  20.573  10.775  13.890
30194W        W93918  43.946  38.534   3.165
30195W        W93919  12.117  44.894   2.859
30196W        W93920  24.507  42.970   0.887
30197W        W93921   1.468   5.824  12.567
30198W        W93922   3.832  33.425   1.386
30199W        W93923  18.604  24.181  13.514
30200W        W93924  39.433  26.653  10.645
30201W        W93925  22.647  24.668   3.336
30202W        W93926   5.697   2.857  13.414
30203W        W93927   5.889  12.814   3.656
30204W        W93928  17.694  30.564  12.429
30205W        W93929   5.742   7.819  12.927
30206W        W93930  33.936   5.824   1.211
30207W        W93931  16.720  12.787  12.489
30208W        W93932  25.204  34.936   2.682
30209W        W93933  19.718   2.857   4.610
30210W        W93934  13.325  22.200   3.261
30211W        W93935  28.621   9.307   3.676
30212W        W93936  22.513  13.247   0.783
30213W        W93937  28.672  22.210   4.299
30214W        W93938  38.462   2.961   4.167
30215W        W93939  28.021  36.393  13.531
30216W        W93940  15.783  41.874   1.261
30217W        W93941  10.779  15.166  13.520
30218W        W93942  25.166  32.608  13.969
30219W        W93943  17.650   5.217  12.884
30220W        W93944  31.546  42.996   0.282
30221W        W93945  26.065   2.252  14.918
30222W        W93946  17.690  19.737  14.875
30223W        W93947  15.589  41.869  10.549
30224W        W93948  17.571  22.688   2.294
30225W        W93949  32.134   7.699  14.997
30226W        W93950   3.823  18.675   0.917
30227W        W93951  11.823  18.634  14.419
30228W        W93952  26.628   5.285  11.995
30229W        W93953  14.833  29.112   1.789
30230W        W93954  13.688  32.019  11.865
30231W        W93955  12.714  18.198  11.080
30232W        W93956  31.086   1.875  14.840
30233W        W93957  30.111  17.682   1.867
30234W        W93958   0.473  38.861   1.248
30235W        W93959  16.239  37.470  12.515
30236W        W93960  20.630  31.405  11.557
30237W        W93961  26.062   6.778  12.853
30238W        W93962   7.415   3.918   4.742
30239W        W93963   5.824  31.069   1.369
30240W        W93964   4.230  14.236  14.404
30241W        W93965  16.611  25.624   3.848
30242W        W93966   1.783   2.304   3.805
30243W        W93967   3.283  43.333  13.327
30244W        W93968   1.338  36.411  13.403
30245W        W93969  15.781  37.066  11.072
30246W        W93970   4.874  30.010   3.366
30247W        W93971  12.357  42.844   3.691
30248W        W93972  32.486  13.612  12.077
30249W        W93973   2.888  23.114   2.248
30250W        W93974  13.643  15.101  11.957
30251W        W93975  35.496   3.343   0.269
30252W        W93976   8.320  19.123   1.396
30253W        W93977  34.534  40.824   4.205
30254W        W93978  22.658  39.992   2.262
30255W        W93979  39.324  10.266   2.394
30256W        W93980  30.637   8.757  14.011
30257W        W93981  25.628  22.022   1.254
30258W        W93982  15.138  22.519   4.202
30259W        W93983  41.928  22.059  12.525
30260W        W93984  44.000  28.438  12.997
30261W        W93985  36.903  26.001   2.806
30262W        W93986   3.357  10.746   3.279
30263W        W93987  30.152  14.708   2.249
30264W        W93988  19.216  30.513  12.981
30265W        W93989  28.499  20.254   1.909
30266W        W93990  16.605  10.383  11.052
30267W        W93991  18.086   4.405   4.741
30268W        W93992  25.655  41.900  14.991
30269W        W93993  39.495   0.889   1.848
30270W        W93994   5.707  13.245  11.979
30271W        W93995  25.211   3.382   3.321
30272W        W93996  40.837   7.882   1.439
30273W        W93997   7.771  29.081   4.692
30274W        W93998   7.221   1.315  13.932
30275W        W93999  30.104  14.780   0.846
30276W        W94000   5.917  44.270  10.988
30277W        W94001  20.587  17.729  13.952
30278W        W94002  32.139  31.628   2.666
30279W        W94003  28.476  19.753  12.863
30280W        W94004  30.123  21.645  10.433
30281W        W94005   4.425  30.141  14.979
30282W        W94006  36.413  37.889  14.799
30283W        W94007  43.454   5.265   1.844
30284W        W94008  31.059   7.749   3.194
30285W        W94009  44.421   9.646   2.356
30286W        W94010  11.335  23.052  10.906
30287W        W94011  40.303   6.727  14.848
30288W        W94012  37.854  36.021  11.451
30289W        W94013  23.579  11.212  13.330
30290W        W94014  12.274  42.882   4.602
30291W        W94015  15.656  18.760  10.598
30292W        W94016  26.622  11.813  14.974
30293W        W94017   9.793  41.381  14.353
30294W        W94018  43.276  26.590  14.810
30295W        W94019  35.365  33.395  11.883
30296W        W94020   0.825  29.448   2.785
30297W        W94021  30.575   3.786   3.295
30298W        W94022  17.629  31.010   0.400
30299W        W94023  33.951   3.221  12.349
30300W        W94024  36.876   5.225   2.321
30301W        W94025  12.134  10.183  10.889
30302W        W94026  26.681  24.202   3.341
30303W        W94027  25.203  20.177   2.890
30304W        W94028  29.047   1.732  12.051
30305W        W94029   4.894  22.540  11.079
30306W        W94030  22.057  28.994  12.487
30307W        W94031  31.534   0.819   0.867
30308W        W94032  42.807  33.522  11.017
30309W        W94033  37.516  35.567   2.762
30310W        W94034  10.256  42.355  11.609
30311W        W94035  22.720  11.791  14.984
30312W        W94036  23.161  32.527   4.165
30313W        W94037  38.868  31.047   3.690
30314W        W94038   8.192  35.065   4.145
30315W        W94039  36.850  32.054   1.860
30316W        W94040   4.437  23.987   3.748
30317W        W94041  44.397   6.868   2.847
30318W        W94042  23.227  28.612   0.951
30319W        W94043  41.292  31.023  12.072
30320W        W94044  30.431  19.208  12.563
30321W        W94045  39.898  25.524   1.733
30322W        W94046  30.549  38.024  12.839
30323W        W94047   2.941  28.001   3.841
30324W        W94048   4.328  40.434   1.374
30325W        W94049  12.186  35.065   0.415
30326W        W94050  40.368  38.049  14.882
30327W        W94051  35.936   8.754   3.842
30328W        W94052  20.046  35.468   0.346
30329W        W94053  42.491  41.882   3.649
30330W        W94054  24.593  16.098   0.876
30331W        W94055  16.181  18.768   1.904
30332W        W94056  19.585  10.149   3.728
30333W        W94057  17.285  35.017   4.630
30334W        W94058  33.391   2.388  12.993
30335W        W94059  17.714   2.382  12.377
30336W        W94060   1.799  27.679   4.680
30337W        W94061  19.047  12.331  12.066
30338W        W94062  43.386  28.963   2.798
30339W        W94063  17.222  22.620   0.905
30340W        W94064  40.977  42.776  14.908
30341W        W94065  37.567  33.425   3.170
30342W        W94066   8.663  36.487  13.364
30343W        W94067   9.233  32.015   3.869
30344W        W94068  34.949  26.678  12.092
30345W        W94069  27.039  12.795  11.048
30346W        W94070  31.947   4.417   2.257
30347W        W94071  43.448  19.644   1.282
30348W        W94072  19.688  32.452  10.410
30349W        W94073  35.041   0.768  12.094
30350W        W94074  13.655  38.902   3.344
30351W        W94075   7.681   9.183  11.606
30352W        W94076  18.148  12.856  13.314
30353W        W94077  15.775   1.431  12.031
30354W        W94078   0.803  38.368  12.395
30355W        W94079  40.360  27.448  11.892
30356W        W94080   0.811  17.791   2.362
30357W        W94081  32.901  31.480  10.504
30358W        W94082   3.870  30.111   0.729
30359W        W94083  15.584  31.144   4.224
30360W        W94084  11.628  44.400   4.652
30361W        W94085  22.652  27.503  11.128
30362W        W94086   7.680  34.864  13.904
30363W        W94087  40.506  21.568  11.109
30364W        W94088  43.890   5.227  14.882
30365W        W94089  35.957  12.649  11.579
30366W        W94090  27.449  14.201   2.838
30367W        W94091  18.066  40.483  10.541
30368W        W94092  14.710  43.385  11.463
30369W        W94093  17.078  35.985  14.458
30370W        W94094  38.553  42.941  13.928
30371W        W94095  23.666  23.685   4.818
30372W        W94096  42.983  38.497   2.246
30373W        W94097  35.898  11.859   2.281
30374W        W94098   2.745   4.788   3.671
30375W        W94099  18.140  30.472  13.841
30376W        W94100   4.717  31.532  13.942
30377W        W94101  16.098  21.240  12.376
30378W        W94102   4.744  30.455  10.910
30379W        W94103  43.272  25.970  14.806
30380W        W94104  17.723  17.300   4.257
30381W        W94105  33.415  32.904  14.991
30382W        W94106  21.106  15.211   3.152
30383W        W94107  38.330  36.842   3.163
30384W        W94108  16.738   6.839  11.380
30385W        W94109  36.994  29.649  13.421
30386W        W94110   9.293  39.523  14.375
30387W        W94111   0.492  13.805  14.495
30388W        W94112  44.776   5.737   4.159
30389W        W94113  24.123  13.798   4.330
30390W        W94114  33.462  15.723   0.838
30391W        W94115  36.092  33.117  14.809
30392W        W94116  31.594  25.025   3.341
30393W        W94117  18.721  37.492  11.911
30394W        W94118  16.238  42.372  13.344
30395W        W94119  32.391  31.563  10.418
30396W        W94120  28.463  12.260  10.479
30397W        W94121  33.055  31.043  13.499
30398W        W94122  31.545  22.591   0.943
30399W        W94123  26.004  17.561   2.309
30400W        W94124  13.247   4.785  12.512
30401W        W94125  16.740  24.142  10.493
30402W        W94126   7.356  31.899  13.007
30403W        W94127  27.068  29.621  10.912
30404W        W94128  15.184   6.255  14.014
30405W        W94129  27.522  24.980   4.214
30406W        W94130  35.009   8.682  14.798
30407W        W94131  30.135  35.994   3.344
30408W        W94132  12.148   6.725  11.490
30409W        W94133  41.918  21.142  10.492
30410W        W94134  37.567  14.624   0.363
30411W        W94135  40.542  17.747   1.794
30412W        W94136   7.796  39.471  14.791
30413W        W94137  25.011  12.155   3.695
30414W        W94138  35.896  24.090   4.601
30415W        W94139  23.628  36.362   0.850
30416W        W94140  32.139  26.082   4.189
30417W        W94141  39.026   1.448   3.638
30418W        W94142  44.916  42.843   4.692
30419W        W94143  28.957   7.760  12.879
30420W        W94144  36.031   5.351   1.210
30421W        W94145  27.943  23.665  10.055
30422W        W94146  27.072  26.547  14.869
30423W        W94147  10.711  31.540   4.642
30424W        W94148  44.309  31.405  11.074
30425W        W94149   6.299  19.143   3.657
30426W        W94150  29.054  29.513   1.803
30427W        W94151  14.302  17.147   1.819
30428W        W94152  29.047  28.451   4.639
30429W        W94153  29.081   9.817   4.824
30430W        W94154   7.246  43.486   4.836
30431W        W94155   7.710   3.835   1.305
30432W        W94156   6.388  32.976  11.479
30433W        W94157   9.168  11.668  11.879
30434W        W94158  38.464   8.825   1.260
30435W        W94159  18.684   8.812  12.549
30436W        W94160   1.403  28.957  14.766
30437W        W94161   9.786  26.569   3.789
30438W        W94162  41.411  10.171   1.930
30439W        W94163  12.271  10.823   3.367
30440W        W94164  23.726   1.919  12.362
30441W        W94165  42.403  10.709  11.927
30442W        W94166  10.207  43.945  13.504
30443W        W94167  17.231  30.553  10.900
30444W        W94168  42.414  40.310   4.333
30445W        W94169   5.418   4.810   3.682
30446W        W94170  22.592  28.673   3.805
30447W        W94171  36.887   2.358   4.831
30448W        W94172  28.081   1.937   0.735
30449W        W94173  28.946  24.679   4.158
30450W        W94174  36.376   3.750  12.031
30451W        W94175   6.202  22.513  10.001
30452W        W94176  28.087   4.887   3.385
30453W        W94177   8.684  43.795   1.316
30454W        W94178  19.546  41.019  13.511
30455W        W94179  28.166   7.683  14.788
30456W        W94180  13.718   2.821  13.064
30457W        W94181   4.421  16.735  13.963
30458W        W94182  43.458  33.993   0.244
30459W        W94183  22.055  16.202   5.589
30460W        W94184   6.286   3.760  12.530
30461W        W94185  17.564  27.176  10.590
30462W        W94186  17.740  16.578   2.408
30463W        W94187   6.397   6.835   1.746
30464W        W94188  27.178  32.402   0.918
30465W        W94189  42.331  40.837  11.903
30466W        W94190  16.568  25.672  14.312
30467W        W94191   5.353   7.862  11.500
30468W        W94192  37.477  28.068   2.708
30469W        W94193  20.193  29.487   0.926
30470W        W94194  37.912  19.661  14.397
30471W        W94195  21.700  32.134  13.816
30472W        W94196   0.782  24.146   2.274
30473W        W94197  16.308  24.719  14.767
30474W        W94198  32.525   2.426  11.486
30475W        W94199  43.441   1.946  14.437
30476W        W94200  40.359  41.887  14.324
30477W        W94201  41.378   1.732   0.949
30478W        W94202  31.976  13.151   4.352
30479W        W94203  19.681  41.958   1.694
30480W        W94204  34.509  12.747   5.147
30481W        W94205  23.006   1.401   2.678
30482W        W94206  14.737  39.519  13.459
30483W        W94207  19.591  24.064   5.227
30484W        W94208  17.630   1.463   0.881
30485W        W94209   9.702  27.949   2.404
30486W        W94210  25.698   8.178   1.792
30487W        W94211  44.838   2.437  13.886
30488W        W94212  19.665  23.536  15.000
30489W        W94213  15.238   1.853  10.985
30490W        W94214  12.207  22.111   2.178
30491W        W94215   9.193   7.670  13.482
30492W        W94216  14.191  15.820   5.113
30493W        W94217  35.852  31.959  12.347
30494W        W94218  32.105  28.514  10.406
30495W        W94219  25.974  42.028  10.991
30496W        W94220  17.668  44.385  10.915
30497W        W94221  42.873   9.747  14.952
30498W        W94222  18.617  16.788   2.199
30499W        W94223   6.723  36.086   0.934
30500W        W94224   3.393  41.424   1.438
30501W        W94225   9.725   6.293   0.850
30502W        W94226  20.737  28.114   3.846
30503W        W94227   0.410  17.192  13.407
30504W        W94228   6.847  28.572  13.812
30505W        W94229  11.348  18.752   3.684
30506W        W94230  31.093  26.995  10.438
30507W        W94231  44.337   6.416   5.098
30508W        W94232  19.742  20.593  13.415
30509W        W94233  30.615  35.479   3.725
30510W        W94234   6.356   6.901  11.901
30511W        W94235  34.606  40.797  14.437
30512W        W94236   6.808   7.300  12.578
30513W        W94237  40.491  36.098  14.416
30514W        W94238  23.034  17.152   0.815
30515W        W94239   2.896  37.907   2.328
30516W        W94240  39.850   4.922   0.915
30517W        W94241   4.338  37.521  14.841
30518W        W94242  25.551   8.799  13.319
30519W        W94243  36.398  21.753   0.766
30520W        W94244   3.933   0.306  12.861
30521W        W94245  25.216  24.595  11.598
30522W        W94246  10.683  17.114   2.224
30523W        W94247  30.555   9.284   0.416
30524W        W94248  38.053  15.089  13.945
30525W        W94249  37.989  11.850  14.878
30526W        W94250  26.992  24.662  12.081
30527W        W94251  42.522  44.338   0.384
30528W        W94252  34.064  24.073  11.990
30529W        W94253  41.921  25.598  13.840
30530W        W94254  16.617  31.614   3.192
30531W        W94255  42.822  33.090   1.899
30532W        W94256   9.178   2.784  14.786
30533W        W94257  17.792  29.534  13.324
30534W        W94258  19.543  38.539   0.854
30535W        W94259  16.800  14.787   4.631
30536W        W94260  31.563  14.806   4.284
30537W        W94261  10.748   1.299  10.604
30538W        W94262  10.704  23.155   4.329
30539W        W94263  21.137  44.299   4.622
30540W        W94264  36.510  30.103   3.162
30541W        W94265  19.721  38.852  11.041
30542W        W94266  13.335   1.764   2.771
30543W        W94267  13.165  21.653  14.873
30544W        W94268  23.549  18.097   2.367
30545W        W94269  28.662  18.601  11.422
30546W        W94270   8.752  20.267  13.346
30547W        W94271  15.671  42.793   2.672
30548W        W94272  11.745   6.855   1.774
30549W        W94273  10.632  38.414  14.784
30550W        W94274  14.192   2.396   0.271
30551W        W94275   5.876  34.539  10.892
30552W        W94276  43.987   5.763   0.322
30553W        W94277  18.656  18.219   3.254
30554W        W94278  14.172  19.567   1.894
30555W        W94279  38.418  37.908   0.298
30556W        W94280   9.707   6.714   1.926
30557W        W94281  30.529  20.564   0.907
30558W        W94282  31.985   9.856   1.881
30559W        W94283  29.982  13.105  12.887
30560W        W94284   4.702  19.174  11.909
30561W        W94285  18.629  27.029   0.747
30562W        W94286   5.245  27.476   1.359
30563W        W94287  14.143  44.911  10.606
30564W        W94288  28.497  35.540   2.741
30565W        W94289  26.119  10.234   5.150
30566W        W94290  43.951  14.656  14.811
30567W        W94291  26.521  20.256   2.859
30568W        W94292  35.470  18.569  13.015
30569W        W94293   6.731  14.305  12.360
30570W        W94294  18.691  30.430   1.227
30571W        W94295  44.444  23.574  10.582
30572W        W94296  29.496   0.324   1.823
30573W        W94297  34.455   3.400   3.377
30574W        W94298  16.115  16.611  12.887
30575W        W94299  22.060   1.355   0.845
30576W        W94300   4.405   0.456  13.881
30577W        W94301  39.974  24.059  11.059
30578W        W94302   2.303  29.122   2.285
30579W        W94303  19.727   7.341  11.872
30580W        W94304  37.349  42.445  11.110
30581W        W94305  10.368  33.595  10.542
30582W        W94306  37.369  31.925   5.318
30583W        W94307  41.334  37.002   1.285
30584W        W94308  23.535  44.356  12.545
30585W        W94309   7.821   6.376  10.889
30586W        W94310  41.880  15.289   1.768
30587W        W94311  34.527  14.258   4.347
30588W        W94312   9.677  43.392   2.178
30589W        W94313  10.803  28.457   1.887
30590W        W94314  35.397  42.321   3.149
30591W        W94315  17.159  41.452  12.016
30592W        W94316  44.986  30.427  11.553
30593W        W94317  30.041   3.421  11.045
30594W        W94318  16.657  21.730  13.374
30595W        W94319  44.269  43.864  13.009
30596W        W94320  44.289  31.015   4.811
30597W        W94321  15.127  23.062   0.352
30598W        W94322  20.671  12.659   4.225
30599W        W94323   9.284  37.566   3.174
30600W        W94324   6.838   3.268  13.883
30601W        W94325  19.202  24.990  11.063
30602W        W94326  16.772  13.623  12.039
30603W        W94327  12.752  26.082  10.457
30604W        W94328  14.609  16.622   3.804
30605W        W94329  27.521  10.841  12.924
30606W        W94330  17.716  40.805  13.977
30607W        W94331   6.428  20.549  14.283
30608W        W94332  34.944  11.795   1.793
30609W        W94333  16.682  44.890   3.721
30610W        W94334   4.393  17.189  10.960
30611W        W94335  16.645  41.338  10.889
30612W        W94336  20.113  26.575  13.391
30613W        W94337  13.339   0.781  12.889
30614W        W94338  41.368  32.402   2.843
30615W        W94339  43.843   1.831  11.057
30616W        W94340  32.092  25.210  11.124
30617W        W94341   5.933  10.356   1.378
30618W        W94342  29.968  37.366  14.792
30619W        W94343   0.474  27.536  11.043
30620W        W94344  11.233  12.656  14.487
30621W        W94345  29.450   0.484  12.014
30622W        W94346  36.589  43.886  14.994
30623W        W94347   4.329  41.357  13.020
30624W        W94348  43.297  32.091  13.035
30625W        W94349  15.290  39.866   0.400
30626W        W94350   7.793  31.410  13.953
30627W        W94351  20.626   3.900   0.270
30628W        W94352   0.792  35.496  11.426
30629W        W94353  31.549  20.151  14.835
30630W        W94354  19.542   1.943  14.995
30631W        W94355  23.045  33.063  13.489
30632W        W94356  29.629   2.812  14.957
30633W        W94357   0.896  40.370   0.370
30634W        W94358  10.193   8.209  12.548
30635W        W94359  37.540  39.975   3.259
30636W        W94360  24.504  21.161  14.929
30637W        W94361  29.038  20.673   0.776
30638W        W94362  24.138  36.383   4.765
30639W        W94363  18.646   4.316  10.921
30640W        W94364  27.676  29.522   2.239
30641W        W94365  36.564  12.308  11.486
30642W        W94366  34.442  11.189   3.208
30643W        W94367  16.192  31.469  13.307
30644W        W94368  20.164  11.253  10.598
30645W        W94369  22.187  21.757   3.638
30646W        W94370  19.195  39.543   4.322
30647W        W94371  39.341  12.783  10.514
30648W        W94372   6.812  29.544   3.633
30649W        W94373  22.727  15.120  10.046
30650W        W94374  35.095  43.988   1.886
30651W        W94375   5.227  19.170  13.972
30652W        W94376  33.063   9.797   2.375
30653W        W94377  44.009  42.321  14.794
30654W        W94378  34.390   7.177   4.760
30655W        W94379  25.671  38.328   3.766
30656W        W94380   3.313  30.921  13.000
30657W        W94381   6.741   9.284  10.154
30658W        W94382  40.532  33.517   2.304
30659W        W94383  28.153  23.150  11.045
30660W        W94384  23.148  26.519   4.240
30661W        W94385  36.855  34.911  13.848
30662W        W94386  34.568  40.474  10.441
30663W        W94387  34.391  19.278  11.098
30664W        W94388  26.589   1.451   3.822
30665W        W94389  27.135  22.010  14.312
30666W        W94390  28.183   0.432  11.947
30667W        W94391  31.085   4.344  13.995
30668W        W94392  27.474   2.270   3.681
30669W        W94393   4.757  19.053   3.719
30670W        W94394  27.648  32.132  13.915
30671W        W94395   5.233   0.360   0.328
30672W        W94396   0.951  23.725   1.874
30673W        W94397  28.973  16.155  11.904
30674W        W94398  16.566   2.797   2.414
30675W        W94399  34.009   0.966   4.792
30676W        W94400   4.219   4.268   3.786
30677W        W94401  36.503  14.706  12.910
30678W        W94402   6.867  16.283   4.313
30679W        W94403  41.353  31.559   1.304
30680W        W94404   6.707  43.912   4.183
30681W        W94405  33.042   1.310   4.337
30682W        W94406  29.485  13.132  13.321
30683W        W94407  22.605  42.337  13.404
30684W        W94408  31.643  17.257  13.376
30685W        W94409   6.235  23.707  12.449
30686W        W94410  21.059  39.390  12.880
30687W        W94411  18.109  11.351  12.835
30688W        W94412  16.138  34.605   3.347
30689W        W94413  39.504  37.571   4.630
30690W        W94414  35.539  15.666  10.935
30691W        W94415  39.557   9.153  10.619
30692W        W94416  33.468  17.177   9.973
30693W        W94417   5.733  36.998  11.128
30694W        W94418   3.867  35.097  11.864
30695W        W94419  16.692  38.450   1.872
30696W        W94420   5.415  28.969   1.249
30697W        W94421  33.078   4.255   2.875
30698W        W94422  36.514   2.725  12.954
30699W        W94423  20.614   7.212   0.348
30700W        W94424  19.553   6.378   3.736
30701W        W94425  44.824  38.559  13.404
30702W        W94426   1.247  31.058   1.872
30703W        W94427  40.408  23.177  14.989
30704W        W94428   1.895  14.636   3.160
30705W        W94429  12.188  37.055  11.123
30706W        W94430   4.788   1.806  13.971
30707W        W94431  16.308   6.908  12.375
30708W        W94432   6.683  39.058  12.868
30709W        W94433  44.805  11.365   1.918
30710W        W94434  10.839  11.808  11.092
30711W        W94435  27.021  16.589   0.327
30712W        W94436  25.497   3.324   4.746
30713W        W94437   9.274  35.488   2.311
30714W        W94438   9.796  11.808   2.735
30715W        W94439  42.834  43.975   0.769
30716W        W94440  19.640   4.864  10.138
30717W        W94441  14.764  36.090  14.371
30718W        W94442   4.851   8.265   1.818
30719W        W94443   9.308  31.510   2.830
30720W        W94444  18.567  40.032   3.309
30721W        W94445  20.683  40.414   4.667
30722W        W94446  24.676  26.616   0.883
30723W        W94447   9.823   8.196   2.411
30724W        W94448  41.971  33.921   1.339
30725W        W94449  35.372  11.756  11.126
30726W        W94450  21.597  18.050   1.337
30727W        W94451   0.937  21.248  13.527
30728W        W94452   6.388  30.032   0.291
30729W        W94453   1.883  26.090  13.454
30730W        W94454  16.090   0.468  14.320
30731W        W94455  36.950  38.024  13.947
30732W        W94456   1.267   8.301   4.160
30733W        W94457  33.964  29.924   1.229
30734W        W94458   5.372  10.140  12.075
30735W        W94459  41.003   5.327  14.931
30736W        W94460  14.599  41.839  12.531
30737W        W94461  42.425  37.059   1.327
30738W        W94462   9.837   9.888  14.418
30739W        W94463  31.128  25.004  10.572
30740W        W94464  44.832  41.405   0.339
30741W        W94465  43.299   6.861   0.348
30742W        W94466  34.565  43.831   2.181
30743W        W94467   0.897  36.356  13.417
30744W        W94468  11.673  42.493  11.876
30745W        W94469   8.844  17.648   1.390
30746W        W94470  24.625  13.774   1.213
30747W        W94471  19.568  38.928  14.829
30748W        W94472  26.627   1.427   2.798
30749W        W94473  23.042  16.109  10.506
30750W        W94474  38.426  44.289  14.283
30751W        W94475  14.220  39.861  12.917
30752W        W94476  34.497  15.217   0.786
30753W        W94477  23.525   1.774   4.794
30754W        W94478   4.342  25.118  12.888
30755W        W94479  20.711   9.715  10.561
30756W        W94480  30.547  24.214   5.168
30757W        W94481  41.997  25.138   4.710
30758W        W94482  14.257  11.761   0.410
30759W        W94483  40.488  28.553   3.784
30760W        W94484  10.220   9.679   3.670
30761W        W94485  16.300  42.436   2.701
30762W        W94486  24.112  42.289   4.765
30763W        W94487  38.948  19.605   0.832
30764W        W94488  21.687  44.297   0.476
30765W        W94489  33.045  11.701   4.178
30766W        W94490  26.039   0.316  14.356
30767W        W94491  24.682  22.563  12.352
30768W        W94492  12.190  10.311   0.964
30769W        W94493  19.748  11.860  14.969
30770W        W94494  10.348  25.190   0.482
30771W        W94495  15.141  10.646  14.462
30772W        W94496   6.319  43.823   2.273
30773W        W94497   4.315  15.786  14.921
30774W        W94498  35.549  10.794  12.490
30775W        W94499   1.401  11.742  13.430
30776W        W94500   6.919  42.821  13.841
30777W        W94501  29.501   0.750  11.875
30778W        W94502  40.055  16.096   0.809
30779W        W94503  23.008  30.035   9.948
30780W        W94504  11.699  29.087  12.357
30781W        W94505  41.508  16.158   0.819
30782W        W94506  13.331   3.306  13.409
30783W        W94507  12.773   8.707  11.868
30784W        W94508  11.149  29.946  10.631
30785W        W94509  41.818  33.529  10.554
30786W        W94510  28.626  19.666  14.853
30787W        W94511  38.493  39.003  11.975
30788W        W94512  28.008   9.784  14.905
30789W        W94513   1.733  40.423  11.375
30790W        W94514   9.854  28.461  11.431
30791W        W94515  19.080   3.765  11.120
30792W        W94516  28.933  33.124  11.572
30793W        W94517  14.627   0.918  13.406
30794W        W94518  17.734  17.568  11.393
30795W        W94519   7.783  28.058  14.994
30796W        W94520  16.704  32.634   2.708
30797W        W94521  38.882   7.810  11.582
30798W        W94522  29.572  16.809   2.366
30799W        W94523  28.461   9.217   0.367
30800W        W94524  39.352  25.205  12.966
30801W        W94525   1.478  16.169  13.914
30802W        W94526  37.006   6.695   2.745
30803W        W94527   7.741   2.877  10.624
30804W        W94528  36.043  42.017  12.549
30805W        W94529  31.907   0.839  10.988
30806W        W94530  15.765  34.081  11.872
30807W        W94531  29.130  27.167  10.553
30808W        W94532  26.029  26.633  10.476
30809W        W94533   3.287   6.695   4.347
30810W        W94534  20.562  16.664   1.707
30811W        W94535  28.547  43.507  12.006
30812W        W94536  44.795  34.439   1.236
30813W        W94537   8.840  15.154  14.419
30814W        W94538  15.738  22.555   2.378
30815W        W94539  18.616   1.752   0.388
30816W        W94540  34.086  43.785  12.942
30817W        W94541  38.008  40.984   0.927
30818W        W94542  26.123  40.891   0.741
30819W        W94543  29.943   5.401   0.385
30820W        W94544  18.780  44.885   1.267
30821W        W94545   8.192   9.331  14.289
30822W        W94546  11.162  30.151   0.331
30823W        W94547  32.127  37.925   0.937
30824W        W94548  25.201  20.759  13.793
30825W        W94549  15.789  36.898   3.293
30826W        W94550  28.999   6.728   1.854
30827W        W94551  29.603  41.421   0.824
30828W        W94552  38.077  22.175   1.830
30829W        W94553  40.313   0.753   2.699
30830W        W94554  29.629  19.679   1.378
30831W        W94555  26.101   7.867   4.663
30832W        W94556  20.598  33.396   3.819
30833W        W94557  38.367  19.208   2.388
30834W        W94558  17.071  16.663   0.793
30835W        W94559  29.004   9.819   0.411
30836W        W94560  19.705  36.873   1.279
30837W        W94561  21.565  15.088   0.929
30838W        W94562  18.235   3.232   3.701
30839W        W94563  41.507  20.612   5.570
30840W        W94564  37.402   0.848   3.725
30841W        W94565   3.452  40.532  11.919
30842W        W94566  20.178  13.183  10.584
30843W        W94567   3.801  16.112   0.740
30844W        W94568  10.761  19.708   0.839
30845W        W94569  18.213  42.300  14.811
30846W        W94570  26.585  36.400  13.807
30847W        W94571   7.281  44.964  11.577
30848W        W94572  39.860   1.798  10.512
30849W        W94573  30.599   7.256   4.125
30850W        W94574   6.352  30.102  11.111
30851W        W94575  18.775  25.091  12.916
30852W        W94576   9.854   2.957  13.034
30853W        W94577  13.284   6.389  11.903
30854W        W94578  12.796  40.545  14.312
30855W        W94579  26.645  42.924  10.538
30856W        W94580   0.860  34.407   3.363
30857W        W94581  27.479  36.070  12.018
30858W        W94582  12.141   4.427  14.829
30859W        W94583  20.194   9.728  12.377
30860W        W94584  27.996  31.520   3.258
30861W        W94585   4.335  17.128  12.088
30862W        W94586   5.214  44.852  10.999
30863W        W94587  32.897  17.080   2.827
30864W        W94588   8.225   4.802   0.894
30865W        W94589  28.677  13.792  14.381
30866W        W94590  17.115  44.265   4.271
30867W        W94591  28.033  12.660  11.410
30868W        W94592  25.121   8.846   0.882
30869W        W94593  23.728  26.191  14.373
30870W        W94594  34.505  38.926   2.188
30871W        W94595  32.469  40.031  10.514
30872W        W94596  19.587  10.730   4.297
30873W        W94597  44.756  42.014  10.925
30874W        W94598  13.724  29.423   2.379
30875W        W94599   9.253  16.692  14.000
30876W        W94600   4.826   4.394   0.912
30877W        W94601   8.691  24.598   3.834
30878W        W94602   9.182  37.336  10.549
30879W        W94603  20.653  15.166   3.326
30880W        W94604  32.534  21.233  11.949
30881W        W94605  36.033  26.513  14.390
30882W        W94606   6.703  20.126   4.315
30883W        W94607  40.997  15.725  14.493
30884W        W94608   7.324  38.850  12.429
30885W        W94609  28.525   9.353  13.866
30886W        W94610  33.542  35.394  11.901
30887W        W94611  13.710   6.716  14.474
30888W        W94612  31.151  32.637   1.746
30889W        W94613  44.768  42.331  12.496
30890W        W94614  19.279  39.854  14.334
30891W        W94615   2.395  20.671   4.256
30892W        W94616  14.306   0.983   1.770
30893W        W94617  42.787  11.352   3.657
30894W        W94618  21.165  40.375   0.832
30895W        W94619  22.168  16.287   2.225
30896W        W94620   9.723  15.622  11.858
30897W        W94621   0.984  44.354  14.895
30898W        W94622   4.351  11.204   0.960
30899W        W94623  21.715  37.487   0.426
30900W        W94624  13.681   2.824   0.382
30901W        W94625   1.436  10.216  14.285
30902W        W94626   3.774  28.637  11.502
30903W        W94627  38.011  36.442   4.157
30904W        W94628  25.166  37.360  13.795
30905W        W94629   7.723  44.788   4.729
30906W        W94630  28.969  16.601  10.908
30907W        W94631  20.220   8.729  12.424
30908W        W94632  40.880   2.272   0.378
30909W        W94633  40.509  22.069   3.852
30910W        W94634  37.430  26.116   1.707
30911W        W94635  10.152  11.205  12.010
30912W        W94636   6.797   2.934  13.339
30913W        W94637  10.739  20.267   3.822
30914W        W94638  13.604  23.555   2.397
30915W        W94639  25.698  18.734  10.068
30916W        W94640  26.070  30.158   1.935
30917W        W94641  29.669  11.303  12.493
30918W        W94642  28.520  43.510   3.774
30919W        W94643  42.314  26.077  13.792
30920W        W94644  41.828  20.208  12.080
30921W        W94645  30.969  33.071  14.333
30922W        W94646  13.181  16.232  11.588
30923W        W94647  17.101  25.211  12.446
30924W        W94648  20.663   4.422   0.250
30925W        W94649  27.529   5.410  12.465
30926W        W94650  36.917  29.666  12.050
30927W        W94651  31.961  44.263  11.874
30928W        W94652  38.907  38.045  11.529
30929W        W94653  44.475  35.891  10.155
30930W        W94654  39.397   1.370  14.760
30931W        W94655   9.328  42.777  13.046
30932W        W94656  22.662  16.793  11.868
30933W        W94657  15.709   5.418  10.900
30934W        W94658  19.065  22.573   0.814
30935W        W94659  36.960  17.573  11.116
30936W        W94660  44.815  26.150   1.847
30937W        W94661  29.663  43.500   4.272
30938W        W94662  40.879  29.540   0.388
30939W        W94663  26.654  37.559   2.808
30940W        W94664  13.219  39.990  10.480
30941W        W94665   1.395  39.948  11.453
30942W        W94666  14.270  19.659   2.779
30943W        W94667  22.582  24.978  12.526
30944W        W94668  25.016  10.658  12.896
30945W        W94669  28.034  21.020  14.381
30946W        W94670  32.079  16.686  10.149
30947W        W94671  18.098  11.347  11.877
30948W        W94672  24.218  22.218   0.953
30949W        W94673  32.522  34.886   1.890
30950W        W94674   6.329  28.135   3.790
30951W        W94675  12.775  18.089   4.345
30952W        W94676  32.058  42.446   0.832
30953W        W94677  39.474   0.885  14.795
30954W        W94678   7.832  24.496  13.060
30955W        W94679  38.873  27.576  12.445
30956W        W94680   6.325  42.934   3.705
30957W        W94681   2.450  15.619  11.022
30958W        W94682  26.594   6.380   3.643
30959W        W94683  24.138  22.697   2.776
30960W        W94684  38.009  25.034  12.410
30961W        W94685  16.262  35.890   4.299
30962W        W94686  16.096   6.820  13.895
30963W        W94687  25.487  13.292   1.890
30964W        W94688   1.851  27.021   3.793
30965W        W94689  40.832  43.342   0.745
30966W        W94690  34.609  21.576   2.684
30967W        W94691  25.993  41.510  11.893
30968W        W94692   6.902  27.496   3.716
30969W        W94693  18.613   2.932   1.897
30970W        W94694  38.509  43.287   5.250
30971W        W94695  12.665  13.754  13.345
30972W        W94696  29.959  34.070   4.220
30973W        W94697   8.737  17.762  13.486
30974W        W94698  30.618   7.748  14.351
30975W        W94699  21.121  33.514   5.188
30976W        W94700  25.667  19.547   1.795
30977W        W94701  29.666  23.701   2.284
30978W        W94702  26.625  19.060  13.056
30979W        W94703  44.770  10.666   0.875
30980W        W94704  27.671  19.073  14.290
30981W        W94705  33.398  24.489   4.819
30982W        W94706  20.539  20.097   3.220
30983W        W94707  31.447   1.828   0.411
30984W        W94708  42.433  40.375  13.449
30985W        W94709  20.560  20.048   4.145
30986W        W94710   6.850  10.204   9.996
30987W        W94711   1.823  22.743  14.412
30988W        W94712  37.380  40.511   0.340
30989W        W94713  10.350  37.456   1.292
30990W        W94714   1.460  40.836   2.749
30991W        W94715  12.830   0.294   0.302
30992W        W94716  17.614  28.462  12.432
30993W        W94717  23.198  29.020   0.261
30994W        W94718  12.631   6.680  11.424
30995W        W94719   3.359   9.799   4.338
30996W        W94720   0.845  31.122  14.760
30997W        W94721   1.932  44.322   5.193
30998W        W94722  33.603  34.470  13.522
30999W        W94723  42.331  12.159   2.312
31000W        W94724   8.843  27.485  11.105
31001W        W94725  24.119  37.952  14.935
31002W        W94726  14.116   4.261  10.970
31003W        W94727  43.506  12.348  14.299
31004W        W94728  32.126  14.318  13.386
31005W        W94729   3.918  18.684   4.722
31006W        W94730   9.265  25.180   2.416
31007W        W94731  36.520  31.588  11.974
31008W        W94732  41.464  28.977   3.750
31009W        W94733  16.732  40.048  11.555
31010W        W94734  27.191  23.690  14.453
31011W        W94735   5.780  33.120   0.823
31012W        W94736  36.388   4.308  14.457
31013W        W94737  21.579  37.024  11.053
31014W        W94738  34.979  10.650  12.975
31015W        W94739  16.611  29.606   1.317
31016W        W94740   7.208  28.015   4.154
31017W        W94741   0.754  41.371   3.314
31018W        W94742  27.161  38.339   3.343
31019W        W94743  26.136  12.180  10.602
31020W        W94744  17.659   8.753   3.209
31021W        W94745  27.680  42.420  12.074
31022W        W94746   1.359  28.677  11.049
31023W        W94747  30.595  42.958  10.564
31024W        W94748  17.234  25.218  10.589
31025W        W94749   4.222   3.727   0.346
31026W        W94750  30.633  32.077   4.766
31027W        W94751  20.567  29.588   2.229
31028W        W94752  40.398  41.031   3.387
31029W        W94753  33.928  25.025  12.886
31030W        W94754  20.555   2.306   3.156
31031W        W94755   5.373  31.026   2.738
31032W        W94756   6.299   3.310   4.677
31033W        W94757   7.755   2.379   0.449
31034W        W94758  21.232  42.997   0.437
31035W        W94759   6.353  44.973   4.611
31036W        W94760  43.421  41.379   0.804
31037W        W94761  42.891   6.201   3.716
31038W        W94762  33.026  18.293  10.418
31039W        W94763  39.004  32.575   4.267
31040W        W94764  10.659  39.914   0.294
31041W        W94765  36.080  21.692   1.855
31042W        W94766   4.748   1.276   1.797
31043W        W94767  15.608  27.449  13.038
31044W        W94768  19.041   9.373   0.827
31045W        W94769  42.803  41.911   3.239
31046W        W94770  28.548   3.334   0.745
31047W        W94771   3.745  24.980   4.680
31048W        W94772  16.094  36.024   5.188
31049W        W94773  14.687   7.294   5.089
31050W        W94774   6.411  34.973  11.979
31051W        W94775   7.810  11.853   3.723
31052W        W94776   2.275  14.730   2.669
31053W        W94777  40.429  29.520   2.391
31054W        W94778  13.235  30.001  10.982
31055W        W94779  43.766  12.201  10.423
31056W        W94780  15.796  16.793  10.058
31057W        W94781   4.401  35.971  13.907
31058W        W94782  10.790  13.341  13.022
31059W        W94783  18.208  11.158  10.538
31060W        W94784  22.550   4.229  14.868
31061W        W94785  18.679  37.076  11.031
31062W        W94786  36.514  28.600   2.753
31063W        W94787  40.534  24.184  11.412
31064W        W94788  41.897   0.380  11.022
31065W        W94789  19.537   9.213  13.016
31066W        W94790  29.564  39.365   1.739
31067W        W94791  17.625  17.248  14.933
31068W        W94792  35.589  21.186   4.187
31069W        W94793   2.799  18.072   2.178
31070W        W94794   4.365   0.910  14.456
31071W        W94795  38.860  13.601   4.170
31072W        W94796  37.013  29.013  11.949
31073W        W94797   3.356   6.833  14.324
31074W        W94798  42.300  28.589   3.305
31075W        W94799  26.593  33.020  13.388
31076W        W94800  40.486  29.498   3.352
31077W        W94801   1.789  22.586  11.046
31078W        W94802  27.473  38.552  13.545
31079W        W94803   0.314  11.348   4.710
31080W        W94804  31.005  25.218   1.365
31081W        W94805   7.274  15.269   4.153
31082W        W94806  14.194  39.491  14.770
31083W        W94807  39.809  19.089   3.692
31084W        W94808  42.972  32.975   4.119
31085W        W94809  30.629   5.756  13.971
31086W        W94810   3.398   0.492   2.313
31087W        W94811  15.190   5.784   3.311
31088W        W94812  37.392  27.627  11.013
31089W        W94813   0.806  28.097  10.501
31090W        W94814   5.258   7.403   0.431
31091W        W94815  35.891  33.939   0.944
31092W        W94816  15.186  27.038   3.186
31093W        W94817   3.856  42.029  13.520
31094W        W94818  28.494   2.365   4.231
31095W        W94819  41.901  20.626   3.200
31096W        W94820   8.292  28.069  11.383
31097W        W94821  40.860  23.533   1.879
31098W        W94822  44.949  28.441  11.083
31099W        W94823  19.719  20.178  11.011
31100W        W94824   2.316  39.882   0.882
31101W        W94825   1.424  16.091  14.937
31102W        W94826  23.600   6.316  14.005
31103W        W94827  17.299  27.104  11.480
31104W        W94828   0.383  16.680  12.014
31105W        W94829   2.794   6.194  12.914
31106W        W94830   1.411  17.575  11.974
31107W        W94831  18.707   3.235   2.212
31108W        W94832  20.585  34.910   4.132
31109W        W94833   0.275   4.886  12.359
31110W        W94834  43.974  28.074  14.885
31111W        W94835  24.125   3.714  11.509
31112W        W94836  16.583  18.212  14.897
31113W        W94837  21.125  31.483  14.466
31114W        W94838  14.183   0.753  14.855
31115W        W94839   4.397  14.235  11.605
31116W        W94840  19.124  42.792   0.884
31117W        W94841  38.035  17.190   0.851
31118W        W94842   9.793  31.530  12.841
31119W        W94843  35.937  28.607   0.906
31120W        W94844  30.602  28.587   0.924
31121W        W94845   9.369  35.883   1.711
31122W        W94846  11.291  42.989   1.289
31123W        W94847  34.437  36.919   2.725
31124W        W94848  35.549  17.768  12.956
31125W        W94849  22.169  33.887  10.926
31126W        W94850   9.856  19.678   2.792
31127W        W94851  43.914  13.742   0.475
31128W        W94852  34.980  24.622  12.414
31129W        W94853  29.023  40.386  14.439
31130W        W94854   4.262   1.479   2.707
31131W        W94855  14.121   4.274  12.382
31132W        W94856  17.250  19.673   1.784
31133W        W94857   2.931  11.260   2.672
31134W        W94858  14.275  28.482  10.509
31135W        W94859  36.976  42.985   4.180
31136W        W94860   5.323   7.820   1.302
31137W        W94861  10.254  17.627   4.161
31138W        W94862  24.589  10.239   4.222
31139W        W94863  36.844  13.805   3.356
31140W        W94864  30.986   5.893  11.915
31141W        W94865  21.189  32.566   3.661
31142W        W94866   4.749  10.721  13.401
31143W        W94867  13.271  39.850   3.723
31144W        W94868  25.023  39.517  14.991
31145W        W94869  32.597  30.510  11.545
31146W        W94870   9.332   9.863  14.421
31147W        W94871   1.738  24.568   1.819
31148W        W94872  27.978   5.865  10.617
31149W        W94873  19.040  24.713   1.435
31150W        W94874  36.514  14.166  13.990
31151W        W94875  29.622  39.451  11.550
31152W        W94876   4.776  39.952   2.863
31153W        W94877  23.544   7.749  12.556
31154W        W94878  13.295  30.101  11.926
31155W        W94879  18.672  37.065   3.376
31156W        W94880  30.007  29.058   4.647
31157W        W94881  39.339  15.201  10.918
31158W        W94882  35.996  40.994  11.947
31159W        W94883  43.019  10.832   4.347
31160W        W94884   6.811  44.346   1.332
31161W        W94885   7.351  24.590  14.809
31162W        W94886  12.228  30.084  14.986
31163W        W94887  20.566  16.745  14.318
31164W        W94888  31.010  27.657   0.903
31165W        W94889   9.162  13.832  13.325
31166W        W94890   6.215  19.743   3.353
31167W        W94891  41.532  30.132   4.647
31168W        W94892  26.164  43.989   0.784
31169W        W94893  28.128  11.670   3.340
31170W        W94894  26.520  21.241   2.729
31171W        W94895  17.232   0.744  13.921
31172W        W94896  18.679  27.948   4.793
31173W        W94897  40.979  37.076   3.371
31174W        W94898  34.098  23.543  10.456
31175W        W94899   4.284  33.960  14.017
31176W        W94900  17.231  29.599   5.272
31177W        W94901  26.695  35.990   2.334
31178W        W94902  34.614  16.674  13.928
31179W        W94903   0.386  41.796  12.858
31180W        W94904  36.974  36.854   0.282
31181W        W94905  32.560  28.486   0.402
31182W        W94906  31.041  19.565   0.904
31183W        W94907  15.774   2.420  10.486
31184W        W94908  35.375  21.549   3.163
31185W        W94909  14.630   8.372   0.468
31186W        W94910   4.701  22.231  10.980
31187W        W94911   0.931  39.459   0.388
31188W        W94912  10.677  22.742  14.986
31189W        W94913   0.911  28.976   2.212
31190W        W94914  17.662  32.124   1.443
31191W        W94915  43.477  37.910   1.398
31192W        W94916   9.207   2.355  13.827
31193W        W94917   9.192  24.591  12.524
31194W        W94918   2.885   1.317  14.328
31195W        W94919  16.171  12.267  10.894
31196W        W94920  30.457  28.949   2.298
31197W        W94921   7.881  30.413   2.674
31198W        W94922  41.299  13.153  14.319
31199W        W94923  43.932  19.730   1.802
31200W        W94924   9.293  37.901  10.471
31201W        W94925   1.271  28.930  13.490
31202W        W94926   9.232   5.355   4.753
31203W        W94927  28.625   9.230   3.350
31204W        W94928  17.746  25.201  11.092
31205W        W94929  30.916  42.914  12.014
31206W        W94930   6.907  38.892   3.668
31207W        W94931  17.173  40.053   4.316
31208W        W94932  44.387  17.198  14.432
31209W        W94933  30.014  10.333  11.097
31210W        W94934   3.225  28.964  13.039
31211W        W94935   6.407  20.223   4.134
31212W        W94936  39.040   2.242   4.120
31213W        W94937   5.771  32.634  14.879
31214W        W94938   9.682  16.751   2.826
31215W        W94939  12.334  42.031   0.934
31216W        W94940  39.849   2.271  10.986
31217W        W94941  21.169  11.356  10.140
31218W        W94942  34.973  34.612   1.257
31219W        W94943  21.205  37.341  11.503
31220W        W94944  23.527  32.560  10.506
31221W        W94945  32.546  20.669   0.827
31222W        W94946  21.255   1.896  13.965
31223W        W94947  38.036  12.140  14.852
31224W        W94948  14.334  12.346  14.018
31225W        W94949   3.816   5.797  10.446
31226W        W94950  43.326  22.106   1.322
31227W        W94951  30.110  37.496   2.307
31228W        W94952  15.680  31.142   5.256
31229W        W94953   3.884  29.463   3.852
31230W        W94954  15.297  41.005   1.331
31231W        W94955  17.735   1.954  14.827
31232W        W94956  27.536  37.975   2.246
31233W        W94957  18.720  38.938  12.969
31234W        W94958  41.899   8.275  11.871
31235W        W94959  30.505  22.545   0.730
31236W        W94960  20.041  42.909  12.994
31237W        W94961  39.423  33.965  11.461
31238W        W94962  24.226   5.810   2.853
31239W        W94963  40.497   6.336   1.230
31240W        W94964  39.055  11.656  13.961
31241W        W94965   9.861  43.375   0.731
31242W        W94966   4.215   6.913  13.902
31243W        W94967  26.534  28.947   1.251
31244W        W94968  30.005  24.085  10.902
31245W        W94969  18.620  38.431   1.396
31246W        W94970   8.676  14.263  10.572
31247W        W94971  44.366   3.416  13.356
31248W        W94972  44.377  37.543   0.280
31249W        W94973   1.303  27.047   4.764
31250W        W94974  20.601  39.922  13.894
31251W        W94975  12.287  33.888   3.152
31252W        W94976  20.047   0.798  11.120
31253W        W94977   0.783   5.713  14.952
31254W        W94978  32.088  24.985  12.003
31255W        W94979  39.950  19.264   1.434
31256W        W94980   5.689  29.946  13.375
31257W        W94981   3.220  35.364  12.402
31258W        W94982  17.255   0.477   1.877
31259W        W94983   5.343  36.021  12.563
31260W        W94984  34.407  35.939   1.272
31261W        W94985  14.164   9.797  12.934
31262W        W94986   8.710  16.793   3.674
31263W        W94987  33.950  44.448   4.202
31264W        W94988  16.217   5.279  14.915
31265W        W94989  20.567  24.511   1.255
31266W        W94990  15.577  16.300  13.519
31267W        W94991   9.183   3.393   2.674
31268W        W94992  12.125  13.139  10.610
31269W        W94993  12.696  10.701   0.257
31270W        W94994  33.591  37.977  14.946
31271W        W94995  11.674  43.985  11.607
31272W        W94996   8.697  22.672  14.838
31273W        W94997   3.398  23.075  12.925
31274W        W94998   4.412  19.246   0.481
31275W        W94999  43.481   6.295  12.890
31276W        W95000  14.257  31.992  10.604
31277W        W95001   2.255  15.597   2.234
31278W        W95002  32.991  11.753   1.326
31279W        W95003  22.204   2.231   0.369
31280W        W95004   5.432  16.151   4.122
31281W        W95005  44.420  28.467   3.723
31282W        W95006  15.659   7.211  10.969
31283W        W95007  26.110  21.612  10.489
31284W        W95008  10.702  18.632  12.561
31285W        W95009   0.345  42.383   4.803
31286W        W95010  14.200   3.950   1.760
31287W        W95011  34.398   9.870  12.835
31288W        W95012  26.079  23.514   4.236
31289W        W95013  28.075  44.486  14.484
31290W        W95014  36.876  29.660   1.736
31291W        W95015  41.799  13.221  11.532
31292W        W95016  44.881  31.625  10.984
31293W        W95017  35.071   0.447   3.856
31294W        W95018  32.548  38.380  12.847
31295W        W95019  30.423  11.130   1.320
31296W        W95020   0.252   2.886   1.334
31297W        W95021  15.670   9.170  11.538
31298W        W95022  22.610  25.994  11.589
31299W        W95023   8.849  19.059  14.785
31300W        W95024  20.598  42.953  13.857
31301W        W95025  29.148  13.142   1.916
31302W        W95026  29.143   6.795   4.178
31303W        W95027  25.594   1.776  11.587
31304W        W95028   7.724  39.912   3.182
31305W        W95029  17.095  34.513   1.298
31306W        W95030  39.046  20.266  10.443
31307W        W95031   2.356   5.387   0.819
31308W        W95032  39.451  11.774  12.951
31309W        W95033  24.676  22.103   4.352
31310W        W95034  33.529  11.358   0.352
31311W        W95035   5.817  41.509   1.830
31312W        W95036  27.689  42.402  11.128
31313W        W95037  44.006  10.325  10.099
31314W        W95038   5.843  21.660   3.183
31315W        W95039  40.043  29.981   4.797
31316W        W95040  25.144  30.586  14.796
31317W        W95041  26.655  31.645   4.270
31318W        W95042  22.036  44.276   2.762
31319W        W95043  19.774  11.710   1.274
31320W        W95044  39.345  17.787  11.914
31321W        W95045  20.648  28.477   3.726
31322W        W95046  13.789  17.103   3.740
31323W        W95047  10.199  15.211  11.007
31324W        W95048  42.299  17.775   4.723
31325W        W95049  21.700  43.309  13.483
31326W        W95050  38.349  12.832   3.192
31327W        W95051  15.700  32.535  13.054
31328W        W95052  10.194  38.426   0.459
31329W        W95053   7.667  27.563   1.217
31330W        W95054  37.852   7.735  14.980
31331W        W95055  13.648   4.267   4.339
31332W        W95056   2.872  14.665  11.568
31333W        W95057  26.564  35.954   0.318
31334W        W95058  19.575  10.171  13.975
31335W        W95059  32.453   4.372  14.979
31336W        W95060  37.463  43.347  13.797
31337W        W95061   0.481   4.366   3.384
31338W        W95062  16.594  23.574  11.534
31339W        W95063  25.985   1.873  10.428
31340W        W95064   8.320  14.628   2.748
31341W        W95065  37.993  20.762  14.339
31342W        W95066   1.378  19.122   0.277
31343W        W95067  43.809  40.971   1.749
31344W        W95068  17.616  14.254  11.121
31345W        W95069  35.988  35.946   0.740
31346W        W95070   7.315   8.812   3.688
31347W        W95071   3.364  40.371  13.532
31348W        W95072  14.652  22.731  11.118
31349W        W95073  19.586  25.549  13.828
31350W        W95074  18.623  26.116  13.504
31351W        W95075  26.685   7.376   5.304
31352W        W95076  17.779   3.456  11.910
31353W        W95077  34.998  28.592   0.392
31354W        W95078   1.826   0.475   3.863
31355W        W95079  13.688  36.855  14.922
31356W        W95080  32.135  27.026   2.183
31357W        W95081   5.210  17.675   0.438
31358W        W95082   0.906  28.665   2.689
31359W        W95083  25.558  34.950   2.777
31360W        W95084  19.692  30.458  13.907
31361W        W95085  20.672   5.781   4.783
31362W        W95086  23.086   5.383   4.688
31363W        W95087  33.024  23.046   3.671
31364W        W95088  22.507  41.292   0.731
31365W        W95089   9.192  11.695  11.089
31366W        W95090  30.145  44.777   1.900
31367W        W95091  40.358  31.434   3.375
31368W        W95092  23.553  35.359  13.483
31369W        W95093  38.947  32.576  13.377
31370W        W95094   2.878  15.280   4.770
31371W        W95095   1.964   9.699   0.431
31372W        W95096  13.671  40.548  10.552
31373W        W95097  44.901   0.419  11.978
31374W        W95098   3.907  36.055   3.848
31375W        W95099  37.886   5.733   3.645
31376W        W95100  30.574  37.041  10.429
31377W        W95101  42.488   9.777  12.524
31378W        W95102   0.286  42.800  11.391
31379W        W95103   0.487  38.527   2.395
31380W        W95104  33.547  40.907  14.785
31381W        W95105  19.590   4.808   3.701
31382W        W95106   7.178   7.377   4.180
31383W        W95107  14.832   3.921   2.301
31384W        W95108  18.169   5.927   2.767
31385W        W95109  12.215  21.228  13.003
31386W        W95110  19.084  20.661   1.774
31387W        W95111  16.628   5.818   1.300
31388W        W95112  44.899   0.979   0.301
31389W        W95113   4.259  19.681  12.897
31390W        W95114  31.439  22.104  10.483
31391W        W95115  10.670  40.361   1.223
31392W        W95116  38.007  31.046  12.873
31393W        W95117  18.204  39.944   0.811
31394W        W95118  36.850   5.261   4.142
31395W        W95119  44.799  16.782   2.325
31396W        W95120  12.248  25.151   3.833
31397W        W95121  20.765  35.962   1.763
31398W        W95122   9.839  40.404  11.032
31399W        W95123  42.460  26.494  13.482
31400W        W95124  28.445  10.337   0.303
31401W        W95125  42.833   8.290  11.031
31402W        W95126  36.551   5.692   2.264
31403W        W95127  25.705  44.823  10.583
31404W        W95128  16.154   3.873  13.921
31405W        W95129  24.527  39.483   4.729
31406W        W95130  37.346   9.721  14.977
31407W        W95131  28.520  28.972   1.443
31408W        W95132  11.736  35.511  13.924
31409W        W95133  41.812   6.404   3.360
31410W        W95134  23.638  15.165  12.938
31411W        W95135  25.130  11.772   4.693
31412W        W95136  13.169   0.821  14.823
31413W        W95137  24.615   2.454  11.485
31414W        W95138  33.565  31.946  14.458
31415W        W95139  27.107   9.369   3.334
31416W        W95140   2.393  30.420  13.963
31417W        W95141  27.512  36.356   2.340
31418W        W95142   4.434  35.489  12.449
31419W        W95143  26.156   2.318  14.275
31420W        W95144  21.752  33.007  11.450
31421W        W95145  26.180  22.044  14.920
31422W        W95146   9.243  18.691   2.819
31423W        W95147   4.226  23.718  13.988
31424W        W95148  23.021  43.938   3.156
31425W        W95149  20.130   7.409   0.880
31426W        W95150  30.486  35.374  13.508
31427W        W95151  38.502  31.954   0.950
31428W        W95152  13.662  25.139   0.302
31429W        W95153   6.354  19.566   2.880
31430W        W95154  10.851  25.551  10.596
31431W        W95155  32.911  37.964   4.269
31432W        W95156  14.268  11.641   4.662
31433W        W95157  40.877  28.460   2.383
31434W        W95158  30.456  22.008  10.567
31435W        W95159  36.978  18.773  13.982
31436W        W95160  25.498  37.068  14.457
31437W        W95161  18.575  18.093  13.042
31438W        W95162  35.883   0.834   2.662
31439W        W95163  16.225   7.285   4.696
31440W        W95164  44.419  15.612   4.607
31441W        W95165  10.354   4.730  10.494
31442W        W95166   1.904  33.095   0.453
31443W        W95167  26.116  21.682   0.910
31444W        W95168  44.284   9.258   0.447
31445W        W95169  11.693  23.218   1.392
31446W        W95170  34.573  32.974  13.423
31447W        W95171  10.875  43.972  12.015
31448W        W95172  14.609  27.127   4.141
31449W        W95173  40.872   2.726   3.384
31450W        W95174   0.764   4.942   2.343
31451W        W95175  23.735  16.219   1.705
31452W        W95176  21.139   6.311  13.965
31453W        W95177  35.867  18.704  14.356
31454W        W95178  41.461  24.563  14.948
31455W        W95179  40.539  43.326   1.896
31456W        W95180  44.947  26.147   1.345
31457W        W95181  36.346  16.593   5.235
31458W        W95182   0.930  14.218   0.952
31459W        W95183   9.713   0.754   3.343
31460W        W95184   8.245  20.734   1.229
31461W        W95185  16.146  29.607  13.055
31462W        W95186  37.874  38.422  13.398
31463W        W95187   0.483  31.559  14.012
31464W        W95188  20.609   1.483  13.367
31465W        W95189  16.667   8.818  13.330
31466W        W95190   1.853  19.631  12.003
31467W        W95191  20.542  39.551  14.293
31468W        W95192  24.496   6.711   1.388
31469W        W95193  33.883  32.141  13.354
31470W        W95194  38.522  17.194  13.871
31471W        W95195  24.679  43.454   0.800
31472W        W95196  14.247  28.166   1.350
31473W        W95197  44.755  29.471   1.265
31474W        W95198  32.054  16.287   1.332
31475W        W95199  10.358  41.895  14.963
31476W        W95200  31.903  14.752   1.905
31477W        W95201  21.121  37.839  13.462
31478W        W95202   8.663  12.658   4.340
31479W        W95203  34.041  10.213  14.319
31480W        W95204  26.483  33.482  14.326
31481W        W95205  23.735   4.323  12.945
31482W        W95206  15.243  24.564   4.747
31483W        W95207   9.282   9.316   3.807
31484W        W95208  17.115  41.794   4.649
31485W        W95209  26.961  13.307   3.285
31486W        W95210  11.218  25.216  14.367
31487W        W95211  33.527  44.835  14.426
31488W        W95212  16.121   9.244   1.429
31489W        W95213  33.379  15.728   9.921
31490W        W95214  18.733   8.386  14.276
31491W        W95215  30.110   7.675   0.849
31492W        W95216  38.898  25.508   2.843
31493W        W95217  15.581  32.503  11.129
31494W        W95218  35.409  43.406   0.250
31495W        W95219  16.657  32.549  11.021
31496W        W95220  11.833  22.170  10.627
31497W        W95221  31.932  26.964  14.022
31498W        W95222   6.360   0.298   4.288
31499W        W95223   4.872  17.278   2.306
31500W        W95224  12.195   1.275   4.191
31501W        W95225   3.403  14.797   1.367
31502W        W95226  17.252   7.409   0.758
31503W        W95227  24.172  16.681   0.315
31504W        W95228   0.806   7.821  13.992
31505W        W95229  34.932   0.792  12.877
31506W        W95230  25.109  10.876  11.509
31507W        W95231  33.947  12.690   3.149
31508W        W95232   6.419  27.975   2.796
31509W        W95233  27.039  41.786   0.414
31510W        W95234  10.707  43.498   0.249
31511W        W95235  38.417  39.020   0.440
31512W        W95236  26.206  37.001   2.220
31513W        W95237  21.141  22.199   1.235
31514W        W95238  11.661  25.984  13.973
31515W        W95239  32.034  33.471  13.946
31516W        W95240  11.754  33.431   1.354
31517W        W95241  25.702  29.032   0.800
31518W        W95242  40.435  20.184   0.819
31519W        W95243  16.285  42.845   0.847
31520W        W95244   1.469  18.133  10.899
31521W        W95245  26.591  24.131  14.962
31522W        W95246   5.346   1.847  11.902
31523W        W95247   4.327   6.889   3.301
31524W        W95248  18.076  23.169   0.457
31525W        W95249   9.762  41.973   4.774
31526W        W95250  10.260   8.297   3.692
31527W        W95251  32.104  39.400   2.390
31528W        W95252  13.766  36.551  11.499
31529W        W95253  34.569   2.466   4.707
31530W        W95254  30.589  31.073   2.736
31531W        W95255  17.097  26.506   0.882
31532W        W95256   3.830   5.720   0.392
31533W        W95257  14.125  36.059  11.602
31534W        W95258  12.707   4.795  13.452
31535W        W95259  30.469  35.499  14.277
31536W        W95260  10.200   8.710  14.507
31537W        W95261  21.103   6.732  12.065
31538W        W95262  23.141  30.141   1.393
31539W        W95263  31.912   0.482  12.476
31540W        W95264   3.937  36.986  11.900
31541W        W95265   8.784  29.037  12.974
31542W        W95266  36.361  23.081  11.526
31543W        W95267  19.140  36.925   1.804
31544W        W95268  35.926  12.217  14.839
31545W        W95269  39.388  25.016  14.403
31546W        W95270  35.904  23.022   4.775
31547W        W95271  39.493  40.919   0.797
31548W        W95272  32.444  21.112   2.842
31549W        W95273   7.710   0.761   5.164
31550W        W95274  29.989  30.605  11.419
31551W        W95275  10.799  36.497   0.869
31552W        W95276  30.427  22.046  14.376
31553W        W95277  13.712   6.725   4.176
31554W        W95278  22.571  26.461   0.844
31555W        W95279  25.696   6.699   0.451
31556W        W95280  35.026  21.736   3.212
31557W        W95281  37.348  43.917   5.103
31558W        W95282  11.708   6.424   4.636
31559W        W95283  40.327  11.304   2.391
31560W        W95284  42.346   0.766   0.304
31561W        W95285  17.650  13.150   4.740
31562W        W95286   0.757  28.582   3.676
31563W        W95287  34.511  36.035  11.936
31564W        W95288  22.597  26.500  13.448
31565W        W95289  30.100  35.422  13.891
31566W        W95290  15.268  40.832  11.914
31567W        W95291  23.730  26.492  10.931
31568W        W95292  33.886  14.751  14.424
31569W        W95293   4.807   8.218   3.223
31570W        W95294  26.579  17.141  12.992
31571W        W95295   7.410  17.643   4.600
31572W        W95296  38.890  12.305  11.948
31573W        W95297  22.008   9.872  13.345
31574W        W95298  17.188  44.418   1.855
31575W        W95299  17.066   3.228  12.436
31576W        W95300  30.009  19.601   1.368
31577W        W95301  33.400  23.675  11.016
31578W        W95302  10.309  43.940   5.167
31579W        W95303   1.967  32.419   2.830
31580W        W95304  13.818  22.041  11.373
31581W        W95305  20.156  33.880   3.711
31582W        W95306  23.579  38.042  14.907
31583W        W95307  20.270   3.767   1.320
31584W        W95308  32.524  43.876  11.078
31585W        W95309  12.157  23.136  14.352
31586W        W95310   0.974  29.955   4.763
31587W        W95311  16.734  33.476   0.354
31588W        W95312  23.528  32.917   1.210
31589W        W95313  39.016  27.108   2.812
31590W        W95314  37.560  11.319  10.930
31591W        W95315  43.420  25.658  13.962
31592W        W95316  32.051  23.118   1.719
31593W        W95317  29.003  30.490   2.699
31594W        W95318  35.036  26.056  12.974
31595W        W95319  39.045  19.066   5.300
31596W        W95320  22.523  30.597   4.162
31597W        W95321  25.533  41.462  12.055
31598W        W95322  26.517  34.896   4.737
31599W        W95323   6.272   8.769   0.284
31600W        W95324  38.492  13.173  13.896
31601W        W95325  17.714  17.611  12.455
31602W        W95326  42.783  40.988  12.450
31603W        W95327  25.148   2.287  13.502
31604W        W95328  27.627   4.429   2.318
31605W        W95329   4.717  15.316   0.944
31606W        W95330   2.462  24.565  12.940
31607W        W95331   3.440   3.940   2.219
31608W        W95332  17.715  29.538  13.060
31609W        W95333  41.482  42.427  12.079
31610W        W95334  29.942  32.417   2.418
31611W        W95335  22.618  35.933  11.583
31612W        W95336  33.620  26.984  13.795
31613W        W95337  12.253  44.503   2.805
31614W        W95338   2.792  35.893   3.775
31615W        W95339  13.230  31.411  10.460
31616W        W95340  20.698  41.853   0.268
31617W        W95341  23.998  27.136  12.475
31618W        W95342  29.492  22.140  13.913
31619W        W95343  26.531  17.087  13.816
31620W        W95344   9.786  27.088  12.453
31621W        W95345  31.903   1.836   2.780
31622W        W95346  15.624  44.802  14.506
31623W        W95347  40.862  18.571   4.689
31624W        W95348  13.134  11.260   1.898
31625W        W95349   7.818  36.420  12.510
31626W        W95350  30.937  18.576   2.879
31627W        W95351   6.276  43.335   3.260
31628W        W95352   5.846  14.158  11.890
31629W        W95353  35.441   7.836   1.393
31630W        W95354  20.217  10.637   2.702
31631W        W95355  21.611  30.637   1.768
31632W        W95356   3.797  15.620  12.373
31633W        W95357  39.556  13.324   1.726
31634W        W95358  30.417   5.802   3.744
31635W        W95359  21.642  29.456  14.869
31636W        W95360  15.092  43.857  11.421
31637W        W95361  13.105   5.931  13.851
31638W        W95362  16.639  25.972  12.527
31639W        W95363  35.410  26.122   2.376
31640W        W95364  30.925   2.319  13.541
31641W        W95365  13.155   8.747  11.905
31642W        W95366  40.025  30.508  12.990
31643W        W95367  18.144  18.163  12.080
31644W        W95368  16.245  37.475  11.054
31645W        W95369  33.951  32.397   1.418
31646W        W95370  19.648  25.187   0.811
31647W        W95371  11.153  16.629   0.930
31648W        W95372  37.888  32.062  13.499
31649W        W95373  23.517  26.652  12.431
31650W        W95374  13.135   7.208   4.306
31651W        W95375  31.502  21.046  10.922
31652W        W95376   5.801  17.304   1.838
31653W        W95377   7.795   6.706   4.239
31654W        W95378   3.383  34.375   1.218
31655W        W95379  40.375  41.500   2.380
31656W        W95380  34.957  15.720   2.238
31657W        W95381  37.863  32.951   3.374
31658W        W95382  22.014  41.381  11.999
31659W        W95383  44.443  41.508  14.914
31660W        W95384  37.992  23.714  13.856
31661W        W95385  17.247  21.638   2.236
31662W        W95386  18.545  22.540  14.006
31663W        W95387   0.882   3.759  11.489
31664W        W95388  31.536  42.005  11.607
31665W        W95389  20.551  33.471  14.958
31666W        W95390   7.837   6.272   1.927
31667W        W95391  42.299  21.590  11.520
31668W        W95392  32.921  27.525   1.451
31669W        W95393  27.583   0.881   4.641
31670W        W95394  17.785  37.896   0.313
31671W        W95395   3.812  43.961   2.185
31672W        W95396   9.749  44.435   2.886
31673W        W95397  18.759   9.211   3.219
31674W        W95398  42.031  41.803  14.328
31675W        W95399  44.957  18.285   1.315
31676W        W95400  40.015   3.923   2.271
31677W        W95401  20.652  27.139  14.500
31678W        W95402  26.044  39.812   4.222
31679W        W95403  17.109  13.774  14.934
31680W        W95404  34.945  44.941   2.708
31681W        W95405  38.072  11.150   2.721
31682W        W95406  17.187  16.731  14.442
31683W        W95407  17.170  15.145  12.398
31684W        W95408  41.917  37.539   4.745
31685W        W95409  33.442  15.646  10.426
31686W        W95410  27.150   0.934   3.265
31687W        W95411  39.551  35.486  11.500
31688W        W95412  42.853  26.178   1.784
31689W        W95413  19.189   0.815   4.329
31690W        W95414  44.295   8.282   3.370
31691W        W95415  33.063  24.615  10.430
31692W        W95416  40.881  15.728   3.732
31693W        W95417   1.340  27.506   3.303
31694W        W95418   8.772  16.284   0.936
31695W        W95419   9.285  41.486  12.395
31696W        W95420  31.627  11.796  13.835
31697W        W95421  41.301  30.086   3.757
31698W        W95422   7.696  12.762   1.359
31699W        W95423  44.300  18.255   1.255
31700W        W95424  41.814   6.208   9.972
31701W        W95425  16.580  43.439  11.001
31702W        W95426  24.160  39.862  12.456
31703W        W95427  44.873   4.417  14.909
31704W        W95428  13.617   8.171   2.218
31705W        W95429  38.849  13.648  10.090
31706W        W95430   2.908  24.590   4.788
31707W        W95431   6.690  26.074   2.817
31708W        W95432   9.331  28.486  12.862
31709W        W95433  19.707  32.063   1.240
31710W        W95434  35.066  33.003   4.763
31711W        W95435  37.429  41.941   3.184
31712W        W95436  21.609   3.917   4.164
31713W        W95437  18.213  10.192   4.837
31714W        W95438   1.785  41.520   3.257
31715W        W95439  31.412  41.349   0.812
31716W        W95440  21.239   0.970   1.788
31717W        W95441   6.195  37.972   4.264
31718W        W95442  15.805  22.677   0.751
31719W        W95443  37.062  27.543   4.712
31720W        W95444  20.234  38.362   1.377
31721W        W95445  43.358  12.756   1.274
31722W        W95446  30.974  13.181   2.841
31723W        W95447  39.989   7.848   3.682
31724W        W95448  15.239   4.819  14.308
31725W        W95449  44.967  33.473  12.567
31726W        W95450  11.789   3.301  14.966
31727W        W95451  22.515   8.870   0.954
31728W        W95452  18.658   8.866   0.949
31729W        W95453  11.295  36.591  10.623
31730W        W95454  36.004   6.751  13.496
31731W        W95455  33.941  18.173  14.497
31732W        W95456  32.620  44.469  11.531
31733W        W95457  36.506  18.557   5.169
31734W        W95458  25.629  20.157   0.258
31735W        W95459  22.126  24.978   3.345
31736W        W95460  11.745  13.335  14.761
31737W        W95461  30.097  12.253  13.821
31738W        W95462   0.494  11.250  13.973
31739W        W95463  24.513   6.762  14.803
31740W        W95464  25.033   6.771  10.519
31741W        W95465  32.096  31.431   4.805
31742W        W95466  40.869  27.134   4.701
31743W        W95467   0.930  20.122  14.302
31744W        W95468  44.260   2.756  13.864
31745W        W95469  33.945  32.915   0.397
31746W        W95470  35.375  16.172   0.259
31747W        W95471  41.970  39.910  10.564
31748W        W95472  24.715  21.657  12.836
31749W        W95473  11.841   4.936  10.462
31750W        W95474  42.289  12.263   1.707
31751W        W95475  17.659  21.707   2.853
31752W        W95476   6.264  15.617  12.520
31753W        W95477  17.578   8.227  10.433
31754W        W95478  44.967  20.220   2.793
31755W        W95479   9.202  11.308  11.958
31756W        W95480  19.765   8.245   2.293
31757W        W95481   8.811   1.295   0.379
31758W        W95482   6.387  37.377  14.896
31759W        W95483  35.602  14.207  11.535
31760W        W95484   8.377  20.620   0.307
31761W        W95485   9.247  30.988   2.792
31762W        W95486  33.966  40.472  13.951
31763W        W95487   8.221  14.335   4.349
31764W        W95488  28.992   8.203  11.444
31765W        W95489   5.848   8.693  14.400
31766W        W95490   7.881  28.935  13.912
31767W        W95491  38.406  11.130   4.237
31768W        W95492  16.646  35.078  14.318
31769W        W95493   4.784  11.271   0.880
31770W        W95494  27.607  36.057  11.120
31771W        W95495  36.847  29.059   3.777
31772W        W95496  18.762   2.351  12.920
31773W        W95497  22.200  32.581   0.285
31774W        W95498  44.308  34.920   4.351
31775W        W95499  36.876  23.048   1.927
31776W        W95500  32.130  24.591   2.340
31777W        W95501   1.875   0.781   5.135
31778W        W95502  36.371   1.935   4.771
31779W        W95503   1.406  31.461  14.410
31780W        W95504  21.594  16.807  11.120
31781W        W95505  26.056  20.572   0.418
31782W        W95506  29.430  44.421  13.384
31783W        W95507  14.647  23.726   3.828
31784W        W95508  15.263  40.538  14.869
31785W        W95509  39.381  40.366   3.246
31786W        W95510  42.386  31.911   2.709
31787W        W95511  39.986  44.978   4.140
31788W        W95512   3.759  29.565   3.363
31789W        W95513  25.197  17.718   0.860
31790W        W95514   4.917  27.193   3.313
31791W        W95515  15.763  43.374  14.474
31792W        W95516  26.079  36.849   4.292
31793W        W95517  34.956  10.161   5.186
31794W        W95518  43.474   4.934  11.594
31795W        W95519  10.185   2.266  13.940
31796W        W95520  19.092  41.007   9.598
31797W        W95521  31.954  37.912  12.365
31798W        W95522  15.606  30.105   0.414
31799W        W95523  33.126  26.507  11.407
31800W        W95524  42.461   3.221   2.719
31801W        W95525  23.069   3.814  13.804
31802W        W95526  19.210  34.949  12.988
31803W        W95527   2.425  25.583   3.331
31804W        W95528  37.022  35.057  13.311
31805W        W95529  15.106  20.141  11.042
31806W        W95530  18.251   5.421  12.035
31807W        W95531  39.939  18.194  14.381
31808W        W95532   4.829  39.549  13.441
31809W        W95533  31.014  24.068   1.438
31810W        W95534   1.960  34.983  13.799
31811W        W95535  16.084  31.435   0.954
31812W        W95536  17.091  40.956  14.358
31813W        W95537  24.629  20.188  12.554
31814W        W95538  22.551  27.482   3.279
31815W        W95539   9.212   0.388   1.277
31816W        W95540  11.833  43.816   2.691
31817W        W95541  14.777  27.619   0.737
31818W        W95542  11.766  15.677  14.421
31819W        W95543   1.397  30.943  13.017
31820W        W95544  11.724  25.087   4.808
31821W        W95545   1.737  37.356   1.357
31822W        W95546  37.885   6.722  10.515
31823W        W95547  21.025  11.793  10.441
31824W        W95548   8.657  12.349  11.978
31825W        W95549   6.414  35.018   1.741
31826W        W95550  27.659  23.631   4.227
31827W        W95551  37.463  32.535  12.824
31828W        W95552  23.065  32.056   3.673
31829W        W95553  15.147  24.047   1.418
31830W        W95554  28.057   1.781   2.390
31831W        W95555  40.803  29.049   1.403
31832W        W95556   4.281   8.194  12.035
31833W        W95557  21.539  43.771  13.410
31834W        W95558   0.355  31.529  11.553
31835W        W95559  35.567  22.115  10.514
31836W        W95560   6.276  38.550   3.280
31837W        W95561  29.070   6.323  12.503
31838W        W95562   2.233   4.939   2.809
31839W        W95563  30.052  11.744  12.377
31840W        W95564  15.795  17.090   0.439
31841W        W95565  23.539   1.394   4.693
31842W        W95566  10.681   5.256  14.371
31843W        W95567  39.927  34.374   4.167
31844W        W95568   8.782  13.600  14.029
31845W        W95569  36.908  13.656  11.954
31846W        W95570  21.179  29.540  12.395
31847W        W95571  31.560   8.791   0.922
31848W        W95572  35.524  14.297  13.895
31849W        W95573  16.123  44.768  13.419
31850W        W95574  26.143  27.527  12.494
31851W        W95575   5.336  11.364   4.290
31852W        W95576   6.298   4.800   0.922
31853W        W95577  16.750  19.668   4.699
31854W        W95578   4.794  17.204   0.732
31855W        W95579   8.390  29.622  14.805
31856W        W95580   7.370   2.801   2.772
31857W        W95581  12.188   8.723   4.608
31858W        W95582  35.405   8.798   5.279
31859W        W95583  12.663  11.142  13.442
31860W        W95584  17.560   1.330  12.064
31861W        W95585  34.606  27.601   3.159
31862W        W95586  36.410  27.165  13.893
31863W        W95587   4.930  29.614   3.281
31864W        W95588  16.702  20.078   4.354
31865W        W95589   3.873  44.481   1.895
31866W        W95590  38.945  32.924   3.183
31867W        W95591  15.108   8.215  11.124
31868W        W95592  31.064   7.171   0.893
31869W        W95593  27.685  21.593   3.841
31870W        W95594  41.519   8.721  13.328
31871W        W95595  37.935  43.004   3.186
31872W        W95596  43.296  41.449   3.848
31873W        W95597  28.078   7.867  12.926
31874W        W95598  19.232  25.551  14.327
31875W        W95599  19.167  43.863   2.210
31876W        W95600  20.175  30.422  12.880
31877W        W95601  29.550   6.369  12.977
31878W        W95602  38.889  29.954   3.159
31879W        W95603  41.954   8.710   2.399
31880W        W95604  34.428  38.514  12.980
31881W        W95605   5.422  32.474   3.757
31882W        W95606  34.103   4.782  11.016
31883W        W95607   4.700  39.874  10.580
31884W        W95608  15.729  36.425  11.439
31885W        W95609  40.042  34.072   0.929
31886W        W95610  41.978   4.822  12.913
31887W        W95611  19.148  41.972  14.416
31888W        W95612  19.604  20.756  10.608
31889W        W95613  23.617  24.668  12.024
31890W        W95614  21.565  36.083  11.562
31891W        W95615   4.704  35.104  13.912
31892W        W95616   2.268  41.487  12.578
31893W        W95617  35.561  24.560   4.151
31894W        W95618  38.494  43.339  11.025
31895W        W95619  11.644  33.442  12.551
31896W        W95620  28.664   3.454   3.237
31897W        W95621   2.325  35.476  12.577
31898W        W95622  40.464  29.074   2.349
31899W        W95623  32.938  22.081  10.619
31900W        W95624  36.997  18.734   3.272
31901W        W95625   5.363  34.931  12.890
31902W        W95626  26.478  19.616  11.400
31903W        W95627  30.994  42.336  11.993
31904W        W95628  23.048  32.544   2.218
31905W        W95629   8.280  28.502  10.501
31906W        W95630   2.891  15.158   3.865
31907W        W95631  42.844   6.769   0.939
31908W        W95632   9.253   5.759  12.978
31909W        W95633  26.633  41.840   3.173
31910W        W95634  40.014  42.805  12.352
31911W        W95635  37.533  27.673  12.494
31912W        W95636  33.441  25.706  14.985
31913W        W95637  10.159   8.898  10.988
31914W        W95638  24.661  37.355   1.832
31915W        W95639  43.356  41.858  14.417
31916W        W95640  27.082   1.949   4.346
31917W        W95641  22.035   3.766   0.263
31918W        W95642  17.196   5.332   5.308
31919W        W95643  13.113  18.724  12.378
31920W        W95644  20.676  16.080  11.448
31921W        W95645  19.656  22.241   4.200
31922W        W95646   0.469  22.010   3.726
31923W        W95647   3.296  22.196  14.896
31924W        W95648  17.205  20.075   4.756
31925W        W95649  38.508  34.454   1.730
31926W        W95650  10.679  41.465   5.088
31927W        W95651  38.853   7.869  13.310
31928W        W95652  28.949  12.812  14.767
31929W        W95653  28.964  40.506   2.375
31930W        W95654   5.436  30.542   0.405
31931W        W95655  44.298  44.428  12.019
31932W        W95656  31.021  42.891  12.878
31933W        W95657   4.447  40.935  12.521
31934W        W95658  19.158   5.788   4.254
31935W        W95659  40.943   3.757  13.883
31936W        W95660   0.354  19.565  13.904
31937W        W95661  26.205  26.009   1.444
31938W        W95662  24.681   6.875  12.347
31939W        W95663  19.751  31.138   5.279
31940W        W95664  12.329  38.014  13.873
31941W        W95665  32.973  25.975   1.780
31942W        W95666  11.677  19.701   1.745
31943W        W95667  21.227  18.240  13.052
31944W        W95668  38.992  15.211   2.347
31945W        W95669  14.336  14.834  13.480
31946W        W95670  35.507  19.234  11.550
31947W        W95671   7.757  36.368   2.860
31948W        W95672  28.456   3.882   0.826
31949W        W95673   8.250  39.321   4.649
31950W        W95674  35.477   7.403   2.333
31951W        W95675   2.333  30.011   4.343
31952W        W95676  33.444  13.107   0.919
31953W        W95677  34.028  31.133  13.912
31954W        W95678  44.468  21.672   2.189
31955W        W95679   1.266   3.364   1.332
31956W        W95680  34.595  32.583   1.423
31957W        W95681  29.598  33.442   2.366
31958W        W95682  32.542  14.785   4.251
31959W        W95683   4.769  38.958   5.086
31960W        W95684  31.501  37.349   3.674
31961W        W95685   5.309  36.524  14.390
31962W        W95686  15.588  10.837  12.074
31963W        W95687  17.303  10.747  11.451
31964W        W95688  11.309  18.199  14.445
31965W        W95689  32.895  23.617  12.398
31966W        W95690  32.464  26.037   0.895
31967W        W95691   1.854  41.515   0.944
31968W        W95692  21.132   4.795   4.133
31969W        W95693  28.981  24.711   3.723
31970W        W95694  25.697  27.021   0.427
31971W        W95695  24.024  25.116  14.466
31972W        W95696   2.834  23.211   0.763
31973W        W95697  39.049  12.245  14.934
31974W        W95698  19.587  23.510   1.381
31975W        W95699  23.126  35.981  10.425
31976W        W95700  35.577  12.288  14.455
31977W        W95701  14.333  22.055   4.778
31978W        W95702  19.688  35.900  12.040
31979W        W95703   4.827   9.261   5.286
31980W        W95704  16.732  23.197   2.709
31981W        W95705  19.221  37.397   0.896
31982W        W95706  34.466  23.618   0.830
31983W        W95707  11.827  19.121   0.306
31984W        W95708  40.380   2.966  12.346
31985W        W95709  27.979   7.859  14.349
31986W        W95710  20.690  11.271   0.418
31987W        W95711  28.104   2.820  10.575
31988W        W95712  33.431  28.476  13.476
31989W        W95713  42.879  35.435  13.837
31990W        W95714  13.339   3.317   3.823
31991W        W95715  32.391  37.499   3.858
31992W        W95716  38.471  18.145   3.187
31993W        W95717  37.479  42.434  13.455
31994W        W95718  21.183  36.855  12.352
31995W        W95719  33.592  29.467  10.084
31996W        W95720  40.044  29.602  10.948
31997W        W95721  31.017  15.087  13.440
31998W        W95722  38.537  42.875  12.387
31999W        W95723  16.807  26.539  12.916
32000W        W95724  17.218  43.492  14.434
32001W        W95725  27.941  31.068  13.884
32002W        W95726  42.837  12.654  13.015
32003W        W95727  21.030  30.442   1.221
32004W        W95728  33.976  15.769  11.519
32005W        W95729   6.832  42.892  10.502
32006W        W95730  26.053  12.168   1.246
32007W        W95731  27.006  21.540  14.018
32008W        W95732  14.220  34.956  12.561
32009W        W95733  29.050  27.596  12.881
32010W        W95734  21.606  13.820   2.850
32011W        W95735  10.769   1.349  11.112
32012W        W95736  33.874  28.614  14.391
32013W        W95737  34.987  17.175  10.953
32014W        W95738  41.991  13.115  10.618
32015W        W95739  15.737   3.355   0.433
32016W        W95740  31.449   7.282  11.923
32017W        W95741  14.302  41.992   1.234
32018W        W95742  34.512  33.966   2.368
32019W        W95743  33.931   6.887  11.116
32020W        W95744  41.310  16.807   0.247
32021W        W95745   9.732  42.776   0.408
32022W        W95746   5.816  38.906  12.003
32023W        W95747  39.440  42.791   4.211
32024W        W95748  28.440  43.878  12.979
32025W        W95749  31.638   3.720   1.730
32026W        W95750   8.235  43.995  12.377
32027W        W95751  13.175  36.864   0.294
32028W        W95752   2.408   8.657   5.139
32029W        W95753  43.984  41.823  14.479
32030W        W95754   4.388  24.522   3.668
32031W        W95755  41.479  39.995   2.283
32032W        W95756  29.125  20.249  11.452
32033W        W95757  40.331  34.471  14.961
32034W        W95758  17.732   1.850   2.729
32035W        W95759  20.183  33.963  14.774
32036W        W95760  29.565  23.491  11.977
32037W        W95761   9.152  28.587  14.275
32038W        W95762  31.920  35.865  10.506
32039W        W95763  10.647  36.528   1.433
32040W        W95764  36.432   0.823   4.754
32041W        W95765  15.293  18.053  12.344
32042W        W95766   6.777   8.806   4.287
32043W        W95767  18.609  36.053  13.365
32044W        W95768  42.484  41.829  10.006
32045W        W95769  13.664  31.045  12.029
32046W        W95770  18.739   7.894   0.378
32047W        W95771  35.874   0.256  12.571
32048W        W95772  18.244  23.679  13.876
32049W        W95773  38.946  16.197  12.474
32050W        W95774  16.241  22.675  14.831
32051W        W95775  43.017  17.187   0.450
32052W        W95776   2.756  34.970  12.948
32053W        W95777   8.314  30.022   0.921
32054W        W95778  41.373   5.917   3.286
32055W        W95779  16.586  42.345  10.509
32056W        W95780   6.260  26.979  13.329
32057W        W95781  43.936  10.170   3.691
32058W        W95782  44.489  33.503   0.244
32059W        W95783  27.975  34.477  11.488
32060W        W95784  36.978  44.413   5.250
32061W        W95785  35.891  33.520  12.543
32062W        W95786  20.146  32.610   4.771
32063W        W95787  14.336  30.079  14.463
32064W        W95788  19.626  29.004   4.742
32065W        W95789  12.246  22.174  12.849
32066W        W95790  28.930  22.213  11.109
32067W        W95791   7.383  24.536   4.323
32068W        W95792  30.492   3.928   3.843
32069W        W95793  43.274   0.841  13.900
32070W        W95794  12.284  42.447  12.906
32071W        W95795  38.906  34.454   4.304
32072W        W95796  29.451  44.370  12.905
32073W        W95797  28.104  32.104  12.523
32074W        W95798  22.565  30.042  12.990
32075W        W95799  35.853  24.584   4.263
32076W        W95800  11.361  26.583  10.109
32077W        W95801  19.704  40.014  12.439
32078W        W95802  34.436  34.379  13.830
32079W        W95803   2.325  24.613  12.418
32080W        W95804  31.915   4.354  13.516
32081W        W95805  20.737  39.920   1.238
32082W        W95806   6.848  34.413  12.496
32083W        W95807  12.152   0.280  14.451
32084W        W95808  13.195  40.854  10.976
32085W        W95809  14.769  15.790   1.819
32086W        W95810  38.985  19.718   2.801
32087W        W95811   3.838  27.072   1.853
32088W        W95812  28.673  39.529  10.471
32089W        W95813  30.001  15.192  13.825
32090W        W95814  11.296   8.655  12.458
32091W        W95815  37.415  12.718   4.213
32092W        W95816   1.757  38.828   0.448
32093W        W95817  30.907  25.989   2.193
32094W        W95818   0.988  36.529  14.301
32095W        W95819  25.086  20.765   2.804
32096W        W95820  22.706   9.366   3.288
32097W        W95821   4.858  21.604   1.246
32098W        W95822  44.921  33.951  11.510
32099W        W95823  43.981  42.513  13.014
32100W        W95824   1.248   9.686  13.807
32101W        W95825  43.821  29.638  13.974
32102W        W95826  42.825   4.362  11.434
32103W        W95827  38.936   9.166  11.540
32104W        W95828  19.231  25.072   1.877
32105W        W95829  24.124  28.986   2.791
32106W        W95830  34.436  37.581  11.477
32107W        W95831  14.253  15.309  13.008
32108W        W95832  36.399  15.148  14.793
32109W        W95833   8.734   3.909   2.844
32110W        W95834  25.488  27.448  14.352
32111W        W95835  39.517  12.134  10.479
32112W        W95836   6.708   9.372   2.822
32113W        W95837  32.401  11.829   9.970
32114W        W95838  44.491   2.431  13.307
32115W        W95839  40.345  19.640   4.805
32116W        W95840  29.623  31.968  12.019
32117W        W95841  25.201  21.683   1.778
32118W        W95842  10.767  26.973  12.941
32119W        W95843  44.379  21.722  13.517
32120W        W95844  36.015   2.772  13.442
32121W        W95845   2.403  13.228   1.420
32122W        W95846  12.638  20.263  10.494
32123W        W95847  31.456  42.909   9.958
32124W        W95848  16.606  39.919  14.391
32125W        W95849   6.188   8.817  13.988
32126W        W95850  37.417  38.565   2.227
32127W        W95851  18.696  29.443   1.322
32128W        W95852  10.363  14.256  11.062
32129W        W95853  28.034  22.698  12.078
32130W        W95854  14.656  18.235   0.764
32131W        W95855  21.040   4.211  11.110
32132W        W95856   4.899  39.979  10.137
32133W        W95857  23.064  26.649   1.348
32134W        W95858  42.845  24.648   1.820
32135W        W95859  16.238  38.910  13.375
32136W        W95860  36.466  39.421  12.342
32137W        W95861  15.606  27.189  10.960
32138W        W95862  21.090  40.835   1.825
32139W        W95863  43.381  14.259  14.911
32140W        W95864   8.284  30.039   1.899
32141W        W95865   7.190   2.438  12.544
32142W        W95866  30.109   6.283  12.951
32143W        W95867  35.569  40.954   3.865
32144W        W95868  12.352   2.330  11.426
32145W        W95869  20.736  17.626  12.884
32146W        W95870  25.094  36.467   2.723
32147W        W95871  42.957   8.361   2.387
32148W        W95872  19.574   8.324  13.821
32149W        W95873  12.722  32.421   0.890
32150W        W95874  31.913  27.194   0.775
32151W        W95875   4.349  26.619   0.847
32152W        W95876  34.090  20.700  14.445
32153W        W95877   1.798  15.752  10.570
32154W        W95878  33.546  36.059  11.031
32155W        W95879   8.266  43.998   1.211
32156W        W95880  40.484  22.044  10.415
32157W        W95881   3.768  12.195  13.400
32158W        W95882  22.541  19.641   4.666
32159W        W95883  41.342  32.506  10.967
32160W        W95884  17.770  35.552  12.895
32161W        W95885  17.266  22.215   2.709
32162W        W95886   8.364  14.686  14.880
32163W        W95887   0.272  43.279  11.912
32164W        W95888   1.392   6.686  11.414
32165W        W95889   9.878  20.199  11.546
32166W        W95890  41.482  30.947   3.280
32167W        W95891  18.161  40.991  13.030
32168W        W95892   8.371   9.778   3.819
32169W        W95893  13.297  43.995   2.359
32170W        W95894  37.962  30.413   4.826
32171W        W95895  17.619  18.265  12.845
32172W        W95896  22.129  40.810   2.754
32173W        W95897   0.479  35.585  14.822
32174W        W95898   0.408   1.845  11.932
32175W        W95899   8.256  24.682   0.403
32176W        W95900   6.779  37.514   4.307
32177W        W95901  34.911   9.773   3.270
32178W        W95902  28.988  24.078   0.960
32179W        W95903  11.778  39.341   4.669
32180W        W95904  10.776  16.286   4.304
32181W        W95905  13.806  11.716   4.312
32182W        W95906  32.101  43.371   1.364
32183W        W95907  16.206  41.463   3.333
32184W        W95908  12.695  38.531   0.439
32185W        W95909   4.781   4.391  13.975
32186W        W95910   1.249  37.852   4.801
32187W        W95911  18.290  12.670   2.739
32188W        W95912  39.907  44.919   3.254
32189W        W95913  44.989   4.317   0.345
32190W        W95914  37.580   5.709  11.129
32191W        W95915  44.343   0.452  13.803
32192W        W95916   3.824   1.241   3.168
32193W        W95917  36.445  40.996   2.200
32194W        W95918  15.189   3.354   1.399
32195W        W95919   8.382  38.013  10.439
32196W        W95920  35.464  42.509   1.319
32197W        W95921  14.699  16.718   4.636
32198W        W95922  25.671  10.379   1.769
32199W        W95923  23.164  11.622   1.291
32200W        W95924  17.093  13.844   0.899
32201W        W95925   4.791   3.815  13.839
32202W        W95926  40.000   1.757  12.516
32203W        W95927   3.460  32.627   4.834
32204W        W95928   7.399  22.716   2.834
32205W        W95929  11.224  17.292   1.899
32206W        W95930  41.860  14.666   1.413
32207W        W95931  28.952  19.751   0.799
32208W        W95932  38.072  21.682  12.084
32209W        W95933  24.574  43.897   4.122
32210W        W95934  17.690  21.135  10.567
32211W        W95935   6.198  29.999  14.509
32212W        W95936   1.741  35.600  12.493
32213W        W95937  34.095  17.080  12.020
32214W        W95938   8.696  38.489  13.861
32215W        W95939  44.937  33.623   0.304
32216W        W95940   6.886  39.928  13.056
32217W        W95941  24.130  33.900  11.929
32218W        W95942  24.528   7.285  14.968
32219W        W95943  29.556  21.201   4.298
32220W        W95944  40.471  29.513   0.478
32221W        W95945   2.940  32.997  14.978
32222W        W95946  23.029  31.608  12.949
32223W        W95947  13.200  21.101   4.754
32224W        W95948  22.999  26.541  13.497
32225W        W95949   2.953  12.193   0.374
32226W        W95950  39.867  30.478   1.772
32227W        W95951   4.410  14.828  13.896
32228W        W95952  27.969  35.068  14.281
32229W        W95953  33.594  13.245  12.393
32230W        W95954  30.097  12.845   2.696
32231W        W95955  33.001  12.774   0.333
32232W        W95956  19.534  28.583  10.626
32233W        W95957   7.174  17.148  14.411
32234W        W95958  44.859  43.944  12.341
32235W        W95959  44.823   8.315  11.947
32236W        W95960  17.686  20.171   2.696
32237W        W95961   6.263  18.220   5.109
32238W        W95962  41.456   9.820   1.430
32239W        W95963  18.274  27.500   1.335
32240W        W95964  43.791   9.654   1.910
32241W        W95965  43.915  26.167  12.412
32242W        W95966  20.241  14.596   0.247
32243W        W95967   5.871  19.251   3.233
32244W        W95968  12.191  26.681   4.772
32245W        W95969  37.861   7.881   0.479
32246W        W95970  22.544  23.052   4.223
32247W        W95971  25.078   9.785   5.756
32248W        W95972  14.151  13.220   2.360
32249W        W95973  26.000  13.255  13.925
32250W        W95974  39.986  41.468  14.026
32251W        W95975  12.133   4.377  12.487
32252W        W95976  14.142  43.295   3.150
32253W        W95977  26.125  18.276   2.261
32254W        W95978  39.830   0.774   5.317
32255W        W95979  42.842  26.148  14.280
32256W        W95980  22.565  10.316  12.922
32257W        W95981  23.985  16.170  13.370
32258W        W95982  24.720  41.377  11.029
32259W        W95983   1.918  42.378   2.381
32260W        W95984  31.594   0.362  14.959
32261W        W95985  24.718  27.600   2.880
32262W        W95986   8.668  41.794   3.302
32263W        W95987  15.784  15.598  14.478
32264W        W95988   2.891  11.176   3.746
32265W        W95989   5.221   1.374  14.776
32266W        W95990   1.733   7.414   4.668
32267W        W95991  39.999  44.897   3.746
32268W        W95992  43.875   4.801   2.372
32269W        W95993  11.670  30.161  13.310
32270W        W95994   0.848   5.389  13.822
32271W        W95995   3.239  36.399   0.268
32272W        W95996  14.802   7.857  12.855
32273W        W95997  30.100  42.509  11.952
32274W        W95998   6.900  31.106   0.785
32275W        W95999   1.411  10.187  14.852
32276W        W96000   0.294   2.738   4.185
32277W        W96001   9.789   4.842  10.421
32278W        W96002   2.923  31.581   2.343
32279W        W96003  37.949   6.701  12.522
32280W        W96004  35.504   4.355   0.914
32281W        W96005   4.941  28.608   2.248
32282W        W96006  36.431   0.455  14.404
32283W        W96007  25.968  22.552  12.077
32284W        W96008  21.025  14.100  12.839
32285W        W96009   3.230   4.412   0.781
32286W        W96010  10.662  38.974  14.819
32287W        W96011  28.137  29.510  13.502
32288W        W96012  25.094  34.020   4.751
32289W        W96013  29.991   4.308   2.774
32290W        W96014  39.490  12.642   3.633
32291W        W96015  39.354   8.692   0.357
32292W        W96016  28.151  39.031  11.904
32293W        W96017   6.830  13.606  13.452
32294W        W96018  31.150  32.436   4.728
32295W        W96019  30.111  11.245  13.035
32296W        W96020  10.383  15.638  10.161
32297W        W96021  36.410  37.974   1.910
32298W        W96022  12.318   6.902  14.931
32299W        W96023   6.387   2.305  12.824
32300W        W96024  10.329   3.263  12.863
32301W        W96025  10.297   3.733  11.121
32302W        W96026  19.181  23.572   0.291
32303W        W96027  42.963  27.572   2.807
32304W        W96028  17.578  16.582   0.257
32305W        W96029  16.210  41.807  14.849
32306W        W96030   0.895  35.580  14.365
32307W        W96031  43.922   4.893  13.400
32308W        W96032  17.075  27.448   3.794
32309W        W96033   8.240  15.180  14.356
32310W        W96034  44.404  36.902  13.801
32311W        W96035   7.790  11.178  12.432
32312W        W96036   0.868  30.961  12.447
32313W        W96037  23.215  29.167  13.804
32314W        W96038  38.390  15.306  12.890
32315W        W96039  15.302  18.551  11.934
32316W        W96040  16.724  38.982   1.435
32317W        W96041  42.843   3.837  14.766
32318W        W96042  14.772  13.133   2.823
32319W        W96043  35.398  24.667  12.538
32320W        W96044  18.132  33.590   3.843
32321W        W96045  17.574  19.268   3.309
32322W        W96046  40.963  15.698  12.929
32323W        W96047   6.905  23.606   4.131
32324W        W96048  44.462  36.863  10.458
32325W        W96049   9.161  27.044  14.506
32326W        W96050  33.609   6.808   0.906
32327W        W96051  32.059  34.938   4.335
32328W        W96052  27.585   9.272   0.379
32329W        W96053  15.316  22.058  14.278
32330W        W96054   0.415  28.623  12.937
32331W        W96055  28.663  43.918   2.859
32332W        W96056  11.204  40.007   1.446
32333W        W96057   3.425  13.277   0.938
32334W        W96058   1.386  18.179  13.465
32335W        W96059   9.755  35.594  10.948
32336W        W96060  21.169  12.311   0.471
32337W        W96061   5.317  38.420  13.835
32338W        W96062  23.993  40.517   2.771
32339W        W96063  25.643   8.703   4.117
32340W        W96064  33.053  37.341   1.783
32341W        W96065  11.813  19.686  10.640
32342W        W96066   3.250  10.869   4.135
32343W        W96067  20.619  33.881   3.337
32344W        W96068  24.990  33.916  10.893
32345W        W96069  41.036  24.628  11.385
32346W        W96070  40.455  42.775   4.158
32347W        W96071   2.735  36.448   4.647
32348W        W96072  11.720  30.634   2.797
32349W        W96073  24.529   8.321  13.529
32350W        W96074  29.979   8.406   0.735
32351W        W96075  43.951  33.950   4.295
32352W        W96076  11.291   6.755  14.837
32353W        W96077  42.426  13.615  10.560
32354W        W96078   4.223  38.072  10.508
32355W        W96079  17.568  37.500   2.763
32356W        W96080  22.038   3.859  13.344
32357W        W96081  36.390   7.388   1.274
32358W        W96082  16.243  39.915   0.422
32359W        W96083  13.654   8.768   2.352
32360W        W96084  17.268  17.079  13.467
32361W        W96085  35.576  15.096  12.558
32362W        W96086   4.886  35.954   4.781
32363W        W96087  26.597  20.175  14.806
32364W        W96088  15.634  41.474  13.810
32365W        W96089  32.963   7.348   0.392
32366W        W96090  44.325  19.765   1.875
32367W        W96091  25.598  18.156   3.336
32368W        W96092  41.033  26.056   4.205
32369W        W96093  36.541  44.289   0.432
32370W        W96094  33.383   6.799  12.979
32371W        W96095  16.716  31.469   4.705
32372W        W96096   2.754  16.217  12.445
32373W        W96097  20.644  13.829   1.854
32374W        W96098  34.489   7.261  13.377
32375W        W96099  39.003  39.481   4.799
32376W        W96100  12.633  30.473   0.352
32377W        W96101  37.457  35.586  13.862
32378W        W96102  31.022  19.715  13.374
32379W        W96103  18.236  13.677  11.586
32380W        W96104  36.985  27.970   0.286
32381W        W96105  41.884  17.099  10.103
32382W        W96106  31.592  12.263  14.944
32383W        W96107  40.414  11.252  14.441
32384W        W96108   1.940   4.905   4.757
32385W        W96109  25.579  44.410   1.380
32386W        W96110  10.661  22.154   2.315
32387W        W96111  24.112  16.700  11.527
32388W        W96112  18.247  12.790  13.017
32389W        W96113  36.560   9.353   2.340
32390W        W96114  42.487  16.233  12.530
32391W        W96115   3.246  42.033   3.774
32392W        W96116  12.190  32.463  11.091
32393W        W96117  37.894  42.461  14.849
32394W        W96118  37.373  20.551  14.360
32395W        W96119  22.527   1.433  13.318
32396W        W96120  28.006  41.414   4.344
32397W        W96121  31.953  19.674   1.817
32398W        W96122  42.298  25.161   3.640
32399W        W96123  37.482  39.454   0.339
32400W        W96124  19.087  40.469  10.901
32401W        W96125  12.661   5.713   0.422
32402W        W96126  23.228  39.321  14.943
32403W        W96127  33.425  22.213  11.412
32404W        W96128  28.545  18.085  12.507
32405W        W96129  41.400   6.377  11.518
32406W        W96130  28.481  15.246  10.551
32407W        W96131  10.815  27.112   3.671
32408W        W96132  24.571  37.955  11.441
32409W        W96133  37.920  27.448   0.923
32410W        W96134  26.046  27.183   3.232
32411W        W96135  29.967  18.134  12.438
32412W        W96136  16.745  34.110  13.993
32413W        W96137  37.004   8.786   4.351
32414W        W96138   7.230  29.629  10.644
32415W        W96139  20.131   8.757   4.312
32416W        W96140  40.992   2.458  11.014
32417W        W96141  26.648  26.586  11.903
32418W        W96142  31.949  44.899   0.914
32419W        W96143   4.376  16.781   2.663
32420W        W96144   5.836  39.838  12.490
32421W        W96145  29.572  33.121   2.848
32422W        W96146  34.401  13.172   0.302
32423W        W96147  36.575  32.438  14.802
32424W        W96148   6.695  20.175   0.764
32425W        W96149   0.259  16.173  11.548
32426W        W96150   2.342   4.943  13.347
32427W        W96151   3.340  36.044   3.269
32428W        W96152  43.873  23.129   4.156
32429W        W96153  14.313  36.535  11.418
32430W        W96154   0.480  14.148  12.546
32431W        W96155  38.012  43.493   4.679
32432W        W96156  16.779   8.778   4.674
32433W        W96157  31.907  42.911   0.359
32434W        W96158  15.313  11.796   0.279
32435W        W96159  43.965  41.917  12.054
32436W        W96160  16.723   2.281   4.203
32437W        W96161   6.812   2.331   3.240
32438W        W96162  21.183  41.970   2.807
32439W        W96163  17.712  20.271   4.687
32440W        W96164  24.209   4.881   4.663
32441W        W96165  30.099  25.043   1.894
32442W        W96166  10.776  44.801  11.978
32443W        W96167  18.615   8.695  13.861
32444W        W96168   5.856   1.326   4.819
32445W        W96169  12.272  18.277  12.383
32446W        W96170  29.657  37.363  10.588
32447W        W96171   3.423  28.611  14.772
32448W        W96172  14.322  34.543   0.904
32449W        W96173  23.001  16.073   2.867
32450W        W96174  17.754   7.382   2.257
32451W        W96175   7.279  16.811   3.202
32452W        W96176  25.480  41.841   2.848
32453W        W96177  33.382  34.408   4.309
32454W        W96178  38.902  37.886  11.917
32455W        W96179  17.683  27.097  13.499
32456W        W96180  14.225   3.386   2.225
32457W        W96181  30.149  21.207  10.495
32458W        W96182   7.397  37.513  13.517
32459W        W96183   4.870  28.151   1.784
32460W        W96184   3.908  42.504  11.876
32461W        W96185  30.162   2.353   3.263
32462W        W96186  29.476   4.392   1.869
32463W        W96187   0.746  10.229   1.413
32464W        W96188   9.310   1.872   3.654
32465W        W96189  31.940  32.095   3.287
32466W        W96190  36.872   4.277   1.697
32467W        W96191  17.756   2.264  11.449
32468W        W96192  13.337   8.384  11.908
32469W        W96193  41.808  13.150  12.377
32470W        W96194  28.458  25.055  14.786
32471W        W96195  41.406   0.772  12.988
32472W        W96196   4.761   9.675  10.535
32473W        W96197  21.520  35.560   3.217
32474W        W96198  19.619   0.988   3.315
32475W        W96199  16.237  19.580  10.614
32476W        W96200   2.725  40.349  11.006
32477W        W96201  12.268   7.276  11.879
32478W        W96202  19.631   9.368   4.711
32479W        W96203  12.186  11.845  14.431
32480W        W96204  37.572  38.413  11.505
32481W        W96205  13.151   7.869   0.752
32482W        W96206  33.383  16.215  11.417
32483W        W96207  41.832  35.051   2.303
32484W        W96208   9.395  43.506   0.847
32485W        W96209  29.118  19.719   4.773
32486W        W96210  37.420  43.770  14.939
32487W        W96211  30.601  39.511  13.821
32488W        W96212  43.968  39.839   3.341
32489W        W96213  33.881  27.974   3.281
32490W        W96214  26.086  38.393   1.929
32491W        W96215  37.535  26.955   0.835
32492W        W96216  38.850  31.483  11.593
32493W        W96217  10.374  41.437  11.601
32494W        W96218   3.734  15.324  12.896
32495W        W96219  18.292  26.208   2.363
32496W        W96220  39.401   6.215   4.775
32497W        W96221  42.511   9.182   1.909
32498W        W96222  43.934   2.795  11.468
32499W        W96223  41.826  24.628  13.374
32500W        W96224   4.374  25.082   3.263
32501W        W96225  10.160  28.957   3.775
32502W        W96226   5.361  24.987  12.376
32503W        W96227  34.021   1.755   4.787
32504W        W96228  25.500   5.873   4.292
32505W        W96229   4.721   9.872  13.934
32506W        W96230  31.477   9.254  13.039
32507W        W96231   0.953   9.186  12.385
32508W        W96232  28.070   8.223  13.512
32509W        W96233  31.520  35.531  12.526
32510W        W96234  29.964  18.680   4.784
32511W        W96235  26.159  18.256   0.270
32512W        W96236  32.447   7.395  10.609
32513W        W96237  38.889  25.206   4.804
32514W        W96238  13.215  17.075   1.376
32515W        W96239  13.288  21.614   0.448
32516W        W96240  33.390  26.160  13.005
32517W        W96241  27.490  24.163   2.186
32518W        W96242  16.269  31.605  11.581
32519W        W96243   1.866   7.909  12.512
32520W        W96244  17.647  39.044   2.809
32521W        W96245  22.102  24.164  14.457
32522W        W96246  37.559  10.859   2.732
32523W        W96247  35.531  26.040  14.471
32524W        W96248  15.262  31.442   2.328
32525W        W96249  11.224   8.170  10.970
32526W        W96250  36.909   7.774   4.282
32527W        W96251   8.385  31.963   3.330
32528W        W96252  17.196  42.888   0.477
32529W        W96253   2.860   9.760  11.374
32530W        W96254  37.879   0.258  12.983
32531W        W96255  22.526  20.573   4.317
32532W        W96256  39.873  44.272   2.386
32533W        W96257  36.409  21.129   2.690
32534W        W96258  13.240  16.099  11.979
32535W        W96259  21.028  13.784  12.869
32536W        W96260  28.153  38.819   4.202
32537W        W96261  19.590  15.680  11.951
32538W        W96262   9.681  17.217  13.431
32539W        W96263  42.445  29.635  11.401
32540W        W96264  26.057  24.053   2.890
32541W        W96265  35.043  18.615  13.965
32542W        W96266  40.543  24.024   0.312
32543W        W96267  17.275   0.410  13.810
32544W        W96268  24.091  20.682   4.314
32545W        W96269  11.326  23.182  10.579
32546W        W96270  20.216   5.369  13.965
32547W        W96271  42.984  15.630  14.426
32548W        W96272  10.879  29.583  13.812
32549W        W96273   1.448  21.224   1.869
32550W        W96274  31.938  43.510  13.474
32551W        W96275  43.392  28.622   4.706
32552W        W96276  13.301  44.338   0.287
32553W        W96277  10.724  28.178  11.515
32554W        W96278  41.387   6.683   1.700
32555W        W96279  23.568   0.306  12.472
32556W        W96280   6.747   5.722   3.185
32557W        W96281  34.417  25.039  14.309
32558W        W96282   7.214  20.585  13.332
32559W        W96283  16.304  26.620  11.079
32560W        W96284  14.744  35.057   3.728
32561W        W96285  17.614  15.668   0.260
32562W        W96286   0.273  41.524  13.374
32563W        W96287  11.803  27.663   4.685
32564W        W96288  44.936  13.107   0.935
32565W        W96289  25.086  28.589   1.775
32566W        W96290   8.800   7.685  14.765
32567W        W96291  10.857  33.520  12.414
32568W        W96292  38.933   1.913   3.739
32569W        W96293  40.983   9.252   2.688
32570W        W96294  13.128   2.764  13.952
32571W        W96295  21.687   6.783   4.217
32572W        W96296  41.892   8.838   1.395
32573W        W96297  11.353  21.654  12.395
32574W        W96298   0.302  26.136   3.693
32575W        W96299  22.252  29.503   5.758
32576W        W96300   5.216  22.248   0.882
32577W        W96301  41.872   2.939   4.207
32578W        W96302  11.348  17.297   3.370
32579W        W96303  28.996  15.616  12.355
32580W        W96304  31.458  15.187  13.381
32581W        W96305   4.805  29.605   0.285
32582W        W96306  44.278  15.094   2.772
32583W        W96307   0.789   9.828   4.253
32584W        W96308  17.279  14.739   2.756
32585W        W96309   0.926  28.532   2.349
32586W        W96310   3.915  42.472  14.368
32587W        W96311  11.788  27.507   4.230
32588W        W96312  25.047   1.753   2.845
32589W        W96313  10.374   1.441   4.156
32590W        W96314   4.286  35.038  10.979
32591W        W96315   9.387  28.111  13.373
32592W        W96316  40.975  10.288   3.746
32593W        W96317  11.342   4.737   1.396
32594W        W96318   0.977   6.864  14.296
32595W        W96319  40.014  26.071   0.301
32596W        W96320   6.868  12.801   3.325
32597W        W96321  35.958  39.885   1.285
32598W        W96322  11.151  24.074  14.435
32599W        W96323  19.539  28.591   4.226
32600W        W96324   1.791  39.377   2.662
32601W        W96325  21.180  35.994   4.780
32602W        W96326   0.274  27.593  11.417
32603W        W96327  29.488  41.928   3.266
32604W        W96328  37.870  34.120  11.548
32605W        W96329  37.569  33.948   3.830
32606W        W96330  32.998  31.995   1.406
32607W        W96331  29.114  27.485  10.637
32608W        W96332  39.059  25.590   2.270
32609W        W96333  35.989   6.230   2.850
32610W        W96334   9.815  23.532  12.352
32611W        W96335  21.695  22.113   0.284
32612W        W96336  13.757  37.914  11.887
32613W        W96337  28.021  42.882   1.902
32614W        W96338  30.508   2.263   2.848
32615W        W96339   0.926   8.793   1.888
32616W        W96340  19.660  40.449  12.972
32617W        W96341  36.371  25.186   1.282
32618W        W96342  19.596  36.508  10.996
32619W        W96343  43.289  29.655  11.069
32620W        W96344  28.643  30.972  12.509
32621W        W96345  26.169  17.747   3.793
32622W        W96346  20.549  38.862   2.282
32623W        W96347  19.076  30.971   4.822
32624W        W96348   1.787  36.461  10.595
32625W        W96349  31.471  13.815  10.965
32626W        W96350  43.991  40.459   4.603
32627W        W96351   7.388  34.074   0.448
32628W        W96352  17.149  16.247   4.769
32629W        W96353   2.815  11.346   0.459
32630W        W96354  30.006  27.671   1.739
32631W        W96355  33.026  12.719  12.436
32632W        W96356  14.246  17.648   1.442
32633W        W96357  32.947   8.856  10.412
32634W        W96358  17.181  31.521   3.243
32635W        W96359   5.301  10.301  11.597
32636W        W96360  36.950  33.392  14.361
32637W        W96361  22.050   8.792   3.648
32638W        W96362  20.725  38.000   3.263
32639W        W96363  11.164  34.405   2.194
32640W        W96364  14.789  43.885   3.686
32641W        W96365   0.985  32.537   2.419
32642W        W96366   7.747   8.319  11.028
32643W        W96367  32.920  32.030   0.475
32644W        W96368  23.116  40.510   2.882
32645W        W96369  27.158  13.169   1.822
32646W        W96370  23.716   5.220   4.295
32647W        W96371  38.560  25.206   4.212
32648W        W96372  41.038  35.369   3.249
32649W        W96373   1.788  23.146  11.954
32650W        W96374  18.181   1.480  14.309
32651W        W96375   5.873  29.133  10.574
32652W        W96376   5.897   2.330  14.475
32653W        W96377  36.056  40.925   4.166
32654W        W96378  31.966  22.240   2.294
32655W        W96379  31.035  14.650   4.681
32656W        W96380   2.277  17.796  11.962
32657W        W96381   0.960  29.007   1.270
32658W        W96382  26.139  34.976   0.362
32659W        W96383   9.848  30.604   3.850
32660W        W96384  15.797  19.104   3.173
32661W        W96385  10.790  44.401  13.915
32662W        W96386  11.646  28.053   4.126
32663W        W96387   4.399  35.534   0.388
32664W        W96388  21.094  44.337   1.317
32665W        W96389  27.082   2.779   4.194
32666W        W96390  41.809  44.485  10.571
32667W        W96391  42.032  22.589  14.360
32668W        W96392  20.561  35.603   1.329
32669W        W96393  44.772  20.749   4.661
32670W        W96394  18.564   0.956  12.998
32671W        W96395   8.219  36.453  11.593
32672W        W96396  10.251  25.549   4.139
32673W        W96397  44.895  37.451   2.232
32674W        W96398  40.488  13.189   1.762
32675W        W96399  12.672   4.331  11.515
32676W        W96400  31.923   2.232   1.365
32677W        W96401  14.687  12.670   2.802
32678W        W96402  23.152  12.362   1.422
32679W        W96403  36.867  41.021   1.932
32680W        W96404  43.944   5.269   1.385
32681W        W96405  34.492  11.802  10.913
32682W        W96406  38.521  11.649  10.536
32683W        W96407  35.080  40.924  12.877
32684W        W96408   8.223   3.338  14.371
32685W        W96409   8.295  39.980  10.449
32686W        W96410   9.395   1.298  14.414
32687W        W96411  32.957  41.332   3.289
32688W        W96412   1.323  14.697  11.396
32689W        W96413  28.594  44.974   4.222
32690W        W96414  20.586  36.018   2.354
32691W        W96415  14.805   7.347   3.678
32692W        W96416  29.665   6.380   0.348
32693W        W96417  32.935  41.807   2.253
32694W        W96418  19.641  12.228   3.866
32695W        W96419  15.695  43.474   4.721
32696W        W96420   1.743   2.809  10.631
32697W        W96421  21.252   5.271  12.912
32698W        W96422  25.504  43.445   2.755
32699W        W96423  35.580  42.828   4.166
32700W        W96424  27.635  13.150  10.448
32701W        W96425  43.007   1.243   1.251
32702W        W96426  30.425  42.999   2.239
32703W        W96427  28.163  30.462   5.189
32704W        W96428   0.882  32.580  11.975
32705W        W96429  27.652  44.804  11.387
32706W        W96430  14.272  33.457  12.376
32707W        W96431  42.987  18.261   1.261
32708W        W96432  31.417  37.544  11.990
32709W        W96433   1.757  31.904   0.475
32710W        W96434  10.142  19.254   3.815
32711W        W96435  33.887  12.201  14.790
32712W        W96436  40.477  32.493   4.299
32713W        W96437   6.771   4.286  13.522
32714W        W96438  24.678  41.798  13.370
32715W        W96439  19.280  39.520  13.845
32716W        W96440   2.231  15.127   3.288
32717W        W96441   4.432  10.840  14.987
32718W        W96442  43.325  29.941  14.278
32719W        W96443  39.827   8.298  13.064
32720W        W96444  21.576  30.955  11.124
32721W        W96445  43.892  23.610  13.011
32722W        W96446   9.839  12.795   1.742
32723W        W96447  39.064   8.898   1.442
32724W        W96448  15.264  39.869   2.339
32725W        W96449  27.663  14.212   4.299
32726W        W96450   7.808  43.888   3.159
32727W        W96451  17.116  34.057   4.223
32728W        W96452  23.125   3.406  12.440
32729W        W96453  33.597  18.151   0.370
32730W        W96454  42.824  38.331  12.432
32731W        W96455  19.626  37.881   5.285
32732W        W96456  21.603  35.543   2.897
32733W        W96457  27.139   8.866   0.745
32734W        W96458  11.801  22.698  10.156
32735W        W96459  36.963   3.810   0.855
32736W        W96460  36.976   5.811  11.535
32737W        W96461  32.055  10.156   0.847
32738W        W96462  26.056  22.533  13.983
32739W        W96463  11.743  19.219  10.515
32740W        W96464  17.172   7.867  14.284
32741W        W96465  28.475   5.330   1.893
32742W        W96466  43.818  16.570   4.255
32743W        W96467   8.208  36.482   2.348
32744W        W96468  32.984  10.634   2.410
32745W        W96469  44.945  17.224  12.541
32746W        W96470   7.239  14.731   4.298
32747W        W96471  34.459  21.656   0.857
32748W        W96472   7.726  27.521  13.382
32749W        W96473  24.137  41.395  12.966
32750W        W96474  17.643  29.084  11.480
32751W        W96475  14.222  30.069   0.483
32752W        W96476  28.610  19.224   0.880
32753W        W96477  33.497  29.446   4.756
32754W        W96478  42.853   4.705   4.341
32755W        W96479   2.893  43.334   3.734
32756W        W96480   3.319   0.783   3.232
32757W        W96481  20.602   6.704  10.913
32758W        W96482  14.270  29.936   2.296
32759W        W96483  37.908   0.277   2.896
32760W        W96484  31.921  44.325   5.179
32761W        W96485  36.566   7.787   1.393
32762W        W96486  10.312  33.932   2.407
32763W        W96487  40.864  27.464  13.921
32764W        W96488  23.585  44.762  10.970
32765W        W96489  10.675  33.965  10.549
32766W        W96490   2.957  31.938   1.343
32767W        W96491   5.875  11.775   1.719
32768W        W96492  13.105   3.724   0.349
32769W        W96493   9.154  12.271  12.847
32770W        W96494  22.232  35.047  11.945
32771W        W96495  25.676  37.355   3.646
32772W        W96496  23.172   6.801  14.775
32773W        W96497  20.745  32.437   3.681
32774W        W96498  16.233  42.362   4.305
32775W        W96499  34.512  18.580  11.856
32776W        W96500  32.101  24.163  12.404
32777W        W96501  23.059   6.794   1.294
32778W        W96502  40.974  36.049   0.442
32779W        W96503  34.928  30.501  14.789
32780W        W96504  23.073  40.822   2.289
32781W        W96505  26.038  22.135   3.375
32782W        W96506  10.211  41.944   4.289
32783W        W96507  43.011  10.783  13.319
32784W        W96508  41.533   7.356  14.381
32785W        W96509  15.249  40.865   2.788
32786W        W96510  25.574  35.415   1.267
32787W        W96511   6.345  17.644   0.845
32788W        W96512  20.738  13.693   4.224
32789W        W96513  33.598   9.219   0.291
32790W        W96514  15.106  24.979  11.982
32791W        W96515  11.681  13.190  14.449
32792W        W96516  39.357  26.634   3.684
32793W        W96517  35.392  44.346  13.404
32794W        W96518  25.708   6.896  13.030
32795W        W96519  31.465  16.115   0.861
32796W        W96520  39.370  20.260  14.504
32797W        W96521   2.269   8.760  10.061
32798W        W96522  12.288   0.954  12.049
32799W        W96523   2.949  26.198  12.340
32800W        W96524  40.508  44.301   4.742
32801W        W96525  15.110   0.327   2.762
32802W        W96526  42.961  15.701   5.302
32803W        W96527  15.626  42.824   4.680
32804W        W96528  34.886   0.250  11.455
32805W        W96529  19.271   7.392  10.939
32806W        W96530   9.831   3.922   3.332
32807W        W96531  31.472  18.732   0.767
32808W        W96532  31.014  24.656  12.502
32809W        W96533   8.241  32.141  11.544
32810W        W96534  31.444  39.060  13.060
32811W        W96535  10.664  27.528   1.695
32812W        W96536  11.861  41.990  14.483
32813W        W96537  32.546  31.640  11.588
32814W        W96538  40.509  21.535  13.545
32815W        W96539   8.663  22.029  13.030
32816W        W96540  41.316  34.964  10.509
32817W        W96541  13.674  40.942  12.843
32818W        W96542  18.057  12.321  10.567
32819W        W96543  29.506   5.850  14.436
32820W        W96544  19.586   4.353  14.498
32821W        W96545  34.921   3.323   3.203
32822W        W96546   2.260  31.572   2.803
32823W        W96547  31.565   7.767  12.448
32824W        W96548  34.914  42.846   0.467
32825W        W96549  39.342  31.145  10.644
32826W        W96550  10.207  40.357  13.900
32827W        W96551  36.907  19.712  13.365
32828W        W96552  14.097  27.609  12.485
32829W        W96553   6.694  23.102   4.766
32830W        W96554  43.918  25.205   9.597
32831W        W96555   2.228  39.529  12.828
32832W        W96556   1.797  32.480  13.859
32833W        W96557  32.117  34.440  10.502
32834W        W96558   7.185  41.034   4.745
32835W        W96559  29.070  37.933   4.654
32836W        W96560  15.697   6.406  12.372
32837W        W96561  14.714  15.307   0.933
32838W        W96562  22.085  10.378  10.482
32839W        W96563  24.986  35.006  13.324
32840W        W96564  10.347  15.699  13.944
32841W        W96565  19.276  23.993   3.354
32842W        W96566  36.483  11.337   3.678
32843W        W96567  27.941  23.700  13.326
32844W        W96568  19.624  32.427   3.859
32845W        W96569  12.746  33.991  14.031
32846W        W96570  36.388  21.028   2.241
32847W        W96571   3.339  28.530   2.343
32848W        W96572  20.738  20.701  10.969
32849W        W96573   9.709  15.291   3.757
32850W        W96574  14.610  28.184  12.384
32851W        W96575  17.646  37.966   4.269
32852W        W96576  17.628  28.443  13.472
32853W        W96577  13.251  14.713   1.770
32854W        W96578  37.361  29.591   0.421
32855W        W96579  40.850  17.272   0.403
32856W        W96580  27.194  34.001  13.456
32857W        W96581   1.823  16.200   2.802
32858W        W96582  37.453  32.937  10.644
32859W        W96583  35.414   8.173   1.894
32860W        W96584  19.567  14.694  12.429
32861W        W96585  15.238  30.033  11.578
32862W        W96586  32.898  37.565   4.781
32863W        W96587  17.608  44.288  13.380
32864W        W96588  10.312  32.623   0.322
32865W        W96589  29.524  33.595  12.901
32866W        W96590   2.441  18.546   1.747
32867W        W96591  18.094  14.195  10.959
32868W        W96592  15.126  28.543   3.177
32869W        W96593  34.504   4.790  10.944
32870W        W96594  12.230   0.750  11.498
32871W        W96595  31.492  13.615   5.749
32872W        W96596  24.692   6.239   1.768
32873W        W96597   6.411   9.352  14.903
32874W        W96598   7.885  36.851  11.875
32875W        W96599  32.522  42.840  14.389
32876W        W96600  23.080   7.206   2.186
32877W        W96601  42.866  12.830   4.274
32878W        W96602  42.340  20.724  12.522
32879W        W96603  31.977  22.621  14.874
32880W        W96604  24.671  36.932  11.436
32881W        W96605  14.219  26.196   3.185
32882W        W96606  41.423  41.861   4.724
32883W        W96607  26.583   8.877   1.335
32884W        W96608  44.488  18.079   3.295
32885W        W96609  38.352  44.492  13.897
32886W        W96610  38.898  39.953  10.007
32887W        W96611  16.162  43.768   3.667
32888W        W96612   3.859  22.610   0.756
32889W        W96613  16.153  25.605   0.356
32890W        W96614   2.892  44.439  10.951
32891W        W96615   8.709  27.179  14.822
32892W        W96616  11.828   9.233   2.239
32893W        W96617  33.898  10.697  10.444
32894W        W96618   3.852   1.372   2.670
32895W        W96619  29.463  28.074  13.930
32896W        W96620  24.577  20.118   0.809
32897W        W96621  42.031   6.230  12.852
32898W        W96622  11.797  35.886  12.474
32899W        W96623  25.023   3.293   1.218
32900W        W96624  14.777  35.593   3.673
32901W        W96625  11.815  15.612  14.873
32902W        W96626  33.061  14.772   0.289
32903W        W96627  27.484   9.742  12.929
32904W        W96628  24.486  32.476  13.474
32905W        W96629  35.102   8.256   1.211
32906W        W96630  28.170   5.855  12.545
32907W        W96631  25.036  33.580  12.447
32908W        W96632   0.744   2.400   0.482
32909W        W96633   0.265  21.263   3.275
32910W        W96634  33.004  33.041   3.289
32911W        W96635  35.956  44.333  12.365
32912W        W96636  42.802  13.270   1.337
32913W        W96637  37.449   7.386   3.712
32914W        W96638  14.292   1.459  14.786
32915W        W96639  24.090  13.325  14.853
32916W        W96640  13.282  36.408  12.493
32917W        W96641  24.223   2.234  11.869
32918W        W96642  19.245  36.381   1.716
32919W        W96643  36.522  44.366  11.967
32920W        W96644  20.156  25.035  10.643
32921W        W96645   2.962   4.913  12.048
32922W        W96646  43.279  43.317  10.559
32923W        W96647  41.431  29.093   2.376
32924W        W96648  16.122  43.353   2.730
32925W        W96649  19.123  15.588   0.883
32926W        W96650   2.462  20.565  12.350
32927W        W96651  29.972  40.952  10.404
32928W        W96652  42.454   1.357  13.040
32929W        W96653  11.165   8.689   4.766
32930W        W96654   9.809   1.400   4.250
32931W        W96655  43.940  14.822  14.389
32932W        W96656   7.821  41.810  10.905
32933W        W96657  14.108  25.689   4.711
32934W        W96658  18.735  21.733   4.812
32935W        W96659   4.316  14.288  12.010
32936W        W96660  18.126   7.782   4.258
32937W        W96661  34.005  25.573   2.285
32938W        W96662   4.796   9.351   2.406
32939W        W96663  40.846  38.956  10.407
32940W        W96664  43.842  28.945  12.964
32941W        W96665  15.751  37.906   1.248
32942W        W96666  42.804   7.863   1.358
32943W        W96667  33.520   3.352  12.901
32944W        W96668   3.460  32.951  13.978
32945W        W96669  34.080  10.708  13.321
32946W        W96670  19.136   0.796   0.265
32947W        W96671  18.612  21.046   4.154
32948W        W96672  13.651  29.957   3.157
32949W        W96673   5.692  21.614   4.768
32950W        W96674  32.119   1.918  14.811
32951W        W96675  44.345  15.133   1.856
32952W        W96676  44.273  25.687  14.882
32953W        W96677   1.263  16.310   2.239
32954W        W96678   2.393  29.024  11.864
32955W        W96679  17.716  25.524   0.854
32956W        W96680  23.551  16.569   1.806
32957W        W96681   6.817  17.106  13.822
32958W        W96682  26.012  39.528   1.275
32959W        W96683  41.309  38.911   4.671
32960W        W96684  13.825  16.579  13.033
32961W        W96685   9.888  18.737  12.015
32962W        W96686  44.923  22.686   2.393
32963W        W96687  29.547   1.312   4.791
32964W        W96688  12.779  27.534  14.892
32965W        W96689   2.901   4.815   3.215
32966W        W96690  25.484  41.993  14.439
32967W        W96691  10.345  35.516  11.115
32968W        W96692  44.962   9.392  14.889
32969W        W96693   9.196  13.709   0.369
32970W        W96694  23.031  16.699   0.844
32971W        W96695   7.676  35.363  13.848
32972W        W96696  19.618  21.077   3.790
32973W        W96697  11.320   5.762   3.821
32974W        W96698  30.608   3.326   1.892
32975W        W96699  12.283  23.719   2.835
32976W        W96700  16.169   7.331  12.923
32977W        W96701  32.093  20.213   0.444
32978W        W96702  25.102  44.342   0.382
32979W        W96703  19.677   6.763   0.403
32980W        W96704   0.395  26.131   3.180
32981W        W96705  13.717  25.546   3.365
32982W        W96706  16.262  39.396  12.499
32983W        W96707  33.909  38.485  13.390
32984W        W96708  36.499  20.209   3.234
32985W        W96709  42.410  18.289  14.877
32986W        W96710  16.679   2.364  14.291
32987W        W96711  27.086  44.464  12.464
32988W        W96712   4.895  25.198  11.466
32989W        W96713   4.368   5.392  12.044
32990W        W96714   9.211  26.097   0.311
32991W        W96715  11.762  39.837   0.459
32992W        W96716  30.019  34.933  11.046
32993W        W96717  39.546  10.198   1.246
32994W        W96718   9.303  28.060   3.195
32995W        W96719  44.461   1.817  12.041
32996W        W96720  29.048  41.438   3.339
32997W        W96721  19.629  22.714   3.773
32998W        W96722   2.354  31.621  13.932
32999W        W96723  10.185   4.437  11.401
33000W        W96724  19.669  20.736  11.988
33001W        W96725  13.639  36.440   2.229
33002W        W96726  42.954  25.131   1.410
33003W        W96727  44.878  33.476  11.098
33004W        W96728  37.360  29.610   5.235
33005W        W96729  30.156  28.155  12.564
33006W        W96730  31.645  14.672  10.497
33007W        W96731   3.314   0.365   3.233
33008W        W96732  41.009  23.691  10.993
33009W        W96733  41.486  12.661  13.803
33010W        W96734  26.620  27.141  12.990
33011W        W96735   5.354  18.232   2.206
33012W        W96736  17.233  12.750   4.610
33013W        W96737  21.672   6.752   1.331
33014W        W96738  19.258  31.071   2.316
33015W        W96739   0.965   6.231   0.764
33016W        W96740   9.304  10.325   1.786
33017W        W96741   9.342  38.939   3.330
33018W        W96742   1.895  16.632   3.189
33019W        W96743  21.076  26.161  11.005
33020W        W96744  12.645   9.334   0.758
33021W        W96745  13.218   3.709  12.578
33022W        W96746  44.484  10.247  14.841
33023W        W96747   5.384  24.213   4.795
33024W        W96748  15.658  18.164  14.859
33025W        W96749   5.841  33.476  10.408
33026W        W96750  37.472  15.304   3.802
33027W        W96751   0.487  31.514   2.797
33028W        W96752  27.971  30.035  14.434
33029W        W96753  18.664   7.401   2.693
33030W        W96754  13.196  16.580   4.772
33031W        W96755  38.044  31.498  13.479
33032W        W96756  12.353  13.672   3.658
33033W        W96757  42.924  43.355   2.776
33034W        W96758  43.331   8.310   0.841
33035W        W96759   2.835  30.118   2.241
33036W        W96760  23.711  30.078  10.125
33037W        W96761  17.246  29.561   0.900
33038W        W96762  37.926  30.584   0.937
33039W        W96763  23.636   3.861  13.395
33040W        W96764  20.685  10.859   4.679
33041W        W96765  27.057  17.638   4.724
33042W        W96766  12.709  41.339  10.993
33043W        W96767  39.029   4.397   1.383
33044W        W96768  15.113  33.434   1.814
33045W        W96769  43.919  37.863   2.332
33046W        W96770   8.743  10.321   0.932
33047W        W96771   0.744  20.634  10.594
33048W        W96772  32.455  18.634   0.753
33049W        W96773   6.240  35.915  13.511
33050W        W96774  27.126  39.893   1.283
33051W        W96775  32.907  37.370   3.163
33052W        W96776  34.909   4.877  14.444
33053W        W96777  42.795  28.150   5.268
33054W        W96778  26.622  23.033  13.312
33055W        W96779  24.666  43.841  13.901
33056W        W96780  36.877  22.031   1.280
33057W        W96781  41.344   4.243  13.843
33058W        W96782  19.745  44.378   3.674
33059W        W96783   1.317  31.608   2.664
33060W        W96784  22.061  20.656  12.382
33061W        W96785   4.919  29.983  12.888
33062W        W96786  27.167  28.086   0.930
33063W        W96787  11.142   3.857  13.977
33064W        W96788  24.180  24.711  12.875
33065W        W96789  22.564  12.766   3.380
33066W        W96790  12.349  38.938   4.153
33067W        W96791  42.501   3.303  12.939
33068W        W96792  30.611  14.827  14.316
33069W        W96793  43.279  30.618  10.555
33070W        W96794  41.949  42.344   3.293
33071W        W96795   8.769  17.076  10.478
33072W        W96796  39.950   6.819   0.796
33073W        W96797  33.125  13.705  13.414
33074W        W96798  27.567  34.908  10.410
33075W        W96799  32.977   5.881  12.084
33076W        W96800   5.798  25.043   0.323
33077W        W96801  18.157  36.355  12.411
33078W        W96802  30.934  26.650  14.842
33079W        W96803  14.656  41.484  14.952
33080W        W96804  42.890  10.264  14.449
33081W        W96805  15.221  32.629  11.107
33082W        W96806   5.354   4.861  11.488
33083W        W96807  16.291  29.976  11.859
33084W        W96808  44.840  40.925   1.885
33085W        W96809   2.841   1.237   1.924
33086W        W96810  38.552  15.721   2.677
33087W        W96811  33.935  19.238  12.526
33088W        W96812  37.488  18.556   2.387
33089W        W96813   6.896   7.860  14.418
33090W        W96814  15.770  32.565   2.337
33091W        W96815   5.242   7.242  12.887
33092W        W96816  28.132   5.704   4.243
33093W        W96817  10.661   7.178  14.955
33094W        W96818  27.119  44.787  12.832
33095W        W96819  37.355  25.015  11.466
33096W        W96820  40.997  11.722  14.409
33097W        W96821  10.227  44.818   1.763
33098W        W96822  38.830  14.672   0.426
33099W        W96823  19.720  37.438   0.383
33100W        W96824   9.890  24.163   2.378
33101W        W96825  43.805  12.704   3.211
33102W        W96826  11.688   4.309  10.409
33103W        W96827  16.573   2.723   2.685
33104W        W96828  43.819  25.049   3.659
33105W        W96829  32.440   8.244  13.053
33106W        W96830  24.010  23.191  12.350
33107W        W96831  13.833  44.295  13.979
33108W        W96832  39.322  31.441  11.925
33109W        W96833   2.851  39.894   2.871
33110W        W96834  35.104  30.163  13.024
33111W        W96835  29.649  16.797  12.058
33112W        W96836  38.867  30.634   4.252
33113W        W96837  37.010  37.886  12.857
33114W        W96838  10.361   1.943  11.471
33115W        W96839  23.092  13.219  13.432
33116W        W96840  25.545  27.176  13.898
33117W        W96841  23.011  36.363  13.950
33118W        W96842  18.642  16.179   0.859
33119W        W96843   7.815  37.056  13.365
33120W        W96844  26.100  30.658  13.531
33121W        W96845   5.274  29.139  13.824
33122W        W96846  44.462   5.866   2.783
33123W        W96847  41.321  14.690   2.730
33124W        W96848   6.765  16.174  14.898
33125W        W96849  28.991  19.239  12.911
33126W        W96850  14.246  34.388  13.824
33127W        W96851  41.913  23.183   1.872
33128W        W96852  43.810  25.029  13.975
33129W        W96853  35.363  20.569   0.739
33130W        W96854  36.357  14.311  11.045
33131W        W96855  24.646  25.176  12.085
33132W        W96856  14.272  42.864   0.316
33133W        W96857  31.643  37.958   1.451
33134W        W96858   4.439   6.730  13.044
33135W        W96859  24.053  44.829   0.892
33136W        W96860  25.198  32.573  10.634
33137W        W96861  22.539   1.378   1.887
33138W        W96862  20.525   4.761   4.333
33139W        W96863  44.905  22.507  13.892
33140W        W96864   8.778  38.924   1.294
33141W        W96865  31.101  44.315   0.872
33142W        W96866   4.884  44.949   2.348
33143W        W96867  19.756   1.407  13.476
33144W        W96868  17.562  31.492  14.002
33145W        W96869  41.865  24.636  12.840
33146W        W96870  24.635  35.005   4.329
33147W        W96871   1.793  21.594   2.881
33148W        W96872  22.585   7.227   2.728
33149W        W96873  10.268  21.142  11.536
33150W        W96874  43.337  17.196   0.285
33151W        W96875  39.508  14.731   1.840
33152W        W96876  39.439  19.551  12.876
33153W        W96877  24.134   8.211   3.789
33154W        W96878  31.999  30.995  10.611
33155W        W96879  21.628  26.085  11.941
33156W        W96880  40.889  32.009   2.752
33157W        W96881  25.030  40.934  14.778
33158W        W96882  31.596   7.881  12.005
33159W        W96883  18.120   1.333  13.033
33160W        W96884  37.884  37.449  13.430
33161W        W96885  19.717   8.881   0.477
33162W        W96886  14.829  24.631  13.900
33163W        W96887  37.576  31.969   3.833
33164W        W96888  17.141  28.539  12.847
33165W        W96889   3.864   5.810   0.878
33166W        W96890  38.938  32.100  10.500
33167W        W96891   5.223  19.751  12.409
33168W        W96892   2.287  28.109   0.730
33169W        W96893  44.899  39.479  10.613
33170W        W96894  31.061  30.916  10.915
33171W        W96895  26.014  15.592  10.097
33172W        W96896  12.298  29.575   0.421
33173W        W96897  29.646   3.400  10.539
33174W        W96898  25.077   6.734   0.751
33175W        W96899  28.500  32.919   3.861
33176W        W96900   4.860  24.557  11.437
33177W        W96901  14.223  36.371  10.961
33178W        W96902  26.695  38.394   4.793
33179W        W96903  28.643  42.810  12.493
33180W        W96904  20.121   6.789   1.862
33181W        W96905  28.123   2.795   3.673
33182W        W96906  21.219  31.103   3.319
33183W        W96907  39.359  28.996   0.927
33184W        W96908  24.509  21.068  11.587
33185W        W96909   2.329  18.152  12.391
33186W        W96910  28.115  41.870  13.309
33187W        W96911  23.490  21.620   0.960
33188W        W96912  16.574   4.331   0.450
33189W        W96913  24.570  31.022   2.873
33190W        W96914   5.720  10.851  12.847
33191W        W96915  40.808  42.310  12.044
33192W        W96916  22.740   3.871  10.404
33193W        W96917  27.487  22.672   2.266
33194W        W96918  11.370  26.669   1.839
33195W        W96919  31.912   5.701  10.058
33196W        W96920  33.115  27.580   3.746
33197W        W96921  15.816  25.032  13.884
33198W        W96922  35.888  37.933   0.355
33199W        W96923  10.285  38.829  12.495
33200W        W96924  27.473  41.977  14.909
33201W        W96925  27.620   8.376  14.279
33202W        W96926   6.215  39.908  14.292
33203W        W96927  15.706  28.558   3.710
33204W        W96928  42.920  18.584   5.292
33205W        W96929  35.910  11.841  10.431
33206W        W96930  32.024  25.499  11.898
33207W        W96931  25.157  19.070   4.662
33208W        W96932  40.495  22.033   1.400
33209W        W96933   5.438  17.245   3.828
33210W        W96934  16.592  34.471  14.823
33211W        W96935  44.287  12.777  14.836
33212W        W96936  34.585   2.956   0.318
33213W        W96937   6.323   5.732  12.501
33214W        W96938  10.298   5.374   0.848
33215W        W96939  27.000  20.092  10.464
33216W        W96940  12.803  29.440   0.462
33217W        W96941  33.896  27.585   3.251
33218W        W96942  26.150  44.431  13.501
33219W        W96943  44.282  26.147   1.788
33220W        W96944  41.845  42.810  14.946
33221W        W96945  20.638  13.674  11.961
33222W        W96946   3.839  13.342   3.169
33223W        W96947  38.380   6.898   2.812
33224W        W96948  21.638   8.354   0.779
33225W        W96949  32.463  34.114  13.901
33226W        W96950  36.590  27.551  14.853
33227W        W96951   7.293   0.760   2.383
33228W        W96952  11.734  17.267  13.945
33229W        W96953  43.369  40.905   0.432
33230W        W96954  10.355  13.809  14.352
33231W        W96955  23.112  32.409  12.421
33232W        W96956  14.726  43.921  14.305
33233W        W96957  21.620  43.898  11.414
33234W        W96958  36.964  20.272  13.928
33235W        W96959  36.552  17.183  12.424
33236W        W96960  24.040  19.768  12.091
33237W        W96961  39.970  13.169   4.611
33238W        W96962   7.234   3.268  10.447
33239W        W96963  38.947   4.730  11.563
33240W        W96964  31.096  10.830  12.067
33241W        W96965   7.223  18.119  13.426
33242W        W96966  27.995  43.000  13.843
33243W        W96967  23.616  14.260  10.467
33244W        W96968  14.795   3.825  14.280
33245W        W96969  43.999   8.167   3.165
33246W        W96970  16.707   7.838   5.298
33247W        W96971  20.147  41.852  12.057
33248W        W96972  37.379  38.454   3.162
33249W        W96973  24.532  31.111   1.748
33250W        W96974  22.616   0.320  12.091
33251W        W96975  13.107  37.340  10.993
33252W        W96976   4.425  15.163  10.414
33253W        W96977   6.822   4.445  13.862
33254W        W96978  19.654   0.310   3.671
33255W        W96979  10.310   0.871  11.939
33256W        W96980  22.639  42.316  10.421
33257W        W96981  22.625  12.336   1.447
33258W        W96982  29.931   2.873   2.835
33259W        W96983  44.271  40.833  11.460
33260W        W96984  41.437  39.498  11.078
33261W        W96985  40.021  37.981   4.173
33262W        W96986   6.848  12.828  11.047
33263W        W96987   8.313  15.222  13.870
33264W        W96988  37.890  12.665   4.250
33265W        W96989  29.966  22.168  10.490
33266W        W96990  26.176  23.199  10.471
33267W        W96991  43.001   6.709  10.896
33268W        W96992  35.017   4.819   4.748
33269W        W96993  41.485  11.652  10.562
33270W        W96994  39.474   0.301  12.081
33271W        W96995  19.130  39.956  12.866
33272W        W96996  35.417  24.544  12.028
33273W        W96997  15.755  35.100  13.963
33274W        W96998   4.306   5.836   1.801
33275W        W96999   6.258   0.746   1.719
33276W        W97000  16.298  34.106  11.868
33277W        W97001  36.457  11.277   0.279
33278W        W97002  11.677  28.586   4.317
33279W        W97003  20.165   2.440  12.002
33280W        W97004  41.347   6.707  12.480
33281W        W97005  11.327  37.547  13.528
33282W        W97006  21.630   9.726   3.706
33283W        W97007  20.646  37.950  12.514
33284W        W97008  11.128  42.985   3.297
33285W        W97009  35.058  40.328   1.708
33286W        W97010  39.519  15.201   3.297
33287W        W97011  41.405  43.790  12.858
33288W        W97012  18.151  18.651   3.850
33289W        W97013  23.153  34.453   4.769
33290W        W97014   3.782   2.456   4.604
33291W        W97015  25.538   1.448  13.979
33292W        W97016   6.871   0.916  12.011
33293W        W97017  11.858   5.776  13.451
33294W        W97018  20.031  26.194  12.067
33295W        W97019  22.552  28.564   0.736
33296W        W97020   0.905  23.100   3.821
33297W        W97021  42.305   4.351   3.382
33298W        W97022  24.080  10.730  12.942
33299W        W97023   4.747  31.932   4.352
33300W        W97024  11.642  42.004  12.977
33301W        W97025  12.293  11.202  12.898
33302W        W97026  12.341  10.145   3.383
33303W        W97027  37.462  16.600   3.154
33304W        W97028  28.042  26.150  13.064
33305W        W97029  23.553  23.661  14.818
33306W        W97030  28.970  25.113  11.438
33307W        W97031  14.607   7.842   2.686
33308W        W97032  36.543  19.068  13.465
33309W        W97033  36.583  26.032   0.851
33310W        W97034   6.266  19.663  13.547
33311W        W97035  27.123   6.813  13.056
33312W        W97036  27.493  27.608  12.038
33313W        W97037  27.525  29.960  10.606
33314W        W97038  37.419  33.624   2.217
33315W        W97039  27.127  33.510  13.823
33316W        W97040  32.026  10.336  11.381
33317W        W97041  41.037  17.085   0.800
33318W        W97042  43.957  27.957   3.696
33319W        W97043  35.041  28.047   0.466
33320W        W97044  39.485   7.262  13.038
33321W        W97045  29.660  28.547  10.492
33322W        W97046  15.653  33.909  11.013
33323W        W97047  11.628  26.653   5.270
33324W        W97048  44.477  26.158  10.433
33325W        W97049  12.189  15.666  14.888
33326W        W97050  40.348   4.426  10.980
33327W        W97051  22.022   4.924   4.168
33328W        W97052  12.317  29.141  14.817
33329W        W97053   9.749  12.698  13.063
33330W        W97054  42.776   3.351   0.841
33331W        W97055  23.003  41.462   2.718
33332W        W97056  36.434  42.386  11.942
33333W        W97057  17.088  20.747  13.401
33334W        W97058  32.439  28.020  11.422
33335W        W97059  23.089  20.211   2.372
33336W        W97060   7.666  15.146   2.670
33337W        W97061   9.659  40.961   2.353
33338W        W97062  34.099  16.655   0.402
33339W        W97063  14.676  39.010  10.004
33340W        W97064  35.421   7.355  10.513
33341W        W97065  41.372  16.650   4.827
33342W        W97066  14.216   0.490  12.984
33343W        W97067   3.855  41.889   0.456
33344W        W97068  30.457   8.690   3.342
33345W        W97069   3.916  16.651   0.331
33346W        W97070  36.559  20.185  14.317
33347W        W97071  27.047  34.484   2.721
33348W        W97072  37.964  22.242   1.339
33349W        W97073  43.938   7.691   2.364
33350W        W97074  32.087  21.157   3.204
33351W        W97075  16.748   4.867  11.942
33352W        W97076   3.338  14.780   4.836
33353W        W97077   7.248  31.119  11.113
33354W        W97078  28.107  37.051   1.290
33355W        W97079  27.668  39.034  11.507
33356W        W97080  22.612   3.717   0.459
33357W        W97081  33.444  41.535  12.441
33358W        W97082  39.532  20.263   1.441
33359W        W97083   1.306  40.405   4.745
33360W        W97084  10.163  21.579   4.605
33361W        W97085   7.699  10.702   3.323
33362W        W97086  20.050  40.952  13.420
33363W        W97087   7.305  10.377   0.783
33364W        W97088   6.419  22.194   3.705
33365W        W97089  38.981  18.168  13.810
33366W        W97090  33.387  27.570  14.358
33367W        W97091  30.515  31.578   2.664
33368W        W97092   2.461   4.280   2.802
33369W        W97093   8.876  40.427  14.943
33370W        W97094  42.806  39.395  11.962
33371W        W97095  10.206   1.956   3.871
33372W        W97096   7.393  33.875  14.995
33373W        W97097  37.029  37.478   3.843
33374W        W97098  38.882  38.374  13.376
33375W        W97099   4.437   1.974  13.870
33376W        W97100  40.825  24.522  10.109
33377W        W97101   3.292  41.036  10.636
33378W        W97102  27.679  26.511  13.012
33379W        W97103   3.219  37.397  13.364
33380W        W97104  12.821  11.366  11.577
33381W        W97105  34.991  12.219  14.387
33382W        W97106  35.977  17.799  14.378
33383W        W97107  33.979  15.766   9.507
33384W        W97108   8.182  32.549  14.443
33385W        W97109  11.253  43.770  10.531
33386W        W97110   5.874  18.642   2.729
33387W        W97111  26.138  34.507   3.698
33388W        W97112  18.163  22.598   4.720
33389W        W97113  40.990  29.156  12.900
33390W        W97114  38.869   9.672  10.937
33391W        W97115  14.306  32.583  14.342
33392W        W97116  27.590  11.361   1.261
33393W        W97117  25.604   6.329  10.410
33394W        W97118  18.117   3.820   2.255
33395W        W97119   1.248   9.264  14.441
33396W        W97120  23.667  39.416   4.190
33397W        W97121  25.985  22.120  14.290
33398W        W97122  40.932  23.731   4.825
33399W        W97123  15.668   5.777  14.817
33400W        W97124  26.061   0.814   1.924
33401W        W97125   0.945  32.142   4.128
33402W        W97126  38.825   4.699  13.009
33403W        W97127  42.023   3.238   4.297
33404W        W97128   9.291  25.714  14.409
33405W        W97129   0.355  43.787   3.782
33406W        W97130  40.033   1.798   0.259
33407W        W97131  44.986  10.850  12.535
33408W        W97132  25.550   5.227  12.942
33409W        W97133  33.888   4.379   3.684
33410W        W97134  20.149  32.089  12.086
33411W        W97135  16.645  18.676  13.506
33412W        W97136  22.660  18.133   2.848
33413W        W97137  28.582  26.969   1.357
33414W        W97138  41.359  15.821  14.278
33415W        W97139  10.731   4.937   3.237
33416W        W97140   4.833  32.504   0.283
33417W        W97141  28.521  17.091  11.871
33418W        W97142  44.497   3.832  13.043
33419W        W97143  35.578   9.778  14.846
33420W        W97144  33.549  37.408  11.586
33421W        W97145  28.507   9.675   9.998
33422W        W97146  14.260  32.038  13.888
33423W        W97147  23.117  13.640  11.928
33424W        W97148  15.236  32.056   4.705
33425W        W97149   4.914   7.270   2.329
33426W        W97150  20.091  23.559  14.777
33427W        W97151   2.438  34.082  10.977
33428W        W97152  21.525  42.283   4.130
33429W        W97153   8.308  14.110   9.606
33430W        W97154   0.778  13.716   1.287
33431W        W97155  41.321   6.892   3.201
33432W        W97156  11.857  22.554   3.259
33433W        W97157  34.446  13.172  10.076
33434W        W97158  16.631  11.355  14.992
33435W        W97159  42.307  41.491  10.545
33436W        W97160  40.821   4.883   2.724
33437W        W97161  17.611   9.719  10.505
33438W        W97162  35.871  38.461   2.327
33439W        W97163  14.177  39.498  13.047
33440W        W97164  29.064  43.316   3.825
33441W        W97165  35.447  32.932   2.352
33442W        W97166  24.521  39.420  13.032
33443W        W97167  42.500  25.044  14.378
33444W        W97168   6.310   0.874  14.344
33445W        W97169   6.875  16.709   0.734
33446W        W97170   1.307  42.491   2.753
33447W        W97171  11.758  44.894  10.454
33448W        W97172  14.271  16.190  13.409
33449W        W97173   7.268   1.335   1.846
33450W        W97174  28.947  40.348   4.200
33451W        W97175  18.759  37.508   4.797
33452W        W97176   0.419  10.309   3.657
33453W        W97177  13.805  39.978   2.869
33454W        W97178  38.569  40.372   3.271
33455W        W97179  29.582  22.013   3.766
33456W        W97180   8.764  12.663  12.058
33457W        W97181  13.117  36.968  12.917
33458W        W97182  34.976  26.591  11.022
33459W        W97183   9.239  34.011  14.951
33460W        W97184  15.246   8.734  11.571
33461W        W97185  15.730  40.389   0.367
33462W        W97186  21.228  19.247   0.376
33463W        W97187  28.147  33.603  13.309
33464W        W97188  20.045   5.204  12.341
33465W        W97189   2.848  19.698   2.835
33466W        W97190   2.860  38.488   3.865
33467W        W97191  42.947  26.135   2.264
33468W        W97192   0.435  36.368   2.840
33469W        W97193  39.818  20.533   0.928
33470W        W97194  18.223  37.418  14.842
33471W        W97195   3.383  12.347   4.118
33472W        W97196  19.553   9.723   1.775
33473W        W97197   4.701  20.103  10.913
33474W        W97198   0.882  44.930   3.326
33475W        W97199  27.088   0.444  13.422
33476W        W97200  43.439   3.266  11.083
33477W        W97201   5.751  43.335   2.804
33478W        W97202   6.853  31.131   4.797
33479W        W97203  44.339  39.973  11.960
33480W        W97204  11.681   5.435   3.859
33481W        W97205  27.988   2.460   2.192
33482W        W97206  13.727  43.954   4.749
33483W        W97207  18.732  21.139  11.063
33484W        W97208  36.547  11.744   4.678
33485W        W97209  32.442   0.372  14.344
33486W        W97210   1.315   9.881   4.209
33487W        W97211  32.997   2.869   4.258
33488W        W97212  21.525  11.718  10.035
33489W        W97213   9.385  19.125   1.294
33490W        W97214  21.036  34.532   1.448
33491W        W97215  19.074  29.624  13.944
33492W        W97216  10.311  23.506   4.760
33493W        W97217  43.288   7.873   2.802
33494W        W97218  21.023  44.763   2.747
33495W        W97219  30.637  44.941   1.218
33496W        W97220   5.760   4.841   0.399
33497W        W97221  11.174  37.874   0.470
33498W        W97222  11.314  21.217   0.866
33499W        W97223  40.882  17.105  14.418
33500W        W97224  19.571  38.845  11.527
33501W        W97225  23.523   2.758  13.401
33502W        W97226  33.876  31.489   4.254
33503W        W97227  11.773  12.854   1.696
33504W        W97228  41.447  20.604   4.787
33505W        W97229  29.918   2.959   1.843
33506W        W97230   2.848  15.796  13.926
33507W        W97231  18.578  13.346  13.856
33508W        W97232  40.986  25.059   2.344
33509W        W97233  28.669  33.609  10.909
33510W        W97234  34.952  40.034  13.498
33511W        W97235  40.976   9.226  11.935
33512W        W97236  13.703  35.999  11.548
33513W        W97237  14.205   0.481   3.652
33514W        W97238  40.458  14.305   5.232
33515W        W97239  21.045  38.821  12.991
33516W        W97240  19.107  10.246  14.505
33517W        W97241  38.565  38.381   3.817
33518W        W97242  26.589  27.562  14.422
33519W        W97243  23.041  19.275   3.175
33520W        W97244   0.836   5.827   2.192
33521W        W97245  18.074  13.147   4.309
33522W        W97246  40.339   6.863  10.484
33523W        W97247  32.103   5.842   4.812
33524W        W97248  15.789  37.087   5.266
33525W        W97249  15.264  43.823   2.749
33526W        W97250  37.569   4.368  11.475
33527W        W97251  11.223  35.439   4.131
33528W        W97252  26.521  14.213   4.315
33529W        W97253  15.781   3.424   2.699
33530W        W97254   7.795  10.278   4.623
33531W        W97255   2.959  17.738  12.986
33532W        W97256  10.305  35.883   1.405
33533W        W97257  26.038  30.627  13.052
33534W        W97258  34.877  14.765   0.932
33535W        W97259   0.365   2.738  11.084
33536W        W97260  14.779  38.402   2.342
33537W        W97261  36.370  24.980   3.192
33538W        W97262  41.529   3.224  12.370
33539W        W97263  36.546  39.511  11.890
33540W        W97264  16.283  35.474  11.900
33541W        W97265  12.359  22.587   3.784
33542W        W97266  36.571  39.357   2.321
33543W        W97267  42.853  25.056   3.838
33544W        W97268  39.314  36.897   9.935
33545W        W97269  20.594  25.637   3.831
33546W        W97270  18.634  43.871   3.783
33547W        W97271   1.937  20.719  10.551
33548W        W97272   5.848  18.265  13.510
33549W        W97273  22.998  15.166   3.814
33550W        W97274  14.145   3.860  13.879
33551W        W97275  43.788  29.103  14.430
33552W        W97276  18.709   5.835   1.762
33553W        W97277  26.028  16.624  12.002
33554W        W97278  32.040  19.616  11.461
33555W        W97279  39.500  37.051  14.864
33556W        W97280  16.671  11.181   2.309
33557W        W97281  26.679   8.232   1.340
33558W        W97282  29.134  18.127  12.465
33559W        W97283  10.214  31.566  11.063
33560W        W97284  17.680  42.996   1.429
33561W        W97285  37.980   4.285   1.392
33562W        W97286   8.832  41.485  13.882
33563W        W97287  10.727  14.282  10.588
33564W        W97288  44.951   3.294   9.999
33565W        W97289  39.962  41.802   4.613
33566W        W97290  12.289  41.923   3.234
33567W        W97291  19.049   9.175   1.817
33568W        W97292  21.109  36.048   3.283
33569W        W97293  14.177  16.573  14.300
33570W        W97294   7.716  23.567   1.872
33571W        W97295  13.202   6.702   4.242
33572W        W97296  18.657  23.028  11.993
33573W        W97297  21.136  29.563   0.479
33574W        W97298  30.597  42.363   0.936
33575W        W97299  16.774  31.545   1.421
33576W        W97300  41.474  34.989  13.918
33577W        W97301  37.000  43.280   4.828
33578W        W97302  44.773  39.400  12.526
33579W        W97303  25.668  27.661   2.724
33580W        W97304  24.084   8.713  13.321
33581W        W97305  16.223  42.001  12.019
33582W        W97306  29.666  39.948   2.895
33583W        W97307  32.909  17.753  12.009
33584W        W97308  29.956  31.535   4.647
33585W        W97309  23.581  30.653  10.923
33586W        W97310  29.127   7.238  14.830
33587W        W97311  32.921  17.775  12.834
33588W        W97312   4.773  22.193   3.295
33589W        W97313  26.122  12.718   2.317
33590W        W97314  14.735  23.241   2.294
33591W        W97315  34.426  38.487   1.320
33592W        W97316  26.136  37.872   4.719
33593W        W97317  35.536  33.990   2.220
33594W        W97318  41.887  40.812   2.799
33595W        W97319  10.687   3.956   4.603
33596W        W97320  35.012  10.199  10.924
33597W        W97321   4.865   5.902  14.820
33598W        W97322  38.435  13.330   3.292
33599W        W97323  38.889  14.791   1.917
33600W        W97324  15.238  22.689  10.455
33601W        W97325  43.899  24.589  10.952
33602W        W97326  15.707  32.439   4.330
33603W        W97327   5.754  29.595  11.445
33604W        W97328  31.548   6.273  11.995
33605W        W97329  11.180  13.259  13.064
33606W        W97330  25.618  19.598   4.695
33607W        W97331  34.120  14.183  12.989
33608W        W97332  13.337  21.236   1.336
33609W        W97333  11.752  25.600  14.923
33610W        W97334  22.504   2.320  13.985
33611W        W97335  15.601   9.807   2.265
33612W        W97336  11.712  24.661   1.327
33613W        W97337  21.197   0.806  14.305
33614W        W97338   1.966  13.774  10.418
33615W        W97339   5.906  21.089   1.874
33616W        W97340  20.212  14.103  14.492
33617W        W97341   6.193  14.716  10.451
33618W        W97342   0.398  41.815  12.500
33619W        W97343  39.362   9.295   4.284
33620W        W97344  43.340  40.413   1.790
33621W        W97345  44.940  12.819  14.799
33622W        W97346  10.872   9.884  10.980
33623W        W97347   2.228  37.020   1.394
33624W        W97348   1.903  23.567   1.759
33625W        W97349  25.165  40.985  10.404
33626W        W97350  24.078  19.217   2.768
33627W        W97351  29.664   8.290   1.823
33628W        W97352  42.016  15.767   4.280
33629W        W97353  14.817   1.815  14.945
33630W        W97354  28.583   8.248  14.380
33631W        W97355  37.343  44.336  12.534
33632W        W97356  41.517  15.660  13.920
33633W        W97357   3.725  22.633  13.025
33634W        W97358  24.076  33.437  12.033
33635W        W97359   5.350  12.242   1.926
33636W        W97360  30.012   8.275   1.756
33637W        W97361  18.183  26.481  12.395
33638W        W97362  36.551  28.626   3.300
33639W        W97363  43.408  11.622   3.760
33640W        W97364  16.223  29.121  14.338
33641W        W97365  22.541  37.542  14.926
33642W        W97366  37.838  42.840   1.891
33643W        W97367  18.555   2.324  13.440
33644W        W97368  15.170   1.293   4.226
33645W        W97369  32.436  34.517  12.415
33646W        W97370  27.633  15.199  10.640
33647W        W97371  22.618  14.662   1.258
33648W        W97372   3.221   2.771   3.825
33649W        W97373  21.733  26.050   4.727
33650W        W97374  29.924  43.484   2.296
33651W        W97375  40.007   7.235  14.460
33652W        W97376  34.022   8.676   4.273
33653W        W97377   4.849  17.290   3.227
33654W        W97378  10.710   3.279  10.941
33655W        W97379  43.451  25.125   3.349
33656W        W97380  29.476  26.154  14.867
33657W        W97381  13.649   9.722   0.356
33658W        W97382  41.361  23.141  12.354
33659W        W97383   0.355  24.026   2.397
33660W        W97384  12.645  24.974   0.751
33661W        W97385  32.060  15.113  14.286
33662W        W97386   3.753  29.995  14.322
33663W        W97387   5.403   9.379   0.865
33664W        W97388  37.864  39.927  13.413
33665W        W97389   7.204  25.081   2.838
33666W        W97390  29.504  38.890   3.205
33667W        W97391   2.356   4.813   3.816
33668W        W97392  14.757   3.259   5.696
33669W        W97393  11.160  32.408  13.360
33670W        W97394   5.869  12.160  10.132
33671W        W97395  33.564  25.090  14.392
33672W        W97396  16.752  26.057  12.929
33673W        W97397  15.585  19.176  14.467
33674W        W97398  39.530  10.744   0.928
33675W        W97399  11.811  14.137   3.716
33676W        W97400  34.965  25.522  13.482
33677W        W97401  41.866  17.237   3.152
33678W        W97402  42.496  15.768  10.917
33679W        W97403  16.263   7.388  13.987
33680W        W97404   9.249  31.000  11.519
33681W        W97405  43.389  22.733  10.625
33682W        W97406   2.370  40.523   0.836
33683W        W97407  18.105  31.510   3.707
33684W        W97408  15.206   2.230  10.920
33685W        W97409  23.505  19.216   0.925
33686W        W97410   5.220  27.514  12.432
33687W        W97411   1.896   1.956   4.743
33688W        W97412  21.024  20.583  14.784
33689W        W97413  20.233  14.792  14.841
33690W        W97414  13.699  40.343   3.783
33691W        W97415  43.387  24.061   0.297
33692W        W97416   4.864  30.578  13.947
33693W        W97417  11.867  12.236   3.319
33694W        W97418   2.358  26.976  10.931
33695W        W97419  12.813  34.578   4.741
33696W        W97420  31.117  10.692   2.713
33697W        W97421   3.907  32.100   1.922
33698W        W97422   9.652  30.446  12.388
33699W        W97423  33.588  40.960  12.828
33700W        W97424  35.938  15.769  12.578
33701W        W97425  10.148  24.686   2.884
33702W        W97426  26.612  40.523  13.341
33703W        W97427   0.853  40.851  11.919
33704W        W97428  30.144  40.812   1.868
33705W        W97429   2.417   9.870  11.987
33706W        W97430  16.206   2.932   0.340
33707W        W97431   1.738  34.056  11.578
33708W        W97432  29.123  14.721  14.387
33709W        W97433  28.616  21.689  13.348
33710W        W97434   4.218  19.715   4.750
33711W        W97435  21.566  10.689  11.041
33712W        W97436  44.923  26.134  10.905
33713W        W97437  24.538  15.666   2.318
33714W        W97438  35.382  18.098  13.334
33715W        W97439   8.320  31.447  10.898
33716W        W97440  31.996  21.757  12.920
33717W        W97441  15.282  18.239   2.304
33718W        W97442  34.869  21.215   1.934
33719W        W97443  17.732   5.721  12.978
33720W        W97444   5.361  17.160   0.816
33721W        W97445  19.591  13.797  11.858
33722W        W97446  19.143  27.031   1.249
33723W        W97447  22.514  36.460   1.270
33724W        W97448   0.368   2.954  12.394
33725W        W97449  16.136  36.910  11.866
33726W        W97450  11.154  13.819   3.201
33727W        W97451   6.280  14.152   5.103
33728W        W97452  40.934  42.436  13.518
33729W        W97453   7.318   2.859   4.670
33730W        W97454  43.841  25.654   3.239
33731W        W97455  17.217   1.766   3.821
33732W        W97456  22.101  42.435  10.901
33733W        W97457  18.555  38.918  11.947
33734W        W97458  11.826  35.435  13.336
33735W        W97459  19.533  43.417   3.646
33736W        W97460   2.229  12.817  14.385
33737W        W97461  36.944  25.483   4.665
33738W        W97462   7.415  25.618   2.877
33739W        W97463  39.059  44.995   1.715
33740W        W97464  44.496  17.712   0.455
33741W        W97465  36.960   2.302  12.068
33742W        W97466  16.671  28.665   4.197
33743W        W97467  33.073  17.645   3.254
33744W        W97468  34.039  27.460   3.637
33745W        W97469  10.301  25.708  11.860
33746W        W97470   9.220  36.566   4.286
33747W        W97471  34.593  12.720  10.066
33748W        W97472   5.902  22.617  12.404
33749W        W97473  36.575  19.285  11.934
33750W        W97474  31.479  42.776   4.773
33751W        W97475  25.161  20.630   1.398
33752W        W97476  18.061  35.504  12.427
33753W        W97477  44.984  16.207  14.855
33754W        W97478   5.711  16.319   3.808
33755W        W97479   1.847  17.118   1.828
33756W        W97480  17.651  25.659  13.041
33757W        W97481  41.805  36.936   5.100
33758W        W97482  32.620  34.371  11.487
33759W        W97483  11.317  39.839  12.067
33760W        W97484   6.248  42.924  11.518
33761W        W97485  14.785  42.852   4.822
33762W        W97486  38.924  21.698   2.699
33763W        W97487  21.252   6.196   0.370
33764W        W97488  27.462  24.483   3.268
33765W        W97489   6.731  38.851   2.355
33766W        W97490  44.845  12.312  14.479
33767W        W97491   6.780   0.459   4.323
33768W        W97492  28.968  43.855  13.063
33769W        W97493  31.597   4.822  14.912
33770W        W97494  17.653  31.102  14.482
33771W        W97495  14.773  28.057   4.794
33772W        W97496  23.671   8.205   2.685
33773W        W97497  11.232  18.244   4.666
33774W        W97498  15.605  26.189   1.850
33775W        W97499   0.363  32.920  11.989
33776W        W97500  28.087  23.612  11.415
33777W        W97501  19.677  35.881  11.076
33778W        W97502   8.188   9.220  11.564
33779W        W97503  41.801  22.120   0.401
33780W        W97504  10.217  36.525   3.688
33781W        W97505   5.227  26.492   3.285
33782W        W97506  43.901  39.551   4.685
33783W        W97507   9.751  37.017  13.857
33784W        W97508  30.501   3.901   0.810
33785W        W97509   3.729  29.494   1.698
33786W        W97510  30.552  43.463  13.352
33787W        W97511  20.238  17.097   1.330
33788W        W97512  19.104  27.529   4.151
33789W        W97513  26.633  25.182  12.953
33790W        W97514   7.293  26.062   0.803
33791W        W97515  23.097   2.897   4.786
33792W        W97516  30.525  26.076  12.414
33793W        W97517  15.708  18.234   2.663
33794W        W97518  19.598  39.472   3.238
33795W        W97519   8.715  34.585  11.014
33796W        W97520  44.812  34.472   0.328
33797W        W97521  39.329  37.529  11.415
33798W        W97522   9.671  22.202   4.320
33799W        W97523  12.737  32.997  13.824
33800W        W97524  38.039  30.444  11.973
33801W        W97525  10.820  11.698   4.779
33802W        W97526  26.152  15.692   2.248
33803W        W97527  37.052  33.012  11.575
33804W        W97528  24.159  31.954   0.844
33805W        W97529  31.024  40.893   4.235
33806W        W97530  30.124   8.291   3.799
33807W        W97531  37.912  37.389  11.597
33808W        W97532  19.578   3.789   4.659
33809W        W97533   4.288  27.181   1.225
33810W        W97534  22.671  13.840   0.837
33811W        W97535  40.493  10.337   1.773
33812W        W97536  33.423   8.791  13.847
33813W        W97537  43.463  33.473  13.455
33814W        W97538  17.163  20.563  14.350
33815W        W97539  25.480  11.137   3.236
33816W        W97540  19.168  12.631   3.804
33817W        W97541  10.161  13.763   4.136
33818W        W97542   2.256  19.533   1.745
33819W        W97543  39.387  39.969   5.142
33820W        W97544  31.131   5.330  14.371
33821W        W97545  23.014  23.039  13.543
33822W        W97546  24.200  16.741   2.730
33823W        W97547  23.152   0.967   2.877
33824W        W97548  40.370  34.574   3.702
33825W        W97549  41.837   8.797   3.220
33826W        W97550  22.626  25.582   4.723
33827W        W97551  33.509   0.784  14.337
33828W        W97552   7.669  34.108  14.879
33829W        W97553  37.519   5.438   1.868
33830W        W97554  39.890  26.637   0.735
33831W        W97555  34.905   5.710   2.830
33832W        W97556  42.346   1.286   2.825
33833W        W97557  38.954  27.480   4.296
33834W        W97558   3.389  44.490  13.057
33835W        W97559  15.253  30.032  13.997
33836W        W97560   3.861  29.440   2.707
33837W        W97561  42.023  26.554   4.615
33838W        W97562  29.982  32.505   2.881
33839W        W97563  34.967  13.625  14.900
33840W        W97564  28.555  16.725   3.679
33841W        W97565  38.337  23.521  14.275
33842W        W97566   5.375   7.260  13.536
33843W        W97567   1.892  13.186  14.444
33844W        W97568  42.480  10.202   0.959
33845W        W97569  40.832  11.361   3.327
33846W        W97570  17.108  11.369   0.933
33847W        W97571   6.279  17.584  13.064
33848W        W97572  42.493  21.726   4.166
33849W        W97573  31.552   3.373  14.452
33850W        W97574  29.978  13.332   3.745
33851W        W97575   1.322  28.007   0.760
33852W        W97576   6.868  14.219   5.234
33853W        W97577  18.613  23.665  13.855
33854W        W97578  12.119  35.961   0.443
33855W        W97579  37.068  43.971  12.957
33856W        W97580  36.379  40.431  14.429
33857W        W97581   4.768  29.519   2.873
33858W        W97582   1.914   8.780   0.347
33859W        W97583   0.765   6.310  11.375
33860W        W97584  23.241  29.470   9.451
33861W        W97585  18.142   7.720  14.367
33862W        W97586  13.672  32.593  12.998
33863W        W97587   0.984  18.144   3.788
33864W        W97588   4.899  14.193  12.936
33865W        W97589  10.271   1.788  14.920
33866W        W97590  13.210   8.724  14.827
33867W        W97591   1.846  22.176  12.872
33868W        W97592   6.244  22.727   2.403
33869W        W97593  24.025  13.161  13.044
33870W        W97594  24.520  37.860  10.088
33871W        W97595   3.787  13.121   0.338
33872W        W97596   1.747   6.734  11.906
33873W        W97597  44.344  35.079   3.209
33874W        W97598  19.593  31.117  13.343
33875W        W97599   9.666  17.262   3.638
33876W        W97600  42.491  21.561   2.392
33877W        W97601   8.196  23.172   0.779
33878W        W97602  23.726  27.988   3.157
33879W        W97603  13.225  29.943   2.407
33880W        W97604  10.369  41.505  13.458
33881W        W97605   0.932  40.447  11.481
33882W        W97606  23.614   8.177  12.453
33883W        W97607  44.893   0.832   9.941
33884W        W97608  38.376   0.377  14.913
33885W        W97609   5.864  38.985   2.304
33886W        W97610  39.053  36.497   2.705
33887W        W97611  20.100   7.318   3.150
33888W        W97612   1.294  14.327  11.515
33889W        W97613   3.344   3.388   3.760
33890W        W97614  13.251  19.136  14.943
33891W        W97615  12.727  14.103   3.287
33892W        W97616  44.976  26.176   0.765
33893W        W97617   5.770  20.260  12.972
33894W        W97618  31.513   8.844  14.449
33895W        W97619   5.719  41.410   4.210
33896W        W97620  17.157  16.238  14.277
33897W        W97621  17.676  10.644   1.259
33898W        W97622  27.648  20.767   0.920
33899W        W97623   9.230   8.346  11.575
33900W        W97624  23.120   1.458   3.843
33901W        W97625  29.138  44.501   3.262
33902W        W97626  42.423   4.290   4.188
33903W        W97627  43.430  34.420   1.784
33904W        W97628  36.497  30.126  14.395
33905W        W97629  14.756  43.771   1.288
33906W        W97630   2.753   0.293  13.493
33907W        W97631  38.559  17.571  13.887
33908W        W97632  35.861   5.284   4.295
33909W        W97633  15.580  30.418   0.415
33910W        W97634  21.033  16.178  11.501
33911W        W97635  43.279  15.214   2.218
33912W        W97636  18.074  37.944   3.374
33913W        W97637  40.328   4.395  12.837
33914W        W97638   6.886  41.341  14.954
33915W        W97639  10.229  22.694   3.160
33916W        W97640  22.151  26.998   1.835
33917W        W97641  11.791  20.722  12.059
33918W        W97642  44.905  40.507   0.855
33919W        W97643  37.564   7.357   3.274
33920W        W97644   0.414  11.839  12.344
33921W        W97645   1.912  34.948   3.686
33922W        W97646   1.355  40.471  14.820
33923W        W97647   1.972   0.980  11.406
33924W        W97648  34.436  12.833   2.284
33925W        W97649  36.513  34.517  13.313
33926W        W97650  27.582  25.646  13.432
33927W        W97651  24.175  36.987  14.440
33928W        W97652  22.586  22.534   4.198
33929W        W97653  23.066  25.216   1.909
33930W        W97654   1.304  27.627   4.666
33931W        W97655  17.203  30.020   0.327
33932W        W97656  11.765  13.322  11.857
33933W        W97657   2.426  14.781   3.645
33934W        W97658  32.081  38.534  12.422
33935W        W97659   1.267   6.186  13.853
33936W        W97660  39.051  13.350   2.201
33937W        W97661  17.067   4.230   1.755
33938W        W97662  20.567  11.665  13.883
33939W        W97663   6.365   6.855  13.915
33940W        W97664  28.109  25.089   3.745
33941W        W97665  26.596   8.771   2.224
33942W        W97666  21.221  19.768  11.462
33943W        W97667   2.830  15.265  12.363
33944W        W97668  29.979  28.668  13.052
33945W        W97669  43.472  22.713   0.789
33946W        W97670  33.876  25.962   1.858
33947W        W97671  28.661   6.783   3.680
33948W        W97672  20.695  40.839   0.386
33949W        W97673   5.323  21.596  12.373
33950W        W97674  41.351  33.990  14.908
33951W        W97675  14.745  37.018   3.855
33952W        W97676  43.943  25.707  10.423
33953W        W97677  39.010   6.236  12.874
33954W        W97678   6.425  19.646   2.318
33955W        W97679  30.112  11.176   3.764
33956W        W97680  35.400  20.768   1.229
33957W        W97681  43.922   8.200  12.049
33958W        W97682  30.918  35.465  11.024
33959W        W97683  39.958  22.203   4.754
33960W        W97684  30.415  27.152   2.310
33961W        W97685  44.269   3.773  13.499
33962W        W97686  33.034   7.846  13.981
33963W        W97687  14.806   1.241  10.493
33964W        W97688   6.870   2.455  13.851
33965W        W97689  34.086  34.570   2.875
33966W        W97690  19.628  43.881  12.378
33967W        W97691   7.349   6.821  13.500
33968W        W97692  34.005  30.604   4.336
33969W        W97693  20.251  40.010  11.592
33970W        W97694   5.366  13.718  13.954
33971W        W97695  25.587   3.247   2.266
33972W        W97696  43.962  15.743   0.391
33973W        W97697  29.145  27.120  12.027
33974W        W97698  36.982  24.697  14.364
33975W        W97699  39.421  10.756   0.438
33976W        W97700  31.597  30.474   0.868
33977W        W97701   4.371  21.659   0.342
33978W        W97702  25.535   4.407  12.512
33979W        W97703   9.664  24.979   3.726
33980W        W97704   1.865  10.166  13.037
33981W        W97705  17.576  44.976   1.439
33982W        W97706   9.668  27.482  12.494
33983W        W97707   1.748  38.436   3.738
33984W        W97708   4.383  10.870  13.357
33985W        W97709   8.199   0.412   1.218
33986W        W97710  22.513  18.605   0.469
33987W        W97711   8.764  23.184  13.482
33988W        W97712  23.091  11.793  12.476
33989W        W97713  21.124  30.641  11.419
33990W        W97714   1.375  18.760  13.028
33991W        W97715  13.117  38.055  14.390
33992W        W97716   3.294  36.444  12.405
33993W        W97717  17.248   1.409  12.073
33994W        W97718   3.752  21.149   4.180
33995W        W97719   1.797  42.482  10.913
33996W        W97720   3.313  13.774   2.332
33997W        W97721  38.342   2.952  13.829
33998W        W97722  10.875  35.552   4.146
33999W        W97723  17.259  30.617   5.224
34000W        W97724  32.005  42.504  13.447
34001W        W97725  28.063  20.627   1.860
34002W        W97726  37.343   6.200  13.998
34003W        W97727   2.396   5.881   1.718
34004W        W97728  22.063  12.632   0.896
34005W        W97729  20.060  40.302   4.156
34006W        W97730  37.443   7.331   4.632
34007W        W97731  43.973   4.300   2.681
34008W        W97732  38.547  37.362  14.486
34009W        W97733   1.313  41.901  11.517
34010W        W97734   8.233  33.048  14.842
34011W        W97735  24.008  34.564  12.032
34012W        W97736   8.228  22.558  14.509
34013W        W97737  30.984  24.112   2.227
34014W        W97738   5.332  33.032   1.423
34015W        W97739  30.511  27.497   2.406
34016W        W97740  18.198  33.392   2.668
34017W        W97741   0.311  27.567   2.178
34018W        W97742  18.094  30.055  10.980
34019W        W97743  13.638  33.952   2.787
34020W        W97744   7.262  31.550   2.823
34021W        W97745  35.453  16.305   1.266
34022W        W97746  25.092  25.097   1.227
34023W        W97747  31.100   9.161  13.962
34024W        W97748  28.116  20.079  11.606
34025W        W97749  37.563  30.054  14.928
34026W        W97750  37.912   2.349   3.195
34027W        W97751  14.694  11.817  13.321
34028W        W97752   5.292   0.748   1.715
34029W        W97753  36.365  40.346   0.325
34030W        W97754  33.107  38.479   0.959
34031W        W97755  30.508  37.846  12.000
34032W        W97756  23.213   7.757   4.781
34033W        W97757  35.545  28.636  11.397
34034W        W97758   5.811   4.841  12.375
34035W        W97759  13.757  21.199   4.349
34036W        W97760  27.080   8.192  14.897
34037W        W97761  10.793  43.953   4.635
34038W        W97762   2.344  20.125   1.868
34039W        W97763  29.061  32.119   0.757
34040W        W97764   8.192  22.675  14.916
34041W        W97765  23.718  26.171   0.317
34042W        W97766  23.634  15.111   4.639
34043W        W97767  36.031  36.924  13.307
34044W        W97768  34.863  27.539   3.205
34045W        W97769  22.194   6.329   0.301
34046W        W97770   5.771   7.371   2.797
34047W        W97771  22.191   8.335   2.814
34048W        W97772  30.075  44.864  12.890
34049W        W97773   0.325  43.507   3.197
34050W        W97774  30.478  18.107  13.011
34051W        W97775   7.732  37.524   0.472
34052W        W97776  29.495  37.416   1.903
34053W        W97777  41.336  27.995  13.453
34054W        W97778  19.228   8.793  13.343
34055W        W97779  44.500  21.602  10.417
34056W        W97780  37.984  21.715  13.894
34057W        W97781  32.535  28.004   2.706
34058W        W97782  32.978  12.121   4.686
34059W        W97783  10.646  36.019  10.946
34060W        W97784  42.427  19.221   0.362
34061W        W97785   1.285  44.355   4.776
34062W        W97786  32.975   4.879  11.416
34063W        W97787  37.910  19.058  11.520
34064W        W97788   4.311  24.219  13.905
34065W        W97789  27.586   9.165   3.240
34066W        W97790  16.228  31.458  11.882
34067W        W97791  42.340  15.276   2.241
34068W        W97792  15.130  11.831   1.858
34069W        W97793  25.574   7.701   2.254
34070W        W97794  38.903   7.874   0.258
34071W        W97795   0.294  22.508  10.917
34072W        W97796  31.008  29.122   0.748
34073W        W97797  24.978  35.417   2.328
34074W        W97798  11.239  35.485  12.441
34075W        W97799   5.858  40.927   1.405
34076W        W97800  34.050  11.628   2.883
34077W        W97801  33.432  16.645   2.812
34078W        W97802  27.140  20.155   4.774
34079W        W97803  17.075  30.427   1.376
34080W        W97804   6.848  30.996   2.186
34081W        W97805  18.564  37.431   2.903
34082W        W97806   1.409  23.006  14.365
34083W        W97807   4.336   0.325  10.549
34084W        W97808  26.569   6.757   3.296
34085W        W97809   7.291   9.169   0.938
34086W        W97810   5.900  17.235   0.370
34087W        W97811  28.178  24.102   4.685
34088W        W97812  16.765  28.999   4.761
34089W        W97813  26.986  24.609  14.358
34090W        W97814  31.546  16.812  10.629
34091W        W97815  42.355   5.383  10.421
34092W        W97816  15.608  12.734  14.795
34093W        W97817  33.474   0.266   1.721
34094W        W97818  12.666  14.655   3.164
34095W        W97819  37.846  35.861  12.925
34096W        W97820   9.174   7.238  10.591
34097W        W97821   8.881  27.668   1.892
34098W        W97822  42.524  44.782   9.615
34099W        W97823  23.516  43.777   1.821
34100W        W97824   1.842  17.061  12.867
34101W        W97825   4.293  39.540  13.950
34102W        W97826  16.598  27.139   2.230
34103W        W97827  44.433   6.877   2.257
34104W        W97828  26.001  20.166   0.834
34105W        W97829  29.089  33.491   2.803
34106W        W97830   5.270  21.688  10.504
34107W        W97831  28.033  19.778  13.047
34108W        W97832  28.539  19.695   0.826
34109W        W97833  36.937   7.684  11.406
34110W        W97834   6.225  19.641  12.046
34111W        W97835  39.931  32.488  11.101
34112W        W97836  41.831  26.081  12.504
34113W        W97837  35.422  13.678   5.601
34114W        W97838   6.376  35.456  12.431
34115W        W97839  24.218   7.337   2.264
34116W        W97840  32.024  23.666  11.935
34117W        W97841  42.002  15.308  11.121
34118W        W97842  15.110   4.296  11.983
34119W        W97843  35.530  35.514   0.376
34120W        W97844  21.645  44.804   4.239
34121W        W97845  16.087   7.197   1.928
34122W        W97846  40.905  15.135   4.829
34123W        W97847  16.625  22.131  11.991
34124W        W97848  27.949   0.446   2.684
34125W        W97849  26.044   1.801   2.338
34126W        W97850   2.801   6.740   3.322
34127W        W97851  39.559  13.628  10.926
34128W        W97852  28.473   8.360  10.130
34129W        W97853  21.520   6.831  11.547
34130W        W97854  22.523  14.812  10.506
34131W        W97855  27.042   2.255  13.321
34132W        W97856  25.087  42.506   1.382
34133W        W97857  39.470  23.184  11.382
34134W        W97858   7.824  32.500  13.447
34135W        W97859  31.481  29.480   0.484
34136W        W97860  34.026  44.355   3.309
34137W        W97861  21.260  16.114   2.302
34138W        W97862  17.630  36.483  13.477
34139W        W97863  27.477  34.896   1.264
34140W        W97864   3.217  43.866  12.048
34141W        W97865  24.051  18.555   2.302
34142W        W97866  41.977  26.112  13.990
34143W        W97867  12.745   3.389   3.262
34144W        W97868  40.025  36.972   5.158
34145W        W97869  44.419  13.338  11.488
34146W        W97870  20.679  39.010  10.901
34147W        W97871  40.982  10.680   2.392
34148W        W97872   7.266  28.001  13.481
34149W        W97873  18.154   8.206  13.433
34150W        W97874  19.242   5.223   3.378
34151W        W97875  34.524   9.752   1.240
34152W        W97876   1.406  10.714   4.737
34153W        W97877  34.999   1.751  14.945
34154W        W97878  17.673  12.165   0.730
34155W        W97879  24.503  19.070   1.734
34156W        W97880   1.466  10.145   3.779
34157W        W97881  15.132  26.602  14.820
34158W        W97882  40.470  19.039   1.770
34159W        W97883  34.537  18.117   3.863
34160W        W97884   3.906  35.017  13.880
34161W        W97885  42.428   7.901  13.878
34162W        W97886  36.859  25.510  12.436
34163W        W97887  29.455   6.717   1.781
34164W        W97888  20.053  12.133   2.746
34165W        W97889  14.601   2.323  13.974
34166W        W97890  27.955  17.768   2.856
34167W        W97891  35.943  26.611   0.404
34168W        W97892  39.962  33.875   4.155
34169W        W97893  31.988  24.721  13.540
34170W        W97894  31.946  26.048   3.718
34171W        W97895  15.700  13.282  10.571
34172W        W97896  12.819   4.917  14.908
34173W        W97897  22.011   7.191   3.716
34174W        W97898  14.111  28.002  14.502
34175W        W97899   2.266  32.465  12.980
34176W        W97900  41.462   1.892   2.664
34177W        W97901  30.157  28.000  13.006
34178W        W97902  36.438  29.525   2.363
34179W        W97903   6.342   8.854  12.926
34180W        W97904  39.375  36.843   2.401
34181W        W97905  28.608  29.107   4.597
34182W        W97906  18.643  38.525   3.631
34183W        W97907   6.317  21.178  14.982
34184W        W97908   6.909   3.389  14.391
34185W        W97909  22.568  33.090   3.175
34186W        W97910  18.287  26.167  13.963
34187W        W97911  20.574  44.406   3.193
34188W        W97912  34.391  22.995  14.841
34189W        W97913  40.806   0.868  14.456
34190W        W97914   5.802  22.550  13.836
34191W        W97915   6.186   3.429   1.418
34192W        W97916  35.594  22.152  14.351
34193W        W97917  29.053  20.657   2.867
34194W        W97918  26.170  28.021   0.963
34195W        W97919  36.495   4.381   2.671
34196W        W97920  42.287  23.009  14.331
34197W        W97921  34.417  38.853   2.817
34198W        W97922   0.755   2.947  10.550
34199W        W97923  28.608  14.335  12.473
34200W        W97924  32.936  22.555   0.856
34201W        W97925  27.453   2.833  13.455
34202W        W97926  20.751  13.237  10.437
34203W        W97927  43.885  39.828   4.650
34204W        W97928  33.924  21.264   0.458
34205W        W97929  41.391   7.736  14.472
34206W        W97930  44.802  11.851  13.860
34207W        W97931   8.847  13.244   0.798
34208W        W97932   6.422  37.479   3.316
34209W        W97933   9.388  17.714   1.216
34210W        W97934   3.282  40.885   1.771
34211W        W97935  25.180  20.571   0.456
34212W        W97936  33.967  31.018   2.258
34213W        W97937  27.983  25.033   9.998
34214W        W97938  11.828  31.059  12.478
34215W        W97939   3.383  16.215  12.080
34216W        W97940   7.716  13.674  14.357
34217W        W97941   8.181   3.810  13.432
34218W        W97942  33.949  35.478  11.433
34219W        W97943  18.147   9.755  12.868
34220W        W97944  32.914  28.434  12.842
34221W        W97945  19.713  19.664   2.750
34222W        W97946  25.679  38.939   3.870
34223W        W97947   6.753   4.845  11.598
34224W        W97948  35.496   3.441  10.564
34225W        W97949  41.906  12.272   1.920
34226W        W97950  40.549  18.661   4.314
34227W        W97951  17.680   5.709  13.843
34228W        W97952  44.997   1.904  10.635
34229W        W97953   8.164  31.064   2.397
34230W        W97954  32.407  21.244  13.989
34231W        W97955  25.609  29.128  14.318
34232W        W97956  37.919  30.952  14.504
34233W        W97957  29.083   1.869   4.651
34234W        W97958  18.153   8.401   2.673
34235W        W97959   1.399  16.219  12.581
34236W        W97960  11.647  40.008  13.973
34237W        W97961  16.679   0.956   0.881
34238W        W97962   2.793  18.705   1.319
34239W        W97963   9.320  40.461  14.015
34240W        W97964  33.884  41.028  12.513
34241W        W97965  33.917   2.830   4.812
34242W        W97966  30.020  43.936  12.839
34243W        W97967  43.999  10.798   4.285
34244W        W97968  42.288  39.818   2.899
34245W        W97969   9.298  30.513  11.601
34246W        W97970  33.530  39.031  12.933
34247W        W97971   9.736  23.501  12.055
34248W        W97972  15.196   0.889   2.740
34249W        W97973   7.688  41.864  12.894
34250W        W97974  23.221  28.629   3.775
34251W        W97975  27.072   5.333  11.057
34252W        W97976  26.155  18.672   3.210
34253W        W97977  28.603   6.416   1.924
34254W        W97978  27.111   7.216   4.226
34255W        W97979   0.411  42.329   1.770
34256W        W97980   4.782  12.234   0.446
34257W        W97981   6.407   4.397  11.067
34258W        W97982  13.767  18.602  13.935
34259W        W97983   3.240  29.576   0.856
34260W        W97984  29.086   6.759  13.983
34261W        W97985  30.105   4.268  13.955
34262W        W97986   0.340  16.592   4.699
34263W        W97987   0.870   2.418  13.401
34264W        W97988  19.679  10.157   0.450
34265W        W97989  33.904  30.556  14.998
34266W        W97990   4.879   1.972  13.428
34267W        W97991  40.968  23.660  13.531
34268W        W97992   3.811   7.402   0.919
34269W        W97993  11.259   2.855  12.448
34270W        W97994  33.055   6.309  10.424
34271W        W97995  14.645  20.260   2.203
34272W        W97996  15.259  16.759  12.097
34273W        W97997  16.693  15.282  14.405
34274W        W97998  43.487  12.707   3.633
34275W        W97999  33.128  42.305   4.737
34276W        W98000  11.191   6.262  13.498
34277W        W98001   2.243  39.949  14.355
34278W        W98002  21.192   2.920  13.388
34279W        W98003  35.103   1.798   3.217
34280W        W98004  28.113  37.370  12.092
34281W        W98005   8.176   3.397  12.449
34282W        W98006  33.385  14.186  12.082
34283W        W98007  40.450  38.436   3.731
34284W        W98008  16.742  42.951  14.912
34285W        W98009  24.657  27.503  14.991
34286W        W98010  20.740  41.880  14.277
34287W        W98011  25.113   9.311   5.260
34288W        W98012  13.652   2.728   5.133
34289W        W98013  34.921  12.144  11.483
34290W        W98014  38.894  35.455  10.618
34291W        W98015  25.038  30.577   3.230
34292W        W98016   1.951  22.227   4.678
34293W        W98017  33.541  38.460  14.477
34294W        W98018  24.178  17.297   4.678
34295W        W98019  44.824  29.024  12.387
34296W        W98020  12.770  24.219  14.855
34297W        W98021  31.419  20.057   2.310
34298W        W98022  41.485  11.320   0.364
34299W        W98023  24.557  33.085  11.054
34300W        W98024  20.762  18.566  14.326
34301W        W98025  22.660  37.977   9.981
34302W        W98026  23.654  32.609  12.869
34303W        W98027  23.544  40.012   4.655
34304W        W98028  27.943   8.897  13.015
34305W        W98029  13.189  36.034  14.394
34306W        W98030  39.387  36.400   0.955
34307W        W98031  18.144  44.450  14.030
34308W        W98032   7.896  37.426   5.167
34309W        W98033  33.064  24.634  14.852
34310W        W98034  32.938  22.696   1.344
34311W        W98035  17.236  17.768   3.369
34312W        W98036  18.143   0.965  13.000
34313W        W98037   8.697  27.950  10.984
34314W        W98038  37.000   9.694   0.767
34315W        W98039  28.497  13.735   4.676
34316W        W98040  10.366  20.599  14.962
34317W        W98041   6.191  17.795   1.813
34318W        W98042  12.729  11.208  11.923
34319W        W98043   8.797  27.004   2.823
34320W        W98044  24.049   0.472   3.859
34321W        W98045  20.527  37.391   1.333
34322W        W98046  39.377  40.419   4.179
34323W        W98047   2.281  35.432  10.541
34324W        W98048   4.426  39.055  14.994
34325W        W98049  13.269  10.721   3.311
34326W        W98050  15.156   0.833   1.229
34327W        W98051  28.544  28.163  13.532
34328W        W98052  26.493  26.075  12.392
34329W        W98053  44.954  29.545  12.477
34330W        W98054  36.871  32.002   4.169
34331W        W98055  21.100  32.582   0.879
34332W        W98056  30.565  35.510   4.294
34333W        W98057  43.805  41.919   4.809
34334W        W98058  15.086  16.629   3.305
34335W        W98059  43.412  14.626   2.273
34336W        W98060  12.217  39.850  12.374
34337W        W98061  40.373   1.449   4.267
34338W        W98062   0.824  23.207  12.956
34339W        W98063  11.323  27.063  10.448
34340W        W98064   9.704  41.360  12.830
34341W        W98065  37.020   0.369   0.254
34342W        W98066   4.801  36.013  14.022
34343W        W98067  28.630  17.100  13.823
34344W        W98068  15.696  14.748  13.993
34345W        W98069  36.873  19.117  10.539
34346W        W98070  24.067   2.384  13.376
34347W        W98071  19.097  32.594  14.461
34348W        W98072  26.134   3.735  13.042
34349W        W98073  13.749  16.642   3.153
34350W        W98074  16.766  14.750   0.941
34351W        W98075  16.112  34.916   0.337
34352W        W98076  19.146  40.049  12.021
34353W        W98077   1.749  29.109   2.754
34354W        W98078  33.927  10.152  11.082
34355W        W98079  28.003  14.797   2.248
34356W        W98080  27.004  16.777  13.444
34357W        W98081  26.571  31.028  12.044
34358W        W98082  34.537   3.315  12.566
34359W        W98083   4.425  15.696  13.793
34360W        W98084  15.811  11.329   2.867
34361W        W98085   2.429  39.541  12.430
34362W        W98086   2.459  12.642  10.106
34363W        W98087  38.052  26.118   3.742
34364W        W98088  44.473  32.415   0.369
34365W        W98089  19.047  17.692  11.118
34366W        W98090  41.789  25.564   0.845
34367W        W98091  19.743  12.331  10.455
34368W        W98092  29.097  33.004   0.352
34369W        W98093   4.831   3.880  10.504
34370W        W98094  32.901  37.492  11.468
34371W        W98095   8.320  34.531   3.335
34372W        W98096   1.792   8.868  13.030
34373W        W98097  21.584  13.731   0.876
34374W        W98098  15.619  29.524   4.815
34375W        W98099  15.758   5.921  11.888
34376W        W98100  39.424  34.110   3.326
34377W        W98101  43.503  20.604  12.856
34378W        W98102  20.167  18.127  12.466
34379W        W98103  14.810  29.544   0.401
34380W        W98104  28.505   9.683  14.899
34381W        W98105  40.809  23.631   2.288
34382W        W98106  35.453  26.661  12.351
34383W        W98107  20.541  19.708   1.714
34384W        W98108  40.989  12.352   1.308
34385W        W98109  21.085  40.934   2.413
34386W        W98110   9.714  14.101   4.789
34387W        W98111  41.410  27.493  13.840
34388W        W98112  33.443  23.583  14.006
34389W        W98113   7.694   8.847  13.376
34390W        W98114  10.179  13.792  12.913
34391W        W98115  14.673  21.666   0.877
34392W        W98116  22.638  42.867  13.839
34393W        W98117  37.874  41.036  12.445
34394W        W98118  39.055  15.289  14.004
34395W        W98119  26.208  34.913   3.386
34396W        W98120  37.077  37.459   1.414
34397W        W98121  41.398  29.099   0.799
34398W        W98122  39.930  44.895   2.217
34399W        W98123   4.919  44.504   0.925
34400W        W98124  14.659  31.472   3.167
34401W        W98125  34.053  21.575  11.034
34402W        W98126   1.372  29.603   1.918
34403W        W98127  29.476  41.916  13.476
34404W        W98128  20.677  26.154   3.679
34405W        W98129   5.857  27.983  10.611
34406W        W98130   6.191  19.046   3.295
34407W        W98131  12.121   8.783   3.652
34408W        W98132  35.862  13.637  12.850
34409W        W98133  35.406  29.127   2.298
34410W        W98134  43.434  11.778  13.307
34411W        W98135  18.113  24.074  13.972
34412W        W98136  40.862  37.424  14.351
34413W        W98137  15.264  27.032   2.796
34414W        W98138  17.214  20.096  11.533
34415W        W98139   9.689  15.783   3.363
34416W        W98140  24.020   2.461   1.418
34417W        W98141  36.849   7.790   1.876
34418W        W98142  33.947   9.777  11.560
34419W        W98143  19.136  41.024   4.216
34420W        W98144  33.557  14.809  12.514
34421W        W98145  16.602  28.011  12.842
34422W        W98146   7.711  36.082  14.278
34423W        W98147   0.923  26.479  11.031
34424W        W98148  19.231   2.898   1.425
34425W        W98149  42.904   5.351  12.354
34426W        W98150  23.237  18.154  12.907
34427W        W98151  19.678  16.292   1.271
34428W        W98152  15.168  16.073  10.980
34429W        W98153   0.926  43.485  14.388
34430W        W98154  44.905  43.407   0.314
34431W        W98155  18.292   6.677   3.659
34432W        W98156  32.629  14.125  13.530
34433W        W98157  40.855   5.332   0.442
34434W        W98158  43.962  23.654   1.286
34435W        W98159   1.750  12.354  11.570
34436W        W98160  26.587  15.093   3.322
34437W        W98161  39.941  24.491   3.249
34438W        W98162  12.709   0.983   4.234
34439W        W98163  28.058  36.913  10.419
34440W        W98164  32.074  13.169  14.452
34441W        W98165  22.620  23.595   3.363
34442W        W98166  19.060   6.769  10.501
34443W        W98167  27.187  11.852  10.547
34444W        W98168  41.392   0.376   0.339
34445W        W98169  19.194  43.340  11.430
34446W        W98170  32.585  44.359   2.826
34447W        W98171  26.549  11.158   3.382
34448W        W98172  42.775  10.656  13.937
34449W        W98173  25.985  39.513  14.442
34450W        W98174  34.391  37.010   0.433
34451W        W98175   1.329  35.369   0.799
34452W        W98176  27.477  12.636  11.947
34453W        W98177   2.396  30.452   0.443
34454W        W98178  16.310  42.780  13.434
34455W        W98179  17.080  36.568  12.388
34456W        W98180  28.060  19.277   2.216
34457W        W98181  14.649  31.599  12.575
34458W        W98182  31.143   8.225  12.958
34459W        W98183  44.870  14.629  12.418
34460W        W98184  20.174  33.402  11.102
34461W        W98185  23.533  22.502   0.455
34462W        W98186  23.647  10.294  13.001
34463W        W98187   6.204  37.499   1.733
34464W        W98188   8.165  27.037  11.490
34465W        W98189   2.852   7.360  12.346
34466W        W98190  22.108  17.719  14.304
34467W        W98191   1.351  14.296   3.218
34468W        W98192   5.387  31.591  13.793
34469W        W98193  32.396  43.477   4.121
34470W        W98194  28.961  31.914  14.939
34471W        W98195  25.507  29.548  10.429
34472W        W98196  41.505  28.087   5.301
34473W        W98197  21.026  10.827  14.784
34474W        W98198  21.219  43.321  14.882
34475W        W98199  14.308  28.668   3.821
34476W        W98200  31.614  41.376   4.119
34477W        W98201  28.580  13.629  12.492
34478W        W98202  26.198   8.660   1.848
34479W        W98203  39.056   2.907   0.740
34480W        W98204  15.161  43.414  14.965
34481W        W98205  39.548  13.755   1.253
34482W        W98206   1.840  42.907  13.864
34483W        W98207  37.079  42.989  11.376
34484W        W98208   8.829  10.335   5.153
34485W        W98209  20.576  41.523  11.079
34486W        W98210  10.663  33.130  12.418
34487W        W98211  19.663  35.489   1.216
34488W        W98212  10.212   0.459  14.464
34489W        W98213  35.486   8.359   3.718
34490W        W98214  20.672  30.517   0.956
34491W        W98215   1.373  30.931   1.415
34492W        W98216  36.429  27.638  11.976
34493W        W98217  25.588  27.563   0.831
34494W        W98218  32.558  15.798   1.783
34495W        W98219   4.718   9.801  14.293
34496W        W98220  15.317  40.936  14.474
34497W        W98221  27.501   9.716  13.932
34498W        W98222  36.945  34.483   2.364
34499W        W98223  15.712  13.784  12.051
34500W        W98224  40.546  30.424   4.290
34501W        W98225  32.616  11.676   0.779
34502W        W98226   6.699  16.086   3.230
34503W        W98227  42.021  32.976   4.709
34504W        W98228   4.279   9.177   3.643
34505W        W98229  44.917  34.019  10.453
34506W        W98230  27.163  28.456  12.863
34507W        W98231  35.599  10.203   2.295
34508W        W98232   6.686  11.801   4.267
34509W        W98233  19.158  31.975   1.813
34510W        W98234  33.441  25.995   3.158
34511W        W98235   1.320  13.292  11.577
34512W        W98236  32.052  43.335  13.791
34513W        W98237  32.991  28.040  12.069
34514W        W98238  22.071   6.336  11.094
34515W        W98239  30.642  27.516   4.322
34516W        W98240  36.920  32.984  10.439
34517W        W98241  36.551  13.833  12.073
34518W        W98242  42.418  42.013  14.438
34519W        W98243   1.946  34.080   4.151
34520W        W98244  43.440  31.425   1.214
34521W        W98245  42.295  13.221   2.255
34522W        W98246   4.368   8.169   0.934
34523W        W98247  39.396  31.009   1.288
34524W        W98248  32.097  29.558   4.698
34525W        W98249  26.611   7.846  14.385
34526W        W98250  43.857  43.354  14.769
34527W        W98251  25.540  22.204   0.907
34528W        W98252  29.065  44.335  11.898
34529W        W98253  39.441   6.379   0.366
34530W        W98254  25.996  13.714   0.963
34531W        W98255  24.493  11.682   1.378
34532W        W98256  15.137  37.890   0.335
34533W        W98257  33.996   2.862   0.436
34534W        W98258  25.471  13.313  12.912
34535W        W98259  28.447   6.918  13.850
34536W        W98260  31.113   4.803  12.982
34537W        W98261  30.565  14.659   0.263
34538W        W98262  19.555  23.003  14.505
34539W        W98263  38.486  34.108   1.752
34540W        W98264   9.376  18.188   0.782
34541W        W98265  32.010  25.544   2.888
34542W        W98266   3.437  23.120  10.469
34543W        W98267  41.894   4.907  12.518
34544W        W98268   1.975   6.877   2.717
34545W        W98269   4.351  31.928  13.313
34546W        W98270  27.135  23.107   3.654
34547W        W98271  37.414  26.650   2.760
34548W        W98272   7.180  15.687   2.306
34549W        W98273  26.517   7.280   0.384
34550W        W98274  38.049  23.171  13.885
34551W        W98275  21.043  13.628  10.466
34552W        W98276  40.824  32.449  12.443
34553W        W98277  23.006   6.765   1.706
34554W        W98278  35.063  38.511   0.437
34555W        W98279  31.072   4.387  10.573
34556W        W98280  35.476  35.092  11.941
34557W        W98281  23.037  24.179  12.001
34558W        W98282  41.358  38.027  13.547
34559W        W98283  34.110  24.073  14.013
34560W        W98284  29.663  43.973  14.764
34561W        W98285  42.355  38.007  12.457
34562W        W98286  16.236  29.575   2.363
34563W        W98287  41.989   4.431  11.600
34564W        W98288  34.096  29.126  13.483
34565W        W98289   6.791  43.935   1.865
34566W        W98290  31.149  30.516   0.808
34567W        W98291  13.711  28.050  14.911
34568W        W98292  29.569  34.447   1.440
34569W        W98293  39.493  32.050  12.838
34570W        W98294  33.041  38.327  12.069
34571W        W98295  10.223  33.068  13.045
34572W        W98296   1.747  24.504  12.009
34573W        W98297   6.253  14.620   3.812
34574W        W98298   6.795  41.040  13.854
34575W        W98299   9.876  17.292   2.307
34576W        W98300  11.808   5.736   4.233
34577W        W98301  28.156   9.688  14.412
34578W        W98302  25.475  10.268  12.903
34579W        W98303  20.107  28.658   4.817
34580W        W98304  13.765  22.742   4.832
34581W        W98305  19.670  41.931  11.989
34582W        W98306  31.551   2.242  13.502
34583W        W98307  27.479   7.402   3.814
34584W        W98308  27.506  22.657  13.860
34585W        W98309  44.772  34.397  14.354
34586W        W98310   4.250  36.939  10.488
34587W        W98311  28.583   1.355  12.992
34588W        W98312  26.190  36.386  14.778
34589W        W98313  31.643  35.510   1.315
34590W        W98314  15.309   8.900  12.893
34591W        W98315  11.662  19.114  11.891
34592W        W98316  38.397  44.469  12.073
34593W        W98317   5.772  27.976   3.777
34594W        W98318  42.324   1.443  14.978
34595W        W98319  36.370  26.995  13.017
34596W        W98320  35.584   3.743  11.514
34597W        W98321  19.158  23.711  12.954
34598W        W98322   9.192  19.058   4.763
34599W        W98323  43.503  22.024  13.371
34600W        W98324  17.071  16.259   3.189
34601W        W98325  12.809  20.177   0.422
34602W        W98326  34.394   4.706   4.262
34603W        W98327  23.714  40.400  13.993
34604W        W98328  36.845  34.536  12.566
34605W        W98329   8.326  10.141   4.717
34606W        W98330  44.795  23.127  10.937
34607W        W98331  34.472   2.770  14.795
34608W        W98332  37.564   5.275   1.318
34609W        W98333  39.812  30.544   2.366
34610W        W98334  36.473  43.426  12.953
34611W        W98335  37.439  27.003  13.548
34612W        W98336  22.656  27.176   2.211
34613W        W98337  31.116   2.832   1.703
34614W        W98338  15.261   4.384   1.932
34615W        W98339  42.329  42.881  14.832
34616W        W98340  29.558  24.146  13.833
34617W        W98341  27.496  39.853   0.856
34618W        W98342  31.039  16.215   2.763
34619W        W98343  15.233   4.376  14.866
34620W        W98344   9.760   7.326  10.501
34621W        W98345  32.603  44.827   3.827
34622W        W98346   1.398  18.687  14.842
34623W        W98347  41.323  35.370   2.684
34624W        W98348  41.319  42.459   1.323
34625W        W98349  36.420   9.695  12.933
34626W        W98350   1.813  24.724   3.346
34627W        W98351  37.063  42.786   1.361
34628W        W98352  27.493   2.950   1.800
34629W        W98353  23.719  32.391  13.908
34630W        W98354  28.558  21.046   3.181
34631W        W98355   2.434  38.936   1.219
34632W        W98356   6.827  24.021   0.813
34633W        W98357  44.372  25.180  12.990
34634W        W98358  30.644  11.188   3.323
34635W        W98359  34.033   5.885  11.905
34636W        W98360  32.414  39.950   4.600
34637W        W98361  40.831  11.350   0.827
34638W        W98362  36.490  20.710  12.837
34639W        W98363  16.633  12.280  11.101
34640W        W98364   5.200  16.587   4.735
34641W        W98365   0.959  33.582  11.594
34642W        W98366  32.011  16.140   4.161
34643W        W98367  29.123   1.260  12.838
34644W        W98368  31.973  41.515   0.271
34645W        W98369  24.171  38.972   4.352
34646W        W98370  40.991  11.722  10.432
34647W        W98371  33.062  29.624  13.040
34648W        W98372   2.878  27.106  12.434
34649W        W98373  16.203  39.978  13.453
34650W        W98374   5.785   0.764   4.259
34651W        W98375   7.324  14.143   4.340
34652W        W98376  30.644   4.931   4.632
34653W        W98377  33.550   0.749  12.937
34654W        W98378   4.715  27.112   4.671
34655W        W98379   9.667  20.088  13.886
34656W        W98380   1.280  20.711  11.128
34657W        W98381  35.972   2.384  10.641
34658W        W98382  32.912  33.989  10.909
34659W        W98383  24.119  35.019  11.069
34660W        W98384   6.701  38.416  12.380
34661W        W98385  29.486  17.698   2.415
34662W        W98386  18.211  15.316   1.402
34663W        W98387  15.792   6.886   3.207
34664W        W98388  17.712  17.784   2.765
34665W        W98389   7.777  36.592  12.946
34666W        W98390  37.424  32.057   2.245
34667W        W98391  13.208  28.480  13.318
34668W        W98392  14.199   1.399   1.288
34669W        W98393  35.105  28.002  11.879
34670W        W98394  23.088   5.698  12.400
34671W        W98395   8.848  43.311  14.018
34672W        W98396  26.163   9.766  11.529
34673W        W98397   9.295  37.460   2.827
34674W        W98398   1.964  14.219  11.115
34675W        W98399  18.258  42.864  12.442
34676W        W98400  38.513  33.909  12.977
34677W        W98401  34.996  12.831   2.838
34678W        W98402  26.674  28.131  11.950
34679W        W98403  36.402  38.854   2.333
34680W        W98404  19.059   6.272  13.445
34681W        W98405  23.585   2.272  11.962
34682W        W98406  33.504  25.578   3.248
34683W        W98407  27.008  40.933   3.160
34684W        W98408  12.195  19.609   4.697
34685W        W98409  15.660  34.465   3.205
34686W        W98410   2.467   5.420  13.835
34687W        W98411  25.639  35.414   4.723
34688W        W98412  24.048  39.940   4.305
34689W        W98413  32.413  17.561   3.768
34690W        W98414  28.493  17.661  12.440
34691W        W98415   8.331  32.083  12.390
34692W        W98416  21.569  17.073  11.930
34693W        W98417  29.426  40.312   3.318
34694W        W98418  18.734   1.933   2.848
34695W        W98419  27.686  44.942   2.853
34696W        W98420  30.914   9.242   3.148
34697W        W98421  42.358  17.757  10.437
34698W        W98422  40.427  10.356  14.874
34699W        W98423  20.649  39.045  14.418
34700W        W98424  12.126   4.863  10.493
34701W        W98425  35.550   8.217   0.802
34702W        W98426  43.001  22.594   0.884
34703W        W98427  20.550  21.570   2.376
34704W        W98428  34.562  10.345   3.691
34705W        W98429  23.044   9.245  10.913
34706W        W98430  26.036  10.851   1.826
34707W        W98431  26.607  20.700   1.321
34708W        W98432   9.380  34.499   1.375
34709W        W98433  29.647  26.180   2.178
34710W        W98434   2.886   2.226   2.417
34711W        W98435  20.223  22.560   2.302
34712W        W98436  41.921   2.847  12.560
34713W        W98437  10.738  31.607  13.032
34714W        W98438  42.009   7.863  11.456
34715W        W98439  29.444  29.583   1.748
34716W        W98440   8.182  43.409   2.309
34717W        W98441   6.861  16.200  14.000
34718W        W98442  21.697  23.500  11.098
34719W        W98443  30.519  28.964   1.241
34720W        W98444  38.537  44.994   0.752
34721W        W98445  43.454  43.441   5.123
34722W        W98446  22.213  30.096   0.878
34723W        W98447   0.319   9.685  11.124
34724W        W98448  16.726  43.464  14.329
34725W        W98449  16.676  37.917  11.592
34726W        W98450  17.617  42.464   3.384
34727W        W98451  30.544  10.371   3.361
34728W        W98452  11.133  41.858   1.734
34729W        W98453  42.988  24.615  13.957
34730W        W98454  26.968  32.005   4.742
34731W        W98455  25.694  25.080  12.988
34732W        W98456   4.436  12.845   1.756
34733W        W98457  10.662   2.467  11.050
34734W        W98458  42.027  21.581  10.625
34735W        W98459  22.601   7.770   3.375
34736W        W98460  29.086  37.910   3.807
34737W        W98461  19.727  16.114   5.692
34738W        W98462  11.225  17.158   2.779
34739W        W98463  35.505   2.823   3.774
34740W        W98464  18.633  41.952   2.746
34741W        W98465  24.562  10.640   2.879
34742W        W98466   0.775  32.436   0.351
34743W        W98467  34.526  33.581  14.996
34744W        W98468  38.469   9.150  14.344
34745W        W98469  38.823  15.720   1.753
34746W        W98470  20.652  43.352  13.019
34747W        W98471  33.611  26.536  10.631
34748W        W98472  25.700  18.203  10.905
34749W        W98473  37.040  44.450   4.198
34750W        W98474  15.638  22.646  13.870
34751W        W98475  35.490  26.510  14.321
34752W        W98476  24.119  34.604   1.710
34753W        W98477  20.721  20.556   3.852
34754W        W98478  17.164  37.004  12.075
34755W        W98479  13.247   1.918  10.097
34756W        W98480  39.955  42.029   1.926
34757W        W98481   7.900  23.207  10.567
34758W        W98482  42.823  10.148  12.973
34759W        W98483   3.953  26.014   1.353
34760W        W98484  16.220  17.606   4.742
34761W        W98485  31.576  20.233   0.785
34762W        W98486  25.632  32.038  10.443
34763W        W98487  13.701  36.078   0.370
34764W        W98488  25.062  24.603  12.991
34765W        W98489  16.681  39.876  13.359
34766W        W98490  13.703  43.389  11.000
34767W        W98491   8.785   8.337  14.419
34768W        W98492  34.418  35.966  11.122
34769W        W98493  25.201  19.701   4.812
34770W        W98494  13.738  12.323  13.370
34771W        W98495  17.614   0.448   1.830
34772W        W98496  21.209   4.850   0.425
34773W        W98497   4.724  36.536  11.602
34774W        W98498   7.681   2.255   0.796
34775W        W98499  33.597   9.692   2.295
34776W        W98500  11.201  31.493  11.001
34777W        W98501  29.465  26.507  11.112
34778W        W98502   4.329  31.055  10.461
34779W        W98503  15.246  30.008  12.465
34780W        W98504  25.996  16.603   4.695
34781W        W98505  29.498  28.595  12.971
34782W        W98506   2.338  17.280  13.350
34783W        W98507  36.382  23.670  10.598
34784W        W98508  28.476  20.559  14.443
34785W        W98509  18.582  21.684  12.449
34786W        W98510  34.987   5.195  14.366
34787W        W98511  30.010  16.097   0.780
34788W        W98512   3.720  29.487  11.977
34789W        W98513  22.065  31.943   3.673
34790W        W98514  26.494  16.610  13.474
34791W        W98515  11.190   0.253   2.327
34792W        W98516   4.846  44.279  10.405
34793W        W98517  38.022  26.057   4.731
34794W        W98518  22.693  40.457  12.435
34795W        W98519  32.454  12.164   4.260
34796W        W98520  22.738  33.876  13.377
34797W        W98521  19.656   9.841  14.862
34798W        W98522  34.907  28.495  13.355
34799W        W98523  36.859   5.392   0.440
34800W        W98524  43.283  43.786   2.255
34801W        W98525  37.529   0.407  12.027
34802W        W98526   6.790  24.663   3.213
34803W        W98527  12.854  26.008  11.967
34804W        W98528  20.652  22.201   2.374
34805W        W98529  28.146   6.315   1.728
34806W        W98530  10.743  41.373  13.859
34807W        W98531  43.876   8.283   2.293
34808W        W98532  27.618   1.935   0.968
34809W        W98533   1.353   2.823  14.812
34810W        W98534   2.805  25.531  11.867
34811W        W98535  14.321  41.811  10.929
34812W        W98536  41.935  15.699   3.843
34813W        W98537  38.524  33.001  14.877
34814W        W98538  24.507  28.136   4.295
34815W        W98539  19.741  42.438   4.733
34816W        W98540  38.877  19.637  14.894
34817W        W98541   8.314  26.955  13.987
34818W        W98542  27.541  17.275  13.868
34819W        W98543  37.581   9.336  14.430
34820W        W98544  28.929  10.810   2.397
34821W        W98545  33.411  13.265   4.138
34822W        W98546  39.991  30.003   1.857
34823W        W98547  11.798   3.233   4.787
34824W        W98548  15.684  31.432  10.067
34825W        W98549  40.844  35.853   1.854
34826W        W98550  34.420  35.452   3.378
34827W        W98551   0.423  20.098  12.534
34828W        W98552   4.431  32.939  12.980
34829W        W98553   4.416   6.241   2.676
34830W        W98554  24.151   4.447  13.800
34831W        W98555  32.393  19.103   0.906
34832W        W98556   0.935  38.389   3.797
34833W        W98557   5.264  30.414  14.960
34834W        W98558  19.538  40.870   3.807
34835W        W98559  20.153  33.918  13.423
34836W        W98560  33.424  14.300   4.140
34837W        W98561   3.915  21.546  10.991
34838W        W98562  27.024  26.115   2.225
34839W        W98563  18.063  40.389   3.842
34840W        W98564   8.163  11.800  11.912
34841W        W98565   6.351   9.248  12.561
34842W        W98566   8.168  35.591  13.818
34843W        W98567  12.711   5.324  12.376
34844W        W98568   4.844   9.233  11.459
34845W        W98569  34.414  43.863   1.797
34846W        W98570  22.723   5.832   1.332
34847W        W98571   2.263  12.210   1.441
34848W        W98572   1.412   2.872  14.301
34849W        W98573  30.057  18.113  14.030
34850W        W98574  11.689  44.335   5.200
34851W        W98575  11.339  32.991   0.880
34852W        W98576  15.221  41.339  13.946
34853W        W98577  13.241  28.057  11.567
34854W        W98578  16.664  32.888   2.733
34855W        W98579   8.746  41.439   4.661
34856W        W98580   5.434  35.365   4.798
34857W        W98581  24.077   1.852  13.503
34858W        W98582   5.925   0.954   2.887
34859W        W98583  41.906  40.499   0.394
34860W        W98584   6.783  21.235  13.415
34861W        W98585   4.788  27.487  12.852
34862W        W98586  35.860   6.909  13.982
34863W        W98587   1.871  40.463   4.728
34864W        W98588   2.317   7.182  12.861
34865W        W98589   8.363  22.526   4.687
34866W        W98590  32.139   3.224  10.042
34867W        W98591   5.390  30.564   5.114
34868W        W98592  35.086  33.055  13.943
34869W        W98593  22.057  14.319   0.333
34870W        W98594  36.460  20.177   4.330
34871W        W98595  12.621  37.337   4.282
34872W        W98596   2.783   2.243  12.533
34873W        W98597  13.328  21.610   3.831
34874W        W98598   3.327  20.559   2.358
34875W        W98599   2.950  41.399  13.977
34876W        W98600  31.555  32.949   2.210
34877W        W98601   0.322   8.190   2.359
34878W        W98602  18.235  21.513   4.812
34879W        W98603  19.739  12.334  14.974
34880W        W98604  38.392  11.260  11.128
34881W        W98605   2.852   9.699  12.914
34882W        W98606  39.457   9.348  12.494
34883W        W98607   9.686  18.200   1.228
34884W        W98608  31.623  15.187  14.835
34885W        W98609  44.313  12.647   1.869
34886W        W98610  21.713  13.649  11.089
34887W        W98611  23.154  28.620   0.291
34888W        W98612  35.554  41.974  10.568
34889W        W98613  10.342  25.596   3.809
34890W        W98614  22.588  29.497  12.482
34891W        W98615  26.202   8.838  12.380
34892W        W98616  33.943  39.492  13.328
34893W        W98617   2.292   5.740   3.355
34894W        W98618  29.956   5.297  14.423
34895W        W98619  31.149  32.627  10.470
34896W        W98620  22.011   2.770  14.316
34897W        W98621  23.004  26.516  14.971
34898W        W98622  43.494   3.449   1.816
34899W        W98623   3.767  14.673   3.299
34900W        W98624  34.070   0.292   1.928
34901W        W98625   4.268  37.830   4.636
34902W        W98626   8.279  25.575   1.386
34903W        W98627  18.748   3.917  11.534
34904W        W98628  43.361  22.191   0.932
34905W        W98629  10.150  14.288   3.641
34906W        W98630  12.774   1.882   0.244
34907W        W98631   9.861  11.792   1.905
34908W        W98632  23.602  41.345  13.357
34909W        W98633  33.026  16.282   0.779
34910W        W98634  22.087  38.046   0.768
34911W        W98635  30.563  19.558  14.422
34912W        W98636  20.663  40.312  12.846
34913W        W98637  40.799  13.283   0.739
34914W        W98638  19.249  22.075   3.774
34915W        W98639  17.217  24.687  11.399
34916W        W98640  12.663  29.008   2.275
34917W        W98641  22.636   0.362   0.360
34918W        W98642  35.401  32.956   2.670
34919W        W98643  43.924   0.782   1.887
34920W        W98644  14.319  27.945   2.767
34921W        W98645  17.183  15.148  14.797
34922W        W98646   6.259   5.793  13.316
34923W        W98647  34.584  30.558   1.270
34924W        W98648  11.189  17.252   4.676
34925W        W98649  12.769  27.153   3.297
34926W        W98650  16.694  18.208   4.274
34927W        W98651  27.568  25.635   4.186
34928W        W98652  37.486   6.800   1.903
34929W        W98653  43.400  44.300  13.814
34930W        W98654  42.428   1.430  11.423
34931W        W98655  36.412  39.961  13.415
34932W        W98656   8.164  18.752  12.446
34933W        W98657  29.009  11.722   9.972
34934W        W98658   5.276  27.605  10.603
34935W        W98659  36.469  13.292  12.361
34936W        W98660  15.738   6.335  12.051
34937W        W98661   7.291  16.622  13.382
34938W        W98662  16.672  31.097  11.933
34939W        W98663  28.982  25.483  11.870
34940W        W98664   1.733  40.912   4.309
34941W        W98665  36.578  21.208  11.059
34942W        W98666   6.363   5.890   0.964
34943W        W98667  15.252  30.553  13.533
34944W        W98668  12.755   6.194   0.368
34945W        W98669   0.416  32.998   2.238
34946W        W98670  32.403  30.518  13.879
34947W        W98671  43.828  41.346  11.888
34948W        W98672  30.100  38.345  10.991
34949W        W98673  28.519  39.937  13.542
34950W        W98674  32.924  20.674  10.416
34951W        W98675  19.672  31.525  10.462
34952W        W98676  18.077   8.779  12.969
34953W        W98677  14.775  20.224   0.887
34954W        W98678   4.215   6.706   2.201
34955W        W98679  38.837  25.495   9.439
34956W        W98680  14.758  38.457  12.832
34957W        W98681   5.830  31.492   2.835
34958W        W98682  31.519  14.634   0.444
34959W        W98683  31.600  24.111  12.038
34960W        W98684  29.569  27.155  12.412
34961W        W98685  25.133  11.303   1.906
34962W        W98686  12.629  10.669  12.536
34963W        W98687   8.404  14.790   3.200
34964W        W98688  12.166  34.543   4.674
34965W        W98689  29.013   2.308   0.813
34966W        W98690  15.667  21.608   1.419
34967W        W98691  27.000  12.127   4.627
34968W        W98692  37.533  27.184   5.154
34969W        W98693  35.580   6.676   0.331
34970W        W98694   9.301  12.316   4.212
34971W        W98695  30.639   7.177   2.889
34972W        W98696   2.250  38.963   3.362
34973W        W98697   4.280  16.072   4.323
34974W        W98698  32.075  14.307   2.407
34975W        W98699  40.841  22.208  11.406
34976W        W98700  34.068  31.614  13.400
34977W        W98701  41.882  16.594  11.035
34978W        W98702  24.565  34.030   3.838
34979W        W98703  16.111  32.096   0.260
34980W        W98704  19.691  36.860   2.875
34981W        W98705  37.043  25.596   1.397
34982W        W98706  18.727   2.264  12.562
34983W        W98707  28.021  39.858  12.450
34984W        W98708  41.381   3.931  12.084
34985W        W98709  32.580  11.211   4.332
34986W        W98710  12.819  18.103   1.758
34987W        W98711  26.484  28.553  10.473
34988W        W98712  44.370  10.326   2.743
34989W        W98713  20.129   6.734   3.812
34990W        W98714   9.755  20.667  11.548
34991W        W98715  34.902  22.125   1.387
34992W        W98716  21.141  23.112  11.559
34993W        W98717  35.505  10.716  12.832
34994W        W98718  35.374   3.886   1.856
34995W        W98719   5.926  19.608  14.431
34996W        W98720  39.510  42.282  12.041
34997W        W98721  19.774   5.748   4.638
34998W        W98722  41.380  15.100   4.722
34999W        W98723  39.975   3.251   1.408
35000W        W98724  30.423   1.324   2.900
35001W        W98725  21.658  37.860   4.217
35002W        W98726  26.652   0.403  13.988
35003W        W98727   3.716   7.903  13.971
35004W        W98728  10.275  27.162   2.181
35005W        W98729  44.393  38.000  13.402
35006W        W98730  40.830  12.753   4.140
35007W        W98731  31.108   7.398  10.469
35008W        W98732  26.991  28.117  12.462
35009W        W98733  35.374  25.057   0.443
35010W        W98734  26.162  27.537  12.939
35011W        W98735  40.989  22.540  14.417
35012W        W98736  17.713  42.357   3.811
35013W        W98737  23.193  35.436   1.901
35014W        W98738  13.748  12.659   2.277
35015W        W98739  35.907  12.730  14.469
35016W        W98740  41.871  17.707   0.826
35017W        W98741  10.754  11.298   0.891
35018W        W98742  43.407  15.721  13.532
35019W        W98743  34.579  13.708   2.201
35020W        W98744  38.066  14.296  11.122
35021W        W98745  19.096  28.019  10.576
35022W        W98746  18.586  16.154  11.971
35023W        W98747  30.539  12.142  12.073
35024W        W98748  27.683  43.514   2.669
35025W        W98749  18.661   4.342   0.430
35026W        W98750  21.143   2.310  13.814
35027W        W98751  40.023   9.381   4.160
35028W        W98752  17.748  15.644  14.471
35029W        W98753  31.540  18.715   4.299
35030W        W98754  22.079  10.291   4.742
35031W        W98755  18.623   0.263   2.392
35032W        W98756  41.485  14.620  10.447
35033W        W98757   3.922  10.876  11.425
35034W        W98758  13.613  42.943  12.998
35035W        W98759  15.703  18.113   2.403
35036W        W98760  20.603  37.070  11.502
35037W        W98761  14.801   6.850  10.041
35038W        W98762   4.349  29.579  12.568
35039W        W98763  33.424  19.133  14.882
35040W        W98764  11.784  42.917  11.108
35041W        W98765   7.311  26.584   2.340
35042W        W98766  23.651  26.155   5.162
35043W        W98767  40.354   9.659   2.701
35044W        W98768  10.710  11.264  12.442
35045W        W98769  26.112  21.040   4.299
35046W        W98770  12.125  39.554  11.986
35047W        W98771   2.376   4.434  13.339
35048W        W98772  14.693   6.362   2.234
35049W        W98773  15.585  10.296  10.485
35050W        W98774   7.795  24.109  12.420
35051W        W98775  28.645  14.179   4.640
35052W        W98776  24.101  35.414   3.766
35053W        W98777  33.484  21.143   4.183
35054W        W98778  17.172  35.373   0.759
35055W        W98779  16.289  22.618   2.774
35056W        W98780  25.627  42.518  13.948
35057W        W98781  38.974  17.295   1.867
35058W        W98782  40.474  38.361  12.473
35059W        W98783  16.743  30.163   0.442
35060W        W98784  39.400   4.289   3.842
35061W        W98785  41.450  34.614  10.908
35062W        W98786  35.536   8.232  13.053
35063W        W98787  35.100   2.868   3.259
35064W        W98788   2.941  42.858   4.121
35065W        W98789  12.330   7.702  14.515
35066W        W98790   1.812   8.709  12.517
35067W        W98791  13.649  14.183   0.273
35068W        W98792  19.697  40.046   3.190
35069W        W98793  14.617  17.706  12.864
35070W        W98794  34.921  35.451  10.999
35071W        W98795  31.544  40.523   2.314
35072W        W98796  24.072  43.799  13.504
35073W        W98797  31.094  38.558   0.802
35074W        W98798   8.160   5.202   4.221
35075W        W98799  41.411  15.710  12.067
35076W        W98800   4.425  16.655   2.222
35077W        W98801  33.908  39.380   4.814
35078W        W98802  39.359  30.011  13.530
35079W        W98803  21.645  22.224  11.415
35080W        W98804  31.628  11.158   3.364
35081W        W98805   3.746  13.792   1.814
35082W        W98806  15.819  39.938   4.338
35083W        W98807  35.980   0.765  12.479
35084W        W98808   8.767  42.997   4.807
35085W        W98809  16.200  32.980   1.215
35086W        W98810  26.120  39.547   0.353
35087W        W98811   7.315  40.039  10.519
35088W        W98812   3.955   8.291   0.256
35089W        W98813   6.709  32.973  13.926
35090W        W98814  33.592  17.645  11.859
35091W        W98815  15.195  18.703  13.385
35092W        W98816   6.351  44.484  11.479
35093W        W98817  33.025  40.992  13.996
35094W        W98818  25.010  10.870  13.378
35095W        W98819  24.674  14.708   2.392
35096W        W98820  13.261   3.259  14.976
35097W        W98821  36.080  36.968   1.303
35098W        W98822  34.077  33.431   1.440
35099W        W98823  27.581  28.948   0.263
35100W        W98824   9.801   6.329  10.421
35101W        W98825   8.181   6.417  14.341
35102W        W98826  34.941   7.837   3.201
35103W        W98827  14.104   8.692   1.386
35104W        W98828  41.442   8.729   3.866
35105W        W98829   6.389  28.059   0.479
35106W        W98830   7.252   4.236  10.434
35107W        W98831  41.005  44.824   0.361
35108W        W98832  26.204  20.112  11.378
35109W        W98833   1.759   0.914  14.982
35110W        W98834   2.957  10.314   2.745
35111W        W98835   0.408  11.146   1.386
35112W        W98836  42.285  17.111   3.362
35113W        W98837   8.302  19.175   0.380
35114W        W98838  12.720  19.215   0.806
35115W        W98839   0.966  17.801   3.216
35116W        W98840  33.983  27.626   0.330
35117W        W98841  38.552  43.854   0.754
35118W        W98842  44.923  31.630  13.975
35119W        W98843  36.075  13.758   0.379
35120W        W98844  25.970  15.740  14.876
35121W        W98845   5.208  14.590   2.823
35122W        W98846  25.683  38.325  11.508
35123W        W98847   4.253   4.828  13.455
35124W        W98848  27.182   7.414   2.245
35125W        W98849   7.388   5.902  11.559
35126W        W98850  26.680  28.669  13.445
35127W        W98851  35.000  35.955   2.662
35128W        W98852  13.243  34.896  13.395
35129W        W98853  43.381   3.351  14.988
35130W        W98854  30.053  35.389  13.475
35131W        W98855   2.271  18.240  10.629
35132W        W98856  21.656  20.696  11.519
35133W        W98857  25.652   2.966  14.485
35134W        W98858  18.777   8.743  14.494
35135W        W98859  26.534  17.560  14.824
35136W        W98860  21.559  40.994   5.126
35137W        W98861  31.085  36.500  13.529
35138W        W98862  39.038  39.916   0.436
35139W        W98863   8.825  14.190  13.338
35140W        W98864   4.366  39.529   2.381
35141W        W98865  33.573   6.762  14.775
35142W        W98866  30.107  35.959  13.468
35143W        W98867  16.779  28.623  11.933
35144W        W98868  24.504   9.228  14.863
35145W        W98869  16.126  44.448   1.892
35146W        W98870  32.438  27.047   1.397
35147W        W98871  27.564  11.647  13.974
35148W        W98872  17.747   5.423  11.426
35149W        W98873  37.548  16.803  10.147
35150W        W98874   1.803  42.466   3.845
35151W        W98875  12.332  29.622   4.168
35152W        W98876   8.894  27.037  14.485
35153W        W98877  13.765  11.777   4.715
35154W        W98878  27.453  25.011  12.853
35155W        W98879   8.707  19.646  13.307
35156W        W98880  27.193  33.552  10.635
35157W        W98881  30.415  42.829   1.863
35158W        W98882  19.536  18.551  13.466
35159W        W98883   3.785  28.017  10.588
35160W        W98884  14.264  16.701   3.249
35161W        W98885  40.525   7.275   1.286
35162W        W98886   2.775   5.275   3.682
35163W        W98887  31.091  44.910  11.535
35164W        W98888  40.798  17.738   4.265
35165W        W98889  26.487  11.267  10.929
35166W        W98890   4.237   8.752   0.880
35167W        W98891  44.478  15.691  10.475
35168W        W98892   0.299  25.678  11.605
35169W        W98893  43.337  17.635   0.430
35170W        W98894  37.054   5.313  12.381
35171W        W98895  23.724  17.599  11.077
35172W        W98896   3.927  30.516   0.276
35173W        W98897  13.790  26.637   1.448
35174W        W98898  27.188   5.765   0.894
35175W        W98899   7.817  40.407  13.533
35176W        W98900  32.603  32.929  11.942
35177W        W98901  38.967  11.229   1.733
35178W        W98902  22.071  37.905   5.287
35179W        W98903   2.302  36.888   0.737
35180W        W98904  22.052  11.766  12.489
35181W        W98905   1.797  11.303  10.937
35182W        W98906   2.799  36.437   2.877
35183W        W98907   6.418  44.972  14.838
35184W        W98908  17.584  17.579   3.737
35185W        W98909   6.323  44.922   1.929
35186W        W98910  24.672  29.646  14.023
35187W        W98911  25.196  28.050   1.218
35188W        W98912   7.877  10.354  14.995
35189W        W98913   4.791   6.713   3.342
35190W        W98914  23.194  36.524   1.878
35191W        W98915  24.193  29.436   3.244
35192W        W98916   3.781   8.857   1.887
35193W        W98917  12.770   0.984   3.373
35194W        W98918  28.493  19.106  12.095
35195W        W98919   6.687  43.396  11.500
35196W        W98920  39.456  40.868  14.802
35197W        W98921   5.212  31.447  11.921
35198W        W98922  22.215  30.570   0.872
35199W        W98923  43.378  12.125   2.828
35200W        W98924  40.927  28.617  14.322
35201W        W98925  31.107  23.547   2.797
35202W        W98926  10.285  10.208   0.734
35203W        W98927  36.542  34.410  13.052
35204W        W98928  34.008  28.966  11.068
35205W        W98929  15.630  23.070   1.846
35206W        W98930  14.128  43.007   0.797
35207W        W98931   2.739  13.675  13.499
35208W        W98932  33.568  24.686   4.268
35209W        W98933  31.045  18.636  11.924
35210W        W98934   3.364  40.526  13.010
35211W        W98935   5.779   7.337  14.439
35212W        W98936  33.498  23.105  13.958
35213W        W98937  12.344   4.877  12.037
35214W        W98938   7.739  13.777   0.414
35215W        W98939  33.587   7.873  14.462
35216W        W98940  41.397  15.309   3.863
35217W        W98941  30.573  17.603   3.850
35218W        W98942  30.099  32.036  12.047
35219W        W98943  12.636   8.817  10.545
35220W        W98944  20.707  40.375   2.775
35221W        W98945  36.985  14.128   4.702
35222W        W98946   6.384  18.283  11.979
35223W        W98947  30.505  43.311   0.399
35224W        W98948  41.292  34.919  13.040
35225W        W98949  25.136  43.991  13.839
35226W        W98950  26.036   3.322   2.321
35227W        W98951  30.625  32.561   4.319
35228W        W98952  32.432   3.276   0.251
35229W        W98953  14.771  23.180   4.332
35230W        W98954  25.042  20.158  10.604
35231W        W98955  14.600  15.686   3.188
35232W        W98956  11.187   1.479   3.196
35233W        W98957  11.236  44.935   4.130
35234W        W98958  29.138  13.696   1.927
35235W        W98959  25.000  29.649  10.920
35236W        W98960  39.978  16.797   0.447
35237W        W98961   7.414  29.012   1.342
35238W        W98962   7.392  43.772   2.199
35239W        W98963  37.026   1.751  10.443
35240W        W98964  10.373  17.161  11.414
35241W        W98965   8.315   3.433  12.858
35242W        W98966  32.498   7.826   3.829
35243W        W98967  17.750  20.529  11.896
35244W        W98968  35.479   4.376  10.892
35245W        W98969  44.822  14.726   0.439
35246W        W98970  16.279  11.651  10.607
35247W        W98971  39.981  22.033   1.835
35248W        W98972   1.859   8.791   3.696
35249W        W98973   2.748  31.987   0.381
35250W        W98974  30.572  28.558  14.818
35251W        W98975  42.318  10.758  13.013
35252W        W98976   8.209  36.442  13.797
35253W        W98977  42.290   3.283  12.068
35254W        W98978  38.051  19.121   2.680
35255W        W98979   0.904  23.703   1.225
35256W        W98980   4.874   9.269   3.179
35257W        W98981  38.409  32.946   1.407
35258W        W98982   6.228  38.966   0.768
35259W        W98983  17.718  26.617  11.026
35260W        W98984  27.072  22.149   0.411
35261W        W98985  40.933  32.539  10.528
35262W        W98986  17.736  21.743   1.290
35263W        W98987  31.934  37.409   3.802
35264W        W98988  34.610  10.744   0.906
35265W        W98989   5.735  16.112  12.081
35266W        W98990  20.069  44.367   4.339
35267W        W98991   7.883  37.507   2.732
35268W        W98992   1.467  15.722   3.386
35269W        W98993   4.295  32.403  12.058
35270W        W98994  28.181  27.508   4.794
35271W        W98995  25.535  17.799   4.623
35272W        W98996  10.636  10.774  13.322
35273W        W98997  35.458  38.978   4.245
35274W        W98998   4.924  20.248  14.913
35275W        W98999  38.485  43.816   2.225
35276W        W99000  18.754  33.959  14.303
35277W        W99001  22.236  28.027   3.869
35278W        W99002  21.534  37.426  11.947
35279W        W99003   2.843  12.775  12.882
35280W        W99004  36.590  24.226  13.792
35281W        W99005  29.543  22.616  13.333
35282W        W99006  11.725   2.800   0.777
35283W        W99007   2.249  20.058  12.052
35284W        W99008   2.408  20.152   3.632
35285W        W99009  30.943  14.213  14.293
35286W        W99010  14.743  37.874  13.372
35287W        W99011   8.739  32.019   1.870
35288W        W99012  35.993  15.763   3.238
35289W        W99013  12.615   5.933   1.912
35290W        W99014  32.503  35.405   4.256
35291W        W99015  18.187  44.816   0.955
35292W        W99016  15.309   4.935   1.861
35293W        W99017   4.218  26.546   2.331
35294W        W99018  15.178   3.830  12.428
35295W        W99019   2.762  38.028   3.309
35296W        W99020  18.644   8.693  11.446
35297W        W99021  21.666  10.863   0.746
35298W        W99022  32.133   5.706   1.395
35299W        W99023  18.784   1.431   2.699
35300W        W99024  28.942  39.405   3.217
35301W        W99025  38.508  43.270  14.836
35302W        W99026  15.135  38.926   4.243
35303W        W99027  19.559  13.239  11.510
35304W        W99028  31.524  41.435  13.409
35305W        W99029  16.636   0.765   4.269
35306W        W99030  22.601  14.689   4.177
35307W        W99031  35.406  19.167  14.809
35308W        W99032  27.005  35.578  13.936
35309W        W99033   4.743   5.874  11.474
35310W        W99034  41.325  24.701   0.337
35311W        W99035  22.628  31.643   4.283
35312W        W99036  23.492   5.198   0.482
35313W        W99037  13.164  35.949  11.581
35314W        W99038  44.870  24.974  11.100
35315W        W99039  37.850  20.038   2.374
35316W        W99040   2.848   8.777  14.370
35317W        W99041  14.594  32.576   0.316
35318W        W99042  29.666   8.379   3.710
35319W        W99043  35.945  43.275  13.535
35320W        W99044   1.451  19.599  13.998
35321W        W99045  41.908  40.479  14.334
35322W        W99046  28.000  18.173  10.889
35323W        W99047  28.951  31.058  14.390
35324W        W99048  28.530  13.116  12.949
35325W        W99049   3.420  33.069  14.891
35326W        W99050  28.532  27.571  13.834
35327W        W99051  32.478  20.745  12.932
35328W        W99052   2.232  13.179  14.887
35329W        W99053  43.005   2.763  11.457
35330W        W99054  26.043  43.950   3.639
35331W        W99055  23.234  33.131  12.430
35332W        W99056  44.979  20.054  13.028
35333W        W99057  39.817   3.240  12.827
35334W        W99058   7.298   5.424  14.481
35335W        W99059   7.227   8.743   2.346
35336W        W99060  27.001  23.107   0.739
35337W        W99061   7.768  19.238   4.186
35338W        W99062   1.872  40.323   1.348
35339W        W99063  42.461  32.397   3.770
35340W        W99064  31.111  22.253  14.905
35341W        W99065   1.961   1.436   2.231
35342W        W99066  11.157  21.668   0.296
35343W        W99067  26.670  19.049  11.611
35344W        W99068  12.808  34.533  14.375
35345W        W99069   7.849  20.096  14.414
35346W        W99070  11.662  37.067  11.440
35347W        W99071  19.147  24.028   0.940
35348W        W99072   2.277  38.914  14.902
35349W        W99073  19.097  29.487  14.433
35350W        W99074  28.951  30.149   4.620
35351W        W99075  25.009  25.561   4.753
35352W        W99076  42.291  35.029  14.341
35353W        W99077  10.657  24.668  14.978
35354W        W99078  24.201  15.626   1.413
35355W        W99079   8.174   4.782   1.926
35356W        W99080  20.693  27.186   4.693
35357W        W99081  17.654  38.982  12.380
35358W        W99082  44.483  15.159  10.037
35359W        W99083  41.380  27.678  11.378
35360W        W99084  26.985  36.061   2.296
35361W        W99085  38.501   4.936  12.510
35362W        W99086  17.695   8.364  14.019
35363W        W99087  28.678  24.203  12.899
35364W        W99088  36.587   2.285  11.108
35365W        W99089   9.876  36.577   3.668
35366W        W99090  44.901  42.427   1.222
35367W        W99091   4.827  43.326   2.802
35368W        W99092  13.162  22.211   1.719
35369W        W99093  44.477   9.711  10.409
35370W        W99094   6.344  32.885  14.478
35371W        W99095   0.252  11.689   4.242
35372W        W99096   0.954   4.347  14.985
35373W        W99097  37.483  14.331   3.251
35374W        W99098   1.873  19.548  11.110
35375W        W99099   6.280  39.498   0.245
35376W        W99100   0.946  14.643   1.297
35377W        W99101  11.751  41.445  12.382
35378W        W99102  28.124  35.489   3.651
35379W        W99103  24.555  38.477   4.602
35380W        W99104  15.751   1.916  13.332
35381W        W99105  28.966  23.090   1.761
35382W        W99106  40.033   6.330   1.424
35383W        W99107  22.192  33.601   1.229
35384W        W99108  32.099  24.575   0.422
35385W        W99109  34.041  15.169  13.994
35386W        W99110  14.281  28.661   3.172
35387W        W99111  39.862  21.672  12.902
35388W        W99112  23.641  40.907   2.317
35389W        W99113  38.346  39.516   2.796
35390W        W99114   2.958  37.926  12.069
35391W        W99115  14.822  27.988  11.107
35392W        W99116   4.733  27.518   1.279
35393W        W99117  41.343  13.796   4.782
35394W        W99118   9.288  19.254  11.551
35395W        W99119  29.063  26.636  11.122
35396W        W99120  23.545   8.216   4.633
35397W        W99121   6.241   4.335   1.880
35398W        W99122  27.668  25.962  13.923
35399W        W99123   7.352  15.585  12.483
35400W        W99124  16.720   4.258  12.396
35401W        W99125   1.879   3.835   2.254
35402W        W99126  35.094  17.155   1.721
35403W        W99127  10.866   6.726   4.663
35404W        W99128  29.055  13.317   4.771
35405W        W99129   3.292  30.076  14.492
35406W        W99130  21.557  15.099   9.992
35407W        W99131   6.275  27.944   1.747
35408W        W99132  32.413  14.649  14.464
35409W        W99133   4.224  26.049  14.409
35410W        W99134  23.589  24.693  12.570
35411W        W99135  39.809   5.328   2.316
35412W        W99136  24.716  17.272   3.771
35413W        W99137  25.601  23.599  11.424
35414W        W99138  31.136   7.182  13.799
35415W        W99139  11.780  25.052   2.794
35416W        W99140  36.843  24.124  11.866
35417W        W99141  25.166  42.491  12.905
35418W        W99142   4.221  17.647  10.997
35419W        W99143  34.565  38.855  11.960
35420W        W99144   4.393   5.916  13.837
35421W        W99145  14.737  17.641   0.252
35422W        W99146  32.138  30.968  11.901
35423W        W99147   1.858  26.186   4.162
35424W        W99148  17.678  36.437   3.232
35425W        W99149  40.392  26.071  13.009
35426W        W99150  31.120  44.344   2.828
35427W        W99151  26.528   3.863  13.316
35428W        W99152  19.188  19.276   3.281
35429W        W99153   8.731   7.857  12.442
35430W        W99154  43.349  34.100   2.807
35431W        W99155  16.626   4.209  12.959
35432W        W99156  37.961   3.878  14.479
35433W        W99157  22.208  41.341  14.898
35434W        W99158  17.084  10.872   4.277
35435W        W99159   7.901  43.842   2.708
35436W        W99160   3.385   3.746  12.043
35437W        W99161   7.299  21.732  11.388
35438W        W99162  39.020  14.810  14.937
35439W        W99163   4.235  38.855   0.942
35440W        W99164  20.063  42.431  13.328
35441W        W99165   1.961  31.131  10.501
35442W        W99166   3.410   4.759  12.555
35443W        W99167  29.164  26.173  14.762
35444W        W99168   9.793  38.522   3.681
35445W        W99169   0.841   3.267  13.323
35446W        W99170  20.098  16.682   4.182
35447W        W99171  11.280   1.463  10.495
35448W        W99172  30.092   2.867  10.463
35449W        W99173   9.188  43.504   4.164
35450W        W99174  32.985  24.724  13.836
35451W        W99175  38.973  20.191   4.282
35452W        W99176  26.019  28.623   2.722
35453W        W99177  42.827  14.094   1.237
35454W        W99178  22.063  36.091  10.624
35455W        W99179  22.130   9.800   1.399
35456W        W99180  38.886   4.344   0.477
35457W        W99181   4.244  15.770  13.030
35458W        W99182  29.430  34.491   9.990
35459W        W99183  31.091   8.776   5.266
35460W        W99184  29.919   7.785   1.842
35461W        W99185  43.302  34.974   1.228
35462W        W99186  20.539  18.693  13.436
35463W        W99187  15.281  31.068   3.844
35464W        W99188  12.832   6.825  12.001
35465W        W99189  15.167  25.600   4.253
35466W        W99190  41.459  42.002   2.753
35467W        W99191  23.629   9.181   1.832
35468W        W99192  22.240  33.397   0.270
35469W        W99193  27.518  41.339  10.959
35470W        W99194  18.207   6.833   3.240
35471W        W99195  26.951  13.128  14.276
35472W        W99196  11.813  20.765  12.366
35473W        W99197  42.344  17.583  14.949
35474W        W99198  34.504  28.591  14.923
35475W        W99199   3.214  37.890  11.006
35476W        W99200  15.613  17.178  11.569
35477W        W99201   8.887  13.655   3.686
35478W        W99202  34.384   7.682  12.038
35479W        W99203  28.464  14.651   3.385
35480W        W99204   7.782  34.989  11.055
35481W        W99205  13.731  14.755  10.628
35482W        W99206  26.967  20.752   0.814
35483W        W99207  13.266  15.297   1.842
35484W        W99208  43.868  29.958  12.910
35485W        W99209   6.715   2.289  14.396
35486W        W99210  30.636  39.398   4.215
35487W        W99211  15.705   3.331  14.853
35488W        W99212  38.554  12.236   4.620
35489W        W99213  15.227   7.269  12.489
35490W        W99214   5.286   5.293   3.737
35491W        W99215  38.533  15.691  12.482
35492W        W99216  18.129  25.091   2.302
35493W        W99217   2.926  18.752   0.428
35494W        W99218  27.617   9.175   3.713
35495W        W99219  15.727  14.835  14.293
35496W        W99220   0.316  10.250  13.906
35497W        W99221  29.499  35.369   3.678
35498W        W99222  35.569  33.452   1.735
35499W        W99223  16.607  44.315  11.439
35500W        W99224  41.472  17.266   2.282
35501W        W99225   8.311  34.419   4.836
35502W        W99226  28.092  40.799   1.874
35503W        W99227  34.604  16.219   5.718
35504W        W99228   2.390   5.199   1.327
35505W        W99229  33.024  13.244  12.899
35506W        W99230  33.594  17.260   0.392
35507W        W99231  14.264  36.043  14.993
35508W        W99232  40.923  10.341  14.891
35509W        W99233  30.137   1.748  11.983
35510W        W99234   5.422  35.405   4.243
35511W        W99235  21.109  32.044   1.733
35512W        W99236  15.186  44.819   2.852
35513W        W99237  42.387  37.079  14.306
35514W        W99238  31.978  34.517   1.742
35515W        W99239   8.316  32.003   1.815
35516W        W99240  44.496  22.501  11.865
35517W        W99241  36.867  12.183   0.254
35518W        W99242  12.163  40.496  14.382
35519W        W99243  43.418  28.944  12.565
35520W        W99244  39.487  15.316  14.348
35521W        W99245  21.038  23.140  12.506
35522W        W99246   1.914  29.112  11.100
35523W        W99247  16.189  11.804   4.298
35524W        W99248   9.713  33.043  12.004
35525W        W99249   7.827   7.679  12.982
35526W        W99250  14.276   8.209  13.330
35527W        W99251  40.905   1.919  13.004
35528W        W99252  22.248  31.572   3.677
35529W        W99253  15.583  28.966   1.877
35530W        W99254  23.023  16.155   3.149
35531W        W99255  24.210   6.339  13.548
35532W        W99256  38.372   7.864   3.832
35533W        W99257  40.804   2.283  13.314
35534W        W99258  25.689   7.412  10.975
35535W        W99259  36.465  14.133   0.382
35536W        W99260   9.763  12.813   5.290
35537W        W99261   6.382   1.744   4.746
35538W        W99262  18.578  31.645  13.425
35539W        W99263  29.527  32.997  12.399
35540W        W99264  41.929  42.521   2.827
35541W        W99265  35.896  12.795  10.609
35542W        W99266  25.655  18.226   3.809
35543W        W99267  36.983  26.608  11.005
35544W        W99268  44.392   7.328   1.387
35545W        W99269  12.186  27.678   1.898
35546W        W99270  23.657   1.820   3.243
35547W        W99271  38.392   6.757  11.389
35548W        W99272  11.191   1.335   0.432
35549W        W99273   8.799  18.248  12.381
35550W        W99274  21.137  25.512  13.985
35551W        W99275  31.125  14.612  11.939
35552W        W99276  41.980  28.625   1.888
35553W        W99277   2.891  19.262   1.405
35554W        W99278  36.037   0.313   0.425
35555W        W99279  38.867  39.415  14.830
35556W        W99280  35.955   2.926   4.598
35557W        W99281  40.513  27.197   0.332
35558W        W99282  13.135   3.454  11.000
35559W        W99283  43.333  16.793  12.438
35560W        W99284   9.266  31.488  14.368
35561W        W99285  31.556  17.788  12.905
35562W        W99286   8.342  13.235  14.458
35563W        W99287   9.775  27.085  14.761
35564W        W99288  35.922  38.844  13.447
35565W        W99289  12.659  17.065   3.655
35566W        W99290  23.205  18.184   3.177
35567W        W99291   9.720  21.680  14.301
35568W        W99292  44.477   9.259  10.907
35569W        W99293  19.600   2.285   0.322
35570W        W99294  10.735   0.874  10.613
35571W        W99295   2.413  24.190   4.115
35572W        W99296  11.853  16.589  12.998
35573W        W99297  18.779  23.145   0.855
35574W        W99298  28.493  44.770  13.509
35575W        W99299   2.899  37.524   2.240
35576W        W99300  25.583  11.627   3.364
35577W        W99301   4.771  35.507   2.241
35578W        W99302   2.750  19.072   3.637
35579W        W99303  31.569  31.557   3.793
35580W        W99304  17.627  16.122   0.313
35581W        W99305  24.197   4.422  12.366
35582W        W99306  12.815  38.856  11.125
35583W        W99307  12.343  21.244  14.328
35584W        W99308  42.845  43.320   5.266
35585W        W99309  32.509   5.847  14.773
35586W        W99310   1.957  32.060  14.297
35587W        W99311  19.230  14.201   3.272
35588W        W99312  18.266  28.519   0.333
35589W        W99313  41.442  37.086   5.083
35590W        W99314  42.503  35.103  14.009
35591W        W99315  23.714   1.311   3.657
35592W        W99316  36.427   4.311   1.399
35593W        W99317  12.188  44.760  12.925
35594W        W99318  40.469  27.486   2.820
35595W        W99319  36.533  12.220   1.713
35596W        W99320  35.017  28.602   4.675
35597W        W99321  28.081  39.830   0.281
35598W        W99322  40.323  12.753  11.501
35599W        W99323  20.694   8.333   0.443
35600W        W99324  13.720  43.515   3.329
35601W        W99325  16.118  23.732  10.639
35602W        W99326   9.300  44.766   1.402
35603W        W99327  12.855   3.320  13.990
35604W        W99328  38.058  20.140  13.434
35605W        W99329  43.799  23.105  12.494
35606W        W99330  16.783   0.305   4.300
35607W        W99331  19.560  37.983   0.805
35608W        W99332  22.663  44.895   3.311
35609W        W99333  27.508  30.479   2.742
35610W        W99334   0.888  12.804   4.662
35611W        W99335  23.133  22.692   1.372
35612W        W99336  34.455  23.110   4.149
35613W        W99337  38.333  11.250  13.831
35614W        W99338   1.848   0.866   4.808
35615W        W99339  11.720  36.554   0.359
35616W        W99340  31.132   5.243   4.173
35617W        W99341  23.003  16.769   1.433
35618W        W99342  37.949  32.045   1.224
35619W        W99343  28.610  23.209   2.778
35620W        W99344   5.349   7.176  11.098
35621W        W99345   7.750  35.498  12.030
35622W        W99346  24.484  20.594  10.939
35623W        W99347  30.508  40.888   3.868
35624W        W99348  33.468  44.947  10.571
35625W        W99349  41.981  31.025   2.218
35626W        W99350  44.944  25.502   0.814
35627W        W99351  37.462  12.331  11.986
35628W        W99352  39.475  25.488   2.313
35629W        W99353  35.527  34.923  14.353
35630W        W99354  32.971  34.574   1.262
35631W        W99355  22.617  21.033  11.569
35632W        W99356  20.554  29.556   4.622
35633W        W99357  40.362  16.292   2.199
35634W        W99358   6.342   4.746   0.306
35635W        W99359  24.984  22.220  13.982
35636W        W99360  36.478  24.988   2.762
35637W        W99361  11.202  11.299  10.507
35638W        W99362  24.524  22.198   2.779
35639W        W99363  16.242  20.132  10.537
35640W        W99364  16.783  39.491  11.594
35641W        W99365  25.046   0.912   5.282
35642W        W99366  19.658  26.471   3.380
35643W        W99367   0.311  20.140   3.675
35644W        W99368  36.577   1.454   2.309
35645W        W99369  37.017  32.008   0.881
35646W        W99370  22.645   2.937   2.742
35647W        W99371  41.888  29.667  14.374
35648W        W99372  39.001  42.813  13.538
35649W        W99373  12.361  28.083  14.771
35650W        W99374  20.666  44.007  14.284
35651W        W99375  29.504  14.132   4.235
35652W        W99376  39.967  36.558  10.024
35653W        W99377  17.256  35.038   5.143
35654W        W99378  30.141   5.751   4.619
35655W        W99379   3.833  25.073  13.345
35656W        W99380  20.578   6.274   4.642
35657W        W99381  23.581  13.689  12.037
35658W        W99382  43.008  42.337  10.481
35659W        W99383  24.608  18.186  11.598
35660W        W99384  26.189  23.681   4.697
35661W        W99385   2.959  15.670   0.959
35662W        W99386  30.438   2.315   2.316
35663W        W99387  15.727  13.294   1.893
35664W        W99388  41.348  18.178  12.470
35665W        W99389  35.499  24.598   3.178
35666W        W99390  18.167  39.349   4.665
35667W        W99391   8.741  19.594  14.438
35668W        W99392  10.683   3.952  11.002
35669W        W99393  41.965  17.109   2.869
35670W        W99394  34.031  19.610  11.500
35671W        W99395  11.770  27.505   2.388
35672W        W99396  38.429  10.827  10.424
35673W        W99397  17.743  20.674   2.695
35674W        W99398  18.623  18.133   0.342
35675W        W99399  33.915  33.582   2.392
35676W        W99400   1.481   2.338   3.210
35677W        W99401  14.188   9.729   0.880
35678W        W99402   2.915  22.664   2.738
35679W        W99403   0.429  21.617   0.935
35680W        W99404  25.698  43.881   0.884
35681W        W99405  37.069  10.168   4.129
35682W        W99406   8.355  32.896   4.323
35683W        W99407   5.930   7.397  11.008
35684W        W99408   9.761  21.211   0.866
35685W        W99409  34.973  39.492   4.294
35686W        W99410   6.710  31.491  13.327
35687W        W99411  28.625   0.283  14.482
35688W        W99412   9.809  31.609   4.287
35689W        W99413  25.031   0.410   2.846
35690W        W99414  23.643  33.894   2.677
35691W        W99415  24.194  26.553  10.094
35692W        W99416  32.972  25.089  12.375
35693W        W99417  43.808  32.136   2.847
35694W        W99418   8.793  19.199   1.438
35695W        W99419   8.355  15.148   0.820
35696W        W99420  14.790  37.961  12.939
35697W        W99421   4.840  11.262  12.927
35698W        W99422  15.207   3.929   0.917
35699W        W99423  29.470   7.387   5.112
35700W        W99424  23.161  44.860  11.054
35701W        W99425  20.666  13.625   0.307
35702W        W99426  35.392  38.983   2.663
35703W        W99427  14.318  16.572   2.828
35704W        W99428  27.672  28.594   3.331
35705W        W99429   8.874  43.359   4.223
35706W        W99430   4.215  44.827   3.182
35707W        W99431   8.697  42.023   1.446
35708W        W99432  21.168  13.249   4.198
35709W        W99433  11.631  41.360   3.802
35710W        W99434  34.989  28.435   4.281
35711W        W99435   0.778  34.370  14.908
35712W        W99436  28.458  34.588   3.863
35713W        W99437  19.089   3.399  12.928
35714W        W99438  27.089  43.774   2.670
35715W        W99439   6.818  37.961  13.831
35716W        W99440   6.289  21.113   0.355
35717W        W99441   9.310   8.313   3.687
35718W        W99442  13.180  14.252   4.338
35719W        W99443  14.793  38.847  12.365
35720W        W99444  31.906  13.285   3.343
35721W        W99445   1.829   1.842   4.249
35722W        W99446  27.575  41.030   3.237
35723W        W99447  16.147  42.822   1.334
35724W        W99448  12.296   3.309   4.732
35725W        W99449  19.780  29.469   2.876
35726W        W99450  23.592   9.717   4.156
35727W        W99451   5.228  43.939  14.792
35728W        W99452  16.672  38.977  10.078
35729W        W99453   1.310  15.200   2.695
35730W        W99454  34.976  17.073  13.376
35731W        W99455  29.135   0.391  11.029
35732W        W99456  31.401  29.056  11.997
35733W        W99457   2.252  39.416   2.210
35734W        W99458   2.309  35.079   1.236
35735W        W99459  25.216  21.180   9.958
35736W        W99460  18.165  29.476  10.474
35737W        W99461  33.421   3.851   3.260
35738W        W99462  16.081   8.897   2.784
35739W        W99463  19.591  13.607  12.359
35740W        W99464  17.583  15.757  13.467
35741W        W99465  37.935  13.167   1.308
35742W        W99466   3.245  24.032   3.283
35743W        W99467  34.495  33.962  13.981
35744W        W99468  38.854  12.244  12.374
35745W        W99469  39.516  28.054   3.778
35746W        W99470   3.755  37.355  10.160
35747W        W99471  31.464  29.575   0.751
35748W        W99472  34.412  23.649  10.540
35749W        W99473  11.190   8.797   2.716
35750W        W99474  19.668  33.505  11.865
35751W        W99475  29.170  43.282  14.982
35752W        W99476  31.147  40.029  12.093
35753W        W99477  20.534  29.955   2.308
35754W        W99478  35.441  40.031   4.227
35755W        W99479  28.472  10.641   4.140
35756W        W99480  37.447  30.487  14.858
35757W        W99481  15.119  28.623   3.712
35758W        W99482  42.841  18.715   4.601
35759W        W99483   9.171  28.155  11.380
35760W        W99484  24.038  11.832  13.045
35761W        W99485  24.002  19.707  10.966
35762W        W99486  27.057  16.792  10.996
35763W        W99487  35.477  19.054   0.729
35764W        W99488  24.657  24.664   4.256
35765W        W99489   0.952  28.538  10.466
35766W        W99490  41.405  35.099   0.477
35767W        W99491  32.498  10.276  14.989
35768W        W99492  11.719  12.662  10.593
35769W        W99493  11.153  28.637   0.964
35770W        W99494   5.368   2.451   1.285
35771W        W99495   6.773  31.494  12.572
35772W        W99496   7.382  40.531   0.314
35773W        W99497   9.821  33.541   1.292
35774W        W99498  22.067  10.768   0.816
35775W        W99499  21.182  28.500  14.841
35776W        W99500  40.376   2.456   3.306
35777W        W99501   3.445  34.469  11.385
35778W        W99502  43.998  36.919   4.643
35779W        W99503  40.314   4.799  11.007
35780W        W99504  36.372  39.476   0.774
35781W        W99505  33.454  20.055  10.574
35782W        W99506  39.358  15.294   0.388
35783W        W99507  19.198  16.159  12.359
35784W        W99508   5.235  37.561  14.368
35785W        W99509   6.362  26.493  11.961
35786W        W99510  12.325  12.320  13.382
35787W        W99511  24.058  40.002  10.112
35788W        W99512  29.503  21.689   4.682
35789W        W99513  28.588  13.116  11.005
35790W        W99514  44.470  33.413  11.598
35791W        W99515  23.600   0.457   2.706
35792W        W99516  41.934  41.980  11.990
35793W        W99517  32.486  39.343   0.447
35794W        W99518   9.665  37.454   0.851
35795W        W99519  26.058   4.350   4.262
35796W        W99520  29.493  26.648   0.312
35797W        W99521   7.407  36.960  10.481
35798W        W99522  33.044  39.859  13.517
35799W        W99523  23.131  10.681   3.293
35800W        W99524  17.082   6.259   3.386
35801W        W99525  19.751   3.358   1.744
35802W        W99526  35.562  29.492  14.889
35803W        W99527   6.853  37.834  11.859
35804W        W99528  33.025  38.903  12.871
35805W        W99529   7.254  25.127  13.990
35806W        W99530  33.938  34.096   2.771
35807W        W99531  31.566  16.248  13.357
35808W        W99532  17.119  30.072  13.327
35809W        W99533  12.746  14.784   1.722
35810W        W99534  38.018   5.872   4.704
35811W        W99535  32.528  37.353   2.198
35812W        W99536  36.019  27.115   3.742
35813W        W99537  37.984  44.414  10.964
35814W        W99538   8.404   2.425  14.989
35815W        W99539  13.766  37.408   3.217
35816W        W99540  38.870   7.278  12.375
35817W        W99541  13.297  14.628   3.358
35818W        W99542  12.230  18.575  10.907
35819W        W99543   9.738  17.080   0.863
35820W        W99544  37.425  19.535   4.615
35821W        W99545  43.281  37.393  14.853
35822W        W99546  25.167   3.881  13.823
35823W        W99547   1.827  29.449   0.284
35824W        W99548  17.557  23.721   1.814
35825W        W99549  15.717  29.527  12.978
35826W        W99550  40.907  24.074  11.925
35827W        W99551  43.468  42.953   0.859
35828W        W99552  43.483  38.067   2.787
35829W        W99553  31.405  28.548   0.457
35830W        W99554  35.009  25.484   1.917
35831W        W99555  10.186   7.725  11.102
35832W        W99556  38.033  39.549  14.287
35833W        W99557   6.800  44.787  11.869
35834W        W99558  17.217  38.417   3.799
35835W        W99559  34.434  14.686   0.467
35836W        W99560  38.456  21.617   2.340
35837W        W99561  31.120  17.126   1.839
35838W        W99562  39.835  30.472   2.803
35839W        W99563  13.164  36.907  14.494
35840W        W99564  22.044  34.072   4.760
35841W        W99565  16.714  15.324  12.457
35842W        W99566   7.709  38.822  12.553
35843W        W99567   0.448  10.265   4.639
35844W        W99568  32.571   9.826  10.427
35845W        W99569  28.466  33.071   3.249
35846W        W99570   8.160   8.858   4.215
35847W        W99571  16.777  10.189  11.996
35848W        W99572  44.485  25.999  13.907
35849W        W99573  11.360   4.323  13.445
35850W        W99574  28.638   3.737   1.735
35851W        W99575  10.250  24.978   1.889
35852W        W99576  34.390  10.781   1.911
35853W        W99577  42.013  42.406  11.960
35854W        W99578  25.569  10.265   1.304
35855W        W99579  30.544  40.979  11.947
35856W        W99580  11.131  27.067   2.808
35857W        W99581   7.322  15.151   0.893
35858W        W99582  28.077  38.374  14.811
35859W        W99583   8.867   5.241  10.445
35860W        W99584  43.339  20.239  13.868
35861W        W99585  14.624   0.335  12.356
35862W        W99586  20.183  28.940  13.853
35863W        W99587  14.195  11.337  14.777
35864W        W99588  34.863  28.099  10.943
35865W        W99589   5.863  19.632   0.805
35866W        W99590  31.615  24.620   2.854
35867W        W99591  28.974  27.534  14.962
35868W        W99592  30.069  29.497  12.339
35869W        W99593  27.084  13.294  13.938
35870W        W99594  30.518  33.500   1.867
35871W        W99595  24.546  20.114  13.350
35872W        W99596  19.710  18.677   4.321
35873W        W99597  34.458   0.436  13.803
35874W        W99598  36.574  34.604  10.971
35875W        W99599  13.842  34.026  11.127
35876W        W99600   9.267   7.779  14.820
35877W        W99601   7.231  28.470  12.391
35878W        W99602  36.521  13.634   5.116
35879W        W99603  31.922  22.737  11.960
35880W        W99604  26.648  26.060  13.887
35881W        W99605   2.340  39.538   1.728
35882W        W99606  22.210  44.960  12.930
35883W        W99607  29.070   6.202   3.722
35884W        W99608   7.243  31.538  14.404
35885W        W99609  24.134   8.721  12.407
35886W        W99610  42.413  15.224   4.827
35887W        W99611  42.905  30.640   5.268
35888W        W99612   9.220  15.586   3.850
35889W        W99613  33.117  32.996  14.810
35890W        W99614  39.877   9.833  14.781
35891W        W99615  23.584  26.055  10.567
35892W        W99616  35.412  43.371   4.266
35893W        W99617  36.886  43.333   3.821
35894W        W99618   0.769   7.346  14.500
35895W        W99619  12.340  30.010  13.503
35896W        W99620  10.876  38.533   1.362
35897W        W99621  30.547   8.718  11.389
35898W        W99622  29.145   0.936   3.386
35899W        W99623   7.323  23.233  10.620
35900W        W99624  30.089   9.763  13.050
35901W        W99625  35.041  13.770   0.445
35902W        W99626  20.695   7.802   2.212
35903W        W99627  22.106  25.193  11.507
35904W        W99628   7.865  20.705  13.352
35905W        W99629   7.796  15.798   0.385
35906W        W99630  14.676  16.619   0.439
35907W        W99631  14.332  19.107   2.859
35908W        W99632  18.180   0.952  14.930
35909W        W99633  26.177  38.940   0.470
35910W        W99634  32.977  21.122   3.203
35911W        W99635  18.194  25.565  11.123
35912W        W99636  10.708  10.284   2.242
35913W        W99637   9.323  18.701  11.916
35914W        W99638  11.224  41.371  12.928
35915W        W99639  16.805  19.656   0.925
35916W        W99640  13.311  40.859   4.631
35917W        W99641   1.309  35.565   0.268
35918W        W99642   1.412  25.108  11.897
35919W        W99643   9.278  44.914  10.601
35920W        W99644  13.230  36.929   4.297
35921W        W99645  20.258  20.133   2.796
35922W        W99646  13.303  22.036  12.567
35923W        W99647  29.998   4.362   0.901
35924W        W99648   6.743  23.589  14.901
35925W        W99649  26.961  15.297  14.513
35926W        W99650  40.322  40.834   0.855
35927W        W99651  16.193   1.347   4.243
35928W        W99652  37.881  39.533   0.346
35929W        W99653  38.330  11.739  13.963
35930W        W99654  40.538  17.783   3.174
35931W        W99655  29.503  37.425  14.419
35932W        W99656  39.006  43.385   3.317
35933W        W99657   7.776  42.784   0.778
35934W        W99658  34.371  42.329   3.691
35935W        W99659  44.986  44.891   3.259
35936W        W99660  23.097  44.426   2.758
35937W        W99661  10.177  35.108   1.878
35938W        W99662  30.094  35.546   3.817
35939W        W99663  36.929  25.682   0.914
35940W        W99664   9.320  39.006   0.310
35941W        W99665  37.570  24.153   4.264
35942W        W99666   0.914  11.775   2.194
35943W        W99667  36.456  15.631  11.036
35944W        W99668  40.990  42.803   3.373
35945W        W99669  39.372   5.296  11.914
35946W        W99670  31.542  25.679   0.857
35947W        W99671  42.316   5.414   2.305
35948W        W99672  10.803  16.314   1.346
35949W        W99673  22.577  12.728  12.996
35950W        W99674   8.200  30.101  11.028
35951W        W99675  39.496  26.156  11.027
35952W        W99676  28.174  25.175   4.222
35953W        W99677  36.360  15.122   5.151
35954W        W99678  29.449  42.915  10.154
35955W        W99679  12.179  42.852   3.168
35956W        W99680   1.802  42.831   1.219
35957W        W99681  22.062  18.556   2.207
35958W        W99682   9.381  22.691   1.746
35959W        W99683   7.200   7.259  14.298
35960W        W99684  12.636  34.560   0.375
35961W        W99685  20.149  22.039  13.419
35962W        W99686   3.242  17.217   2.849
35963W        W99687  18.124  30.467   0.825
35964W        W99688  12.248  24.638   3.717
35965W        W99689   3.794  38.972  11.444
35966W        W99690   1.325  30.535   0.282
35967W        W99691  31.415  42.821  10.913
35968W        W99692  21.620  38.563  14.450
35969W        W99693  28.944  11.217   1.804
35970W        W99694  18.295  26.147  12.071
35971W        W99695  20.186  34.974  14.863
35972W        W99696  17.191  40.324   3.384
35973W        W99697  36.951  22.548  12.829
35974W        W99698   0.338  28.679   2.818
35975W        W99699  33.073  22.574  13.860
35976W        W99700  21.731   3.948  13.903
35977W        W99701  37.527   0.887  11.573
35978W        W99702  19.057  33.971   3.260
35979W        W99703   6.902  32.543   1.713
35980W        W99704  26.603   5.806  10.486
35981W        W99705  36.073  43.463  13.858
35982W        W99706  13.212  12.676  12.563
35983W        W99707  30.479  39.025   2.868
35984W        W99708  25.672  26.205   1.256
35985W        W99709  35.894  42.286   3.371
35986W        W99710  44.868  32.979  13.857
35987W        W99711  28.583   6.269  11.584
35988W        W99712   3.222  20.583  11.955
35989W        W99713  41.900   3.313   3.706
35990W        W99714  14.600   1.354  10.895
35991W        W99715  36.566   4.835   1.303
35992W        W99716  41.303  38.505   3.858
35993W        W99717   0.375  10.256   0.934
35994W        W99718  32.539  15.776  11.016
35995W        W99719  35.552  40.858  12.075
35996W        W99720   8.207  10.652   1.331
35997W        W99721   7.832   8.864  10.911
35998W        W99722  19.136  36.063   0.281
35999W        W99723   2.400  18.757  14.848
36000W        W99724  41.305  24.974   0.442
36001W        W99725   6.753   5.764  11.998
36002W        W99726   2.809  17.257   1.427
36003W        W99727   7.899  32.121   2.311
36004W        W99728  42.846  17.728  14.886
36005W        W99729  31.955   1.444  11.034
36006W        W99730  36.887  15.136  11.939
36007W        W99731  16.703  35.513   4.296
36008W        W99732  35.458  25.213   4.161
36009W        W99733  37.356  30.132   4.706
36010W        W99734  23.133  10.349   0.900
36011W        W99735  19.766   9.255   1.368
36012W        W99736  25.561  21.534   2.194
36013W        W99737  16.650  31.437  13.540
36014W        W99738  38.071  36.446   3.686
36015W        W99739   0.931  27.136  11.546
36016W        W99740  33.038   2.456  13.908
36017W        W99741   2.258  21.151   4.752
36018W        W99742  10.138  19.564   2.785
36019W        W99743   5.782  11.852   4.224
36020W        W99744  38.389   3.443   0.832
36021W        W99745  31.952  39.829  13.520
36022W        W99746  33.510  23.499   3.777
36023W        W99747   5.738  41.359  11.521
36024W        W99748  39.942  11.823  14.313
36025W        W99749  27.009  44.903  12.434
36026W        W99750  15.816  41.470  14.483
36027W        W99751   3.441  39.356   2.778
36028W        W99752  35.565  18.219  14.765
36029W        W99753  29.463  34.460  12.991
36030W        W99754  28.144  42.323  10.611
36031W        W99755  30.471  25.050  12.081
36032W        W99756  29.146  33.091  10.619
36033W        W99757  17.209   3.909   1.233
36034W        W99758  33.435  38.354  12.851
36035W        W99759  44.754   7.822  10.905
36036W        W99760  32.565  31.957  12.476
36037W        W99761  31.003  40.521   0.907
36038W        W99762  10.799  39.911  14.426
36039W        W99763  12.626  22.634  13.538
36040W        W99764  27.127  37.415  10.072
36041W        W99765  12.701  17.201  12.909
36042W        W99766  42.465  44.004   4.273
36043W        W99767  27.122   0.891  12.887
36044W        W99768  21.207  19.749  10.424
36045W        W99769  25.122  37.544   4.701
36046W        W99770  19.662  43.491  13.511
36047W        W99771  42.416  40.488   2.266
36048W        W99772  15.243  41.504   1.761
36049W        W99773  19.580  11.338  11.032
36050W        W99774  10.179   5.771  11.407
36051W        W99775  40.530  32.618  13.364
36052W        W99776  36.444  38.890   4.181
36053W        W99777  26.496  28.603  12.824
36054W        W99778   8.691  43.817  10.404
36055W        W99779  29.666  33.446   2.894
36056W        W99780   4.869   8.895   0.948
36057W        W99781  27.619   0.897   1.442
36058W        W99782  17.127   0.936   2.216
36059W        W99783  10.240  20.256   1.880
36060W        W99784  34.948  36.906  10.607
36061W        W99785  35.586   7.899  14.384
36062W        W99786  20.208  22.707   2.709
36063W        W99787   3.233   8.211   3.197
36064W        W99788  41.019  25.098   0.382
36065W        W99789  25.527   1.968  14.327
36066W        W99790  33.400  18.663   4.180
36067W        W99791  40.899  37.833  11.413
36068W        W99792  28.674  14.142   0.408
36069W        W99793  32.061  34.561  11.565
36070W        W99794  34.402  37.970   1.210
36071W        W99795   7.223  10.301  13.322
36072W        W99796  11.705  26.139  12.010
36073W        W99797   0.782  22.144   0.901
36074W        W99798  11.641  15.204  11.489
36075W        W99799  18.739  18.188   4.188
36076W        W99800  44.003  14.321   0.914
36077W        W99801  23.645  40.012   1.414
36078W        W99802  36.933  43.990  13.546
36079W        W99803   1.314  22.692   4.655
36080W        W99804   3.839   1.812   2.416
36081W        W99805   4.238  17.287  10.600
36082W        W99806   7.693  20.527   2.364
36083W        W99807  38.906  28.052   4.151
36084W        W99808  20.538   0.393  14.859
36085W        W99809  16.218  11.160   4.606
36086W        W99810  38.958  38.368  12.878
36087W        W99811  44.856  24.703  12.954
36088W        W99812  36.882  40.887  12.920
36089W        W99813  29.516   7.861  12.563
36090W        W99814  20.736  29.996  12.510
36091W        W99815  18.717  27.000  12.951
36092W        W99816   3.385  32.447  12.018
36093W        W99817  13.682   3.936  11.414
36094W        W99818  20.619  18.251   3.262
36095W        W99819   2.867  31.139  10.411
36096W        W99820  38.038  16.097  13.490
36097W        W99821   6.391  29.582   0.823
36098W        W99822  10.354  22.174   3.745
36099W        W99823  41.019  41.949  11.586
36100W        W99824   7.680  33.531   0.302
36101W        W99825  19.272  32.634  11.460
36102W        W99826  41.867  28.931  14.485
36103W        W99827   8.209  22.559  13.039
36104W        W99828  22.612   1.308  14.987
36105W        W99829   4.891  31.599   0.374
36106W        W99830  23.549  17.286  13.380
36107W        W99831  23.092  32.570   1.820
36108W        W99832  23.678  37.399   0.377
36109W        W99833  29.624  26.032  13.031
36110W        W99834  39.396  12.648   4.280
36111W        W99835  17.074  25.474   3.847
36112W        W99836   6.890  28.619  10.604
36113W        W99837   1.318  40.442  10.479
36114W        W99838  24.228   8.175  12.040
36115W        W99839  18.714  38.371   1.716
36116W        W99840  15.606  38.327  14.006
36117W        W99841  39.898  32.907   1.919
36118W        W99842  23.511  37.376  13.998
36119W        W99843  36.552  13.335  12.051
36120W        W99844  29.964  33.524   4.140
36121W        W99845  32.119  11.236   1.725
36122W        W99846  40.339  27.099  12.520
36123W        W99847  12.279  20.114   1.878
36124W        W99848  27.085  25.664   4.242
36125W        W99849  13.188  42.848   3.293
36126W        W99850  19.265  23.726   4.757
36127W        W99851  20.156  31.141   3.282
36128W        W99852  26.044  27.035   4.794
36129W        W99853  18.776  12.297  13.954
36130W        W99854  41.345  15.127   3.203
36131W        W99855  34.535   5.198   3.863
36132W        W99856  33.044  18.697   4.737
36133W        W99857  37.497   9.716  13.880
36134W        W99858  28.519  41.512   1.764
36135W        W99859  31.059   0.359   4.165
36136W        W99860  33.542  25.498   3.771
36137W        W99861  28.562  25.090  11.408
36138W        W99862  14.617  29.927   2.818
36139W        W99863   5.293  17.277  11.975
36140W        W99864  15.211  22.233   3.785
36141W        W99865   4.426   9.255  14.801
36142W        W99866  16.636  19.085  14.986
36143W        W99867  17.160  23.012  12.864
36144W        W99868   7.311  42.282  13.436
36145W        W99869  26.640   5.352  12.503
36146W        W99870  44.909  41.340  11.412
36147W        W99871  28.594  42.786  14.022
36148W        W99872  12.826  11.195   3.662
36149W        W99873  10.660   8.695  14.314
36150W        W99874  33.948  10.723   0.893
36151W        W99875  37.048  33.002   0.809
36152W        W99876  14.724   8.669   4.787
36153W        W99877  36.466  16.660  13.860
36154W        W99878  41.417  26.627   0.424
36155W        W99879  14.765  39.484   1.385
36156W        W99880  10.698  13.812   0.454
36157W        W99881  32.019  30.484  12.942
36158W        W99882  31.583   9.395   3.842
36159W        W99883  42.979  36.901   9.934
36160W        W99884  25.629  37.366   3.299
36161W        W99885  12.156   4.215  10.599
36162W        W99886   2.244   9.333  11.036
36163W        W99887  31.138   9.874   0.431
36164W        W99888  19.202  29.648  11.117
36165W        W99889   1.298  11.189   2.671
36166W        W99890  12.835   7.705   5.202
36167W        W99891   9.388  20.656  14.470
36168W        W99892  16.754  22.170  12.392
36169W        W99893   4.409  14.692  11.082
36170W        W99894  26.089  21.679  14.825
36171W        W99895  28.579   7.379  12.074
36172W        W99896   1.806  36.392  12.399
36173W        W99897  12.153  13.215  14.889
36174W        W99898   8.249  17.797   1.435
36175W        W99899  39.057  39.475   1.839
36176W        W99900  12.176  15.288   1.220
36177W        W99901  21.514  30.063   5.194
36178W        W99902  36.348   0.753  11.017
36179W        W99903  29.578  26.462   2.332
36180W        W99904  27.628  18.196   4.796
36181W        W99905  41.425   5.390   2.706
36182W        W99906  41.863  38.514  14.459
36183W        W99907  39.024  18.109  11.553
36184W        W99908  41.384  38.910  13.025
36185W        W99909   2.942  36.853  13.485
36186W        W99910  31.111  10.878  13.948
36187W        W99911  15.319  31.498  12.853
36188W        W99912  31.963   3.796   4.174
36189W        W99913  33.910  38.409   4.164
36190W        W99914  23.184  33.397   4.765
36191W        W99915  42.521   7.300  12.044
36192W        W99916  10.823  25.968  14.993
36193W        W99917  25.642  33.988  10.574
36194W        W99918  12.280  42.871   2.730
36195W        W99919  16.158  39.462  13.435
36196W        W99920  38.326  19.693  12.352
36197W        W99921  26.989  13.690   2.735
36198W        W99922  12.227  22.126  13.400
36199W        W99923  26.546  17.071  11.495
36200W        W99924  22.532  36.925   1.759
36201W        W99925  17.626  24.716   2.805
36202W        W99926  42.899  17.266  13.830
36203W        W99927  31.018  25.561   2.712
36204W        W99928  39.352  40.880  11.917
36205W        W99929   6.400  41.022   4.753
36206W        W99930  18.104  26.114   2.797
36207W        W99931  21.067  43.406  11.106
36208W        W99932  43.844  11.306   0.860
36209W        W99933  38.507  41.334   1.451
36210W        W99934   7.855  41.038  14.400
36211W        W99935  23.688   9.806   3.785
36212W        W99936  13.257  28.128  13.507
36213W        W99937   2.417  44.404  10.510
36214W        W99938  41.304   8.804  12.494
36215W        W99939  36.985  22.040   4.733
36216W        W99940  44.760  17.588  13.021
36217W        W99941  29.427   5.762  10.970
36218W        W99942  22.164  31.004  12.860
36219W        W99943  18.673  17.613   1.748
36220W        W99944  29.449  31.147   1.757
36221W        W99945  27.652   6.691  12.462
36222W        W99946  17.235  13.163  14.330
36223W        W99947  14.142  35.507  11.115
36224W        W99948   9.157  10.875  10.114
36225W        W99949  39.053  33.585  11.504
36226W        W99950  44.309   5.792   3.705
36227W        W99951   9.788  28.494   1.777
36228W        W99952   8.861  17.739   4.260
36229W        W99953   4.405   7.874  13.888
36230W        W99954  25.706   4.213  13.533
36231W        W99955  24.591   3.773  13.033
36232W        W99956  35.000  24.035   0.858
36233W        W99957  44.841  22.580   4.766
36234W        W99958  44.935   5.891   2.671
36235W        W99959   1.479  42.952   1.385
36236W        W99960  32.462  10.140   3.681
36237W        W99961   2.962  29.170   2.682
36238W        W99962  35.497  43.790   0.746
36239W        W99963  34.490  25.567  11.927
36240W        W99964  11.242  23.587   3.732
36241W        W99965  43.926   8.341  14.428
36242W        W99966  15.219  23.495   3.230
36243W        W99967  28.129   3.234  12.421
36244W        W99968  29.046  44.348   1.292
36245W        W99969  21.709  40.924   2.263
36246W        W99970  20.205  13.733   4.267
36247W        W99971   9.877  14.141  11.983
36248W        W99972  17.253   3.922  13.017
36249W        W99973  16.731   4.761   2.397
36250W        W99974  34.521  34.053   4.123
36251W        W99975   7.727  24.200  11.519
36252W        W99976  39.810  19.681  12.856
36253W        W99977  34.433  11.705  11.413
36254W        W99978  37.049   2.924  14.383
36255W        W99979   0.939  14.139  11.964
36256W        W99980  21.081   0.400  14.028
36257W        W99981  33.438   2.441  11.077
36258W        W99982  42.923  14.696  12.548
36259W        W99983  22.218  44.871  13.465
36260W        W99984  41.948   5.807   3.366
36261W        W99985  44.353   4.860  14.867
36262W        W99986   0.904  18.583   0.367
36263W        W99987  11.246  24.035  12.092
36264W        W99988  33.393   8.666  11.502
36265W        W99989  36.357  13.608  10.554
36266W        W99990  44.289  22.023  12.356
36267W        W99991  36.383  16.121  10.970
36268W        W99992  33.120   9.693   0.250
36269W        W99993  22.656  33.075   3.842
36270W        W99994   0.455  37.390   1.747
36271W        W99995  33.043   0.433   3.382
36272W        W99996  14.732   4.334   4.278
36273W        W99997  33.902  28.470   0.322
36274W        W99998  44.850  15.802  10.947
36275W        W99999  11.292   9.787   0.379
36276W        W    0   0.754  26.066  14.485
36277W        W    1  29.433   0.954  12.997
36278W        W    2  37.961   1.241  10.502
36279W        W    3  36.528  17.783  10.898
36280W        W    4  23.625  10.681  12.934
36281W        W    5   5.827  39.813  14.902
36282W        W    6  20.210  37.888  12.424
36283W        W    7  16.129  42.797  10.493
36284W        W    8  25.577  14.204  12.439
36285W        W    9  38.527  20.047   0.373
36286W        W   10  41.863  35.856   9.923
36287W        W   11  30.565   0.763  10.428
36288W        W   12   0.985  20.539   3.721
36289W        W   13  17.182  23.210  13.430
36290W        W   14  35.515  14.769  14.512
36291W        W   15  33.381   0.457   0.950
36292W        W   16  36.501   7.768   4.180
36293W        W   17   5.897  32.035  13.425
36294W        W   18   2.858   0.482  13.981
36295W        W   19   5.713  28.501  14.296
36296W        W   20   4.255  22.085   2.202
36297W        W   21   3.461  11.341   1.214
36298W        W   22  30.551  38.010  12.547
36299W        W   23  31.025  32.608  10.911
36300W        W   24   7.179   6.883  12.074
36301W        W   25  37.527  28.136   3.797
36302W        W   26   2.418  19.083  12.857
36303W        W   27   8.386  20.574   1.696
36304W        W   28   6.220  16.655   4.639
36305W        W   29  14.698   1.807   2.277
36306W        W   30   9.840   0.788   0.882
36307W        W   31  44.843  34.016  14.025
36308W        W   32  19.600  16.617  11.957
36309W        W   33  32.086  14.147   2.695
36310W        W   34  32.492  19.060  11.405
36311W        W   35  29.476  10.241  14.458
36312W        W   36   4.361  37.578   3.237
36313W        W   37  31.984  14.803  12.460
36314W        W   38   3.771  39.927  10.149
36315W        W   39  23.188  36.991  14.285
36316W        W   40  32.549  14.734   1.350
36317W        W   41  19.696  30.024   3.288
36318W        W   42  33.518  31.419   0.902
36319W        W   43   8.863  19.600   2.712
36320W        W   44  15.750  26.556  11.059
36321W        W   45   2.342  34.460   1.925
36322W        W   46  30.025   0.325   1.880
36323W        W   47  15.230   8.241   1.819
36324W        W   48  37.983   1.734   2.288
36325W        W   49  40.043  38.438  12.923
36326W        W   50  41.855  26.576  13.822
36327W        W   51  38.512  22.673   2.845
36328W        W   52  10.380  22.124  11.858
36329W        W   53   2.824  19.685  14.886
36330W        W   54  26.624  30.497  13.496
36331W        W   55  26.666   6.799  12.077
36332W        W   56  22.632  10.343   2.184
36333W        W   57  28.566  30.155  12.887
36334W        W   58  12.784  15.125  13.874
36335W        W   59   0.884   2.448  10.483
36336W        W   60  31.897  13.718   3.847
36337W        W   61  21.185   4.874   1.249
36338W        W   62   0.910  39.378  14.290
36339W        W   63  24.131  42.963  14.799
36340W        W   64   4.227  29.457   1.858
36341W        W   65   7.746   8.705   2.877
36342W        W   66  37.024  18.213  14.027
36343W        W   67   6.410  30.060  12.374
36344W        W   68  36.533  25.121   4.198
36345W        W   69  11.140  14.807  13.044
36346W        W   70  15.774  33.454  10.474
36347W        W   71  22.251  34.000  11.919
36348W        W   72  42.411   8.382  11.869
36349W        W   73  44.980   9.368   4.759
36350W        W   74  31.074   2.361   3.267
36351W        W   75  16.082  37.996   3.863
36352W        W   76  22.007  21.254  10.542
36353W        W   77  36.048  22.738   0.794
36354W        W   78   4.232  26.024  12.003
36355W        W   79  15.703   5.435  13.377
36356W        W   80  16.208  13.143   4.268
36357W        W   81   9.336  17.221  14.776
36358W        W   82   1.953  17.669   3.257
36359W        W   83  25.516  22.092   3.759
36360W        W   84  35.533  41.996   4.186
36361W        W   85  24.023  25.622   3.761
36362W        W   86  38.040   8.782  14.440
36363W        W   87  17.745  33.600   3.284
36364W        W   88   7.694  11.716  13.465
36365W        W   89  19.606  33.983  11.004
36366W        W   90  29.424  15.248  14.930
36367W        W   91   6.763   8.390   4.305
36368W        W   92  33.552  28.016  12.852
36369W        W   93  40.887  15.778   2.283
36370W        W   94  40.463  42.376  11.076
36371W        W   95  35.885  43.373   4.308
36372W        W   96  30.446  42.386  14.995
36373W        W   97  38.920  24.035   3.808
36374W        W   98   1.289  31.099  11.587
36375W        W   99  32.601  38.379   3.370
36376W        W  100  43.467  11.202   1.744
36377W        W  101  17.612   5.326  14.798
36378W        W  102  34.106  37.464   0.840
36379W        W  103  30.952   6.343  10.443
36380W        W  104  22.025  42.813  11.585
36381W        W  105  12.154  18.111  10.571
36382W        W  106  26.192   5.289   0.262
36383W        W  107  25.134   7.245   0.334
36384W        W  108  33.529  42.906  10.470
36385W        W  109  14.685   7.270   1.439
36386W        W  110  33.613  37.011   2.212
36387W        W  111  41.394  25.202   1.375
36388W        W  112  10.303   7.707  14.390
36389W        W  113  10.643  35.988  14.895
36390W        W  114  19.617   4.897   0.918
36391W        W  115  39.881  17.168  14.946
36392W        W  116  32.561  44.770   2.881
36393W        W  117  27.132  37.503  13.985
36394W        W  118  38.955  18.748   4.753
36395W        W  119  14.613  24.110   3.744
36396W        W  120   0.787   2.302   3.364
36397W        W  121   0.412   2.950   0.378
36398W        W  122   0.300  33.560  13.323
36399W        W  123  22.166  16.795  11.505
36400W        W  124  20.206   7.714   0.352
36401W        W  125   9.207   9.846  13.818
36402W        W  126   2.435  41.382   3.753
36403W        W  127  43.303  12.665   4.207
36404W        W  128  20.119  40.414  13.923
36405W        W  129  33.082  12.852  11.923
36406W        W  130  36.870  13.345   4.329
36407W        W  131   7.816  18.736  13.370
36408W        W  132  33.562  24.169   0.384
36409W        W  133  39.383   7.856   2.193
36410W        W  134  35.904  44.927   2.231
36411W        W  135   7.716  43.937   1.847
36412W        W  136  43.894  44.339  10.639
36413W        W  137  39.468  18.651   0.288
36414W        W  138  16.771  26.142   2.702
36415W        W  139   2.357  28.956  14.891
36416W        W  140  42.366  39.529   1.716
36417W        W  141  11.816  24.003   0.748
36418W        W  142  14.772  26.672  10.611
36419W        W  143  44.895  40.049  13.920
36420W        W  144  43.402   1.482   0.382
36421W        W  145  28.560  36.059   4.735
36422W        W  146  17.266  44.359  13.962
36423W        W  147  25.650  15.596   2.677
36424W        W  148   8.828   2.803  11.091
36425W        W  149  23.132  32.913   3.731
36426W        W  150   2.900  30.484   1.925
36427W        W  151  28.171  33.050   0.787
36428W        W  152  10.339  42.500   0.376
36429W        W  153  27.515  12.159   0.959
36430W        W  154  21.163  20.222   2.204
36431W        W  155   2.907  29.925  12.884
36432W        W  156  28.977   9.350   2.399
36433W        W  157  44.448   2.326  10.962
36434W        W  158   0.278  44.499   1.706
36435W        W  159   4.711   0.288  13.389
36436W        W  160  26.527  12.771   1.811
36437W        W  161  28.050   0.366  13.312
36438W        W  162   8.396  41.526   4.188
36439W        W  163  32.444  36.479   4.114
36440W        W  164  37.975   9.367  14.854
36441W        W  165  36.353  30.928   2.275
36442W        W  166  20.560  16.637  13.542
36443W        W  167  19.090  24.552   4.290
36444W        W  168  21.215  11.171   3.739
36445W        W  169  33.551   7.870   2.673
36446W        W  170  44.314  41.795   2.861
36447W        W  171   3.774  26.635  14.337
36448W        W  172  13.653  17.161  12.429
36449W        W  173  29.127  37.559  14.475
36450W        W  174  27.670  17.631   0.937
36451W        W  175  33.906  28.117   0.789
36452W        W  176   1.887  12.729  13.930
36453W        W  177  22.176   7.369  12.005
36454W        W  178  44.818  31.420   4.745
36455W        W  179  24.680  15.584   9.976
36456W        W  180   7.874  35.003   2.236
36457W        W  181  14.660  33.024   2.811
36458W        W  182   6.750  43.784   0.891
36459W        W  183  39.946  39.392   3.374
36460W        W  184  15.649  10.750   0.788
36461W        W  185  16.640  37.935  13.986
36462W        W  186  39.909  28.151  13.436
36463W        W  187   2.361   6.819   4.727
36464W        W  188  25.537  31.031  10.426
36465W        W  189  37.873  10.846  14.397
36466W        W  190  22.671   3.287   5.231
36467W        W  191  15.171  36.523  12.876
36468W        W  192  20.769   6.874   1.322
36469W        W  193  44.321  14.336   2.237
36470W        W  194  43.914  17.677   4.793
36471W        W  195  28.638   7.250   2.873
36472W        W  196  25.703  17.301  11.550
36473W        W  197   9.315  13.756  11.607
36474W        W  198   2.251  41.022  13.028
36475W        W  199  38.865  33.425   9.965
36476W        W  200  23.581  38.478  13.421
36477W        W  201  39.433  28.641  13.926
36478W        W  202  31.905  19.269   1.374
36479W        W  203   0.895  24.634   0.866
36480W        W  204  29.053  25.474  10.411
36481W        W  205   3.897  19.624  14.898
36482W        W  206  22.523  11.832   2.366
36483W        W  207  33.456  33.617  11.374
36484W        W  208   7.363  38.502  11.902
36485W        W  209  14.755   0.459   0.830
36486W        W  210   0.904  25.549  14.402
36487W        W  211  25.654  36.434  12.520
36488W        W  212  20.079  12.715   4.638
36489W        W  213  38.433   9.341   2.771
36490W        W  214   0.755  15.611   0.823
36491W        W  215  32.081  10.191   2.239
36492W        W  216  42.294  34.911   2.229
36493W        W  217  35.990   4.322   1.888
36494W        W  218  41.345  39.998   0.316
36495W        W  219  35.932  11.350   0.481
36496W        W  220  37.527  24.550  11.524
36497W        W  221  19.132  44.313  12.860
36498W        W  222   0.779  42.865  10.057
36499W        W  223  43.912  19.604   4.275
36500W        W  224  35.090  20.696   0.392
36501W        W  225  37.368  29.547   2.885
36502W        W  226  42.360  16.234   0.878
36503W        W  227  24.100  19.071  14.350
36504W        W  228  39.451  20.192   0.438
36505W        W  229  12.330  13.797   3.248
36506W        W  230   2.839  31.436  11.394
36507W        W  231  20.693  23.132  10.626
36508W        W  232  22.539  35.951  13.830
36509W        W  233  40.546  22.194  12.442
36510W        W  234  34.455  31.632   0.837
36511W        W  235  44.400  20.230   0.295
36512W        W  236  13.325  42.325   1.760
36513W        W  237  35.925  25.647   3.153
36514W        W  238  26.574   5.748   5.097
36515W        W  239  43.854  12.756   4.795
36516W        W  240   5.200   7.406  11.395
36517W        W  241  35.510  18.741   1.219
36518W        W  242  29.006  38.442  14.857
36519W        W  243   8.313  27.581   2.360
36520W        W  244  41.403  37.553   5.138
36521W        W  245   6.307  16.075   4.132
36522W        W  246   8.664  23.510  11.560
36523W        W  247  10.359   0.929  14.291
36524W        W  248  28.507  41.520  14.336
36525W        W  249  37.424  27.526   3.336
36526W        W  250  31.439  10.840  13.402
36527W        W  251  44.505  25.164   4.143
36528W        W  252  15.329  35.888  11.394
36529W        W  253   1.763  40.446   0.425
36530W        W  254  14.669  29.545   2.729
36531W        W  255  31.090  14.615  14.907
36532W        W  256  43.466  41.507  13.423
36533W        W  257  23.631  30.962  11.864
36534W        W  258  22.075   8.392  13.493
36535W        W  259  32.036   6.296   0.783
36536W        W  260  19.165  30.609   2.704
36537W        W  261  14.209  19.613   1.246
36538W        W  262  37.868  36.349  10.597
36539W        W  263   3.822  21.716  14.977
36540W        W  264  28.167  39.813  11.558
36541W        W  265   8.742  26.692  14.940
36542W        W  266  31.433  15.153   1.821
36543W        W  267  30.933   3.830   0.353
36544W        W  268  33.432  25.571  12.062
36545W        W  269  24.228   0.407  12.474
36546W        W  270  43.271  32.419   1.935
36547W        W  271  25.129  17.711   3.172
36548W        W  272   1.767  36.591   1.716
36549W        W  273  40.865   6.834  10.483
36550W        W  274  27.193  12.714   2.191
36551W        W  275   2.439   9.257   3.659
36552W        W  276  25.521  32.946  14.857
36553W        W  277  17.306  27.131   1.839
36554W        W  278   6.425  19.172  13.028
36555W        W  279  11.829  15.183   4.284
36556W        W  280  44.369  43.456  10.584
36557W        W  281   7.343  23.682  10.985
36558W        W  282   1.264  27.989   4.147
36559W        W  283  17.686  30.573   4.828
36560W        W  284  30.537  30.073   2.884
36561W        W  285  22.151  10.186  14.948
36562W        W  286  10.805   5.397  11.009
36563W        W  287   2.423   0.988   4.330
36564W        W  288   3.218  20.077   4.257
36565W        W  289  20.118   2.903   0.862
36566W        W  290  19.089  34.979  13.537
36567W        W  291  35.922   4.445   0.893
36568W        W  292   0.308   5.409  13.022
36569W        W  293  16.736  30.471  11.432
36570W        W  294  44.850  27.057  13.391
36571W        W  295  29.086   1.323  11.050
36572W        W  296   3.760  25.131  12.972
36573W        W  297  42.003  44.471   2.827
36574W        W  298  24.593  34.404   4.243
36575W        W  299   5.433  12.746   4.787
36576W        W  300  44.000   1.793  12.030
36577W        W  301   9.775   2.339   1.744
36578W        W  302  43.015  32.953   4.609
36579W        W  303  14.119  11.767  14.372
36580W        W  304  18.608  41.358   3.737
36581W        W  305  42.904  36.897  10.967
36582W        W  306   0.438  21.652   3.167
36583W        W  307   6.276  21.512  12.863
36584W        W  308   6.904  11.296   2.831
36585W        W  309  30.548  36.035  12.529
36586W        W  310  12.197  18.583  11.575
36587W        W  311  43.341  42.963  10.618
36588W        W  312   9.735  29.126  13.360
36589W        W  313  22.511  20.100  10.923
36590W        W  314  37.942   3.427  13.380
36591W        W  315  11.244  37.981   1.218
36592W        W  316  17.070  32.545   1.319
36593W        W  317  17.121   8.714   0.835
36594W        W  318  21.106  11.629   3.247
36595W        W  319   3.322  10.696   2.342
36596W        W  320  25.180  38.860   0.326
36597W        W  321  44.481  25.116   2.202
36598W        W  322  29.170  35.059  13.497
36599W        W  323  40.484   2.437   3.749
36600W        W  324  29.661  19.546   2.708
36601W        W  325   7.355  44.446  13.413
36602W        W  326  40.921  16.173   4.198
36603W        W  327  16.719  41.987  11.541
36604W        W  328  38.477  42.941  12.987
36605W        W  329  35.428  18.186  10.472
36606W        W  330  39.477  28.114  10.601
36607W        W  331  20.598  16.180   2.408
36608W        W  332  30.611  30.040   4.666
36609W        W  333   6.739  33.568  12.481
36610W        W  334  36.490  18.200  13.901
36611W        W  335   9.802   4.932  13.932
36612W        W  336  39.447   7.324   1.383
36613W        W  337  38.896  24.514   0.948
36614W        W  338  44.267  35.923  13.481
36615W        W  339  30.556  19.045   1.843
36616W        W  340   4.780  34.604  11.549
36617W        W  341  34.987  42.932   4.616
36618W        W  342  41.371  31.549   2.196
36619W        W  343   2.415  22.139   2.390
36620W        W  344  22.676   1.401   4.731
36621W        W  345  28.043  33.422  12.415
36622W        W  346  22.164  29.030  13.516
36623W        W  347   6.362   9.336  12.900
36624W        W  348  12.358   8.351   1.214
36625W        W  349   9.843  10.351   1.250
36626W        W  350  13.736  41.419   2.712
36627W        W  351  21.721  23.032   0.943
36628W        W  352  27.520  36.513   0.270
36629W        W  353   0.403   8.383   1.353
36630W        W  354  23.539  27.131   1.840
36631W        W  355  28.063  14.610   2.705
36632W        W  356  31.565   6.915  12.091
36633W        W  357  34.953  26.606  14.295
36634W        W  358   1.303  20.077  10.420
36635W        W  359  15.276  21.599   1.871
36636W        W  360   1.851  10.873  14.941
36637W        W  361  39.846  32.592   4.266
36638W        W  362   5.357  16.261   2.746
36639W        W  363   2.313  20.271   3.152
36640W        W  364  42.002  15.657  14.839
36641W        W  365  12.805  42.843   3.836
36642W        W  366  26.967   5.805  14.995
36643W        W  367   4.732  43.389  11.590
36644W        W  368   1.312  11.321  13.954
36645W        W  369  29.650   6.256  11.090
36646W        W  370   0.333   2.828  13.995
36647W        W  371  13.730  42.445   1.758
36648W        W  372  36.482  41.389   5.156
36649W        W  373  18.120  14.199   3.758
36650W        W  374  28.540  15.580   5.304
36651W        W  375  39.063   1.245   1.825
36652W        W  376  30.083   5.277  11.600
36653W        W  377  17.666  38.049  14.991
36654W        W  378   6.910  41.361   2.262
36655W        W  379   8.243  42.973  12.011
36656W        W  380  18.101  33.507   1.432
36657W        W  381  11.272  16.667  11.976
36658W        W  382  20.232  37.450   3.346
36659W        W  383  10.754  22.199   0.816
36660W        W  384  23.222  17.231   4.327
36661W        W  385  29.082  29.552   0.760
36662W        W  386  30.533  26.595  12.356
36663W        W  387  10.644  38.367   4.136
36664W        W  388  41.951  21.051   5.661
36665W        W  389   7.676  16.728   4.685
36666W        W  390  12.296  29.500  13.881
36667W        W  391  21.614  16.285  12.526
36668W        W  392   4.236  32.626   0.871
36669W        W  393  36.572   0.488   1.413
36670W        W  394  39.465  23.630  14.840
36671W        W  395  44.305   9.300   4.261
36672W        W  396  34.099   6.679   1.891
36673W        W  397  11.703  41.352   3.346
36674W        W  398  38.821   7.833   1.234
36675W        W  399  24.619  32.904  12.020
36676W        W  400  34.471  35.596   1.777
36677W        W  401   4.275  39.856  11.865
36678W        W  402  23.147   1.471   0.249
36679W        W  403  31.915  30.502  13.408
36680W        W  404  31.550  44.918   3.383
36681W        W  405  15.247  16.601   2.828
36682W        W  406  38.381  13.112  10.501
36683W        W  407  17.214  28.640  11.605
36684W        W  408  42.466  23.238  12.448
36685W        W  409  25.206   7.793   1.916
36686W        W  410  18.680  37.402  11.005
36687W        W  411   8.671  22.603   1.935
36688W        W  412  25.215  30.118   3.252
36689W        W  413  13.293  38.410   2.354
36690W        W  414  22.226  35.945  13.497
36691W        W  415  27.132  30.018  12.998
36692W        W  416  21.656  44.939  14.426
36693W        W  417  26.078  20.039  10.988
36694W        W  418  43.408  34.960  14.948
36695W        W  419   4.209   2.226   4.621
36696W        W  420  20.224  19.085   2.295
36697W        W  421   0.971  22.622   5.318
36698W        W  422  32.609  14.120  12.469
36699W        W  423  27.589   8.171  12.431
36700W        W  424  28.947   5.370  11.447
36701W        W  425   9.717  33.996  14.486
36702W        W  426  26.051  27.182  14.966
36703W        W  427  27.662  34.381   4.163
36704W        W  428  33.065  20.135   0.399
36705W        W  429  20.148  39.522  14.777
36706W        W  430  35.032  14.191   4.198
36707W        W  431  34.880  25.007   0.843
36708W        W  432  44.419  29.170   0.872
36709W        W  433  40.464  43.852  14.918
36710W        W  434  30.118   4.751   0.477
36711W        W  435  24.060  38.862   3.722
36712W        W  436  13.726  20.585   3.783
36713W        W  437   8.242   8.380   3.698
36714W        W  438  18.277  10.291  12.877
36715W        W  439  30.126   5.338  13.435
36716W        W  440   1.819   5.338  14.303
36717W        W  441  10.204  25.212  10.454
36718W        W  442  16.796  44.309  12.074
36719W        W  443  14.143  13.322  13.362
36720W        W  444  36.002  29.585  12.366
36721W        W  445   9.182   6.870  12.430
36722W        W  446   6.826  18.098   4.130
36723W        W  447  26.664  16.668  11.386
36724W        W  448  44.005  33.573  11.884
36725W        W  449  36.486  38.833  12.987
36726W        W  450   9.274  17.630   3.794
36727W        W  451  22.715   6.781  13.334
36728W        W  452  33.017  14.634  11.456
36729W        W  453  41.864  28.552  10.932
36730W        W  454  40.909   9.191  14.912
36731W        W  455  22.138   7.402  11.052
36732W        W  456  35.559   7.321  14.907
36733W        W  457   9.720  14.591   2.208
36734W        W  458  22.549  14.804  13.869
36735W        W  459   8.317   0.254  14.378
36736W        W  460  22.591  32.971  12.050
36737W        W  461  34.035  28.476  14.893
36738W        W  462  16.728   4.929   3.703
36739W        W  463  32.139  30.058   1.867
36740W        W  464   9.280  28.968   2.347
36741W        W  465  36.362  36.874   2.286
36742W        W  466   0.468  25.080   4.705
36743W        W  467  19.733  25.182   3.787
36744W        W  468   8.364  37.482  10.970
36745W        W  469  38.334  39.904  14.860
36746W        W  470  17.737  33.555   0.889
36747W        W  471  37.549   7.206  14.932
36748W        W  472  22.559   7.735  11.562
36749W        W  473  19.638   9.661  11.969
36750W        W  474  36.996  13.815  10.991
36751W        W  475  22.699  32.099  13.934
36752W        W  476  38.058  33.579  11.376
36753W        W  477  33.057  26.631  10.998
36754W        W  478  22.651  29.649   2.224
36755W        W  479  16.212  40.996   2.398
36756W        W  480   2.290   0.817  11.394
36757W        W  481  42.295  15.699  14.425
36758W        W  482   6.423   3.364  12.029
36759W        W  483  15.326  11.718  14.767
36760W        W  484  22.064  28.942   5.568
36761W        W  485  15.676   8.657   0.413
36762W        W  486  40.981  20.269  13.049
36763W        W  487  14.150  14.658  14.884
36764W        W  488  38.330   2.239   0.863
36765W        W  489  31.985  26.024   2.332
36766W        W  490  17.269  13.682  12.518
36767W        W  491  36.967  31.597  14.909
36768W        W  492  34.397  42.883   3.711
36769W        W  493   8.334  42.513   1.709
36770W        W  494  44.489   5.357   3.853
36771W        W  495  11.214  35.961  13.453
36772W        W  496  18.777  24.512  12.559
36773W        W  497  35.553  36.892  13.838
36774W        W  498  27.992  25.074   2.726
36775W        W  499  35.484  34.399  12.568
36776W        W  500  33.025  14.099   1.307
36777W        W  501   5.319  12.739   3.320
36778W        W  502  12.809   3.365   3.856
36779W        W  503  23.038  30.557   4.191
36780W        W  504  36.588  16.263  14.513
36781W        W  505  20.053  23.602  14.428
36782W        W  506  27.614  33.481  13.860
36783W        W  507   2.229  31.597   0.432
36784W        W  508  37.345  33.418   0.788
36785W        W  509  40.814  11.851  11.892
36786W        W  510  14.259  24.583   0.815
36787W        W  511  31.472  34.591   2.901
36788W        W  512  39.442  19.762   4.140
36789W        W  513  40.836  15.221  13.867
36790W        W  514  33.520  15.159  14.004
36791W        W  515  13.333  17.106  14.935
36792W        W  516  44.819   1.448  14.397
36793W        W  517  36.058   0.762   0.926
36794W        W  518   7.748  10.823   1.852
36795W        W  519  38.971  18.616   2.189
36796W        W  520   4.243  11.256  13.026
36797W        W  521  25.657  10.636   2.332
36798W        W  522   1.946  31.640  10.962
36799W        W  523  17.685  37.379   1.381
36800W        W  524   0.470  25.496   0.752
36801W        W  525  21.730  15.187  13.516
36802W        W  526   1.960   9.769  14.814
36803W        W  527  24.588  36.887   2.283
36804W        W  528  20.079  34.590   2.728
36805W        W  529   3.747  10.792  13.401
36806W        W  530   2.278  10.353  13.466
36807W        W  531   5.761  11.778  13.923
36808W        W  532   7.881   9.291  11.937
36809W        W  533  44.833  27.547   2.750
36810W        W  534  22.038   9.371  10.990
36811W        W  535   1.432  29.573  13.403
36812W        W  536  16.221   6.296  12.436
36813W        W  537  21.639  17.239  13.450
36814W        W  538  36.347  43.462  11.399
36815W        W  539  40.805   1.842   4.298
36816W        W  540  43.909  24.722   3.764
36817W        W  541  10.779  16.703  11.474
36818W        W  542  18.785  29.928   4.266
36819W        W  543   1.374  28.139   3.245
36820W        W  544  42.490  41.346   5.244
36821W        W  545   8.838   1.932  13.367
36822W        W  546  15.720   6.361   0.940
36823W        W  547   1.938   1.436  11.482
36824W        W  548  12.769  44.315  14.342
36825W        W  549  17.293   1.878  10.540
36826W        W  550  40.457  20.251   1.446
36827W        W  551   9.701  27.943   4.242
36828W        W  552  17.584   3.786  14.334
36829W        W  553   9.835  11.804  13.471
36830W        W  554  12.828   6.270  11.561
36831W        W  555  24.506  14.289  13.458
36832W        W  556   1.888  38.821  12.520
36833W        W  557  41.508  34.954   4.295
36834W        W  558  32.509   6.423  11.481
36835W        W  559   1.370  12.763   2.312
36836W        W  560  28.569  41.826  11.094
36837W        W  561  44.378  24.649   3.345
36838W        W  562  30.123  33.075   3.304
36839W        W  563  41.950   9.356   2.788
36840W        W  564  28.584  17.774  14.317
36841W        W  565  31.620  13.324  11.090
36842W        W  566  31.448  18.207  12.982
36843W        W  567   9.719  22.112  14.301
36844W        W  568  37.477  26.192   0.844
36845W        W  569  32.426  28.508   0.781
36846W        W  570  15.705  19.237   2.298
36847W        W  571  19.093  36.402   4.718
36848W        W  572   9.811  20.132  14.831
36849W        W  573   5.761  30.921  11.464
36850W        W  574  10.227   0.755  13.048
36851W        W  575  32.618  43.909  11.872
36852W        W  576   3.448  17.718  12.342
36853W        W  577  18.681  21.599   2.707
36854W        W  578  38.933  33.941  11.503
36855W        W  579  25.650  19.250   4.782
36856W        W  580  41.000   2.817  12.012
36857W        W  581  14.698  20.060   1.249
36858W        W  582  11.664  39.464  14.349
36859W        W  583  36.441  32.503  11.052
36860W        W  584  33.523  28.452   4.249
36861W        W  585  15.208  35.537   4.786
36862W        W  586  11.182   9.259   3.285
36863W        W  587  14.330   6.385   0.765
36864W        W  588  42.330  43.785   0.344
36865W        W  589  20.716  15.316  13.384
36866W        W  590  14.639   4.883  11.071
36867W        W  591  41.452  40.344   4.272
36868W        W  592  27.536  25.683   1.804
36869W        W  593  39.405  40.931   9.582
36870W        W  594  44.772  39.403  14.766
36871W        W  595   4.302  20.172  12.887
36872W        W  596  42.825  19.537   3.754
36873W        W  597   0.869  28.968  12.069
36874W        W  598  44.278  17.776   3.770
36875W        W  599  41.439  37.399   1.404
36876W        W  600   4.330  35.571   4.636
36877W        W  601  41.911  34.023  12.468
36878W        W  602  22.629  41.420   3.750
36879W        W  603   7.851   4.832   3.794
36880W        W  604   3.424  19.137   4.182
36881W        W  605  41.535  26.041   4.154
36882W        W  606  40.010  39.533  14.927
36883W        W  607  19.182  41.012  13.330
36884W        W  608  10.301  27.186  14.412
36885W        W  609  10.664   4.880   4.327
36886W        W  610  18.687  11.742   3.315
36887W        W  611   3.874  30.106   1.855
36888W        W  612  23.088  35.044  14.801
36889W        W  613   6.883   3.808   4.209
36890W        W  614  44.397  24.566   2.189
36891W        W  615  20.600  35.511   0.360
36892W        W  616  38.978  14.288  11.420
36893W        W  617   0.247  11.198  12.399
36894W        W  618   0.823  23.128  13.335
36895W        W  619   7.770   3.457  11.381
36896W        W  620  44.390  12.747  10.004
36897W        W  621  22.589  29.443  14.426
36898W        W  622   6.392   6.252   4.739
36899W        W  623   1.395  22.746  12.928
36900W        W  624  21.051  31.109   2.809
36901W        W  625  19.767  31.998  11.072
36902W        W  626  31.147  11.845   0.410
36903W        W  627  26.989   2.384   0.447
36904W        W  628  20.069  18.160  10.156
36905W        W  629  17.219  34.516   4.712
36906W        W  630  38.494  26.034  13.508
36907W        W  631   0.904  35.080   2.413
36908W        W  632  27.621  19.752  11.051
36909W        W  633  29.925  16.784   3.192
36910W        W  634  24.564  11.270   4.610
36911W        W  635  43.869  30.563   1.308
36912W        W  636  27.525  22.662  14.493
36913W        W  637   5.193  15.714   4.349
36914W        W  638  35.919  37.946   2.680
36915W        W  639  17.153  33.416   3.184
36916W        W  640  42.527  26.467  14.510
36917W        W  641  19.563  33.568   1.903
36918W        W  642   7.724  18.293   2.674
36919W        W  643  16.165  33.076   0.936
36920W        W  644  35.358  26.463   1.933
36921W        W  645  30.637   4.726  13.801
36922W        W  646  34.974   0.837   2.787
36923W        W  647  13.831  13.669   3.665
36924W        W  648  21.089   6.698   2.377
36925W        W  649  29.605  20.627  12.417
36926W        W  650  29.923   5.693  12.433
36927W        W  651   4.388  40.851   0.861
36928W        W  652  18.072  18.285  14.909
36929W        W  653   7.693  13.677   4.325
36930W        W  654  30.440   5.809   2.363
36931W        W  655   6.419   8.297   1.282
36932W        W  656  40.932  16.753  12.441
36933W        W  657  22.664  17.609  12.509
36934W        W  658  30.423  27.973  11.908
36935W        W  659  13.639  17.246  10.478
36936W        W  660  11.366  41.465   0.733
36937W        W  661  10.751  13.738  13.420
36938W        W  662   8.776  22.739  13.541
36939W        W  663  24.595  20.737  14.852
36940W        W  664  39.815  25.216   0.805
36941W        W  665  18.575  38.004   1.835
36942W        W  666  25.532  20.637  14.448
36943W        W  667  33.529   2.263  14.414
36944W        W  668  43.786   7.912   2.903
36945W        W  669   1.826  32.911  10.593
36946W        W  670  20.569  16.748   4.630
36947W        W  671   4.446   6.400  10.581
36948W        W  672   2.936   9.320   1.860
36949W        W  673  23.576  37.433   2.252
36950W        W  674  20.040  37.571  13.898
36951W        W  675  38.540  10.368   0.934
36952W        W  676  21.036  34.075  11.915
36953W        W  677  30.548  37.395  14.432
36954W        W  678   2.257  39.021   1.696
36955W        W  679  16.585  36.064  11.395
36956W        W  680  23.126  32.039   2.828
36957W        W  681  14.790  33.092   3.855
36958W        W  682  28.615   0.425  13.974
36959W        W  683  33.432  26.096   2.331
36960W        W  684   6.205  42.401   4.747
36961W        W  685  26.035  29.600  14.838
36962W        W  686  44.969  33.457   4.640
36963W        W  687  16.582  25.138  13.813
36964W        W  688   7.327   0.444   2.844
36965W        W  689  41.886  41.938   0.442
36966W        W  690  36.093  43.898   2.705
36967W        W  691  20.237   3.341  10.119
36968W        W  692  10.368   5.707   3.163
36969W        W  693  19.173  39.993   2.853
36970W        W  694  13.771  24.532   0.270
36971W        W  695  17.673  18.277  12.438
36972W        W  696  21.231  35.543  11.025
36973W        W  697  32.890   2.380   0.754
36974W        W  698  44.345  12.167   1.273
36975W        W  699   6.406  37.339  12.891
36976W        W  700   9.684   6.816   3.167
36977W        W  701  43.800  30.521   2.890
36978W        W  702  15.613  31.037  12.475
36979W        W  703  20.755  35.904   1.259
36980W        W  704   3.383  39.369   1.850
36981W        W  705  38.908  10.341  12.511
36982W        W  706   8.310  15.296  13.443
36983W        W  707   0.931  11.301  14.790
36984W        W  708  24.101  27.139   0.266
36985W        W  709   0.867  35.512   3.318
36986W        W  710  12.776   2.373  12.827
36987W        W  711  24.696   0.406  11.537
36988W        W  712  17.686  18.735   0.411
36989W        W  713  22.648  40.868  13.928
36990W        W  714  14.195  34.111   4.815
36991W        W  715  34.388  10.701   0.354
36992W        W  716  38.506   7.784  12.394
36993W        W  717  14.803  43.443  10.541
36994W        W  718  27.623   4.312   0.430
36995W        W  719  34.462  28.503   0.252
36996W        W  720  21.717  13.167   4.634
36997W        W  721   3.827   5.733   2.796
36998W        W  722  11.359   1.412  10.904
36999W        W  723  29.012  43.009   3.204
37000W        W  724  18.249  29.074  11.944
37001W        W  725  27.986  12.292  10.980
37002W        W  726  16.161   6.377   0.440
37003W        W  727  22.675   3.416   1.777
37004W        W  728  27.650  24.580  14.466
37005W        W  729  40.478   6.270  10.982
37006W        W  730  26.114  10.299  10.945
37007W        W  731  35.583  27.606   3.326
37008W        W  732   4.442  22.108   1.840
37009W        W  733  21.700  36.905   5.218
37010W        W  734  36.957  21.119   0.377
37011W        W  735  17.652   7.348  11.949
37012W        W  736  19.154   5.773  13.315
37013W        W  737  38.487  34.015   2.768
37014W        W  738  19.735  34.964   3.643
37015W        W  739  27.585  39.942  13.831
37016W        W  740   7.711  24.138  10.501
37017W        W  741   8.657  43.906  13.348
37018W        W  742  12.143  30.429  13.943
37019W        W  743   7.715  13.339   5.805
37020W        W  744  25.570  38.931  11.873
37021W        W  745  14.686  44.792   2.183
37022W        W  746  16.776  41.795   3.232
37023W        W  747  42.006  33.891  14.398
37024W        W  748  42.421  19.637  10.597
37025W        W  749  27.114  32.113   3.734
37026W        W  750  16.589  21.740   4.655
37027W        W  751  12.684  14.326  14.799
37028W        W  752  42.484  25.524   4.784
37029W        W  753  12.155  12.701  13.005
37030W        W  754  32.537  42.292   4.708
37031W        W  755  42.503  13.146   4.605
37032W        W  756  11.648  24.605   4.252
37033W        W  757  17.176  32.907   2.205
37034W        W  758  44.833  32.134   4.224
37035W        W  759  42.477  15.127   2.866
37036W        W  760  19.562  25.094  10.484
37037W        W  761  44.423  20.045   2.862
37038W        W  762   5.760  37.511   4.655
37039W        W  763  38.465  21.027  13.483
37040W        W  764  20.632  29.449   3.869
37041W        W  765   5.926  15.764   3.262
37042W        W  766  38.529   4.731   1.853
37043W        W  767  27.486   3.354   3.647
37044W        W  768   6.364  39.966   3.632
37045W        W  769  43.862  20.730  11.564
37046W        W  770   8.197  15.711  11.607
37047W        W  771  31.449  22.637  11.433
37048W        W  772   7.782   2.381  13.314
37049W        W  773  12.288   0.305   4.759
37050W        W  774  37.451  15.257   2.244
37051W        W  775   3.806  17.656  12.456
37052W        W  776  35.399   4.840   0.472
37053W        W  777   7.764  40.357  12.929
37054W        W  778   4.426  36.989   3.699
37055W        W  779  14.808  17.102   1.414
37056W        W  780   6.406  34.943  13.938
37057W        W  781   2.806   7.686  11.117
37058W        W  782  44.432  26.961  14.906
37059W        W  783  36.883   0.438  10.640
37060W        W  784  30.515  13.182  13.030
37061W        W  785  18.163  24.630  12.375
37062W        W  786  22.026  21.603  13.943
37063W        W  787  11.796   0.426   4.188
37064W        W  788  14.598  44.304  11.386
37065W        W  789  20.160   5.897   1.272
37066W        W  790  32.897  30.575  13.980
37067W        W  791  41.464  10.306   0.387
37068W        W  792  21.741  14.302   1.338
37069W        W  793  16.775  26.951  10.931
37070W        W  794  25.484  23.727   1.224
37071W        W  795  39.886   0.820   4.603
37072W        W  796  34.554  33.883  14.908
37073W        W  797  22.062   4.924   3.634
37074W        W  798  35.499   8.888   1.393
37075W        W  799  39.035   4.324   4.180
37076W        W  800  26.621  38.076  13.807
37077W        W  801  10.173  31.960   2.296
37078W        W  802  40.332  27.516  13.986
37079W        W  803  23.584   6.690  13.497
37080W        W  804  32.930  28.521  10.552
37081W        W  805   5.742  28.542  10.645
37082W        W  806  32.959  12.255   5.295
37083W        W  807  41.372  43.863  13.801
37084W        W  808   8.181  36.436   3.348
37085W        W  809  24.646   0.896  12.021
37086W        W  810  19.140   7.775  14.343
37087W        W  811  25.493  28.029  11.591
37088W        W  812  42.874  18.547   0.797
37089W        W  813  31.113  23.519   9.969
37090W        W  814  24.191  15.094  14.782
37091W        W  815  14.740  41.336  13.407
37092W        W  816  23.162  24.505  14.961
37093W        W  817  33.080   8.328   2.364
37094W        W  818   3.732  21.233   2.228
37095W        W  819   9.368  25.054   3.190
37096W        W  820  15.165  14.657  11.031
37097W        W  821  31.533  20.524   1.388
37098W        W  822  25.611  22.636  11.459
37099W        W  823   5.408  28.441   1.759
37100W        W  824  27.645  24.608  12.067
37101W        W  825  21.250  19.183   3.247
37102W        W  826  17.143  14.257   1.898
37103W        W  827  31.446   9.704  13.457
37104W        W  828  14.243  12.853  10.916
37105W        W  829  36.873   7.670  11.986
37106W        W  830  11.798  32.424   4.166
37107W        W  831  38.918   9.843   3.178
37108W        W  832   2.838  11.747  13.382
37109W        W  833  38.982  23.209  13.990
37110W        W  834   8.318  19.577   1.418
37111W        W  835  11.357  40.367  12.069
37112W        W  836  43.872   5.861  11.881
37113W        W  837  22.121  34.520   0.836
37114W        W  838  23.508  11.844  13.463
37115W        W  839  24.017   7.333  13.950
37116W        W  840  39.444  10.737  11.099
37117W        W  841  41.440  30.599  14.779
37118W        W  842   9.854   8.655   3.335
37119W        W  843  20.062  26.650   1.853
37120W        W  844  44.480  36.008   2.671
37121W        W  845   1.436  36.982   4.289
37122W        W  846  18.161  24.554  10.463
37123W        W  847  35.902  41.818   3.367
37124W        W  848  20.116   4.815  12.527
37125W        W  849  24.221  10.762   0.384
37126W        W  850  40.905  21.659  14.949
37127W        W  851  19.598  32.612   1.863
37128W        W  852  42.470  11.813   3.832
37129W        W  853  35.540  35.414  11.965
37130W        W  854  30.530  29.089   0.382
37131W        W  855  41.895  41.994   1.274
37132W        W  856  15.676  21.234  11.905
37133W        W  857  32.415  12.683   0.849
37134W        W  858  39.979  40.309   4.671
37135W        W  859  16.125  14.188   3.339
37136W        W  860  44.380   1.906  13.364
37137W        W  861  40.473  23.640   3.867
37138W        W  862  22.562  34.936   0.268
37139W        W  863  40.315  14.264  13.429
37140W        W  864   4.301  36.867   2.251
37141W        W  865  31.999  39.535   4.255
37142W        W  866  21.668  36.894   1.878
37143W        W  867  19.579  30.100  11.916
37144W        W  868  35.389  17.264   0.928
37145W        W  869  40.528  13.255   0.761
37146W        W  870   8.372   0.462   0.838
37147W        W  871  11.785   8.665  11.077
37148W        W  872  35.854  15.165   3.377
37149W        W  873  38.441  16.166   4.625
37150W        W  874   3.937  32.917  10.615
37151W        W  875  28.534  43.465  11.450
37152W        W  876  35.081  41.988   1.713
37153W        W  877  37.574  41.351   3.758
37154W        W  878  13.313   5.708  12.512
37155W        W  879   5.224  40.433  11.924
37156W        W  880  10.145  39.316   1.894
37157W        W  881  13.721   9.388  14.382
37158W        W  882  41.870  44.917   1.342
37159W        W  883  17.660  18.693   2.765
37160W        W  884  33.964   1.330  12.835
37161W        W  885   6.764   8.799  12.016
37162W        W  886  33.933  44.266   3.809
37163W        W  887  28.175  44.486  10.893
37164W        W  888  13.109  19.659   4.243
37165W        W  889  18.206  38.922   3.827
37166W        W  890  34.587  27.075   3.762
37167W        W  891   9.656  38.351  12.445
37168W        W  892  34.401   1.323  11.856
37169W        W  893   8.809   4.765   2.259
37170W        W  894  43.469   4.942  10.468
37171W        W  895  21.029  33.943   2.854
37172W        W  896  22.020   0.845   4.298
37173W        W  897   8.308  41.792   1.281
37174W        W  898  17.635  41.999  11.945
37175W        W  899  16.659  30.515  13.545
37176W        W  900  23.120  14.820  12.451
37177W        W  901   7.683   8.229   4.619
37178W        W  902  30.159  36.847  13.517
37179W        W  903  27.083  19.231   4.629
37180W        W  904  22.160  30.563  11.081
37181W        W  905  12.197  36.003  14.316
37182W        W  906   6.872   5.369   1.324
37183W        W  907  35.062   2.888  10.483
37184W        W  908  42.982  32.557   2.323
37185W        W  909   1.357  21.549  10.545
37186W        W  910  35.954  32.413   3.156
37187W        W  911  23.727  21.163   3.687
37188W        W  912  26.974   3.342   3.765
37189W        W  913   9.871  32.128   4.749
37190W        W  914   3.234  25.505   4.694
37191W        W  915  20.036  22.157   1.335
37192W        W  916  41.968  29.040   4.826
37193W        W  917  16.160  31.600  12.904
37194W        W  918  14.685  17.688   3.310
37195W        W  919  22.664   7.211  12.469
37196W        W  920  36.024   8.325   1.898
37197W        W  921  34.066  25.126   3.741
37198W        W  922  20.232  27.154   0.758
37199W        W  923   7.408  25.702  11.021
37200W        W  924  40.492  22.591  13.407
37201W        W  925  31.442  32.449  14.425
37202W        W  926  18.233  28.960   1.860
37203W        W  927  17.255  10.170   1.850
37204W        W  928  14.737  25.494  10.963
37205W        W  929  21.613   4.753  11.394
37206W        W  930  37.864   4.215   1.828
37207W        W  931  12.151   1.826   1.451
37208W        W  932  20.219  40.327   1.313
37209W        W  933  15.107  18.239  13.844
37210W        W  934  44.470  25.162  13.419
37211W        W  935  14.801   6.769  11.583
37212W        W  936  19.718  30.915   2.856
37213W        W  937  22.039  26.077  14.508
37214W        W  938  28.162  32.421  11.450
37215W        W  939   2.723   9.804   3.179
37216W        W  940  21.742  41.019  13.307
37217W        W  941  14.645  24.002   2.724
37218W        W  942  43.021  27.150  11.375
37219W        W  943  19.564   8.176   1.439
37220W        W  944  30.581  20.139  14.787
37221W        W  945  43.992  40.492   3.338
37222W        W  946  36.987  17.691  12.398
37223W        W  947  23.602   8.400   1.316
37224W        W  948  33.467   5.425   3.664
37225W        W  949   0.329  22.203  12.535
37226W        W  950  32.039  38.914  13.029
37227W        W  951  38.838  34.612   1.855
37228W        W  952  37.901  43.423  12.848
37229W        W  953   7.296  41.941  14.865
37230W        W  954   5.752  41.975   0.467
37231W        W  955  17.288  44.951  13.331
37232W        W  956  14.761  18.191  11.056
37233W        W  957  16.662  41.337   4.760
37234W        W  958  29.606   6.403   4.733
37235W        W  959   0.261  42.906  14.464
37236W        W  960  24.573  35.544   4.625
37237W        W  961  15.328  37.512  12.024
37238W        W  962   5.415  25.582  14.377
37239W        W  963  27.980  22.741   5.208
37240W        W  964  13.341   7.206  13.997
37241W        W  965  28.507  11.804   1.345
37242W        W  966   3.294  44.413   3.164
37243W        W  967  14.686  29.088  11.598
37244W        W  968  41.341   3.844   0.403
37245W        W  969   5.270   6.722  13.952
37246W        W  970  22.228  36.466   1.407
37247W        W  971  14.643  41.021  11.910
37248W        W  972  23.241  19.211  12.950
37249W        W  973  37.566  31.641  10.983
37250W        W  974  43.329  10.335  12.068
37251W        W  975  29.424  37.402   5.283
37252W        W  976  27.148  38.988   1.349
37253W        W  977  19.576  34.503   1.919
37254W        W  978  14.338  10.165   3.166
37255W        W  979  39.429  10.758   2.706
37256W        W  980   0.340  21.176   2.824
37257W        W  981  30.103  11.761  10.432
37258W        W  982  33.380  27.463  10.993
37259W        W  983  11.319  35.060   2.671
37260W        W  984  32.943  17.062  10.574
37261W        W  985  12.611  40.414   2.768
37262W        W  986   1.784  30.971   1.382
37263W        W  987  33.984  27.028  14.894
37264W        W  988  30.130   9.261  12.410
37265W        W  989   7.272  14.232   4.606
37266W        W  990  18.669  22.620   2.244
37267W        W  991  35.391  21.041   2.727
37268W        W  992  22.688  28.522  12.349
37269W        W  993  20.130  24.656  13.833
37270W        W  994  29.960  14.300  14.505
37271W        W  995  28.078   1.306   3.766
37272W        W  996  25.558  40.350   0.894
37273W        W  997   3.868   1.395   3.870
37274W        W  998  17.199   9.866  11.587
37275W        W  999  32.067  43.910   2.184
37276W        W 1000  32.057  13.245  12.902
37277W        W 1001  39.960  37.406   1.796
37278W        W 1002  25.028  24.523  11.859
37279W        W 1003  33.905  27.645   1.212
37280W        W 1004  44.840  29.504  14.290
37281W        W 1005  37.482   6.831  11.609
37282W        W 1006   1.475   6.270   3.212
37283W        W 1007  24.207  19.571   2.665
37284W        W 1008  34.481  24.621  14.795
37285W        W 1009  26.470  37.491  12.422
37286W        W 1010  37.951  18.568   0.323
37287W        W 1011  34.008   7.721   0.459
37288W        W 1012   4.710  21.529  14.376
37289W        W 1013  34.924  39.860   4.758
37290W        W 1014   0.310   0.456  14.381
37291W        W 1015  34.043   2.863   2.663
37292W        W 1016  28.019  18.271   2.884
37293W        W 1017  29.173  30.953   1.245
37294W        W 1018  12.776  25.111   4.828
37295W        W 1019  23.640   9.314   0.377
37296W        W 1020  38.826  43.864  11.591
37297W        W 1021  40.516  19.647  10.941
37298W        W 1022  25.205  13.209  13.954
37299W        W 1023  10.374  34.551  12.901
37300W        W 1024  14.254   9.388  14.345
37301W        W 1025  36.502  15.627   2.806
37302W        W 1026  28.094   5.356  13.370
37303W        W 1027  25.636  23.650  13.855
37304W        W 1028   3.934  11.253  14.790
37305W        W 1029  16.244  10.290   1.285
37306W        W 1030  19.135  20.663  14.280
37307W        W 1031   4.866  31.440   3.853
37308W        W 1032  15.243   9.386   1.383
37309W        W 1033  23.172  33.048   0.393
37310W        W 1034  21.168  18.781  10.485
37311W        W 1035  17.714  10.683  14.328
37312W        W 1036  18.745  36.983  11.967
37313W        W 1037  36.427  40.012   4.117
37314W        W 1038  43.335  29.958   0.765
37315W        W 1039  17.221   1.250  11.594
37316W        W 1040  14.657  44.400  11.957
37317W        W 1041  25.519  42.488   3.261
37318W        W 1042  14.312  16.674   1.811
37319W        W 1043  30.963   3.447  11.103
37320W        W 1044   4.395  36.441   2.247
37321W        W 1045  37.579  10.320   0.774
37322W        W 1046  34.033   6.839  13.908
37323W        W 1047  24.012  23.674  12.850
37324W        W 1048  12.767   8.270  12.367
37325W        W 1049  26.569  21.189  13.537
37326W        W 1050  43.771  35.594   1.811
37327W        W 1051   5.715  32.546   3.709
37328W        W 1052  21.119  39.849  13.543
37329W        W 1053   8.285  29.157   4.291
37330W        W 1054  26.164  18.745  10.480
37331W        W 1055  11.811  30.145   4.778
37332W        W 1056  43.375  29.080  11.118
37333W        W 1057  32.483  29.969  13.405
37334W        W 1058  34.518  38.904  10.988
37335W        W 1059  17.129  37.851  11.963
37336W        W 1060  32.016   9.800  12.873
37337W        W 1061   4.709  26.504   1.811
37338W        W 1062  12.214  42.513  12.573
37339W        W 1063  22.508  34.112  12.927
37340W        W 1064  14.270  41.380   2.810
37341W        W 1065  40.375  11.682  11.091
37342W        W 1066   7.892   0.821   0.774
37343W        W 1067  23.599  15.693  10.972
37344W        W 1068  27.518  32.632  12.424
37345W        W 1069  21.032  13.137  14.391
37346W        W 1070  42.912  34.116  12.423
37347W        W 1071   3.232  19.077   1.754
37348W        W 1072  40.933  29.606   3.865
37349W        W 1073  27.959  14.676   4.146
37350W        W 1074  26.699  10.384  13.022
37351W        W 1075  43.943  24.982   2.679
37352W        W 1076  20.107  32.973  12.358
37353W        W 1077  30.536  40.478   4.782
37354W        W 1078  14.188   3.901   3.264
37355W        W 1079  13.790  24.678  10.512
37356W        W 1080  12.150  43.473  10.554
37357W        W 1081  44.931  32.473   1.271
37358W        W 1082   2.346  17.707  11.394
37359W        W 1083  44.985  44.790   4.635
37360W        W 1084  13.805  44.355  14.331
37361W        W 1085  20.726  14.279   1.261
37362W        W 1086  43.918  43.887   2.694
37363W        W 1087   9.189  33.903   1.321
37364W        W 1088  23.698  30.469   0.254
37365W        W 1089  15.305   1.369  11.041
37366W        W 1090  20.714  19.685   3.332
37367W        W 1091  10.749  14.638  10.422
37368W        W 1092  14.735   7.355  14.446
37369W        W 1093   4.326  36.583  14.383
37370W        W 1094  37.376  27.970   4.776
37371W        W 1095  10.690  12.125   3.264
37372W        W 1096  29.150   7.808  13.994
37373W        W 1097  27.984  22.725  13.013
37374W        W 1098  31.008   1.797   5.096
37375W        W 1099  43.501  43.803   4.761
37376W        W 1100  10.318  11.325  13.399
37377W        W 1101  22.020   9.149   1.764
37378W        W 1102  17.243   0.401  14.327
37379W        W 1103  14.600   7.828  14.498
37380W        W 1104   2.472  14.307  10.933
37381W        W 1105  31.403  18.564  12.071
37382W        W 1106  20.253  39.390   0.452
37383W        W 1107  24.519  23.681   2.290
37384W        W 1108  26.155   5.726   1.404
37385W        W 1109   3.756  31.153  12.093
37386W        W 1110  39.425  28.667  12.842
37387W        W 1111  14.157  13.772  13.526
37388W        W 1112  13.334  17.204  11.972
37389W        W 1113   3.375   0.834   4.319
37390W        W 1114  33.382  22.143  13.843
37391W        W 1115   1.741  17.575   1.223
37392W        W 1116  23.024  26.545  11.955
37393W        W 1117  42.330  28.475   0.326
37394W        W 1118  33.396  24.594  11.866
37395W        W 1119  29.982  21.246   3.864
37396W        W 1120   5.835  26.464  14.335
37397W        W 1121   4.400  34.905   1.256
37398W        W 1122  41.930  42.859   1.228
37399W        W 1123  12.151  40.488  14.876
37400W        W 1124   6.183  26.598   3.811
37401W        W 1125  26.985  36.995  11.126
37402W        W 1126  39.546  28.672  14.984
37403W        W 1127  38.875  13.166  11.031
37404W        W 1128  36.460  31.643  14.354
37405W        W 1129  34.943  15.769  12.009
37406W        W 1130  26.524  21.570  10.919
37407W        W 1131  26.555  40.493   3.169
37408W        W 1132  26.620  12.210   3.703
37409W        W 1133  35.399  29.540  12.474
37410W        W 1134  25.066  34.045  13.856
37411W        W 1135  13.283  27.570  13.827
37412W        W 1136  40.984  29.665  13.024
37413W        W 1137   3.796  38.940  10.625
37414W        W 1138  15.680  39.056  11.502
37415W        W 1139  32.433  16.704   4.769
37416W        W 1140  30.633   9.717  14.371
37417W        W 1141  27.569  40.905   4.763
37418W        W 1142  40.819  44.322   4.735
37419W        W 1143  31.493  31.020  13.878
37420W        W 1144  40.894  31.956  11.986
37421W        W 1145   1.295  31.089  14.777
37422W        W 1146   4.831  34.892   0.327
37423W        W 1147   4.850  37.085   1.932
37424W        W 1148  35.542  19.557  10.449
37425W        W 1149  23.125  17.279   4.702
37426W        W 1150  18.176   3.874  11.541
37427W        W 1151  31.972  30.010  15.000
37428W        W 1152   2.746  15.800   1.336
37429W        W 1153   2.928   2.774  12.548
37430W        W 1154  18.667  25.188  13.455
37431W        W 1155  31.542   4.945  13.814
37432W        W 1156  15.644  40.407   5.220
37433W        W 1157  18.660   4.388   2.741
37434W        W 1158   8.854  23.093   1.770
37435W        W 1159  23.111  19.678   2.226
37436W        W 1160  13.759  39.910  10.570
37437W        W 1161  43.442   4.939  12.367
37438W        W 1162  20.625  37.341  12.563
37439W        W 1163  35.905  16.127   3.802
37440W        W 1164  36.945  25.660   3.193
37441W        W 1165  19.186  27.990   0.411
37442W        W 1166  10.261  16.743  11.565
37443W        W 1167  40.003  10.779   2.775
37444W        W 1168  25.966  10.873   0.793
37445W        W 1169  39.394   0.746   2.218
37446W        W 1170   3.277  33.954   1.442
37447W        W 1171   8.879   4.720   0.857
37448W        W 1172  42.468   6.826  14.319
37449W        W 1173  36.526  13.618   1.414
37450W        W 1174   4.824  41.982  10.916
37451W        W 1175  43.864   6.183  12.824
37452W        W 1176  39.379  12.737   2.210
37453W        W 1177   2.252  15.684  10.429
37454W        W 1178  13.746  24.078  12.928
37455W        W 1179   2.421  14.205   5.107
37456W        W 1180  37.371  32.509   3.328
37457W        W 1181  35.359  29.988  11.524
37458W        W 1182  24.681  37.925   4.672
37459W        W 1183  40.371  31.084  13.346
37460W        W 1184   4.308  10.144   1.853
37461W        W 1185  44.816  29.551   4.271
37462W        W 1186  11.805  13.639  10.418
37463W        W 1187  34.452  16.715  10.029
37464W        W 1188  32.596  30.656  10.582
37465W        W 1189  36.454   9.688  10.468
37466W        W 1190   3.909  18.051   3.675
37467W        W 1191  19.775   6.848   3.813
37468W        W 1192   2.928   8.286   1.739
37469W        W 1193  34.989  17.156   9.981
37470W        W 1194  36.408  18.244  14.376
37471W        W 1195  33.381   5.922   0.818
37472W        W 1196  20.704  24.674   3.276
37473W        W 1197  18.559  42.786  14.427
37474W        W 1198  15.647  37.068   2.696
37475W        W 1199   3.286  31.495   3.282
37476W        W 1200  24.066  14.266   0.267
37477W        W 1201  36.053   8.820  11.606
37478W        W 1202  44.305  41.815  11.602
37479W        W 1203  10.232  29.158  13.949
37480W        W 1204  23.665  18.227   4.799
37481W        W 1205  31.583   2.461   1.301
37482W        W 1206  43.794  11.724   4.824
37483W        W 1207  42.302  42.337  10.409
37484W        W 1208  24.689   2.291  13.480
37485W        W 1209  24.632  32.407   9.923
37486W        W 1210   2.464  40.532  14.019
37487W        W 1211  19.722  31.915  14.326
37488W        W 1212  43.367  33.549   1.776
37489W        W 1213   0.355  27.666   0.342
37490W        W 1214   7.401   8.402  12.546
37491W        W 1215  18.554  11.162   1.235
37492W        W 1216   0.315  35.396   3.219
37493W        W 1217  31.952  40.352  11.590
37494W        W 1218  34.391  38.438   2.900
37495W        W 1219   2.346   1.339   2.721
37496W        W 1220  44.754  39.434   1.884
37497W        W 1221  20.179  20.169   0.413
37498W        W 1222  27.585  42.978  12.563
37499W        W 1223  23.502   2.947   0.275
37500W        W 1224  35.397  39.872  14.013
37501W        W 1225  20.632   5.296  11.464
37502W        W 1226  17.603  40.419  10.447
37503W        W 1227  19.273  36.398  12.440
37504W        W 1228  41.433  21.558  12.883
37505W        W 1229  32.487   4.714  10.558
37506W        W 1230  28.072   0.294  14.326
37507W        W 1231  18.286  29.588   2.241
37508W        W 1232  32.477  25.548  13.386
37509W        W 1233  28.593  19.170  11.033
37510W        W 1234  33.610  34.480   2.881
37511W        W 1235  41.957  37.039   2.306
37512W        W 1236  12.285  42.982  10.529
37513W        W 1237  11.195  26.143  10.462
37514W        W 1238   8.257  34.037   0.854
37515W        W 1239  39.334  42.342  10.996
37516W        W 1240   9.815  18.091  14.023
37517W        W 1241  15.822  17.580  10.939
37518W        W 1242  42.022  41.443   2.852
37519W        W 1243  16.224  24.563   1.326
37520W        W 1244   4.916  42.323  11.518
37521W        W 1245  32.580  14.201   3.305
37522W        W 1246  24.711  22.513  14.283
37523W        W 1247  11.756  15.819   3.782
37524W        W 1248  31.628  25.148   2.717
37525W        W 1249   5.909  20.237   2.762
37526W        W 1250  17.126  23.502  12.015
37527W        W 1251  12.228  37.902  12.062
37528W        W 1252   2.747  44.840  12.864
37529W        W 1253   5.770  42.863  12.472
37530W        W 1254  35.040  40.037   2.790
37531W        W 1255  18.212  16.606   4.624
37532W        W 1256  26.664  24.012  13.998
37533W        W 1257  22.544  36.005   0.282
37534W        W 1258  38.977  12.140   2.663
37535W        W 1259  26.009  37.384   3.290
37536W        W 1260  34.374  30.947   1.428
37537W        W 1261  29.082  35.006  14.783
37538W        W 1262  28.056  22.686  10.122
37539W        W 1263  17.796  22.515  13.527
37540W        W 1264  14.737  10.329   3.739
37541W        W 1265   3.736   3.807  11.590
37542W        W 1266   1.959  25.203   2.183
37543W        W 1267  20.244  42.400   3.242
37544W        W 1268  27.537  25.572   2.183
37545W        W 1269  18.211  14.724   2.408
37546W        W 1270  35.874  30.106  14.945
37547W        W 1271   6.692  17.219  10.514
37548W        W 1272  44.360  41.482  13.337
37549W        W 1273  39.463  19.773   1.432
37550W        W 1274   9.696  19.653   2.274
37551W        W 1275   8.866  15.099   0.800
37552W        W 1276   0.293  13.775  12.867
37553W        W 1277  34.044  36.976   1.745
37554W        W 1278  14.699  20.714   0.292
37555W        W 1279  14.807  28.035   2.303
37556W        W 1280  11.351   5.203  10.483
37557W        W 1281  17.248  38.845  12.484
37558W        W 1282  11.355  33.496   2.721
37559W        W 1283  19.707  15.255   3.187
37560W        W 1284  37.581  30.097   0.760
37561W        W 1285  17.273   7.254   1.772
37562W        W 1286   4.325  33.429  12.829
37563W        W 1287  43.460   5.778   4.138
37564W        W 1288  37.359   9.236  12.861
37565W        W 1289  27.069  30.982  12.475
37566W        W 1290   9.684  43.376   3.284
37567W        W 1291  42.372  26.620  13.897
37568W        W 1292  30.032   8.801   4.304
37569W        W 1293  21.737  12.691   2.898
37570W        W 1294  22.059  21.724  12.883
37571W        W 1295  25.188   8.390   4.658
37572W        W 1296  35.441  28.011  14.018
37573W        W 1297  33.472  32.563  10.449
37574W        W 1298  17.704   4.898  12.386
37575W        W 1299  44.464  29.585   1.371
37576W        W 1300  21.234  37.880   5.134
37577W        W 1301   8.197   5.746   0.960
37578W        W 1302  39.931  10.821  13.367
37579W        W 1303  32.906  20.198  11.419
37580W        W 1304  38.892  14.774  10.633
37581W        W 1305   9.158  32.099  12.888
37582W        W 1306  44.354  37.037  14.396
37583W        W 1307  29.663  35.908  13.435
37584W        W 1308  20.173   2.958   1.439
37585W        W 1309  31.638   6.784   2.727
37586W        W 1310  32.570  31.609   0.780
37587W        W 1311  26.067   8.373  12.917
37588W        W 1312  18.079  41.804   3.367
37589W        W 1313  10.292   2.248   0.457
37590W        W 1314  34.518  40.405   3.747
37591W        W 1315  15.223   8.390   2.832
37592W        W 1316   0.862  39.341  13.879
37593W        W 1317  31.410  20.706   3.342
37594W        W 1318  30.658  16.566   1.700
37595W        W 1319   0.445  38.463   4.301
37596W        W 1320  29.147  16.766   1.409
37597W        W 1321  43.829   3.719   3.296
37598W        W 1322   2.755  12.633   4.645
37599W        W 1323  43.441  21.614   2.829
37600W        W 1324  31.085  14.318   0.384
37601W        W 1325  18.730   3.885   4.193
37602W        W 1326  14.778  37.053   2.324
37603W        W 1327  18.640  44.963  14.997
37604W        W 1328   7.355  34.987   1.922
37605W        W 1329   5.286  14.128   0.472
37606W        W 1330  29.072   8.856   3.332
37607W        W 1331   4.752  27.175  10.998
37608W        W 1332  41.916  43.872  14.350
37609W        W 1333  20.096   6.780  11.115
37610W        W 1334  36.880  36.346  14.837
37611W        W 1335  26.124   7.779   3.147
37612W        W 1336  22.208   6.371   4.325
37613W        W 1337  40.986   1.362  11.933
37614W        W 1338  40.512  26.501   3.750
37615W        W 1339  36.056  35.375  11.582
37616W        W 1340   2.368   8.675   4.626
37617W        W 1341  41.010  35.514  13.934
37618W        W 1342  44.871   8.279  14.981
37619W        W 1343  27.677  20.151  12.575
37620W        W 1344  37.458  40.848  10.505
37621W        W 1345  44.791  20.227  13.358
37622W        W 1346  11.261  24.668  11.992
37623W        W 1347  39.971   5.291  11.544
37624W        W 1348  24.537  14.612  14.002
37625W        W 1349  14.304  38.537  14.462
37626W        W 1350  30.506  13.185   4.649
37627W        W 1351  33.559  21.529  14.945
37628W        W 1352  13.784  27.091  10.893
37629W        W 1353   6.396  32.909  12.385
37630W        W 1354  36.361  15.649  13.858
37631W        W 1355  32.514  38.983  12.899
37632W        W 1356  19.644  20.623   3.337
37633W        W 1357  32.098  42.477   3.376
37634W        W 1358  16.293   3.376  13.365
37635W        W 1359  16.634  15.102  12.829
37636W        W 1360  12.195  24.706  11.396
37637W        W 1361  19.137  18.768  13.828
37638W        W 1362  26.966   3.722   3.322
37639W        W 1363   3.932  25.508  14.369
37640W        W 1364  30.918  27.135   0.868
37641W        W 1365  27.940  18.128   3.203
37642W        W 1366  39.065   4.326   3.385
37643W        W 1367  19.202  37.564   4.177
37644W        W 1368  33.092  33.380  13.923
37645W        W 1369   8.178  34.371   3.677
37646W        W 1370  15.714   3.784  12.921
37647W        W 1371  37.974   6.778   3.638
37648W        W 1372  19.179   4.311  12.453
37649W        W 1373  30.157  40.388   1.905
37650W        W 1374   5.302  20.749   4.798
37651W        W 1375  18.716  29.604  12.857
37652W        W 1376   9.176   5.322  10.535
37653W        W 1377  28.648  17.664   3.784
37654W        W 1378   7.172  10.164   2.236
37655W        W 1379   6.794  18.236  11.560
37656W        W 1380  21.022  10.332   3.784
37657W        W 1381  26.198   6.826  11.001
37658W        W 1382  28.570   1.454  12.453
37659W        W 1383  10.298  38.014  12.571
37660W        W 1384  23.682  15.138   0.432
37661W        W 1385  28.953  11.749  11.463
37662W        W 1386   7.736   3.892   2.805
37663W        W 1387  15.319   3.450  12.372
37664W        W 1388   9.851   3.753  11.484
37665W        W 1389  31.915  15.577   3.773
37666W        W 1390  23.238  34.490   1.306
37667W        W 1391  24.982  33.057  13.979
37668W        W 1392  25.183  20.161   0.727
37669W        W 1393  10.765  42.447  14.027
37670W        W 1394  18.221  11.300   1.883
37671W        W 1395  39.010   2.410  13.340
37672W        W 1396  32.409   7.253   2.358
37673W        W 1397  17.710  31.600   4.706
37674W        W 1398  25.530  12.268   3.837
37675W        W 1399  26.066  27.975  11.017
37676W        W 1400  29.989  12.620   1.435
37677W        W 1401  28.160   9.841   3.220
37678W        W 1402   1.348  18.599  12.492
37679W        W 1403  41.014  21.250   4.791
37680W        W 1404  13.787  29.497   3.658
37681W        W 1405  20.721  22.136   1.210
37682W        W 1406  31.453   9.293   4.221
37683W        W 1407  35.414  27.038   1.822
37684W        W 1408  30.548  23.712  13.497
37685W        W 1409   8.849   1.961   3.356
37686W        W 1410  23.113  43.906  11.974
37687W        W 1411  21.724  25.977  12.566
37688W        W 1412   5.239  38.385  12.051
37689W        W 1413  38.549  10.256  11.931
37690W        W 1414  13.695  26.078   3.700
37691W        W 1415  32.029  17.248  11.599
37692W        W 1416   4.943   3.928  11.391
37693W        W 1417  19.246  20.062   2.803
37694W        W 1418   2.803   4.433  14.804
37695W        W 1419  15.661  27.091   3.801
37696W        W 1420   6.295  25.015   2.713
37697W        W 1421  32.036  35.548   4.146
37698W        W 1422  19.580  39.408   5.282
37699W        W 1423  15.184  21.048   4.235
37700W        W 1424   3.315  25.037   2.287
37701W        W 1425  43.396  23.223  13.056
37702W        W 1426  41.431  26.037   4.703
37703W        W 1427  37.833  28.017  11.604
37704W        W 1428   6.393  38.909  14.978
37705W        W 1429  31.544   3.340   1.929
37706W        W 1430  40.389   5.301  12.473
37707W        W 1431  13.816   2.758   2.283
37708W        W 1432   9.297  10.719  10.951
37709W        W 1433   9.771  26.048  14.011
37710W        W 1434  16.163   3.820   3.738
37711W        W 1435  41.397  30.078   0.889
37712W        W 1436  24.152  31.106  14.481
37713W        W 1437  29.653  38.363  12.056
37714W        W 1438  43.782  35.955  14.285
37715W        W 1439  13.330  24.186  12.356
37716W        W 1440   7.854   0.960  11.524
37717W        W 1441   1.889   6.321  13.022
37718W        W 1442   8.210  41.389  12.040
37719W        W 1443  43.395   5.818   0.317
37720W        W 1444  12.753   2.840   0.900
37721W        W 1445  42.963  12.359  12.956
37722W        W 1446  19.180  19.274   0.353
37723W        W 1447  32.400  24.089  12.038
37724W        W 1448  38.389   6.192   2.787
37725W        W 1449  26.049   3.901   4.620
37726W        W 1450   7.781  42.487  12.022
37727W        W 1451  11.811  37.857  10.628
37728W        W 1452  43.317   8.738  12.401
37729W        W 1453  32.503   9.669  12.390
37730W        W 1454  14.833   8.386  12.988
37731W        W 1455  21.733  30.036   9.477
37732W        W 1456   6.890   0.802   0.409
37733W        W 1457   7.756   4.373  13.976
37734W        W 1458  39.507  37.083   1.345
37735W        W 1459  18.260  10.744  10.570
37736W        W 1460  28.039  25.004  10.887
37737W        W 1461  24.624  17.636   0.343
37738W        W 1462  30.457  22.998   2.792
37739W        W 1463  25.510  30.018  11.984
37740W        W 1464  38.485  36.935  12.543
37741W        W 1465  12.801  43.856  13.327
37742W        W 1466   0.821  30.637   0.911
37743W        W 1467  39.338  27.537   4.217
37744W        W 1468  31.610  13.827  13.361
37745W        W 1469  38.470  26.066  12.070
37746W        W 1470  43.830   9.302  12.064
37747W        W 1471  35.977  24.601   1.296
37748W        W 1472  18.569  32.513   1.883
37749W        W 1473  29.431  35.000   2.673
37750W        W 1474  32.419  12.670  11.053
37751W        W 1475  11.843  27.195   1.252
37752W        W 1476   9.195  29.090   0.350
37753W        W 1477  36.046  43.460   3.659
37754W        W 1478  23.610  27.668   2.798
37755W        W 1479  42.338   9.338   3.213
37756W        W 1480  44.443  44.287  12.538
37757W        W 1481  35.893  41.488  12.498
37758W        W 1482  17.223  39.981  11.569
37759W        W 1483  18.781  15.168  12.494
37760W        W 1484   0.764   8.833   1.432
37761W        W 1485  29.971  30.977  12.909
37762W        W 1486  22.609  34.023  12.057
37763W        W 1487  42.463   5.706  11.399
37764W        W 1488   7.718  27.576   0.448
37765W        W 1489  37.364  31.473  14.996
37766W        W 1490  39.876   2.779   3.679
37767W        W 1491  14.750  31.966  13.420
37768W        W 1492  22.219  37.001   1.796
37769W        W 1493  14.734   4.353   3.224
37770W        W 1494  33.996  44.482   2.326
37771W        W 1495  42.402  35.051  14.774
37772W        W 1496  18.169  34.604  13.441
37773W        W 1497  23.531   7.268   4.641
37774W        W 1498  12.752  24.701  11.525
37775W        W 1499  25.052  36.417   0.795
37776W        W 1500  40.398  31.148  14.512
37777W        W 1501  22.713  19.248   2.290
37778W        W 1502  26.528  10.236  10.607
37779W        W 1503  10.730   6.199   3.212
37780W        W 1504  37.879   4.802  14.799
37781W        W 1505  22.190   5.805  12.080
37782W        W 1506  19.122   8.893  11.047
37783W        W 1507  17.177  16.747  12.970
37784W        W 1508   1.455  38.559  13.893
37785W        W 1509   5.903   7.342  12.896
37786W        W 1510   6.779   2.389  11.930
37787W        W 1511  12.325   3.318   1.314
37788W        W 1512  44.363  31.945   1.393
37789W        W 1513  17.063  20.589   3.650
37790W        W 1514   8.368  34.864  12.509
37791W        W 1515  20.716  37.921  12.042
37792W        W 1516   7.230  44.891  13.832
37793W        W 1517  23.179  17.615   4.348
37794W        W 1518   1.969  40.049   1.232
37795W        W 1519  11.344  23.642  11.969
37796W        W 1520  43.848  37.851   2.806
37797W        W 1521  22.065  19.165  12.951
37798W        W 1522  12.665  39.472   1.347
37799W        W 1523   0.840  15.700  12.917
37800W        W 1524  43.288  17.177   2.743
37801W        W 1525  13.723  14.624  12.380
37802W        W 1526  12.152  23.113  11.078
37803W        W 1527  13.631  19.572   3.311
37804W        W 1528   9.813  41.895  14.948
37805W        W 1529   3.898  40.388  11.072
37806W        W 1530  14.722   6.279  11.597
37807W        W 1531  15.162  11.666   4.668
37808W        W 1532  29.989  42.985  12.483
37809W        W 1533  26.205  22.137   3.695
37810W        W 1534  37.013  40.019  13.819
37811W        W 1535   5.887  22.721   4.191
37812W        W 1536  19.149  11.353  13.798
37813W        W 1537   2.319  39.059   2.210
37814W        W 1538   5.250  42.306  11.555
37815W        W 1539  13.348  31.028  10.575
37816W        W 1540  16.779  31.998  14.422
37817W        W 1541  33.624  42.410  13.432
37818W        W 1542  43.444  36.077   5.590
37819W        W 1543   9.354  38.439   2.200
37820W        W 1544   0.748  10.810   2.874
37821W        W 1545  27.496  41.474  11.546
37822W        W 1546  43.365  31.034  10.914
37823W        W 1547  14.780  14.330   3.362
37824W        W 1548  41.892  32.019   4.712
37825W        W 1549   8.693  13.638   0.790
37826W        W 1550  40.446   0.306   0.936
37827W        W 1551  34.113  16.723   4.346
37828W        W 1552  37.863  43.010   0.759
37829W        W 1553  25.973  25.986   0.315
37830W        W 1554  34.968  25.046   5.238
37831W        W 1555  34.951  11.859   2.869
37832W        W 1556  33.425  39.405  13.340
37833W        W 1557  26.570  24.623   4.315
37834W        W 1558  35.479   2.265  14.435
37835W        W 1559  39.888  41.470  14.981
37836W        W 1560   8.184  30.456   2.814
37837W        W 1561   3.216  29.034  13.887
37838W        W 1562   2.784  38.852  13.959
37839W        W 1563  31.049  44.832  13.863
37840W        W 1564  14.119  36.061   2.794
37841W        W 1565  44.827  20.235  11.600
37842W        W 1566  36.005  44.789  10.489
37843W        W 1567  11.228   9.319   2.344
37844W        W 1568   9.725  14.249  10.594
37845W        W 1569  12.248  16.204  10.544
37846W        W 1570   1.433  16.272  11.577
37847W        W 1571  30.424  40.818  11.565
37848W        W 1572  35.981  41.832  11.100
37849W        W 1573  34.013   5.437  12.372
37850W        W 1574   4.812  23.987   1.307
37851W        W 1575  12.137  30.963   0.320
37852W        W 1576  20.650  27.509  13.330
37853W        W 1577  14.614  26.481  13.474
37854W        W 1578   4.893  13.620  12.383
37855W        W 1579   3.743  14.178   3.277
37856W        W 1580   7.204  26.597  12.938
37857W        W 1581   9.354   3.856   3.305
37858W        W 1582  40.945  28.177  10.638
37859W        W 1583  11.644  16.090  14.507
37860W        W 1584  41.451  26.030  14.324
37861W        W 1585  23.625  18.563   2.895
37862W        W 1586   2.785   2.803   3.856
37863W        W 1587  16.304  40.808   4.314
37864W        W 1588   8.188  16.091   2.408
37865W        W 1589  20.173   6.736  13.467
37866W        W 1590  10.663  37.486  10.909
37867W        W 1591  40.808   7.827  13.850
37868W        W 1592  44.000  13.337   4.606
37869W        W 1593  39.918  23.003  11.072
37870W        W 1594  41.999  31.908   4.312
37871W        W 1595  12.271  31.568  11.094
37872W        W 1596  26.589  30.423  10.139
37873W        W 1597   0.764  27.580   3.168
37874W        W 1598   7.672  25.078   3.754
37875W        W 1599  21.719  31.582  11.443
37876W        W 1600  28.068  44.260   2.230
37877W        W 1601   1.921  26.159   0.459
37878W        W 1602  14.235   2.399   0.757
37879W        W 1603  32.122  39.975  10.041
37880W        W 1604   6.876  17.249   1.875
37881W        W 1605  19.152  43.965  14.923
37882W        W 1606   7.187  14.100   0.771
37883W        W 1607  25.022  17.305  11.551
37884W        W 1608  28.167   3.809  12.858
37885W        W 1609   7.825   3.911   0.794
37886W        W 1610  22.595  22.508  12.916
37887W        W 1611  19.106  26.121   2.779
37888W        W 1612  44.756  35.978  12.901
37889W        W 1613   7.867  21.245   5.215
37890W        W 1614  18.591  17.647   3.313
37891W        W 1615  21.197  10.781   2.805
37892W        W 1616  35.928  25.198   3.666
37893W        W 1617  16.657  14.186  10.546
37894W        W 1618   3.225  10.140  13.316
37895W        W 1619  20.270  25.993  14.465
37896W        W 1620  43.515  11.265   2.778
37897W        W 1621   8.747   1.853   4.208
37898W        W 1622  17.281  38.448   2.192
37899W        W 1623  19.116  43.390   2.320
37900W        W 1624  10.252  38.326  11.096
37901W        W 1625   2.908  41.882   0.743
37902W        W 1626  30.105   7.317  10.986
37903W        W 1627  20.075   5.413  12.947
37904W        W 1628  11.797  33.039  13.980
37905W        W 1629  38.029  21.182  14.295
37906W        W 1630  10.353  44.762   4.636
37907W        W 1631   3.446  38.902   2.259
37908W        W 1632  32.139   3.770  10.611
37909W        W 1633  44.827  37.840   1.300
37910W        W 1634  24.110  37.902  12.846
37911W        W 1635  21.123  41.815   1.787
37912W        W 1636  13.145   0.302   1.862
37913W        W 1637  33.498   6.259   3.286
37914W        W 1638  44.879   4.771  12.847
37915W        W 1639  29.440   8.655   3.366
37916W        W 1640   0.334  42.842  10.486
37917W        W 1641  23.127  11.205  13.407
37918W        W 1642  20.144  22.242  12.040
37919W        W 1643  21.027  39.354  11.404
37920W        W 1644  13.307  29.046   4.759
37921W        W 1645  44.491  27.136  10.544
37922W        W 1646   4.385  11.676  14.278
37923W        W 1647   6.224  14.213   3.736
37924W        W 1648  41.889  22.137   0.791
37925W        W 1649  36.074   3.448   1.733
37926W        W 1650  26.508  14.716   2.710
37927W        W 1651  27.950  30.080  11.000
37928W        W 1652  12.236   9.333  14.319
37929W        W 1653  29.454   3.379   2.762
37930W        W 1654  44.772  23.583  11.008
37931W        W 1655  44.912  23.008  13.415
37932W        W 1656   9.314  31.035   0.941
37933W        W 1657  25.080  25.589   5.314
37934W        W 1658  11.196  35.005   0.341
37935W        W 1659  32.036  19.256   4.821
37936W        W 1660  20.106   3.249   5.299
37937W        W 1661  10.315  10.731  10.621
37938W        W 1662  29.582  35.097   0.301
37939W        W 1663  17.115  34.076  10.510
37940W        W 1664  14.208  30.631   3.348
37941W        W 1665  12.241   7.387  14.344
37942W        W 1666  14.745  35.968   4.694
37943W        W 1667  42.870  18.112   4.626
37944W        W 1668  32.976  17.154   2.221
37945W        W 1669  11.689   6.676   1.219
37946W        W 1670  10.696  19.050   4.639
37947W        W 1671  18.252  19.215  12.549
37948W        W 1672  16.172  38.933  11.519
37949W        W 1673  25.978  21.250   1.895
37950W        W 1674  31.959  15.668  13.534
37951W        W 1675   9.775  10.688   0.785
37952W        W 1676  43.363   7.799   0.478
37953W        W 1677   6.794  13.641  10.983
37954W        W 1678   0.745  15.246  10.899
37955W        W 1679  32.415  18.610   4.273
37956W        W 1680  24.066  13.666   3.312
37957W        W 1681  26.602  16.154   1.230
37958W        W 1682   8.368  38.830  14.322
37959W        W 1683   7.709   3.716   4.830
37960W        W 1684  20.731  43.504   1.321
37961W        W 1685  15.582  38.037   1.697
37962W        W 1686  34.581   4.803   0.922
37963W        W 1687  22.588  20.265   3.351
37964W        W 1688  27.454   4.274  14.824
37965W        W 1689  41.486  40.942   0.375
37966W        W 1690   4.276  39.815  13.991
37967W        W 1691  24.655   2.934   2.710
37968W        W 1692  30.982  14.247   3.160
37969W        W 1693  41.318   9.758  11.094
37970W        W 1694  24.173  41.882   0.885
37971W        W 1695  20.101  30.096  14.991
37972W        W 1696  12.233   7.215  11.104
37973W        W 1697  29.927   5.862   3.242
37974W        W 1698  24.500  14.237   3.669
37975W        W 1699  31.924  10.262   0.418
37976W        W 1700  12.749  43.779   2.390
37977W        W 1701  22.090  40.040  14.850
37978W        W 1702  24.205  38.071   0.935
37979W        W 1703   3.808  31.140   1.772
37980W        W 1704  18.164  41.987  10.573
37981W        W 1705  10.141   3.352   4.303
37982W        W 1706   0.876  23.538  13.872
37983W        W 1707  44.928  20.722  11.936
37984W        W 1708  32.461  35.421  13.836
37985W        W 1709  15.178  34.968  12.046
37986W        W 1710  29.128  26.551   3.834
37987W        W 1711  34.401  30.018  14.995
37988W        W 1712  23.156  23.237  11.050
37989W        W 1713  10.179  20.530   1.409
37990W        W 1714  21.521   0.347   3.859
37991W        W 1715  18.732   8.726  10.502
37992W        W 1716  13.624  44.487   0.326
37993W        W 1717  43.920  11.305   2.683
37994W        W 1718  23.084  31.100  10.524
37995W        W 1719  34.102  23.030   0.898
37996W        W 1720  28.973   5.927   1.300
37997W        W 1721  28.112  43.919  13.955
37998W        W 1722  26.045  27.099   1.400
37999W        W 1723  25.702  26.570  13.349
38000W        W 1724   5.694  21.567  14.412
38001W        W 1725  22.200   0.816   3.833
38002W        W 1726   0.492  42.861  11.074
38003W        W 1727  24.201  30.041   2.246
38004W        W 1728  10.703  12.180  10.641
38005W        W 1729  19.668  37.057   0.246
38006W        W 1730  18.702  16.182  11.006
38007W        W 1731   2.303  39.857  13.991
38008W        W 1732  42.895  36.023  11.452
38009W        W 1733  22.205  28.092   0.825
38010W        W 1734  43.949  15.657  11.857
38011W        W 1735  32.538  17.304   3.379
38012W        W 1736  34.468  12.722  14.287
38013W        W 1737   2.271  36.841  12.089
38014W        W 1738  26.701  40.935   0.351
38015W        W 1739  23.573  38.435   3.630
38016W        W 1740   9.778  17.124  14.913
38017W        W 1741  14.601   6.241   5.681
38018W        W 1742   0.488   7.697  11.580
38019W        W 1743  16.696  33.934  14.892
38020W        W 1744   0.470  29.474   1.915
38021W        W 1745   7.765   2.469  13.928
38022W        W 1746   2.866  37.421  12.418
38023W        W 1747  36.368  23.733  13.798
38024W        W 1748  17.778  25.540   3.814
38025W        W 1749  29.586  32.565   3.200
38026W        W 1750  31.113  37.356  13.379
38027W        W 1751  30.600  11.794   0.957
38028W        W 1752   9.846  17.254   2.755
38029W        W 1753   0.251  35.603   0.313
38030W        W 1754  40.380  29.461   3.799
38031W        W 1755  12.178  39.402   4.218
38032W        W 1756  42.412   0.877  13.935
38033W        W 1757  35.404  13.637  11.518
38034W        W 1758  15.611  34.515  12.989
38035W        W 1759   9.368  32.494  10.916
38036W        W 1760  33.008  23.554  13.965
38037W        W 1761  11.686  44.808  12.518
38038W        W 1762  12.346  15.779   4.758
38039W        W 1763  28.181  15.693   1.248
38040W        W 1764  33.015   3.350   3.711
38041W        W 1765  24.986  44.876   1.396
38042W        W 1766  16.243  42.873  14.857
38043W        W 1767  20.194   1.804  10.500
38044W        W 1768  12.183  10.864   2.382
38045W        W 1769   6.795  29.556   4.224
38046W        W 1770   2.349   0.850   3.179
38047W        W 1771  17.563  32.143  13.318
38048W        W 1772  35.896   3.405   1.421
38049W        W 1773  26.120  29.593   0.857
38050W        W 1774   3.439  11.330   4.832
38051W        W 1775   9.651  37.543  10.504
38052W        W 1776  37.397  19.248   4.773
38053W        W 1777  23.225  28.143  11.532
38054W        W 1778   9.759   2.781  13.923
38055W        W 1779  25.529  14.792   3.151
38056W        W 1780  36.573  25.114  10.933
38057W        W 1781  10.692  33.561   4.331
38058W        W 1782  23.641  27.531  12.445
38059W        W 1783   1.464  41.791  13.410
38060W        W 1784  21.143  12.238  10.536
38061W        W 1785  23.050  39.317   4.180
38062W        W 1786  22.060  37.917  12.995
38063W        W 1787  25.201  29.459  12.374
38064W        W 1788  26.995   1.360   1.850
38065W        W 1789  12.298  12.815  11.037
38066W        W 1790  29.433  37.883   0.283
38067W        W 1791  27.564  19.766  10.626
38068W        W 1792  14.813   0.849   2.280
38069W        W 1793  18.644  10.738   1.402
38070W        W 1794   9.238  22.190  10.633
38071W        W 1795  17.721  31.520  12.470
38072W        W 1796  26.669  11.341  13.479
38073W        W 1797   0.251  13.666  10.931
38074W        W 1798  22.622  13.798   0.265
38075W        W 1799   8.292   2.391  11.538
38076W        W 1800  43.941  22.159  12.398
38077W        W 1801  15.794  12.679   1.882
38078W        W 1802   2.743  38.424   1.231
38079W        W 1803  28.931  35.594   0.431
38080W        W 1804  29.932  17.111   0.954
38081W        W 1805  33.416  39.449  12.058
38082W        W 1806  11.277  22.076   1.400
38083W        W 1807  43.997  27.636   0.751
38084W        W 1808  44.923  29.549   2.331
38085W        W 1809  27.101  38.948  13.984
38086W        W 1810  14.732  27.669   1.933
38087W        W 1811  12.740   3.288   1.304
38088W        W 1812   9.223  18.763   0.736
38089W        W 1813  20.671   5.687  10.436
38090W        W 1814   6.315  19.676   1.704
38091W        W 1815   1.372  43.943   0.804
38092W        W 1816  26.543  22.591  11.078
38093W        W 1817  11.849  18.106   1.763
38094W        W 1818   1.886  10.279   3.221
38095W        W 1819  29.633  42.420   4.796
38096W        W 1820  24.063   0.844  11.593
38097W        W 1821  29.606  14.683   1.798
38098W        W 1822   7.711  43.453  12.483
38099W        W 1823  14.172   8.712  12.867
38100W        W 1824  23.173   6.885  13.809
38101W        W 1825  23.984  17.785   0.913
38102W        W 1826  22.738  15.190  14.920
38103W        W 1827  38.376  13.115  14.967
38104W        W 1828  37.521  12.336  11.015
38105W        W 1829  44.409  35.591  13.431
38106W        W 1830  37.355  10.740   4.809
38107W        W 1831   0.747  10.666  12.510
38108W        W 1832  37.498  17.161   0.864
38109W        W 1833  17.293  10.262   0.911
38110W        W 1834  39.990   8.696  10.908
38111W        W 1835  40.310   4.221  14.417
38112W        W 1836  29.620   6.300  11.555
38113W        W 1837  26.106  26.479  11.566
38114W        W 1838  44.916  17.176   2.254
38115W        W 1839   5.776  42.838   4.724
38116W        W 1840  18.140   6.372  13.488
38117W        W 1841   9.220  15.621   3.319
38118W        W 1842   0.964  33.952   0.797
38119W        W 1843   8.672  23.528   3.347
38120W        W 1844   1.754  29.514   3.176
38121W        W 1845  31.047  11.132   4.219
38122W        W 1846  32.504   7.671  13.483
38123W        W 1847  42.875   3.804  13.312
38124W        W 1848  32.525   0.341  11.051
38125W        W 1849   5.790  36.976   0.308
38126W        W 1850  37.046  41.302   3.163
38127W        W 1851  38.418  44.765  10.997
38128W        W 1852  34.928  19.257   1.781
38129W        W 1853  15.301  39.995   4.802
38130W        W 1854  37.878  36.971  11.379
38131W        W 1855  41.022   9.352  14.508
38132W        W 1856  13.808  19.056   1.713
38133W        W 1857  28.012  34.092   0.443
38134W        W 1858  10.191  17.158  12.840
38135W        W 1859  22.630   3.382  14.968
38136W        W 1860  43.828   8.163   4.799
38137W        W 1861  13.128  25.562  12.402
38138W        W 1862  21.029   2.448  12.992
38139W        W 1863   4.869  19.275   3.200
38140W        W 1864  21.558   5.863  13.402
38141W        W 1865  14.602  11.686  14.460
38142W        W 1866   1.902  15.296  13.801
38143W        W 1867  28.620   2.843   4.659
38144W        W 1868  25.500   7.214   2.834
38145W        W 1869   8.254  41.884   4.334
38146W        W 1870   5.751  40.917  10.410
38147W        W 1871  16.794   1.916  11.107
38148W        W 1872  38.834  30.989   4.729
38149W        W 1873  12.749  43.858  14.924
38150W        W 1874  12.698  41.992  14.017
38151W        W 1875   5.271  31.097   2.335
38152W        W 1876  42.322  28.583  12.350
38153W        W 1877  19.634  43.454   1.352
38154W        W 1878  18.631   0.808   2.410
38155W        W 1879   8.812   3.810  14.927
38156W        W 1880  44.892  34.395   2.773
38157W        W 1881  33.566  18.781  12.346
38158W        W 1882  40.882  40.309   0.313
38159W        W 1883  37.007  16.595  11.934
38160W        W 1884  11.638  37.912   4.634
38161W        W 1885   1.745  35.079  14.842
38162W        W 1886  22.588  26.528   1.443
38163W        W 1887  29.008  32.604  12.363
38164W        W 1888  43.988  40.957  10.545
38165W        W 1889  23.551   4.759  13.441
38166W        W 1890  26.038  19.620  13.523
38167W        W 1891  33.030  26.156  11.559
38168W        W 1892  26.016  16.173  14.015
38169W        W 1893   9.205  24.678  14.999
38170W        W 1894  35.013  18.125  13.335
38171W        W 1895  36.076  28.031  13.454
38172W        W 1896  23.540  28.047   5.615
38173W        W 1897  29.926  20.136   4.733
38174W        W 1898  44.774   7.781  14.824
38175W        W 1899   0.381  23.045   1.755
38176W        W 1900  20.552   9.364   3.792
38177W        W 1901   6.766  19.112   2.862
38178W        W 1902  23.676  33.388   0.394
38179W        W 1903  16.757   9.323   4.123
38180W        W 1904   5.757   3.848  13.517
38181W        W 1905   7.778  29.096  14.410
38182W        W 1906  24.997  40.995  12.391
38183W        W 1907  16.210  30.067  10.635
38184W        W 1908  40.465  18.550  10.073
38185W        W 1909  27.196  16.176   2.697
38186W        W 1910   3.873  33.390  14.475
38187W        W 1911  42.028  18.698   3.168
38188W        W 1912  34.089  25.613   1.786
38189W        W 1913  40.416  39.545  10.532
38190W        W 1914  36.370  40.351  11.462
38191W        W 1915  30.989   8.869   0.910
38192W        W 1916  26.084   2.251  12.926
38193W        W 1917  29.642  21.145   1.247
38194W        W 1918  10.210  19.629  10.994
38195W        W 1919   2.843  19.101   0.254
38196W        W 1920   1.273  19.744   1.374
38197W        W 1921  13.126  30.093   1.235
38198W        W 1922  33.549  34.061   0.911
38199W        W 1923  40.869   4.217  14.386
38200W        W 1924   4.326  26.004   3.325
38201W        W 1925  11.146   3.824   2.276
38202W        W 1926  10.718  26.468   3.205
38203W        W 1927  23.241  14.615  12.008
38204W        W 1928  24.722  19.566  11.516
38205W        W 1929   0.351  28.037  12.555
38206W        W 1930  23.999   2.894   4.686
38207W        W 1931  24.544  37.554   4.301
38208W        W 1932  37.926  10.196  11.500
38209W        W 1933  23.100  33.486   3.222
38210W        W 1934  13.165  11.309   0.893
38211W        W 1935  30.482  22.534  13.488
38212W        W 1936  11.806  13.340  11.043
38213W        W 1937  41.826  20.265   1.879
38214W        W 1938   9.657  20.730   3.718
38215W        W 1939   7.710  15.098  12.569
38216W        W 1940  28.987  42.523   0.727
38217W        W 1941  18.724   5.360   0.733
38218W        W 1942  21.639   3.299  12.910
38219W        W 1943  35.476  20.188   1.875
38220W        W 1944  13.189   4.272  11.958
38221W        W 1945   5.839  15.776   4.624
38222W        W 1946  29.487  33.086   4.749
38223W        W 1947  26.693  17.266  10.443
38224W        W 1948  14.833  17.210   0.427
38225W        W 1949   7.846  43.881  11.424
38226W        W 1950  31.078  37.506  13.838
38227W        W 1951  25.657  34.411   4.132
38228W        W 1952   2.768   9.720   3.696
38229W        W 1953   2.412   0.759   0.890
38230W        W 1954  26.137   4.326   2.673
38231W        W 1955  35.405  21.550  14.843
38232W        W 1956   1.871  34.056  13.456
38233W        W 1957   9.845   9.350  11.931
38234W        W 1958  23.490   4.909   0.484
38235W        W 1959  25.114  44.452  14.990
38236W        W 1960   2.471  15.118  12.909
38237W        W 1961  28.448  33.090  13.460
38238W        W 1962  21.224  28.083  12.409
38239W        W 1963  39.869  43.943   1.228
38240W        W 1964  16.242   0.261  12.503
38241W        W 1965  26.965  38.405   0.313
38242W        W 1966  12.120  16.182   3.672
38243W        W 1967  32.500  30.586  12.912
38244W        W 1968  19.066   8.314  10.608
38245W        W 1969  39.379  26.994  14.818
38246W        W 1970  22.235  14.260   1.250
38247W        W 1971  35.935  12.360   1.905
38248W        W 1972  34.412   6.893  11.532
38249W        W 1973  44.773  12.730   1.284
38250W        W 1974  31.461  13.773  12.982
38251W        W 1975   1.282   5.360  10.444
38252W        W 1976  10.662   6.716   2.260
38253W        W 1977  34.029  30.146   3.681
38254W        W 1978  21.624  25.169   0.793
38255W        W 1979  31.566  28.930  14.014
38256W        W 1980  32.443  41.792  12.087
38257W        W 1981  24.697  44.354  11.489
38258W        W 1982   1.834   1.794  11.055
38259W        W 1983  36.849  12.753   3.363
38260W        W 1984  35.460   1.413  13.327
38261W        W 1985  42.464  41.515   3.354
38262W        W 1986  32.048  25.584   0.751
38263W        W 1987  25.698  39.862   4.327
38264W        W 1988  32.635  42.392  11.868
38265W        W 1989  11.192  42.506  10.502
38266W        W 1990  14.788  26.043   0.967
38267W        W 1991  39.545  17.110  10.627
38268W        W 1992  17.713  18.675  14.381
38269W        W 1993  21.588  12.612   9.977
38270W        W 1994  15.715  26.113   5.141
38271W        W 1995   8.784   3.928   4.255
38272W        W 1996   6.729  23.550  14.312
38273W        W 1997  18.287   4.331  12.054
38274W        W 1998  28.955   3.413  13.950
38275W        W 1999  36.482  26.035   0.345
38276W        W 2000  41.919   0.417   1.802
38277W        W 2001   1.954  19.599   2.179
38278W        W 2002   7.677  17.107  12.532
38279W        W 2003  32.543  22.058  13.064
38280W        W 2004   7.195  25.671   1.800
38281W        W 2005  29.015  23.137   0.277
38282W        W 2006  21.517  41.939  12.547
38283W        W 2007  43.933   9.832  12.581
38284W        W 2008  42.794  38.528  14.803
38285W        W 2009  10.760  28.461   0.427
38286W        W 2010  34.033  42.524  13.837
38287W        W 2011  28.982  25.673  14.346
38288W        W 2012  25.139  34.905  14.858
38289W        W 2013  15.255  19.779   2.380
38290W        W 2014  38.540  19.066  12.916
38291W        W 2015  26.000  28.126   3.817
38292W        W 2016   1.303  10.760  12.534
38293W        W 2017  24.017  27.125  10.524
38294W        W 2018  26.678  11.219   4.215
38295W        W 2019  39.497  37.430   3.319
38296W        W 2020  15.133  10.359  11.917
38297W        W 2021  42.021  36.848   3.760
38298W        W 2022  13.705   2.790   9.921
38299W        W 2023  24.222  28.477  11.426
38300W        W 2024   7.232  14.700   9.557
38301W        W 2025   1.782  30.000   2.676
38302W        W 2026  43.357  44.473  14.402
38303W        W 2027  31.563   3.809  10.547
38304W        W 2028  23.580  12.642   2.205
38305W        W 2029  21.072  15.091   9.634
38306W        W 2030  37.439  12.719  10.967
38307W        W 2031  27.031  32.554  12.417
38308W        W 2032  37.907  29.978   2.232
38309W        W 2033  20.679  37.876  10.920
38310W        W 2034  35.407   5.409   3.228
38311W        W 2035  27.504  44.776   3.767
38312W        W 2036  27.058  10.637   2.778
38313W        W 2037  33.560  25.091   4.178
38314W        W 2038  31.605  25.683  12.050
38315W        W 2039  18.628  19.169  10.476
38316W        W 2040  18.130  39.500   3.196
38317W        W 2041  21.155  26.686   2.356
38318W        W 2042  38.478  24.712  11.414
38319W        W 2043   1.967  17.566  11.563
38320W        W 2044   6.895  35.534  14.466
38321W        W 2045  22.542   3.348   1.387
38322W        W 2046   9.331  15.620  10.448
38323W        W 2047  30.497  34.044  12.091
38324W        W 2048  32.913  16.232  11.483
38325W        W 2049  16.793   7.766  14.375
38326W        W 2050  40.502  38.917  13.851
38327W        W 2051  12.663  19.671  11.417
38328W        W 2052  13.224   9.210  14.963
38329W        W 2053   9.190  38.439   4.303
38330W        W 2054   8.786  17.102  14.460
38331W        W 2055  28.677  40.447  12.985
38332W        W 2056  26.555  43.386   1.349
38333W        W 2057  28.650  29.977   1.412
38334W        W 2058  37.031  24.118   3.672
38335W        W 2059  33.456  23.078  14.840
38336W        W 2060   0.283  21.712   1.905
38337W        W 2061  17.642  22.660  11.505
38338W        W 2062  13.616  44.805  13.504
38339W        W 2063  36.565  17.082   3.811
38340W        W 2064  44.764  17.706   1.768
38341W        W 2065  29.562  36.541   1.272
38342W        W 2066  12.664  20.658  12.355
38343W        W 2067   9.278  20.059   2.848
38344W        W 2068  16.252   1.771   0.745
38345W        W 2069  10.217  36.871   1.226
38346W        W 2070  25.113  31.991  14.390
38347W        W 2071   6.219  21.530  13.369
38348W        W 2072  44.770   4.737  10.440
38349W        W 2073  29.999  44.910   3.161
38350W        W 2074  33.530   3.433  12.476
38351W        W 2075   2.962  44.354   4.832
38352W        W 2076  13.306  36.871   3.304
38353W        W 2077  23.080  44.771  12.831
38354W        W 2078  10.139  26.053   0.362
38355W        W 2079  24.702  10.308   9.457
38356W        W 2080  17.757  36.881   1.923
38357W        W 2081  30.119   4.757   0.962
38358W        W 2082   6.806  20.257  13.502
38359W        W 2083  10.842   8.876   0.851
38360W        W 2084  11.134  19.709  12.896
38361W        W 2085  16.790  40.029  10.928
38362W        W 2086   1.763   2.784  12.932
38363W        W 2087  33.948  31.607  10.944
38364W        W 2088  27.181   3.439   0.428
38365W        W 2089  38.360  15.786  13.511
38366W        W 2090  27.941  39.031   0.481
38367W        W 2091   4.257  25.114   2.388
38368W        W 2092  11.803   7.253   1.924
38369W        W 2093  21.651  37.350  13.341
38370W        W 2094  38.919  26.546   2.784
38371W        W 2095  32.105  35.541  13.972
38372W        W 2096   6.214  38.515  12.967
38373W        W 2097   8.900  18.596  13.879
38374W        W 2098   1.799   3.457   4.115
38375W        W 2099   6.231  38.435   4.706
38376W        W 2100   1.338   1.971   0.282
38377W        W 2101   4.375  41.357  13.920
38378W        W 2102  40.825  36.429   1.775
38379W        W 2103  10.320  15.586  11.492
38380W        W 2104   1.957  39.004   5.255
38381W        W 2105  13.647  30.527  11.439
38382W        W 2106   0.918   7.317  13.491
38383W        W 2107  11.317   0.349   4.334
38384W        W 2108  11.728  38.926   3.746
38385W        W 2109  15.235  30.485   0.779
38386W        W 2110  31.621  33.989   4.326
38387W        W 2111  38.498  37.068   2.199
38388W        W 2112  12.171  41.876  12.429
38389W        W 2113  15.275  34.464  12.419
38390W        W 2114  28.015  25.629   4.706
38391W        W 2115  36.453  35.370   1.778
38392W        W 2116  23.702   5.417   2.274
38393W        W 2117   7.692  39.955   1.739
38394W        W 2118  33.926  41.452   0.341
38395W        W 2119  38.500  42.994   2.304
38396W        W 2120  38.014   4.860  13.941
38397W        W 2121  24.979  12.248  10.433
38398W        W 2122  25.612   7.293   3.150
38399W        W 2123   1.761   5.249  12.991
38400W        W 2124  34.570   9.332  11.549
38401W        W 2125  37.502   1.851   2.314
38402W        W 2126  20.152  40.349   2.335
38403W        W 2127  22.252  18.626   1.754
38404W        W 2128   9.330  26.476  13.881
38405W        W 2129  37.491  31.140   1.300
38406W        W 2130  23.642  32.003   4.747
38407W        W 2131   6.848  38.061  12.991
38408W        W 2132   8.871  16.569  14.295
38409W        W 2133  19.561  19.219  14.902
38410W        W 2134  20.135  30.588   2.192
38411W        W 2135  36.407  36.418  12.973
38412W        W 2136  22.598  13.809  11.439
38413W        W 2137  37.032  28.457   3.663
38414W        W 2138   7.780   5.746   2.759
38415W        W 2139  33.432  43.967  13.328
38416W        W 2140  32.445  15.708   0.926
38417W        W 2141  35.067  16.720   4.129
38418W        W 2142  43.415  26.003  13.972
38419W        W 2143   6.200  17.193   2.892
38420W        W 2144  40.859  24.104   0.773
38421W        W 2145  18.083  25.488   2.695
38422W        W 2146  23.212  42.818   3.262
38423W        W 2147  23.032  33.622  14.787
38424W        W 2148  16.679  17.233  12.058
38425W        W 2149  19.221  10.161   4.314
38426W        W 2150   0.765   3.325   5.282
38427W        W 2151   1.835  24.981   4.734
38428W        W 2152  16.682   5.423   1.760
38429W        W 2153   8.694  32.934   3.372
38430W        W 2154  12.813  27.069  14.427
38431W        W 2155   6.222   8.707   3.356
38432W        W 2156  39.315  39.930   1.361
38433W        W 2157  21.192  18.135  10.052
38434W        W 2158  17.303   6.715   0.307
38435W        W 2159  38.495   9.283  14.955
38436W        W 2160  30.494  42.912  12.968
38437W        W 2161  41.516   4.812   3.862
38438W        W 2162  27.011   8.754  12.376
38439W        W 2163  31.475  30.052  11.959
38440W        W 2164   5.823   2.815  12.093
38441W        W 2165  44.330  37.015   5.157
38442W        W 2166  41.835  11.839  14.409
38443W        W 2167  37.833  23.122  11.122
38444W        W 2168  29.158  25.195   3.793
38445W        W 2169  28.131  24.717   0.929
38446W        W 2170   9.660  37.005   1.432
38447W        W 2171  22.156  36.876  12.455
38448W        W 2172   8.716  13.322  13.476
38449W        W 2173  14.707  23.732  11.902
38450W        W 2174  39.336  24.188   3.362
38451W        W 2175  26.672  14.620  13.872
38452W        W 2176  13.828   3.342   1.862
38453W        W 2177  19.664  31.576   4.167
38454W        W 2178   4.305  34.478   4.283
38455W        W 2179  34.516  40.955   1.387
38456W        W 2180  36.085   4.897   2.812
38457W        W 2181  40.309  17.277   4.159
38458W        W 2182  30.628  21.612  14.395
38459W        W 2183   1.344  43.469   3.350
38460W        W 2184  19.152   7.325   4.716
38461W        W 2185  37.084  44.905   1.293
38462W        W 2186  34.438   1.924  12.471
38463W        W 2187   0.768   3.315  13.834
38464W        W 2188   6.342  39.057   2.855
38465W        W 2189  29.500  10.215  14.818
38466W        W 2190  18.652  20.577  11.489
38467W        W 2191  18.118  10.772   3.276
38468W        W 2192  29.160  12.611   3.790
38469W        W 2193  42.982  27.957  10.408
38470W        W 2194  36.544  15.589   3.702
38471W        W 2195  40.451  26.124  13.971
38472W        W 2196   3.404   0.338   1.396
38473W        W 2197  16.806  34.416   1.240
38474W        W 2198  21.594  40.313   4.172
38475W        W 2199  10.263  42.413  13.891
38476W        W 2200  38.389  22.010   4.137
38477W        W 2201  17.610  18.591   2.356
38478W        W 2202  10.771  15.174   0.248
38479W        W 2203   4.429  16.300  14.400
38480W        W 2204  35.891   8.858  11.888
38481W        W 2205   9.162   7.309  14.515
38482W        W 2206  14.787  33.495  13.496
38483W        W 2207   3.875  38.851   0.290
38484W        W 2208  15.609  44.431   0.784
38485W        W 2209  12.826  34.565  14.013
38486W        W 2210  15.816  35.096   2.837
38487W        W 2211  29.517  11.847  10.083
38488W        W 2212  10.677  37.909   2.684
38489W        W 2213  29.606   5.414  12.976
38490W        W 2214   0.361  16.612   3.751
38491W        W 2215  43.786  12.797   1.873
38492W        W 2216   1.761   5.322  12.352
38493W        W 2217  15.618  39.517   4.695
38494W        W 2218  26.096  12.164  11.407
38495W        W 2219  27.000   7.341  13.431
38496W        W 2220  12.735   4.735   1.818
38497W        W 2221  16.646  10.680  14.800
38498W        W 2222  14.226  11.333   1.833
38499W        W 2223  33.072  20.061  12.509
38500W        W 2224  25.580  41.362   1.221
38501W        W 2225   6.218  34.924   0.795
38502W        W 2226   0.931  39.925   2.227
38503W        W 2227   7.726  28.512   4.164
38504W        W 2228  44.914  36.511  13.895
38505W        W 2229  43.998   8.189   0.361
38506W        W 2230  32.430   3.231  14.776
38507W        W 2231  38.429  36.005   0.434
38508W        W 2232  26.118  11.255  10.888
38509W        W 2233  26.672  39.375  12.949
38510W        W 2234  27.538   9.762   1.804
38511W        W 2235   5.434  37.065  13.877
38512W        W 2236   6.699  34.966   3.266
38513W        W 2237  43.488  26.201   4.330
38514W        W 2238   7.778  30.074  14.404
38515W        W 2239  33.553  44.935   0.427
38516W        W 2240  24.011  25.491   1.285
38517W        W 2241  25.197  12.711  13.971
38518W        W 2242  18.686  20.264  14.282
38519W        W 2243  44.933   1.388  11.435
38520W        W 2244  16.171  27.018   2.869
38521W        W 2245  43.443  41.930  13.392
38522W        W 2246  13.760  41.400   0.818
38523W        W 2247  10.861  20.149   1.317
38524W        W 2248  31.901  14.770  10.989
38525W        W 2249  42.881  12.297  14.002
38526W        W 2250  30.626   2.308  14.907
38527W        W 2251  26.503  12.206  11.484
38528W        W 2252  13.819  20.155  10.459
38529W        W 2253  29.590   4.840  13.368
38530W        W 2254  22.517   7.379   1.798
38531W        W 2255  19.617   5.209  11.015
38532W        W 2256  42.970  32.475  14.760
38533W        W 2257  44.447  35.462  12.070
38534W        W 2258  30.105   8.737   5.107
38535W        W 2259   6.865  35.433   3.784
38536W        W 2260   8.201  17.566   2.359
38537W        W 2261  17.289  43.934   4.222
38538W        W 2262  31.525  36.388   2.312
38539W        W 2263  17.153  29.575  12.362
38540W        W 2264  29.534   0.864   1.833
38541W        W 2265  27.148  17.610   0.892
38542W        W 2266  20.226  37.073   1.445
38543W        W 2267  39.349  40.486   2.189
38544W        W 2268  25.562   9.715  10.113
38545W        W 2269  18.580  30.630  14.988
38546W        W 2270  39.481  22.706   2.756
38547W        W 2271  25.678  38.823  14.991
38548W        W 2272  23.071  32.534  10.645
38549W        W 2273   4.397  41.029   3.244
38550W        W 2274  29.062  28.176  12.395
38551W        W 2275  35.482  41.871  14.023
38552W        W 2276  11.158  12.672   2.811
38553W        W 2277  38.327   5.320  13.956
38554W        W 2278  10.262  31.063  12.457
38555W        W 2279  37.972  22.741  14.505
38556W        W 2280  32.554  33.004   1.413
38557W        W 2281  10.206  28.088  11.506
38558W        W 2282  29.116  28.035  11.561
38559W        W 2283  12.647  12.725  13.045
38560W        W 2284  26.058  26.492  12.415
38561W        W 2285   4.218  16.181   1.722
38562W        W 2286  20.038  22.663  12.982
38563W        W 2287  21.034  17.205  11.011
38564W        W 2288  14.282  26.125   3.675
38565W        W 2289  42.017  44.331   1.735
38566W        W 2290  11.235   1.942  12.889
38567W        W 2291  38.007  44.935  12.572
38568W        W 2292  43.976  44.798  14.925
38569W        W 2293  10.367   0.827  14.857
38570W        W 2294  41.371   1.805   2.290
38571W        W 2295   9.850  22.593  12.925
38572W        W 2296  40.910  18.141  14.515
38573W        W 2297  25.575  16.717  12.382
38574W        W 2298  36.876  18.776   2.213
38575W        W 2299   4.747  44.422  11.486
38576W        W 2300  39.827  43.292   4.696
38577W        W 2301  16.661   6.403  14.868
38578W        W 2302  19.043  17.296  10.614
38579W        W 2303  43.269  35.064   5.269
38580W        W 2304   4.793  20.128   4.760
38581W        W 2305  12.340  11.238   2.885
38582W        W 2306  17.301  44.967  14.847
38583W        W 2307  14.702  11.142  11.905
38584W        W 2308  21.537  31.444  12.449
38585W        W 2309  42.300   0.485   0.772
38586W        W 2310   3.271   6.196  12.580
38587W        W 2311  24.504  16.667  14.469
38588W        W 2312   4.348  35.969  10.627
38589W        W 2313   4.792   5.869   2.357
38590W        W 2314   3.928  40.924  11.378
38591W        W 2315  12.345  13.346   2.411
38592W        W 2316  17.619  17.258   0.927
38593W        W 2317   2.276  26.004  13.398
38594W        W 2318  18.758  23.709  12.469
38595W        W 2319   1.905  44.887   0.384
38596W        W 2320  28.608  18.586  13.021
38597W        W 2321  35.856   6.363   5.193
38598W        W 2322   1.859  22.054   2.217
38599W        W 2323   3.814  22.681  14.301
38600W        W 2324   1.938  20.589  14.312
38601W        W 2325   5.891   1.734  13.790
38602W        W 2326  11.137  44.869  13.413
38603W        W 2327   5.902  17.701  14.984
38604W        W 2328  18.157   6.886  13.505
38605W        W 2329  23.107  26.593  12.965
38606W        W 2330  37.964   5.841   4.227
38607W        W 2331  29.580   6.358  10.508
38608W        W 2332   0.802  11.328  12.089
38609W        W 2333  22.661  21.176   1.281
38610W        W 2334  38.549   4.431  14.858
38611W        W 2335  25.195   7.860   1.254
38612W        W 2336  36.032  38.005  13.352
38613W        W 2337  13.741  31.085   3.820
38614W        W 2338   2.245  18.182  12.926
38615W        W 2339  14.794  16.220  11.095
38616W        W 2340  27.691  39.028  13.051
38617W        W 2341  36.031  13.225   0.778
38618W        W 2342  17.782  32.960  12.367
38619W        W 2343  23.173  26.127   0.929
38620W        W 2344  35.364  31.028   1.799
38621W        W 2345   9.883  27.198  11.379
38622W        W 2346   0.939  32.393   0.736
38623W        W 2347  15.585  39.472  12.945
38624W        W 2348  38.491  17.555  11.969
38625W        W 2349   1.793  39.366  13.998
38626W        W 2350  44.350  28.454  14.817
38627W        W 2351  38.552  40.942   2.793
38628W        W 2352  24.610  39.424  13.535
38629W        W 2353  32.033  28.019   4.753
38630W        W 2354  16.272  22.231   0.394
38631W        W 2355   8.716   3.858  11.462
38632W        W 2356   2.310  31.464  11.121
38633W        W 2357   6.187   3.878   4.660
38634W        W 2358  37.897  15.283  11.060
38635W        W 2359  13.217  36.364  14.477
38636W        W 2360  41.468   7.847   1.429
38637W        W 2361   2.879  36.368   1.840
38638W        W 2362  23.652  18.180   0.422
38639W        W 2363  42.375  31.599  10.470
38640W        W 2364  29.549   1.853   9.988
38641W        W 2365  32.503  21.732  12.920
38642W        W 2366  35.907  28.112  14.986
38643W        W 2367  20.580  27.536  14.308
38644W        W 2368  31.113  24.551   0.422
38645W        W 2369  36.420  17.577  14.949
38646W        W 2370  37.922  42.834  13.320
38647W        W 2371   8.808   5.892  11.015
38648W        W 2372  21.689   4.377  11.543
38649W        W 2373  15.279  16.714  14.026
38650W        W 2374  44.284  26.559  12.519
38651W        W 2375  11.185  10.804  11.904
38652W        W 2376  26.638  26.134  14.283
38653W        W 2377  33.472  27.004   3.268
38654W        W 2378  31.001  24.659  11.109
38655W        W 2379   7.782  13.652   5.260
38656W        W 2380  13.192  42.031  12.095
38657W        W 2381   4.821   8.893   4.679
38658W        W 2382   1.829   1.261  12.343
38659W        W 2383  23.061  24.618   4.836
38660W        W 2384  37.391  12.825  12.339
38661W        W 2385  24.510  10.290  11.052
38662W        W 2386  35.922  25.066   0.363
38663W        W 2387  15.814  17.170  13.504
38664W        W 2388   4.753  11.654  13.387
38665W        W 2389  25.576  24.068   0.754
38666W        W 2390  40.345  30.481   1.296
38667W        W 2391  44.351   5.703   2.213
38668W        W 2392  18.098  27.160   4.639
38669W        W 2393  21.609  39.385   1.333
38670W        W 2394  30.429  34.380  11.556
38671W        W 2395  37.988  35.434   0.855
38672W        W 2396  19.618  12.803  10.924
38673W        W 2397  31.919  35.909  13.434
38674W        W 2398   3.252  11.370  12.929
38675W        W 2399   1.304   8.344   3.172
38676W        W 2400  12.171  20.171   2.688
38677W        W 2401  18.084   7.326  11.108
38678W        W 2402  42.981  28.128   3.791
38679W        W 2403  36.853  39.874   3.861
38680W        W 2404  16.196   4.819   3.656
38681W        W 2405  40.529  37.000   3.806
38682W        W 2406  26.496  38.480  12.447
38683W        W 2407  39.380  24.570   2.406
38684W        W 2408  18.291  42.516  12.019
38685W        W 2409  12.769  25.476  14.874
38686W        W 2410  26.133  42.285   2.823
38687W        W 2411   1.952  35.488   4.671
38688W        W 2412   5.746  13.801  10.972
38689W        W 2413  24.982  42.423  14.478
38690W        W 2414  30.482   2.842   4.179
38691W        W 2415   1.918  24.148  12.474
38692W        W 2416   2.428  40.861   1.302
38693W        W 2417   4.224   4.228  13.979
38694W        W 2418  43.974  43.932  10.597
38695W        W 2419  37.065   1.430   3.337
38696W        W 2420  21.120  43.805   2.806
38697W        W 2421   9.658  11.786   2.214
38698W        W 2422   9.313   6.862  11.958
38699W        W 2423  29.581   6.413   9.923
38700W        W 2424  25.116  37.000   0.961
38701W        W 2425   0.874  27.978  13.482
38702W        W 2426  26.506  12.733  12.361
38703W        W 2427   0.371   6.288  11.105
38704W        W 2428  43.912  41.338  12.841
38705W        W 2429  12.222  28.954  10.505
38706W        W 2430  38.552  42.418  13.525
38707W        W 2431  34.941  44.804  14.430
38708W        W 2432  15.298  33.894  13.814
38709W        W 2433   4.872  20.766   4.210
38710W        W 2434  29.505  28.574  13.820
38711W        W 2435  19.254  42.393  11.073
38712W        W 2436  25.692  15.778  12.077
38713W        W 2437   8.170  24.703  14.939
38714W        W 2438   1.339  18.147   0.965
38715W        W 2439  39.507   6.268   0.931
38716W        W 2440   0.760  33.528  13.358
38717W        W 2441  33.003  12.333   9.570
38718W        W 2442  12.286  23.674  10.508
38719W        W 2443  16.625   3.256  12.912
38720W        W 2444   0.969  10.811   3.154
38721W        W 2445   0.777  20.161   1.276
38722W        W 2446  44.865   8.238  14.455
38723W        W 2447  33.602  32.067   4.239
38724W        W 2448  17.197  35.071  10.959
38725W        W 2449  18.594  33.419  11.605
38726W        W 2450  14.650  40.874  11.541
38727W        W 2451   8.175  39.409  12.896
38728W        W 2452  19.050  27.664   0.903
38729W        W 2453  17.106  42.967   4.339
38730W        W 2454  18.587  11.131  12.371
38731W        W 2455  23.550  44.493  14.799
38732W        W 2456   8.763   7.870   0.737
38733W        W 2457  24.700  16.579   1.211
38734W        W 2458   9.809  15.603   2.231
38735W        W 2459  22.052  28.484  12.875
38736W        W 2460  44.010   2.885   0.932
38737W        W 2461  43.890  38.443   2.311
38738W        W 2462   8.667  12.310   5.316
38739W        W 2463  29.082  44.854  12.534
38740W        W 2464  29.943  31.927   2.277
38741W        W 2465   7.699   1.420   1.440
38742W        W 2466   6.910  14.143   2.240
38743W        W 2467  39.810  22.240   4.276
38744W        W 2468  15.809  29.437   5.146
38745W        W 2469  25.029  33.558  14.408
38746W        W 2470  23.603  24.716  13.497
38747W        W 2471  24.163  12.782  11.493
38748W        W 2472   1.399  12.338  11.392
38749W        W 2473   1.811  10.798   1.772
38750W        W 2474  24.133   5.927   3.769
38751W        W 2475  38.842  26.645   0.428
38752W        W 2476  18.705  43.935  12.408
38753W        W 2477   7.414   3.872   0.320
38754W        W 2478   7.870  31.137   2.403
38755W        W 2479  43.273  15.315  11.541
38756W        W 2480   3.382  34.463  12.092
38757W        W 2481  39.891  36.572  14.360
38758W        W 2482   7.397  27.497   1.825
38759W        W 2483  39.944  35.492  14.411
38760W        W 2484   8.899  12.346   3.742
38761W        W 2485  12.311  16.754  11.866
38762W        W 2486  29.495  19.268  13.850
38763W        W 2487  15.759  18.702  13.903
38764W        W 2488  26.592  43.369  13.321
38765W        W 2489   0.787  12.122  12.902
38766W        W 2490   1.966   2.792  11.968
38767W        W 2491  18.174  19.577   0.480
38768W        W 2492  32.421  42.829   2.323
38769W        W 2493  26.022  16.806  11.388
38770W        W 2494   8.900  12.702   1.857
38771W        W 2495  35.048  42.294  11.981
38772W        W 2496  31.607  40.312   1.306
38773W        W 2497  40.549  17.657   0.885
38774W        W 2498   0.477  39.455  11.120
38775W        W 2499  25.210  11.773  10.560
38776W        W 2500  32.636  25.174  10.555
38777W        W 2501  14.184  42.923   2.187
38778W        W 2502   7.402  44.362   3.173
38779W        W 2503  44.895   4.810  11.546
38780W        W 2504   7.793  20.226  14.818
38781W        W 2505  11.688   7.272  14.003
38782W        W 2506   2.806  42.865   1.695
38783W        W 2507  22.622   3.735  13.381
38784W        W 2508   7.393  40.807   3.829
38785W        W 2509  25.581  12.685  14.387
38786W        W 2510  27.964  11.650   1.376
38787W        W 2511  26.104   0.295   3.256
38788W        W 2512  34.547  32.467  10.455
38789W        W 2513  41.845  21.119   4.729
38790W        W 2514   6.783  20.059  14.306
38791W        W 2515  35.935  31.445  11.557
38792W        W 2516  33.411  11.697   0.909
38793W        W 2517  24.227  42.400  11.877
38794W        W 2518  27.691  31.471  11.589
38795W        W 2519  35.921  22.545  14.333
38796W        W 2520  35.928  38.501  11.488
38797W        W 2521  29.629   9.664   4.322
38798W        W 2522  35.021  20.240  10.526
38799W        W 2523  19.596   6.888  12.502
38800W        W 2524  27.940  35.967  10.404
38801W        W 2525  32.592   8.783  12.851
38802W        W 2526  21.096  30.612   1.842
38803W        W 2527   7.366  17.683   2.205
38804W        W 2528  16.107  17.585  12.541
38805W        W 2529  22.709  17.556  11.066
38806W        W 2530  18.128  30.134   3.728
38807W        W 2531  38.820  27.097   4.631
38808W        W 2532  26.460  36.402   4.339
38809W        W 2533  18.107  15.318  12.574
38810W        W 2534   9.737  38.900   1.439
38811W        W 2535  21.572  42.315   5.145
38812W        W 2536  15.587  13.722  14.373
38813W        W 2537  16.253   6.700  11.057
38814W        W 2538  26.644  39.954   0.343
38815W        W 2539  38.360  14.819  11.600
38816W        W 2540  32.427  15.271   0.454
38817W        W 2541  26.058  43.852   3.192
38818W        W 2542  41.369  41.880  13.361
38819W        W 2543  30.016  12.344  11.907
38820W        W 2544   2.293  13.294  10.432
38821W        W 2545  31.581  12.686   4.604
38822W        W 2546  38.968  29.983   1.268
38823W        W 2547  10.849   0.358  11.886
38824W        W 2548  24.116  33.895  14.911
38825W        W 2549   2.796  12.124   1.755
38826W        W 2550  24.028  34.867  10.427
38827W        W 2551   2.761  12.289  11.595
38828W        W 2552   8.235  12.610   0.344
38829W        W 2553   1.263  11.311  11.876
38830W        W 2554   7.884   1.860  11.525
38831W        W 2555   9.793   1.441   2.319
38832W        W 2556  42.390  27.575  13.860
38833W        W 2557   2.900   6.345  10.962
38834W        W 2558   9.343  21.655   1.851
38835W        W 2559  33.117   0.800   0.798
38836W        W 2560   9.797  22.110  11.006
38837W        W 2561   6.381  17.209   0.466
38838W        W 2562  20.264  16.205   1.823
38839W        W 2563  21.160  40.980   1.269
38840W        W 2564  37.005  41.994  14.365
38841W        W 2565  21.218  20.158  13.952
38842W        W 2566   2.956  33.909  13.855
38843W        W 2567  23.564  12.230  11.569
38844W        W 2568  24.665  13.348   0.818
38845W        W 2569  38.879  19.178  12.514
38846W        W 2570   6.836  31.416   4.600
38847W        W 2571  43.836  33.914   2.270
38848W        W 2572  26.018  26.517   2.847
38849W        W 2573   0.857  37.940  12.487
38850W        W 2574  37.437   5.839  13.513
38851W        W 2575  24.228  11.815  14.005
38852W        W 2576  20.659  11.774   3.834
38853W        W 2577   2.924   4.722   0.897
38854W        W 2578   7.245  27.676  10.967
38855W        W 2579   5.711   0.470   4.783
38856W        W 2580  40.524  44.446  13.309
38857W        W 2581   8.659  24.000  10.895
38858W        W 2582  38.447  19.255   4.284
38859W        W 2583  24.156  24.700  13.414
38860W        W 2584  42.508   6.758  12.015
38861W        W 2585  26.463  25.177   3.369
38862W        W 2586  24.625  38.842  13.422
38863W        W 2587  24.049  30.914  11.859
38864W        W 2588   8.325  26.566   4.605
38865W        W 2589   5.915   9.375  12.398
38866W        W 2590   4.390  12.854  13.502
38867W        W 2591   3.737  12.786  13.850
38868W        W 2592  25.685  26.083  12.397
38869W        W 2593  27.992  31.975  12.049
38870W        W 2594  33.534  20.057   0.805
38871W        W 2595  18.560  16.567   1.240
38872W        W 2596  20.762   7.183   2.387
38873W        W 2597   1.955  43.394  14.505
38874W        W 2598  43.981  39.974  11.100
38875W        W 2599  28.074  12.167  10.566
38876W        W 2600  23.499  25.050   2.309
38877W        W 2601  16.274  24.635  11.968
38878W        W 2602  14.666  37.481  14.516
38879W        W 2603  40.866  40.939  13.440
38880W        W 2604  22.181  30.957  10.125
38881W        W 2605  20.765  15.211  14.304
38882W        W 2606  33.396  39.550   1.867
38883W        W 2607  29.570   2.367   2.830
38884W        W 2608  37.079   2.946  13.951
38885W        W 2609  39.020  21.134   1.850
38886W        W 2610  14.150   8.309   1.757
38887W        W 2611  23.049   4.294   4.145
38888W        W 2612  33.977   7.304  14.498
38889W        W 2613  12.343   5.825   0.453
38890W        W 2614  24.064  20.110   2.317
38891W        W 2615  41.325  18.077  11.461
38892W        W 2616  19.602  21.030  13.408
38893W        W 2617   3.407  20.690  12.464
38894W        W 2618  22.500   6.787   1.402
38895W        W 2619   7.712   2.929  14.297
38896W        W 2620  40.323   3.901   0.447
38897W        W 2621  19.267   9.203  11.954
38898W        W 2622  14.173  43.938  12.539
38899W        W 2623  14.207  11.194  11.991
38900W        W 2624  17.565  21.252  12.471
38901W        W 2625  43.821  21.252   2.722
38902W        W 2626  35.907  26.961  13.892
38903W        W 2627  20.257  23.610  13.904
38904W        W 2628  38.953  40.321  10.602
38905W        W 2629  21.627  38.557  13.923
38906W        W 2630  40.347  11.198   3.820
38907W        W 2631  31.556  44.331   0.391
38908W        W 2632  34.532  41.476  14.797
38909W        W 2633  15.122  30.529   3.801
38910W        W 2634  36.509  30.097  10.431
38911W        W 2635   1.246   3.444  10.104
38912W        W 2636  10.798   7.407   0.264
38913W        W 2637  32.522   8.165   3.842
38914W        W 2638  42.817  40.876   0.385
38915W        W 2639  37.479  40.966  12.064
38916W        W 2640  43.436   9.314   4.205
38917W        W 2641  28.586  13.273   4.739
38918W        W 2642  19.600  43.412   2.376
38919W        W 2643  15.703  16.148  11.045
38920W        W 2644  23.087  38.991  11.462
38921W        W 2645  42.867  26.597  14.930
38922W        W 2646  15.633   6.690  13.828
38923W        W 2647  10.212  35.361   0.889
38924W        W 2648  24.532  35.550  13.505
38925W        W 2649  30.574  36.998   2.383
38926W        W 2650   8.699   2.345  13.458
38927W        W 2651   9.349  37.370  12.906
38928W        W 2652  33.382  10.176   0.765
38929W        W 2653  15.125  36.479  13.844
38930W        W 2654  12.718  31.622  10.966
38931W        W 2655  18.645  40.035  12.889
38932W        W 2656  42.444  43.798   0.958
38933W        W 2657  14.820   8.774   1.400
38934W        W 2658  42.952  44.954  10.589
38935W        W 2659  15.086  32.546   3.813
38936W        W 2660  35.497  30.469  12.009
38937W        W 2661  33.910  17.658   1.401
38938W        W 2662   0.494  13.674   3.191
38939W        W 2663  36.910  13.124   3.774
38940W        W 2664  12.214  26.626   3.245
38941W        W 2665  28.174   1.344   4.678
38942W        W 2666   8.233  37.934   3.680
38943W        W 2667  25.157  44.357  13.374
38944W        W 2668  37.910  32.394   2.207
38945W        W 2669  36.418  25.553   0.254
38946W        W 2670  34.578  30.047  11.946
38947W        W 2671  13.828  27.097   3.634
38948W        W 2672  18.230   0.968   0.274
38949W        W 2673  44.815  36.020   1.404
38950W        W 2674  37.869   7.244  11.380
38951W        W 2675  15.758  24.515   1.889
38952W        W 2676  10.254  43.427   3.249
38953W        W 2677   6.220  35.528   0.413
38954W        W 2678  29.519  14.717   0.321
38955W        W 2679  28.590  43.990  11.971
38956W        W 2680  13.652  31.437  10.555
38957W        W 2681  11.337  11.197  11.518
38958W        W 2682   5.916  42.463   3.688
38959W        W 2683  31.141  26.032  10.924
38960W        W 2684  23.126  16.684  10.513
38961W        W 2685   0.336   2.307   0.869
38962W        W 2686  23.711  25.042  11.077
38963W        W 2687  40.431  35.002  11.481
38964W        W 2688  17.285  21.549  14.949
38965W        W 2689  22.248  44.306   2.206
38966W        W 2690  11.347   8.292  13.520
38967W        W 2691   8.743  34.099  14.481
38968W        W 2692  27.184  39.527  13.062
38969W        W 2693  11.366  23.511  14.516
38970W        W 2694   2.876  28.673  14.308
38971W        W 2695  29.505  28.640  14.894
38972W        W 2696  40.537  42.826  13.879
38973W        W 2697  40.532  40.522   5.163
38974W        W 2698  25.212  10.186   1.753
38975W        W 2699  14.776  16.149  14.497
38976W        W 2700  37.012  37.441   2.364
38977W        W 2701  29.595  11.813   2.380
38978W        W 2702   8.843   2.876   3.239
38979W        W 2703  22.677   9.262   2.311
38980W        W 2704   3.938  28.053   3.334
38981W        W 2705  13.211  20.177  11.029
38982W        W 2706  22.656  19.680   1.336
38983W        W 2707  20.750  30.643  10.619
38984W        W 2708   7.797  37.968  12.506
38985W        W 2709  43.986  22.557   2.725
38986W        W 2710  35.359  14.810   3.636
38987W        W 2711  39.424  41.034   4.773
38988W        W 2712   0.961  10.731   4.741
38989W        W 2713  41.849   1.392   0.388
38990W        W 2714  25.106   7.885  14.830
38991W        W 2715   4.236  19.149   3.194
38992W        W 2716  30.620  35.401   3.270
38993W        W 2717   1.820  31.405  13.320
38994W        W 2718  10.785  39.368  13.873
38995W        W 2719   8.726  17.797   2.307
38996W        W 2720   7.690  19.659   3.781
38997W        W 2721  15.119  28.076   4.716
38998W        W 2722   2.802  11.718   0.805
38999W        W 2723   6.334  23.005  10.582
39000W        W 2724  29.582  29.661  10.982
39001W        W 2725  13.119  33.123  10.953
39002W        W 2726  37.844  25.189   2.361
39003W        W 2727  25.639  12.647  11.051
39004W        W 2728   5.919  40.989  14.795
39005W        W 2729  37.486  30.430   1.219
39006W        W 2730  18.077  33.530   0.822
39007W        W 2731  42.924  30.502  12.868
39008W        W 2732   6.785  36.849  11.482
39009W        W 2733  28.650  27.965   3.867
39010W        W 2734  37.994   7.400   4.202
39011W        W 2735  11.195  29.606   4.292
39012W        W 2736   6.227  42.343  11.997
39013W        W 2737   4.937   9.713   0.306
39014W        W 2738  18.728  19.554   0.935
39015W        W 2739   4.245  27.517   1.879
39016W        W 2740  27.626  35.011   3.722
39017W        W 2741  38.944  20.105   2.370
39018W        W 2742  36.001  13.144   3.333
39019W        W 2743   8.825  44.361   5.287
39020W        W 2744   1.863  15.734  13.943
39021W        W 2745  24.030  29.174   4.765
39022W        W 2746  18.703  36.858  12.464
39023W        W 2747  16.583  37.085  13.422
39024W        W 2748  27.164  21.231  13.454
39025W        W 2749   2.277   9.246  13.842
39026W        W 2750  40.393   6.294   4.307
39027W        W 2751  30.147  38.452  11.908
39028W        W 2752  17.568  34.888   4.163
39029W        W 2753  42.451  43.987  12.005
39030W        W 2754  13.823  14.740  14.759
39031W        W 2755  17.690  16.648  14.453
39032W        W 2756  23.157  38.566   3.258
39033W        W 2757  36.431   2.824   0.346
39034W        W 2758  24.716  35.081  14.341
39035W        W 2759  13.173   4.364  13.998
39036W        W 2760  40.962  13.813   0.279
39037W        W 2761  28.152  26.980   2.292
39038W        W 2762  17.135   7.304   4.270
39039W        W 2763  28.447   1.738  13.387
39040W        W 2764  10.699  35.032   2.257
39041W        W 2765  31.587  43.954  13.912
39042W        W 2766  43.009  18.709  11.507
39043W        W 2767  27.657  21.225   3.797
39044W        W 2768  26.469  10.248  11.976
39045W        W 2769  25.604  19.601  11.860
39046W        W 2770  41.296  17.156  14.995
39047W        W 2771   3.933  15.636   3.752
39048W        W 2772  18.655  28.522  12.398
39049W        W 2773  43.832   0.974  11.891
39050W        W 2774   5.244  13.780  14.909
39051W        W 2775  19.140   9.704   2.222
39052W        W 2776  14.264  44.807  13.061
39053W        W 2777  39.819  15.684   9.933
39054W        W 2778  41.938  33.570  11.505
39055W        W 2779  20.201  42.896  14.401
39056W        W 2780  41.947  41.334  14.984
39057W        W 2781  23.636  27.149  11.374
39058W        W 2782  36.571  39.843  13.855
39059W        W 2783  32.976  10.879  14.009
39060W        W 2784  41.305   3.272   3.314
39061W        W 2785  42.880  28.984  12.905
39062W        W 2786  21.157   5.401  12.361
39063W        W 2787  18.253  43.397  12.943
39064W        W 2788  23.101  21.131   3.267
39065W        W 2789  31.067   7.194   3.729
39066W        W 2790  36.058  23.522  14.024
39067W        W 2791  10.304   9.741   1.386
39068W        W 2792   7.318  12.194   4.215
39069W        W 2793  28.071   3.304  13.847
39070W        W 2794   0.305  26.609   3.773
39071W        W 2795  11.356  19.660   3.202
39072W        W 2796  44.836  29.620   4.624
39073W        W 2797  33.047  19.223  11.884
39074W        W 2798  32.140  22.077   1.389
39075W        W 2799  36.500  24.219  12.042
39076W        W 2800  11.623  36.348  13.857
39077W        W 2801  44.007   1.357   1.935
39078W        W 2802  35.077  23.495   1.254
39079W        W 2803   4.364  24.135   0.385
39080W        W 2804   1.828  44.290  13.844
39081W        W 2805  10.160  30.030   3.214
39082W        W 2806  25.183   7.673  11.613
39083W        W 2807  37.062  43.796  12.451
39084W        W 2808  36.540  21.742  11.099
39085W        W 2809  28.662  33.121  10.634
39086W        W 2810   5.352   5.384   1.249
39087W        W 2811  30.432  28.489  11.871
39088W        W 2812   5.874  25.544  11.381
39089W        W 2813  24.559  39.318   2.389
39090W        W 2814  17.277   4.802  10.525
39091W        W 2815  17.151  18.274   1.701
39092W        W 2816  24.048  27.169   9.512
39093W        W 2817  42.008  44.879   3.223
39094W        W 2818  30.638  42.492   2.884
39095W        W 2819   1.964  27.656  13.048
39096W        W 2820   7.890  40.352  14.421
39097W        W 2821  29.441  12.680  11.437
39098W        W 2822  16.659  37.901  13.518
39099W        W 2823  17.682  21.726  12.086
39100W        W 2824   3.790   2.286   2.205
39101W        W 2825   3.844  13.744   3.240
39102W        W 2826  18.200  39.933  12.939
39103W        W 2827   3.281  19.541  13.826
39104W        W 2828  26.106   2.229  12.352
39105W        W 2829   8.355  40.855   2.894
39106W        W 2830   7.666  29.462   2.291
39107W        W 2831   0.758  38.892  14.341
39108W        W 2832  43.775  30.497   1.786
39109W        W 2833   7.705  29.042  11.122
39110W        W 2834   0.844  23.534   2.240
39111W        W 2835  30.086  24.565   4.131
39112W        W 2836  26.537  24.099   4.134
39113W        W 2837  41.897   2.963  10.594
39114W        W 2838  31.988  36.383   3.859
39115W        W 2839  18.734   0.322  11.091
39116W        W 2840  42.430  26.045   1.915
39117W        W 2841  29.142   0.974   2.205
39118W        W 2842  23.589  38.440   5.084
39119W        W 2843  19.616  29.037  10.591
39120W        W 2844  19.651  23.693   3.288
39121W        W 2845  19.245  21.198   1.435
39122W        W 2846  38.472  34.038   4.631
39123W        W 2847  22.091  42.432   0.263
39124W        W 2848  14.095  40.839   4.351
39125W        W 2849  37.011  40.829  13.509
39126W        W 2850  17.665  16.732  10.929
39127W        W 2851  43.791  36.945  14.023
39128W        W 2852  40.922  22.074  12.398
39129W        W 2853  33.885  32.915  13.507
39130W        W 2854  22.521  41.935   2.775
39131W        W 2855  42.445  15.656   3.843
39132W        W 2856  20.083  33.014   4.224
39133W        W 2857  36.562  13.192  14.990
39134W        W 2858   8.371   2.472   3.269
39135W        W 2859  11.278  14.181   4.350
39136W        W 2860  33.962  26.672  14.893
39137W        W 2861  34.038  30.940   2.784
39138W        W 2862  38.564  35.541  11.544
39139W        W 2863  44.761   2.953  14.912
39140W        W 2864   5.799  40.999   4.181
39141W        W 2865   2.916  13.798  11.036
39142W        W 2866   4.417   1.965   1.230
39143W        W 2867  18.152  33.001   2.231
39144W        W 2868  12.647  43.311  13.859
39145W        W 2869  26.159   9.888  10.907
39146W        W 2870  23.592   2.725  12.881
39147W        W 2871   2.841   1.838   0.336
39148W        W 2872  19.645  24.225  10.433
39149W        W 2873  10.735  41.297   1.776
39150W        W 2874  31.624  11.806  13.455
39151W        W 2875  44.930  14.795   2.901
39152W        W 2876  33.476   3.941   1.348
39153W        W 2877  27.536  16.724   3.647
39154W        W 2878  39.470   7.791   0.449
39155W        W 2879  14.597  40.314   1.210
39156W        W 2880   0.978  43.490  11.858
39157W        W 2881  20.764   2.418  13.866
39158W        W 2882  18.761  31.610   0.379
39159W        W 2883  31.586   2.280  11.126
39160W        W 2884  13.773  42.892   3.226
39161W        W 2885  39.889  40.396   9.976
39162W        W 2886   6.285  21.081  13.520
39163W        W 2887   7.716   6.818  13.397
39164W        W 2888  18.256  25.149  12.880
39165W        W 2889   6.769  43.407  13.032
39166W        W 2890  35.363  31.981  12.520
39167W        W 2891  16.621  37.510  13.536
39168W        W 2892  12.123  29.066  11.959
39169W        W 2893  16.220  19.128   2.702
39170W        W 2894   7.323  40.498   2.875
39171W        W 2895  38.351  20.546   0.349
39172W        W 2896  41.819  35.959   2.709
39173W        W 2897   2.949  24.983  13.517
39174W        W 2898  38.500   8.306  12.375
39175W        W 2899  23.242  43.934   2.787
39176W        W 2900  37.502  37.426   0.427
39177W        W 2901  32.429  38.532   3.786
39178W        W 2902  20.762  29.028  10.422
39179W        W 2903   2.774  18.243  11.423
39180W        W 2904  27.095   7.820  11.390
39181W        W 2905  42.868  43.768   1.881
39182W        W 2906  40.870  13.181  13.420
39183W        W 2907   2.754   4.206   0.820
39184W        W 2908  22.713   8.847  14.833
39185W        W 2909  19.740   0.779  11.537
39186W        W 2910  29.131  23.600  12.910
39187W        W 2911  16.312  17.293  13.430
39188W        W 2912  26.551  37.888  11.109
39189W        W 2913  18.151  30.426   4.619
39190W        W 2914  44.270  31.601  11.381
39191W        W 2915   2.823  38.989  12.831
39192W        W 2916  34.003  38.983  14.783
39193W        W 2917  44.899  40.037  14.838
39194W        W 2918   8.237  26.482  12.866
39195W        W 2919   9.174  41.846   2.290
39196W        W 2920   9.189  16.198   2.211
39197W        W 2921  40.834   0.347  10.575
39198W        W 2922   5.873  30.035   4.320
39199W        W 2923  43.504  16.616   1.225
39200W        W 2924  35.865  41.529   2.214
39201W        W 2925  28.983  17.236   0.316
39202W        W 2926  16.735  22.021  10.465
39203W        W 2927  14.111  21.518  14.321
39204W        W 2928  28.603  35.108  10.123
39205W        W 2929  42.975  42.010   4.318
39206W        W 2930   7.309   6.308  14.502
39207W        W 2931  22.092  43.294   3.849
39208W        W 2932  33.046  20.181  10.912
39209W        W 2933   8.725  24.977  13.327
39210W        W 2934  29.942  25.053  11.451
39211W        W 2935   6.808  41.851   3.147
39212W        W 2936  31.431  36.938   1.434
39213W        W 2937  25.014  18.290   1.747
39214W        W 2938   6.881  38.364   0.760
39215W        W 2939  39.429  12.620  12.524
39216W        W 2940  34.869  19.551   0.958
39217W        W 2941  18.101  23.007  14.308
39218W        W 2942  25.150   9.701   2.747
39219W        W 2943  34.488  15.653  11.904
39220W        W 2944  36.544  10.639   4.759
39221W        W 2945  17.123  23.534   1.778
39222W        W 2946  27.180  32.128  14.290
39223W        W 2947  35.950  14.181   1.899
39224W        W 2948  18.544  32.030  13.336
39225W        W 2949   4.236  17.768   4.215
39226W        W 2950  32.555  38.068  10.455
39227W        W 2951  36.094  24.156   4.289
39228W        W 2952   1.268  33.602   1.835
39229W        W 2953   9.307   3.719  14.773
39230W        W 2954   0.448   5.891  11.553
39231W        W 2955  22.739  15.672  13.440
39232W        W 2956  30.511  20.049  11.044
39233W        W 2957  19.628  32.906   3.358
39234W        W 2958  22.069  10.262  12.015
39235W        W 2959  40.914  42.390  14.278
39236W        W 2960   7.411  38.541  10.923
39237W        W 2961  27.526  10.263  13.912
39238W        W 2962  23.519  42.353   4.227
39239W        W 2963   3.818  41.387   3.864
39240W        W 2964   4.762  40.347   4.824
39241W        W 2965  30.616  44.772  14.983
39242W        W 2966  23.062   5.844   0.734
39243W        W 2967  33.397  20.054  14.405
39244W        W 2968  25.041  21.179   2.819
39245W        W 2969   1.933   5.320  11.022
39246W        W 2970  40.984  38.465  13.956
39247W        W 2971  22.213  12.154  14.927
39248W        W 2972  21.257  19.182   4.354
39249W        W 2973  22.591  12.341   2.890
39250W        W 2974  18.159  14.642  11.083
39251W        W 2975   0.941  41.865   4.750
39252W        W 2976  16.141  43.342   4.166
39253W        W 2977   0.745  35.878   1.448
39254W        W 2978  42.778  37.870  12.537
39255W        W 2979  32.894  12.158   1.795
39256W        W 2980  40.833  32.049   3.713
39257W        W 2981  18.266  23.110  10.469
39258W        W 2982  40.981  18.706   1.396
39259W        W 2983  17.731  19.173  11.397
39260W        W 2984   4.698   7.287  11.438
39261W        W 2985  37.484   1.416  14.780
39262W        W 2986  37.484  21.079  10.558
39263W        W 2987  33.598  18.776   3.355
39264W        W 2988  35.956  25.643  13.831
39265W        W 2989  29.594  38.933   9.984
39266W        W 2990  25.026  23.689  12.376
39267W        W 2991  39.327  28.489  11.116
39268W        W 2992   3.835  23.050  14.308
39269W        W 2993   9.744  21.076   2.745
39270W        W 2994  29.079  40.306  11.500
39271W        W 2995   6.195  10.707   0.760
39272W        W 2996  32.932  19.176  14.482
39273W        W 2997  12.358  33.381  13.474
39274W        W 2998  37.565  30.582   0.730
39275W        W 2999  38.442  32.136   3.827
39276W        W 3000  40.906  44.758  11.919
39277W        W 3001   6.248  18.740   3.734
39278W        W 3002  24.216  29.594   3.645
39279W        W 3003  42.938  33.881   3.849
39280W        W 3004   4.871  44.469  10.148
39281W        W 3005  44.981  37.409  14.849
39282W        W 3006  16.221   0.376   0.815
39283W        W 3007  18.232  26.161   3.867
39284W        W 3008  17.562  41.313   3.786
39285W        W 3009  30.127  27.115   3.838
39286W        W 3010  29.022  44.761   4.836
39287W        W 3011   2.259  32.938   2.793
39288W        W 3012   0.972   9.888  11.428
39289W        W 3013   3.792   2.398   1.290
39290W        W 3014  23.126  25.090   0.727
39291W        W 3015  19.284   8.311  14.957
39292W        W 3016   9.223  36.537   3.853
39293W        W 3017  15.162  34.541   4.233
39294W        W 3018  17.287  13.838  11.032
39295W        W 3019  29.002  11.722   1.298
39296W        W 3020  10.201  22.078   4.195
39297W        W 3021  23.101  34.015  13.862
39298W        W 3022  36.916  24.116   4.677
39299W        W 3023  34.046   7.348  10.437
39300W        W 3024  10.195  24.187   1.773
39301W        W 3025  16.146   4.334   0.435
39302W        W 3026  21.093  30.970  13.406
39303W        W 3027  12.696   1.806   4.121
39304W        W 3028   5.386  27.673  13.441
39305W        W 3029  24.709  15.205   1.889
39306W        W 3030  16.684  30.984   0.308
39307W        W 3031  25.161   8.863   5.134
39308W        W 3032  29.926   7.402  12.055
39309W        W 3033  10.830  15.578   0.345
39310W        W 3034   6.249   2.845  11.078
39311W        W 3035  31.045  20.567  14.928
39312W        W 3036  43.343  17.182   1.744
39313W        W 3037  10.331  41.810  12.945
39314W        W 3038  44.352  41.489   3.796
39315W        W 3039  26.498  15.816  11.114
39316W        W 3040  22.136  15.580   3.328
39317W        W 3041   7.889  43.441   2.846
39318W        W 3042   2.914  22.045  12.535
39319W        W 3043   4.734  30.526  14.961
39320W        W 3044   5.349  31.067   3.187
39321W        W 3045  34.949  33.917   2.416
39322W        W 3046  14.160  27.528  13.437
39323W        W 3047  19.281  20.535   0.846
39324W        W 3048   4.404  35.997   3.322
39325W        W 3049   9.205  31.637  13.866
39326W        W 3050  32.418  35.010   3.645
39327W        W 3051   5.298  14.269   4.196
39328W        W 3052   0.972   6.714   2.838
39329W        W 3053   1.479  39.049  11.107
39330W        W 3054  39.906  10.640  11.970
39331W        W 3055  33.601  30.516   1.851
39332W        W 3056   5.373  23.638  13.539
39333W        W 3057  19.615   5.422   4.793
39334W        W 3058   6.225  28.041  12.901
39335W        W 3059  34.611  36.429  13.314
39336W        W 3060  24.489  16.156  14.407
39337W        W 3061   7.185  36.944   2.395
39338W        W 3062  36.367  35.407  13.851
39339W        W 3063  12.170  41.008   4.727
39340W        W 3064   7.371  12.698  14.308
39341W        W 3065  19.543  30.497  14.913
39342W        W 3066  22.741  13.267   1.284
39343W        W 3067   8.794   6.208  14.770
39344W        W 3068  44.952   9.313  10.543
39345W        W 3069  44.291  13.794  14.989
39346W        W 3070  13.336  13.236  13.396
39347W        W 3071  26.080  27.531  11.429
39348W        W 3072   5.759  19.276   2.792
39349W        W 3073  36.914  39.034  11.492
39350W        W 3074  37.082  37.507   4.605
39351W        W 3075  11.139  42.420   1.308
39352W        W 3076   3.910   7.198   2.804
39353W        W 3077   2.760  44.334  10.456
39354W        W 3078  21.196  16.788   3.812
39355W        W 3079  39.525   9.747   2.235
39356W        W 3080   6.773  36.433   0.813
39357W        W 3081  11.211  12.737   4.280
39358W        W 3082   8.737  18.573  10.535
39359W        W 3083   5.193  15.711  13.478
39360W        W 3084  11.623  44.406   4.318
39361W        W 3085   2.439  12.747   3.189
39362W        W 3086   4.775  15.615   4.610
39363W        W 3087   1.433   1.379  14.498
39364W        W 3088   3.788  33.564   3.635
39365W        W 3089  27.166  15.111  14.910
39366W        W 3090  24.553  18.079  12.997
39367W        W 3091  28.140  24.688  14.830
39368W        W 3092  38.879  32.055   1.930
39369W        W 3093   6.731  12.153  13.810
39370W        W 3094   9.273  23.208  11.973
39371W        W 3095  11.678   3.358   4.330
39372W        W 3096  38.942   9.787   0.917
39373W        W 3097  11.317  13.207  12.035
39374W        W 3098   3.769   6.717  14.285
39375W        W 3099  17.798  36.443   2.849
39376W        W 3100  42.864  39.884  11.009
39377W        W 3101  31.012  41.870  11.455
39378W        W 3102  36.886  23.008   2.854
39379W        W 3103  15.088  32.956   0.747
39380W        W 3104   3.439  28.098   2.705
39381W        W 3105  17.107  20.068   4.326
39382W        W 3106  14.705   6.359   2.847
39383W        W 3107  39.384  38.073   3.313
39384W        W 3108  42.409  14.213  10.537
39385W        W 3109  39.056   5.803   0.329
39386W        W 3110  14.227  27.500  11.935
39387W        W 3111  27.624  28.651   2.828
39388W        W 3112  23.605  18.628   0.284
39389W        W 3113  23.606  33.535  12.989
39390W        W 3114   5.319  13.323   4.784
39391W        W 3115  37.955  35.942   0.935
39392W        W 3116  32.939  33.911   0.376
39393W        W 3117  29.462  17.232   3.632
39394W        W 3118  12.141  13.840   1.913
39395W        W 3119   3.918  31.402  14.415
39396W        W 3120  22.021   4.302  12.017
39397W        W 3121  35.406  27.454   4.233
39398W        W 3122  38.487  25.703   9.605
39399W        W 3123  30.988   1.749  14.388
39400W        W 3124  35.405  30.637  12.501
39401W        W 3125  28.010  24.003  14.425
39402W        W 3126  26.616  14.206   1.738
39403W        W 3127  27.582   4.393  12.949
39404W        W 3128   7.320  32.475  13.791
39405W        W 3129   5.420   5.251  11.379
39406W        W 3130  23.542   7.684   2.744
39407W        W 3131  12.610  17.730   3.177
39408W        W 3132   3.904  19.590  13.429
39409W        W 3133   1.954  30.165  12.486
39410W        W 3134   9.334  23.585  11.432
39411W        W 3135  44.884  27.146   3.208
39412W        W 3136   0.778  32.553   1.806
39413W        W 3137  38.493   0.758  12.832
39414W        W 3138   1.780  21.733  13.004
39415W        W 3139  32.488  22.114   3.278
39416W        W 3140  33.493  38.995   2.703
39417W        W 3141  23.498  38.039   1.743
39418W        W 3142  25.999  20.254   0.268
39419W        W 3143  25.973  19.044   4.711
39420W        W 3144  42.334  44.316   2.316
39421W        W 3145  33.420   5.917   1.303
39422W        W 3146  30.428  35.372  10.554
39423W        W 3147   0.255   9.732  14.006
39424W        W 3148  16.674  17.128   2.232
39425W        W 3149  40.884  20.245   1.217
39426W        W 3150   3.308  41.806  14.008
39427W        W 3151   2.850  27.139   0.820
39428W        W 3152   2.823  42.454  11.035
39429W        W 3153   8.286  35.477  12.066
39430W        W 3154  10.743  27.530  13.476
39431W        W 3155  12.847  35.911  12.413
39432W        W 3156  39.062  32.978  12.476
39433W        W 3157  41.501  28.587   1.320
39434W        W 3158  38.459  26.474   1.293
39435W        W 3159  40.471  29.146  14.299
39436W        W 3160   9.645  28.043  13.956
39437W        W 3161  22.684  23.104  10.949
39438W        W 3162   9.760  34.109   2.859
39439W        W 3163  29.079  38.062   4.324
39440W        W 3164  12.777  41.834  10.497
39441W        W 3165  31.618  44.443   2.243
39442W        W 3166   7.393  33.544   1.757
39443W        W 3167  31.012  28.489  10.534
39444W        W 3168  13.651  36.951   4.821
39445W        W 3169   8.205  31.151  12.004
39446W        W 3170  20.549  22.095  14.804
39447W        W 3171   3.260   0.760  10.567
39448W        W 3172   2.455  27.501  12.497
39449W        W 3173  22.094  26.145   0.465
39450W        W 3174  21.694  33.091   3.679
39451W        W 3175   7.299  23.587  14.794
39452W        W 3176   5.416  19.723  10.538
39453W        W 3177  22.703  25.192   4.299
39454W        W 3178   0.426  37.447  14.446
39455W        W 3179   4.727  25.035  11.096
39456W        W 3180   0.898  12.160  11.480
39457W        W 3181  37.981  13.836  14.491
39458W        W 3182   8.403  42.344  10.922
39459W        W 3183  11.691   3.435   9.939
39460W        W 3184  13.212  39.866   3.185
39461W        W 3185  39.426  28.075   4.660
39462W        W 3186  35.457   9.705  10.905
39463W        W 3187  40.925  14.758   2.416
39464W        W 3188  25.585  37.955  13.467
39465W        W 3189  27.568  27.045  12.833
39466W        W 3190   2.892  29.169   2.394
39467W        W 3191  20.088   3.298  11.129
39468W        W 3192  11.200  33.941  11.920
39469W        W 3193  42.977  38.374  11.922
39470W        W 3194  38.397  20.708  13.479
39471W        W 3195  14.705  36.463  14.823
39472W        W 3196  32.995   3.870   0.477
39473W        W 3197  31.443  30.913   4.759
39474W        W 3198   1.837  16.572   2.319
39475W        W 3199  26.012   0.471   3.683
39476W        W 3200  38.921  38.393   0.830
39477W        W 3201  44.799  17.182   1.851
39478W        W 3202  27.126  29.103  12.366
39479W        W 3203  29.580   0.447  10.943
39480W        W 3204   3.306  26.567  10.517
39481W        W 3205   7.188  32.122  14.971
39482W        W 3206  25.563   3.388   3.658
39483W        W 3207   5.300   1.775   1.291
39484W        W 3208  44.276   3.461  12.850
39485W        W 3209  43.019  13.328  10.604
39486W        W 3210  29.031  40.327  12.500
39487W        W 3211   4.869  21.257   1.796
39488W        W 3212  43.853  38.041   5.600
39489W        W 3213   9.157   5.931   4.724
39490W        W 3214   7.697   9.239   3.319
39491W        W 3215  25.965   3.738  12.061
39492W        W 3216  18.674  36.456  14.433
39493W        W 3217   7.329  14.813  10.119
39494W        W 3218  43.447   8.359  11.966
39495W        W 3219  27.098  23.722  12.514
39496W        W 3220  44.458   2.360  13.792
39497W        W 3221  29.046  18.137  11.882
39498W        W 3222  21.629  17.792   0.812
39499W        W 3223   5.850  32.629   3.319
39500W        W 3224  32.121  12.254  14.835
39501W        W 3225  30.058   1.744   3.783
39502W        W 3226  18.241  44.927  12.019
39503W        W 3227  28.455  18.285  12.940
39504W        W 3228  38.510  35.093   3.241
39505W        W 3229   5.854  17.253   4.652
39506W        W 3230  19.574  33.931   1.884
39507W        W 3231   4.333  37.974   1.270
39508W        W 3232  39.521   7.363   3.731
39509W        W 3233  25.994  42.782  13.431
39510W        W 3234  40.970  33.587  11.973
39511W        W 3235  21.653  24.102  13.822
39512W        W 3236  13.184  32.973   2.269
39513W        W 3237  34.994  38.840   1.234
39514W        W 3238   3.239  44.915  14.790
39515W        W 3239  12.788  29.640  12.068
39516W        W 3240  32.418  29.009   1.740
39517W        W 3241  34.015  31.919   4.766
39518W        W 3242  39.394   7.910  10.612
39519W        W 3243  22.102  32.132  12.833
39520W        W 3244  35.987  29.622   2.736
39521W        W 3245  21.572  34.384   1.887
39522W        W 3246  19.736   0.423  13.351
39523W        W 3247  20.031  27.611   4.213
39524W        W 3248  18.103  25.469  12.460
39525W        W 3249  12.826  24.087  10.536
39526W        W 3250  33.874  25.639  13.933
39527W        W 3251  28.060   2.938   1.720
39528W        W 3252  41.993   4.873   0.884
39529W        W 3253  33.544   9.800  12.456
39530W        W 3254  15.687  18.289   1.343
39531W        W 3255  32.910  31.614  13.805
39532W        W 3256  38.991  39.449  12.972
39533W        W 3257   5.377   7.329  12.509
39534W        W 3258  15.666   7.732   1.837
39535W        W 3259  31.461  22.014   0.356
39536W        W 3260   1.387  34.030  12.843
39537W        W 3261   2.914  23.552   1.840
39538W        W 3262  21.532  37.931  12.090
39539W        W 3263   3.344  24.019   4.341
39540W        W 3264   2.390   5.806   4.228
39541W        W 3265  24.184  22.519   4.221
39542W        W 3266  30.038  30.535   2.698
39543W        W 3267  43.957   0.373  10.467
39544W        W 3268  14.184  21.076  14.957
39545W        W 3269  35.555  30.486   0.945
39546W        W 3270   0.902  13.147  14.770
39547W        W 3271  36.883  12.192   3.715
39548W        W 3272   9.189  37.494  14.362
39549W        W 3273  24.114  26.101  11.438
39550W        W 3274  14.671  12.813  12.477
39551W        W 3275  18.222  30.138   1.935
39552W        W 3276  27.545  30.428  13.046
39553W        W 3277  25.118  33.406  10.543
39554W        W 3278  28.950  30.126  12.363
39555W        W 3279  44.446   2.309   0.879
39556W        W 3280  24.725  14.222   2.780
39557W        W 3281   8.346  28.933   4.638
39558W        W 3282  15.727  17.074  11.872
39559W        W 3283  36.407  37.523   4.259
39560W        W 3284  37.958  37.577  12.028
39561W        W 3285  43.388  31.633   0.777
39562W        W 3286  24.695  24.131  10.565
39563W        W 3287  34.956  39.334   3.714
39564W        W 3288  13.789  25.488   1.733
39565W        W 3289   8.811  12.729   2.670
39566W        W 3290  39.515  14.727  14.855
39567W        W 3291  22.109   1.847  11.062
39568W        W 3292  36.955  18.780   1.871
39569W        W 3293  26.554   3.218   5.212
39570W        W 3294  30.645  11.296  10.573
39571W        W 3295   7.856  10.213   0.424
39572W        W 3296  17.168  22.631  11.403
39573W        W 3297  35.101  30.158   2.857
39574W        W 3298  28.004  30.544  10.980
39575W        W 3299  41.324  40.813  12.424
39576W        W 3300  12.845  33.924   3.727
39577W        W 3301  14.797  29.060  12.007
39578W        W 3302  28.105   4.450  12.514
39579W        W 3303  26.469  21.028  11.085
39580W        W 3304   3.830   4.207  14.947
39581W        W 3305  40.434  34.604   0.273
39582W        W 3306  41.861  10.264   2.677
39583W        W 3307  19.255  39.380   2.192
39584W        W 3308  19.588   1.906   4.835
39585W        W 3309  11.327   7.886   0.859
39586W        W 3310  10.694  39.941  11.022
39587W        W 3311  12.149  37.948   1.932
39588W        W 3312  29.501  34.065  10.959
39589W        W 3313  13.792  18.185  10.595
39590W        W 3314   3.877  26.482   4.819
39591W        W 3315   2.282  28.542   4.725
39592W        W 3316   7.789  23.046   1.824
39593W        W 3317  28.462  40.852   1.399
39594W        W 3318  23.531   1.808  11.047
39595W        W 3319  23.634  40.443  11.415
39596W        W 3320  18.617  20.220  14.807
39597W        W 3321  41.013  22.152   0.847
39598W        W 3322  16.736  43.979  13.842
39599W        W 3323  43.302  16.707  14.441
39600W        W 3324  11.799  32.566   1.782
39601W        W 3325  21.737  32.477   2.330
39602W        W 3326  14.746   5.279   1.349
39603W        W 3327  31.472   0.267  10.536
39604W        W 3328   9.344  40.309  11.482
39605W        W 3329  36.914   2.393  11.056
39606W        W 3330  32.496  25.613  12.013
39607W        W 3331  35.991  15.152  11.400
39608W        W 3332  15.094   9.873   0.361
39609W        W 3333  22.609  34.044   0.264
39610W        W 3334  39.944  32.546   1.223
39611W        W 3335  21.557  34.494  11.040
39612W        W 3336   4.930   5.840  11.893
39613W        W 3337  34.610  13.141   4.214
39614W        W 3338  27.560  21.566   2.798
39615W        W 3339   4.873  20.226  12.342
39616W        W 3340  13.652   1.978  12.941
39617W        W 3341  35.105  15.633  11.380
39618W        W 3342  41.930  10.802  13.034
39619W        W 3343  31.050  19.624  10.438
39620W        W 3344  29.446  11.212  11.855
39621W        W 3345  23.698  23.521   3.685
39622W        W 3346  13.694  23.703  12.950
39623W        W 3347  30.992   7.667   0.469
39624W        W 3348  35.100   1.972   4.650
39625W        W 3349  20.660   1.265   4.292
39626W        W 3350   9.245  11.207   5.653
39627W        W 3351  35.013  42.508  10.523
39628W        W 3352  15.108  12.779  12.058
39629W        W 3353  30.084  35.502   2.706
39630W        W 3354  28.676   5.334  14.763
39631W        W 3355  43.378  27.016   2.230
39632W        W 3356  26.112  25.203  11.938
39633W        W 3357  40.475  31.008   4.648
39634W        W 3358   8.178  17.286  14.849
39635W        W 3359  15.722  35.567   2.837
39636W        W 3360  38.344   1.890  14.510
39637W        W 3361  35.529   2.287   1.765
39638W        W 3362   8.855  26.109   4.275
39639W        W 3363  24.511  26.037   1.357
39640W        W 3364  36.075  17.687   2.312
39641W        W 3365  44.802   6.831   2.339
39642W        W 3366  19.122  41.929  11.933
39643W        W 3367  41.354   6.363  13.469
39644W        W 3368   3.943  23.678  14.904
39645W        W 3369  22.140  16.317  10.076
39646W        W 3370   7.266   4.436  14.508
39647W        W 3371  28.606  23.235  14.450
39648W        W 3372   1.956   2.845  14.762
39649W        W 3373  11.214  40.968  14.832
39650W        W 3374  44.434  26.549  10.090
39651W        W 3375  15.640   5.343  14.346
39652W        W 3376   4.800  18.295  12.874
39653W        W 3377  32.438   7.902   2.899
39654W        W 3378  40.820   6.872   4.133
39655W        W 3379  27.604  33.043   2.727
39656W        W 3380   4.763  25.219  13.502
39657W        W 3381  43.803  24.107  13.423
39658W        W 3382  33.038  44.927  12.341
39659W        W 3383  39.384  38.959  13.384
39660W        W 3384  20.269  15.628  11.985
39661W        W 3385  19.753  39.991   0.860
39662W        W 3386  22.129  43.988   2.203
39663W        W 3387   7.679  25.120  12.431
39664W        W 3388  36.554  26.110  14.962
39665W        W 3389  31.013  27.563   0.299
39666W        W 3390  26.682  43.293   2.407
39667W        W 3391  10.655   8.735  11.010
39668W        W 3392  15.815  28.611  13.046
39669W        W 3393   6.188   2.378  13.483
39670W        W 3394  44.289  16.765   0.381
39671W        W 3395  26.000  10.656  10.539
39672W        W 3396  27.539   8.268  12.858
39673W        W 3397  29.966  34.508   0.304
39674W        W 3398  34.396  13.822   4.168
39675W        W 3399   8.885  35.035  13.925
39676W        W 3400  12.812  11.767   1.392
39677W        W 3401  42.430  24.018   4.186
39678W        W 3402   9.828  39.390  12.939
39679W        W 3403  27.455  13.134  10.976
39680W        W 3404  20.063  25.589   1.702
39681W        W 3405  40.840  23.104  13.037
39682W        W 3406  42.978  35.067   3.232
39683W        W 3407  18.604  42.378  14.948
39684W        W 3408  13.161  36.010  12.834
39685W        W 3409  30.588  15.157  13.370
39686W        W 3410  36.352  33.918   3.806
39687W        W 3411  33.565  34.908   5.227
39688W        W 3412  43.491  19.254  13.519
39689W        W 3413   6.385   7.812  10.998
39690W        W 3414  38.877  41.992   0.432
39691W        W 3415   9.175  16.241   1.918
39692W        W 3416  40.447  42.405  14.846
39693W        W 3417  41.362  19.558   1.354
39694W        W 3418  35.506  27.632  10.458
39695W        W 3419  38.448  42.290  13.905
39696W        W 3420   8.805  15.634  11.876
39697W        W 3421  18.143  19.647  13.537
39698W        W 3422   1.376  30.545  11.887
39699W        W 3423  19.110  30.074  12.566
39700W        W 3424  14.730  10.862   3.715
39701W        W 3425  14.279  36.511   0.779
39702W        W 3426  42.823  22.635  12.460
39703W        W 3427  39.847  30.465  11.376
39704W        W 3428  41.951  21.173  13.356
39705W        W 3429  33.886  12.317  13.310
39706W        W 3430  29.987  13.325  12.512
39707W        W 3431  16.098   7.762  12.919
39708W        W 3432  17.667  38.985  11.969
39709W        W 3433  41.988  24.490  13.937
39710W        W 3434  39.908   5.689   4.242
39711W        W 3435  44.916  20.543  11.051
39712W        W 3436  17.234  22.732   2.255
39713W        W 3437   2.275   4.729  12.540
39714W        W 3438  39.507  33.538  10.605
39715W        W 3439   0.930  16.693   1.835
39716W        W 3440  21.083  29.949   0.796
39717W        W 3441   9.877  40.939   4.348
39718W        W 3442  41.910  25.483   5.135
39719W        W 3443   0.749   9.669  13.939
39720W        W 3444   1.320  31.582  10.937
39721W        W 3445  29.643   7.337  12.060
39722W        W 3446  16.696  16.263   0.730
39723W        W 3447  37.038  41.466  14.802
39724W        W 3448  43.469  28.503   0.326
39725W        W 3449  14.314  30.126  11.079
39726W        W 3450  43.842   0.812  13.329
39727W        W 3451  30.960  38.384   2.357
39728W        W 3452  41.398  13.729   3.790
39729W        W 3453  39.396   6.260  13.868
39730W        W 3454  23.222  12.611   2.830
39731W        W 3455  28.659  31.035   2.673
39732W        W 3456  34.928  43.778  11.520
39733W        W 3457  11.162  31.001  13.334
39734W        W 3458  19.569  14.215   2.841
39735W        W 3459  42.423  17.170  12.043
39736W        W 3460   7.217  16.579   0.758
39737W        W 3461  18.608   5.382   1.896
39738W        W 3462  14.321  38.944   0.351
39739W        W 3463  30.538  36.410  11.611
39740W        W 3464  32.059  20.204  13.933
39741W        W 3465  23.991  35.958   1.415
39742W        W 3466  19.282   3.806   4.179
39743W        W 3467  15.671  36.562  11.971
39744W        W 3468   5.708   8.208  12.850
39745W        W 3469  19.260  29.613  11.432
39746W        W 3470  36.419  19.667   3.279
39747W        W 3471  10.376  43.421   1.365
39748W        W 3472  20.595  26.462   1.314
39749W        W 3473   3.221   2.437  13.882
39750W        W 3474  20.266  17.084   2.891
39751W        W 3475  39.475  23.024   3.260
39752W        W 3476  21.594  18.104  13.050
39753W        W 3477  23.510  35.404   0.444
39754W        W 3478  24.087   0.978  14.945
39755W        W 3479  32.468   3.425   1.388
39756W        W 3480  16.780  41.840   1.812
39757W        W 3481  41.789   5.762   0.350
39758W        W 3482  18.164  11.658   2.279
39759W        W 3483  15.644   0.803   4.199
39760W        W 3484  17.193   5.887   0.395
39761W        W 3485  29.562  41.956  13.039
39762W        W 3486   8.388  13.318   1.818
39763W        W 3487  38.511   2.807  13.317
39764W        W 3488  32.022   6.187   4.694
39765W        W 3489  26.107  26.549  14.297
39766W        W 3490  25.658  35.429  13.532
39767W        W 3491  18.756  13.335  12.836
39768W        W 3492   5.707  24.982  11.882
39769W        W 3493  19.145  35.358   1.856
39770W        W 3494  18.253  36.435   0.852
39771W        W 3495  21.712  11.314  14.824
39772W        W 3496  18.255  26.975   4.181
39773W        W 3497  43.852  31.944   3.265
39774W        W 3498  15.147  42.837  11.860
39775W        W 3499  43.456  36.347  11.106
39776W        W 3500  23.090   9.219  13.461
39777W        W 3501  21.700  19.541  14.362
39778W        W 3502  21.735  26.033  13.542
39779W        W 3503  25.647  21.217   4.600
39780W        W 3504  41.887   0.342   4.784
39781W        W 3505  18.737  39.411  13.371
39782W        W 3506  38.923   6.681  14.511
39783W        W 3507   7.210  36.934   1.867
39784W        W 3508   5.751  22.169  13.917
39785W        W 3509  31.042  35.568   4.660
39786W        W 3510  25.567  12.297   2.400
39787W        W 3511  28.561   3.218   2.209
39788W        W 3512  27.635  10.352  13.516
39789W        W 3513   9.238  19.123  13.432
39790W        W 3514  34.868  26.988   3.709
39791W        W 3515  18.667  39.484  12.991
39792W        W 3516  10.367   9.227   3.362
39793W        W 3517  33.937  17.734   5.221
39794W        W 3518  18.635  12.191  10.051
39795W        W 3519   2.250  26.192  13.996
39796W        W 3520  27.061  15.270   3.845
39797W        W 3521  44.847  35.574   1.725
39798W        W 3522  24.136   5.909  14.826
39799W        W 3523  32.096   2.297  13.064
39800W        W 3524  34.916   2.897  12.949
39801W        W 3525  17.566  28.099  11.576
39802W        W 3526  37.510  19.096   3.249
39803W        W 3527  18.766  37.341  14.878
39804W        W 3528  10.342   9.870  12.840
39805W        W 3529  15.756  19.548   5.279
39806W        W 3530  23.201  21.161  11.593
39807W        W 3531   2.361  33.006   3.798
39808W        W 3532  38.427  22.629  10.507
39809W        W 3533  22.114  16.598  13.364
39810W        W 3534   6.730  28.543   2.723
39811W        W 3535  10.796  22.219   1.302
39812W        W 3536  34.899   9.766  13.420
39813W        W 3537  19.088   9.368   0.261
39814W        W 3538  23.677  13.108   3.253
39815W        W 3539  44.388  40.400   2.820
39816W        W 3540  22.109  21.110   2.834
39817W        W 3541  28.001   7.236   4.351
39818W        W 3542   7.704  15.135  13.354
39819W        W 3543  11.137   6.252  12.869
39820W        W 3544  38.516   9.868  13.062
39821W        W 3545  26.056  38.558  11.004
39822W        W 3546  41.968  11.705   1.893
39823W        W 3547  35.853  29.170  10.971
39824W        W 3548  35.393  22.587  10.446
39825W        W 3549  25.702  22.509  10.053
39826W        W 3550  31.146   8.396  10.906
39827W        W 3551  23.236  44.849  10.442
39828W        W 3552   7.240  12.179  14.482
39829W        W 3553   4.921   1.895  10.418
39830W        W 3554   3.248  10.302  10.472
39831W        W 3555  13.673  24.495  12.048
39832W        W 3556  33.880  36.941   2.304
39833W        W 3557   0.943  22.035  11.097
39834W        W 3558  34.530  12.359   0.329
39835W        W 3559  42.486   8.847   2.731
39836W        W 3560  38.394  23.241  13.977
39837W        W 3561  21.521  20.532   1.280
39838W        W 3562  16.797  44.815   2.197
39839W        W 3563  41.029   3.787  14.996
39840W        W 3564  39.332  29.127  12.907
39841W        W 3565  39.506  23.113  14.439
39842W        W 3566   3.901  43.344  12.917
39843W        W 3567   3.817  10.257   4.660
39844W        W 3568  24.976  44.854  12.352
39845W        W 3569  21.253  30.525   0.266
39846W        W 3570  29.539   7.327  12.881
39847W        W 3571  41.315  38.376  12.850
39848W        W 3572  36.372  28.492  14.336
39849W        W 3573  23.553  41.983  12.466
39850W        W 3574  39.447  21.543  10.532
39851W        W 3575  31.561   7.858  11.090
39852W        W 3576  44.947  11.172  14.025
39853W        W 3577  19.188  36.847  14.466
39854W        W 3578  37.368   2.254  12.451
39855W        W 3579   6.289   3.388   0.730
39856W        W 3580   7.298   1.746  13.974
39857W        W 3581  27.169  29.040   4.784
39858W        W 3582  35.978  30.577   4.230
39859W        W 3583  37.855  21.718   3.204
39860W        W 3584   3.876  22.140   0.805
39861W        W 3585  17.246   7.240  10.946
39862W        W 3586  34.569  29.103  12.920
39863W        W 3587  22.106   9.658   0.757
39864W        W 3588  24.223  36.514  11.548
39865W        W 3589  41.301   9.252   1.339
39866W        W 3590  34.880   6.284  10.502
39867W        W 3591  29.010  31.588  11.950
39868W        W 3592  30.165   7.697   0.421
39869W        W 3593  28.146   1.246  10.572
39870W        W 3594  29.526  18.159   0.379
39871W        W 3595  18.207  13.274   3.180
39872W        W 3596  18.615  32.096   1.789
39873W        W 3597  24.656  35.897  13.501
39874W        W 3598  17.185   6.821   1.796
39875W        W 3599  20.250  16.292  10.549
39876W        W 3600  44.441   0.914  13.340
39877W        W 3601   3.871  14.622  14.312
39878W        W 3602   8.250  30.128  11.457
39879W        W 3603  26.197  44.910  10.550
39880W        W 3604   8.396  27.972   2.699
39881W        W 3605   8.853  23.153  10.585
39882W        W 3606  35.943  32.423   0.321
39883W        W 3607  23.601  31.080  12.846
39884W        W 3608  16.257  37.970   2.714
39885W        W 3609  16.127  44.808   3.856
39886W        W 3610  27.149  40.547   1.843
39887W        W 3611  39.812  28.447  14.276
39888W        W 3612  21.187  12.633  10.544
39889W        W 3613  32.089   3.955  11.903
39890W        W 3614  16.182  23.200  11.094
39891W        W 3615  27.018  34.994   4.137
39892W        W 3616  26.576  33.548  13.054
39893W        W 3617  36.874  40.370  12.456
39894W        W 3618  42.470   7.822  10.896
39895W        W 3619  24.517  43.359   2.364
39896W        W 3620  36.963  28.932   0.789
39897W        W 3621  30.050  27.594   0.357
39898W        W 3622   2.432  44.874  11.925
39899W        W 3623  43.859  43.473  14.467
39900W        W 3624  26.614  38.411  11.504
39901W        W 3625  10.182  19.650  12.437
39902W        W 3626  18.764   1.769  11.997
39903W        W 3627   8.307  42.988   1.239
39904W        W 3628  22.611  12.332  12.369
39905W        W 3629  18.224  12.696   5.261
39906W        W 3630  20.238   9.310   3.815
39907W        W 3631  34.007  33.975  10.600
39908W        W 3632  19.550  23.551  10.462
39909W        W 3633  39.022   7.746   3.654
39910W        W 3634  17.284  13.223  13.896
39911W        W 3635   5.230  23.138  12.015
39912W        W 3636   3.309  11.654   0.270
39913W        W 3637   4.941  12.352  13.490
39914W        W 3638  26.185  40.981   1.399
39915W        W 3639   2.877  14.660  12.062
39916W        W 3640  26.154   7.867   0.885
39917W        W 3641  42.384  21.078  12.001
39918W        W 3642   9.874  33.021  12.524
39919W        W 3643  14.200   6.235  14.510
39920W        W 3644  25.660  39.319   3.793
39921W        W 3645  23.151  27.095  13.542
39922W        W 3646  38.841  25.975  10.091
39923W        W 3647   4.351  42.786   4.648
39924W        W 3648   5.696  37.018   1.242
39925W        W 3649  19.667   8.733  10.605
39926W        W 3650   6.789  33.028   1.222
39927W        W 3651   1.942  32.939  12.063
39928W        W 3652  35.502  29.994   3.663
39929W        W 3653  17.099  24.227  12.367
39930W        W 3654  44.885  33.410  10.552
39931W        W 3655  25.681  16.248  12.020
39932W        W 3656  16.585   9.811   2.246
39933W        W 3657  41.917   7.825   1.911
39934W        W 3658   1.871  27.005   2.357
39935W        W 3659  20.700  26.111   3.323
39936W        W 3660  43.451  38.492   0.426
39937W        W 3661  18.675  38.005   2.791
39938W        W 3662  37.968  42.514   1.449
39939W        W 3663  44.269  17.795   1.402
39940W        W 3664  28.508  12.796  11.421
39941W        W 3665  23.997  16.572  12.480
39942W        W 3666  26.553  41.507  12.895
39943W        W 3667  41.363  41.341   2.266
39944W        W 3668   5.883  24.587  13.516
39945W        W 3669  35.906  37.511  14.484
39946W        W 3670  27.986   7.785   2.379
39947W        W 3671  42.527  16.711  13.026
39948W        W 3672  35.097   7.395   3.247
39949W        W 3673   1.751   3.459   3.672
39950W        W 3674   0.440   2.891  14.903
39951W        W 3675   1.468  27.948  14.785
39952W        W 3676   3.800   5.221  14.861
39953W        W 3677  24.670  43.963  14.887
39954W        W 3678   2.415  29.016  13.996
39955W        W 3679  37.577   3.330  10.004
39956W        W 3680  18.731  15.668  12.992
39957W        W 3681  12.640   0.445   3.310
39958W        W 3682  12.139  29.595  11.606
39959W        W 3683   6.273  29.509  10.553
39960W        W 3684   7.380  16.634  11.419
39961W        W 3685  26.045  17.692  13.522
39962W        W 3686  39.505  38.031   2.738
39963W        W 3687   4.838  38.479   0.326
39964W        W 3688  33.000   6.811  10.566
39965W        W 3689   2.443  30.038  11.555
39966W        W 3690  11.367   4.935  12.474
39967W        W 3691  29.945   8.353   2.346
39968W        W 3692  42.384  13.128  14.285
39969W        W 3693   9.838   7.683   3.837
39970W        W 3694  25.607  37.414  11.941
39971W        W 3695   4.922  18.079   3.273
39972W        W 3696  23.160  11.630   4.753
39973W        W 3697  12.770   7.715   4.280
39974W        W 3698   0.259  15.299  12.861
39975W        W 3699   9.313  36.974   1.396
39976W        W 3700  11.344   9.786  12.974
39977W        W 3701   4.211  24.194  14.339
39978W        W 3702   9.318  40.409  12.989
39979W        W 3703   9.768  18.153   0.436
39980W        W 3704  28.676  26.512   3.307
39981W        W 3705  26.661  38.050  12.908
39982W        W 3706  25.584  18.771   1.324
39983W        W 3707  36.513  32.533  11.978
39984W        W 3708  30.908  35.508  14.329
39985W        W 3709  37.519  11.294   3.858
39986W        W 3710  44.993  32.944  10.599
39987W        W 3711  29.063  25.095   1.440
39988W        W 3712  20.600  18.693  11.045
39989W        W 3713  15.816  19.596   0.259
39990W        W 3714  28.170   3.755  10.590
39991W        W 3715  23.592  38.843   0.808
39992W        W 3716  26.105  23.225   2.382
39993W        W 3717  39.508  29.053   4.175
39994W        W 3718  44.007  32.134  14.496
39995W        W 3719   1.923  18.138   4.784
39996W        W 3720   5.762  36.576  13.354
39997W        W 3721   9.865  37.953  13.508
39998W        W 3722   8.658  22.107   4.623
39999W        W 3723  23.674   2.302   2.215
40000W        W 3724  32.515  35.948  11.372
40001W        W 3725  18.705   8.337  10.598
40002W        W 3726  40.500  33.049   2.678
40003W        W 3727  22.184  28.133   1.738
40004W        W 3728  12.670  41.000   2.278
40005W        W 3729  24.502  25.595   4.771
40006W        W 3730  11.643  32.944   1.819
40007W        W 3731  12.654   4.439  14.018
40008W        W 3732  41.979  25.619  14.984
40009W        W 3733  37.537   7.273  10.108
40010W        W 3734  43.962   5.701  11.500
40011W        W 3735   9.867  43.986   0.463
40012W        W 3736  18.255   3.914  14.466
40013W        W 3737  10.288  30.147   2.386
40014W        W 3738  32.541  26.067   2.789
40015W        W 3739  28.666   1.459  10.436
40016W        W 3740  37.393  26.129  13.363
40017W        W 3741  30.623  27.611   0.738
40018W        W 3742  36.391  23.659  14.759
40019W        W 3743  22.601   2.947  11.012
40020W        W 3744  35.445  35.511  14.914
40021W        W 3745  13.717  30.437   3.742
40022W        W 3746  44.830  30.419   4.608
40023W        W 3747  38.039   6.365   1.219
40024W        W 3748  21.574  14.749  13.895
40025W        W 3749  41.440  26.985   3.753
40026W        W 3750  16.244   4.445   3.186
40027W        W 3751  37.941   6.261   3.644
40028W        W 3752   2.362  15.250   4.724
40029W        W 3753  16.669  36.949  12.516
40030W        W 3754  39.540  29.588  14.015
40031W        W 3755  41.502  11.268   2.668
40032W        W 3756  44.006  19.044   1.360
40033W        W 3757  23.522   4.369  14.836
40034W        W 3758  44.356  37.578   1.706
40035W        W 3759   9.734  37.020   3.232
40036W        W 3760  21.516   2.828  11.940
40037W        W 3761  27.559   8.820   3.290
40038W        W 3762   9.668  18.756  12.838
40039W        W 3763   9.808   1.303  12.837
40040W        W 3764  18.191  11.777   3.351
40041W        W 3765  20.703  36.421   1.763
40042W        W 3766  39.463  31.589   1.745
40043W        W 3767  36.960  40.983  12.011
40044W        W 3768  15.287  11.164   1.256
40045W        W 3769  27.631  14.717  11.031
40046W        W 3770  38.927  41.444   3.326
40047W        W 3771  31.150  23.651  12.019
40048W        W 3772  29.081  40.825   0.270
40049W        W 3773  23.044  18.051  10.906
40050W        W 3774   2.342  40.370   0.444
40051W        W 3775  31.492  21.141   0.417
40052W        W 3776  16.603  40.348   3.643
40053W        W 3777  25.077  39.331  10.508
40054W        W 3778  20.600  36.893  10.980
40055W        W 3779  11.217  17.264  12.467
40056W        W 3780   8.717  21.682  13.895
40057W        W 3781  32.482   3.757   4.812
40058W        W 3782   2.774  22.603  10.484
40059W        W 3783  41.027  30.059   3.711
40060W        W 3784  39.006  24.504  10.471
40061W        W 3785   1.769  44.758  12.846
40062W        W 3786  14.277  32.902   3.288
40063W        W 3787  40.326   0.806   4.795
40064W        W 3788  12.852  10.721  11.420
40065W        W 3789  44.350   3.864  10.947
40066W        W 3790  12.669  29.618  12.566
40067W        W 3791   3.746  34.584   3.314
40068W        W 3792  23.052  31.531   1.403
40069W        W 3793  26.105   2.905   3.816
40070W        W 3794  42.306  27.663  10.407
40071W        W 3795  30.563  43.498  12.558
40072W        W 3796  36.495  12.731   2.757
40073W        W 3797  35.887  32.512   0.813
40074W        W 3798  12.644  19.208   3.379
40075W        W 3799  42.464  26.475  11.504
40076W        W 3800   1.266  28.664  14.436
40077W        W 3801   0.319  14.259   3.253
40078W        W 3802  23.205  22.654   0.424
40079W        W 3803  43.878  25.485   0.926
40080W        W 3804   1.245  24.201  14.872
40081W        W 3805  30.518  34.373   1.328
40082W        W 3806   6.373   0.756   4.836
40083W        W 3807  16.210   3.713  14.793
40084W        W 3808   4.239  33.046  14.931
40085W        W 3809  17.780  12.734  14.821
40086W        W 3810  23.716  32.974  10.507
40087W        W 3811  16.209  35.538   2.808
40088W        W 3812  10.220  10.729  14.022
40089W        W 3813  10.807  39.056  13.442
40090W        W 3814  41.892  44.263   4.269
40091W        W 3815  10.657   4.804  10.515
40092W        W 3816  17.308  38.967  12.077
40093W        W 3817  35.852  19.239   4.289
40094W        W 3818  37.918  17.209   3.859
40095W        W 3819  43.483  25.621  11.886
40096W        W 3820  35.088  17.293   2.676
40097W        W 3821  44.903  43.497  13.879
40098W        W 3822  44.262   2.432   2.846
40099W        W 3823   9.393  14.156   1.241
40100W        W 3824  38.479  44.993   2.378
40101W        W 3825  43.915   5.407   1.841
40102W        W 3826  26.954   9.342  14.432
40103W        W 3827  32.933  20.676   4.143
40104W        W 3828  25.711  35.909   3.808
40105W        W 3829  29.472   1.479   0.273
40106W        W 3830  26.069   3.928  11.015
40107W        W 3831  19.731  44.993   4.132
40108W        W 3832  28.954   5.788  13.335
40109W        W 3833  19.584  12.362   1.237
40110W        W 3834  20.112  36.477  12.555
40111W        W 3835  42.282   7.340  10.548
40112W        W 3836   7.697  36.910   0.395
40113W        W 3837   5.371  37.883  13.987
40114W        W 3838   6.699   0.790  14.511
40115W        W 3839   6.191  39.039  10.058
40116W        W 3840   4.843  10.287   9.982
40117W        W 3841  43.867   7.286   0.881
40118W        W 3842   9.233   9.856  14.789
40119W        W 3843  29.639   5.708  10.557
40120W        W 3844  11.853  26.684  10.627
40121W        W 3845  18.103   8.816  13.892
40122W        W 3846  16.236  26.183  14.927
40123W        W 3847   6.363  20.168  10.519
40124W        W 3848  15.748  41.889  11.018
40125W        W 3849  43.487  31.991   0.337
40126W        W 3850  42.811   7.755  14.379
40127W        W 3851   4.418  21.746  13.806
40128W        W 3852  29.070  43.921  11.611
40129W        W 3853   0.968  11.254   4.811
40130W        W 3854   7.256   9.687   1.727
40131W        W 3855  43.923  24.096  12.403
40132W        W 3856  23.121  42.899  13.421
40133W        W 3857   4.399  31.550  11.550
40134W        W 3858  34.415   2.757   4.722
40135W        W 3859  39.852  34.951  13.532
40136W        W 3860   6.711  41.012   1.725
40137W        W 3861  41.802  44.391  11.935
40138W        W 3862  12.804  31.914  12.990
40139W        W 3863  36.586  26.548   2.345
40140W        W 3864   9.814  41.308  14.872
40141W        W 3865  22.551  35.903  11.909
40142W        W 3866  15.251   1.372  10.484
40143W        W 3867  30.434   0.415  13.889
40144W        W 3868   7.908  36.976  14.946
40145W        W 3869  37.552  31.503   1.800
40146W        W 3870  24.016   1.837  14.918
40147W        W 3871  14.325  11.157   3.698
40148W        W 3872  21.062  43.450   2.670
40149W        W 3873  10.643  18.117   2.902
40150W        W 3874   4.388  13.317   0.304
40151W        W 3875  10.202  22.114  10.973
40152W        W 3876  40.422  39.962   1.246
40153W        W 3877  42.791  12.172  13.514
40154W        W 3878   4.319  27.189  12.005
40155W        W 3879  32.495  21.049  12.563
40156W        W 3880  15.141   2.315  10.636
40157W        W 3881  10.789  14.716  11.581
40158W        W 3882   3.265  32.614  13.342
40159W        W 3883  41.932  23.558   1.285
40160W        W 3884  35.600  43.925   1.353
40161W        W 3885   6.731  12.843  14.831
40162W        W 3886  17.739  43.928   1.894
40163W        W 3887  23.182  25.474   1.842
40164W        W 3888  23.078  40.435   4.772
40165W        W 3889  22.227  41.457  11.035
40166W        W 3890   0.362  36.455  11.056
40167W        W 3891  20.641   9.816   3.788
40168W        W 3892  18.729  43.427  14.322
40169W        W 3893  43.778  43.456   4.219
40170W        W 3894  24.069   6.922  14.440
40171W        W 3895   5.850   3.218   4.205
40172W        W 3896  10.162  23.124  14.364
40173W        W 3897  41.396  42.003   5.170
40174W        W 3898  14.617  18.289  10.052
40175W        W 3899  21.658  41.308  12.452
40176W        W 3900  38.022  37.440   2.900
40177W        W 3901  43.411  26.012   0.390
40178W        W 3902  28.067  35.104  13.349
40179W        W 3903  40.535  13.659  12.839
40180W        W 3904  16.567  19.626   3.280
40181W        W 3905   8.320  40.953   1.244
40182W        W 3906  32.588  28.997   2.277
40183W        W 3907  29.649  17.255   1.826
40184W        W 3908  31.940  31.490  11.913
40185W        W 3909  15.140  23.685   2.347
40186W        W 3910   6.278  38.454  13.863
40187W        W 3911  34.024  28.435  10.455
40188W        W 3912  17.730   7.750   0.343
40189W        W 3913   3.438   3.941   0.366
40190W        W 3914  24.003  25.649   2.728
40191W        W 3915  35.956   6.208  12.519
40192W        W 3916  24.003  19.541   0.358
40193W        W 3917  28.610  19.624   4.647
40194W        W 3918   5.422  35.558   2.239
40195W        W 3919  32.625   1.305   2.886
40196W        W 3920  34.523  30.085   0.807
40197W        W 3921  36.403  31.617  13.528
40198W        W 3922  31.598  35.956  12.945
40199W        W 3923  17.727  23.684  11.967
40200W        W 3924  11.298  42.982  12.065
40201W        W 3925  18.743  15.114  13.918
40202W        W 3926  17.650  37.033  12.516
40203W        W 3927  24.708  23.621   1.294
40204W        W 3928  37.464  44.322   4.268
40205W        W 3929  38.866  35.910   1.847
40206W        W 3930  39.392   0.938   5.234
40207W        W 3931  33.108   1.777   0.876
40208W        W 3932   6.818  10.156  12.974
40209W        W 3933  18.605  28.434   4.246
40210W        W 3934  43.989  34.547   9.923
40211W        W 3935  38.516   8.304   1.928
40212W        W 3936   6.751  24.086   1.393
40213W        W 3937  15.317  10.869  13.417
40214W        W 3938  20.272  38.032   5.233
40215W        W 3939  31.064  23.116  11.554
40216W        W 3940   4.716  13.253   3.781
40217W        W 3941   9.725   0.382   3.226
40218W        W 3942  28.655  21.631  11.961
40219W        W 3943   1.918  38.027  10.606
40220W        W 3944  41.807  19.759  11.398
40221W        W 3945  15.698   9.370   2.766
40222W        W 3946  42.915  40.319   1.862
40223W        W 3947   1.334  14.815  12.464
40224W        W 3948  39.325  28.598  11.609
40225W        W 3949  14.265   6.253   3.660
40226W        W 3950  36.982  15.727  12.065
40227W        W 3951  24.606  36.038   3.181
40228W        W 3952  11.624   1.380   2.894
40229W        W 3953  40.843  30.127  14.456
40230W        W 3954  35.364  35.583  13.491
40231W        W 3955  15.806  12.208  13.355
40232W        W 3956  31.602  24.155   2.736
40233W        W 3957   4.890  39.406   1.216
40234W        W 3958  11.352  37.945  13.365
40235W        W 3959  43.469  18.720   0.407
40236W        W 3960  15.782  32.079   1.326
40237W        W 3961  21.241   6.900  14.274
40238W        W 3962  28.157  41.955  14.966
40239W        W 3963  11.253  39.014  13.536
40240W        W 3964  33.439  34.470  10.419
40241W        W 3965  25.580  23.540   3.667
40242W        W 3966   4.902  42.892  12.374
40243W        W 3967  27.658  26.497   1.401
40244W        W 3968   1.949  11.138  12.557
40245W        W 3969   0.907  24.662   1.839
40246W        W 3970  24.177  25.705  11.509
40247W        W 3971  27.682   8.279  10.616
40248W        W 3972  21.537  15.702   5.195
40249W        W 3973  14.237  32.624   2.320
40250W        W 3974  29.532  23.119   4.224
40251W        W 3975  27.587   7.727  12.457
40252W        W 3976   6.858  32.406   4.152
40253W        W 3977  38.033  21.073  13.940
40254W        W 3978  44.828  16.259   0.447
40255W        W 3979  22.551  15.307   2.215
40256W        W 3980  13.640  42.883   1.364
40257W        W 3981  33.939  31.102   1.392
40258W        W 3982  13.201  42.818  13.369
40259W        W 3983  13.229  24.074   3.182
40260W        W 3984  34.517   5.218  10.999
40261W        W 3985  43.887  38.062  10.050
40262W        W 3986  21.603   0.982  10.481
40263W        W 3987  36.007  12.163  10.523
40264W        W 3988  40.383  16.704   3.305
40265W        W 3989  25.534  36.492  10.494
40266W        W 3990  43.997   5.298  11.060
40267W        W 3991  37.447  20.115  14.869
40268W        W 3992   0.349  11.704  14.322
40269W        W 3993  44.755  26.569   4.266
40270W        W 3994  31.986   4.241  14.779
40271W        W 3995  10.738  22.595  13.031
40272W        W 3996  10.266  22.540  10.899
40273W        W 3997  36.892  31.496  10.965
40274W        W 3998  24.589   4.221   2.403
40275W        W 3999  37.983  27.009  14.495
40276W        W 4000  22.028   8.896   0.906
40277W        W 4001  12.794  40.014   1.213
40278W        W 4002  11.648  38.875   9.974
40279W        W 4003  11.155  23.533  12.425
40280W        W 4004  43.430  12.253  12.552
40281W        W 4005   9.645  35.376  12.992
40282W        W 4006  30.124  28.445   0.268
40283W        W 4007  33.390  26.572   2.849
40284W        W 4008  33.596   3.764   1.894
40285W        W 4009   0.811  37.982  14.974
40286W        W 4010  27.035   2.942   1.919
40287W        W 4011  39.850  11.187   4.260
40288W        W 4012  41.909  33.405  12.848
40289W        W 4013   5.415  35.526  10.895
40290W        W 4014  42.491   4.911   4.622
40291W        W 4015  13.306  39.336  12.490
40292W        W 4016  40.400  35.856  11.880
40293W        W 4017  20.545  26.537   0.928
40294W        W 4018  18.593   0.414   0.376
40295W        W 4019  21.099  11.683   2.369
40296W        W 4020  10.649  30.562   1.917
40297W        W 4021   8.811  10.146  12.575
40298W        W 4022  44.424  43.798   0.255
40299W        W 4023  20.603  42.928  12.526
40300W        W 4024  43.363  23.598  13.914
40301W        W 4025  26.056   6.217   1.436
40302W        W 4026  17.152  35.908   2.302
40303W        W 4027  32.904  19.773   3.165
40304W        W 4028   7.416   2.951   1.256
40305W        W 4029  44.942  15.135  14.368
40306W        W 4030  35.414  25.187  10.504
40307W        W 4031  40.448  13.727  14.931
40308W        W 4032  25.671   0.767   0.893
40309W        W 4033   4.368  13.690   2.768
40310W        W 4034   8.680  28.129   1.418
40311W        W 4035  15.233  19.758  13.529
40312W        W 4036  44.302  16.735  11.862
40313W        W 4037  43.496  38.532  13.019
40314W        W 4038  39.971  19.547   0.394
40315W        W 4039  38.521  41.837   2.412
40316W        W 4040  14.267  15.264   3.208
40317W        W 4041   1.912  39.973  13.528
40318W        W 4042  34.488  32.637  14.832
40319W        W 4043  44.375  29.610  12.891
40320W        W 4044   3.414  26.613  14.448
40321W        W 4045  30.927  43.349   3.746
40322W        W 4046  22.151  11.166  11.047
40323W        W 4047  22.181  25.599  14.890
40324W        W 4048  18.257   4.356  11.421
40325W        W 4049   5.860  19.613   3.286
40326W        W 4050  24.497  24.620   3.638
40327W        W 4051  23.580  44.901  11.456
40328W        W 4052  33.926   5.869   0.287
40329W        W 4053  26.664  21.049   3.328
40330W        W 4054  30.542  25.151   4.790
40331W        W 4055  33.521  28.160   3.259
40332W        W 4056  22.115  27.173  11.068
40333W        W 4057   6.192   9.766  12.090
40334W        W 4058  34.464  12.806  13.466
40335W        W 4059  31.582  40.335   3.231
40336W        W 4060  31.905  20.055   3.301
40337W        W 4061  24.072  21.027   1.798
40338W        W 4062   0.828  37.885  11.444
40339W        W 4063  13.798  17.087  13.414
40340W        W 4064  18.769  37.914   3.368
40341W        W 4065   2.928  37.868  14.018
40342W        W 4066  12.753  31.004   0.358
40343W        W 4067  29.522   9.881  12.972
40344W        W 4068  14.300  22.231  11.442
40345W        W 4069  39.812  34.481  13.793
40346W        W 4070  39.956   7.784   0.482
40347W        W 4071  24.138  38.391  12.533
40348W        W 4072  32.946   0.425   3.719
40349W        W 4073  37.350  35.570  14.953
40350W        W 4074   9.845  13.638  14.336
40351W        W 4075  32.042  42.490   1.274
40352W        W 4076  24.575  34.486   2.847
40353W        W 4077  43.316  13.266  12.861
40354W        W 4078  33.625  37.412  11.109
40355W        W 4079  36.892  33.040   4.350
40356W        W 4080   0.829  25.581  13.028
40357W        W 4081  10.779  16.810   4.680
40358W        W 4082   1.284  12.702  13.021
40359W        W 4083   7.822  13.153  13.859
40360W        W 4084  12.836  35.990   4.734
40361W        W 4085  30.959  22.722   3.146
40362W        W 4086  36.589   0.379   3.236
40363W        W 4087   8.197  13.610   5.140
40364W        W 4088  41.962  34.022   0.280
40365W        W 4089  36.536  42.412  12.371
40366W        W 4090  33.129  28.060   3.644
40367W        W 4091  13.158   1.446   1.382
40368W        W 4092   4.373  26.649  14.335
40369W        W 4093  16.618  27.540   2.330
40370W        W 4094   3.864  33.418  14.941
40371W        W 4095  25.190  31.023  13.037
40372W        W 4096  28.560  23.490   2.378
40373W        W 4097   0.316  31.521  10.965
40374W        W 4098  26.479   0.769  10.897
40375W        W 4099  42.448  11.270   0.843
40376W        W 4100  20.079  41.934   2.411
40377W        W 4101  28.965   7.340  12.513
40378W        W 4102   6.287  17.733   4.742
40379W        W 4103  37.438  13.278  11.578
40380W        W 4104  36.545  27.015  11.478
40381W        W 4105  44.272  35.946   4.782
40382W        W 4106  21.579  28.095  12.342
40383W        W 4107  21.684   5.735   2.728
40384W        W 4108  32.886  42.847   3.379
40385W        W 4109   0.945  35.363  10.984
40386W        W 4110   8.842   2.891   1.439
40387W        W 4111  44.777  43.276  10.474
40388W        W 4112   8.756  25.591   5.242
40389W        W 4113  40.539  28.005   5.145
40390W        W 4114   6.412   9.869  13.831
40391W        W 4115   3.813  14.311   2.860
40392W        W 4116  26.146  43.445  13.388
40393W        W 4117   9.847  17.658   2.304
40394W        W 4118  25.177  12.170  11.606
40395W        W 4119  27.642   2.370   4.283
40396W        W 4120  32.436  20.236   3.148
40397W        W 4121   3.804  38.553   1.802
40398W        W 4122   5.252   7.242   0.921
40399W        W 4123  22.616  31.130  13.363
40400W        W 4124  17.108  30.462   1.720
40401W        W 4125  36.503   6.832   3.857
40402W        W 4126  14.708  20.040   2.793
40403W        W 4127  16.590  10.724  13.330
40404W        W 4128  32.463  40.361  13.996
40405W        W 4129  36.953  36.429  12.955
40406W        W 4130   2.281  37.021  14.923
40407W        W 4131  27.038  16.204  10.545
40408W        W 4132  28.065  35.900   0.453
40409W        W 4133  25.039  11.243  12.506
40410W        W 4134   3.269   0.294  10.091
40411W        W 4135  19.620   3.925  11.060
40412W        W 4136  42.880  19.218  13.023
40413W        W 4137  32.893  10.139  13.941
40414W        W 4138  19.695  42.410  13.460
40415W        W 4139  31.075   4.417   0.448
40416W        W 4140  11.671  26.562  11.568
40417W        W 4141  39.321   4.707  13.808
40418W        W 4142  17.138  44.276   2.312
40419W        W 4143   0.395   9.326   4.324
40420W        W 4144  29.499  36.449  14.340
40421W        W 4145  34.479  26.567  14.884
40422W        W 4146  25.581  20.053  12.003
40423W        W 4147  34.467  43.289   0.900
40424W        W 4148   3.424  42.788   4.282
40425W        W 4149  40.382  36.915  11.978
40426W        W 4150  44.886  13.258  10.984
40427W        W 4151  34.420   9.720   0.423
40428W        W 4152  43.003  27.539  13.988
40429W        W 4153   2.780  22.504   0.255
40430W        W 4154  22.560  43.893  11.609
40431W        W 4155  27.946   6.831   2.891
40432W        W 4156  42.523   0.434   1.926
40433W        W 4157  38.968  41.857  14.938
40434W        W 4158  11.230   6.195  11.885
40435W        W 4159  41.358  44.853   4.758
40436W        W 4160  29.633  34.880  11.029
40437W        W 4161  14.651  29.558   1.289
40438W        W 4162  22.246  20.190   1.851
40439W        W 4163  38.392  18.257  11.919
40440W        W 4164  31.474   3.453   3.377
40441W        W 4165  25.573  24.593   4.781
40442W        W 4166  34.512  28.131  12.508
40443W        W 4167  33.457  25.666  13.872
40444W        W 4168  11.198  11.801   4.661
40445W        W 4169   8.850  39.351  13.499
40446W        W 4170  42.866  14.689   3.722
40447W        W 4171  22.034   4.935   3.290
40448W        W 4172  17.139  37.069  14.277
40449W        W 4173  15.701  28.587   0.883
40450W        W 4174  29.658  44.897  13.823
40451W        W 4175  12.334   5.330  12.876
40452W        W 4176  29.951  12.327   0.399
40453W        W 4177  15.737  35.939   4.639
40454W        W 4178  17.778  38.986  10.440
40455W        W 4179   2.879  28.492  10.453
40456W        W 4180   4.742   4.372  12.921
40457W        W 4181  38.467   7.828   1.789
40458W        W 4182  28.447  42.303  14.396
40459W        W 4183  41.467   6.262   1.258
40460W        W 4184  42.451  38.553   4.819
40461W        W 4185  28.537  25.694  14.346
40462W        W 4186   2.317  14.176  14.780
40463W        W 4187  19.609  19.592   0.474
40464W        W 4188   4.249  34.572  10.494
40465W        W 4189  28.642  42.449   1.866
40466W        W 4190  19.237  43.915  12.513
40467W        W 4191  19.652  16.610   3.330
40468W        W 4192  13.726  43.011   4.301
40469W        W 4193   9.776  28.477   0.370
40470W        W 4194   7.768  12.166   0.370
40471W        W 4195  10.835  10.719   0.447
40472W        W 4196   1.263  44.398   3.194
40473W        W 4197   6.904  22.048   4.188
40474W        W 4198   5.315   8.346   0.393
40475W        W 4199   9.263  17.756   0.268
40476W        W 4200  44.359  19.250  11.988
40477W        W 4201   6.782  37.847   4.272
40478W        W 4202  12.756  29.489  10.458
40479W        W 4203  43.949  16.298  13.022
40480W        W 4204   6.302  43.420   2.880
40481W        W 4205  40.402  27.975  13.907
40482W        W 4206  26.026  25.060  14.405
40483W        W 4207   2.447   1.313  14.819
40484W        W 4208  21.726  30.002   1.851
40485W        W 4209  16.772  10.842   1.828
40486W        W 4210  41.317   8.787  10.932
40487W        W 4211  19.038  43.833  10.565
40488W        W 4212  29.129   6.786  14.419
40489W        W 4213  14.640  16.601  14.865
40490W        W 4214  29.661   8.302   2.373
40491W        W 4215  43.964  27.681  12.406
40492W        W 4216  27.495   8.249  10.995
40493W        W 4217  11.172  33.483   0.907
40494W        W 4218  14.830  27.993   1.420
40495W        W 4219  44.336  24.121   0.339
40496W        W 4220  36.479  29.471   1.869
40497W        W 4221  30.096   5.767  11.896
40498W        W 4222  38.031  36.022   0.479
40499W        W 4223  38.860   1.306   2.901
40500W        W 4224  24.095  28.987  10.477
40501W        W 4225  42.883  13.771   0.386
40502W        W 4226  19.729   3.748   3.179
40503W        W 4227   5.218  16.240  10.583
40504W        W 4228  29.606  21.222   1.900
40505W        W 4229  27.659  18.152   0.877
40506W        W 4230  26.067  32.595  11.938
40507W        W 4231  42.346  26.975   0.411
40508W        W 4232  35.387  25.704   2.862
40509W        W 4233  22.539  34.479  13.010
40510W        W 4234  43.483  32.054   2.306
40511W        W 4235  31.135  35.384   2.737
40512W        W 4236   8.353  35.970  11.374
40513W        W 4237  43.388  33.435   0.753
40514W        W 4238  17.586  23.529  12.536
40515W        W 4239  10.764   4.717   2.389
40516W        W 4240  25.055  11.779  12.833
40517W        W 4241   2.904   0.357   0.302
40518W        W 4242  17.600  26.479  12.989
40519W        W 4243  16.571   8.262   3.255
40520W        W 4244   4.740  10.159   3.234
40521W        W 4245  42.964  40.833   3.370
40522W        W 4246   4.429  41.348  14.453
40523W        W 4247   7.235  14.824   1.706
40524W        W 4248  40.474  18.277   2.754
40525W        W 4249  11.831  10.716  10.463
40526W        W 4250  12.814  12.852   1.233
40527W        W 4251  38.066   7.787  11.021
40528W        W 4252   4.295  19.150   3.713
40529W        W 4253  39.936  33.892  14.897
40530W        W 4254  29.981  10.228   0.938
40531W        W 4255  24.044   9.173  11.534
40532W        W 4256   0.902  42.282   3.870
40533W        W 4257  31.084  27.558   4.751
40534W        W 4258  15.799  13.268   0.394
40535W        W 4259  32.577  12.634   3.284
40536W        W 4260  28.161   4.943   1.875
40537W        W 4261  14.148   7.265  11.939
40538W        W 4262  18.207  34.956   5.132
40539W        W 4263  10.791  16.584  13.038
40540W        W 4264  22.592   7.319   0.904
40541W        W 4265   0.743  37.383   1.888
40542W        W 4266  22.742  10.318   3.684
40543W        W 4267  11.821  24.086  11.921
40544W        W 4268  15.617  28.439  14.917
40545W        W 4269  37.510   1.975  11.491
40546W        W 4270   9.356  21.262  13.870
40547W        W 4271  21.655  31.985  11.492
40548W        W 4272  14.614  36.862  11.920
40549W        W 4273  16.759  27.656   1.226
40550W        W 4274  24.151  12.347   3.702
40551W        W 4275  44.916  26.654   4.702
40552W        W 4276  39.472  36.363  13.952
40553W        W 4277  37.973  41.535  10.504
40554W        W 4278  13.760  36.019   4.280
40555W        W 4279  42.527  22.718   3.860
40556W        W 4280  41.414  15.129  10.630
40557W        W 4281   1.464  44.407  11.901
40558W        W 4282  22.172  38.913   3.253
40559W        W 4283  35.447  12.677  11.543
40560W        W 4284  43.420  11.146  12.432
40561W        W 4285  27.137  14.684   0.282
40562W        W 4286  24.679  31.097   4.722
40563W        W 4287   1.398   6.788   3.375
40564W        W 4288  34.942   4.228   2.411
40565W        W 4289  38.443   6.397  13.983
40566W        W 4290   7.825  32.535   2.194
40567W        W 4291  34.511   1.784  14.963
40568W        W 4292  27.133  40.043   1.769
40569W        W 4293  12.709  18.672   2.724
40570W        W 4294  43.286  35.544  14.803
40571W        W 4295  30.964  15.823  14.024
40572W        W 4296   2.361  24.481  10.907
40573W        W 4297  23.715  14.791   0.388
40574W        W 4298  22.566  12.292   1.868
40575W        W 4299  43.423   9.307  12.514
40576W        W 4300  19.064   5.710  14.952
40577W        W 4301  41.029  10.341  14.483
40578W        W 4302   5.786  40.528  12.391
40579W        W 4303  28.933  22.508   1.746
40580W        W 4304   0.393  29.983   0.283
40581W        W 4305  11.233  17.579   0.951
40582W        W 4306  33.000  36.531  13.492
40583W        W 4307  39.501  21.681   4.612
40584W        W 4308  10.139   4.799   4.168
40585W        W 4309  40.808  10.702   1.695
40586W        W 4310  29.090  43.417   3.246
40587W        W 4311  12.153   4.779  12.455
40588W        W 4312  31.150   0.268  14.331
40589W        W 4313  14.152  24.487  14.306
40590W        W 4314  27.616  13.213   2.346
40591W        W 4315  36.558  14.834  11.994
40592W        W 4316  37.069   8.195   2.732
40593W        W 4317  32.432   8.872   3.233
40594W        W 4318  41.521   4.927  11.107
40595W        W 4319  31.094  15.698  12.942
40596W        W 4320  35.062  17.715  14.767
40597W        W 4321  16.205  12.823   1.414
40598W        W 4322  30.659  24.549  11.060
40599W        W 4323   3.318   6.903  13.492
40600W        W 4324  43.325  33.080   4.248
40601W        W 4325   6.359  18.109  14.882
40602W        W 4326  44.786  33.985  10.058
40603W        W 4327  31.592  19.555   0.855
40604W        W 4328   6.250  10.833  12.990
40605W        W 4329  35.431  12.807   3.772
40606W        W 4330  10.259  34.555   4.789
40607W        W 4331  40.941  18.653   2.699
40608W        W 4332  35.487   0.983  12.864
40609W        W 4333  38.957  40.934   3.661
40610W        W 4334  25.141   9.781   1.778
40611W        W 4335   6.869  40.494  12.023
40612W        W 4336  26.673  30.485   4.160
40613W        W 4337  34.372  28.546   3.634
40614W        W 4338  38.065  35.874  14.452
40615W        W 4339  41.846   7.320   5.178
40616W        W 4340  40.935  20.677   3.755
40617W        W 4341  33.511  28.175  14.839
40618W        W 4342  28.054  14.687   3.866
40619W        W 4343  20.743  23.613  11.609
40620W        W 4344  29.483  18.103  13.449
40621W        W 4345   0.373  11.167   2.723
40622W        W 4346  26.620   9.164   2.223
40623W        W 4347  19.622   9.746   4.304
40624W        W 4348  28.934  32.534   2.280
40625W        W 4349   0.937  29.647  14.946
40626W        W 4350  21.196  10.844   3.322
40627W        W 4351  24.109  17.101  14.893
40628W        W 4352  35.535  38.006   3.777
40629W        W 4353  14.681  38.832   0.732
40630W        W 4354   3.762  43.464   3.231
40631W        W 4355  36.899   6.363   0.341
40632W        W 4356  21.715  24.063  11.920
40633W        W 4357  20.242  12.322   0.783
40634W        W 4358  38.989  41.534  14.911
40635W        W 4359   3.874   9.390  12.572
40636W        W 4360   4.757   9.808  11.431
40637W        W 4361  21.122  40.352  13.961
40638W        W 4362  13.221  10.667  10.566
40639W        W 4363   2.856  41.811  13.863
40640W        W 4364   5.411  27.462   2.301
40641W        W 4365  43.450  37.386  10.031
40642W        W 4366  26.158  44.846   0.253
40643W        W 4367  34.437   6.790  14.421
40644W        W 4368  32.509  32.402   0.367
40645W        W 4369  28.161  36.965  14.433
40646W        W 4370   2.836   5.745   1.449
40647W        W 4371  23.638  16.702  10.435
40648W        W 4372  40.830  29.126  10.438
40649W        W 4373  25.541   4.325   4.267
40650W        W 4374   7.748  15.614  12.005
40651W        W 4375  38.030  25.168   4.698
40652W        W 4376  30.062  28.176   2.228
40653W        W 4377   0.825  33.430  14.446
40654W        W 4378  11.356  39.874   0.399
40655W        W 4379  39.970  27.197   3.634
40656W        W 4380  31.945  22.637  13.407
40657W        W 4381  11.664  16.660  13.310
40658W        W 4382  27.985   6.286  12.957
40659W        W 4383  33.593  22.557   2.903
40660W        W 4384  15.621   6.837  13.432
40661W        W 4385  17.268   8.234   0.244
40662W        W 4386  18.072  25.129  13.970
40663W        W 4387  34.421  14.111   3.642
40664W        W 4388  16.222   6.753  14.908
40665W        W 4389  38.555  12.794   2.339
40666W        W 4390   6.375  10.313   2.262
40667W        W 4391  31.950   8.837  11.504
40668W        W 4392  25.078   5.708   4.179
40669W        W 4393  22.618   7.414  10.072
40670W        W 4394   0.913  16.140  13.397
40671W        W 4395  10.363  33.979   1.449
40672W        W 4396  35.921   9.235   3.380
40673W        W 4397  17.233  22.160  11.961
40674W        W 4398  28.953   6.749   9.949
40675W        W 4399  20.092  31.025   4.257
40676W        W 4400   6.284  26.205   3.246
40677W        W 4401  22.613  35.902  12.911
40678W        W 4402  35.476   2.768   3.230
40679W        W 4403   6.847   8.311   2.778
40680W        W 4404  18.618  10.659  14.789
40681W        W 4405  39.985  24.545  14.295
40682W        W 4406   0.969  20.760  11.887
40683W        W 4407  41.794  24.139   0.260
40684W        W 4408  14.797  28.134   3.189
40685W        W 4409   4.707  11.359   1.290
40686W        W 4410  37.473  35.360   4.733
40687W        W 4411  23.994  40.440   1.722
40688W        W 4412   2.439  40.461  10.604
40689W        W 4413  42.925  31.415  12.405
40690W        W 4414   7.220  30.984  11.583
40691W        W 4415  23.571  16.138   3.264
40692W        W 4416  22.131   9.767   1.797
40693W        W 4417  30.062  43.952   4.753
40694W        W 4418  28.048  27.465  14.383
40695W        W 4419  41.867  30.075   0.739
40696W        W 4420   3.861  34.541  13.927
40697W        W 4421  18.288  29.097  12.479
40698W        W 4422  29.512  44.272   3.737
40699W        W 4423  27.057  42.414  10.592
40700W        W 4424   8.834  25.978   2.756
40701W        W 4425  16.099   3.876   2.708
40702W        W 4426  44.768   1.884  13.927
40703W        W 4427  41.934  37.394  14.301
40704W        W 4428  40.518   7.797   3.259
40705W        W 4429  14.184  17.587  12.967
40706W        W 4430  14.809  35.532   2.376
40707W        W 4431   2.255   0.973  12.001
40708W        W 4432   9.227  31.024  12.944
40709W        W 4433   0.437  36.959  10.618
40710W        W 4434  36.033  21.019  14.916
40711W        W 4435  35.387   7.285   4.158
40712W        W 4436  18.210  25.093  14.324
40713W        W 4437  32.142   0.317  11.938
40714W        W 4438  36.353  18.577   4.744
40715W        W 4439   0.485  35.871   4.732
40716W        W 4440  21.083   9.750  12.461
40717W        W 4441   3.432  27.988   1.886
40718W        W 4442   3.421  23.588   0.953
40719W        W 4443  35.979   3.852   4.167
40720W        W 4444  35.583   9.366   4.732
40721W        W 4445   1.356   7.817   4.128
40722W        W 4446  21.135   6.708  10.459
40723W        W 4447  10.820  16.142  11.990
40724W        W 4448  13.770  16.785   4.125
40725W        W 4449  27.677  24.111   1.215
40726W        W 4450  29.937  18.703  14.856
40727W        W 4451  26.544  28.022   3.266
40728W        W 4452  18.225  23.643  14.916
40729W        W 4453  37.882  44.008  13.902
40730W        W 4454  13.122   5.301   0.403
40731W        W 4455  28.563  37.582  11.493
40732W        W 4456  30.600   4.835  10.471
40733W        W 4457  16.668  25.142   3.234
40734W        W 4458   9.650  33.067  11.019
40735W        W 4459   1.924  23.135   4.218
40736W        W 4460   0.751  16.178   2.190
40737W        W 4461  33.491  31.096   3.722
40738W        W 4462  28.629   6.260  10.893
40739W        W 4463  28.007  24.224  12.823
40740W        W 4464  36.495  20.729   3.711
40741W        W 4465  13.746  14.340   2.772
40742W        W 4466  17.567   7.350  13.982
40743W        W 4467  10.642  18.679  14.825
40744W        W 4468   1.884  37.487   3.180
40745W        W 4469  35.863  16.809  11.514
40746W        W 4470  15.752  40.516   3.664
40747W        W 4471  35.950  32.908   1.721
40748W        W 4472  31.991   4.735   1.793
40749W        W 4473  15.151  19.634   0.803
40750W        W 4474  37.499  27.485  13.375
40751W        W 4475  36.041  36.506   2.297
40752W        W 4476  25.669  10.839  12.827
40753W        W 4477  42.291   5.783  13.366
40754W        W 4478  14.735  20.711  14.883
40755W        W 4479  17.600   4.243   2.339
40756W        W 4480   2.871  29.619  10.635
40757W        W 4481  19.279  26.108   1.784
40758W        W 4482  43.964  23.202   0.765
40759W        W 4483  36.052  36.934   3.193
40760W        W 4484  21.141  26.124   2.815
40761W        W 4485  36.911  26.020   0.431
40762W        W 4486   3.401  12.304  12.578
40763W        W 4487   7.260  30.638  14.351
40764W        W 4488  40.882  10.773  10.914
40765W        W 4489  23.178  15.091  10.938
40766W        W 4490  16.133  15.640   2.250
40767W        W 4491  22.715  16.289   1.872
40768W        W 4492  16.704  23.650   1.730
40769W        W 4493  11.201  38.435   1.820
40770W        W 4494  22.187  26.515   3.244
40771W        W 4495  23.669  18.198   0.778
40772W        W 4496  35.000  39.907  13.899
40773W        W 4497  16.275  19.125  13.946
40774W        W 4498  21.249  14.134   2.773
40775W        W 4499  26.203  25.016   0.778
40776W        W 4500  23.233   1.283   4.779
40777W        W 4501  17.260  43.936   4.605
40778W        W 4502  10.651  28.115  11.870
40779W        W 4503  44.930  26.506  14.804
40780W        W 4504   7.887  37.860   2.410
40781W        W 4505  21.055   3.903  10.988
40782W        W 4506   4.409  43.766   4.259
40783W        W 4507   0.253  22.997   3.243
40784W        W 4508  43.398  38.363   0.827
40785W        W 4509   1.320  37.073  13.378
40786W        W 4510  34.890  43.987  14.406
40787W        W 4511   9.201  11.284   0.313
40788W        W 4512  44.263  10.870  14.512
40789W        W 4513  34.098  25.205  12.339
40790W        W 4514  20.761  20.063   2.249
40791W        W 4515   6.770   0.442  10.931
40792W        W 4516  40.423  27.556  10.946
40793W        W 4517  39.065  25.201   2.270
40794W        W 4518  34.012  29.582  10.587
40795W        W 4519  22.691  26.098   1.821
40796W        W 4520  14.115  19.737   0.463
40797W        W 4521  25.000  30.566  13.984
40798W        W 4522  18.591   2.821   4.777
40799W        W 4523   7.746  13.825   3.155
40800W        W 4524   8.893  10.644  13.496
40801W        W 4525  17.196  12.726   2.858
40802W        W 4526  38.562  22.607   3.183
40803W        W 4527   2.465  10.355  13.038
40804W        W 4528  12.664  31.147   2.675
40805W        W 4529   7.760  21.159   1.440
40806W        W 4530   2.444  36.965   3.331
40807W        W 4531  40.831  18.755  14.480
40808W        W 4532  22.107   0.978   4.793
40809W        W 4533   6.763  29.090   1.909
40810W        W 4534  36.980  19.563  10.640
40811W        W 4535  24.711  30.416   3.361
40812W        W 4536  44.981  33.386  14.782
40813W        W 4537  15.232   3.943   4.778
40814W        W 4538   3.440   9.886   1.387
40815W        W 4539  12.134  25.612   4.773
40816W        W 4540  23.654  13.668   1.814
40817W        W 4541  32.523  32.117   3.763
40818W        W 4542  18.178  15.781   2.398
40819W        W 4543  41.970  39.947   2.386
40820W        W 4544  21.674  35.557   0.395
40821W        W 4545  35.538  15.163   5.290
40822W        W 4546  27.067  19.106   2.693
40823W        W 4547  44.890  35.530  13.507
40824W        W 4548  16.781  33.019  14.005
40825W        W 4549  41.367  21.553  10.580
40826W        W 4550  44.830   7.239  11.436
40827W        W 4551   8.332  39.954   1.333
40828W        W 4552  29.083  17.608   1.265
40829W        W 4553  19.662  10.867   1.822
40830W        W 4554  10.152  40.510   1.261
40831W        W 4555  31.471  38.413   2.268
40832W        W 4556   7.414  24.990  13.468
40833W        W 4557  43.388  27.004  14.964
40834W        W 4558  27.455  10.865   1.319
40835W        W 4559  20.758  29.101  11.592
40836W        W 4560  42.328  20.592   0.730
40837W        W 4561  36.556  25.701   2.748
40838W        W 4562   2.263  44.907   4.796
40839W        W 4563  35.477  34.073  14.393
40840W        W 4564   7.171  35.557   3.231
40841W        W 4565   7.878  28.519   1.825
40842W        W 4566  26.525  32.114   1.775
40843W        W 4567  16.121  12.741  11.996
40844W        W 4568   2.399  18.561  12.056
40845W        W 4569  35.897   6.274   1.338
40846W        W 4570  33.003  31.636   3.260
40847W        W 4571  25.485  27.523   3.756
40848W        W 4572   7.673  10.270  10.080
40849W        W 4573   2.390  30.470   3.196
40850W        W 4574  32.011  25.185   4.705
40851W        W 4575  10.841  13.265   1.429
40852W        W 4576   4.830   1.943   1.819
40853W        W 4577  24.024   3.416  13.829
40854W        W 4578  13.731  44.967  13.803
40855W        W 4579   1.341   5.896   0.966
40856W        W 4580  42.903  14.189   4.710
40857W        W 4581  12.187  23.175  13.046
40858W        W 4582  37.915  28.962   2.825
40859W        W 4583  22.657  16.597   2.850
40860W        W 4584  16.712  38.332  14.315
40861W        W 4585  18.708   4.773  10.922
40862W        W 4586  24.016  32.523   5.184
40863W        W 4587  10.799  35.516   1.823
40864W        W 4588  23.161  39.449  14.407
40865W        W 4589  10.291  17.244   2.685
40866W        W 4590   0.377  33.978   3.634
40867W        W 4591  15.771  13.297  13.873
40868W        W 4592  22.590  43.427  14.410
40869W        W 4593  37.451  34.454   3.865
40870W        W 4594  34.522  37.500  12.041
40871W        W 4595  30.459  27.130  13.459
40872W        W 4596  13.787  33.095  10.513
40873W        W 4597  43.880   1.449  12.363
40874W        W 4598   5.197   0.843   4.291
40875W        W 4599  43.502  37.444  10.637
40876W        W 4600  42.909  43.404   5.662
40877W        W 4601  43.373   6.876  14.501
40878W        W 4602  22.704  14.320   9.945
40879W        W 4603  19.596  20.577   4.785
40880W        W 4604  39.504   3.439  13.975
40881W        W 4605  37.060  15.252  12.444
40882W        W 4606  33.036  29.441  14.942
40883W        W 4607   8.654  32.136   4.151
40884W        W 4608   0.784  33.515   0.814
40885W        W 4609   2.729   1.451  12.827
40886W        W 4610   4.843  40.805  11.451
40887W        W 4611  13.602   6.244  14.807
40888W        W 4612   0.972  23.038  12.043
40889W        W 4613   2.758   0.443  12.990
40890W        W 4614  26.687  36.989  10.502
40891W        W 4615  37.924  35.548  11.973
40892W        W 4616   2.885  35.391   2.350
40893W        W 4617  36.016   3.865  13.464
40894W        W 4618  39.817  31.118   2.335
40895W        W 4619   7.860  30.929   0.330
40896W        W 4620  15.304  15.128  14.941
40897W        W 4621  17.722  40.408   2.736
40898W        W 4622  26.469  30.489  12.428
40899W        W 4623  22.188  17.682  12.829
40900W        W 4624  38.947  23.501  12.425
40901W        W 4625  17.267  21.572  11.028
40902W        W 4626  12.205  21.085  14.804
40903W        W 4627  27.976   0.814   3.362
40904W        W 4628  24.061  36.885  10.526
40905W        W 4629  22.623   2.868   3.169
40906W        W 4630   7.745  35.904  10.494
40907W        W 4631  24.113  36.078   3.653
40908W        W 4632  44.815  38.984  13.909
40909W        W 4633  20.205  41.499  13.544
40910W        W 4634  40.315   5.356   0.388
40911W        W 4635  17.626  13.185  14.350
40912W        W 4636   2.433   3.833  10.895
40913W        W 4637  23.680  38.930  12.888
40914W        W 4638  10.875  16.607   3.313
40915W        W 4639  36.900  44.307   0.906
40916W        W 4640  21.253   2.873  12.549
40917W        W 4641  28.979  17.279   4.806
40918W        W 4642  33.581  29.014  13.028
40919W        W 4643  43.949  25.080  14.910
40920W        W 4644  23.590   3.920   3.337
40921W        W 4645  11.332  22.119  10.889
40922W        W 4646   9.812  16.567   4.777
40923W        W 4647  15.701  32.398   2.736
40924W        W 4648  17.655  15.673   3.326
40925W        W 4649  32.057  31.613  12.925
40926W        W 4650  20.181  38.345   4.297
40927W        W 4651  26.615  41.842  13.031
40928W        W 4652  10.635  39.458  10.993
40929W        W 4653  15.262  23.015   3.655
40930W        W 4654  12.616  12.642   2.349
40931W        W 4655   5.769  10.305   0.266
40932W        W 4656   8.244   8.848   2.254
40933W        W 4657  38.554  25.512  13.877
40934W        W 4658   5.213  13.167  10.956
40935W        W 4659  33.081  24.997   1.232
40936W        W 4660  42.897  22.220   3.318
40937W        W 4661  28.005  18.609   5.202
40938W        W 4662   1.288  19.545   1.891
40939W        W 4663  17.611   4.844   3.385
40940W        W 4664  22.725  15.791   4.167
40941W        W 4665  39.350  37.537  13.838
40942W        W 4666  13.226  38.893   3.856
40943W        W 4667   5.844  43.406   3.170
40944W        W 4668  17.279  35.064  13.906
40945W        W 4669  10.702  40.993   4.164
40946W        W 4670  41.358   1.345   0.879
40947W        W 4671   3.770  14.724   1.276
40948W        W 4672  31.481  18.273   1.301
40949W        W 4673   5.931  14.334   4.810
40950W        W 4674   4.783  24.659   5.293
40951W        W 4675   4.784  40.377   2.348
40952W        W 4676  34.990  21.209   5.222
40953W        W 4677   4.808  30.944   3.846
40954W        W 4678  15.152  37.074  13.007
40955W        W 4679  42.932  40.040   3.787
40956W        W 4680  44.295  17.631   3.373
40957W        W 4681   6.713  31.975  14.784
40958W        W 4682   4.833   1.477   0.444
40959W        W 4683  29.487  12.699   0.318
40960W        W 4684  35.866   5.364  14.402
40961W        W 4685  12.182  14.731   4.285
40962W        W 4686  36.556  31.007   4.347
40963W        W 4687  34.964  39.480  10.642
40964W        W 4688  35.949  44.008   1.366
40965W        W 4689  34.452  24.166  12.957
40966W        W 4690  10.327   2.250   2.407
40967W        W 4691  11.162  29.427  13.420
40968W        W 4692  19.540  20.525  11.038
40969W        W 4693   8.788  29.100   0.881
40970W        W 4694  26.153  32.957  13.371
40971W        W 4695  35.412  31.105  14.784
40972W        W 4696  39.507  23.518  13.016
40973W        W 4697  38.826   4.261  11.416
40974W        W 4698  24.061  42.478   2.836
40975W        W 4699  29.595   8.655  10.416
40976W        W 4700  22.673  24.021   0.388
40977W        W 4701  44.812  27.180   0.830
40978W        W 4702  25.711  21.073  12.538
40979W        W 4703  10.239  12.276   0.330
40980W        W 4704  41.938  33.123  11.914
40981W        W 4705   0.906  27.620  14.426
40982W        W 4706  25.138  27.653  14.929
40983W        W 4707  34.091  43.949  11.902
40984W        W 4708  44.276  38.870   3.282
40985W        W 4709   6.198  23.132  13.984
40986W        W 4710   2.737  22.674  13.952
40987W        W 4711  38.506  24.498  10.446
40988W        W 4712  31.942  18.623   1.815
40989W        W 4713  40.429  38.893  12.002
40990W        W 4714  15.207  44.992  12.826
40991W        W 4715  43.020  36.455   3.350
40992W        W 4716  22.029  15.652   1.305
40993W        W 4717  37.863  38.032  12.388
40994W        W 4718  41.006  36.092   2.235
40995W        W 4719   0.265  27.001  12.992
40996W        W 4720   7.201  42.905  13.545
40997W        W 4721  23.119   3.782   3.333
40998W        W 4722   8.286  33.576   1.785
40999W        W 4723  39.892   5.690  12.896
41000W        W 4724  23.722   4.258   0.394
41001W        W 4725  44.437  41.459   2.716
41002W        W 4726  22.533  31.080  12.353
41003W        W 4727  43.008  20.155  14.806
41004W        W 4728  23.672  40.051  11.397
41005W        W 4729   7.316  28.621  11.997
41006W        W 4730   5.926  25.110   5.173
41007W        W 4731  17.610  41.828   0.863
41008W        W 4732  39.342  39.891  12.966
41009W        W 4733   6.225  13.340  13.543
41010W        W 4734  13.161   3.856  11.120
41011W        W 4735   8.169   4.447   4.316
41012W        W 4736   9.157  39.022   1.276
41013W        W 4737   3.777  20.567  14.447
41014W        W 4738  31.513  12.218   2.782
41015W        W 4739  16.605  27.666   2.666
41016W        W 4740   6.259  25.511   0.321
41017W        W 4741  26.684   7.871  11.509
41018W        W 4742  37.534  43.332   4.219
41019W        W 4743   5.286  21.525  11.864
41020W        W 4744  38.529  44.946  11.492
41021W        W 4745  26.621  29.934   4.652
41022W        W 4746   8.819  40.050  14.400
41023W        W 4747  44.373  29.159   4.180
41024W        W 4748  29.932  37.843  13.854
41025W        W 4749   9.675  35.014   0.300
41026W        W 4750  22.704  39.420   3.861
41027W        W 4751  41.462  20.050  11.450
41028W        W 4752  21.248   7.712  10.522
41029W        W 4753  44.888  17.172   1.210
41030W        W 4754  21.172  18.165  13.968
41031W        W 4755  41.879  12.731  11.438
41032W        W 4756  25.119  14.197   2.856
41033W        W 4757  28.930  43.290  11.554
41034W        W 4758   3.888  25.494   4.181
41035W        W 4759  34.487  22.537  14.784
41036W        W 4760  43.450   3.722   4.203
41037W        W 4761  26.677  34.072   2.730
41038W        W 4762   0.298   1.943   1.302
41039W        W 4763  35.038   9.242   0.308
41040W        W 4764  31.492   9.779   3.261
41041W        W 4765  13.215  41.997  10.989
41042W        W 4766  43.478  30.486  13.829
41043W        W 4767  15.707  38.329  11.054
41044W        W 4768   6.295   4.383  12.929
41045W        W 4769  39.510  25.211   4.632
41046W        W 4770  14.694  37.377  11.585
41047W        W 4771  17.214  23.720  13.008
41048W        W 4772  33.513  26.022  10.907
41049W        W 4773  35.576  24.230   3.724
41050W        W 4774  30.034  11.131  10.410
41051W        W 4775  40.458  18.152   0.918
41052W        W 4776  24.982   9.774  11.416
41053W        W 4777  16.698   5.784   1.762
41054W        W 4778  33.625  20.254   0.388
41055W        W 4779  40.995   1.904  14.452
41056W        W 4780  26.507  22.216  11.448
41057W        W 4781  25.578   7.837  11.461
41058W        W 4782  38.500  37.569  10.897
41059W        W 4783  13.743  29.553  13.415
41060W        W 4784   6.303  29.513  13.457
41061W        W 4785   8.363  27.029   2.388
41062W        W 4786  35.506  22.669  12.850
41063W        W 4787  12.850   3.831   4.802
41064W        W 4788  15.707  19.277   2.707
41065W        W 4789  20.218   5.360  11.855
41066W        W 4790  23.692  14.650   2.189
41067W        W 4791  18.069  28.591  12.390
41068W        W 4792   4.424  38.333  13.042
41069W        W 4793  32.593  36.984  10.513
41070W        W 4794  11.776   2.857   1.378
41071W        W 4795  40.469  34.546   4.656
41072W        W 4796  28.527  40.543   2.879
41073W        W 4797  38.928  32.421   2.894
41074W        W 4798  28.554  34.433  12.513
41075W        W 4799  11.172  31.058  11.983
41076W        W 4800  21.065   5.420  14.014
41077W        W 4801  21.594  39.525  14.872
41078W        W 4802   8.310  41.340  13.992
41079W        W 4803  43.849  41.527  10.406
41080W        W 4804  41.334  14.106  12.372
41081W        W 4805   2.383  25.117   2.349
41082W        W 4806   3.714   8.676   0.860
41083W        W 4807   4.307  44.894  12.909
41084W        W 4808   0.987   8.837   2.197
41085W        W 4809   9.720  13.228   2.762
41086W        W 4810  12.690   3.220  14.794
41087W        W 4811   3.767  32.559   2.280
41088W        W 4812  13.638   0.454   3.238
41089W        W 4813  43.815  28.069  11.973
41090W        W 4814  12.247   2.863   4.598
41091W        W 4815  15.171  38.821  12.968
41092W        W 4816  38.843  27.455  10.532
41093W        W 4817  43.913  32.554  12.944
41094W        W 4818  21.119   5.823  11.572
41095W        W 4819  34.021  18.630   4.224
41096W        W 4820  16.179  23.695  14.866
41097W        W 4821  16.574  16.579  10.082
41098W        W 4822  17.670  37.086   4.241
41099W        W 4823  41.534  43.885   2.890
41100W        W 4824  28.009  13.237  13.313
41101W        W 4825   3.857  27.518   0.837
41102W        W 4826   6.290   7.907  14.997
41103W        W 4827  18.771  39.354   4.714
41104W        W 4828   8.748  31.496   2.319
41105W        W 4829  40.925  19.261  13.820
41106W        W 4830  30.424  39.356   2.845
41107W        W 4831  22.995   6.780  12.360
41108W        W 4832  22.631  11.343   1.303
41109W        W 4833   3.893  18.755  13.432
41110W        W 4834  36.562  32.615  13.902
41111W        W 4835  18.634  39.986  14.008
41112W        W 4836  22.526  10.635  10.570
41113W        W 4837  28.478   9.736  14.488
41114W        W 4838  16.218  18.249   2.264
41115W        W 4839  31.039  26.968   2.284
41116W        W 4840  21.218  37.515   4.801
41117W        W 4841  37.577  24.544   0.779
41118W        W 4842  14.216  36.425  10.560
41119W        W 4843  16.268  25.101   4.319
41120W        W 4844  38.011  28.017  13.383
41121W        W 4845  44.909  10.795  11.865
41122W        W 4846  30.522   1.280   1.834
41123W        W 4847  21.558  40.512   2.256
41124W        W 4848  42.412  32.582  14.997
41125W        W 4849  28.049  30.122   3.762
41126W        W 4850  32.404  31.515   2.895
41127W        W 4851  41.013   3.872   4.656
41128W        W 4852  30.646  35.457   2.210
41129W        W 4853  41.905  15.721  10.524
41130W        W 4854   6.270   3.271  10.027
41131W        W 4855  23.686  31.138   1.864
41132W        W 4856  30.051  24.088   0.305
41133W        W 4857  40.319   8.859  12.534
41134W        W 4858  41.442  19.769  12.532
41135W        W 4859  32.967  40.873   1.339
41136W        W 4860  29.505  27.465  13.804
41137W        W 4861  43.501  26.610   4.824
41138W        W 4862  13.667   0.832   4.146
41139W        W 4863  22.136   3.357  11.048
41140W        W 4864  14.695  10.183  12.946
41141W        W 4865   6.702  10.773  14.867
41142W        W 4866  10.645  25.563   3.346
41143W        W 4867  19.042  42.800   3.264
41144W        W 4868  13.314  26.990   0.963
41145W        W 4869  41.996  18.090   1.700
41146W        W 4870  20.615  15.808   2.234
41147W        W 4871  10.871  19.064   0.903
41148W        W 4872  22.659  41.792   1.268
41149W        W 4873  23.032   5.867  13.509
41150W        W 4874  17.120  42.518   4.276
41151W        W 4875  20.723  18.743  11.580
41152W        W 4876  34.048  24.040   1.858
41153W        W 4877   6.187   1.289   2.243
41154W        W 4878  40.888   0.921  10.132
41155W        W 4879  22.125  34.485  12.949
41156W        W 4880   6.417   9.302   2.727
41157W        W 4881  19.649  41.875  13.315
41158W        W 4882  42.350  14.309   2.354
41159W        W 4883  25.631  34.068   2.785
41160W        W 4884  13.738   6.801  12.036
41161W        W 4885  20.175   6.705   0.839
41162W        W 4886  43.442  25.642   1.407
41163W        W 4887  35.421  12.170  14.845
41164W        W 4888  18.142  26.142   1.387
41165W        W 4889  37.865  36.564  11.456
41166W        W 4890  11.733   1.888   5.242
41167W        W 4891  14.198  19.582  12.397
41168W        W 4892  25.166  30.135   1.778
41169W        W 4893  28.948   6.389  13.868
41170W        W 4894  18.755  14.618   0.883
41171W        W 4895  24.541  42.410  13.390
41172W        W 4896  43.838  34.948   3.736
41173W        W 4897  10.869  22.114  11.041
41174W        W 4898  29.470  26.671   3.289
41175W        W 4899  40.393   7.230  12.533
41176W        W 4900  35.997  22.133   1.856
41177W        W 4901   3.444  20.619  11.446
41178W        W 4902  31.994  35.599   3.760
41179W        W 4903   9.836  17.630  11.979
41180W        W 4904  19.734   8.765   3.281
41181W        W 4905  35.001  18.266   2.193
41182W        W 4906  11.802  35.026   4.168
41183W        W 4907  35.580  15.114  10.151
41184W        W 4908  25.128  10.661  14.356
41185W        W 4909  16.133  41.502  14.497
41186W        W 4910   8.783  39.439   4.823
41187W        W 4911  32.632  42.517  10.962
41188W        W 4912  38.839  27.610   0.465
41189W        W 4913  39.917   6.744  14.390
41190W        W 4914  15.662  10.781   0.277
41191W        W 4915  22.115   6.236  13.538
41192W        W 4916  16.771  39.397  14.905
41193W        W 4917  32.054   3.857  14.414
41194W        W 4918  16.156  36.052  10.429
41195W        W 4919  10.312   5.737   3.860
41196W        W 4920   5.824  10.658   1.424
41197W        W 4921  11.250  31.114  10.426
41198W        W 4922  12.851   4.398  14.813
41199W        W 4923  19.752  30.066  13.411
41200W        W 4924  26.007  44.379   3.344
41201W        W 4925   2.730  14.617   2.247
41202W        W 4926  27.566  37.370  14.349
41203W        W 4927  35.058  16.692   1.806
41204W        W 4928  10.179  29.546  12.553
41205W        W 4929  23.027  14.735  12.933
41206W        W 4930  39.550   2.231  11.011
41207W        W 4931  22.567  39.848  12.472
41208W        W 4932  25.585   1.754  11.059
41209W        W 4933  38.936  24.053   2.848
41210W        W 4934  14.601  17.741   2.234
41211W        W 4935  36.452   0.375   4.691
41212W        W 4936  33.596   4.701   1.222
41213W        W 4937  21.246  16.223   4.192
41214W        W 4938  31.499  36.924   3.376
41215W        W 4939  19.282  21.148  11.552
41216W        W 4940  31.012  44.416  11.914
41217W        W 4941  15.160  17.742   4.679
41218W        W 4942  34.898   2.419   4.335
41219W        W 4943  36.511  17.595  11.555
41220W        W 4944   1.818  34.456  11.049
41221W        W 4945  28.552  17.098   1.885
41222W        W 4946  27.104  15.245   4.195
41223W        W 4947  43.324  29.953  10.967
41224W        W 4948  17.791  24.532  11.571
41225W        W 4949   8.364   8.350  12.477
41226W        W 4950  29.651  36.947  14.968
41227W        W 4951  17.604  37.897  11.876
41228W        W 4952   4.430  22.150  13.833
41229W        W 4953   5.260  21.713   0.397
41230W        W 4954  24.479  34.525   0.957
41231W        W 4955  28.538  40.405   4.790
41232W        W 4956  26.651   7.382  13.837
41233W        W 4957  23.150  22.586   4.154
41234W        W 4958  41.927  29.615   1.406
41235W        W 4959  33.437  35.457  13.410
41236W        W 4960  17.170  16.683   1.285
41237W        W 4961  23.108  17.152  14.374
41238W        W 4962  28.053  37.346  14.404
41239W        W 4963   2.275  11.835   4.747
41240W        W 4964  43.423  37.033   2.417
41241W        W 4965  10.234  13.770   1.298
41242W        W 4966   5.691  42.355  13.541
41243W        W 4967  15.809  32.467   4.699
41244W        W 4968  27.982  30.028  14.972
41245W        W 4969  24.506  12.765   2.665
41246W        W 4970  12.713  34.113  12.549
41247W        W 4971  11.715  37.912  12.075
41248W        W 4972  43.997  26.662  13.381
41249W        W 4973  26.571  23.208  14.992
41250W        W 4974  22.740  31.464   3.146
41251W        W 4975  37.931  40.430   2.836
41252W        W 4976  37.856  15.738   2.776
41253W        W 4977   7.381  44.847   0.367
41254W        W 4978  43.333   4.776   1.262
41255W        W 4979  22.510   5.223  11.419
41256W        W 4980  38.834  23.708   0.374
41257W        W 4981   6.323   2.364   0.379
41258W        W 4982   0.404  20.527  14.898
41259W        W 4983   3.911  34.595  13.412
41260W        W 4984  36.936  41.321  11.601
41261W        W 4985  12.783  12.172   4.716
41262W        W 4986  24.572   5.785   4.260
41263W        W 4987  40.337  32.486  12.439
41264W        W 4988  24.138  41.945   4.125
41265W        W 4989  30.581   2.872  13.827
41266W        W 4990   9.240  40.026  11.956
41267W        W 4991   2.438  13.117  13.050
41268W        W 4992   9.203  37.915   4.345
41269W        W 4993  13.110  11.254   2.307
41270W        W 4994  40.384  42.860   1.334
41271W        W 4995  22.707  40.802   2.667
41272W        W 4996  14.225   7.716  14.427
41273W        W 4997  24.230  27.553   4.626
41274W        W 4998  42.970  22.723   0.348
41275W        W 4999  19.286  24.161   1.285
41276W        W 5000  43.903  18.790  12.564
41277W        W 5001  24.522   7.679  12.901
41278W        W 5002  33.575  26.607  12.041
41279W        W 5003  20.146   6.857  12.557
41280W        W 5004   2.293   8.226  12.446
41281W        W 5005  23.096  35.559  13.418
41282W        W 5006  13.149  16.746  14.946
41283W        W 5007   2.828  35.907   2.696
41284W        W 5008  34.058  39.383  10.523
41285W        W 5009   7.865  31.086   4.786
41286W        W 5010  41.879  27.174   0.332
41287W        W 5011   5.873   1.411  12.995
41288W        W 5012  10.645  12.718  13.497
41289W        W 5013  21.641  19.108  12.891
41290W        W 5014  21.524  11.359   4.767
41291W        W 5015   0.841  42.898   3.860
41292W        W 5016  16.569  37.981   1.382
41293W        W 5017  38.073  41.948  10.594
41294W        W 5018  27.600  41.937  12.483
41295W        W 5019  23.602  44.762  14.964
41296W        W 5020  15.276  11.645   2.318
41297W        W 5021   8.364  11.331   1.846
41298W        W 5022  30.139   8.891  14.848
41299W        W 5023  41.807  26.653  12.016
41300W        W 5024  27.655   9.786   1.355
41301W        W 5025  31.403  38.973   2.361
41302W        W 5026  13.331  32.452  14.976
41303W        W 5027  24.064  30.056   4.698
41304W        W 5028   0.916   4.404   1.777
41305W        W 5029  16.215  20.162  13.965
41306W        W 5030  16.633   8.772  14.508
41307W        W 5031  14.662  30.532  10.965
41308W        W 5032   8.255  32.998  13.057
41309W        W 5033  17.572   0.460  13.967
41310W        W 5034   2.722  41.494  14.302
41311W        W 5035  30.445  19.197   1.349
41312W        W 5036  11.826  28.555   4.816
41313W        W 5037   8.790   0.919   4.321
41314W        W 5038  11.847  24.161  11.539
41315W        W 5039  43.334  14.212  13.039
41316W        W 5040   1.266  34.511   0.251
41317W        W 5041   1.419  42.933  11.487
41318W        W 5042  39.871  21.708  14.473
41319W        W 5043  29.623   5.709   0.470
41320W        W 5044  10.266  22.697  14.946
41321W        W 5045  44.982   3.350   3.685
41322W        W 5046  35.076  22.736   4.758
41323W        W 5047  23.512  22.629   3.757
41324W        W 5048   7.200  35.560  10.998
41325W        W 5049  39.405  20.586  11.080
41326W        W 5050  20.541  21.042  13.947
41327W        W 5051   1.298   0.321   1.335
41328W        W 5052  21.051  22.617  14.433
41329W        W 5053  32.006  24.580   4.684
41330W        W 5054  44.282  11.232   0.470
41331W        W 5055   8.802   5.375   0.408
41332W        W 5056  15.126  31.569  11.922
41333W        W 5057  32.111  37.506  12.364
41334W        W 5058  34.058   6.337   3.743
41335W        W 5059  44.832  32.961  11.565
41336W        W 5060  12.267  10.219  12.067
41337W        W 5061  28.942  13.149  13.934
41338W        W 5062  31.921   8.266   2.201
41339W        W 5063  41.861  44.810  13.523
41340W        W 5064   1.786  15.084  14.399
41341W        W 5065  35.466  34.536  11.060
41342W        W 5066  27.085   7.848   1.705
41343W        W 5067  19.200  22.138  12.967
41344W        W 5068   0.770  34.582  12.893
41345W        W 5069  41.442  41.436  11.055
41346W        W 5070  21.070  17.121   4.333
41347W        W 5071  19.205  26.701  14.927
41348W        W 5072  18.565  12.283  13.433
41349W        W 5073   0.927  18.202  10.890
41350W        W 5074   5.831  17.257  11.877
41351W        W 5075  43.356   1.795  13.439
41352W        W 5076  40.836  31.124   1.421
41353W        W 5077   4.386  36.592  12.017
41354W        W 5078  25.155  10.214   0.393
41355W        W 5079  33.932   8.310  13.013
41356W        W 5080  16.670  26.548  11.869
41357W        W 5081   7.343  22.644  12.381
41358W        W 5082  20.692  15.760  11.058
41359W        W 5083  21.555  16.221  11.953
41360W        W 5084  40.965   6.877  13.419
41361W        W 5085  13.112  20.272   3.234
41362W        W 5086  33.530  21.068  14.030
41363W        W 5087  13.306  19.638   2.903
41364W        W 5088  34.021   0.847  14.932
41365W        W 5089  22.704  12.776  14.904
41366W        W 5090  21.263  12.633   4.838
41367W        W 5091   0.259   1.949   2.369
41368W        W 5092  26.692  31.113   5.111
41369W        W 5093  34.954  26.486   5.258
41370W        W 5094  13.211   6.849  11.538
41371W        W 5095  31.124  15.754   5.109
41372W        W 5096  38.395   4.275   2.805
41373W        W 5097  31.040  42.382  11.439
41374W        W 5098   0.425  12.115  13.931
41375W        W 5099  42.339   5.719   2.323
41376W        W 5100  28.539  13.254  12.073
41377W        W 5101  15.721  22.220   9.948
41378W        W 5102  12.126   0.978  13.458
41379W        W 5103  38.893  11.631   3.759
41380W        W 5104   7.335  34.432  14.509
41381W        W 5105   4.757  44.488   2.318
41382W        W 5106  14.590   3.252   2.823
41383W        W 5107  11.861   0.378  13.339
41384W        W 5108  42.847  42.847   2.362
41385W        W 5109  29.493  22.687  14.765
41386W        W 5110  28.982  35.378  13.044
41387W        W 5111   1.742   8.230   4.276
41388W        W 5112  25.093  18.191   2.273
41389W        W 5113  14.739  27.607   1.330
41390W        W 5114  26.589  17.733   3.220
41391W        W 5115  14.289  32.944   2.188
41392W        W 5116   1.887  20.161   1.360
41393W        W 5117   8.191  13.779  14.789
41394W        W 5118  20.167  42.807  14.920
41395W        W 5119   1.829  25.087  14.493
41396W        W 5120  16.573  44.353  12.968
41397W        W 5121  35.459  11.780   4.610
41398W        W 5122  31.930   9.810  12.085
41399W        W 5123   9.764  17.221  14.373
41400W        W 5124  42.377  29.026  12.037
41401W        W 5125  29.115  19.080   4.285
41402W        W 5126   9.732  38.405   1.402
41403W        W 5127  43.418  12.224  13.917
41404W        W 5128  29.483  18.189  12.564
41405W        W 5129  37.025   9.154  13.360
41406W        W 5130  34.017  43.868   0.874
41407W        W 5131  24.172  19.259   1.234
41408W        W 5132  20.745   6.835   0.816
41409W        W 5133   5.771  28.934  11.102
41410W        W 5134  12.847  12.146  13.957
41411W        W 5135  11.302  15.587  11.905
41412W        W 5136  44.937  19.568   2.885
41413W        W 5137   8.733  17.286   1.418
41414W        W 5138   4.743  13.805   1.794
41415W        W 5139  29.924  27.179  14.848
41416W        W 5140  41.817  42.444  14.812
41417W        W 5141   8.405  24.523   2.663
41418W        W 5142  24.680  43.514   3.806
41419W        W 5143  27.138  43.001  12.503
41420W        W 5144  30.508  40.944  10.418
41421W        W 5145  44.362  12.351  12.922
41422W        W 5146  18.783  11.668  14.381
41423W        W 5147  43.311  41.460  11.913
41424W        W 5148   2.446   0.787  13.064
41425W        W 5149   0.848  27.088   2.735
41426W        W 5150  29.618  31.010  14.415
41427W        W 5151  10.335  36.428   1.843
41428W        W 5152   5.867  37.067  11.885
41429W        W 5153  43.455  38.501  13.868
41430W        W 5154  25.058  32.142   0.818
41431W        W 5155  25.172   6.420  10.603
41432W        W 5156  21.118  22.250  12.509
41433W        W 5157   9.247   7.338   2.703
41434W        W 5158  34.876  11.318  14.514
41435W        W 5159   9.323  44.429   1.755
41436W        W 5160  32.410  30.503   2.265
41437W        W 5161   6.761   7.348  13.882
41438W        W 5162  39.525  36.406   0.242
41439W        W 5163   2.821  41.331   0.831
41440W        W 5164  17.203   2.831  14.796
41441W        W 5165   3.391   0.894  11.098
41442W        W 5166  20.151  35.358   0.778
41443W        W 5167  10.337  15.747  11.063
41444W        W 5168  17.230  33.419   4.803
41445W        W 5169  10.777  27.513  10.551
41446W        W 5170  29.471  20.571  11.520
41447W        W 5171  15.675  20.627   0.414
41448W        W 5172   6.724   3.770   0.832
41449W        W 5173  27.995  34.603   3.374
41450W        W 5174  33.471  38.024   0.269
41451W        W 5175   1.747  39.372  13.499
41452W        W 5176  28.517   6.739   3.207
41453W        W 5177   1.370  43.372   4.322
41454W        W 5178  38.010   7.226   1.256
41455W        W 5179  12.775   0.866   3.849
41456W        W 5180  30.025   8.822  13.355
41457W        W 5181  29.054  31.556  14.383
41458W        W 5182   5.320  24.026  14.894
41459W        W 5183  26.173  23.113   1.810
41460W        W 5184  43.362  29.552   3.182
41461W        W 5185   5.304  13.161   2.343
41462W        W 5186  18.190  37.565   0.452
41463W        W 5187   3.710   4.762   0.744
41464W        W 5188  41.948  35.402   3.832
41465W        W 5189  37.995   3.337  14.889
41466W        W 5190   8.686  21.514  10.594
41467W        W 5191   4.932  14.790  10.929
41468W        W 5192  13.796  33.487   1.288
41469W        W 5193  39.944  19.619  10.908
41470W        W 5194   9.346  20.220   0.965
41471W        W 5195  22.572   5.223  13.978
41472W        W 5196  35.428  36.981  10.533
41473W        W 5197  23.560   6.837   4.820
41474W        W 5198  14.183   1.256   0.920
41475W        W 5199  17.656   8.662   2.899
41476W        W 5200  27.159  36.418  11.460
41477W        W 5201  36.402   5.223  12.958
41478W        W 5202  33.898  17.779  12.434
41479W        W 5203  38.018  26.668   2.298
41480W        W 5204  44.863  31.546  14.867
41481W        W 5205  42.449  14.600   0.328
41482W        W 5206  44.360  37.011   3.237
41483W        W 5207   6.812   1.865   4.277
41484W        W 5208   8.833  44.459   3.701
41485W        W 5209  40.821  35.587  12.460
41486W        W 5210  41.030  16.772  14.789
41487W        W 5211   2.259  41.366   2.771
41488W        W 5212  15.305  29.144  13.800
41489W        W 5213  33.090  21.236  12.562
41490W        W 5214  34.413   2.882  10.916
41491W        W 5215  34.914  13.110   1.326
41492W        W 5216   7.773   6.421   2.236
41493W        W 5217  19.177  15.778  11.410
41494W        W 5218  33.428  23.056   3.834
41495W        W 5219  21.063   0.777  12.833
41496W        W 5220  40.011  11.837   3.794
41497W        W 5221  29.008  22.163   2.273
41498W        W 5222  10.321   3.840   2.304
41499W        W 5223  27.168  18.759  13.457
41500W        W 5224  39.463  31.989   2.298
41501W        W 5225  10.815  40.366  11.476
41502W        W 5226  40.867  22.171   9.603
41503W        W 5227  31.122  41.837   3.331
41504W        W 5228   3.217   1.254   0.473
41505W        W 5229  14.627  17.757   4.647
41506W        W 5230  33.935  27.056   4.695
41507W        W 5231  22.189   4.441   4.728
41508W        W 5232  37.023  35.559  12.420
41509W        W 5233   9.295  19.623  11.932
41510W        W 5234  10.292  34.972  13.444
41511W        W 5235   6.801  23.032   3.853
41512W        W 5236  32.499   2.341  13.958
41513W        W 5237  25.626  21.705  12.580
41514W        W 5238  36.506  39.355   1.908
41515W        W 5239   2.771  37.526   1.880
41516W        W 5240  32.546  43.988   3.779
41517W        W 5241  35.982  37.977  14.027
41518W        W 5242  24.668   8.732   0.286
41519W        W 5243   9.743  21.660   4.118
41520W        W 5244  27.118  22.554  13.327
41521W        W 5245  29.080  37.039   2.849
41522W        W 5246   6.880   8.795  11.414
41523W        W 5247  12.697  15.246   3.720
41524W        W 5248  27.021   0.345   1.868
41525W        W 5249  44.338  38.909  14.857
41526W        W 5250   6.259   1.822  13.471
41527W        W 5251  40.858  40.440  14.333
41528W        W 5252  44.787  11.236  12.401
41529W        W 5253  31.414  34.072   3.188
41530W        W 5254   6.304   7.247  10.151
41531W        W 5255  31.613  35.987   1.831
41532W        W 5256  10.874   9.352  10.977
41533W        W 5257  14.657  37.845   1.775
41534W        W 5258  27.455  16.128  11.935
41535W        W 5259  38.355   3.372   2.300
41536W        W 5260  30.121  23.539   3.868
41537W        W 5261  40.362   9.386  10.487
41538W        W 5262   3.421  41.029   0.293
41539W        W 5263  21.132   1.892   1.906
41540W        W 5264   0.265   3.272   2.733
41541W        W 5265  27.974  40.891  10.962
41542W        W 5266   2.881  42.410  12.512
41543W        W 5267  11.767  26.661  14.463
41544W        W 5268  35.550  44.281   4.332
41545W        W 5269  18.214  11.265   1.328
41546W        W 5270  22.588   9.773  11.412
41547W        W 5271   6.920   0.477   3.792
41548W        W 5272  38.860  27.563  11.490
41549W        W 5273   0.401  32.526  11.871
41550W        W 5274  41.337  36.581  13.328
41551W        W 5275  13.129   9.362  12.446
41552W        W 5276  24.131  17.564  14.896
41553W        W 5277  18.102  11.291   0.733
41554W        W 5278   3.824  42.351  10.576
41555W        W 5279   6.285   3.781  13.852
41556W        W 5280  36.844   5.347  10.901
41557W        W 5281  28.472  26.955  12.917
41558W        W 5282  25.137   7.850   4.212
41559W        W 5283  10.637  34.947  10.496
41560W        W 5284   9.823  26.032   1.251
41561W        W 5285   5.704  35.380  13.040
41562W        W 5286  18.579  28.503  12.914
41563W        W 5287   5.727  36.020  14.928
41564W        W 5288   9.665  36.090   0.334
41565W        W 5289   4.847  27.622  14.023
41566W        W 5290   3.251  10.812   4.795
41567W        W 5291  32.129   0.861  11.388
41568W        W 5292   7.829   7.358   1.421
41569W        W 5293  31.943  23.143  10.922
41570W        W 5294  14.606  21.062  10.155
41571W        W 5295  11.295  28.004   4.309
41572W        W 5296  41.451  10.673  12.923
41573W        W 5297  36.906  43.007  14.832
41574W        W 5298  26.037   3.434  12.451
41575W        W 5299   3.899  36.923   0.417
41576W        W 5300  39.850  41.325   5.662
41577W        W 5301  29.169   6.686   2.863
41578W        W 5302  26.966  44.880  14.495
41579W        W 5303  31.997  22.097   9.982
41580W        W 5304   9.250   7.861  14.401
41581W        W 5305  37.369   2.444   3.361
41582W        W 5306  13.636   1.777   4.249
41583W        W 5307  23.013  42.504   0.847
41584W        W 5308  30.638  18.295  15.000
41585W        W 5309   1.732  31.961   0.873
41586W        W 5310  30.962  30.655  10.514
41587W        W 5311  39.938  27.522  10.902
41588W        W 5312  44.499  10.702   4.623
41589W        W 5313  35.453  18.199  12.563
41590W        W 5314  39.945  38.333  12.549
41591W        W 5315   9.806  10.243  10.134
41592W        W 5316   3.360  15.699  14.454
41593W        W 5317  37.462  38.525  12.537
41594W        W 5318  12.211  15.295   3.761
41595W        W 5319   0.868  17.758   4.182
41596W        W 5320  18.687  18.080   0.951
41597W        W 5321  13.700  18.212  12.572
41598W        W 5322  14.835  43.779   0.482
41599W        W 5323   1.378  43.967  12.425
41600W        W 5324  18.703  35.585   0.852
41601W        W 5325  18.693  34.001  13.501
41602W        W 5326  26.069   2.836  12.385
41603W        W 5327  32.133  35.362   1.224
41604W        W 5328  22.252  40.332  13.825
41605W        W 5329   1.452   8.867  11.505
41606W        W 5330  32.526  38.928   4.196
41607W        W 5331  42.507  20.600  13.998
41608W        W 5332  34.587   5.875   0.914
41609W        W 5333  40.472  21.023   0.440
41610W        W 5334  13.276  30.950   1.323
41611W        W 5335  17.198  18.566  11.943
41612W        W 5336  35.872  32.020   4.733
41613W        W 5337  21.240  29.020   3.351
41614W        W 5338   9.287  17.779   2.835
41615W        W 5339   7.301  43.488   4.127
41616W        W 5340  36.484  36.873   0.963
41617W        W 5341   7.906  44.461   3.155
41618W        W 5342   6.373  15.659  11.591
41619W        W 5343  15.675  25.689  14.346
41620W        W 5344  39.856  17.087   0.303
41621W        W 5345  43.433  38.989  10.597
41622W        W 5346  20.242   8.373   2.378
41623W        W 5347  18.654  28.112  10.155
41624W        W 5348  19.232   7.260  11.941
41625W        W 5349  28.053  38.877  13.999
41626W        W 5350  12.699  17.286   2.248
41627W        W 5351  35.109  42.379   4.827
41628W        W 5352  38.436  23.056   0.951
41629W        W 5353  26.055   3.455  14.927
41630W        W 5354  14.662  12.787  12.944
41631W        W 5355  29.552  27.952   2.791
41632W        W 5356  40.879  11.647  13.843
41633W        W 5357   9.787  34.946  13.369
41634W        W 5358  30.155  15.109  13.493
41635W        W 5359  40.838   2.422  14.423
41636W        W 5360  25.043   0.947  10.961
41637W        W 5361  11.352   4.921  10.524
41638W        W 5362  22.212  21.693   1.881
41639W        W 5363  34.012  29.567  12.859
41640W        W 5364  28.595  25.570   1.818
41641W        W 5365   9.684   5.223   2.674
41642W        W 5366  12.277  12.766  14.279
41643W        W 5367  29.441   3.777   1.411
41644W        W 5368  28.111  40.827  12.060
41645W        W 5369  22.678  44.271   4.659
41646W        W 5370  14.234  18.749   2.232
41647W        W 5371  18.584  35.944   0.374
41648W        W 5372  26.953   5.353  14.297
41649W        W 5373  38.928  35.543   5.150
41650W        W 5374  24.019   3.903   1.712
41651W        W 5375   1.315  16.302   0.836
41652W        W 5376  13.627  27.663  12.464
41653W        W 5377   4.441   0.878  11.429
41654W        W 5378  24.993  29.556   3.678
41655W        W 5379  13.682  31.617  13.930
41656W        W 5380  27.512   2.328  10.896
41657W        W 5381   2.744   4.884   2.217
41658W        W 5382  35.018  43.458   1.336
41659W        W 5383  20.094  20.623   0.286
41660W        W 5384  22.639   3.810   0.823
41661W        W 5385  31.608  27.956   1.357
41662W        W 5386  37.947  36.553   4.674
41663W        W 5387  35.852  23.618   3.190
41664W        W 5388  36.513  27.466   1.353
41665W        W 5389  18.211  35.922  11.586
41666W        W 5390   6.774  17.102  14.373
41667W        W 5391  33.891  27.144   2.811
41668W        W 5392   7.725  26.049   0.935
41669W        W 5393  23.535  31.142  11.588
41670W        W 5394  27.467   2.446  12.449
41671W        W 5395  41.911   8.345  13.464
41672W        W 5396  40.448  25.067   2.742
41673W        W 5397  27.043  16.253   4.629
41674W        W 5398  43.419  28.635  11.094
41675W        W 5399  36.065  31.092  10.975
41676W        W 5400  27.973  26.551  12.932
41677W        W 5401  10.248  25.128   3.831
41678W        W 5402  15.706   2.387  13.950
41679W        W 5403  42.338  15.705  14.796
41680W        W 5404   0.983  21.738  12.544
41681W        W 5405  24.598   7.408  14.371
41682W        W 5406  44.865  27.524  10.993
41683W        W 5407  28.509   7.899   4.160
41684W        W 5408  14.643  40.356  12.884
41685W        W 5409   9.174  33.104  13.059
41686W        W 5410   4.386  14.257  12.391
41687W        W 5411   6.299  18.258   2.762
41688W        W 5412  44.006  24.076   1.733
41689W        W 5413  33.880  21.073   0.807
41690W        W 5414  10.273   2.734   3.146
41691W        W 5415  17.755  25.561  13.317
41692W        W 5416  17.663  26.039  13.338
41693W        W 5417  18.209   7.676   2.881
41694W        W 5418  42.500  11.747  13.434
41695W        W 5419  44.498  41.486   1.417
41696W        W 5420  35.916  21.026  14.346
41697W        W 5421  36.428   2.362   0.384
41698W        W 5422  33.429  21.696   2.676
41699W        W 5423  35.976  25.130   0.742
41700W        W 5424  24.998  34.552  13.979
41701W        W 5425  12.756  17.162  12.368
41702W        W 5426  41.402  17.081  13.876
41703W        W 5427  39.901  20.084  12.003
41704W        W 5428  11.865  13.828   0.943
41705W        W 5429  27.080  32.413   3.192
41706W        W 5430  20.747  10.721  14.919
41707W        W 5431  29.577  19.668  14.852
41708W        W 5432  29.449   0.785  10.613
41709W        W 5433  28.074  28.610  13.798
41710W        W 5434  41.943  38.497  12.514
41711W        W 5435  40.871  44.961   4.643
41712W        W 5436  18.114  39.378   0.350
41713W        W 5437  33.540  38.010   2.361
41714W        W 5438  42.367  25.611  12.399
41715W        W 5439  35.445  35.937  13.393
41716W        W 5440  28.663   9.748  13.418
41717W        W 5441  34.479  22.064   3.690
41718W        W 5442  14.736  37.517  10.537
41719W        W 5443  39.855   4.319  11.445
41720W        W 5444   9.167  35.405   3.741
41721W        W 5445   5.867   1.978   1.706
41722W        W 5446  33.468  38.870  13.844
41723W        W 5447  35.602  16.678   4.607
41724W        W 5448   8.898  34.504   1.388
41725W        W 5449  37.373  13.776   4.349
41726W        W 5450  34.610  43.290   2.682
41727W        W 5451  39.351  35.494   3.639
41728W        W 5452   3.800  41.856  10.491
41729W        W 5453   6.801  37.355   1.304
41730W        W 5454  20.220  25.063  13.947
41731W        W 5455  22.010   0.953  11.056
41732W        W 5456  39.520  27.667  12.030
41733W        W 5457   5.421  24.022   1.887
41734W        W 5458  44.806  14.797  10.524
41735W        W 5459  17.132  20.539  12.848
41736W        W 5460  20.759  31.471  12.345
41737W        W 5461   5.759  17.581  10.983
41738W        W 5462  17.270  40.005  13.411
41739W        W 5463  26.671  11.157  12.914
41740W        W 5464   6.756  35.900   2.255
41741W        W 5465   1.309  39.546   3.764
41742W        W 5466  25.482  18.065  12.884
41743W        W 5467  24.053  24.996   4.633
41744W        W 5468  24.989  11.743  11.565
41745W        W 5469  26.530  29.613  14.451
41746W        W 5470   1.855  21.705  13.510
41747W        W 5471   6.225  15.615  14.812
41748W        W 5472   5.846   3.426  10.555
41749W        W 5473   8.782  26.644   1.328
41750W        W 5474  44.379  22.155   0.337
41751W        W 5475  12.703  40.002   0.253
41752W        W 5476  41.906   4.731  13.949
41753W        W 5477  21.535   9.363  12.486
41754W        W 5478   8.656  35.526  12.008
41755W        W 5479  17.731  15.744  10.034
41756W        W 5480  14.211  43.510   4.685
41757W        W 5481   0.410  18.115  11.564
41758W        W 5482  30.535  34.561  10.598
41759W        W 5483  19.197  19.094   4.663
41760W        W 5484   4.911  11.723   4.159
41761W        W 5485  23.203  24.190  14.491
41762W        W 5486  23.041  37.335   2.853
41763W        W 5487  19.220  42.461   0.784
41764W        W 5488   9.833  23.500   3.765
41765W        W 5489  22.707   8.708   3.829
41766W        W 5490  43.407  21.743  14.030
41767W        W 5491  33.922   9.366   4.740
41768W        W 5492  33.506  37.520  11.980
41769W        W 5493   0.351  39.929   4.688
41770W        W 5494   7.398  39.449  12.504
41771W        W 5495  19.735  31.520   3.712
41772W        W 5496  16.150   7.910  14.830
41773W        W 5497  10.760  33.971  14.765
41774W        W 5498  28.508  23.507  12.976
41775W        W 5499  39.399   5.901  10.915
41776W        W 5500  30.516  14.593   3.697
41777W        W 5501  22.523  43.972   1.721
41778W        W 5502  26.542  10.284   5.139
41779W        W 5503  15.121  42.341  10.947
41780W        W 5504  38.944   1.760   3.384
41781W        W 5505  37.965  31.590  12.484
41782W        W 5506  13.139   8.238  14.841
41783W        W 5507   2.399  21.019  11.941
41784W        W 5508  28.537  28.610   0.469
41785W        W 5509  36.413  41.323   1.838
41786W        W 5510   9.766   3.801  13.877
41787W        W 5511  44.444   3.905  14.310
41788W        W 5512  10.870  12.216   4.281
41789W        W 5513  35.029  36.008  14.890
41790W        W 5514  30.933  28.004  11.566
41791W        W 5515   1.852   0.382  14.419
41792W        W 5516  23.100  28.184   0.746
41793W        W 5517  36.005  18.688   0.463
41794W        W 5518  39.040  42.306  13.454
41795W        W 5519  40.942  37.904  10.549
41796W        W 5520  12.154   8.812  13.854
41797W        W 5521  27.460  37.445  11.116
41798W        W 5522  36.985   9.354  10.556
41799W        W 5523   4.844  12.183  10.091
41800W        W 5524   4.900  36.005  14.847
41801W        W 5525  18.633  19.753  11.516
41802W        W 5526  26.040  26.956  10.034
41803W        W 5527  33.618  24.181   3.152
41804W        W 5528  28.551  13.196   4.343
41805W        W 5529  27.992  29.504   1.263
41806W        W 5530  22.718   4.945  12.362
41807W        W 5531  41.929  24.700   2.305
41808W        W 5532  41.870  35.862  13.951
41809W        W 5533  27.020   7.218   5.247
41810W        W 5534  36.899  30.969  13.855
41811W        W 5535  42.408  34.872  12.965
41812W        W 5536   5.392  25.489   1.218
41813W        W 5537  34.423  37.897   0.875
41814W        W 5538  43.986  20.545   2.282
41815W        W 5539  44.269  41.015   0.900
41816W        W 5540  21.202  38.563   1.218
41817W        W 5541  27.451  12.714  14.494
41818W        W 5542  30.931  35.599  13.452
41819W        W 5543  37.398  11.850   4.136
41820W        W 5544  36.897   8.710   3.725
41821W        W 5545  11.258   3.772  14.304
41822W        W 5546  16.239   7.271  11.947
41823W        W 5547  12.126  41.956   1.779
41824W        W 5548  20.632  43.814   4.242
41825W        W 5549  19.170  10.239  12.964
41826W        W 5550  42.934  15.197   3.157
41827W        W 5551  28.623   1.864   3.650
41828W        W 5552  10.861  40.827  12.839
41829W        W 5553   4.876  24.221   4.172
41830W        W 5554  44.271   0.911  14.278
41831W        W 5555  18.166  43.456   1.743
41832W        W 5556  24.082   2.267  10.929
41833W        W 5557   5.217  11.239  13.811
41834W        W 5558  24.629   3.392  12.541
41835W        W 5559  13.622  13.677   4.208
41836W        W 5560  19.581  18.630   4.828
41837W        W 5561  34.924  36.511   4.128
41838W        W 5562  26.652  15.119   2.840
41839W        W 5563  26.147  44.983   4.193
41840W        W 5564  10.168  21.259  10.495
41841W        W 5565  40.508   1.854   9.970
41842W        W 5566  37.057   4.345   0.260
41843W        W 5567   2.436   3.744   2.896
41844W        W 5568  35.483  16.112  10.621
41845W        W 5569  19.694  39.485  12.844
41846W        W 5570  37.441   4.802   2.328
41847W        W 5571   4.261  18.655   2.899
41848W        W 5572  16.712  43.995  13.027
41849W        W 5573  26.691  15.647   0.728
41850W        W 5574  12.132  35.525   0.261
41851W        W 5575  36.920  35.023   1.376
41852W        W 5576  32.514  31.933   1.356
41853W        W 5577  38.935  19.659  13.363
41854W        W 5578  23.009  37.959  14.973
41855W        W 5579  14.231  19.279   4.794
41856W        W 5580  38.398  23.532   3.179
41857W        W 5581  14.151  34.994  11.500
41858W        W 5582  16.637  23.548   2.288
41859W        W 5583  39.988   6.331   4.770
41860W        W 5584  29.617  10.682   2.273
41861W        W 5585   6.395  34.937  12.579
41862W        W 5586   3.793  42.932  14.856
41863W        W 5587  10.378  37.567  10.426
41864W        W 5588   8.292  42.456   4.131
41865W        W 5589  43.427  14.129  10.618
41866W        W 5590   4.910  15.124   3.804
41867W        W 5591   0.839  10.330  10.579
41868W        W 5592  34.575  15.602  14.935
41869W        W 5593  27.977  44.341   4.616
41870W        W 5594  15.231  22.712   3.334
41871W        W 5595  41.400  16.618   3.780
41872W        W 5596  23.622  39.959   2.337
41873W        W 5597  35.925  40.031   3.822
41874W        W 5598  10.245  32.970   5.322
41875W        W 5599   3.302  18.268  11.982
41876W        W 5600   9.804   4.815   3.225
41877W        W 5601   5.764  35.555  14.357
41878W        W 5602   3.452  27.056  11.607
41879W        W 5603  37.559  37.066   1.723
41880W        W 5604  23.637  30.911   2.193
41881W        W 5605  27.126  35.878  12.000
41882W        W 5606  42.465   9.248  13.373
41883W        W 5607   9.235  10.148  13.989
41884W        W 5608   2.336  19.091   3.861
41885W        W 5609   3.390  24.072   2.182
41886W        W 5610  36.589  41.846   3.631
41887W        W 5611  14.324  12.227  12.884
41888W        W 5612  40.469  12.669   5.116
41889W        W 5613  43.007   2.779  14.369
41890W        W 5614   6.328  29.026  10.541
41891W        W 5615  41.844  18.052   4.669
41892W        W 5616   9.835  23.126  11.915
41893W        W 5617  37.541  21.699  14.279
41894W        W 5618  36.971  19.629   4.308
41895W        W 5619   9.712  15.275  12.463
41896W        W 5620  23.219  28.954  11.909
41897W        W 5621  29.498  21.142  10.069
41898W        W 5622   7.688  19.216  11.859
41899W        W 5623   9.196  27.508   0.254
41900W        W 5624  12.764   3.760   2.224
41901W        W 5625  10.162  14.731  13.024
41902W        W 5626  26.609  15.736   3.835
41903W        W 5627  27.513  33.874   1.876
41904W        W 5628  23.529  44.844  12.944
41905W        W 5629  24.708  24.685  13.419
41906W        W 5630  23.086  12.182  11.998
41907W        W 5631   9.671  38.516  14.438
41908W        W 5632  34.518  27.572  11.057
41909W        W 5633   6.719  21.591  14.800
41910W        W 5634  26.556  27.551   3.849
41911W        W 5635   8.336  25.168   0.384
41912W        W 5636   2.834  43.811   3.848
41913W        W 5637  44.890  38.912  11.611
41914W        W 5638  10.763  18.262  13.530
41915W        W 5639  32.523  31.436  12.375
41916W        W 5640   3.251  11.182   1.809
41917W        W 5641  18.100  23.676   0.775
41918W        W 5642   2.773  11.791   3.280
41919W        W 5643  15.750  44.351   4.804
41920W        W 5644   2.747  43.855  12.008
41921W        W 5645  29.116  36.971   3.742
41922W        W 5646  10.803  34.084   3.240
41923W        W 5647  12.284   6.215   1.774
41924W        W 5648  29.961  14.720  12.450
41925W        W 5649   2.363  16.249   2.274
41926W        W 5650  28.114  10.674  14.365
41927W        W 5651   3.714   2.731   2.819
41928W        W 5652  29.093  38.452  12.007
41929W        W 5653  22.167  44.827  14.883
41930W        W 5654  33.046   2.334   0.381
41931W        W 5655   2.926  15.809   2.318
41932W        W 5656   7.283  32.088   4.152
41933W        W 5657   2.298  36.518   2.310
41934W        W 5658   9.689  44.359   1.333
41935W        W 5659  20.271   1.442   3.355
41936W        W 5660  33.921  12.787  14.335
41937W        W 5661  38.490   6.304   0.339
41938W        W 5662  25.531  31.909  11.450
41939W        W 5663  23.514  31.915   5.261
41940W        W 5664  40.957  36.924   4.690
41941W        W 5665  20.550   8.315   4.179
41942W        W 5666   9.384  41.332  12.929
41943W        W 5667  11.347   5.403  13.905
41944W        W 5668   0.829  12.213  12.510
41945W        W 5669  16.632  29.948   2.662
41946W        W 5670  18.622  25.607   2.245
41947W        W 5671  39.809  28.943  14.450
41948W        W 5672  20.659  14.815   1.432
41949W        W 5673  43.882  42.886   2.833
41950W        W 5674  29.136  32.057   3.160
41951W        W 5675  22.187  38.833  12.035
41952W        W 5676  31.591  25.573  10.513
41953W        W 5677   8.229  22.664  10.528
41954W        W 5678  42.785  34.604   1.762
41955W        W 5679  39.362  22.051  14.438
41956W        W 5680  42.359   7.670   2.392
41957W        W 5681  13.241  44.795   4.707
41958W        W 5682   5.203  26.172  14.398
41959W        W 5683  12.141  31.594  10.499
41960W        W 5684  43.884  14.339   1.821
41961W        W 5685  41.523  30.557   0.911
41962W        W 5686  35.877   0.764  13.323
41963W        W 5687  13.793   9.380   1.288
41964W        W 5688  40.352   6.203   4.622
41965W        W 5689  19.684  16.642  11.127
41966W        W 5690  20.529   9.345   1.429
41967W        W 5691  24.614  41.410   2.329
41968W        W 5692  30.057   4.419  12.484
41969W        W 5693  38.011  11.748   0.358
41970W        W 5694  31.948  44.345  14.315
41971W        W 5695  35.394  11.632  14.820
41972W        W 5696  22.653  40.862   2.391
41973W        W 5697  27.658  29.441   3.639
41974W        W 5698  37.882   4.823  12.009
41975W        W 5699  25.085  18.290  12.555
41976W        W 5700  23.039  36.012  13.914
41977W        W 5701  34.370  35.011  14.416
41978W        W 5702  10.675   4.919   0.964
41979W        W 5703  41.510   9.373  10.461
41980W        W 5704   3.314  25.012  12.518
41981W        W 5705  11.147  20.199  10.644
41982W        W 5706  10.333   4.360  13.521
41983W        W 5707  25.029  21.152   1.265
41984W        W 5708   7.770  20.049   3.178
41985W        W 5709  29.643  39.399  12.402
41986W        W 5710   1.261   3.939  11.587
41987W        W 5711   5.423  38.962  10.643
41988W        W 5712   5.306  38.860   3.224
41989W        W 5713  20.614  37.371  10.934
41990W        W 5714  42.862  21.684  13.488
41991W        W 5715  15.647  37.020  14.486
41992W        W 5716  37.866  34.088  14.497
41993W        W 5717  40.432  10.331  10.925
41994W        W 5718  12.181  31.978  12.893
41995W        W 5719  17.640  17.779   1.795
41996W        W 5720   3.331   5.285   1.393
41997W        W 5721  44.495  15.719   2.835
41998W        W 5722  24.186  34.975  13.812
41999W        W 5723   3.814  10.312   3.660
42000W        W 5724  27.100  39.322   3.304
42001W        W 5725  31.077   3.329   4.664
42002W        W 5726  23.131   7.396   4.662
42003W        W 5727   8.327  38.326   1.398
42004W        W 5728  20.158  23.698  11.001
42005W        W 5729   8.660  15.811   3.741
42006W        W 5730  27.656  25.696   0.770
42007W        W 5731  36.417  44.439  10.109
42008W        W 5732  19.656  33.024  11.930
42009W        W 5733   2.358  10.322   3.641
42010W        W 5734  39.459  30.925   0.781
42011W        W 5735  21.531  38.488   2.275
42012W        W 5736  29.460   6.371   2.867
42013W        W 5737   6.892   6.846   3.276
42014W        W 5738  14.655  31.577   2.266
42015W        W 5739  22.229  27.944   4.243
42016W        W 5740   4.781  20.036   1.282
42017W        W 5741  11.685   0.385   3.275
42018W        W 5742  19.117  29.974  14.844
42019W        W 5743   7.270  38.373  14.799
42020W        W 5744   2.240  16.679  10.606
42021W        W 5745  31.458  31.024   2.291
42022W        W 5746  10.658  15.789  13.793
42023W        W 5747  17.132  42.407  14.453
42024W        W 5748  17.208  14.699   4.127
42025W        W 5749  28.475   4.930  12.540
42026W        W 5750  17.617  18.789   4.632
42027W        W 5751  29.953  13.305   4.170
42028W        W 5752  38.832  32.091   0.361
42029W        W 5753  35.954  39.531   2.263
42030W        W 5754  29.108  21.029  14.878
42031W        W 5755  14.241   2.913   1.927
42032W        W 5756   8.231  10.244  10.461
42033W        W 5757  39.485   1.382   3.686
42034W        W 5758   9.733  41.491   3.724
42035W        W 5759  42.998   2.827  10.640
42036W        W 5760  41.951  28.184   2.219
42037W        W 5761  34.971  28.991   2.252
42038W        W 5762  40.512  42.844  14.988
42039W        W 5763  38.337  12.352   2.689
42040W        W 5764  22.710   8.339   2.795
42041W        W 5765  42.826  14.104  12.458
42042W        W 5766  10.837  17.648   3.315
42043W        W 5767   1.839  15.201  11.073
42044W        W 5768  22.534  26.578  10.009
42045W        W 5769  39.364  15.698   1.864
42046W        W 5770  13.194  11.297   2.851
42047W        W 5771   5.729  26.994   1.263
42048W        W 5772  28.471   4.716   3.333
42049W        W 5773  36.911  41.861   3.631
42050W        W 5774  24.046  41.304   0.314
42051W        W 5775   2.462   7.388   3.808
42052W        W 5776  20.640  12.119  13.885
42053W        W 5777   5.300  11.687   4.293
42054W        W 5778   1.951  31.918  11.942
42055W        W 5779   6.346  13.675   3.732
42056W        W 5780   3.261   1.365   2.403
42057W        W 5781   4.838   5.866  12.519
42058W        W 5782   5.724  34.053  13.359
42059W        W 5783  12.812   3.840   4.273
42060W        W 5784  26.623   6.239  12.080
42061W        W 5785  15.603  12.766   4.642
42062W        W 5786  20.590  36.918  14.874
42063W        W 5787  17.660  30.554  14.368
42064W        W 5788  32.933   1.885   2.879
42065W        W 5789  18.618  22.505  14.395
42066W        W 5790  43.325   6.331   1.738
42067W        W 5791   4.801  32.955   4.651
42068W        W 5792   3.807  28.570   0.954
42069W        W 5793   0.973   2.416   3.814
42070W        W 5794   7.785  19.750  12.990
42071W        W 5795  14.289  13.779  11.600
42072W        W 5796   5.829   9.305   0.312
42073W        W 5797  10.646  43.359   2.710
42074W        W 5798  12.684  20.729  13.391
42075W        W 5799  12.764  18.278  14.353
42076W        W 5800   9.781  31.601   0.787
42077W        W 5801  31.049  13.174   3.794
42078W        W 5802  26.566  44.362   5.139
42079W        W 5803  10.330   7.276  12.082
42080W        W 5804  28.643  17.081  10.512
42081W        W 5805  36.482  37.875   1.246
42082W        W 5806  30.957  31.073  14.352
42083W        W 5807  39.009  17.239  14.500
42084W        W 5808  25.663  36.994  13.864
42085W        W 5809   4.428  24.074  12.426
42086W        W 5810  42.284  24.636   1.713
42087W        W 5811  19.694  27.450   2.721
42088W        W 5812  39.916  35.054   1.300
42089W        W 5813  17.126  24.607  14.002
42090W        W 5814  20.674  29.984   4.604
42091W        W 5815  43.333  12.616  14.018
42092W        W 5816  43.454   9.339  11.081
42093W        W 5817   9.184   7.863   0.278
42094W        W 5818  25.060  31.447  14.951
42095W        W 5819   3.344  27.110   3.384
42096W        W 5820  44.782  34.468  10.953
42097W        W 5821  38.506  31.510  14.797
42098W        W 5822  41.851  39.488  10.638
42099W        W 5823   0.314   1.879  10.984
42100W        W 5824   9.393  34.955   3.854
42101W        W 5825   7.205   6.715   4.734
42102W        W 5826  36.476  11.294  14.786
42103W        W 5827  27.166  32.039  10.494
42104W        W 5828  22.996   3.276  13.008
42105W        W 5829  33.466  23.235  11.124
42106W        W 5830  29.656  40.378  12.508
42107W        W 5831  18.742  27.647   0.411
42108W        W 5832  27.469   2.409  11.991
42109W        W 5833  24.533  35.860   0.474
42110W        W 5834  20.600  38.030  14.018
42111W        W 5835  43.873  13.141   1.231
42112W        W 5836  38.386  29.947   0.449
42113W        W 5837  29.964  35.051  13.804
42114W        W 5838  31.585   5.216  12.529
42115W        W 5839   9.751   5.258   0.831
42116W        W 5840  27.607  20.757  13.359
42117W        W 5841  29.474   5.254  10.462
42118W        W 5842  18.607  29.125   0.283
42119W        W 5843  38.919  11.667  12.946
42120W        W 5844   0.905  40.890   4.223
42121W        W 5845  33.526  33.981   1.439
42122W        W 5846  16.200  22.568  11.562
42123W        W 5847  40.399  33.043   1.246
42124W        W 5848  12.129   6.246  11.453
42125W        W 5849  37.951  35.372   1.426
42126W        W 5850  12.636   1.289  10.573
42127W        W 5851  17.149  38.850  10.565
42128W        W 5852   3.804  38.038   2.239
42129W        W 5853  45.000  16.693   0.433
42130W        W 5854  43.392  16.248   0.401
42131W        W 5855   5.280  15.182   1.377
42132W        W 5856   7.875  28.086   3.734
42133W        W 5857  44.956  26.478   1.835
42134W        W 5858   5.834   0.827  10.637
42135W        W 5859  32.944   9.173  14.869
42136W        W 5860  17.759  44.305  11.435
42137W        W 5861  14.208  27.975   0.826
42138W        W 5862  37.888   0.269   3.271
42139W        W 5863  26.659  24.697  11.466
42140W        W 5864  11.146   3.322  14.472
42141W        W 5865  13.331  17.679  13.391
42142W        W 5866  35.074  43.019   4.307
42143W        W 5867  28.095  12.791   2.393
42144W        W 5868   0.447  24.021   4.599
42145W        W 5869  25.692  29.987  11.467
42146W        W 5870   4.418   4.419   4.739
42147W        W 5871   7.200  27.106   3.657
42148W        W 5872   5.716  22.501   3.793
42149W        W 5873   6.705  23.149  13.875
42150W        W 5874  31.611  17.119  14.832
42151W        W 5875  18.656   5.836  11.036
42152W        W 5876  24.558   9.661  12.052
42153W        W 5877  16.705  29.067   4.326
42154W        W 5878  28.082   2.958   4.230
42155W        W 5879  11.825  40.306   1.828
42156W        W 5880  26.076   8.318   0.936
42157W        W 5881  18.544  44.312  12.492
42158W        W 5882   2.910  28.053   0.787
42159W        W 5883  38.541  27.491   1.724
42160W        W 5884  21.746  11.308   2.723
42161W        W 5885  24.625  10.875   2.315
42162W        W 5886  37.083  12.221  12.537
42163W        W 5887  24.566  38.501   3.337
42164W        W 5888  22.589   2.858  12.943
42165W        W 5889  24.634  28.471   3.155
42166W        W 5890  16.286  12.280  12.092
42167W        W 5891  15.129  14.337   2.266
42168W        W 5892  41.490  13.822   3.237
42169W        W 5893  26.994  37.026   1.348
42170W        W 5894  16.200  40.456  11.591
42171W        W 5895  29.030   9.784   3.652
42172W        W 5896  28.184  20.661   4.827
42173W        W 5897  15.160   7.801   0.423
42174W        W 5898  34.026   4.804  14.012
42175W        W 5899  10.758  14.637   3.784
42176W        W 5900  35.951  12.795   3.257
42177W        W 5901  15.195  28.622  11.066
42178W        W 5902  20.588  31.580   4.265
42179W        W 5903  21.263  40.514  12.882
42180W        W 5904  14.236  23.668   2.413
42181W        W 5905  24.660  27.985   0.895
42182W        W 5906  34.905  41.877   4.271
42183W        W 5907  44.963  21.180   3.247
42184W        W 5908   7.190  13.764   3.162
42185W        W 5909  44.465  21.735   3.223
42186W        W 5910  20.042  11.164  14.469
42187W        W 5911  22.190  31.030  12.392
42188W        W 5912  24.560  16.096  13.018
42189W        W 5913  26.050  31.927   2.348
42190W        W 5914  24.022  30.418   1.757
42191W        W 5915  15.717   5.357   2.887
42192W        W 5916   2.341  16.676   0.828
42193W        W 5917   7.732  29.633  11.539
42194W        W 5918   1.370  19.088  12.407
42195W        W 5919   5.428  35.505  14.282
42196W        W 5920   6.332  33.466   5.315
42197W        W 5921   9.308  22.523  12.839
42198W        W 5922  11.314  33.899  14.492
42199W        W 5923  11.235  23.212  14.803
42200W        W 5924  15.719  32.065   0.412
42201W        W 5925  35.432  23.727  14.483
42202W        W 5926  20.740  20.544   4.312
42203W        W 5927  28.969  31.034   4.700
42204W        W 5928  25.670  11.280  12.963
42205W        W 5929  25.045  38.560  13.454
42206W        W 5930  18.679  23.621   4.600
42207W        W 5931   0.420   6.265  14.855
42208W        W 5932   1.301  44.447  14.410
42209W        W 5933  17.597  32.398   3.809
42210W        W 5934  42.379  16.754   1.431
42211W        W 5935  37.873  35.463  13.948
42212W        W 5936  15.316  18.192  13.015
42213W        W 5937   6.282  20.084   1.704
42214W        W 5938  27.088   2.374   3.324
42215W        W 5939  23.016  23.508   1.309
42216W        W 5940   5.748  24.166  12.357
42217W        W 5941  39.889   0.437   4.269
42218W        W 5942  40.402  20.750   0.477
42219W        W 5943  27.602  32.425   3.844
42220W        W 5944  40.393   1.843   3.706
42221W        W 5945  13.196  15.624   0.909
42222W        W 5946  23.174  12.359   2.272
42223W        W 5947  32.505  29.637  11.411
42224W        W 5948  20.076  11.349   3.227
42225W        W 5949  43.937  10.363   4.239
42226W        W 5950  30.536  42.295  13.322
42227W        W 5951  23.527  30.022  11.964
42228W        W 5952  27.487  39.929  11.045
42229W        W 5953  35.925  30.581   2.197
42230W        W 5954  36.025  15.217  12.520
42231W        W 5955   2.815  15.231  13.493
42232W        W 5956   9.786  13.273   3.261
42233W        W 5957  25.550  42.859  10.588
42234W        W 5958  13.209  14.155  11.469
42235W        W 5959  23.045  24.158   4.220
42236W        W 5960   0.893  21.705  10.924
42237W        W 5961  23.089   6.252   1.263
42238W        W 5962   5.316   2.848   1.348
42239W        W 5963  14.292   0.907   5.294
42240W        W 5964   9.691  18.617   0.762
42241W        W 5965  13.651  36.957  11.100
42242W        W 5966  42.846  21.180   0.416
42243W        W 5967   1.352  41.906   4.259
42244W        W 5968  15.614  41.894  12.918
42245W        W 5969  24.487  11.699   0.382
42246W        W 5970  14.328  43.462  13.518
42247W        W 5971   1.396  13.221   3.200
42248W        W 5972  26.187   0.430  13.403
42249W        W 5973  12.333  43.854   3.710
42250W        W 5974  44.990  30.944  12.073
42251W        W 5975  43.310  18.583  13.977
42252W        W 5976   3.866  12.662  14.830
42253W        W 5977  13.669  44.996  11.996
42254W        W 5978  29.956  25.584   0.409
42255W        W 5979   9.304  13.814   2.727
42256W        W 5980   2.946   5.326  12.013
42257W        W 5981  31.559   0.920   2.199
42258W        W 5982  12.841  44.263   1.920
42259W        W 5983  32.626  26.974   0.813
42260W        W 5984   7.317  19.072   0.385
42261W        W 5985  20.685   8.168   2.859
42262W        W 5986  10.346  24.008  13.952
42263W        W 5987  27.966  28.956   3.722
42264W        W 5988   3.800  25.139   3.704
42265W        W 5989   4.338   5.697  14.433
42266W        W 5990  18.247   9.307   4.188
42267W        W 5991  22.683   3.785  10.981
42268W        W 5992  44.833   5.690   2.189
42269W        W 5993  34.411  17.281   3.249
42270W        W 5994  44.471  37.881   1.370
42271W        W 5995  29.513   9.656   2.738
42272W        W 5996   7.274  37.411   3.283
42273W        W 5997  28.641   1.940   3.324
42274W        W 5998  23.158   6.385   3.154
42275W        W 5999   7.773  41.979  11.521
42276W        W 6000   5.354  20.756   2.724
42277W        W 6001   5.315  20.627  12.399
42278W        W 6002  39.972  12.237   3.151
42279W        W 6003  41.493   1.403   2.343
42280W        W 6004  28.068   1.893  13.514
42281W        W 6005  26.116  20.736   3.238
42282W        W 6006  17.220  10.157  10.088
42283W        W 6007  31.066  29.955  11.112
42284W        W 6008  33.959  27.043  10.600
42285W        W 6009   1.417  14.785  14.804
42286W        W 6010  16.169   0.974  11.003
42287W        W 6011   6.349  30.655  11.921
42288W        W 6012  44.955  30.951  10.619
42289W        W 6013   4.414  10.853   5.679
42290W        W 6014  31.635  15.816  12.394
42291W        W 6015  18.779  25.209  11.487
42292W        W 6016   5.255  36.476  13.907
42293W        W 6017  39.022  18.146  10.472
42294W        W 6018  28.471  12.756   4.659
42295W        W 6019  34.545  41.856  14.501
42296W        W 6020  22.590  26.676   0.368
42297W        W 6021   8.796  15.217  13.810
42298W        W 6022  33.389   5.422  12.365
42299W        W 6023  20.032  22.200  11.474
42300W        W 6024  40.409   6.802   4.132
42301W        W 6025  14.703   5.251  13.413
42302W        W 6026  30.018   9.793   9.951
42303W        W 6027  39.037  29.645   5.163
42304W        W 6028  12.613   5.746   4.141
42305W        W 6029  11.135  26.652   3.864
42306W        W 6030  39.453  35.429   0.760
42307W        W 6031  23.597  14.302  12.548
42308W        W 6032  32.531  18.754  10.932
42309W        W 6033  22.032   2.422  14.372
42310W        W 6034  33.441  42.803  14.805
42311W        W 6035  31.139  10.310   4.178
42312W        W 6036  22.018   7.838  13.988
42313W        W 6037  14.100  38.898   3.200
42314W        W 6038  19.663  17.209  13.505
42315W        W 6039  14.173  33.579  14.763
42316W        W 6040  43.403  16.208   1.418
42317W        W 6041  21.188  10.253   0.782
42318W        W 6042  23.098  33.111   1.770
42319W        W 6043   9.195  33.445  10.061
42320W        W 6044  28.958  22.625   4.262
42321W        W 6045  25.972  15.595   0.291
42322W        W 6046  22.998  27.069  11.939
42323W        W 6047  15.261  26.127  11.022
42324W        W 6048  41.972  18.697   4.615
42325W        W 6049  11.768  23.599   4.122
42326W        W 6050  38.014  25.650  12.580
42327W        W 6051  13.243  41.530   3.805
42328W        W 6052  41.895  39.888  14.013
42329W        W 6053   4.261  37.884   2.863
42330W        W 6054  36.375  32.544  13.063
42331W        W 6055   0.282   0.425   4.679
42332W        W 6056  36.563  28.440  10.597
42333W        W 6057  43.290  15.651   3.684
42334W        W 6058  31.451  26.462   2.214
42335W        W 6059  37.078  17.298  11.053
42336W        W 6060  19.270  44.380   2.684
42337W        W 6061   8.690   9.167   3.154
42338W        W 6062  10.763   2.835  12.514
42339W        W 6063   2.797   7.368  14.490
42340W        W 6064   8.838  29.170  10.645
42341W        W 6065  16.712  17.080  14.881
42342W        W 6066   9.339   9.305  11.409
42343W        W 6067   7.219  14.611  12.415
42344W        W 6068  29.612  44.886   1.818
42345W        W 6069   7.306  38.904   0.324
42346W        W 6070  24.014  10.690   4.131
42347W        W 6071   0.837  19.283  13.941
42348W        W 6072  19.150  15.583  13.842
42349W        W 6073   2.824  25.042   1.793
42350W        W 6074  44.356   3.797   0.818
42351W        W 6075   2.429   4.762  13.962
42352W        W 6076  13.719  39.038   2.791
42353W        W 6077  23.520  17.736  12.408
42354W        W 6078  23.091   7.183  14.321
42355W        W 6079  15.753  42.346   4.115
42356W        W 6080   1.889   7.370  11.484
42357W        W 6081  37.466  31.473   0.854
42358W        W 6082   9.841   0.746  13.426
42359W        W 6083  42.867  31.924  11.438
42360W        W 6084  33.393  18.651   1.872
42361W        W 6085  44.359  17.215   0.865
42362W        W 6086  16.603  13.807  14.946
42363W        W 6087  38.442  41.970   4.162
42364W        W 6088  23.493   3.323   2.379
42365W        W 6089  40.049   7.310   4.201
42366W        W 6090  28.062  10.279  11.864
42367W        W 6091  23.037  24.585  11.415
42368W        W 6092  15.768  20.565  13.049
42369W        W 6093  18.748  17.142  10.584
42370W        W 6094  43.785   7.887  14.916
42371W        W 6095  31.581   1.974  10.498
42372W        W 6096  29.459  42.320  14.369
42373W        W 6097  14.675  28.973  10.566
42374W        W 6098  39.028  29.632  14.826
42375W        W 6099  24.685  33.582   3.853
42376W        W 6100  15.585  43.271  13.340
42377W        W 6101  17.148  30.436  11.892
42378W        W 6102  37.337  41.956   9.960
42379W        W 6103  14.611   6.383   1.785
42380W        W 6104  42.000  40.383   3.753
42381W        W 6105   0.353  16.691   2.817
42382W        W 6106  19.115  29.091   1.710
42383W        W 6107  28.679  35.060   4.716
42384W        W 6108  19.773  12.138   5.771
42385W        W 6109  17.680   6.689  10.051
42386W        W 6110  11.815  11.322   9.954
42387W        W 6111  23.638  38.505  10.408
42388W        W 6112  22.630  16.749  12.895
42389W        W 6113  32.921   0.828  10.547
42390W        W 6114  38.522  16.649  13.063
42391W        W 6115  15.086  15.267  11.926
42392W        W 6116  44.901   3.297  14.411
42393W        W 6117  14.340  31.607   1.817
42394W        W 6118  44.965  14.263   2.835
42395W        W 6119   3.396  29.039   3.336
42396W        W 6120  12.151  33.615   3.287
42397W        W 6121  38.568   0.844   3.246
42398W        W 6122  37.422  16.072  12.972
42399W        W 6123  42.336   7.795  11.947
42400W        W 6124  36.847   8.662  14.516
42401W        W 6125  13.707  23.133  13.002
42402W        W 6126   6.252   1.471   2.713
42403W        W 6127   1.779   1.414  14.275
42404W        W 6128  18.758  40.493   2.812
42405W        W 6129   2.852   9.391  14.931
42406W        W 6130  34.451  28.531  13.804
42407W        W 6131  28.150  28.130  10.946
42408W        W 6132  30.490  30.656   9.995
42409W        W 6133  31.597   9.728  11.578
42410W        W 6134  15.303   7.400   2.392
42411W        W 6135   7.386  43.830   3.856
42412W        W 6136  41.851  30.969   3.359
42413W        W 6137  21.686  20.593  12.859
42414W        W 6138  16.237  28.012  14.300
42415W        W 6139  15.799  33.408   5.122
42416W        W 6140   2.855  43.021  12.837
42417W        W 6141  43.766  18.615   3.644
42418W        W 6142   5.839   1.849  10.643
42419W        W 6143  19.761  13.825   3.799
42420W        W 6144  30.157   0.469   4.630
42421W        W 6145  12.822   5.880   5.086
42422W        W 6146  13.727  30.543   1.294
42423W        W 6147  29.110   2.938  13.921
42424W        W 6148   3.283  43.366  12.901
42425W        W 6149  17.655  21.132  13.414
42426W        W 6150  37.996   7.868  12.551
42427W        W 6151  33.592  41.504  12.059
42428W        W 6152   9.326  30.432  14.838
42429W        W 6153  37.008  36.044   1.378
42430W        W 6154  35.514   7.234   2.673
42431W        W 6155  37.395  38.073   2.672
42432W        W 6156  18.241  18.669   0.732
42433W        W 6157  32.466  36.898   1.935
42434W        W 6158  26.003   8.857   3.730
42435W        W 6159   8.403  19.757   4.347
42436W        W 6160  29.594  14.320   4.659
42437W        W 6161  41.316  27.683   0.247
42438W        W 6162   1.241  26.999   1.899
42439W        W 6163  44.958  15.126  11.592
42440W        W 6164  20.061  42.354   1.928
42441W        W 6165  43.478  19.265  14.760
42442W        W 6166  33.611   6.712  12.348
42443W        W 6167  42.929  42.818  13.970
42444W        W 6168  40.918   4.912   1.708
42445W        W 6169   2.963  24.070  14.311
42446W        W 6170   6.188  43.401   1.778
42447W        W 6171  17.731  32.976   2.273
42448W        W 6172  34.524  33.461   0.273
42449W        W 6173  11.253  41.310  13.825
42450W        W 6174  10.251  16.203   2.260
42451W        W 6175  18.124  31.098   3.689
42452W        W 6176  14.699  17.121  11.901
42453W        W 6177  12.362   7.381   3.160
42454W        W 6178  14.300  16.187  10.890
42455W        W 6179  33.385  12.655   3.712
42456W        W 6180  17.229  41.529   0.930
42457W        W 6181  41.005  14.771   1.432
42458W        W 6182   8.390  29.116   2.288
42459W        W 6183  43.324  44.488   1.336
42460W        W 6184  10.199  16.568   0.913
42461W        W 6185  15.216  29.005   4.190
42462W        W 6186   8.672   2.281   1.843
42463W        W 6187  12.187   3.875   3.815
42464W        W 6188  25.518   5.395   1.432
42465W        W 6189  16.290  42.453  11.870
42466W        W 6190  40.441  31.897   0.806
42467W        W 6191  36.872  22.680   0.902
42468W        W 6192  17.799   4.423   1.427
42469W        W 6193  39.451  14.202   2.269
42470W        W 6194  12.739  24.985   3.638
42471W        W 6195   8.293   6.864   3.355
42472W        W 6196  23.500  31.415   5.199
42473W        W 6197   2.402   1.910   3.707
42474W        W 6198  41.416  13.639  14.510
42475W        W 6199  28.516  20.752   2.248
42476W        W 6200  26.588  28.582   4.184
42477W        W 6201  21.039   6.394  14.817
42478W        W 6202  37.377  28.014  12.527
42479W        W 6203  22.676  14.167   0.821
42480W        W 6204  12.323   2.955   0.341
42481W        W 6205  22.695  10.297  10.636
42482W        W 6206  41.820   6.329  14.481
42483W        W 6207  39.534  19.670   3.658
42484W        W 6208  27.583  26.075  14.920
42485W        W 6209  41.356  31.902  10.509
42486W        W 6210   3.408  27.502   4.764
42487W        W 6211  26.054  37.075  13.038
42488W        W 6212  36.982  43.447  10.602
42489W        W 6213  17.086  39.955  14.293
42490W        W 6214  17.127  19.120  13.433
42491W        W 6215  28.012  24.168  12.462
42492W        W 6216  14.793  26.151  13.842
42493W        W 6217  35.894  21.746   4.144
42494W        W 6218  17.175  13.679  14.287
42495W        W 6219  28.447  40.520  11.924
42496W        W 6220   3.453  33.609   2.736
42497W        W 6221  37.057   0.988  14.905
42498W        W 6222  14.335   2.960  14.283
42499W        W 6223  22.549   6.237   0.921
42500W        W 6224   1.784  31.958   2.286
42501W        W 6225  43.286  21.681   3.169
42502W        W 6226   7.261   0.302   3.212
42503W        W 6227  17.631  37.010  13.971
42504W        W 6228  40.461  32.486   9.960
42505W        W 6229   3.855  17.756   2.667
42506W        W 6230  10.149  16.698   4.119
42507W        W 6231  41.006   0.295   0.795
42508W        W 6232   3.909   1.800  13.935
42509W        W 6233  11.689  31.053  11.937
42510W        W 6234  20.676  18.052   2.818
42511W        W 6235  11.689  39.414  11.584
42512W        W 6236  27.568   5.806   1.710
42513W        W 6237   3.857  29.030  11.100
42514W        W 6238  21.652  37.480  10.154
42515W        W 6239  26.598  20.541   4.753
42516W        W 6240  37.364  28.010   2.274
42517W        W 6241  38.532   1.798   2.414
42518W        W 6242  32.620  14.620  11.015
42519W        W 6243  38.558  12.718  13.892
42520W        W 6244  21.082  43.491  12.578
42521W        W 6245  42.802  26.021  11.969
42522W        W 6246   3.939  24.683   0.888
42523W        W 6247  12.257   2.846  12.997
42524W        W 6248  20.159  24.523   2.256
42525W        W 6249  38.984  32.440   1.264
42526W        W 6250  14.140  41.493  12.530
42527W        W 6251  15.203   1.244   0.247
42528W        W 6252  22.573  35.493  11.569
42529W        W 6253   0.812  41.412  10.468
42530W        W 6254  35.473   7.369  11.408
42531W        W 6255   9.242  15.099   1.309
42532W        W 6256  29.424  19.211  10.446
42533W        W 6257  38.355  25.627   4.328
42534W        W 6258   3.719   3.773   1.764
42535W        W 6259  16.608  11.829   0.355
42536W        W 6260   9.289  17.254   4.743
42537W        W 6261  30.143  30.985  11.456
42538W        W 6262  40.474  30.938  12.849
42539W        W 6263  41.035  25.163   3.233
42540W        W 6264  41.890   0.390   0.947
42541W        W 6265  13.293  10.183  11.054
42542W        W 6266  43.506  31.091  12.392
42543W        W 6267  13.696  22.689  13.058
42544W        W 6268  18.700  38.393   4.244
42545W        W 6269  35.543  43.300  11.866
42546W        W 6270  35.985  10.234  12.461
42547W        W 6271  11.356  31.055  11.447
42548W        W 6272  31.578  40.962  10.551
42549W        W 6273   5.298  24.537  11.447
42550W        W 6274   4.929  18.280   3.677
42551W        W 6275  44.950  35.972   3.741
42552W        W 6276   8.183  15.158   3.352
42553W        W 6277  12.639  43.366  12.428
42554W        W 6278  38.549  41.873  10.020
42555W        W 6279   2.915  38.500  12.520
42556W        W 6280   9.229  38.388   2.725
42557W        W 6281  38.908  20.044   1.931
42558W        W 6282   8.170  22.610  10.929
42559W        W 6283  26.571  42.328  13.056
42560W        W 6284  24.510  12.276  12.445
42561W        W 6285  17.800   6.249   4.313
42562W        W 6286  31.409  29.593   3.334
42563W        W 6287  43.935  12.244   2.359
42564W        W 6288  21.239  27.008  11.993
42565W        W 6289  44.800   3.289   5.285
42566W        W 6290   1.460  12.259   3.736
42567W        W 6291  37.872  26.477   2.871
42568W        W 6292  16.152  10.184  10.495
42569W        W 6293   4.323  15.698  13.398
42570W        W 6294  44.871   4.722   0.894
42571W        W 6295  22.616  20.762  10.579
42572W        W 6296  27.177  19.223  14.873
42573W        W 6297  34.047  32.064   2.231
42574W        W 6298  28.456   9.255  11.058
42575W        W 6299   9.652  34.429  11.955
42576W        W 6300  10.651  15.091  11.510
42577W        W 6301   3.738   5.768   1.910
42578W        W 6302  37.917  33.447   3.168
42579W        W 6303  37.973  16.668  12.525
42580W        W 6304  22.215   6.197  14.018
42581W        W 6305  16.759  37.573   1.900
42582W        W 6306  28.464  20.677  12.447
42583W        W 6307  20.114   9.726  13.020
42584W        W 6308  15.241  42.982   1.409
42585W        W 6309  33.396   0.402   0.340
42586W        W 6310  41.328  32.934   0.941
42587W        W 6311  30.586  11.178   2.244
42588W        W 6312  38.939  27.164   1.799
42589W        W 6313  27.621   7.317   4.191
42590W        W 6314   4.731  19.771   2.362
42591W        W 6315  27.023  24.125  13.467
42592W        W 6316  17.269  36.864   3.316
42593W        W 6317  22.531  43.877  12.039
42594W        W 6318   2.722  40.002   4.231
42595W        W 6319  44.460  39.348   2.183
42596W        W 6320  34.455  10.637  12.844
42597W        W 6321  27.063  44.466  12.902
42598W        W 6322  32.427  33.571   4.354
42599W        W 6323  12.731  43.843  11.525
42600W        W 6324  32.891  12.856   4.740
42601W        W 6325  19.131  12.155   2.241
42602W        W 6326   5.866   5.892  12.047
42603W        W 6327  33.575   1.408   3.251
42604W        W 6328   1.437   7.719   1.935
42605W        W 6329   5.745   0.335  13.816
42606W        W 6330  30.459   7.682   1.767
42607W        W 6331  32.018  31.598  14.460
42608W        W 6332  25.125  41.831  14.380
42609W        W 6333  18.674   7.409   1.920
42610W        W 6334  39.936   3.412   4.768
42611W        W 6335  14.646  33.387  10.891
42612W        W 6336  39.876  40.900  10.530
42613W        W 6337  15.660  14.833  13.007
42614W        W 6338  32.064  21.580   4.151
42615W        W 6339  27.024   4.375   1.913
42616W        W 6340  38.973   3.309  10.494
42617W        W 6341   2.249   9.769   4.766
42618W        W 6342  28.033  11.163  11.495
42619W        W 6343  26.553  41.927   1.328
42620W        W 6344   3.225  35.101   2.807
42621W        W 6345  26.038  17.711   3.257
42622W        W 6346  18.123  36.051   1.362
42623W        W 6347  16.199  36.860  13.407
42624W        W 6348  27.538  15.303   0.870
42625W        W 6349   2.407  36.071   2.378
42626W        W 6350  27.124  12.227   0.931
42627W        W 6351   2.248  18.738  11.492
42628W        W 6352  18.619  17.306  11.979
42629W        W 6353  28.473  42.968   5.299
42630W        W 6354  18.068  20.680  14.907
42631W        W 6355   5.760  38.401   0.393
42632W        W 6356  44.916   9.798  14.331
42633W        W 6357  25.506   6.887  11.594
42634W        W 6358   0.917  14.303  12.340
42635W        W 6359  22.191  22.173   2.804
42636W        W 6360  38.448   2.461  12.856
42637W        W 6361  24.546  41.837  12.425
42638W        W 6362  27.493  42.407  14.328
42639W        W 6363  19.053  42.800  10.582
42640W        W 6364  19.713  24.099  11.973
42641W        W 6365  39.923  21.196  11.538
42642W        W 6366  23.022  40.867  11.996
42643W        W 6367  14.638   8.336   1.260
42644W        W 6368  19.697  22.125   3.186
42645W        W 6369  17.731   5.358   1.741
42646W        W 6370   3.818  25.515  13.444
42647W        W 6371  31.117  31.416  13.858
42648W        W 6372  13.721  21.262  12.825
42649W        W 6373  24.520  31.469  12.387
42650W        W 6374  23.502  40.888   0.308
42651W        W 6375  40.880   4.875  11.864
42652W        W 6376  19.557  35.447  14.509
42653W        W 6377  25.653  34.936   4.597
42654W        W 6378  15.621  30.164   4.217
42655W        W 6379  44.403  29.586  14.284
42656W        W 6380  36.488   4.748  12.345
42657W        W 6381  14.753  17.113   0.882
42658W        W 6382  16.220  20.666  10.973
42659W        W 6383   8.301  18.261   1.305
42660W        W 6384  17.567  19.172   0.371
42661W        W 6385  44.448  34.388   2.316
42662W        W 6386  31.983  16.688  14.442
42663W        W 6387  25.131  21.732  13.953
42664W        W 6388   6.189  30.095  13.484
42665W        W 6389   6.884   3.386   5.224
42666W        W 6390  37.572  35.052   1.433
42667W        W 6391  33.060  40.842   3.292
42668W        W 6392   5.304  41.797   4.640
42669W        W 6393   3.880   8.800  12.394
42670W        W 6394   2.773  24.573   1.397
42671W        W 6395  32.487   9.154  10.940
42672W        W 6396  37.870   7.266  13.460
42673W        W 6397  29.115  25.688  11.609
42674W        W 6398  24.080  34.087  11.560
42675W        W 6399  29.476  29.999  11.585
42676W        W 6400  32.575  40.406  11.467
42677W        W 6401  42.498  33.453   9.531
42678W        W 6402  25.115  43.286  12.019
42679W        W 6403  24.010   1.739  13.806
42680W        W 6404   8.826  22.643  13.064
42681W        W 6405  27.550  25.579   3.644
42682W        W 6406   0.798   0.776   4.237
42683W        W 6407  21.525  38.540   2.687
42684W        W 6408  14.177  26.703   5.262
42685W        W 6409  37.857  27.086  10.534
42686W        W 6410   3.759  13.322  13.491
42687W        W 6411   0.929   4.333   0.267
42688W        W 6412  20.730   6.319   1.308
42689W        W 6413  32.550   6.426   1.742
42690W        W 6414  18.598  30.138   0.433
42691W        W 6415  26.671  24.196  10.960
42692W        W 6416  13.220  17.583   2.690
42693W        W 6417  30.921  40.026   2.776
42694W        W 6418  37.473  30.586   4.793
42695W        W 6419   8.664  16.164  14.028
42696W        W 6420   7.331   0.817  13.310
42697W        W 6421   5.395  16.710  12.825
42698W        W 6422   8.866  35.519  13.922
42699W        W 6423  21.610   2.332  12.068
42700W        W 6424   4.787  16.612  10.615
42701W        W 6425  13.790  19.547  14.447
42702W        W 6426  11.313  18.626   3.305
42703W        W 6427  31.082  17.655   0.758
42704W        W 6428  33.570  37.955   0.738
42705W        W 6429  40.864  28.475  11.928
42706W        W 6430  18.657  12.711  13.462
42707W        W 6431  25.185   8.891  11.561
42708W        W 6432   7.896  26.693   5.248
42709W        W 6433  24.193  10.657   3.658
42710W        W 6434  43.334   1.314   4.162
42711W        W 6435   7.884  38.371   3.337
42712W        W 6436  35.391  32.477   3.169
42713W        W 6437  26.118  44.447   4.643
42714W        W 6438  22.136  38.046  11.430
42715W        W 6439  15.197  39.446  12.831
42716W        W 6440  22.190   0.824   0.743
42717W        W 6441   9.877  26.462   0.963
42718W        W 6442  37.937  34.460   2.707
42719W        W 6443   5.277  35.514  13.401
42720W        W 6444  21.177  41.430   2.823
42721W        W 6445  38.824  12.708  11.058
42722W        W 6446   3.364  37.429  14.386
42723W        W 6447  15.783  15.741   0.826
42724W        W 6448  18.219   8.206  12.039
42725W        W 6449   3.390  34.925  14.437
42726W        W 6450  34.433  44.435   0.477
42727W        W 6451  21.033   6.782   0.354
42728W        W 6452  43.286  17.656  12.486
42729W        W 6453  24.600  33.112  10.612
42730W        W 6454   5.327  39.958   2.294
42731W        W 6455  28.180  19.768   3.829
42732W        W 6456  28.993  38.035   3.170
42733W        W 6457  26.690  35.881  13.464
42734W        W 6458   5.689  36.997   2.230
42735W        W 6459  32.562  44.497   0.349
42736W        W 6460   2.374  42.291   0.913
42737W        W 6461  14.834  22.554  12.405
42738W        W 6462  14.679  19.076  13.440
42739W        W 6463  40.945  43.440   3.755
42740W        W 6464  16.641   7.728   0.472
42741W        W 6465  34.983  12.355   2.396
42742W        W 6466   7.719  13.279   3.250
42743W        W 6467  40.342   9.169  13.982
42744W        W 6468  43.501  10.786  13.020
42745W        W 6469   8.781  35.511   1.806
42746W        W 6470  26.088  33.978  12.993
42747W        W 6471   0.256  37.559   5.209
42748W        W 6472  10.875   7.182  12.341
42749W        W 6473  13.195  12.806   2.257
42750W        W 6474  40.963  42.402   3.327
42751W        W 6475  28.519  34.445  14.824
42752W        W 6476   1.248  33.007  12.400
42753W        W 6477  39.982  28.630  11.967
42754W        W 6478  14.335  37.539   0.776
42755W        W 6479  16.287  20.264  14.493
42756W        W 6480  36.587  16.789   5.770
42757W        W 6481  41.501  17.624  12.422
42758W        W 6482  11.185   7.796  14.917
42759W        W 6483  14.692   3.863   3.229
42760W        W 6484  18.657  44.831  13.908
42761W        W 6485  28.013   0.447  11.382
42762W        W 6486   8.290  34.405  14.877
42763W        W 6487  42.455  26.045   4.309
42764W        W 6488  14.195  12.705   1.885
42765W        W 6489  32.573  11.215   3.656
42766W        W 6490   8.799  24.019   0.360
42767W        W 6491  11.828  16.635   4.345
42768W        W 6492  26.077  13.836  14.018
42769W        W 6493  24.696  29.450   4.140
42770W        W 6494  15.817  22.064  10.556
42771W        W 6495   3.299  11.282  14.020
42772W        W 6496  33.426  29.504  11.407
42773W        W 6497  23.696  29.498   0.341
42774W        W 6498  28.103  17.683  14.340
42775W        W 6499  21.652  22.161   3.237
42776W        W 6500  19.081  15.608   4.272
42777W        W 6501  38.881  14.324   2.418
42778W        W 6502  43.377  42.372   1.934
42779W        W 6503   0.983  36.962   3.719
42780W        W 6504  28.050  43.403   2.762
42781W        W 6505  10.287  13.812  11.984
42782W        W 6506  33.405   1.444   0.959
42783W        W 6507  38.836  36.949  13.542
42784W        W 6508  26.170  44.427   3.716
42785W        W 6509  15.195  11.350   3.698
42786W        W 6510  29.951  21.245   1.277
42787W        W 6511  32.573  40.033  14.936
42788W        W 6512  28.509  17.711   2.291
42789W        W 6513   3.441   3.803   3.316
42790W        W 6514  19.213  37.579  11.502
42791W        W 6515  31.554  42.432  10.888
42792W        W 6516   5.861  25.513  12.348
42793W        W 6517  11.277  39.438   0.907
42794W        W 6518  30.004  13.616   0.255
42795W        W 6519  36.562   5.912  11.070
42796W        W 6520  22.007  31.511  10.605
42797W        W 6521  25.530   5.881  13.988
42798W        W 6522  11.700  13.208  13.852
42799W        W 6523  44.365  33.899   4.287
42800W        W 6524  29.499   2.943  11.933
42801W        W 6525   2.374  34.422  13.805
42802W        W 6526  27.111  10.875   0.359
42803W        W 6527   0.858  27.658  12.895
42804W        W 6528   2.827   1.334   2.735
42805W        W 6529  32.924  38.065  10.480
42806W        W 6530  40.997  38.006  12.029
42807W        W 6531  24.154  20.105   1.842
42808W        W 6532  31.514   3.910   0.924
42809W        W 6533  20.083  38.982  12.490
42810W        W 6534  34.085  24.509  11.462
42811W        W 6535  42.027  38.903  10.088
42812W        W 6536   7.870  10.800   2.775
42813W        W 6537   6.406  41.841   2.345
42814W        W 6538  24.704  22.190   1.298
42815W        W 6539  15.261  17.198   3.370
42816W        W 6540  27.465  28.642   4.238
42817W        W 6541  13.652  29.445   0.454
42818W        W 6542   9.674  15.722   2.746
42819W        W 6543  25.122  18.715   1.836
42820W        W 6544   5.274  11.761   9.556
42821W        W 6545  35.016  15.817   4.114
42822W        W 6546   4.799  18.059   5.191
42823W        W 6547  21.670  26.647  13.987
42824W        W 6548  24.053  12.616  10.125
42825W        W 6549  21.221  15.736  13.936
42826W        W 6550  44.833  32.100   2.735
42827W        W 6551  14.705  31.087   1.784
42828W        W 6552   4.909  18.200   1.759
42829W        W 6553  17.243  16.715  13.840
42830W        W 6554  40.943   6.859   3.826
42831W        W 6555  40.051   9.652  10.494
42832W        W 6556  19.755  41.964   2.273
42833W        W 6557  27.461  23.733  12.889
42834W        W 6558  28.024  33.421   0.331
42835W        W 6559  21.743  26.197  11.394
42836W        W 6560  37.424  26.495   4.275
42837W        W 6561  37.009  29.501  13.894
42838W        W 6562   2.893  42.384  13.309
42839W        W 6563  43.375   5.795   3.344
42840W        W 6564  24.206  28.074  10.089
42841W        W 6565  23.613  17.304   1.890
42842W        W 6566  17.740  10.648  13.439
42843W        W 6567  44.835  42.406   4.607
42844W        W 6568  44.842   2.924  10.413
42845W        W 6569  34.540  18.217  13.464
42846W        W 6570  37.419  41.987   5.172
42847W        W 6571  25.560   2.875  13.868
42848W        W 6572  28.681   1.747   1.746
42849W        W 6573  18.779   1.800   9.973
42850W        W 6574  42.008  29.440   2.364
42851W        W 6575  14.184  17.069  11.088
42852W        W 6576  18.189   0.387  11.965
42853W        W 6577  14.290  38.427  10.930
42854W        W 6578  35.379   1.940   1.288
42855W        W 6579  42.808  41.507  13.810
42856W        W 6580   1.765  24.070  11.935
42857W        W 6581  29.945  10.839  12.907
42858W        W 6582  18.686  43.811  11.861
42859W        W 6583  13.268  34.880  14.890
42860W        W 6584  36.491  26.089  11.979
42861W        W 6585  16.806  32.611   1.859
42862W        W 6586  16.272  42.791  14.357
42863W        W 6587  10.802  12.154   1.268
42864W        W 6588  13.250  16.676  12.019
42865W        W 6589  41.793  14.702  10.966
42866W        W 6590  12.631  37.939   3.722
42867W        W 6591  13.799  14.591  14.030
42868W        W 6592  23.072  20.080   1.283
42869W        W 6593  11.674  37.507  13.845
42870W        W 6594   2.822  21.652   4.186
42871W        W 6595  17.777  36.438  14.513
42872W        W 6596  32.632  19.618  12.007
42873W        W 6597  25.476  38.541  14.781
42874W        W 6598  33.618  29.471  10.534
42875W        W 6599   8.811  35.588   4.731
42876W        W 6600  12.709  39.493  13.417
42877W        W 6601  41.859  20.625   2.196
42878W        W 6602  24.633   5.335  12.019
42879W        W 6603  19.608  18.763  14.840
42880W        W 6604   8.768  28.628  12.559
42881W        W 6605  18.226  38.357   4.619
42882W        W 6606  26.481  30.921  13.382
42883W        W 6607  19.122   3.720   2.240
42884W        W 6608  37.870   0.469  14.392
42885W        W 6609  43.990  13.112   2.735
42886W        W 6610  28.496  14.107   0.951
42887W        W 6611   6.188  17.125   4.779
42888W        W 6612  32.978  23.492   1.367
42889W        W 6613  34.068  14.112   0.425
42890W        W 6614   8.319  10.251  13.000
42891W        W 6615  14.176   2.799   2.290
42892W        W 6616   5.891  30.615  11.487
42893W        W 6617  12.655   6.252  13.864
42894W        W 6618  19.597  43.883   2.258
42895W        W 6619  21.058  30.018  12.522
42896W        W 6620   8.179  30.533  10.895
42897W        W 6621   2.469  39.488   0.919
42898W        W 6622  40.504  34.948   3.251
42899W        W 6623   4.292   6.331  11.874
42900W        W 6624   6.254  24.511  14.327
42901W        W 6625  13.710  10.848   2.888
42902W        W 6626   7.236   0.468   0.318
42903W        W 6627   2.354  43.322   3.722
42904W        W 6628   7.175  13.735  10.963
42905W        W 6629  17.131  31.566   2.259
42906W        W 6630  10.176  31.448   0.406
42907W        W 6631   9.678  34.579   4.798
42908W        W 6632  21.061   5.244  14.965
42909W        W 6633  16.595   5.322  13.836
42910W        W 6634  16.683  14.130  10.089
42911W        W 6635  21.248   7.330   3.230
42912W        W 6636  38.514  11.834  12.516
42913W        W 6637  28.025  17.575  12.521
42914W        W 6638  29.445   0.383  12.478
42915W        W 6639  37.509  21.717   0.419
42916W        W 6640  42.317  35.048   5.639
42917W        W 6641  10.240  13.663  10.424
42918W        W 6642   5.220  38.922  14.448
42919W        W 6643   0.461   8.662   4.189
42920W        W 6644   6.887  38.329   1.339
42921W        W 6645  13.174   5.892   4.753
42922W        W 6646  36.379  36.093  10.967
42923W        W 6647  16.589  16.590   1.921
42924W        W 6648  39.344  31.530   2.816
42925W        W 6649   1.243  41.916  14.870
42926W        W 6650  27.674  40.535  11.898
42927W        W 6651   2.318   6.335   4.744
42928W        W 6652  33.562  28.937   4.721
42929W        W 6653   5.791  11.359  12.520
42930W        W 6654  30.637  15.291   0.319
42931W        W 6655  28.107  42.334  12.416
42932W        W 6656  38.509  42.434   0.826
42933W        W 6657  44.475  16.570   4.611
42934W        W 6658  32.900  34.978   4.134
42935W        W 6659  21.526   2.383   1.339
42936W        W 6660   3.879  32.123   3.320
42937W        W 6661  23.649  40.465   0.477
42938W        W 6662  39.313  22.197  10.011
42939W        W 6663  36.515   8.804  13.335
42940W        W 6664   7.195  21.633  12.858
42941W        W 6665  38.931   2.799   4.745
42942W        W 6666   1.902  38.413  11.991
42943W        W 6667   0.253  23.035   4.781
42944W        W 6668   5.779  23.549  14.765
42945W        W 6669  35.888  41.889   1.326
42946W        W 6670  42.866  41.811   3.858
42947W        W 6671  22.645  15.090   3.732
42948W        W 6672  16.193   5.749   1.724
42949W        W 6673  39.446  30.520   3.667
42950W        W 6674  39.522  41.036  13.508
42951W        W 6675  31.637  21.051  13.875
42952W        W 6676  18.707  12.841  10.953
42953W        W 6677  23.580  36.861  14.021
42954W        W 6678  22.563  25.092   3.834
42955W        W 6679  23.148  44.500  13.418
42956W        W 6680  39.526  24.557  11.463
42957W        W 6681  26.047  29.073   1.891
42958W        W 6682  24.478  33.521   3.302
42959W        W 6683  25.038  11.802  10.058
42960W        W 6684  31.499  17.623  11.450
42961W        W 6685  12.223  35.962   2.276
42962W        W 6686   8.897   6.919  13.032
42963W        W 6687  22.111  11.857   1.212
42964W        W 6688  14.680  24.205  10.463
42965W        W 6689  15.198  44.356  11.609
42966W        W 6690  11.741  14.616   2.850
42967W        W 6691  34.900  23.194   4.233
42968W        W 6692  34.494  18.626  11.044
42969W        W 6693  20.687  41.954   3.197
42970W        W 6694  20.713  34.976   0.843
42971W        W 6695   6.801  25.009   1.822
42972W        W 6696   8.379  37.529   3.693
42973W        W 6697   5.247  29.528  10.105
42974W        W 6698  31.926   6.877  12.851
42975W        W 6699  35.069  39.876  11.519
42976W        W 6700   7.380  38.499   1.709
42977W        W 6701  13.145  32.570   3.185
42978W        W 6702  35.093  18.285  11.555
42979W        W 6703   4.322   7.777   2.263
42980W        W 6704  18.695  21.698  13.328
42981W        W 6705  14.648  13.292   3.671
42982W        W 6706  27.463  35.377  13.832
42983W        W 6707  25.674   9.273   2.711
42984W        W 6708  32.102   7.692  13.372
42985W        W 6709   5.692  18.173   3.695
42986W        W 6710  25.501  10.641   1.758
42987W        W 6711  37.540  23.116  14.988
42988W        W 6712  38.374  24.597   5.722
42989W        W 6713  44.820  17.176  11.011
42990W        W 6714  27.574  13.228   0.900
42991W        W 6715  36.044  25.027  12.496
42992W        W 6716  16.218  35.411   3.331
42993W        W 6717  39.352  19.552  10.971
42994W        W 6718   5.391  30.481  12.565
42995W        W 6719  39.532   3.384   2.789
42996W        W 6720   4.725  30.929   5.206
42997W        W 6721  15.659  29.658   0.242
42998W        W 6722  24.100  14.134  10.421
42999W        W 6723   2.727  22.168   2.198
43000W        W 6724   8.876  23.162  14.026
43001W        W 6725   1.779  39.963  14.973
43002W        W 6726  12.329  27.043  11.579
43003W        W 6727  40.828   6.390   4.221
43004W        W 6728  19.552  25.125   4.633
43005W        W 6729   7.792  16.242  11.903
43006W        W 6730   2.312  17.292  11.581
43007W        W 6731   4.236  21.078   4.313
43008W        W 6732   8.691  35.094   1.708
43009W        W 6733  32.616   4.935   2.180
43010W        W 6734  24.483  10.206   5.103
43011W        W 6735  25.086  24.141   1.894
43012W        W 6736   3.765  17.603  11.910
43013W        W 6737   5.277  40.873   3.818
43014W        W 6738   1.738  41.855   2.738
43015W        W 6739   8.806  24.047  12.865
43016W        W 6740  40.843  11.621  11.423
43017W        W 6741  10.339  18.058  13.963
43018W        W 6742  32.071  26.677  12.000
43019W        W 6743  20.617  23.143  11.397
43020W        W 6744   0.979  26.086  13.485
43021W        W 6745  24.163  14.732  12.968
43022W        W 6746   3.327  39.898   4.667
43023W        W 6747  42.389  20.651  12.921
43024W        W 6748   5.726  42.411   0.296
43025W        W 6749  22.166  19.276   1.286
43026W        W 6750  41.458  27.050   2.779
43027W        W 6751  29.556   5.405   1.917
43028W        W 6752   5.714  10.698   0.293
43029W        W 6753  18.187  14.105   0.788
43030W        W 6754  25.982  28.974  11.595
43031W        W 6755   0.929  28.028   2.255
43032W        W 6756  18.148  44.880  11.480
43033W        W 6757  19.755  43.981  14.478
43034W        W 6758  32.561  42.285   0.407
43035W        W 6759  44.484   2.895   1.888
43036W        W 6760  26.510  29.479  10.560
43037W        W 6761  17.065  37.558  11.419
43038W        W 6762  44.868  34.090  13.054
43039W        W 6763  42.426   3.429   0.790
43040W        W 6764  18.551  24.693   3.278
43041W        W 6765   0.896  40.373  12.943
43042W        W 6766  38.041   9.190  11.427
43043W        W 6767   7.795  23.629  13.497
43044W        W 6768   6.196  22.663   0.780
43045W        W 6769  10.781  34.412   2.727
43046W        W 6770  10.737  13.198   0.443
43047W        W 6771  16.783   6.351   3.824
43048W        W 6772  12.221  33.621   0.851
43049W        W 6773   2.889  35.862   2.399
43050W        W 6774   7.762  41.976   2.691
43051W        W 6775  37.912  43.813  13.321
43052W        W 6776  10.325   5.779  12.414
43053W        W 6777  10.834  25.497  12.465
43054W        W 6778   5.778  10.374   4.195
43055W        W 6779  17.274  11.636   0.300
43056W        W 6780  11.748  31.943  11.081
43057W        W 6781  23.207  10.173  11.497
43058W        W 6782  44.452  11.728   0.381
43059W        W 6783  16.296   5.205   0.953
43060W        W 6784  40.471  43.819  14.357
43061W        W 6785  13.791   5.898  12.434
43062W        W 6786  31.568  13.837  10.543
43063W        W 6787  30.419   0.383  14.484
43064W        W 6788  10.708  26.516  10.550
43065W        W 6789  31.487  14.103   2.335
43066W        W 6790   8.270  31.407  14.469
43067W        W 6791   1.770  19.731  12.929
43068W        W 6792  14.792   3.796   0.407
43069W        W 6793  37.504   0.366  13.545
43070W        W 6794  43.424  39.999   3.326
43071W        W 6795  31.467  42.515   3.223
43072W        W 6796   5.394   4.358   1.724
43073W        W 6797   3.367  39.046  14.297
43074W        W 6798  14.761  31.514  12.971
43075W        W 6799  28.481  14.703  10.642
43076W        W 6800   4.408  42.020   4.140
43077W        W 6801   3.326  33.559   0.451
43078W        W 6802  29.101  10.774   4.610
43079W        W 6803  17.641   7.721   4.773
43080W        W 6804   9.666  10.791   4.809
43081W        W 6805  29.591   5.357   1.237
43082W        W 6806  18.051   5.295   3.276
43083W        W 6807   6.380  28.122  10.132
43084W        W 6808  28.186  35.540  13.907
43085W        W 6809  11.243  16.209   4.196
43086W        W 6810  30.482  16.757   2.781
43087W        W 6811  32.398  19.576  13.852
43088W        W 6812  43.355   6.332   3.718
43089W        W 6813  17.154   5.398   2.363
43090W        W 6814  23.520  20.149  13.468
43091W        W 6815  36.384   3.299   4.341
43092W        W 6816  28.948  34.594  13.058
43093W        W 6817  23.578  43.867   2.676
43094W        W 6818  35.070  24.195   1.246
43095W        W 6819  33.919  34.522   0.452
43096W        W 6820   9.822  23.590  10.913
43097W        W 6821  29.174  33.955   1.908
43098W        W 6822   4.375  23.077   2.315
43099W        W 6823  11.856  20.201  13.531
43100W        W 6824  42.851  12.618   3.321
43101W        W 6825  29.636   3.847  12.552
43102W        W 6826  44.761  15.703  12.579
43103W        W 6827   4.232   6.914   1.886
43104W        W 6828  15.686  20.102   0.873
43105W        W 6829  24.211  11.659  10.480
43106W        W 6830  31.416  33.428  12.489
43107W        W 6831  26.159   6.809   4.114
43108W        W 6832  31.572   6.397   4.294
43109W        W 6833  26.689  33.591  11.547
43110W        W 6834  11.622  18.257  10.032
43111W        W 6835  25.612  40.319   3.383
43112W        W 6836  38.884  21.542   3.709
43113W        W 6837  24.094  37.387   0.937
43114W        W 6838  32.927  12.166  11.466
43115W        W 6839  28.571   0.866  12.534
43116W        W 6840  14.107  28.678  11.112
43117W        W 6841  18.554   2.826  13.496
43118W        W 6842  23.681   0.971  14.921
43119W        W 6843  13.257   6.856   1.215
43120W        W 6844  34.615   2.309  11.076
43121W        W 6845  40.799  18.256  12.421
43122W        W 6846  39.919  34.873  14.495
43123W        W 6847   7.333  33.617   4.618
43124W        W 6848  39.328  23.723  11.532
43125W        W 6849  12.660   9.207  12.050
43126W        W 6850  35.914  38.398   2.805
43127W        W 6851  28.149  41.419   4.715
43128W        W 6852  24.683  19.535  10.570
43129W        W 6853   2.327  11.156   4.140
43130W        W 6854  18.776   6.748   3.210
43131W        W 6855  43.482  16.190   4.801
43132W        W 6856  21.234   6.765   1.446
43133W        W 6857  22.135  31.543   2.867
43134W        W 6858  18.672   5.721   4.271
43135W        W 6859   8.311  42.906  11.543
43136W        W 6860   9.870  33.017   2.376
43137W        W 6861  32.612  22.712  12.067
43138W        W 6862  14.788  23.200  12.427
43139W        W 6863  44.802  30.024   0.293
43140W        W 6864  24.220  32.120  11.437
43141W        W 6865  18.594  36.887   4.352
43142W        W 6866  27.109  11.712  11.583
43143W        W 6867   3.901   1.748   3.157
43144W        W 6868  33.520  44.957  12.081
43145W        W 6869   8.303  37.493  12.040
43146W        W 6870  18.601  28.106  13.009
43147W        W 6871  39.829   0.342   5.148
43148W        W 6872  18.252  10.789   0.362
43149W        W 6873  30.488   8.317   4.118
43150W        W 6874  40.837  28.151  13.897
43151W        W 6875  14.279  26.698  11.030
43152W        W 6876  10.725  18.648   0.842
43153W        W 6877  32.084   6.775   1.289
43154W        W 6878  21.527  17.585  13.358
43155W        W 6879  38.059   3.942   1.736
43156W        W 6880   4.314  31.915   4.310
43157W        W 6881   1.285  15.290  14.851
43158W        W 6882  20.701  14.670   0.906
43159W        W 6883   4.799  34.959  11.877
43160W        W 6884  38.367  41.311  13.543
43161W        W 6885   9.188   2.304  10.405
43162W        W 6886  32.077  28.162  14.963
43163W        W 6887  20.712   8.259  12.347
43164W        W 6888  16.626  42.344   2.296
43165W        W 6889  11.194  38.037   2.816
43166W        W 6890  25.068  15.810   1.716
43167W        W 6891  36.347  39.829   0.365
43168W        W 6892  37.853  33.598   2.327
43169W        W 6893  30.498  32.930  10.987
43170W        W 6894   2.457  36.861   2.867
43171W        W 6895  17.207  17.588  12.491
43172W        W 6896  30.093  43.784  13.896
43173W        W 6897  37.925   0.801   2.744
43174W        W 6898  15.147   2.324  13.919
43175W        W 6899   5.892  18.754  11.865
43176W        W 6900   7.227   5.844  13.923
43177W        W 6901  23.093  36.959   3.660
43178W        W 6902   3.719  21.259  14.385
43179W        W 6903  37.085  15.262   3.387
43180W        W 6904  28.661  39.063   2.718
43181W        W 6905   6.715  24.976   4.633
43182W        W 6906  12.838  12.621   2.901
43183W        W 6907   7.834  35.407   1.846
43184W        W 6908  26.988  37.370  10.993
43185W        W 6909  28.132  11.220  12.427
43186W        W 6910  40.500   9.212   4.264
43187W        W 6911  18.786  38.850   3.185
43188W        W 6912   2.833  35.598  14.996
43189W        W 6913  34.453  26.626   9.955
43190W        W 6914  42.879  26.040  12.992
43191W        W 6915  34.514  28.497  11.043
43192W        W 6916   1.938  37.914   3.828
43193W        W 6917  30.570   7.189  12.548
43194W        W 6918  34.940  17.649  10.095
43195W        W 6919  41.810  12.259  10.930
43196W        W 6920  21.108  16.749  13.987
43197W        W 6921   7.388  39.375  13.309
43198W        W 6922  25.624  15.307   4.733
43199W        W 6923  30.134  16.641   2.249
43200W        W 6924  42.343  14.146   0.916
43201W        W 6925  38.870  22.532  11.996
43202W        W 6926   7.876  17.255   2.797
43203W        W 6927  21.033  17.759  11.110
43204W        W 6928  27.566  26.570  14.819
43205W        W 6929  41.871  17.087  10.518
43206W        W 6930  33.964  10.353   2.826
43207W        W 6931  18.075  15.610  10.922
43208W        W 6932  37.397  24.047   0.774
43209W        W 6933  15.598   8.350   3.310
43210W        W 6934  43.497  28.006   2.292
43211W        W 6935  34.462  31.133  13.892
43212W        W 6936  36.927  29.542  14.507
43213W        W 6937   1.253  25.061   0.480
43214W        W 6938  14.166  41.452  14.845
43215W        W 6939  22.094  13.305   4.272
43216W        W 6940  14.652  34.474  13.993
43217W        W 6941  44.820  19.604   3.264
43218W        W 6942   9.773  13.231  12.351
43219W        W 6943  11.168  22.085  11.392
43220W        W 6944  22.589   1.936  14.289
43221W        W 6945  15.618  30.443   2.383
43222W        W 6946  30.100  42.819   2.834
43223W        W 6947  30.442   2.822  14.812
43224W        W 6948  32.400  32.508   1.739
43225W        W 6949   6.826  38.541   3.663
43226W        W 6950  37.075  38.329   2.755
43227W        W 6951  18.143  39.046   4.309
43228W        W 6952  22.210   4.828   0.897
43229W        W 6953   7.171  18.137   0.815
43230W        W 6954  37.895  14.340  10.570
43231W        W 6955   4.861  43.823   4.749
43232W        W 6956  39.516  19.772   0.401
43233W        W 6957   4.814  11.816  10.998
43234W        W 6958   6.316  34.441  14.296
43235W        W 6959  43.827  23.140  10.439
43236W        W 6960  35.596  14.234   0.806
43237W        W 6961  37.339  17.135  13.059
43238W        W 6962  29.637  34.448  13.846
43239W        W 6963  30.048  41.392  12.345
43240W        W 6964   0.786  28.640  12.348
43241W        W 6965  41.030  19.201  11.869
43242W        W 6966  35.095  17.075   0.251
43243W        W 6967  16.282  33.563   3.260
43244W        W 6968  41.530   3.910   3.671
43245W        W 6969  22.071  40.848  11.542
43246W        W 6970  29.929  22.597   4.245
43247W        W 6971  23.054   3.381   3.737
43248W        W 6972  44.905  17.768   2.747
43249W        W 6973  14.161  44.505  14.032
43250W        W 6974   9.228  23.535  10.510
43251W        W 6975  44.331  38.423   1.423
43252W        W 6976  21.722  42.031   3.812
43253W        W 6977  39.462  17.656   2.181
43254W        W 6978   8.806  44.816  13.371
43255W        W 6979  42.793  14.273   4.336
43256W        W 6980  44.317  42.285  14.357
43257W        W 6981  40.872  31.526   1.383
43258W        W 6982   0.410  44.370   2.662
43259W        W 6983   6.802   3.878   2.239
43260W        W 6984  41.030  18.789   3.323
43261W        W 6985  13.650  21.738   3.824
43262W        W 6986  25.587  43.978  11.118
43263W        W 6987  44.772  35.440   3.699
43264W        W 6988   0.487   9.889  11.434
43265W        W 6989  38.072   3.337   4.258
43266W        W 6990  41.929  19.745  13.040
43267W        W 6991   7.361  33.412   3.355
43268W        W 6992  14.098  10.855  12.016
43269W        W 6993  19.058  21.526   0.279
43270W        W 6994  30.100  14.614  11.568
43271W        W 6995  37.046   5.775  13.012
43272W        W 6996  27.690  18.086   2.283
43273W        W 6997  16.312  27.584  14.779
43274W        W 6998  27.981   1.454  14.763
43275W        W 6999  18.671  18.137  13.949
43276W        W 7000  31.965  36.887  11.956
43277W        W 7001  34.601  18.178  10.922
43278W        W 7002  25.556  42.978   4.351
43279W        W 7003   0.928  16.610   2.812
43280W        W 7004  27.553  15.748   0.851
43281W        W 7005   0.759   0.773   2.199
43282W        W 7006  39.435  36.539   3.708
43283W        W 7007  36.464  12.838   1.315
43284W        W 7008  19.647  32.923   1.756
43285W        W 7009  17.779  21.123  14.781
43286W        W 7010  28.649   0.831  12.921
43287W        W 7011  22.551  21.595  10.463
43288W        W 7012  36.509  21.060   0.738
43289W        W 7013   0.884  34.413   2.355
43290W        W 7014  15.807  44.502   5.168
43291W        W 7015   9.314  19.095  14.836
43292W        W 7016   2.730  18.147   0.253
43293W        W 7017  35.432  36.406  11.027
43294W        W 7018  26.656  27.064   2.239
43295W        W 7019  22.593  23.208   3.268
43296W        W 7020   7.280  40.842  12.396
43297W        W 7021  12.821  35.097  14.805
43298W        W 7022  36.383   2.963  12.479
43299W        W 7023  43.891  29.521  14.293
43300W        W 7024  14.163  16.243   2.822
43301W        W 7025  30.152   8.174   2.751
43302W        W 7026  38.865  14.824   1.395
43303W        W 7027  15.151  38.066   4.623
43304W        W 7028  40.002  15.219  11.440
43305W        W 7029  25.139  13.821   3.234
43306W        W 7030  33.025  11.633   2.287
43307W        W 7031   0.458  41.919   4.192
43308W        W 7032  11.779  12.659  13.434
43309W        W 7033  34.947  26.480   2.254
43310W        W 7034  27.575  11.276  13.324
43311W        W 7035  16.315  36.550   3.787
43312W        W 7036  21.187  44.862  13.454
43313W        W 7037  41.792  21.244   1.731
43314W        W 7038  38.888  34.416  10.644
43315W        W 7039  25.525  37.025  13.489
43316W        W 7040  30.118  39.840  13.531
43317W        W 7041  12.324  23.999  12.927
43318W        W 7042   9.835  30.935   1.291
43319W        W 7043   6.771   5.213  11.051
43320W        W 7044  16.678  39.396   4.213
43321W        W 7045  43.822   5.702  11.011
43322W        W 7046  24.627   2.277   4.615
43323W        W 7047  28.994  40.359   0.832
43324W        W 7048   5.205   2.770  12.553
43325W        W 7049  36.984  22.536   1.353
43326W        W 7050  38.419  37.855   2.879
43327W        W 7051   3.790  13.235  14.017
43328W        W 7052  31.617  22.043   2.674
43329W        W 7053  28.017  42.007   0.946
43330W        W 7054  11.846  20.231   1.815
43331W        W 7055  39.952   2.266  12.453
43332W        W 7056  12.334  40.856   4.238
43333W        W 7057  22.044  14.740   4.278
43334W        W 7058   1.828   7.304  14.924
43335W        W 7059   4.774  25.547   1.357
43336W        W 7060  19.768  18.053   3.675
43337W        W 7061   3.752  27.021  10.468
43338W        W 7062  23.079  15.707  14.978
43339W        W 7063  24.118   8.664  10.437
43340W        W 7064  17.241   7.177  14.307
43341W        W 7065  30.578  35.904   0.804
43342W        W 7066   3.756  28.481   3.195
43343W        W 7067  33.117   9.773  12.899
43344W        W 7068  34.941  26.003   2.783
43345W        W 7069  36.977  19.727   3.646
43346W        W 7070  42.975  13.133   0.813
43347W        W 7071  11.754  27.015   1.789
43348W        W 7072  29.447   5.330   2.766
43349W        W 7073  30.070  12.750  11.437
43350W        W 7074  44.385  21.551   0.754
43351W        W 7075  26.640  29.112  13.940
43352W        W 7076  29.614  25.491   4.336
43353W        W 7077   5.267  41.790   2.230
43354W        W 7078  34.069   1.481  11.020
43355W        W 7079  25.699  31.914   3.817
43356W        W 7080  29.646  24.497  13.460
43357W        W 7081  36.422  32.945  11.596
43358W        W 7082   0.785  37.378  14.839
43359W        W 7083  21.106  43.422   5.272
43360W        W 7084  11.251  16.741  13.845
43361W        W 7085  36.066  39.407  11.048
43362W        W 7086  22.049   2.246  12.566
43363W        W 7087  43.831  14.715  10.504
43364W        W 7088  31.905  38.447   2.874
43365W        W 7089  11.807  16.081   0.857
43366W        W 7090  36.573  30.037   0.960
43367W        W 7091   4.929  38.408   3.840
43368W        W 7092  23.993   1.764  12.550
43369W        W 7093  36.559  21.701  12.447
43370W        W 7094  20.524   8.703   4.651
43371W        W 7095   8.772  38.369   4.216
43372W        W 7096  30.021  15.696  14.313
43373W        W 7097  37.951   2.422  10.408
43374W        W 7098  41.513  43.935   1.844
43375W        W 7099  38.563   6.786  12.056
43376W        W 7100  13.790  17.081  11.971
43377W        W 7101  37.557  43.481   3.178
43378W        W 7102  13.167  26.545  11.014
43379W        W 7103  32.571   6.735   4.146
43380W        W 7104  18.700  35.406   3.743
43381W        W 7105  33.551  37.491   4.297
43382W        W 7106   9.880  29.148  14.485
43383W        W 7107  20.538   0.841  12.501
43384W        W 7108  15.662  16.309  14.473
43385W        W 7109  20.545  43.918   3.181
43386W        W 7110  11.798  33.970   2.731
43387W        W 7111  21.049  19.054   4.820
43388W        W 7112  23.602  33.407  13.823
43389W        W 7113  43.783  35.001   2.316
43390W        W 7114  10.318   4.397   1.339
43391W        W 7115   3.227   6.377   3.292
43392W        W 7116  32.948  31.625   1.372
43393W        W 7117  23.617  10.682  14.479
43394W        W 7118  20.759  36.508   4.766
43395W        W 7119   8.674  43.424  14.981
43396W        W 7120  33.078  28.586  13.818
43397W        W 7121  44.772  10.144   4.826
43398W        W 7122  14.248  35.079  14.851
43399W        W 7123  33.015  10.777  11.535
43400W        W 7124  35.974  24.188  13.463
43401W        W 7125  17.142  34.506   3.249
43402W        W 7126  18.576  14.238   1.908
43403W        W 7127  25.630   6.749   2.739
43404W        W 7128   1.846   9.859   3.275
43405W        W 7129   7.393   2.351   4.620
43406W        W 7130  38.914  40.809   1.306
43407W        W 7131  23.621   6.912  14.349
43408W        W 7132  18.178  11.301  13.969
43409W        W 7133   8.398  34.442   0.439
43410W        W 7134  20.187   7.204  11.396
43411W        W 7135  20.052  13.703   5.292
43412W        W 7136  15.152  21.724  11.454
43413W        W 7137   0.867  20.704  14.978
43414W        W 7138  13.837   1.479   0.862
43415W        W 7139   4.785   5.769   3.172
43416W        W 7140  10.337  12.238   4.132
43417W        W 7141  11.156  30.136   2.290
43418W        W 7142  13.348  34.053   1.935
43419W        W 7143  33.510   7.689  11.929
43420W        W 7144  19.573  11.271   4.277
43421W        W 7145  39.520   3.811  13.472
43422W        W 7146  21.756  14.639  11.127
43423W        W 7147  35.462  18.732  11.567
43424W        W 7148  10.169  26.695   4.165
43425W        W 7149  23.528  44.765   0.282
43426W        W 7150  14.770  39.467  11.870
43427W        W 7151  34.395  42.408   4.790
43428W        W 7152  32.936  38.954   4.245
43429W        W 7153   2.887  31.148   1.400
43430W        W 7154  19.679  44.855  14.001
43431W        W 7155  41.354   9.673  14.837
43432W        W 7156  41.024  24.080   2.204
43433W        W 7157   3.868  23.156   4.236
43434W        W 7158  36.035   5.331  14.973
43435W        W 7159  41.919  32.027   3.639
43436W        W 7160  30.529   5.320   4.207
43437W        W 7161  29.632   9.173  13.341
43438W        W 7162  44.308  29.077   1.422
43439W        W 7163  33.494   6.328  12.491
43440W        W 7164  33.092  36.993   4.821
43441W        W 7165   6.428  15.251   2.346
43442W        W 7166  21.620  29.010   3.307
43443W        W 7167  42.003  40.533  14.932
43444W        W 7168  41.487  39.932  11.510
43445W        W 7169  44.497  22.534  14.510
43446W        W 7170  10.694   7.858   1.393
43447W        W 7171   0.316  42.883   1.380
43448W        W 7172   5.386   4.778  13.961
43449W        W 7173  11.185  12.286  11.596
43450W        W 7174  11.187  32.443  12.536
43451W        W 7175  44.918  12.171   4.676
43452W        W 7176   0.928   2.814  10.895
43453W        W 7177  25.627  11.326  10.527
43454W        W 7178   4.241  40.050  10.626
43455W        W 7179  14.673  10.736   0.953
43456W        W 7180  28.096  12.361  13.826
43457W        W 7181   6.827  14.596   2.879
43458W        W 7182  32.047  33.384  10.606
43459W        W 7183  27.554  15.214  12.468
43460W        W 7184  33.410  13.771  14.474
43461W        W 7185  33.057  39.843  12.556
43462W        W 7186  21.732  18.070  14.786
43463W        W 7187  33.430  38.064  12.422
43464W        W 7188  39.973   7.414  12.451
43465W        W 7189   6.247  43.842   3.191
43466W        W 7190  13.151  12.171   1.847
43467W        W 7191  43.972  23.632  12.361
43468W        W 7192  19.246  17.640   5.193
43469W        W 7193  44.470  35.466   2.736
43470W        W 7194  37.849   4.309  13.856
43471W        W 7195  15.651   8.214  11.962
43472W        W 7196  27.464  16.257  10.445
43473W        W 7197  44.901   2.720  14.297
43474W        W 7198  20.717  30.617  14.876
43475W        W 7199   9.785  24.634  10.520
43476W        W 7200   1.276  11.673  10.634
43477W        W 7201  16.635  24.132  14.763
43478W        W 7202   4.758   5.715   2.736
43479W        W 7203   9.314  15.191   4.750
43480W        W 7204  44.000  12.277  13.970
43481W        W 7205   1.473  17.243  13.895
43482W        W 7206  41.852  22.139   1.274
43483W        W 7207  27.985  37.042   0.420
43484W        W 7208  13.315  28.948   2.899
43485W        W 7209   0.890   4.941  11.024
43486W        W 7210  30.478  19.540   2.400
43487W        W 7211  28.554  37.356   3.189
43488W        W 7212  10.370  43.843  11.028
43489W        W 7213  15.734   4.364  14.458
43490W        W 7214  38.515   3.458  11.554
43491W        W 7215  10.242  22.237  13.472
43492W        W 7216  28.658   0.262  10.981
43493W        W 7217  22.054  15.643   3.745
43494W        W 7218  28.946   0.263  12.825
43495W        W 7219   6.708  12.204   2.809
43496W        W 7220  28.524   8.840  11.078
43497W        W 7221  34.443  23.663  12.414
43498W        W 7222   8.782  23.201   2.394
43499W        W 7223  11.179  34.061   4.304
43500W        W 7224  33.466  12.355   5.177
43501W        W 7225  27.583   4.885   2.759
43502W        W 7226  33.028  41.411  13.467
43503W        W 7227   9.279  23.693   3.689
43504W        W 7228  31.010  43.906  13.046
43505W        W 7229  15.290  16.125  13.966
43506W        W 7230  37.085   3.907  13.374
43507W        W 7231   4.423   7.694   1.773
43508W        W 7232  20.079  34.441  12.451
43509W        W 7233  30.651  26.154   4.614
43510W        W 7234   3.271  35.012  10.405
43511W        W 7235  41.938  22.094  10.590
43512W        W 7236  31.970   4.388   0.298
43513W        W 7237  31.029  16.616  11.990
43514W        W 7238   0.864  26.664  14.913
43515W        W 7239  32.907  36.897   2.239
43516W        W 7240   8.665  39.906   4.254
43517W        W 7241  22.038  27.581   0.313
43518W        W 7242  33.131  39.333  11.914
43519W        W 7243  35.369  16.119  13.309
43520W        W 7244  29.035  36.956   1.841
43521W        W 7245  14.608   4.878  14.455
43522W        W 7246   9.838  26.022   0.388
43523W        W 7247  12.258  23.697  14.324
43524W        W 7248  17.769  28.157   1.809
43525W        W 7249  44.392  18.661   1.425
43526W        W 7250  16.176  10.251   4.318
43527W        W 7251  38.028  12.193   1.732
43528W        W 7252  27.505  10.273   2.345
43529W        W 7253   4.287  30.463   2.358
43530W        W 7254  24.614  27.108  12.356
43531W        W 7255  12.685  16.779   2.791
43532W        W 7256  34.874   8.686   4.818
43533W        W 7257   4.257  24.520   4.289
43534W        W 7258  35.378  13.713  11.948
43535W        W 7259   0.479  42.018   4.838
43536W        W 7260  29.616  13.643  10.519
43537W        W 7261  44.963  21.713   0.836
43538W        W 7262  27.624  32.998   0.731
43539W        W 7263   5.244  43.838  13.797
43540W        W 7264  37.577   7.697   0.916
43541W        W 7265   6.389  34.506   3.316
43542W        W 7266  26.652  25.680   5.240
43543W        W 7267  28.078  17.253   3.787
43544W        W 7268  12.240  39.557   2.267
43545W        W 7269   4.367  12.243   9.656
43546W        W 7270  23.211  23.045   2.379
43547W        W 7271  21.622   7.880   2.715
43548W        W 7272  38.854  30.550  12.480
43549W        W 7273  12.277  18.165  11.535
43550W        W 7274  28.505   8.164  12.949
43551W        W 7275  13.348  30.537   1.266
43552W        W 7276  34.044  19.247  11.427
43553W        W 7277  12.843  39.931  13.979
43554W        W 7278  11.825  44.947  14.352
43555W        W 7279  35.934  17.261  12.383
43556W        W 7280  43.439  41.494  10.099
43557W        W 7281   3.780  32.013  13.437
43558W        W 7282   3.344  39.406   4.749
43559W        W 7283  37.852  31.063   4.258
43560W        W 7284  15.770   5.367   0.726
43561W        W 7285  20.709  19.066   3.754
43562W        W 7286  30.590  19.118  14.905
43563W        W 7287  21.616  22.208   4.219
43564W        W 7288  21.262  17.177  12.830
43565W        W 7289  42.797   7.388   2.690
43566W        W 7290  29.639  21.590  11.125
43567W        W 7291  32.400  23.683   4.769
43568W        W 7292   4.368   7.263   4.323
43569W        W 7293  39.845  26.082  10.441
43570W        W 7294  27.941  41.789   3.656
43571W        W 7295  14.734   8.686   3.783
43572W        W 7296  39.836  37.983   1.379
43573W        W 7297  38.551   0.915   0.356
43574W        W 7298  28.124  24.109   3.301
43575W        W 7299  29.067   1.395  11.963
43576W        W 7300  40.322  37.950  13.535
43577W        W 7301   4.301   4.398   3.160
43578W        W 7302   3.762  42.781   2.862
43579W        W 7303  17.640  36.415   2.262
43580W        W 7304  25.542  27.009  11.868
43581W        W 7305  11.686  40.839   4.689
43582W        W 7306  44.418  40.816   1.786
43583W        W 7307   4.878  34.894   1.296
43584W        W 7308  18.675  10.209   4.607
43585W        W 7309  17.762   6.312  10.129
43586W        W 7310   3.362  16.291   3.669
43587W        W 7311  28.985  40.053  10.445
43588W        W 7312  18.748  29.632   1.928
43589W        W 7313  43.887   2.924   1.718
43590W        W 7314  33.091  12.143   2.697
43591W        W 7315  23.136  34.016   1.808
43592W        W 7316   0.404   6.739  13.974
43593W        W 7317  29.129   6.820   1.280
43594W        W 7318  32.963  40.425  12.455
43595W        W 7319  41.434  34.595   0.353
43596W        W 7320  20.259  41.828  13.856
43597W        W 7321  11.661  14.743   0.939
43598W        W 7322  32.023   3.377  13.870
43599W        W 7323  12.182  34.061   2.215
43600W        W 7324  32.980  35.458  13.393
43601W        W 7325  29.082  26.073   4.335
43602W        W 7326  29.640  19.544   1.733
43603W        W 7327  28.442   4.927  10.429
43604W        W 7328  33.569  39.975  12.879
43605W        W 7329  10.161  14.624   4.287
43606W        W 7330  35.572  25.624  14.372
43607W        W 7331  22.006  20.548   4.707
43608W        W 7332  24.647  14.199  11.481
43609W        W 7333  32.423  28.444  12.523
43610W        W 7334   3.794   7.827  11.099
43611W        W 7335  32.132  32.947   0.832
43612W        W 7336  10.315  11.781  11.416
43613W        W 7337   7.787  32.398  12.855
43614W        W 7338  18.104  11.708  11.035
43615W        W 7339  33.046  38.990  13.317
43616W        W 7340  30.103  39.057   0.861
43617W        W 7341   8.246  25.590   2.832
43618W        W 7342  26.545  39.417  12.480
43619W        W 7343   2.879  22.732   1.770
43620W        W 7344  19.203   1.423   3.816
43621W        W 7345  34.446  26.110   0.796
43622W        W 7346   4.806  21.635   1.742
43623W        W 7347  30.129  29.031   2.879
43624W        W 7348  17.248   1.373   3.328
43625W        W 7349  36.384  16.256   1.866
43626W        W 7350  43.925  24.122   4.296
43627W        W 7351  28.111  13.118   4.725
43628W        W 7352  17.107  18.579   2.778
43629W        W 7353  11.815  11.334  14.419
43630W        W 7354  19.572  19.213  11.985
43631W        W 7355  44.956  35.475   4.602
43632W        W 7356  25.560  37.863   1.918
43633W        W 7357  31.598  21.609  12.989
43634W        W 7358  39.911   4.334   1.743
43635W        W 7359  39.364   8.736   1.856
43636W        W 7360  28.635  14.778  12.463
43637W        W 7361  23.211  10.725  14.007
43638W        W 7362  42.016  31.025  14.468
43639W        W 7363   2.364  39.531  14.399
43640W        W 7364  30.421   8.186  11.036
43641W        W 7365   5.426  44.297   2.410
43642W        W 7366  15.101  12.726  10.911
43643W        W 7367  34.452  14.149   0.915
43644W        W 7368  20.193   4.765  14.318
43645W        W 7369  35.872  36.859  11.009
43646W        W 7370  15.584   5.402  11.384
43647W        W 7371  44.389  35.448  14.326
43648W        W 7372  19.588  23.708   3.676
43649W        W 7373  21.696   7.766  11.387
43650W        W 7374   2.789  33.573   4.176
43651W        W 7375  31.908  12.684   0.460
43652W        W 7376  25.139  13.738  10.547
43653W        W 7377  11.188  29.061  13.986
43654W        W 7378  42.327  37.422   3.225
43655W        W 7379  10.677  28.495   4.822
43656W        W 7380   5.290  13.830   2.874
43657W        W 7381  35.952  31.043   3.300
43658W        W 7382  44.008   1.449  11.116
43659W        W 7383  17.141   2.766  12.541
43660W        W 7384   8.733  18.065  12.904
43661W        W 7385  32.547  10.250  12.926
43662W        W 7386   3.843   1.477   4.128
43663W        W 7387  12.687  36.925  12.020
43664W        W 7388   5.238  27.534   0.284
43665W        W 7389   2.283  42.990   0.363
43666W        W 7390  37.083  13.725   9.466
43667W        W 7391  11.733  25.677  13.980
43668W        W 7392  36.490  23.118   2.375
43669W        W 7393  18.177  16.676  10.452
43670W        W 7394   0.742  16.238  10.996
43671W        W 7395  35.085  11.776   2.326
43672W        W 7396  14.168   7.855   5.112
43673W        W 7397  22.619  22.569   1.295
43674W        W 7398  30.647  43.349   0.894
43675W        W 7399  36.952  24.655   4.202
43676W        W 7400   6.251  24.172  13.828
43677W        W 7401  22.173  28.128  13.317
43678W        W 7402  29.148  30.649   3.358
43679W        W 7403   4.246  20.719   2.392
43680W        W 7404   4.817   5.365   0.323
43681W        W 7405  26.069  22.643  10.941
43682W        W 7406  44.841  16.299   1.408
43683W        W 7407   6.370  25.081   3.326
43684W        W 7408  25.633  39.013  12.554
43685W        W 7409   8.897  17.143   4.630
43686W        W 7410  41.947  22.599   0.425
43687W        W 7411   0.787  40.819   0.296
43688W        W 7412   3.363  36.977   1.417
43689W        W 7413  15.795  31.600  10.503
43690W        W 7414  38.819  23.025  14.857
43691W        W 7415   4.294  36.471  10.534
43692W        W 7416   3.758   1.877  10.069
43693W        W 7417  16.135   2.300   3.663
43694W        W 7418   4.930  29.125  10.501
43695W        W 7419  31.961  35.107  14.979
43696W        W 7420  12.317  22.537  11.995
43697W        W 7421  40.537  44.853   0.438
43698W        W 7422  35.023  39.929  12.466
43699W        W 7423  34.055  32.613   0.877
43700W        W 7424  44.390  26.185  13.518
43701W        W 7425  32.024   9.251   2.226
43702W        W 7426  44.941  43.478  10.917
43703W        W 7427   2.252  34.119   0.460
43704W        W 7428   2.319   6.839  11.519
43705W        W 7429   4.444  39.410  11.891
43706W        W 7430  30.040  16.150   3.827
43707W        W 7431  22.683   7.346   1.391
43708W        W 7432   6.760   6.884   4.202
43709W        W 7433   7.795  30.044   3.273
43710W        W 7434  13.659   2.867  12.036
43711W        W 7435  37.888  16.811  14.955
43712W        W 7436  36.440  37.559   2.228
43713W        W 7437   7.872   4.856   3.245
43714W        W 7438  19.120  43.004  12.946
43715W        W 7439  35.870   1.358  11.874
43716W        W 7440  20.242  10.169  12.466
43717W        W 7441   8.697  21.598  13.377
43718W        W 7442  29.010  29.134   3.316
43719W        W 7443  25.974  25.471  14.394
43720W        W 7444  19.634   7.695   3.714
43721W        W 7445  25.618   5.705  10.440
43722W        W 7446  25.598  10.790   0.321
43723W        W 7447  18.729  40.427   2.359
43724W        W 7448  18.290  17.557   1.827
43725W        W 7449  41.343  30.625   4.177
43726W        W 7450  32.094  16.125  10.566
43727W        W 7451  16.599  13.218   1.346
43728W        W 7452  24.227  37.565  14.408
43729W        W 7453  37.898  39.473  12.083
43730W        W 7454  30.163  27.469  13.043
43731W        W 7455  43.436   1.800   1.348
43732W        W 7456  14.719  19.713   9.933
43733W        W 7457  27.666  44.874  13.362
43734W        W 7458  14.100   7.185   0.851
43735W        W 7459  35.421  27.590  11.966
43736W        W 7460  31.437   0.912   3.258
43737W        W 7461  38.455  36.432   3.359
43738W        W 7462  30.933  42.373   2.194
43739W        W 7463  27.578  41.294  13.366
43740W        W 7464   2.243   0.976   3.656
43741W        W 7465  43.841  16.682   2.231
43742W        W 7466   4.398  19.081   4.813
43743W        W 7467  21.130  16.774  12.020
43744W        W 7468  35.436  10.357  13.496
43745W        W 7469  17.161  26.627   3.360
43746W        W 7470  18.123   2.241   4.762
43747W        W 7471  15.132   6.707   3.169
43748W        W 7472  44.458  44.309   1.409
43749W        W 7473  24.070  22.191   3.782
43750W        W 7474   0.354  35.583  12.094
43751W        W 7475  28.146  44.003   4.213
43752W        W 7476  28.544  31.094  14.800
43753W        W 7477  40.977  16.581   1.213
43754W        W 7478  41.920  34.982   1.819
43755W        W 7479  15.652  35.576  11.975
43756W        W 7480   2.781  25.671  13.057
43757W        W 7481  20.555  14.159  10.083
43758W        W 7482  35.543  14.317  10.917
43759W        W 7483   5.768  16.664  12.828
43760W        W 7484  41.967  22.170  11.864
43761W        W 7485  36.086  10.738   0.405
43762W        W 7486  20.095  14.601   2.216
43763W        W 7487  11.191  42.512  11.117
43764W        W 7488   9.345   2.831  12.004
43765W        W 7489  14.294   2.382  12.484
43766W        W 7490  21.718  24.207  12.483
43767W        W 7491  14.756  22.207   0.856
43768W        W 7492  19.208  15.116  14.020
43769W        W 7493  33.502   1.279   2.743
43770W        W 7494  14.777   3.862   1.211
43771W        W 7495  43.817  23.036  14.885
43772W        W 7496  35.454  36.859   0.476
43773W        W 7497  16.120   7.665   1.723
43774W        W 7498  26.701   8.802   0.793
43775W        W 7499   6.212   1.780   2.284
43776W        W 7500  42.957   4.345  14.924
43777W        W 7501  42.426   0.424   2.771
43778W        W 7502  21.569  34.575   3.720
43779W        W 7503  22.021  40.317   0.840
43780W        W 7504  25.554   9.830   4.286
43781W        W 7505  34.496  41.805  10.449
43782W        W 7506  18.718  25.134  10.103
43783W        W 7507  15.773  27.178  13.471
43784W        W 7508  19.742  15.095  14.894
43785W        W 7509  16.626  37.555  10.642
43786W        W 7510  10.781  11.163  13.365
43787W        W 7511  23.050  34.539  11.468
43788W        W 7512  44.781  28.657  10.465
43789W        W 7513   3.329  27.163   4.332
43790W        W 7514  11.774  22.017   4.299
43791W        W 7515  30.982  36.461  10.430
43792W        W 7516   6.368  10.277  13.971
43793W        W 7517   3.774   8.279  13.041
43794W        W 7518   1.400   0.864  13.949
43795W        W 7519  16.686  12.725  13.004
43796W        W 7520   8.704   6.915   1.354
43797W        W 7521   0.825  37.952   2.807
43798W        W 7522  38.907  15.198   1.872
43799W        W 7523  32.533  36.388   2.661
43800W        W 7524  17.065  35.395  10.528
43801W        W 7525  10.879  39.560  12.392
43802W        W 7526  39.382   8.803   3.235
43803W        W 7527  41.465  39.037  12.015
43804W        W 7528  34.049   8.190  14.407
43805W        W 7529  40.322   4.379  11.857
43806W        W 7530  23.189  23.122   1.442
43807W        W 7531  13.705  33.028  10.955
43808W        W 7532   9.688  14.760   3.694
43809W        W 7533  40.376  21.139   4.821
43810W        W 7534  42.783  40.326  11.895
43811W        W 7535  14.123  14.598  10.550
43812W        W 7536  24.161  27.037   5.121
43813W        W 7537  41.325   2.240   0.446
43814W        W 7538  33.526  11.297   2.847
43815W        W 7539  20.148  15.212   3.868
43816W        W 7540   3.858   7.218  11.550
43817W        W 7541  25.096  23.519  12.872
43818W        W 7542  29.157  43.415  10.542
43819W        W 7543  16.251  17.236   1.233
43820W        W 7544  13.798  12.726   1.266
43821W        W 7545  17.224  35.529   3.196
43822W        W 7546   0.431  34.002  14.466
43823W        W 7547  20.740  12.640   4.719
43824W        W 7548  31.408  30.469   4.245
43825W        W 7549  21.608  42.395  12.352
43826W        W 7550  22.510  26.129  14.311
43827W        W 7551  12.168   6.714  12.839
43828W        W 7552   7.827  14.701   0.946
43829W        W 7553   0.266  22.581   2.696
43830W        W 7554  11.372   3.852  11.865
43831W        W 7555  33.127   9.154  13.323
43832W        W 7556  32.050   2.285   4.805
43833W        W 7557  18.246  22.703  12.986
43834W        W 7558  38.990  30.082   5.128
43835W        W 7559   4.856  17.299  14.993
43836W        W 7560  38.865  28.966  13.024
43837W        W 7561  15.754  18.626   4.787
43838W        W 7562  34.527   2.451  10.581
43839W        W 7563  16.665  10.341   4.267
43840W        W 7564  12.624  43.857   4.335
43841W        W 7565  13.642  40.405  11.577
43842W        W 7566  31.067  13.808  14.508
43843W        W 7567  15.813  31.987  10.506
43844W        W 7568  18.613  12.117   5.635
43845W        W 7569  22.171   0.382   1.333
43846W        W 7570  12.316   3.311   0.962
43847W        W 7571  42.417  19.641   0.771
43848W        W 7572   1.862   4.853  10.465
43849W        W 7573  23.128   8.829   1.827
43850W        W 7574   1.804   1.846   1.393
43851W        W 7575  41.013  41.307  14.414
43852W        W 7576  27.174   5.914   2.310
43853W        W 7577  21.184   1.292  11.949
43854W        W 7578  43.390  19.252   2.829
43855W        W 7579  16.648   3.362  10.574
43856W        W 7580   8.733   9.831  14.395
43857W        W 7581   8.880  38.952   2.365
43858W        W 7582   9.295  28.598   1.442
43859W        W 7583  16.626  36.501   4.224
43860W        W 7584   8.230   2.387   2.360
43861W        W 7585   4.403  20.032  10.518
43862W        W 7586   9.738  29.991  11.989
43863W        W 7587  37.917  12.783  14.512
43864W        W 7588  27.592  25.097   0.740
43865W        W 7589  27.613  43.494   1.341
43866W        W 7590  12.168  39.489   1.765
43867W        W 7591   5.721  41.804   3.759
43868W        W 7592  23.013  21.555  10.927
43869W        W 7593  20.183  22.544  12.580
43870W        W 7594  39.870  35.900  13.902
43871W        W 7595  33.960  39.355  12.850
43872W        W 7596  16.698  32.443   3.190
43873W        W 7597  21.701  41.534   5.615
43874W        W 7598  33.518  16.306  12.065
43875W        W 7599  24.154  28.665  14.803
43876W        W 7600  12.356  12.282   1.911
43877W        W 7601  16.231  15.171   3.766
43878W        W 7602  36.566   2.242   4.352
43879W        W 7603  39.910  42.789   0.296
43880W        W 7604   4.745  20.622  12.578
43881W        W 7605  31.633  17.273  11.547
43882W        W 7606  14.602  18.623   3.258
43883W        W 7607  30.426  32.526   2.275
43884W        W 7608  21.517   6.400   0.917
43885W        W 7609  13.236  20.206  11.587
43886W        W 7610  32.400   2.880  10.945
43887W        W 7611  44.947   1.392   1.266
43888W        W 7612  42.521   5.247   4.773
43889W        W 7613   1.418  17.747  11.392
43890W        W 7614   9.204  39.463  10.942
43891W        W 7615  16.187   6.763   1.383
43892W        W 7616  16.277  42.812   5.126
43893W        W 7617   5.827  20.711  14.940
43894W        W 7618  24.057   3.408  10.090
43895W        W 7619   1.839  10.370  11.412
43896W        W 7620  41.511  28.646  10.426
43897W        W 7621  13.136  39.832  11.513
43898W        W 7622   2.791  34.114   3.630
43899W        W 7623  12.661   2.946   1.367
43900W        W 7624   8.714  13.119   2.891
43901W        W 7625  26.957  36.890   3.353
43902W        W 7626  22.128  15.723  12.824
43903W        W 7627  34.081  24.138   4.275
43904W        W 7628  29.598  38.031  10.928
43905W        W 7629  36.005  17.661  14.915
43906W        W 7630  44.303  30.934   0.800
43907W        W 7631  11.630  12.610  10.999
43908W        W 7632   0.943  34.067  14.350
43909W        W 7633  28.549  28.117   0.759
43910W        W 7634  16.209   7.689   0.967
43911W        W 7635  42.349  38.338  11.954
43912W        W 7636  25.133  33.401  12.876
43913W        W 7637  26.608  38.874   0.833
43914W        W 7638  37.411   1.467   2.196
43915W        W 7639  18.083  39.812  11.975
43916W        W 7640  11.863  34.921  11.876
43917W        W 7641  15.592  18.587  11.082
43918W        W 7642  11.266  38.869  13.020
43919W        W 7643  31.447   3.724   4.781
43920W        W 7644  33.479  18.618   1.363
43921W        W 7645  18.082  20.261   3.635
43922W        W 7646   4.269  39.477   1.213
43923W        W 7647  38.503  43.839  12.437
43924W        W 7648  27.536  22.092   1.254
43925W        W 7649  37.019  23.668  11.957
43926W        W 7650  26.555   4.904  12.549
43927W        W 7651  28.627  28.675   1.291
43928W        W 7652   1.795  32.138  11.114
43929W        W 7653  19.242  13.307   3.733
43930W        W 7654  40.952  41.842  14.807
43931W        W 7655  39.497  32.421   4.259
43932W        W 7656  38.408  16.185   4.323
43933W        W 7657  39.330  22.745  13.959
43934W        W 7658  29.585   9.339  14.282
43935W        W 7659   5.929  35.506   3.817
43936W        W 7660  20.550  19.039  14.409
43937W        W 7661  40.457  41.786   2.682
43938W        W 7662  43.281  38.842  14.762
43939W        W 7663  12.655  10.377   0.858
43940W        W 7664   2.262  39.323   3.158
43941W        W 7665  25.044   2.260  14.451
43942W        W 7666  35.528   7.270  10.998
43943W        W 7667   4.708  27.031  12.504
43944W        W 7668  38.941  19.697   3.353
43945W        W 7669  23.613   3.459  11.922
43946W        W 7670   2.818  33.951  11.608
43947W        W 7671  42.357   2.298   2.830
43948W        W 7672  21.199  15.813  11.080
43949W        W 7673   6.863  30.499  11.491
43950W        W 7674  17.284   7.177   2.286
43951W        W 7675  42.972  21.171  13.402
43952W        W 7676  37.015  18.697  13.488
43953W        W 7677  23.561  38.391   0.382
43954W        W 7678  19.697  40.955  11.572
43955W        W 7679  36.937  14.331  14.420
43956W        W 7680  37.937  42.338  14.322
43957W        W 7681  41.963  26.015   0.362
43958W        W 7682  40.368  34.921  12.439
43959W        W 7683  13.262  22.623   1.771
43960W        W 7684  15.129  40.932  13.455
43961W        W 7685  41.918   5.253   3.343
43962W        W 7686  31.941   2.255   5.172
43963W        W 7687  33.990  42.356   0.313
43964W        W 7688   1.735  33.962   0.397
43965W        W 7689  10.238  23.223  10.577
43966W        W 7690  14.338  36.933  13.902
43967W        W 7691  37.963  17.252   3.261
43968W        W 7692  16.231  23.598  12.554
43969W        W 7693   0.804  10.228  12.387
43970W        W 7694  41.984  34.056   1.747
43971W        W 7695  17.663  31.528  11.523
43972W        W 7696  30.008  21.616  13.792
43973W        W 7697  18.773  29.137  11.960
43974W        W 7698  34.524  37.406  14.418
43975W        W 7699  41.042  29.466  13.543
43976W        W 7700  20.741  13.679  11.604
43977W        W 7701  27.660  24.606   0.244
43978W        W 7702  30.083  41.819   4.783
43979W        W 7703   5.919  31.595   3.247
43980W        W 7704  25.151   3.927  14.370
43981W        W 7705  27.630  18.564   2.733
43982W        W 7706  20.135   5.906   4.701
43983W        W 7707  14.742  14.206   2.819
43984W        W 7708  19.182  14.799  11.945
43985W        W 7709  32.094  32.075  10.523
43986W        W 7710  38.465  41.448   0.822
43987W        W 7711  32.932  15.776   5.167
43988W        W 7712   8.804  43.404   4.704
43989W        W 7713  14.266  17.146  13.476
43990W        W 7714   9.889  44.373   4.343
43991W        W 7715  16.271  25.497  11.565
43992W        W 7716  41.949  38.335  14.982
43993W        W 7717  19.198  35.455  11.562
43994W        W 7718  14.788  26.578  13.884
43995W        W 7719   3.391  25.216   1.239
43996W        W 7720  39.451   4.805   3.340
43997W        W 7721  33.397  10.215  10.488
43998W        W 7722  20.608  19.533  11.940
43999W        W 7723  32.941   5.881   4.120
44000W        W 7724  38.427  22.153   3.743
44001W        W 7725  42.868   7.853   2.347
44002W        W 7726  20.134  10.838   0.931
44003W        W 7727  32.473  42.824   3.219
44004W        W 7728  40.472  38.902  12.872
44005W        W 7729  32.042  38.971  12.409
44006W        W 7730   7.344   0.438  13.958
44007W        W 7731   9.339  18.686   3.213
44008W        W 7732   5.416  13.775  10.015
44009W        W 7733  44.843  30.996  12.838
44010W        W 7734   9.778   7.245   3.192
44011W        W 7735  27.064  26.208  12.850
44012W        W 7736  13.144  42.506  14.868
44013W        W 7737  10.347  27.450  11.006
44014W        W 7738  27.606   8.723   1.285
44015W        W 7739  21.105  16.304  13.522
44016W        W 7740  34.581  36.537  10.528
44017W        W 7741   7.668  20.257  13.809
44018W        W 7742  40.351  28.559  11.457
44019W        W 7743  18.149  26.148  10.455
44020W        W 7744   5.827  40.917   3.862
44021W        W 7745  28.936   5.416  13.007
44022W        W 7746  30.623   6.757   1.260
44023W        W 7747  27.974  42.367   1.407
44024W        W 7748  42.346  40.907   3.172
44025W        W 7749   5.690  27.565   3.168
44026W        W 7750  38.897   8.247   5.157
44027W        W 7751   3.738   0.757   2.902
44028W        W 7752  32.524  37.482  12.570
44029W        W 7753  36.468  16.614  11.434
44030W        W 7754  16.719  24.981   1.309
44031W        W 7755  21.657  30.058   3.790
44032W        W 7756  17.585  39.505   0.912
44033W        W 7757  40.822  34.027  11.060
44034W        W 7758  32.483  15.286  13.923
44035W        W 7759  42.963   4.708  11.479
44036W        W 7760  18.167  36.948   2.847
44037W        W 7761   2.898  39.352  13.544
44038W        W 7762  23.102  19.568  13.322
44039W        W 7763  40.476   9.220  12.830
44040W        W 7764  33.942  23.552   1.238
44041W        W 7765  25.180   0.899  14.760
44042W        W 7766   7.715  19.206  14.830
44043W        W 7767  18.746   3.949   4.834
44044W        W 7768   8.788  24.597   2.846
44045W        W 7769  37.474  39.808   1.303
44046W        W 7770  15.660   2.241   2.814
44047W        W 7771   6.266  11.144  11.057
44048W        W 7772  16.221  43.971  10.932
44049W        W 7773  30.624  18.563   1.227
44050W        W 7774  37.067  17.777  13.834
44051W        W 7775  10.203  14.787   3.828
44052W        W 7776   1.363   4.346   0.876
44053W        W 7777  14.236   8.357   5.112
44054W        W 7778  19.277  11.162   0.260
44055W        W 7779   8.870   7.737   4.263
44056W        W 7780  22.223  23.719   2.883
44057W        W 7781  38.389  43.017   2.819
44058W        W 7782  42.909   1.479   0.852
44059W        W 7783  33.022  22.501  14.935
44060W        W 7784  38.349   2.313  13.530
44061W        W 7785  24.984  24.542   0.381
44062W        W 7786  43.809  37.340  12.573
44063W        W 7787  23.685  44.463   4.804
44064W        W 7788  21.209  10.306   4.184
44065W        W 7789  17.722  29.440   3.830
44066W        W 7790  39.363   0.283  13.352
44067W        W 7791  28.158  42.408  10.984
44068W        W 7792  13.681   9.321  11.100
44069W        W 7793   4.699  18.204   0.820
44070W        W 7794  10.812  36.444  10.572
44071W        W 7795   0.367  24.648  14.920
44072W        W 7796  22.098   9.389  12.897
44073W        W 7797  10.201  26.514  11.403
44074W        W 7798  14.209  39.362   4.621
44075W        W 7799  23.202  21.542   1.291
44076W        W 7800  31.632  14.712   4.774
44077W        W 7801  33.469  37.567   0.893
44078W        W 7802  35.964   0.461   4.302
44079W        W 7803  38.358  20.148  13.528
44080W        W 7804  29.478   6.338   4.236
44081W        W 7805   5.391  39.554  12.448
44082W        W 7806  27.952  23.231   0.261
44083W        W 7807  17.061  28.557   2.730
44084W        W 7808  18.240  17.082   0.802
44085W        W 7809  29.979  16.087  12.040
44086W        W 7810  37.995  34.602  12.456
44087W        W 7811  32.596   0.248   4.163
44088W        W 7812  36.438  40.019   0.738
44089W        W 7813  41.898  31.603   3.640
44090W        W 7814  12.645   2.832  11.578
44091W        W 7815  12.135  44.867  12.546
44092W        W 7816  23.069  19.695  11.905
44093W        W 7817   6.777  27.092   1.712
44094W        W 7818   3.814  37.920  12.841
44095W        W 7819  23.025   8.373   1.695
44096W        W 7820   4.748  15.673   0.479
44097W        W 7821   4.353  15.318  12.090
44098W        W 7822   2.774  18.604  11.573
44099W        W 7823  27.489  39.016  11.960
44100W        W 7824  33.511  33.098   4.599
44101W        W 7825  43.321  10.848  11.040
44102W        W 7826   1.440  14.116  14.453
44103W        W 7827  44.337  39.487  11.113
44104W        W 7828  18.177  15.264  12.036
44105W        W 7829  27.966  19.618  11.502
44106W        W 7830  33.431   9.748   0.372
44107W        W 7831   0.374  33.487   4.348
44108W        W 7832  23.111  22.507  12.951
44109W        W 7833   2.817  31.112   3.237
44110W        W 7834  25.494  36.973   4.634
44111W        W 7835   6.189  33.526  11.104
44112W        W 7836  10.813  19.581   1.822
44113W        W 7837  24.216  17.267  14.353
44114W        W 7838  22.154   9.881   4.226
44115W        W 7839   5.218   1.948   1.874
44116W        W 7840  14.628  12.731  13.350
44117W        W 7841  13.208   5.863  13.544
44118W        W 7842  11.127  30.001   3.165
44119W        W 7843   8.842  32.900   1.710
44120W        W 7844  43.862   1.466  14.379
44121W        W 7845  22.571  40.949  11.952
44122W        W 7846  33.504   3.944   4.322
44123W        W 7847  29.665   6.870  14.795
44124W        W 7848  32.105  16.741   3.332
44125W        W 7849   7.777  23.715   0.780
44126W        W 7850  30.909  43.295  14.817
44127W        W 7851  16.625  36.353  11.471
44128W        W 7852   1.915  41.331   1.851
44129W        W 7853   8.398  25.100  11.910
44130W        W 7854  22.730   9.196   1.805
44131W        W 7855  24.048   6.368  12.439
44132W        W 7856  23.493  15.113  13.412
44133W        W 7857  16.298  18.057  10.600
44134W        W 7858   9.279  41.365   4.665
44135W        W 7859  11.832  33.407   0.921
44136W        W 7860  20.055   4.354  13.493
44137W        W 7861  23.207  35.513  12.447
44138W        W 7862  37.553  23.156  12.409
44139W        W 7863  19.716  19.616  12.975
44140W        W 7864  38.338  20.154   0.956
44141W        W 7865  39.821  23.715   0.270
44142W        W 7866  25.640  11.209  10.061
44143W        W 7867  23.215  34.996   4.341
44144W        W 7868  19.250  43.844  11.451
44145W        W 7869  31.916   3.443  12.379
44146W        W 7870   0.269  12.168   3.664
44147W        W 7871  44.802  27.962  12.977
44148W        W 7872  26.690   6.230  10.968
44149W        W 7873  28.524  21.615  11.509
44150W        W 7874  10.210  14.132   1.264
44151W        W 7875  27.051  37.020   2.418
44152W        W 7876  24.009  32.483  14.908
44153W        W 7877  27.616  30.564  13.314
44154W        W 7878  32.416  17.258  13.502
44155W        W 7879   7.391  39.404  13.876
44156W        W 7880  16.239  40.834   2.779
44157W        W 7881   9.321  33.390  10.551
44158W        W 7882   2.357  35.576  10.917
44159W        W 7883  20.273  36.052   3.319
44160W        W 7884  13.722  27.544  12.000
44161W        W 7885  23.726  33.561   4.786
44162W        W 7886  38.564  20.616   1.876
44163W        W 7887  30.045  44.850  13.316
44164W        W 7888  26.208  31.520  14.375
44165W        W 7889  26.029  42.984   1.832
44166W        W 7890  15.618  36.375   4.636
44167W        W 7891  37.958  26.107  10.408
44168W        W 7892   2.280   7.867   0.894
44169W        W 7893   5.372  36.086   0.805
44170W        W 7894  40.394  10.742   0.255
44171W        W 7895  41.438  25.096   9.505
44172W        W 7896  28.964  22.113   4.137
44173W        W 7897  10.356  32.395  11.095
44174W        W 7898  37.417  41.397   2.872
44175W        W 7899  15.170  25.614  13.319
44176W        W 7900   9.177  14.720  11.564
44177W        W 7901  12.185   4.936   0.884
44178W        W 7902  14.601  30.602   5.260
44179W        W 7903  30.473   8.210  12.997
44180W        W 7904   2.939  21.517   1.443
44181W        W 7905  42.281  44.338   3.194
44182W        W 7906  26.561  27.044   3.329
44183W        W 7907  25.063   7.223   2.798
44184W        W 7908  16.154  11.272  12.482
44185W        W 7909  36.968  36.098  12.346
44186W        W 7910   0.284   3.335  14.794
44187W        W 7911  42.888   2.386  12.837
44188W        W 7912   7.266  32.949   4.808
44189W        W 7913  40.345  13.727  10.405
44190W        W 7914  22.100   6.339  11.940
44191W        W 7915  24.587  31.044  13.842
44192W        W 7916  24.581  44.914   2.671
44193W        W 7917  31.517   7.784  10.428
44194W        W 7918  23.074  13.765   4.632
44195W        W 7919  37.365  40.337  12.399
44196W        W 7920  38.524  21.050  11.975
44197W        W 7921  28.575   8.866   4.293
44198W        W 7922  14.269  14.817   1.381
44199W        W 7923  27.674  26.622   9.939
44200W        W 7924   1.350  27.679  12.355
44201W        W 7925  38.571   8.700   4.297
44202W        W 7926   2.431  24.185   3.784
44203W        W 7927  41.866  39.529   2.235
44204W        W 7928  40.982  14.180   0.459
44205W        W 7929   2.739   7.206   1.783
44206W        W 7930  13.613  41.811   4.719
44207W        W 7931   6.877   9.359  14.802
44208W        W 7932  32.448  41.512   1.800
44209W        W 7933  25.713   0.477   5.138
44210W        W 7934  41.409  42.364  10.997
44211W        W 7935  41.967  20.755   1.322
44212W        W 7936  38.454  32.967  14.351
44213W        W 7937  12.711  19.706  13.867
44214W        W 7938  30.649  44.894  13.429
44215W        W 7939  26.580  24.044  14.284
44216W        W 7940   3.231   3.361  11.519
44217W        W 7941  19.233  36.090  13.859
44218W        W 7942  18.693   8.762   5.160
44219W        W 7943  15.821  15.251  14.846
44220W        W 7944  14.194   9.722   0.282
44221W        W 7945  34.018   9.856  14.964
44222W        W 7946  14.273  41.026  14.494
44223W        W 7947  34.967  27.088  10.455
44224W        W 7948  21.544  14.773  14.343
44225W        W 7949  24.979  44.874  14.483
44226W        W 7950  28.545  44.944   4.724
44227W        W 7951  35.551  41.502  12.092
44228W        W 7952  36.970  38.867  14.852
44229W        W 7953  42.030  41.851   2.203
44230W        W 7954  32.984  32.890  12.915
44231W        W 7955   9.212  33.606   4.614
44232W        W 7956  42.909  26.526   3.778
44233W        W 7957  11.644  40.512  11.003
44234W        W 7958  36.358   1.411   2.861
44235W        W 7959  36.894   6.868  14.994
44236W        W 7960   2.281  42.003   1.867
44237W        W 7961  16.754   3.331   4.208
44238W        W 7962  11.647  12.710   4.244
44239W        W 7963  40.990  24.687   0.312
44240W        W 7964  28.584  40.805  13.482
44241W        W 7965   2.320  43.463  14.008
44242W        W 7966  27.103  27.519  13.539
44243W        W 7967   2.933   3.404   3.775
44244W        W 7968  43.782   0.955  12.977
44245W        W 7969  35.567  42.922  11.119
44246W        W 7970  24.633   5.711   3.337
44247W        W 7971   4.721  25.963  14.457
44248W        W 7972  26.170  41.968  13.843
44249W        W 7973  24.013   7.770  10.472
44250W        W 7974   3.311  35.033   0.893
44251W        W 7975  30.089  30.057   0.450
44252W        W 7976   6.254  12.687  12.838
44253W        W 7977  14.233  25.042   0.346
44254W        W 7978  20.707  15.171   4.183
44255W        W 7979  22.690   6.802   2.737
44256W        W 7980  26.095  23.086   2.714
44257W        W 7981  18.093   9.209   2.385
44258W        W 7982   0.981  24.063  13.830
44259W        W 7983  13.730  28.102  10.544
44260W        W 7984  42.831  33.379  13.384
44261W        W 7985  36.383   3.799   0.422
44262W        W 7986  13.707  17.672   4.702
44263W        W 7987  17.656  11.832  14.815
44264W        W 7988  37.391  36.431   1.729
44265W        W 7989  12.837  13.230   4.816
44266W        W 7990  11.678  14.199  12.533
44267W        W 7991  34.072   0.331   0.433
44268W        W 7992  27.545  11.283  12.916
44269W        W 7993   7.846   4.258   4.163
44270W        W 7994   9.365   0.840   1.425
44271W        W 7995  30.925   2.460  14.954
44272W        W 7996  15.677  35.036  14.783
44273W        W 7997  29.469   9.227   3.870
44274W        W 7998   9.167  10.268   4.190
44275W        W 7999   3.826   0.760  10.426
44276W        W 8000  20.166  36.375  14.334
44277W        W 8001   1.974  44.876  12.426
44278W        W 8002  15.740  20.259   2.252
44279W        W 8003  30.592   1.910  11.121
44280W        W 8004   7.708  40.367   4.603
44281W        W 8005   9.734  24.002   1.435
44282W        W 8006  39.469  33.918  10.917
44283W        W 8007  25.572  26.081   3.761
44284W        W 8008  13.812  40.493  11.942
44285W        W 8009   0.822  29.622   5.153
44286W        W 8010  17.768  43.882  12.542
44287W        W 8011  26.158  39.427  13.852
44288W        W 8012  27.108  14.338  14.397
44289W        W 8013  10.352  19.759   1.775
44290W        W 8014  19.100  36.036  14.953
44291W        W 8015  44.852  43.387  12.026
44292W        W 8016  40.421  40.378  11.510
44293W        W 8017  41.532  11.163  10.595
44294W        W 8018  17.066   5.226   1.812
44295W        W 8019  17.663  17.683  10.484
44296W        W 8020   0.758  35.468  12.579
44297W        W 8021  41.997  23.211   4.133
44298W        W 8022  10.182  38.569   1.819
44299W        W 8023  39.917  32.944  13.919
44300W        W 8024  27.471  37.962  11.531
44301W        W 8025  18.114   8.272   1.773
44302W        W 8026  26.147  43.439   0.740
44303W        W 8027  19.658  29.654  12.560
44304W        W 8028   0.303   9.671  11.948
44305W        W 8029  34.095  13.630   2.868
44306W        W 8030  17.306  37.960  10.966
44307W        W 8031  41.791  24.973   1.761
44308W        W 8032  36.030  18.089  13.970
44309W        W 8033  39.547  44.921   0.833
44310W        W 8034   8.285  18.550  12.915
44311W        W 8035  20.588  16.801   0.340
44312W        W 8036  31.980  37.034   4.332
44313W        W 8037   5.423  26.129   1.709
44314W        W 8038  26.190  29.473  12.829
44315W        W 8039  11.368   2.753   0.243
44316W        W 8040  36.522  39.371  13.852
44317W        W 8041  28.952  27.096   2.349
44318W        W 8042  32.572   9.332  13.847
44319W        W 8043  27.476  42.343  12.840
44320W        W 8044  10.816  13.706  12.055
44321W        W 8045  26.556  18.175  12.057
44322W        W 8046  22.665   4.893  10.428
44323W        W 8047  33.528  29.086  11.425
44324W        W 8048  35.430  25.077  12.374
44325W        W 8049  20.527  41.827  13.880
44326W        W 8050   6.347   0.883   4.328
44327W        W 8051  12.268   2.935   4.187
44328W        W 8052  39.973  17.611  13.038
44329W        W 8053   1.956   9.736  11.433
44330W        W 8054   2.884  10.342   3.635
44331W        W 8055  25.111  32.412   4.599
44332W        W 8056  42.308  24.996   4.808
44333W        W 8057  25.490  41.820  11.947
44334W        W 8058  10.817  21.726  12.935
44335W        W 8059   1.350  27.154   4.183
44336W        W 8060   1.870  34.973   1.748
44337W        W 8061   2.733  26.130  12.827
44338W        W 8062  35.571  20.229  10.475
44339W        W 8063  38.374  21.740  11.104
44340W        W 8064  40.838   4.384  13.942
44341W        W 8065  31.046   9.353  11.416
44342W        W 8066  27.955  38.510  10.606
44343W        W 8067  27.971  31.556  12.996
44344W        W 8068  26.020  35.521  10.468
44345W        W 8069  12.817  32.525   4.786
44346W        W 8070  40.311  41.951   3.378
44347W        W 8071  43.827  38.513  14.436
44348W        W 8072  13.679  25.140   3.747
44349W        W 8073   5.709  32.579  11.000
44350W        W 8074  44.333  38.899   1.227
44351W        W 8075  40.036   3.443  13.461
44352W        W 8076   7.671  38.997  11.867
44353W        W 8077  10.703  31.444  11.876
44354W        W 8078  27.172  28.434   5.172
44355W        W 8079  22.149  35.918   3.743
44356W        W 8080  37.441  14.768  12.975
44357W        W 8081  31.514   9.265   1.383
44358W        W 8082   2.455  22.539   4.790
44359W        W 8083  12.662  40.435  13.024
44360W        W 8084  24.707   3.391  13.871
44361W        W 8085   0.451  28.108   3.812
44362W        W 8086  25.058  39.450   4.665
44363W        W 8087   2.379  29.016   1.384
44364W        W 8088  35.901  28.037   4.746
44365W        W 8089  14.245  20.734   1.246
44366W        W 8090   0.750  29.599  13.354
44367W        W 8091   1.767  11.686  14.788
44368W        W 8092  38.993  11.804   2.886
44369W        W 8093  25.475  32.472  14.996
44370W        W 8094  34.564   5.313  10.501
44371W        W 8095   5.902  26.196  13.403
44372W        W 8096  33.410  20.733  11.543
44373W        W 8097  43.862  36.347  14.847
44374W        W 8098  40.353  43.407  11.395
44375W        W 8099  33.470  40.548  14.283
44376W        W 8100  31.627  17.641   3.293
44377W        W 8101  36.912  14.634  14.871
44378W        W 8102  31.626  37.335  14.827
44379W        W 8103  33.030  41.492  13.040
44380W        W 8104  32.438  24.053  14.791
44381W        W 8105  11.677  28.971   0.320
44382W        W 8106  30.020  28.062  11.399
44383W        W 8107   8.703  15.283   3.763
44384W        W 8108   4.259  11.651   4.671
44385W        W 8109   6.225   6.230   3.314
44386W        W 8110   0.482  19.648   0.776
44387W        W 8111  17.307  15.627   4.606
44388W        W 8112  34.507  44.807   2.797
44389W        W 8113   0.948  36.028  11.456
44390W        W 8114   8.209  19.757  14.342
44391W        W 8115  43.022  18.115   2.376
44392W        W 8116  26.099  19.539   0.377
44393W        W 8117  43.373  21.659   3.824
44394W        W 8118  25.100  34.548  14.381
44395W        W 8119  38.953  28.475  12.875
44396W        W 8120  23.171  29.427   2.205
44397W        W 8121  37.364  13.764  11.517
44398W        W 8122  32.081  12.282   4.212
44399W        W 8123  30.975  38.371  11.502
44400W        W 8124   4.231  27.660   3.871
44401W        W 8125  41.500  35.573  13.994
44402W        W 8126   6.188  26.125  13.466
44403W        W 8127   4.781   8.739   1.403
44404W        W 8128  14.627  33.453  10.137
44405W        W 8129  28.542  12.295  14.324
44406W        W 8130   0.423  40.933  14.455
44407W        W 8131  38.994  26.619   1.878
44408W        W 8132  27.180  12.218   3.748
44409W        W 8133  32.058  27.024  14.820
44410W        W 8134  10.167   9.653  13.434
44411W        W 8135  28.607  23.660  10.416
44412W        W 8136  24.175  32.914  11.521
44413W        W 8137  43.512  39.053   0.781
44414W        W 8138   4.333  31.614   4.793
44415W        W 8139  24.606  18.630   1.757
44416W        W 8140   9.818  12.300  13.416
44417W        W 8141  38.435   0.254   0.728
44418W        W 8142   4.362  39.407  14.934
44419W        W 8143   4.788  39.027   4.253
44420W        W 8144  36.479  39.047  14.981
44421W        W 8145  32.007   9.825   2.307
44422W        W 8146  41.466   0.989   0.888
44423W        W 8147  27.469  25.471  10.427
44424W        W 8148  18.774  22.671   4.241
44425W        W 8149  16.568  36.052   3.223
44426W        W 8150  31.035  38.489  11.070
44427W        W 8151  29.562  17.285  14.810
44428W        W 8152  32.069  11.787   1.297
44429W        W 8153  23.582  31.099   0.342
44430W        W 8154  23.101   5.692   1.904
44431W        W 8155  40.954  36.953  10.021
44432W        W 8156  41.862   7.387  13.341
44433W        W 8157  36.986  17.691  11.375
44434W        W 8158  43.301  25.639   3.308
44435W        W 8159   9.643  35.581   2.808
44436W        W 8160  31.007  44.909   3.220
44437W        W 8161  35.579  32.997  11.560
44438W        W 8162   6.263  32.618  10.923
44439W        W 8163   2.411  38.005  14.960
44440W        W 8164  39.933  29.576  14.898
44441W        W 8165  40.042  20.197   2.227
44442W        W 8166  20.728  17.215  13.366
44443W        W 8167  14.156  24.062  12.873
44444W        W 8168  20.625  42.953   1.701
44445W        W 8169  16.808  33.431  11.963
44446W        W 8170  27.148   3.288   1.844
44447W        W 8171  26.068  15.285  12.066
44448W        W 8172  32.396  27.088   0.418
44449W        W 8173  38.454  22.610  13.941
44450W        W 8174   0.264  28.047   4.132
44451W        W 8175  23.035  23.685   2.259
44452W        W 8176  10.344  35.874  11.090
44453W        W 8177   0.854   7.235  12.942
44454W        W 8178  36.969  13.119  10.605
44455W        W 8179  39.464   5.917  12.094
44456W        W 8180  12.206   1.306  12.461
44457W        W 8181  25.568  24.703   2.729
44458W        W 8182   6.391  31.969   2.254
44459W        W 8183  14.241  30.426  14.276
44460W        W 8184  19.554  40.940   0.333
44461W        W 8185   1.460  20.589  14.923
44462W        W 8186  41.353  43.826  14.972
44463W        W 8187  21.113  25.543  12.823
44464W        W 8188  28.523  23.513   3.744
44465W        W 8189  43.937   6.191  13.314
44466W        W 8190   7.761  27.076  12.493
44467W        W 8191  14.109   9.670   1.381
44468W        W 8192  19.224  43.850  13.528
44469W        W 8193   7.307  16.130  11.545
44470W        W 8194  37.879   0.748   4.688
44471W        W 8195  30.422  43.481   3.845
44472W        W 8196  26.664  28.001   2.787
44473W        W 8197   9.266  38.987  14.478
44474W        W 8198  15.155  28.082   1.875
44475W        W 8199  37.894  30.615  14.921
44476W        W 8200  18.756  21.108   3.843
44477W        W 8201  12.278   7.295   3.631
44478W        W 8202   2.899  21.189   2.255
44479W        W 8203  15.589   0.419  13.880
44480W        W 8204  30.977  30.001  11.378
44481W        W 8205  34.113  43.966   0.374
44482W        W 8206  25.597   0.386   4.150
44483W        W 8207  14.258   8.861  11.047
44484W        W 8208  27.195  16.783  14.974
44485W        W 8209  38.975   6.257   2.366
44486W        W 8210  42.914   9.261  14.338
44487W        W 8211   8.703  18.707  13.392
44488W        W 8212  23.505  41.353  10.434
44489W        W 8213   3.312  23.084  11.603
44490W        W 8214  17.626  38.954  13.016
44491W        W 8215  41.429  15.130  11.408
44492W        W 8216  42.883  17.275   0.857
44493W        W 8217  15.684  41.396  11.856
44494W        W 8218  31.578  15.243   2.322
44495W        W 8219   4.363   8.232   1.338
44496W        W 8220  13.672  10.303  11.583
44497W        W 8221   5.765  25.993  10.917
44498W        W 8222  18.640   5.758   3.231
44499W        W 8223  32.088  39.062   1.368
44500W        W 8224  42.999   1.310   4.230
44501W        W 8225  13.170   9.328  13.808
44502W        W 8226  36.879  23.239   1.267
44503W        W 8227  12.671  31.139   4.343
44504W        W 8228   7.171   0.963  14.282
44505W        W 8229   9.300   3.849  13.313
44506W        W 8230  42.832  21.037   4.707
44507W        W 8231  36.044  39.844   4.838
44508W        W 8232  12.750  38.972  12.464
44509W        W 8233  18.687  31.135   3.758
44510W        W 8234   0.745  18.780  10.935
44511W        W 8235  36.074  33.483   2.864
44512W        W 8236   1.404  35.104  10.544
44513W        W 8237  28.998   6.227   0.393
44514W        W 8238  30.605  24.642   3.244
44515W        W 8239  28.669  24.226   1.859
44516W        W 8240  34.543  32.900  14.421
44517W        W 8241  31.150  12.315  11.983
44518W        W 8242  12.181   7.707   0.728
44519W        W 8243   6.758  27.025  14.796
44520W        W 8244  26.972  39.480  11.871
44521W        W 8245  25.707  43.806   2.240
44522W        W 8246  33.610  19.773  12.368
44523W        W 8247  12.629  11.703  13.884
44524W        W 8248   7.255  30.650  10.911
44525W        W 8249  40.824  42.837   2.685
44526W        W 8250   8.227  41.964   0.268
44527W        W 8251  16.089  35.104  13.310
44528W        W 8252  17.795  29.460  10.633
44529W        W 8253  36.436  40.421  14.847
44530W        W 8254  32.481   9.811  13.528
44531W        W 8255  44.878  24.097   3.335
44532W        W 8256  26.563   3.716  13.020
44533W        W 8257  11.787   2.379  14.938
44534W        W 8258  31.988  15.737  11.535
44535W        W 8259  29.952  19.747  14.938
44536W        W 8260   3.944  19.632   4.242
44537W        W 8261   1.283  26.616  13.906
44538W        W 8262   9.316  18.606   1.841
44539W        W 8263  16.158   0.885  10.455
44540W        W 8264  21.536   6.783   3.639
44541W        W 8265  15.742  22.018  10.956
44542W        W 8266   2.936  30.446  14.477
44543W        W 8267  35.077  28.010  11.509
44544W        W 8268  24.050  11.794  14.363
44545W        W 8269  36.456  18.611   3.156
44546W        W 8270  39.320  22.708  14.911
44547W        W 8271  22.170  34.410  11.507
44548W        W 8272  18.282  34.407   2.818
44549W        W 8273   7.312  42.030  12.453
44550W        W 8274  22.618   7.713  11.050
44551W        W 8275  25.614  25.008   1.846
44552W        W 8276  32.572  15.678  10.615
44553W        W 8277  30.913   7.731  14.923
44554W        W 8278  39.052  22.531   5.292
44555W        W 8279  21.234   2.750  10.455
44556W        W 8280  38.886  15.702  12.399
44557W        W 8281  16.171  15.199   2.185
44558W        W 8282  18.596   7.219  14.803
44559W        W 8283  36.470  10.226   4.210
44560W        W 8284  13.732  26.127  11.121
44561W        W 8285  39.553  32.506   0.942
44562W        W 8286  17.755   8.871  10.969
44563W        W 8287  22.105   1.861  13.905
44564W        W 8288   8.853   8.817   2.666
44565W        W 8289  33.912  27.557   4.692
44566W        W 8290  32.892  31.106  12.898
44567W        W 8291  38.496  36.975   1.851
44568W        W 8292  38.062  32.122  10.100
44569W        W 8293  38.987  13.811   3.210
44570W        W 8294   7.333  21.040  10.992
44571W        W 8295  30.107   7.740   9.634
44572W        W 8296  17.668   4.819  13.014
44573W        W 8297  31.558  28.466   0.899
44574W        W 8298  34.455  27.117   2.712
44575W        W 8299   9.304  18.180   4.196
44576W        W 8300  10.863  37.856  13.370
44577W        W 8301  19.697  37.407   4.734
44578W        W 8302  34.889  10.153   3.666
44579W        W 8303  36.472  44.835   3.281
44580W        W 8304  18.075  44.976  14.834
44581W        W 8305  18.128  36.356   2.390
44582W        W 8306   0.922  36.500   1.884
44583W        W 8307  44.289  33.034  14.402
44584W        W 8308  36.952   3.311   0.370
44585W        W 8309   7.886  30.026   4.221
44586W        W 8310   7.838   6.815  14.908
44587W        W 8311  11.751   8.303  12.391
44588W        W 8312   1.265  12.669   4.340
44589W        W 8313  14.283   3.429   3.808
44590W        W 8314  29.962  26.026  12.561
44591W        W 8315  28.479  42.452  11.429
44592W        W 8316  12.638  14.614   0.398
44593W        W 8317  17.754   5.765  10.501
44594W        W 8318  27.169  42.960   3.242
44595W        W 8319  38.957  27.959   3.675
44596W        W 8320  31.087  23.987   3.632
44597W        W 8321  30.907  20.667   2.842
44598W        W 8322   8.858   8.402   3.832
44599W        W 8323   1.429  33.554  11.946
44600W        W 8324  38.470  33.446   4.136
44601W        W 8325  29.097  39.851  12.944
44602W        W 8326  39.822  27.639   1.934
44603W        W 8327  14.825  23.647   0.347
44604W        W 8328  42.443  27.068   3.147
44605W        W 8329  20.552  26.631   0.259
44606W        W 8330  44.881  24.010   2.704
44607W        W 8331  28.090  17.123   0.840
44608W        W 8332  44.861  23.211  14.383
44609W        W 8333  13.247  41.521  12.025
44610W        W 8334   4.313  29.590   0.390
44611W        W 8335  18.074  26.521  11.399
44612W        W 8336  38.460   7.753  14.912
44613W        W 8337  36.929  13.300   1.259
44614W        W 8338   6.385  28.957  14.399
44615W        W 8339  16.164   6.764   4.652
44616W        W 8340  32.011   1.420  14.307
44617W        W 8341  44.399  38.861  11.898
44618W        W 8342  12.361   6.222   4.229
44619W        W 8343   4.917  27.664   3.386
44620W        W 8344   8.694  42.934   3.201
44621W        W 8345  37.426   1.295  13.052
44622W        W 8346   2.945  13.838  12.969
44623W        W 8347  24.583  20.628  11.968
44624W        W 8348  18.231   4.851   1.354
44625W        W 8349   3.785  39.442  11.611
44626W        W 8350  41.300  17.261  12.890
44627W        W 8351  43.992   9.742  11.492
44628W        W 8352  32.997   2.402  11.601
44629W        W 8353  31.484  27.582   4.311
44630W        W 8354  19.574  41.957   1.286
44631W        W 8355  41.450  22.671   0.275
44632W        W 8356  41.794   5.832   1.920
44633W        W 8357  21.224   7.764  10.912
44634W        W 8358   8.243  41.429   4.622
44635W        W 8359  14.195   6.851   4.160
44636W        W 8360  11.210   9.711  10.494
44637W        W 8361   5.900  16.195  14.865
44638W        W 8362  30.989  18.082  13.357
44639W        W 8363  19.244   8.238  10.913
44640W        W 8364  10.738  17.613  11.457
44641W        W 8365  14.245  18.282  12.364
44642W        W 8366   6.691   9.188  14.377
44643W        W 8367  41.333  24.211   2.902
44644W        W 8368  35.394  26.041   1.701
44645W        W 8369  28.054  33.549   1.400
44646W        W 8370  28.453  38.516   3.162
44647W        W 8371  37.385  30.514  11.025
44648W        W 8372  21.149   3.286  12.546
44649W        W 8373  31.402   9.333   3.297
44650W        W 8374  37.392   5.321  14.903
44651W        W 8375  44.891  19.211   3.825
44652W        W 8376   0.864  13.317   0.279
44653W        W 8377  30.020  37.058  12.965
44654W        W 8378   9.741  39.834   3.346
44655W        W 8379  19.552  44.754  10.478
44656W        W 8380  41.916  43.954  10.159
44657W        W 8381  29.599  16.662  13.003
44658W        W 8382  37.884   1.458  11.058
44659W        W 8383   1.864  36.906   1.895
44660W        W 8384  13.163  31.965   3.321
44661W        W 8385  35.930  11.280  11.498
44662W        W 8386  29.022   7.334   4.630
44663W        W 8387  17.107  24.072  12.825
44664W        W 8388  17.584  11.153  10.628
44665W        W 8389  34.944  40.839   2.399
44666W        W 8390  10.864  33.615  10.634
44667W        W 8391  36.877  13.125  13.385
44668W        W 8392  19.772   4.420  14.023
44669W        W 8393   8.820   3.362  14.454
44670W        W 8394  31.562  10.872  10.469
44671W        W 8395  17.156  19.186  13.944
44672W        W 8396  15.779  23.564  13.987
44673W        W 8397  44.370  25.133  14.947
44674W        W 8398   7.320  16.754   3.679
44675W        W 8399  42.863  32.049  10.603
44676W        W 8400   6.197  42.957   1.840
44677W        W 8401  31.995   2.318   3.763
44678W        W 8402   6.879  35.582  14.016
44679W        W 8403   1.902  23.696  14.955
44680W        W 8404   1.922  34.605  12.084
44681W        W 8405  44.375  44.417   4.777
44682W        W 8406  31.408  16.607   4.220
44683W        W 8407  12.797  42.884  10.447
44684W        W 8408  11.335  36.905  11.125
44685W        W 8409  41.301  29.642  11.371
44686W        W 8410  16.200  19.600  13.336
44687W        W 8411  13.611   9.693  11.567
44688W        W 8412  27.593  34.499  14.376
44689W        W 8413   9.172  28.978  12.010
44690W        W 8414  31.566   9.702   2.663
44691W        W 8415   3.722  40.331   4.616
44692W        W 8416  33.552  24.036   4.315
44693W        W 8417  10.141  34.986  14.291
44694W        W 8418  25.644   2.314  11.535
44695W        W 8419  27.096   3.775  10.502
44696W        W 8420  26.649  30.550  11.970
44697W        W 8421  29.165   8.402  10.549
44698W        W 8422  39.890   4.311  10.415
44699W        W 8423  42.940   4.903  10.021
44700W        W 8424   3.874  40.456   4.292
44701W        W 8425  26.977   1.373   3.735
44702W        W 8426  13.844  18.244  14.324
44703W        W 8427  41.844  24.010  13.379
44704W        W 8428  16.257   0.258  11.952
44705W        W 8429  12.165  29.520  13.467
44706W        W 8430   1.444  40.504  11.395
44707W        W 8431  14.269  32.970  10.947
44708W        W 8432  10.765   8.250   1.817
44709W        W 8433  25.548   4.320   3.706
44710W        W 8434  13.642   1.444   4.746
44711W        W 8435  37.444  29.456  13.405
44712W        W 8436  10.737  27.050  12.351
44713W        W 8437   7.226  44.767   0.867
44714W        W 8438   0.898  31.105  14.440
44715W        W 8439  39.004  14.141   3.631
44716W        W 8440  16.646   0.840   3.241
44717W        W 8441   7.667  33.592   1.405
44718W        W 8442   5.355  26.539  14.374
44719W        W 8443  30.124  20.662  12.920
44720W        W 8444  13.212  17.184   0.306
44721W        W 8445  37.901   5.374  12.074
44722W        W 8446  11.742   4.934  12.055
44723W        W 8447   6.779   8.333  12.448
44724W        W 8448  33.015  33.612   2.808
44725W        W 8449   8.332  16.765  10.432
44726W        W 8450   5.436  14.303  12.451
44727W        W 8451  10.708  41.029   3.765
44728W        W 8452  12.828  13.228  12.360
44729W        W 8453  41.448  17.761  14.960
44730W        W 8454  23.148  28.995  12.426
44731W        W 8455   3.749  34.931  14.400
44732W        W 8456  33.541  41.316  13.028
44733W        W 8457   9.684  38.969  11.974
44734W        W 8458  18.592  29.622  12.347
44735W        W 8459  17.691   9.775   0.373
44736W        W 8460  23.675   1.401  14.462
44737W        W 8461  12.194  37.562  13.543
44738W        W 8462  26.554   9.650   3.813
44739W        W 8463   3.291  36.588  14.874
44740W        W 8464   9.736   8.719   3.847
44741W        W 8465  15.824  29.970   2.180
44742W        W 8466  21.196  26.534  11.906
44743W        W 8467   5.338   2.285   4.326
44744W        W 8468  27.455   0.285  14.427
44745W        W 8469   4.314  27.506   3.222
44746W        W 8470  18.750  36.363  13.793
44747W        W 8471   2.250   2.470   1.730
44748W        W 8472  39.045  31.494   3.827
44749W        W 8473   5.801  10.207  11.110
44750W        W 8474  34.553  20.685   1.217
44751W        W 8475  24.703  20.256   4.742
44752W        W 8476  43.984  38.410   1.293
44753W        W 8477   3.405  11.865  12.527
44754W        W 8478  26.473  38.871  10.521
44755W        W 8479   6.423  30.509   0.341
44756W        W 8480  22.051  42.968  11.036
44757W        W 8481  33.056  16.748   1.371
44758W        W 8482  16.137  29.649  13.994
44759W        W 8483   0.790  34.532  10.431
44760W        W 8484  11.828  43.786   4.195
44761W        W 8485  40.991  21.661  11.875
44762W        W 8486  24.536  24.112  12.508
44763W        W 8487  15.599  40.044  10.005
44764W        W 8488  31.470  24.589   0.825
44765W        W 8489  14.127  23.592  11.377
44766W        W 8490  12.197  27.159  12.087
44767W        W 8491  39.941  37.373   0.852
44768W        W 8492  43.463  42.299  14.893
44769W        W 8493  20.031  28.980   1.424
44770W        W 8494  30.453  24.085  11.933
44771W        W 8495   0.819  14.592  11.059
44772W        W 8496  13.632  23.077   1.380
44773W        W 8497   6.829  25.983   4.838
44774W        W 8498  42.327  27.600  14.449
44775W        W 8499  18.663   1.251  12.372
44776W        W 8500   4.940  38.833  14.950
44777W        W 8501  21.263   4.363   0.746
44778W        W 8502  25.994  32.591  13.867
44779W        W 8503  22.710  20.588  14.005
44780W        W 8504  42.934   5.248   4.114
44781W        W 8505   1.323  34.472   3.705
44782W        W 8506  23.134  33.939  12.019
44783W        W 8507  23.532  31.640   2.768
44784W        W 8508  37.447  23.120   4.623
44785W        W 8509  14.170   3.281  11.581
44786W        W 8510  29.934  17.652   4.312
44787W        W 8511  44.760  15.640   3.709
44788W        W 8512  23.695  32.076  12.019
44789W        W 8513   8.296  12.790  13.343
44790W        W 8514   4.353  36.850   1.326
44791W        W 8515   8.402  13.801   3.167
44792W        W 8516   5.882  23.569  13.824
44793W        W 8517   3.733  12.249  14.294
44794W        W 8518   1.906   9.872   0.759
44795W        W 8519  31.595  21.145   1.922
44796W        W 8520  26.495   8.360   4.227
44797W        W 8521  22.203  32.089   0.297
44798W        W 8522   0.958  25.026  13.443
44799W        W 8523   5.920  12.318   2.846
44800W        W 8524  42.826  17.692  13.033
44801W        W 8525  32.016  21.076   3.799
44802W        W 8526  32.553  10.704  12.013
44803W        W 8527   8.763  24.182  11.999
44804W        W 8528  40.426   5.711  12.486
44805W        W 8529  35.434  36.499  11.864
44806W        W 8530   0.415   3.323   3.321
44807W        W 8531  29.001  32.577   0.925
44808W        W 8532  28.179  42.323   0.892
44809W        W 8533  34.599  24.687   4.167
44810W        W 8534  19.088  24.009   3.715
44811W        W 8535  41.398  11.635  14.921
44812W        W 8536  39.523  41.414   5.746
44813W        W 8537  12.824  43.478  12.828
44814W        W 8538   8.687  29.572  12.018
44815W        W 8539   6.230  43.919   1.398
44816W        W 8540  34.949   9.843  14.331
44817W        W 8541   5.698   5.893   1.437
44818W        W 8542  15.270   6.242   0.406
44819W        W 8543  22.151   8.799  14.817
44820W        W 8544   9.658  12.305  11.427
44821W        W 8545  14.313  39.892   3.761
44822W        W 8546  22.613  37.926  14.989
44823W        W 8547  16.696  41.296  14.000
44824W        W 8548  40.446  23.108   1.413
44825W        W 8549  28.149  34.432  14.334
44826W        W 8550  14.210   5.697   1.409
44827W        W 8551  12.658   1.963   1.317
44828W        W 8552  24.207  19.745  12.420
44829W        W 8553  40.914  12.190   0.438
44830W        W 8554  20.268   0.820  14.808
44831W        W 8555  14.313  10.250   4.201
44832W        W 8556   0.769  19.715  11.499
44833W        W 8557  36.986  40.950  11.546
44834W        W 8558  14.753  21.147  11.084
44835W        W 8559  36.383  32.405   1.798
44836W        W 8560  26.516  33.596  11.937
44837W        W 8561   1.751  20.076   4.317
44838W        W 8562   5.784  14.212   1.428
44839W        W 8563  19.737   4.838  13.429
44840W        W 8564  14.739  25.087  10.997
44841W        W 8565  42.428  14.682  12.905
44842W        W 8566  27.145  24.701  12.458
44843W        W 8567  42.870  30.463   0.910
44844W        W 8568  12.120   7.237   4.196
44845W        W 8569   7.415   8.754  11.896
44846W        W 8570  20.689  35.045  14.321
44847W        W 8571  36.952  37.974   0.758
44848W        W 8572  42.478  34.962   0.380
44849W        W 8573  31.575  44.307  12.540
44850W        W 8574  29.067  15.319  12.380
44851W        W 8575  44.775  25.102   2.749
44852W        W 8576   4.841  18.682  14.441
44853W        W 8577  22.161  23.617  11.031
44854W        W 8578   4.345   1.378   1.420
44855W        W 8579  16.301  28.550   3.247
44856W        W 8580  12.260  20.131  13.400
44857W        W 8581   3.874   7.889  13.013
44858W        W 8582  16.235  16.753   0.474
44859W        W 8583  33.562   0.856   1.338
44860W        W 8584   1.770  14.266   1.339
44861W        W 8585   4.941   3.414   3.249
44862W        W 8586  27.531  27.099   1.735
44863W        W 8587   4.704  16.224   1.830
44864W        W 8588  34.085  32.477   3.243
44865W        W 8589  12.231  37.029  13.899
44866W        W 8590   6.881   0.803  14.778
44867W        W 8591   3.813   0.874   3.265
44868W        W 8592   4.335  26.080  13.968
44869W        W 8593  34.972  37.878   3.360
44870W        W 8594  27.037  21.555  14.294
44871W        W 8595   3.266  18.725   2.892
44872W        W 8596  29.607   0.254   2.838
44873W        W 8597  34.500  21.025   1.697
44874W        W 8598  27.545  14.629  14.312
44875W        W 8599   8.691  10.306  12.856
44876W        W 8600  43.286  18.206   3.249
44877W        W 8601  27.524  28.511  14.420
44878W        W 8602  42.847  35.603   2.256
44879W        W 8603  43.011  21.752  13.838
44880W        W 8604  40.903  27.142  14.332
44881W        W 8605  42.976  14.227  14.412
44882W        W 8606  37.336  37.079   3.375
44883W        W 8607  22.559   8.343  10.895
44884W        W 8608  21.135  24.094   2.251
44885W        W 8609  34.571   2.811  14.280
44886W        W 8610   0.931  17.258   2.723
44887W        W 8611  44.907  37.349   4.670
44888W        W 8612   4.366  13.311   2.717
44889W        W 8613  22.037  19.538   1.371
44890W        W 8614  28.615  34.956   2.768
44891W        W 8615   4.216  28.506  11.385
44892W        W 8616   1.833  31.436  13.046
44893W        W 8617  39.972   0.778   9.949
44894W        W 8618  26.629  39.553  11.089
44895W        W 8619  32.394  40.383  12.910
44896W        W 8620   9.684  22.560   1.861
44897W        W 8621   9.324  27.994  14.900
44898W        W 8622  39.953  34.583  14.503
44899W        W 8623  19.716   6.229   1.843
44900W        W 8624   5.319  13.283   3.746
44901W        W 8625   9.226  28.515   3.780
44902W        W 8626  21.056  31.636   3.746
44903W        W 8627  24.480  31.435  13.854
44904W        W 8628   8.862  25.962  13.498
44905W        W 8629  15.138   8.779   3.381
44906W        W 8630  35.908  38.488  14.969
44907W        W 8631  41.352  33.098  11.441
44908W        W 8632  32.455  26.140  14.496
44909W        W 8633   5.872   4.779   2.301
44910W        W 8634   3.747  43.310   4.290
44911W        W 8635  40.840  10.793   4.253
44912W        W 8636   2.919  28.984  11.518
44913W        W 8637   1.346  27.958  11.965
44914W        W 8638  37.087  10.282  11.532
44915W        W 8639  26.530  33.415   1.855
44916W        W 8640  27.993  43.963  10.426
44917W        W 8641  28.149  20.568   3.843
44918W        W 8642  27.052   9.670  12.475
44919W        W 8643  28.598   5.289  10.516
44920W        W 8644  16.306  27.143   4.794
44921W        W 8645  40.507  16.785  14.444
44922W        W 8646   0.273  13.206  11.989
44923W        W 8647  11.368   8.200   3.286
44924W        W 8648  29.998  43.450   1.859
44925W        W 8649  21.757  21.517   0.346
44926W        W 8650  29.523  28.006  10.587
44927W        W 8651  28.582  36.033  10.456
44928W        W 8652  18.188   3.392  13.973
44929W        W 8653  28.675  16.602   3.226
44930W        W 8654  34.042  32.556   2.664
44931W        W 8655   8.756  19.202   0.934
44932W        W 8656  25.627  15.304  13.392
44933W        W 8657  39.913  15.714   1.252
44934W        W 8658  15.609  11.197   2.363
44935W        W 8659  18.231  36.960  11.541
44936W        W 8660  35.976  16.701  10.500
44937W        W 8661  19.677  39.018   3.201
44938W        W 8662  32.053  28.468   1.772
44939W        W 8663  26.522   0.354   1.833
44940W        W 8664  38.434   4.874   2.887
44941W        W 8665  34.550  22.208   3.342
44942W        W 8666   0.256  22.184  13.020
44943W        W 8667  41.993  12.650   5.275
44944W        W 8668   9.204   3.359  14.858
44945W        W 8669  27.503   7.851  12.081
44946W        W 8670  19.246  15.191  10.440
44947W        W 8671   4.253  27.561  11.555
44948W        W 8672  38.988  33.125  13.377
44949W        W 8673  44.009  36.504   4.756
44950W        W 8674  43.788  41.501   3.227
44951W        W 8675  11.292  42.846  11.507
44952W        W 8676  44.442  25.616   0.481
44953W        W 8677  15.698  13.165  14.846
44954W        W 8678  44.839  37.356  13.858
44955W        W 8679  32.958  29.005  10.478
44956W        W 8680  27.122  28.956  11.883
44957W        W 8681   0.417  40.004  14.320
44958W        W 8682   0.964  26.003   2.785
44959W        W 8683  38.500  35.085  11.508
44960W        W 8684  19.613  42.369  14.512
44961W        W 8685   7.874  37.048  11.541
44962W        W 8686  32.938  22.695   4.191
44963W        W 8687  30.123  26.994  10.961
44964W        W 8688  16.252  42.384  12.923
44965W        W 8689  16.690  39.810   2.861
44966W        W 8690  13.674  22.669  12.405
44967W        W 8691  44.260  12.255  14.464
44968W        W 8692  24.033  36.491  14.401
44969W        W 8693  24.597  39.877   1.703
44970W        W 8694  19.192  17.751   3.704
44971W        W 8695  21.218  24.043  10.451
44972W        W 8696  34.877  27.564   4.798
44973W        W 8697   9.254  32.517  11.552
44974W        W 8698  24.722  13.669   0.730
44975W        W 8699  28.938  27.605   3.648
44976W        W 8700  17.065  42.930   9.947
44977W        W 8701  15.175  27.171   0.250
44978W        W 8702   8.391   7.305   1.220
44979W        W 8703  24.690   8.861  11.070
44980W        W 8704  24.573   5.786  13.311
44981W        W 8705  23.141   1.239  13.950
44982W        W 8706  21.069  36.593   2.226
44983W        W 8707  15.131   4.890   1.287
44984W        W 8708  34.605  19.607   2.814
44985W        W 8709  40.409  42.973   2.839
44986W        W 8710  19.610  11.213  13.525
44987W        W 8711  12.632  23.233  13.411
44988W        W 8712  33.392   5.408   4.723
44989W        W 8713  29.170   5.358  13.993
44990W        W 8714   7.701  16.577   0.942
44991W        W 8715  26.697  24.973   1.766
44992W        W 8716  32.457  34.375  14.822
44993W        W 8717  36.383   6.409  12.881
44994W        W 8718  26.644  40.353  12.497
44995W        W 8719  12.831  27.508   4.270
44996W        W 8720   3.461   5.871   0.953
44997W        W 8721  42.994  32.610   0.951
44998W        W 8722   8.227  40.306   4.773
44999W        W 8723   6.385  12.197   2.358
45000W        W 8724  37.856  30.045  13.537
45001W        W 8725  25.688   4.260   2.728
45002W        W 8726  43.485  42.990  14.319
45003W        W 8727   5.352  17.679  13.351
45004W        W 8728   1.793  33.453  10.416
45005W        W 8729  16.799  17.154  14.005
45006W        W 8730  35.478   7.380   0.406
45007W        W 8731   6.849  33.504  13.807
45008W        W 8732   6.882   6.791  11.021
45009W        W 8733  28.110  32.501   3.658
45010W        W 8734  11.738  40.940  11.864
45011W        W 8735  36.486  40.809  11.487
45012W        W 8736  36.531  38.430  11.048
45013W        W 8737   3.258  40.355  13.994
45014W        W 8738  37.442  13.157  11.929
45015W        W 8739  37.411  28.130   4.190
45016W        W 8740  42.428  20.604  11.588
45017W        W 8741  40.000  44.433  10.888
45018W        W 8742  14.819  43.308  13.496
45019W        W 8743  34.883  24.117   5.245
45020W        W 8744  22.642   5.847  14.295
45021W        W 8745  44.312  30.977   2.792
45022W        W 8746  32.489  41.428   4.288
45023W        W 8747  19.619  38.836  13.426
45024W        W 8748   6.403  12.209  10.035
45025W        W 8749   5.891   2.741   2.762
45026W        W 8750   1.371  29.661   4.262
45027W        W 8751  15.111  26.647   4.807
45028W        W 8752   7.202  11.791   2.756
45029W        W 8753  42.290   5.422  12.091
45030W        W 8754  22.198   7.759  12.868
45031W        W 8755  23.701   5.850  12.562
45032W        W 8756  16.787   4.366  13.810
45033W        W 8757  25.512   9.652   2.837
45034W        W 8758  12.739  33.056   2.873
45035W        W 8759  34.981  18.069   4.821
45036W        W 8760  27.101  42.288   3.665
45037W        W 8761   8.181   9.297   2.881
45038W        W 8762  28.600  28.018   2.371
45039W        W 8763  33.527  41.824  11.522
45040W        W 8764  33.386  12.345   0.458
45041W        W 8765  42.469   6.267  11.127
45042W        W 8766  37.044  28.490   2.860
45043W        W 8767  36.592  34.599  10.062
45044W        W 8768  23.615  14.296   4.791
45045W        W 8769  10.649  35.590  10.888
45046W        W 8770  43.767  31.117   3.314
45047W        W 8771  24.196  37.459  12.438
45048W        W 8772  41.477  13.788   0.480
45049W        W 8773   6.312  37.993  13.005
45050W        W 8774  22.686  40.374   4.322
45051W        W 8775   7.901  16.163  14.438
45052W        W 8776   7.686  34.530   3.710
45053W        W 8777  10.285  39.984  11.447
45054W        W 8778  27.189   7.259   2.815
45055W        W 8779  37.416  31.508   3.153
45056W        W 8780  18.187  40.489  11.114
45057W        W 8781  15.814  27.159  12.085
45058W        W 8782  24.666  23.169  11.991
45059W        W 8783  35.525   0.880  11.008
45060W        W 8784  31.600  31.070   0.346
45061W        W 8785  42.525  42.984  12.518
45062W        W 8786  30.980  33.459  14.479
45063W        W 8787  40.322   5.363  10.431
45064W        W 8788  26.471  44.343  12.348
45065W        W 8789  33.934  26.478   4.336
45066W        W 8790  26.047  14.252  12.946
45067W        W 8791   6.347  38.915   1.392
45068W        W 8792  27.672  18.055  14.944
45069W        W 8793  44.952  22.535  11.094
45070W        W 8794  26.186  38.489  11.582
45071W        W 8795  19.250  28.655  11.529
45072W        W 8796  20.060   0.811   3.777
45073W        W 8797   7.738  24.609  14.441
45074W        W 8798  10.185  22.091  13.011
45075W        W 8799  15.730  20.635  10.502
45076W        W 8800  44.880  19.167   4.618
45077W        W 8801  13.165  15.124  12.013
45078W        W 8802  37.556  22.709  11.602
45079W        W 8803  37.389   5.895   2.854
45080W        W 8804   3.446  14.682   3.387
45081W        W 8805   9.347   5.255   1.909
45082W        W 8806   4.825   6.210  13.500
45083W        W 8807  16.709  17.179   0.967
45084W        W 8808   1.915  15.245  13.352
45085W        W 8809  33.441  31.151  14.990
45086W        W 8810  12.628   1.906  14.384
45087W        W 8811   4.777   2.938   1.226
45088W        W 8812  38.330  12.755  13.513
45089W        W 8813  15.269   5.363   0.757
45090W        W 8814  40.411   6.220   3.283
45091W        W 8815  35.993   4.745   0.945
45092W        W 8816  35.927  43.938   2.288
45093W        W 8817  31.466  26.008   3.174
45094W        W 8818  39.478  31.458   2.197
45095W        W 8819   2.925  21.569   2.263
45096W        W 8820  32.029  16.196  11.478
45097W        W 8821  23.994  36.841  10.134
45098W        W 8822  27.652  15.769   4.163
45099W        W 8823  29.946  10.758  14.454
45100W        W 8824  42.364   2.833  10.575
45101W        W 8825  40.540  40.954  10.958
45102W        W 8826  26.587  10.760   0.813
45103W        W 8827  41.876  34.056  14.989
45104W        W 8828  35.008  29.138   3.207
45105W        W 8829  36.518  23.669   4.629
45106W        W 8830  28.503   1.474  11.442
45107W        W 8831   0.778  26.098   0.402
45108W        W 8832  14.249  26.610   2.745
45109W        W 8833  34.118  38.930   3.270
45110W        W 8834  31.106  16.568   3.330
45111W        W 8835  28.487  35.415   1.837
45112W        W 8836   8.366  42.974   3.732
45113W        W 8837  35.973   7.850   4.312
45114W        W 8838   2.337  30.464   0.731
45115W        W 8839   0.385  14.248  11.431
45116W        W 8840   9.175   7.314  13.963
45117W        W 8841  28.040  39.406  14.847
45118W        W 8842   0.944  22.710  14.840
45119W        W 8843  39.907   5.740  10.991
45120W        W 8844  17.129   7.305  13.834
45121W        W 8845  27.149  43.020  11.874
45122W        W 8846  44.320  26.032   4.721
45123W        W 8847  42.344  35.565   0.443
45124W        W 8848  44.400  31.927  11.454
45125W        W 8849   4.747  35.413   2.861
45126W        W 8850  14.317  12.658  13.812
45127W        W 8851  33.605   6.240  13.416
45128W        W 8852  38.375   8.833   3.713
45129W        W 8853  19.180  35.904   1.818
45130W        W 8854   4.881  25.074  12.047
45131W        W 8855   7.363  37.896   3.724
45132W        W 8856  42.952   8.686  11.128
45133W        W 8857  11.190  41.956  14.847
45134W        W 8858   0.381  10.341  10.069
45135W        W 8859   0.801  18.076   1.779
45136W        W 8860   8.889  27.091   2.412
45137W        W 8861   6.341  41.905   3.309
45138W        W 8862  32.905   0.330  13.040
45139W        W 8863   6.726  17.179  11.083
45140W        W 8864  38.977  14.734   2.879
45141W        W 8865  21.719   3.847  11.403
45142W        W 8866   4.780   6.203  12.519
45143W        W 8867  31.537  19.717  11.477
45144W        W 8868  25.474  44.982  12.373
45145W        W 8869  39.001  25.700   3.682
45146W        W 8870  35.493   4.403   4.192
45147W        W 8871  28.993  31.135   3.314
45148W        W 8872  26.039  44.761   2.262
45149W        W 8873  26.562  13.339   3.281
45150W        W 8874   2.439  17.302  11.910
45151W        W 8875  31.467  11.733  11.479
45152W        W 8876  27.659   3.757  11.521
45153W        W 8877  14.198  10.314   2.724
45154W        W 8878  34.093   1.930  12.513
45155W        W 8879  32.134   2.817  10.507
45156W        W 8880  31.048  26.955  11.471
45157W        W 8881   5.838   7.835  14.765
45158W        W 8882  33.446   3.399  10.085
45159W        W 8883  13.690  43.368   1.305
45160W        W 8884  26.526  37.930  11.444
45161W        W 8885  13.174   9.703   2.840
45162W        W 8886  24.718  22.219  11.590
45163W        W 8887  20.684  41.035   3.323
45164W        W 8888  42.504  21.653  13.514
45165W        W 8889  27.120   5.881  14.000
45166W        W 8890  33.062  27.127  14.498
45167W        W 8891  29.622  34.959  14.828
45168W        W 8892  14.164  17.668   2.191
45169W        W 8893  39.952  26.007  11.438
45170W        W 8894  32.485  16.712  13.955
45171W        W 8895  22.191  41.471   5.182
45172W        W 8896  24.542  44.451   2.291
45173W        W 8897  13.126  44.388   3.699
45174W        W 8898  26.588  44.811   1.746
45175W        W 8899  11.728   8.678   1.356
45176W        W 8900  27.114   6.798  14.398
45177W        W 8901  14.136  24.721   3.679
45178W        W 8902  37.846   2.392  12.426
45179W        W 8903  37.004  42.372  14.766
45180W        W 8904  12.342  11.752   2.781
45181W        W 8905  38.860  43.945   2.295
45182W        W 8906  24.635   4.228  14.295
45183W        W 8907   3.441  44.399   1.873
45184W        W 8908  37.050  43.873   5.288
45185W        W 8909  24.204  27.560   3.374
45186W        W 8910   0.389  36.886  12.505
45187W        W 8911  31.100  42.924  10.920
45188W        W 8912  23.081  36.037   0.409
45189W        W 8913  40.022  36.497  10.903
45190W        W 8914  21.659   4.425   3.267
45191W        W 8915  15.117   7.800   1.211
45192W        W 8916  38.554  31.548   2.683
45193W        W 8917   4.381   4.907  11.051
45194W        W 8918  42.349   7.265   1.908
45195W        W 8919   9.844  17.184   4.615
45196W        W 8920  27.186  39.393   4.234
45197W        W 8921  28.456  21.698  12.448
45198W        W 8922  34.986  37.435  11.104
45199W        W 8923  36.558  36.566  13.863
45200W        W 8924  40.473   6.787  14.331
45201W        W 8925  18.694  27.609  10.937
45202W        W 8926  31.464  40.050   2.828
45203W        W 8927  35.455   6.756   4.718
45204W        W 8928   9.719  27.527  13.479
45205W        W 8929  22.672   1.741  10.994
45206W        W 8930  10.349  27.583  13.848
45207W        W 8931  19.705   1.858   1.903
45208W        W 8932   5.417  10.150   0.870
45209W        W 8933   4.322   0.271   2.330
45210W        W 8934  20.614  12.362  14.321
45211W        W 8935  19.246  32.580  14.963
45212W        W 8936  30.931  24.586  12.885
45213W        W 8937   8.252  28.645  14.285
45214W        W 8938   9.338  22.605   2.264
45215W        W 8939  15.305  37.376   1.273
45216W        W 8940  25.115  38.048   3.229
45217W        W 8941  37.386  34.601   1.812
45218W        W 8942  26.529  35.526   1.375
45219W        W 8943  13.832   5.265   2.240
45220W        W 8944  28.646  14.266   1.335
45221W        W 8945   4.837  42.496   3.209
45222W        W 8946   4.342  44.873  12.427
45223W        W 8947   2.726  40.511  11.494
45224W        W 8948  19.170   6.903  11.871
45225W        W 8949  42.341  33.622   5.279
45226W        W 8950  23.198  23.202   1.819
45227W        W 8951  41.817  23.053  14.313
45228W        W 8952  14.120  11.150  11.590
45229W        W 8953  34.995  40.997   3.745
45230W        W 8954  41.022  19.063  12.574
45231W        W 8955  37.354  14.335  12.474
45232W        W 8956  41.422  11.326  11.564
45233W        W 8957   9.780  10.235  14.957
45234W        W 8958  27.674  23.184  12.482
45235W        W 8959  26.662  42.990  10.014
45236W        W 8960  22.181   6.826  14.855
45237W        W 8961  41.449  37.526   9.500
45238W        W 8962  32.501   9.265   0.802
45239W        W 8963  42.479  38.057   4.326
45240W        W 8964  15.161  43.771   4.182
45241W        W 8965   2.268  10.742   4.793
45242W        W 8966  23.642  31.615   0.914
45243W        W 8967  23.591  40.817   3.162
45244W        W 8968  15.733  12.643   2.201
45245W        W 8969  43.384  34.492  14.310
45246W        W 8970  10.874   6.688  13.349
45247W        W 8971   0.488  23.230   0.775
45248W        W 8972  28.524   2.741   1.805
45249W        W 8973  40.880  43.904  10.893
45250W        W 8974  12.724   7.208  12.422
45251W        W 8975  26.144  35.531   3.369
45252W        W 8976  15.107  38.839   1.849
45253W        W 8977  13.617  11.831  11.520
45254W        W 8978   9.765   7.748   4.165
45255W        W 8979  43.291  34.462   5.161
45256W        W 8980  25.483  23.072   3.246
45257W        W 8981  23.593  30.534  13.530
45258W        W 8982  13.139  27.548   4.793
45259W        W 8983  21.532   5.879   0.821
45260W        W 8984  15.152   3.386   0.735
45261W        W 8985  40.947  13.166  11.033
45262W        W 8986  40.456  40.911  13.502
45263W        W 8987   8.801  25.705   3.850
45264W        W 8988  29.638  29.102  11.071
45265W        W 8989  35.505  44.338   0.959
45266W        W 8990  29.432  21.041  12.572
45267W        W 8991  15.254  16.583   0.324
45268W        W 8992  26.200   6.201   3.844
45269W        W 8993  37.379  38.066   0.932
45270W        W 8994   0.323  29.630  12.906
45271W        W 8995  43.914  28.588   0.427
45272W        W 8996  18.064  30.089  14.823
45273W        W 8997  36.957  40.809   0.751
45274W        W 8998  31.113  30.503   0.385
45275W        W 8999   0.459  18.550  14.507
45276W        W 9000  28.959  42.348   4.230
45277W        W 9001  13.838  20.244  12.978
45278W        W 9002  21.033  12.215  11.506
45279W        W 9003  23.006  20.650   4.637
45280W        W 9004  35.508  11.861  12.524
45281W        W 9005  12.728  17.567   0.796
45282W        W 9006  14.760  29.927   0.882
45283W        W 9007  19.208  35.470  12.063
45284W        W 9008  40.873   8.374  10.604
45285W        W 9009  20.140   9.236   1.841
45286W        W 9010   8.716  31.058  12.014
45287W        W 9011  43.016  31.150  12.438
45288W        W 9012  20.227  43.433   3.834
45289W        W 9013   7.392  10.262   9.675
45290W        W 9014  41.504   7.205   1.841
45291W        W 9015  12.215   9.392  13.899
45292W        W 9016  15.242  15.175  13.375
45293W        W 9017  24.217   3.387   0.811
45294W        W 9018  24.121  44.384   2.203
45295W        W 9019  37.345  19.567  11.958
45296W        W 9020  41.507  44.983   1.323
45297W        W 9021  44.400  15.141   4.669
45298W        W 9022   4.229  42.985  14.926
45299W        W 9023  42.974  28.481  13.508
45300W        W 9024  10.821   0.456   0.930
45301W        W 9025   1.330  41.375  14.949
45302W        W 9026  29.621  28.954   1.835
45303W        W 9027  44.819  16.244  11.943
45304W        W 9028  12.669  15.116   4.647
45305W        W 9029  38.539  26.519   0.923
45306W        W 9030  20.642  10.222   1.925
45307W        W 9031  40.338  10.268  11.468
45308W        W 9032   7.398  11.779  13.840
45309W        W 9033   1.742   4.701  14.941
45310W        W 9034  38.019  35.925   2.778
45311W        W 9035   4.357  19.672  10.518
45312W        W 9036  21.629  26.616  13.458
45313W        W 9037  40.498  44.834  13.335
45314W        W 9038  44.893  16.239   3.650
45315W        W 9039   0.299   7.390  11.503
45316W        W 9040  37.919  19.047  10.432
45317W        W 9041  23.151  34.870   0.755
45318W        W 9042  15.096  27.057   0.872
45319W        W 9043  23.109  29.540   0.754
45320W        W 9044   3.926   1.900   3.645
45321W        W 9045  29.079   4.213   0.306
45322W        W 9046   0.931   8.855  13.433
45323W        W 9047   8.753  37.368   3.270
45324W        W 9048  43.881   9.296   3.159
45325W        W 9049  15.811  42.843  10.406
45326W        W 9050  27.011   9.318   1.282
45327W        W 9051  22.239  28.629   5.757
45328W        W 9052  44.363  13.295   1.321
45329W        W 9053   8.214   0.322  11.468
45330W        W 9054   6.313  38.003  11.497
45331W        W 9055  27.583  43.428   4.350
45332W        W 9056  40.916  32.603   0.265
45333W        W 9057  34.893  24.113   2.365
45334W        W 9058  17.249  22.010   2.276
45335W        W 9059  14.094  12.235   1.302
45336W        W 9060  11.189  13.224   0.755
45337W        W 9061  17.199  11.740  13.830
45338W        W 9062  24.161  11.265   4.615
45339W        W 9063  41.486  17.787  11.973
45340W        W 9064  10.803   2.350   0.839
45341W        W 9065   5.292   5.399   2.705
45342W        W 9066  31.571  12.190  10.960
45343W        W 9067  29.564  43.780   0.412
45344W        W 9068  33.561  16.808   0.778
45345W        W 9069  23.629  16.169   0.281
45346W        W 9070  36.471   1.329  11.913
45347W        W 9071   6.301  17.680   3.705
45348W        W 9072  39.485  38.854  13.887
45349W        W 9073   8.688  41.915  12.076
45350W        W 9074  38.889  13.839  12.438
45351W        W 9075  32.493  14.693   0.821
45352W        W 9076   4.908  28.560  10.539
45353W        W 9077  43.802  34.870   3.238
45354W        W 9078  13.172   2.250  13.481
45355W        W 9079  15.821  37.380  13.330
45356W        W 9080  40.864  39.990  13.325
45357W        W 9081  36.506  37.396  10.024
45358W        W 9082   0.940  18.179  14.828
45359W        W 9083  18.261   9.267   0.383
45360W        W 9084  28.654   7.847  14.290
45361W        W 9085  38.011  10.777   2.278
45362W        W 9086   6.232   8.313   1.869
45363W        W 9087  41.518  41.985  12.411
45364W        W 9088  20.141  20.734  11.035
45365W        W 9089  42.980   0.367   2.896
45366W        W 9090  32.537  21.546   3.182
45367W        W 9091  44.469  35.011  14.391
45368W        W 9092  25.659  29.555   9.530
45369W        W 9093  22.144  27.083  14.320
45370W        W 9094  11.259  39.532   3.838
45371W        W 9095  21.179  33.472  13.059
45372W        W 9096  39.337  34.099   2.777
45373W        W 9097   1.850  43.865   4.606
45374W        W 9098  10.835  33.599  11.978
45375W        W 9099  19.235  35.014   1.332
45376W        W 9100   0.841   8.198  13.943
45377W        W 9101  27.546  10.355   1.411
45378W        W 9102  30.537  43.881  11.007
45379W        W 9103   6.187  37.565   3.644
45380W        W 9104  13.202  42.335  14.004
45381W        W 9105   3.789  21.513   2.850
45382W        W 9106  37.339  16.141  14.782
45383W        W 9107  16.659  42.906  13.855
45384W        W 9108  15.094  22.655   2.892
45385W        W 9109  42.940  16.577  14.389
45386W        W 9110   2.280   3.285  14.413
45387W        W 9111  23.990  12.833   0.744
45388W        W 9112  17.290  31.528   4.827
45389W        W 9113  16.602  16.736   1.369
45390W        W 9114  44.856  26.653  10.418
45391W        W 9115  11.755  11.277  13.331
45392W        W 9116  17.675   7.746  10.485
45393W        W 9117  33.593  23.666   3.208
45394W        W 9118   7.317  15.155   4.683
45395W        W 9119  10.842  26.191  14.295
45396W        W 9120  43.377  11.740  11.075
45397W        W 9121  21.146   0.447   2.805
45398W        W 9122  20.264  26.514  11.404
45399W        W 9123   1.361  12.620   1.790
45400W        W 9124  18.184  32.049   0.420
45401W        W 9125  43.278   9.715   3.634
45402W        W 9126   7.686  35.574   4.250
45403W        W 9127  16.126  16.698   3.296
45404W        W 9128   2.276  38.034   3.667
45405W        W 9129  28.978   9.802  14.437
45406W        W 9130  20.204  23.217   3.718
45407W        W 9131   3.416   8.174   4.261
45408W        W 9132  29.149  35.076  12.995
45409W        W 9133  10.668  22.630   2.783
45410W        W 9134   8.818  17.063   5.120
45411W        W 9135  42.373  33.050  14.444
45412W        W 9136  40.029  13.788   2.330
45413W        W 9137  18.651   4.731   4.667
45414W        W 9138  37.427  33.591  14.348
45415W        W 9139  44.884  44.808  13.036
45416W        W 9140  17.252  13.169  12.823
45417W        W 9141  28.954  43.470   2.809
45418W        W 9142  39.889  43.460   0.257
45419W        W 9143  16.171  37.068  12.545
45420W        W 9144  23.223  25.562   4.262
45421W        W 9145   7.367  36.543  12.839
45422W        W 9146  38.533  24.541   1.775
45423W        W 9147  27.187  36.405  12.379
45424W        W 9148  25.180  26.953   3.856
45425W        W 9149  33.400   8.796   2.410
45426W        W 9150   5.315  14.810   4.289
45427W        W 9151  23.054  21.155  11.110
45428W        W 9152  15.227  27.593   0.731
45429W        W 9153  36.438  31.966  13.998
45430W        W 9154  36.573  28.462  14.764
45431W        W 9155  44.829   1.850   1.322
45432W        W 9156  39.810  42.415   1.725
45433W        W 9157   8.837  20.698   0.367
45434W        W 9158  10.186   1.357   1.884
45435W        W 9159  11.162  15.797  11.561
45436W        W 9160  25.987  44.976  14.953
45437W        W 9161  34.052  44.403  12.985
45438W        W 9162  43.830   1.332  11.955
45439W        W 9163   5.783   5.815   3.787
45440W        W 9164  15.194  41.808  12.428
45441W        W 9165  36.877  20.151   3.686
45442W        W 9166   9.809  41.398   4.208
45443W        W 9167   7.395  39.945   3.276
45444W        W 9168  28.444  43.803   4.133
45445W        W 9169  13.702  10.177   2.745
45446W        W 9170   9.248   2.342   2.859
45447W        W 9171   4.825  33.481   2.414
45448W        W 9172  27.060  38.406  14.453
45449W        W 9173  41.424  18.687   4.191
45450W        W 9174  13.660  31.938  13.794
45451W        W 9175  20.757  37.923   3.670
45452W        W 9176  44.433  22.215   1.299
45453W        W 9177   0.430   8.840   4.693
45454W        W 9178  15.755  33.446   4.643
45455W        W 9179  35.507  12.671   0.855
45456W        W 9180  41.938  19.691   3.175
45457W        W 9181  11.259  40.547  12.369
45458W        W 9182   9.875  40.011   3.735
45459W        W 9183   9.256  35.870   3.319
45460W        W 9184  20.104  20.103  13.976
45461W        W 9185  37.576  38.465  13.326
45462W        W 9186  21.247   8.316   3.743
45463W        W 9187  25.083  33.959  12.351
45464W        W 9188  20.524  31.953   2.799
45465W        W 9189  20.248  40.845  13.950
45466W        W 9190  23.629  19.142   2.879
45467W        W 9191   7.723  40.812   2.833
45468W        W 9192  22.590  23.537   1.714
45469W        W 9193  15.185   2.468   0.246
45470W        W 9194   4.297   4.818  12.042
45471W        W 9195   1.743  19.745   4.316
45472W        W 9196  35.894  38.412  10.965
45473W        W 9197   2.853  28.452   3.254
45474W        W 9198   0.744  14.231  10.474
45475W        W 9199  21.637  39.908  11.586
45476W        W 9200  29.937  33.046   4.150
45477W        W 9201   2.821  33.994  12.080
45478W        W 9202  17.691  42.799   4.164
45479W        W 9203   4.781   6.818  14.292
45480W        W 9204  31.085  18.693  10.528
45481W        W 9205  32.091  40.348  14.402
45482W        W 9206  44.414  11.634  11.471
45483W        W 9207  18.692  30.579   2.826
45484W        W 9208  21.229  41.353   3.853
45485W        W 9209   5.283  30.555   4.698
45486W        W 9210  26.068  14.327   3.722
45487W        W 9211  15.247  31.548  14.844
45488W        W 9212  26.583   4.933  12.929
45489W        W 9213  41.377  24.679  11.074
45490W        W 9214  43.929  27.135  13.500
45491W        W 9215  27.137  40.879  13.838
45492W        W 9216   5.893  32.567  11.483
45493W        W 9217  30.136  20.214   0.840
45494W        W 9218   8.359  41.362   2.214
45495W        W 9219   0.823  31.153  12.055
45496W        W 9220  26.519  38.564  10.906
45497W        W 9221  27.033   9.810  12.865
45498W        W 9222  12.775  44.303   1.352
45499W        W 9223  28.530  28.169  12.434
45500W        W 9224   7.836  44.982  13.057
45501W        W 9225  28.438  40.506   0.927
45502W        W 9226  18.695   3.320  11.896
45503W        W 9227  19.587   4.316   4.637
45504W        W 9228  13.116  36.883   1.702
45505W        W 9229  33.480  22.518   2.409
45506W        W 9230  34.991   5.257  12.999
45507W        W 9231  40.038  19.130  11.547
45508W        W 9232   7.331  40.384   1.363
45509W        W 9233  15.714   2.382  12.568
45510W        W 9234   2.347  44.295  12.858
45511W        W 9235  14.595  27.094   0.459
45512W        W 9236   0.336   1.975  14.997
45513W        W 9237  22.108   5.705   4.350
45514W        W 9238  38.851  23.502   2.888
45515W        W 9239  32.991  25.628  14.880
45516W        W 9240  22.629  30.636   3.317
45517W        W 9241  35.569   6.184  10.982
45518W        W 9242  27.013  44.456   2.377
45519W        W 9243  42.380   7.897  12.836
45520W        W 9244  32.418  41.472  14.283
45521W        W 9245   5.403  31.541   2.823
45522W        W 9246  43.904  35.879  11.464
45523W        W 9247  21.620   2.415  12.844
45524W        W 9248  37.513  19.722  14.513
45525W        W 9249  18.185  41.010   0.440
45526W        W 9250   7.708   7.863   0.896
45527W        W 9251  34.505  24.581  12.543
45528W        W 9252   9.773   4.253  14.999
45529W        W 9253  11.362  13.112  12.541
45530W        W 9254  19.234  11.840  14.820
45531W        W 9255   1.297  18.592  10.569
45532W        W 9256  26.083  23.128  12.952
45533W        W 9257  32.990   5.831  12.902
45534W        W 9258  44.978  43.369   4.304
45535W        W 9259  12.683  13.677  12.005
45536W        W 9260   5.848  33.482   3.711
45537W        W 9261  34.439  39.343   2.712
45538W        W 9262   0.831   2.340  11.008
45539W        W 9263  36.349  24.624   4.227
45540W        W 9264   5.352   3.921  14.290
45541W        W 9265   7.897  34.863   4.279
45542W        W 9266  30.565   1.470  14.325
45543W        W 9267  14.635  23.572   1.846
45544W        W 9268  13.269  19.612   1.216
45545W        W 9269  11.140   2.444  13.897
45546W        W 9270   0.838  28.935   4.786
45547W        W 9271  24.211  32.065   2.345
45548W        W 9272   8.277  39.984  14.856
45549W        W 9273  12.721  24.190  12.004
45550W        W 9274  12.120   0.856  13.996
45551W        W 9275  37.439  20.671   1.704
45552W        W 9276  11.297  30.986   1.449
45553W        W 9277  25.063  26.575   5.089
45554W        W 9278   0.381  26.997  13.808
45555W        W 9279  17.670   0.313   3.312
45556W        W 9280  10.343  25.075  11.016
45557W        W 9281  11.669   8.238  14.285
45558W        W 9282  12.694  40.465   2.324
45559W        W 9283  43.415  29.502  13.872
45560W        W 9284  32.592  27.644   0.939
45561W        W 9285   3.446  44.843  13.541
45562W        W 9286   5.395  14.214  11.519
45563W        W 9287  27.185  27.135   4.722
45564W        W 9288  10.733  38.824   1.323
45565W        W 9289  10.272  32.052  13.534
45566W        W 9290  32.893  18.208   1.914
45567W        W 9291  11.145  25.205   0.943
45568W        W 9292  20.532  14.186   2.324
45569W        W 9293  27.069  29.013  11.491
45570W        W 9294   7.864   3.759   3.307
45571W        W 9295  43.440  13.308   4.323
45572W        W 9296  41.430   1.762  12.455
45573W        W 9297  15.725   9.280   4.265
45574W        W 9298  21.045  39.440  14.837
45575W        W 9299  20.718  23.140   0.830
45576W        W 9300  12.755  22.075  12.370
45577W        W 9301  35.906   2.368  13.530
45578W        W 9302  37.085  11.720  14.768
45579W        W 9303  24.504   4.406   2.779
45580W        W 9304   5.883  25.046  11.560
45581W        W 9305   5.698  13.758   4.775
45582W        W 9306  17.666  13.807  10.960
45583W        W 9307  17.203  15.202  10.503
45584W        W 9308  43.921  40.485  13.401
45585W        W 9309  22.609  29.571  13.943
45586W        W 9310   2.339  32.491  14.856
45587W        W 9311  18.090  33.564   3.193
45588W        W 9312  38.347  44.824  10.436
45589W        W 9313  13.310   6.803   0.728
45590W        W 9314   8.281   3.907   3.766
45591W        W 9315  42.487  44.801  13.895
45592W        W 9316   9.209  35.056   0.394
45593W        W 9317  33.971  21.594  11.861
45594W        W 9318  29.953  40.947   3.175
45595W        W 9319   8.185  17.222  11.454
45596W        W 9320  29.970  40.379   2.259
45597W        W 9321  40.878  34.114  13.011
45598W        W 9322   0.372  38.503   4.719
45599W        W 9323  11.363  20.661  13.883
45600W        W 9324  20.156  35.863   4.332
45601W        W 9325   1.757  36.395  14.005
45602W        W 9326   0.367  32.472  10.894
45603W        W 9327   5.862  17.714   2.303
45604W        W 9328  23.525  30.535   3.785
45605W        W 9329   7.815   0.291   9.938
45606W        W 9330   8.841  21.560   2.305
45607W        W 9331  39.945  17.166   0.818
45608W        W 9332  20.586  22.734  11.004
45609W        W 9333  38.934  18.765   4.206
45610W        W 9334  22.103  10.384  13.044
45611W        W 9335  23.208  35.033  11.429
45612W        W 9336   5.388  21.703  13.872
45613W        W 9337  16.715  10.296   3.226
45614W        W 9338  11.172  15.614  13.376
45615W        W 9339  26.089  11.327  13.944
45616W        W 9340  31.942  14.778   2.807
45617W        W 9341  16.710  21.223   1.911
45618W        W 9342   7.891  15.695  14.505
45619W        W 9343  28.452  37.019   2.215
45620W        W 9344   6.843  36.443   1.884
45621W        W 9345   2.328  13.821   2.762
45622W        W 9346  30.110  26.689   3.630
45623W        W 9347  19.280   2.788   4.613
45624W        W 9348  13.695  41.871  14.346
45625W        W 9349  37.349   7.758  12.381
45626W        W 9350  33.574  22.686   1.913
45627W        W 9351  28.524  11.715   0.868
45628W        W 9352  19.114   2.841   0.389
45629W        W 9353  40.478  40.398  13.035
45630W        W 9354  22.008  33.481  13.926
45631W        W 9355  19.050  30.429   4.642
45632W        W 9356  36.583   6.211  11.490
45633W        W 9357   1.349  22.747   2.825
45634W        W 9358   1.884  14.224   3.345
45635W        W 9359   9.249  28.621  10.942
45636W        W 9360   8.805  40.963   3.151
45637W        W 9361   7.898   6.841   0.278
45638W        W 9362  37.838  23.238  10.623
45639W        W 9363  23.577  27.457  13.314
45640W        W 9364  20.178   2.755  13.996
45641W        W 9365  32.888  42.932   1.777
45642W        W 9366  42.483   8.658  14.297
45643W        W 9367  21.708  30.927  13.958
45644W        W 9368  34.370  29.635  11.064
45645W        W 9369   0.263  27.538  12.909
45646W        W 9370  27.557   1.795   1.723
45647W        W 9371   5.865  37.893  11.894
45648W        W 9372  27.048   1.977   1.871
45649W        W 9373   5.913  14.698  11.610
45650W        W 9374  23.721  20.083  11.549
45651W        W 9375  43.849   8.709  14.316
45652W        W 9376  30.131   9.859  14.793
45653W        W 9377  27.450   5.751   3.186
45654W        W 9378  12.280  31.116   1.228
45655W        W 9379  12.326  16.124   0.807
45656W        W 9380  25.993  42.935   3.191
45657W        W 9381  40.014   3.395  14.805
45658W        W 9382  25.130  29.096   3.215
45659W        W 9383   4.776  22.675  13.917
45660W        W 9384  37.928  41.530   2.878
45661W        W 9385  17.154   7.263  13.326
45662W        W 9386  40.407  22.040   0.872
45663W        W 9387  42.434  19.554   0.292
45664W        W 9388  38.527  33.034   0.294
45665W        W 9389  15.762  42.917  14.403
45666W        W 9390  16.272  16.243  13.401
45667W        W 9391   3.841   6.386   0.915
45668W        W 9392  42.526  21.197   3.371
45669W        W 9393  13.810  20.112  12.084
45670W        W 9394  23.526  10.247   3.690
45671W        W 9395  31.073   6.734   0.923
45672W        W 9396  33.549  15.146  12.039
45673W        W 9397   8.383  26.470  10.638
45674W        W 9398  37.918  39.885   1.857
45675W        W 9399   1.454  30.059  10.459
45676W        W 9400  33.484   1.814  12.367
45677W        W 9401   1.840   0.894   1.414
45678W        W 9402  23.569  24.034  11.087
45679W        W 9403   2.902  30.446  11.424
45680W        W 9404  16.270  22.168  14.452
45681W        W 9405  28.656  42.025   0.864
45682W        W 9406  36.471   8.888   2.337
45683W        W 9407   6.266  44.894  10.936
45684W        W 9408   2.797  15.723  13.467
45685W        W 9409  12.349  21.050   3.681
45686W        W 9410   6.372  13.692   3.269
45687W        W 9411  39.481   2.410   3.256
45688W        W 9412   6.332  22.148  14.940
45689W        W 9413  40.461  14.312  13.880
45690W        W 9414  38.889   0.848   0.857
45691W        W 9415  35.879   4.252  13.363
45692W        W 9416   6.347  16.194   3.308
45693W        W 9417  41.039  28.457  10.935
45694W        W 9418  20.032  14.676  11.565
45695W        W 9419  42.413  42.922   4.598
45696W        W 9420  23.576  21.551  10.465
45697W        W 9421  11.311  10.271   3.663
45698W        W 9422  13.168  12.663  10.987
45699W        W 9423   0.358  28.448   4.320
45700W        W 9424  21.679  18.694   3.700
45701W        W 9425  20.657  24.037  11.904
45702W        W 9426   7.670  34.588  10.627
45703W        W 9427   0.814  33.395  11.997
45704W        W 9428  20.614  34.523   3.168
45705W        W 9429  42.894  42.901   2.782
45706W        W 9430  22.685  41.900   3.231
45707W        W 9431   3.398  14.250  14.847
45708W        W 9432   2.787  15.263  10.985
45709W        W 9433  43.972  32.421   1.375
45710W        W 9434  38.357  23.991  13.004
45711W        W 9435   2.291   6.189   3.258
45712W        W 9436  39.842  31.533  14.874
45713W        W 9437   0.441  18.602  13.385
45714W        W 9438  31.430  21.101   3.817
45715W        W 9439  40.884  10.223   0.776
45716W        W 9440  36.468   1.445   3.370
45717W        W 9441   3.236  29.550   2.893
45718W        W 9442  33.425  23.126  14.386
45719W        W 9443  27.665  26.582   0.408
45720W        W 9444   1.880  43.806   4.299
45721W        W 9445  23.567  20.584  10.565
45722W        W 9446  26.487  10.844  10.915
45723W        W 9447  33.982   4.234  11.085
45724W        W 9448  39.885  27.563   0.926
45725W        W 9449   4.704  34.954   0.883
45726W        W 9450   6.282   4.805  13.026
45727W        W 9451  25.682   9.660   4.779
45728W        W 9452  35.551  43.019   0.967
45729W        W 9453  15.172  18.699  14.958
45730W        W 9454  22.236  43.354  10.577
45731W        W 9455  19.570   3.257  14.900
45732W        W 9456  12.169  19.569   1.762
45733W        W 9457   1.260  15.327  10.625
45734W        W 9458  40.965  41.959   3.379
45735W        W 9459  25.200   8.296   0.913
45736W        W 9460  37.471  12.786   3.690
45737W        W 9461  15.820  23.044   0.277
45738W        W 9462  41.020  17.224  11.856
45739W        W 9463  26.089  11.341  12.420
45740W        W 9464  21.511  34.070   3.680
45741W        W 9465  10.228  17.290  10.608
45742W        W 9466  30.040  37.062   1.286
45743W        W 9467  18.220  25.594  12.885
45744W        W 9468  37.580  12.699   0.737
45745W        W 9469  12.633  31.571   1.724
45746W        W 9470  39.403   4.944  10.626
45747W        W 9471  19.613  36.060  13.010
45748W        W 9472  30.907  41.818  11.043
45749W        W 9473  20.736  21.654   3.232
45750W        W 9474  14.648  12.754  11.047
45751W        W 9475  14.623   5.195   4.307
45752W        W 9476  33.910  16.100   2.314
45753W        W 9477   4.850  15.637  10.996
45754W        W 9478  37.526  24.086  11.886
45755W        W 9479  40.874  27.953   3.634
45756W        W 9480  25.072   8.673  12.470
45757W        W 9481  38.971  31.146   4.232
45758W        W 9482  19.284   9.855   1.923
45759W        W 9483  26.965  11.623  10.003
45760W        W 9484   9.362   1.753   0.474
45761W        W 9485  20.123   5.772  12.925
45762W        W 9486  35.405  36.496   0.289
45763W        W 9487  21.183  32.456   2.872
45764W        W 9488  40.951  41.403  13.996
45765W        W 9489  34.537  38.480   4.748
45766W        W 9490  13.658  31.989   0.878
45767W        W 9491  15.689  14.824   1.434
45768W        W 9492  17.725  13.653   4.288
45769W        W 9493  27.480   5.295   4.285
45770W        W 9494  40.894  11.708   4.722
45771W        W 9495   4.233  14.753  11.988
45772W        W 9496  25.099  14.229   1.724
45773W        W 9497  37.561   2.245   1.387
45774W        W 9498   7.348  22.579  10.566
45775W        W 9499  17.593  17.122   5.278
45776W        W 9500   7.812   6.741  11.112
45777W        W 9501   5.867  13.278  10.534
45778W        W 9502  20.090  18.053   4.601
45779W        W 9503   6.406  18.599   1.362
45780W        W 9504  37.435  44.471  10.047
45781W        W 9505  14.290  25.048  12.463
45782W        W 9506  10.373  10.249  11.999
45783W        W 9507  23.240  31.954  10.543
45784W        W 9508  34.480   5.910  14.839
45785W        W 9509  28.990  24.603   2.806
45786W        W 9510  25.583  41.000   0.856
45787W        W 9511  39.029  44.363   0.451
45788W        W 9512  38.861  40.511   1.756
45789W        W 9513  41.292  10.803  13.362
45790W        W 9514  35.054   7.243  14.282
45791W        W 9515  21.133   2.838   2.412
45792W        W 9516  41.951  29.534  14.791
45793W        W 9517   7.289  29.096   2.755
45794W        W 9518  22.027  27.524   0.748
45795W        W 9519  30.638  34.965   0.919
45796W        W 9520   4.325  35.385   2.827
45797W        W 9521  14.729  25.104  14.422
45798W        W 9522  10.874  25.494   4.118
45799W        W 9523  24.005  15.087   0.787
45800W        W 9524  27.477   1.853  12.414
45801W        W 9525  38.374  22.608  13.316
45802W        W 9526  34.478   6.353   0.265
45803W        W 9527  12.290  44.849  10.928
45804W        W 9528   4.319   6.260   4.697
45805W        W 9529  19.261  25.620  10.433
45806W        W 9530  44.828   8.376  13.797
45807W        W 9531  42.286   5.754  10.990
45808W        W 9532  19.096  11.257   0.899
45809W        W 9533   0.355  15.190  10.605
45810W        W 9534   2.860  35.029  12.405
45811W        W 9535  17.218  19.654   1.424
45812W        W 9536  13.656  24.182  14.810
45813W        W 9537  31.491  21.198   2.375
45814W        W 9538  44.389  39.456  12.412
45815W        W 9539  38.513  38.461  13.423
45816W        W 9540   3.935  21.684   4.354
45817W        W 9541  13.835  35.527   1.225
45818W        W 9542  31.485  10.191   4.640
45819W        W 9543  39.950  31.018   1.447
45820W        W 9544  16.712  11.294   4.810
45821W        W 9545  37.892  42.950   2.724
45822W        W 9546  43.016   9.854  11.982
45823W        W 9547   9.352   5.793  10.996
45824W        W 9548  19.263   7.673   0.355
45825W        W 9549   4.340  27.516   4.179
45826W        W 9550   3.816  23.526   1.745
45827W        W 9551   2.456  38.067   0.298
45828W        W 9552  40.046  29.965  11.897
45829W        W 9553   1.481  37.916   4.297
45830W        W 9554  25.011   1.825   4.691
45831W        W 9555  11.233  25.218   1.929
45832W        W 9556  31.503  31.570  14.914
45833W        W 9557  15.137  37.548   4.784
45834W        W 9558  21.193  26.582  12.832
45835W        W 9559  25.999  24.997  11.500
45836W        W 9560  12.805  27.502  14.499
45837W        W 9561  17.749   1.333  14.852
45838W        W 9562   0.358   0.424   2.856
45839W        W 9563   6.680  10.382  11.960
45840W        W 9564  23.051  16.265   1.377
45841W        W 9565  14.191   2.790  13.808
45842W        W 9566  12.260  22.608  14.886
45843W        W 9567  14.589   4.231  13.409
45844W        W 9568  24.709  13.775   1.719
45845W        W 9569  17.800   9.307   2.302
45846W        W 9570   5.242  26.669   0.937
45847W        W 9571  44.281  13.613   0.816
45848W        W 9572  23.132  18.751   4.643
45849W        W 9573  21.712  36.567  13.343
45850W        W 9574  10.808  35.073   3.188
45851W        W 9575  35.059  21.138   2.720
45852W        W 9576  28.982  44.263  11.423
45853W        W 9577  27.088  34.115  14.763
45854W        W 9578  13.658  16.315   4.809
45855W        W 9579  17.569   1.884   3.657
45856W        W 9580  30.049  17.640  13.890
45857W        W 9581   3.260  27.002   2.800
45858W        W 9582   0.267  40.345  13.877
45859W        W 9583   3.285   5.200  11.034
45860W        W 9584  27.605  10.200   0.433
45861W        W 9585  27.546  18.158  14.398
45862W        W 9586   1.786  12.783  12.414
45863W        W 9587  18.617   5.210  12.970
45864W        W 9588  31.006  30.002   3.235
45865W        W 9589  15.765  12.166   1.859
45866W        W 9590  26.653  40.396   4.286
45867W        W 9591  10.809  44.830  14.791
45868W        W 9592  34.580  17.283   0.426
45869W        W 9593   8.810  32.093  10.001
45870W        W 9594  29.581  23.045  11.916
45871W        W 9595  18.580  33.540   0.736
45872W        W 9596  26.535   4.412  11.383
45873W        W 9597   8.777  34.553   4.352
45874W        W 9598  10.782  22.583   3.739
45875W        W 9599   7.200  12.857   3.692
45876W        W 9600  23.198  32.001   1.930
45877W        W 9601  36.887  42.438   5.201
45878W        W 9602  40.998  15.252  14.444
45879W        W 9603  28.003  39.823   1.373
45880W        W 9604  34.454  42.891  13.347
45881W        W 9605  20.068  44.317   4.817
45882W        W 9606  16.093  37.461   0.331
45883W        W 9607   8.340  12.264  14.783
45884W        W 9608  23.621   5.927  11.886
45885W        W 9609  13.153   6.404  11.428
45886W        W 9610   2.801  34.895   4.761
45887W        W 9611  26.657  44.930  13.966
45888W        W 9612  36.549  38.412  13.518
45889W        W 9613  21.095  21.220   3.262
45890W        W 9614  19.743  20.256   4.683
45891W        W 9615  34.368  43.811  12.437
45892W        W 9616   4.817   0.341  10.052
45893W        W 9617  17.069  41.308  14.806
45894W        W 9618  15.777  37.016  13.947
45895W        W 9619  33.416   3.227   1.285
45896W        W 9620  26.125  41.327   0.252
45897W        W 9621  20.108  35.487  13.872
45898W        W 9622  14.616  43.400   3.234
45899W        W 9623  30.939   4.424   0.937
45900W        W 9624  13.344  26.627   1.815
45901W        W 9625  31.152  12.341  13.483
45902W        W 9626  19.735  13.771  14.312
45903W        W 9627  24.094  36.355   1.714
45904W        W 9628  42.008   7.187  12.015
45905W        W 9629   9.876  41.371  11.516
45906W        W 9630  43.403  20.091   4.744
45907W        W 9631  23.532  37.531   2.884
45908W        W 9632  24.571  34.025   1.332
45909W        W 9633  33.538  27.046   2.391
45910W        W 9634   2.724  16.162   0.281
45911W        W 9635   0.377  41.953  14.928
45912W        W 9636  12.793   0.840  11.422
45913W        W 9637  19.771  35.366  11.438
45914W        W 9638  35.514  25.497  10.559
45915W        W 9639   8.324  19.241   0.765
45916W        W 9640  11.253   1.926   0.949
45917W        W 9641  10.670  32.077  10.990
45918W        W 9642  30.540  27.045   1.224
45919W        W 9643   9.680  40.484  14.933
45920W        W 9644  18.748  36.999  14.345
45921W        W 9645  32.506  36.444  10.994
45922W        W 9646  35.385  15.644  10.142
45923W        W 9647  27.112  31.058   2.403
45924W        W 9648  22.607  21.165  12.913
45925W        W 9649  39.375  35.056  13.392
45926W        W 9650  36.921   6.709  13.024
45927W        W 9651  36.946  14.622   3.301
45928W        W 9652  30.520  42.476  14.466
45929W        W 9653  38.973  37.025   1.312
45930W        W 9654  35.050  13.599  14.029
45931W        W 9655  12.278  25.596   1.396
45932W        W 9656  43.413  33.562  14.782
45933W        W 9657  44.971  17.606  13.822
45934W        W 9658  14.273  25.567  13.319
45935W        W 9659   2.427  39.462  11.390
45936W        W 9660  18.650  42.826   5.246
45937W        W 9661  19.179  21.593  10.493
45938W        W 9662  37.048  38.940  14.285
45939W        W 9663   7.356  27.020   0.448
45940W        W 9664  22.102  35.910   1.401
45941W        W 9665   7.702  39.371   0.426
45942W        W 9666  18.729  42.318   4.762
45943W        W 9667  25.965   0.336   1.902
45944W        W 9668  10.768  34.563   2.410
45945W        W 9669  34.872  25.193   1.382
45946W        W 9670   8.377  28.147   3.709
45947W        W 9671  11.165  29.644  10.955
45948W        W 9672  32.116  34.470  12.884
45949W        W 9673  42.850  43.017  11.113
45950W        W 9674  11.817  17.081   2.275
45951W        W 9675  20.579  44.358  11.921
45952W        W 9676  24.070  17.711  13.372
45953W        W 9677  19.111  15.240  12.499
45954W        W 9678  14.719  11.239   4.143
45955W        W 9679  13.310   4.210  11.575
45956W        W 9680  28.968  13.240  11.501
45957W        W 9681  29.603  25.573  11.967
45958W        W 9682  40.007   8.225   2.338
45959W        W 9683  44.929   6.347  10.926
45960W        W 9684  17.675  24.062  14.935
45961W        W 9685  35.588  30.999  11.600
45962W        W 9686   5.277  38.545   1.794
45963W        W 9687  33.428  36.875  14.323
45964W        W 9688  33.065   4.814  12.503
45965W        W 9689  32.115  15.147   0.398
45966W        W 9690  35.083  13.619  13.439
45967W        W 9691  31.051  43.883   1.366
45968W        W 9692   5.896  20.087   1.696
45969W        W 9693  33.928  24.507   0.347
45970W        W 9694  11.227   6.900  10.581
45971W        W 9695  43.835  18.143   0.781
45972W        W 9696  40.018  40.867  14.922
45973W        W 9697  41.301  33.537  11.094
45974W        W 9698  13.109  29.554  14.945
45975W        W 9699  11.281  28.557   1.243
45976W        W 9700   3.858  37.379   2.264
45977W        W 9701  21.092   2.457  14.813
45978W        W 9702  11.293  22.186  12.516
45979W        W 9703  36.573   2.821  13.420
45980W        W 9704  15.302  35.994   0.392
45981W        W 9705  42.014  22.627   1.432
45982W        W 9706   4.844   5.814  13.899
45983W        W 9707  16.741  25.044   2.809
45984W        W 9708  12.629   7.698  14.985
45985W        W 9709  44.964  30.565  14.794
45986W        W 9710  44.959  18.715   0.337
45987W        W 9711  31.963  27.976  11.426
45988W        W 9712  18.653   2.845  11.588
45989W        W 9713   8.692  15.126   1.890
45990W        W 9714  10.238  34.058  12.911
45991W        W 9715   7.251  43.434  14.469
45992W        W 9716  25.151   4.349   2.664
45993W        W 9717  12.135  41.412   3.678
45994W        W 9718  29.663  42.871  11.380
45995W        W 9719  44.992   4.839  14.812
45996W        W 9720  43.362  40.925   4.649
45997W        W 9721  18.782  17.558  12.092
45998W        W 9722  13.324  12.340   0.760
45999W        W 9723   1.337  43.375   0.442
46000W        W 9724   3.374  10.662  12.911
46001W        W 9725   8.399   8.754  14.921
46002W        W 9726  38.567  23.652  11.990
46003W        W 9727   8.838  41.413   4.274
46004W        W 9728  22.650   2.796  11.474
46005W        W 9729  20.227  14.104   3.347
46006W        W 9730  13.344  15.251   0.940
46007W        W 9731  10.237  42.303  12.454
46008W        W 9732   3.263  13.315   3.737
46009W        W 9733  24.209  21.088   4.794
46010W        W 9734  15.593  33.894  14.348
46011W        W 9735  11.695  28.960  12.019
46012W        W 9736   1.311   0.791  12.039
46013W        W 9737  10.168  28.097  12.029
46014W        W 9738  35.957  44.279  10.025
46015W        W 9739   7.777  13.147   4.639
46016W        W 9740  22.250   1.904  12.066
46017W        W 9741  42.947   5.299   1.440
46018W        W 9742  16.672  42.371  10.933
46019W        W 9743  30.052   4.823   4.787
46020W        W 9744  27.686  29.990  11.460
46021W        W 9745   3.254  41.421   9.923
46022W        W 9746  16.127  32.466  11.971
46023W        W 9747   7.674  16.158   2.232
46024W        W 9748  15.113   2.358   1.934
46025W        W 9749  28.933  26.546   1.216
46026W        W 9750  25.996   8.706   3.250
46027W        W 9751  22.729  20.107  10.517
46028W        W 9752  40.869  44.851   2.360
46029W        W 9753  38.990  36.454   3.783
46030W        W 9754  17.295  18.108   4.192
46031W        W 9755  10.268   8.310  13.829
46032W        W 9756   3.433  20.156   3.717
46033W        W 9757  19.662   8.343  14.478
46034W        W 9758  22.673  34.417   3.758
46035W        W 9759  33.528   7.369  14.822
46036W        W 9760   3.864  28.512  14.829
46037W        W 9761  27.487  31.487  12.346
46038W        W 9762  12.740   1.824  11.478
46039W        W 9763  19.053  21.227  14.277
46040W        W 9764  38.863  23.651  14.453
46041W        W 9765   2.873  20.248   2.888
46042W        W 9766  44.932  15.125   2.351
46043W        W 9767   7.212  43.897   0.931
46044W        W 9768  11.858  13.630   3.674
46045W        W 9769  17.093  40.042   2.390
46046W        W 9770  26.678  28.642   0.366
46047W        W 9771  34.957   5.386   4.737
46048W        W 9772   5.438  42.449   1.718
46049W        W 9773  13.341  43.503   0.887
46050W        W 9774  25.969   1.427   4.170
46051W        W 9775   1.425  25.713   0.267
46052W        W 9776  14.589  30.559  14.325
46053W        W 9777  33.991  14.802   3.738
46054W        W 9778  44.432  43.493   0.376
46055W        W 9779  40.894  17.555  12.002
46056W        W 9780  42.337  10.666  14.444
46057W        W 9781   2.267  16.286  14.825
46058W        W 9782  36.863  38.021   2.791
46059W        W 9783  25.638  11.186   5.219
46060W        W 9784  34.114   8.358  14.006
46061W        W 9785   5.221  44.441  13.320
46062W        W 9786  38.364   8.835   1.704
46063W        W 9787  26.624   6.765   1.735
46064W        W 9788  33.548   1.797   0.926
46065W        W 9789  36.070  17.272  11.573
46066W        W 9790  36.408   7.376  13.843
46067W        W 9791  38.456   0.940   4.152
46068W        W 9792  11.191  12.194   2.884
46069W        W 9793   4.710   0.776   2.750
46070W        W 9794  33.563  26.190  11.546
46071W        W 9795  16.670  14.284   4.308
46072W        W 9796   0.305  24.674  10.900
46073W        W 9797   0.454   7.365  14.353
46074W        W 9798   7.288  29.151   1.704
46075W        W 9799  23.031  35.910  13.523
46076W        W 9800  36.989  43.783   2.666
46077W        W 9801   6.683  26.079   2.376
46078W        W 9802  24.634  39.962   0.893
46079W        W 9803   0.909  42.990   0.925
46080W        W 9804  21.527  22.589  12.559
46081W        W 9805  39.906   3.269  14.450
46082W        W 9806  17.113  32.940  13.516
46083W        W 9807   1.939  27.998  12.365
46084W        W 9808  36.999  27.608  10.629
46085W        W 9809  23.138   2.346  14.018
46086W        W 9810  19.690  11.246  10.550
46087W        W 9811  39.408  27.077  11.105
46088W        W 9812  11.808   5.728   3.779
46089W        W 9813  41.019  38.429  11.497
46090W        W 9814   3.224  18.148   4.720
46091W        W 9815   0.417   3.430   0.815
46092W        W 9816  44.868   4.243  11.920
46093W        W 9817   3.867  42.355   2.683
46094W        W 9818   6.873   0.944  12.827
46095W        W 9819  41.387  32.635   0.343
46096W        W 9820  21.633  26.635   1.827
46097W        W 9821  17.760  25.662  14.874
46098W        W 9822  13.688  37.045   2.715
46099W        W 9823  39.331  43.420  11.979
46100W        W 9824   5.221  33.447   4.814
46101W        W 9825  38.914   8.190   1.774
46102W        W 9826  12.276  18.661   3.651
46103W        W 9827  19.551  38.395   1.345
46104W        W 9828  25.181   0.975   2.690
46105W        W 9829  21.073   2.777   0.428
46106W        W 9830  20.136   7.313   3.735
46107W        W 9831  10.213  20.032   4.344
46108W        W 9832  18.613  31.414  12.404
46109W        W 9833  42.946  11.795   4.740
46110W        W 9834  44.397  29.596  13.317
46111W        W 9835   5.244   2.459  12.560
46112W        W 9836  16.286  13.122  14.370
46113W        W 9837  33.588  18.194  12.363
46114W        W 9838  37.018  21.030   3.657
46115W        W 9839  26.489  24.488   1.898
46116W        W 9840  21.076   4.805   3.195
46117W        W 9841  17.237  28.070  10.142
46118W        W 9842   1.283   1.861   2.184
46119W        W 9843  10.195  24.554   3.247
46120W        W 9844  42.897  20.671   1.330
46121W        W 9845  42.993  11.795  14.972
46122W        W 9846  36.087  23.047  12.522
46123W        W 9847  22.700  43.769  12.405
46124W        W 9848  38.544  18.084  13.531
46125W        W 9849   7.186  18.665  10.600
46126W        W 9850  31.923  28.169   1.897
46127W        W 9851  38.944  28.145  14.337
46128W        W 9852   5.706  41.440   3.858
46129W        W 9853  31.965  19.594   2.700
46130W        W 9854  34.382  30.422  14.771
46131W        W 9855  37.374  34.476  11.404
46132W        W 9856  43.289   8.883  11.885
46133W        W 9857  10.712  35.875   3.675
46134W        W 9858  16.097  15.735  14.955
46135W        W 9859  21.191  11.713  12.537
46136W        W 9860  19.230  19.679   0.269
46137W        W 9861  13.331   4.885   2.847
46138W        W 9862  38.050  19.266   3.177
46139W        W 9863  12.855   7.295   1.428
46140W        W 9864  19.063  17.178  12.966
46141W        W 9865   8.675   3.350   0.932
46142W        W 9866  15.294   6.271   4.289
46143W        W 9867   6.745  19.207  12.540
46144W        W 9868   9.384  25.635  12.900
46145W        W 9869   8.170  22.033   0.273
46146W        W 9870  23.686  31.109  14.799
46147W        W 9871  44.352  25.547   4.662
46148W        W 9872  16.147  35.592   4.133
46149W        W 9873  23.232  42.958  11.471
46150W        W 9874  16.227  23.989   1.428
46151W        W 9875   5.301  39.923  11.554
46152W        W 9876   7.270  27.950   2.661
46153W        W 9877  22.623  21.238   1.827
46154W        W 9878  25.189  25.527  12.976
46155W        W 9879  38.988  31.967  12.491
46156W        W 9880  25.540  20.605  11.392
46157W        W 9881   2.463  20.233   4.221
46158W        W 9882  39.472  30.918   2.662
46159W        W 9883  20.559  20.672  11.497
46160W        W 9884  11.713  29.956  14.428
46161W        W 9885  23.989  23.124  10.546
46162W        W 9886  18.781  33.000  13.542
46163W        W 9887  29.617   2.838  11.029
46164W        W 9888   3.903  19.730  12.967
46165W        W 9889  12.852  26.095   3.866
46166W        W 9890  43.882  40.854  13.064
46167W        W 9891  21.077  18.582   0.472
46168W        W 9892  35.054  11.152  11.887
46169W        W 9893  14.620  10.260  14.477
46170W        W 9894   7.709  32.976   4.830
46171W        W 9895  14.297  16.266   4.631
46172W        W 9896  40.523  16.127   4.342
46173W        W 9897  16.256  25.144  13.842
46174W        W 9898  24.490   9.768   2.282
46175W        W 9899  20.632  27.120  14.816
46176W        W 9900  10.151  43.938  13.808
46177W        W 9901  26.126   2.466   4.199
46178W        W 9902  20.038  23.597  10.546
46179W        W 9903  12.677  38.879   3.853
46180W        W 9904  35.489  30.478  13.019
46181W        W 9905  11.162  33.621  12.900
46182W        W 9906  12.827   3.758  12.499
46183W        W 9907   7.215   6.393  14.885
46184W        W 9908  19.098  13.709   1.807
46185W        W 9909  27.185  15.122   3.345
46186W        W 9910  26.524  31.113  12.448
46187W        W 9911   9.203   8.352  13.823
46188W        W 9912  39.315   0.260   0.791
46189W        W 9913  28.040  14.204  11.952
46190W        W 9914  39.331   7.884  13.534
46191W        W 9915   3.395  35.367   3.812
46192W        W 9916  26.487  21.079   5.163
46193W        W 9917  18.079  28.153  10.599
46194W        W 9918  38.363  11.861  14.959
46195W        W 9919  39.426  19.642   1.928
46196W        W 9920   8.760   9.696   1.313
46197W        W 9921   7.843  14.787   1.881
46198W        W 9922   6.771   3.244   1.705
46199W        W 9923  18.199  24.215  13.326
46200W        W 9924  23.105  19.149  13.865
46201W        W 9925  26.601   1.882  13.416
46202W        W 9926  15.301  13.681  11.395
46203W        W 9927   5.203  26.001  12.879
46204W        W 9928   0.748  39.437   3.313
46205W        W 9929  38.511  20.080   2.263
46206W        W 9930   4.319  41.421  12.482
46207W        W 9931   2.377  39.964   1.906
46208W        W 9932   1.313  26.632  10.994
46209W        W 9933   4.905  11.285  14.801
46210W        W 9934  29.061  12.813  12.854
46211W        W 9935  12.798  18.293  13.377
46212W        W 9936   4.330   1.398  13.908
46213W        W 9937  34.509  42.907   1.909
46214W        W 9938  39.423  19.221  13.509
46215W        W 9939  37.547  17.746   3.241
46216W        W 9940  15.808   8.678   5.302
46217W        W 9941  32.059  23.139   3.302
46218W        W 9942  29.469   7.315  12.425
46219W        W 9943  22.506  42.876   2.772
46220W        W 9944  40.000  24.057   2.303
46221W        W 9945  11.190   7.248  14.345
46222W        W 9946   1.888  40.800  14.950
46223W        W 9947  27.169  43.414  12.399
46224W        W 9948  26.985  37.848   0.427
46225W        W 9949   8.287   0.796  12.908
46226W        W 9950  24.519  26.010   0.947
46227W        W 9951  39.443  31.460   4.124
46228W        W 9952  39.837  24.166   5.180
46229W        W 9953  33.496   3.953  10.591
46230W        W 9954  15.742   1.967   2.322
46231W        W 9955  16.193  21.151   3.386
46232W        W 9956  18.641  27.981  14.987
46233W        W 9957  17.138  21.182  10.097
46234W        W 9958   6.410  31.137   3.700
46235W        W 9959   5.933  16.620   1.412
46236W        W 9960   4.337  38.024  13.331
46237W        W 9961  26.688  28.632   1.266
46238W        W 9962  27.014  15.262  11.041
46239W        W 9963   5.256  12.214  14.502
46240W        W 9964  33.126   1.877   3.286
46241W        W 9965   2.879  38.913  14.811
46242W        W 9966  26.575  34.008  10.503
46243W        W 9967  24.539   5.734  14.491
46244W        W 9968   2.878   9.649   2.873
46245W        W 9969   8.771  25.182  13.061
46246W        W 9970   1.243  18.551  14.282
46247W        W 9971  20.710   3.949  14.346
46248W        W 9972  42.884  40.395   4.330
46249W        W 9973  42.789   8.862  14.838
46250W        W 9974  11.340   2.798   1.370
46251W        W 9975  42.325  44.771   4.648
46252W        W 9976  11.730  21.554   4.235
46253W        W 9977  27.177  40.857  12.909
46254W        W 9978   5.238  33.409  11.863
46255W        W 9979  27.467  34.049  11.442
46256W        W 9980  14.799  36.066   2.266
46257W        W 9981  43.991   3.917   1.257
46258W        W 9982   9.183   8.254  14.761
46259W        W 9983  18.092  36.373   4.349
46260W        W 9984  33.553  18.190  12.059
46261W        W 9985  36.064  12.839   4.314
46262W        W 9986  42.794  42.487   4.675
46263W        W 9987  43.915  23.728  11.978
46264W        W 9988  14.721  44.280   2.298
46265W        W 9989  29.924  24.540   1.724
46266W        W 9990   5.298  24.583  12.999
46267W        W 9991  23.634  14.100   1.317
46268W        W 9992  13.326  33.024  13.929
46269W        W 9993   8.389  20.103  11.037
46270W        W 9994  30.035   0.475   4.310
46271W        W 9995  23.493  24.672  12.985
46272W        W 9996   3.775   5.926  14.804
46273W        W 9997  19.750  26.517   2.318
46274W        W 9998  20.165   6.188  12.356
46275W        W 9999  20.719  42.958  13.017
46276W        W10000  41.797  21.569  14.892
46277W        W10001   5.786  42.438  10.455
46278W        W10002  40.401   7.702  14.355
46279W        W10003  29.966  26.133  12.087
46280W        W10004  41.954  14.338   2.307
46281W        W10005   6.264  10.859  13.465
46282W        W10006  19.191  22.118   0.948
46283W        W10007   4.435   5.281   2.185
46284W        W10008  22.677  28.541   3.222
46285W        W10009  15.090   6.383  12.045
46286W        W10010   5.303  43.932  10.424
46287W        W10011  15.110  30.585  14.480
46288W        W10012   3.277  28.521  14.514
46289W        W10013  41.339  34.381   5.182
46290W        W10014  11.825   1.340   4.618
46291W        W10015  16.241  44.981  11.064
46292W        W10016   9.301   9.678  11.560
46293W        W10017   4.308  13.108  11.559
46294W        W10018   4.844  41.989   3.680
46295W        W10019   3.778  11.357   3.370
46296W        W10020  44.008   8.820  13.351
46297W        W10021  27.627  13.151   1.788
46298W        W10022  40.536  18.589   1.375
46299W        W10023  28.644  30.021  14.367
46300W        W10024  27.943  24.635   2.837
46301W        W10025  18.675  39.493   0.823
46302W        W10026  24.981  42.003   3.246
46303W        W10027  10.143  38.491  10.464
46304W        W10028  18.134  34.016  10.436
46305W        W10029  42.363   3.458  10.606
46306W        W10030  17.249  10.223   3.844
46307W        W10031   9.739  27.664  10.905
46308W        W10032   6.399  24.995   1.368
46309W        W10033  17.184   2.274  10.424
46310W        W10034  36.391   1.474  13.352
46311W        W10035   9.386  12.751  10.019
46312W        W10036  42.417  16.217  11.025
46313W        W10037  12.623  25.006   2.254
46314W        W10038  27.962   7.835   9.932
46315W        W10039  18.775   6.267  11.449
46316W        W10040   4.944  34.894  13.317
46317W        W10041  42.875   3.352  14.298
46318W        W10042  31.521  27.173   2.737
46319W        W10043   3.886  42.815  12.557
46320W        W10044  23.613   5.363   2.704
46321W        W10045   6.219  33.947  12.064
46322W        W10046   7.699  35.498  10.894
46323W        W10047  26.077   7.319  13.358
46324W        W10048   7.842  11.776  13.845
46325W        W10049   2.463  29.068   1.843
46326W        W10050  10.369  30.920  10.916
46327W        W10051  32.085  39.862   3.228
46328W        W10052  17.158   9.788   4.757
46329W        W10053  21.546  16.203  11.025
46330W        W10054   6.824  37.873   2.326
46331W        W10055  17.229  31.568   3.752
46332W        W10056  33.587  19.132  11.541
46333W        W10057  14.767   5.272   1.806
46334W        W10058  13.603  14.314  11.073
46335W        W10059  21.027  41.358  12.950
46336W        W10060  16.206  44.266  12.969
46337W        W10061  24.174  37.920   3.868
46338W        W10062  12.129  22.579   3.330
46339W        W10063  43.984  16.120  14.293
46340W        W10064   8.394  34.074  14.900
46341W        W10065  16.307  27.049  14.823
46342W        W10066  12.239  41.042   0.355
46343W        W10067  32.432  20.068  13.808
46344W        W10068  29.581   6.263  13.868
46345W        W10069  32.886  35.421   4.131
46346W        W10070  23.140  32.621  14.782
46347W        W10071  33.444  23.995  14.299
46348W        W10072  21.600  33.570  13.471
46349W        W10073  32.496  43.455  13.380
46350W        W10074  11.347   0.370   1.893
46351W        W10075  21.698  38.943  11.513
46352W        W10076  25.137  30.992  12.004
46353W        W10077   9.889  28.657  13.885
46354W        W10078  17.139  43.391   1.893
46355W        W10079  41.954  38.334  11.048
46356W        W10080   2.365  15.278  13.876
46357W        W10081  26.101  13.324  14.942
46358W        W10082  37.909  38.342   3.308
46359W        W10083   0.947  32.057  11.904
46360W        W10084  22.141  42.994   9.942
46361W        W10085   7.748  34.390   4.302
46362W        W10086   1.882   2.832   4.239
46363W        W10087  42.432  31.573   2.822
46364W        W10088  36.387  25.072   0.392
46365W        W10089   6.404  37.397  10.935
46366W        W10090  11.262  31.025   0.923
46367W        W10091  21.629  27.178  14.506
46368W        W10092  23.503  21.023   4.827
46369W        W10093  32.553  15.710  13.870
46370W        W10094  13.131   0.941   2.252
46371W        W10095   2.324  23.115  12.891
46372W        W10096  34.598  23.136  13.829
46373W        W10097  19.192  13.740   2.269
46374W        W10098  31.525  34.477  14.500
46375W        W10099  26.986  11.133  13.422
46376W        W10100  27.178  38.385  11.423
46377W        W10101  28.643  26.021  13.512
46378W        W10102  38.941  14.636   4.296
46379W        W10103  20.169  38.875  14.379
46380W        W10104  42.484  44.300   1.933
46381W        W10105  32.422  12.675   4.165
46382W        W10106  18.637  38.050  12.934
46383W        W10107  36.967  13.750  12.996
46384W        W10108   9.195  33.124  11.430
46385W        W10109  10.773  18.685   4.275
46386W        W10110   6.830  39.532  12.390
46387W        W10111  23.021  34.939   1.903
46388W        W10112  28.148  12.119  11.493
46389W        W10113   4.734  43.904   0.744
46390W        W10114  44.392  31.405   3.700
46391W        W10115   9.319   0.282   0.946
46392W        W10116  30.054  42.849   9.998
46393W        W10117  40.990  13.206   3.638
46394W        W10118   8.848  10.782   5.281
46395W        W10119  32.136   9.664  10.573
46396W        W10120  38.567  28.979  10.445
46397W        W10121  10.696  29.131   0.842
46398W        W10122   2.880  12.822   3.344
46399W        W10123  44.271  10.155  13.942
46400W        W10124  28.125  28.181   0.325
46401W        W10125  34.476  38.949   0.915
46402W        W10126  32.595   3.285  13.452
46403W        W10127  21.628  17.731  13.834
46404W        W10128  38.502   6.316   4.118
46405W        W10129  27.003   2.270   4.205
46406W        W10130  19.230  40.951  12.521
46407W        W10131  38.448   7.220   2.709
46408W        W10132  29.636   7.896  14.868
46409W        W10133  29.592  38.501   1.885
46410W        W10134  24.652  18.109   0.383
46411W        W10135  41.039  17.626   3.758
46412W        W10136  29.567   2.796  14.508
46413W        W10137  33.044  24.215   4.196
46414W        W10138  19.738  20.222   3.212
46415W        W10139  38.538  28.436  14.824
46416W        W10140  42.470  35.056   2.681
46417W        W10141  23.652  33.474  10.991
46418W        W10142   9.238   8.261   4.632
46419W        W10143  22.739  22.106  11.421
46420W        W10144   3.814  38.329   3.753
46421W        W10145  34.406  27.961   4.174
46422W        W10146   2.751   6.288   3.166
46423W        W10147  15.688  42.966  12.575
46424W        W10148   9.351  29.064   3.339
46425W        W10149   1.330   2.914   1.825
46426W        W10150  13.836  25.502  11.435
46427W        W10151   5.353  11.243  11.006
46428W        W10152  31.066  38.937  14.509
46429W        W10153  35.537  40.424  10.446
46430W        W10154  42.320  36.373  12.479
46431W        W10155  22.743   7.270   2.358
46432W        W10156  39.473  23.604   2.840
46433W        W10157  32.962   1.855  10.495
46434W        W10158   7.841  16.789  14.297
46435W        W10159  24.611  28.637   0.312
46436W        W10160   9.644   7.310   0.472
46437W        W10161  18.672  23.639   1.298
46438W        W10162  34.941  42.803  12.080
46439W        W10163   3.448   0.347   4.187
46440W        W10164  14.594  20.107   4.224
46441W        W10165  21.244  23.990   4.620
46442W        W10166  40.890  21.107  13.842
46443W        W10167  44.370   0.938  11.496
46444W        W10168  40.962  19.750  13.406
46445W        W10169  44.490  41.017  14.443
46446W        W10170  41.407  43.276   1.742
46447W        W10171   5.224  31.575  12.936
46448W        W10172  39.827  24.997  10.536
46449W        W10173  13.739   1.802  12.418
46450W        W10174  20.722  27.178   4.171
46451W        W10175  36.038  37.980   1.319
46452W        W10176  23.717  43.472  14.016
46453W        W10177  29.921   8.744  14.451
46454W        W10178  41.824  26.089   3.365
46455W        W10179  18.158  44.320   4.659
46456W        W10180   7.179  24.112  14.770
46457W        W10181  41.918  14.327   0.857
46458W        W10182   7.296  44.294  11.080
46459W        W10183  40.969  20.733   9.976
46460W        W10184  28.020  30.467  14.368
46461W        W10185  33.931  24.994  10.932
46462W        W10186  39.432  11.734  13.834
46463W        W10187  35.049   6.190   2.898
46464W        W10188   0.386   8.230  14.359
46465W        W10189  44.894  41.937  12.049
46466W        W10190  18.173  39.516  13.315
46467W        W10191  38.543  36.579   1.908
46468W        W10192   8.359  30.116  13.508
46469W        W10193  43.460   0.281   1.849
46470W        W10194  37.959   0.915  14.926
46471W        W10195  44.459  29.124  12.485
46472W        W10196  13.268  17.278  13.961
46473W        W10197  43.797  30.048   3.247
46474W        W10198  43.829  41.474   3.675
46475W        W10199  31.117  37.368   4.204
46476W        W10200  22.715   8.859   5.101
46477W        W10201  32.448   7.359  12.887
46478W        W10202   7.246   6.283   4.287
46479W        W10203  33.611  12.672   2.336
46480W        W10204  40.048   2.332  11.379
46481W        W10205  23.013  42.026   4.699
46482W        W10206  29.615  32.510   1.913
46483W        W10207   9.373   4.348   1.933
46484W        W10208  24.655  25.675   0.781
46485W        W10209  18.580  19.556  13.465
46486W        W10210   0.917  13.738  10.096
46487W        W10211  16.779  14.277  11.053
46488W        W10212  20.744   5.876  14.798
46489W        W10213  25.114  31.044  12.495
46490W        W10214  24.606  21.070  11.020
46491W        W10215  41.440  16.292   4.708
46492W        W10216  19.200  15.607   2.721
46493W        W10217  43.489  13.181  11.094
46494W        W10218  22.729  29.967   3.655
46495W        W10219  36.945  27.158  11.428
46496W        W10220  33.408  11.163  10.551
46497W        W10221   4.269  22.023  14.979
46498W        W10222  36.064   4.770   1.273
46499W        W10223  34.977  36.075  11.512
46500W        W10224  17.161  18.597   1.305
46501W        W10225  44.288   9.166  13.961
46502W        W10226   3.406  21.624   1.820
46503W        W10227  16.805  21.228   2.694
46504W        W10228   1.973  14.130   2.826
46505W        W10229  11.661  35.971   3.327
46506W        W10230   7.248  11.668   0.873
46507W        W10231  35.094  35.546  11.380
46508W        W10232  36.014  35.047   3.237
46509W        W10233  14.285  13.234  14.450
46510W        W10234  30.450  35.088  10.891
46511W        W10235  21.582   9.344  10.944
46512W        W10236   6.267  13.673  12.857
46513W        W10237   5.892  37.896   0.257
46514W        W10238   6.296  35.995  10.036
46515W        W10239  31.536  15.165   5.717
46516W        W10240  17.226  30.032  11.536
46517W        W10241   7.887  13.303   4.354
46518W        W10242   0.271   6.881   2.259
46519W        W10243   6.290  16.088  14.950
46520W        W10244  36.926  11.730  12.066
46521W        W10245  13.685  14.672   0.811
46522W        W10246  26.000  25.566   2.341
46523W        W10247   5.279  12.748  11.469
46524W        W10248  42.892  18.225   0.772
46525W        W10249  20.099  29.150   2.856
46526W        W10250   9.694  10.729  10.634
46527W        W10251  21.165  12.832   2.684
46528W        W10252  18.090  43.938  13.823
46529W        W10253  19.584  22.106   4.837
46530W        W10254  30.930  36.071  11.599
46531W        W10255  27.046  41.817  11.005
46532W        W10256  27.026   3.804  14.830
46533W        W10257  42.983  42.494  13.328
46534W        W10258  35.044  31.071  10.619
46535W        W10259  44.976   6.886   1.767
46536W        W10260  18.733  43.870   1.758
46537W        W10261  15.108  44.259  14.891
46538W        W10262  40.884   2.315  13.053
46539W        W10263   5.355  43.844   2.289
46540W        W10264  17.592  31.126   3.145
46541W        W10265  15.819  22.204  14.461
46542W        W10266  23.684  31.603  11.896
46543W        W10267  30.511  35.590  14.925
46544W        W10268   0.302  14.698   4.345
46545W        W10269   5.323  23.054   1.389
46546W        W10270  12.314  26.057   2.375
46547W        W10271  40.356  10.678   0.838
46548W        W10272  26.561  43.927  12.967
46549W        W10273  43.802  15.733  11.025
46550W        W10274  39.557  31.414   0.355
46551W        W10275  42.806  23.047   4.241
46552W        W10276  23.115  22.730  14.308
46553W        W10277   3.918   5.713   4.778
46554W        W10278  38.466   4.881   0.274
46555W        W10279   9.364   9.831  13.380
46556W        W10280  28.448  38.500   1.900
46557W        W10281  40.875  25.516   1.445
46558W        W10282  39.017  34.033   4.717
46559W        W10283  34.909  23.523  14.457
46560W        W10284  43.423  25.653   3.861
46561W        W10285  29.650  27.148   0.891
46562W        W10286  18.554  15.105   0.935
46563W        W10287  12.209  43.938  12.518
46564W        W10288  11.235  27.039  12.070
46565W        W10289  14.741  42.431  13.327
46566W        W10290  17.303  33.570   1.919
46567W        W10291  21.644  10.368  12.471
46568W        W10292  11.210  20.255  14.507
46569W        W10293  28.014   9.211  12.513
46570W        W10294  42.364   1.743   4.187
46571W        W10295   6.393  11.157   1.713
46572W        W10296  13.633   5.738   0.955
46573W        W10297   2.419   2.856   1.392
46574W        W10298  26.583  16.586   0.454
46575W        W10299  41.861  40.013   0.793
46576W        W10300  40.439  30.911  11.895
46577W        W10301  25.660  37.026   4.214
46578W        W10302  38.374  27.494   3.667
46579W        W10303  27.120   1.946  14.845
46580W        W10304   5.331  30.632   4.219
46581W        W10305   2.421  31.029   1.748
46582W        W10306   7.808  27.974  13.832
46583W        W10307  23.230  20.273  14.338
46584W        W10308  32.523  16.570  12.862
46585W        W10309  20.560  14.636  12.466
46586W        W10310  30.529  36.903   0.287
46587W        W10311  30.122  14.714   1.931
46588W        W10312  25.616   1.282   4.706
46589W        W10313   6.875  42.900   3.196
46590W        W10314  34.481  41.526   3.367
46591W        W10315   1.388   3.934  13.547
46592W        W10316  21.551  31.940  14.825
46593W        W10317  37.390  37.408   0.755
46594W        W10318  43.875  36.905   5.258
46595W        W10319  37.973   7.320   2.413
46596W        W10320   9.364   8.336  14.305
46597W        W10321  35.392   9.857   3.643
46598W        W10322  41.296  35.963   9.988
46599W        W10323  22.705   5.340  13.363
46600W        W10324   2.883  32.591   2.249
46601W        W10325  20.119  23.034  10.951
46602W        W10326  35.467  31.440   4.147
46603W        W10327  14.098   7.718   3.320
46604W        W10328  34.510   3.950   3.184
46605W        W10329  39.975  34.551  12.024
46606W        W10330  24.622  17.193  11.380
46607W        W10331  16.172  14.318  12.086
46608W        W10332  44.878  21.701   4.737
46609W        W10333  23.159   4.920  12.410
46610W        W10334  37.471  15.666  13.924
46611W        W10335  20.761  30.062  13.900
46612W        W10336  33.101  22.027  11.078
46613W        W10337  35.403  37.068  12.837
46614W        W10338  20.177  35.599  10.622
46615W        W10339  12.268  43.871  12.992
46616W        W10340  14.134  21.642  11.418
46617W        W10341   7.751   5.261  13.957
46618W        W10342  42.782  35.877  13.449
46619W        W10343  30.137   4.907   1.433
46620W        W10344   9.690  27.451   3.635
46621W        W10345  18.666   6.699   4.610
46622W        W10346  34.612  16.708   4.348
46623W        W10347  34.442   0.454  14.357
46624W        W10348   6.803  40.044  10.628
46625W        W10349   6.388  34.575   2.245
46626W        W10350   4.835  26.052  11.611
46627W        W10351  42.428   5.385  14.831
46628W        W10352  29.472   7.856  13.822
46629W        W10353  39.956   2.813   1.378
46630W        W10354  26.670   0.369   4.681
46631W        W10355  18.263  27.139  13.367
46632W        W10356  34.912   1.301   3.802
46633W        W10357  17.080  15.659  13.058
46634W        W10358  20.151  26.166   1.830
46635W        W10359   5.418   0.294   2.794
46636W        W10360  40.915  19.740  14.991
46637W        W10361   5.242  34.984  14.512
46638W        W10362  41.032  12.704   3.714
46639W        W10363  38.551   4.881  11.978
46640W        W10364  21.150  37.021  13.525
46641W        W10365  37.844  44.857   2.732
46642W        W10366  37.040  11.763   2.226
46643W        W10367   2.349  22.187  12.080
46644W        W10368  41.454  35.893  14.929
46645W        W10369  25.537  10.641   1.300
46646W        W10370  40.502  17.786  11.580
46647W        W10371  21.238  14.256  11.590
46648W        W10372  36.555  10.181  11.446
46649W        W10373  23.500  43.378  14.452
46650W        W10374  25.616  38.983  13.412
46651W        W10375   4.798  10.764  13.812
46652W        W10376  28.042  21.693   4.207
46653W        W10377  28.964  21.756   1.218
46654W        W10378  12.341  37.409   1.225
46655W        W10379  22.178   5.332  12.495
46656W        W10380  39.873  20.671   1.757
46657W        W10381  33.529  40.453   0.466
46658W        W10382  36.970  13.291  12.872
46659W        W10383   4.265  10.639  13.043
46660W        W10384  24.690  17.080   1.429
46661W        W10385  37.414  14.151   4.232
46662W        W10386  18.546  24.594  11.006
46663W        W10387  40.026  36.844  10.590
46664W        W10388  19.585   3.346  12.885
46665W        W10389   4.824  22.596  12.373
46666W        W10390   7.835   3.945  12.522
46667W        W10391  11.661  36.083  12.845
46668W        W10392  30.607  27.679  11.432
46669W        W10393  28.680  25.207   1.434
46670W        W10394  10.796  32.435   2.727
46671W        W10395  33.953  33.003   2.418
46672W        W10396  20.637  41.038  11.865
46673W        W10397  26.103  22.211  11.453
46674W        W10398   0.836  24.706   1.226
46675W        W10399   7.223  36.963  14.493
46676W        W10400  26.588  37.368   1.331
46677W        W10401  29.464  14.112  11.040
46678W        W10402  41.511  23.240  10.900
46679W        W10403  34.375  26.130  13.042
46680W        W10404   1.740  23.083   1.711
46681W        W10405   1.767   6.757  10.597
46682W        W10406   7.672  37.336   0.879
46683W        W10407   6.796  33.973   1.272
46684W        W10408  21.646   2.414  12.377
46685W        W10409  23.054  19.773   4.145
46686W        W10410  40.982  20.553  13.482
46687W        W10411  22.504  30.657  12.477
46688W        W10412   6.251   9.219  11.939
46689W        W10413  38.058  40.485  11.115
46690W        W10414  44.308  22.049   0.899
46691W        W10415  29.496  28.978   0.882
46692W        W10416   0.265   9.837  10.624
46693W        W10417  34.503  40.911   2.406
46694W        W10418   6.406   3.315   3.213
46695W        W10419   2.464  12.132   4.254
46696W        W10420  41.995  39.402  13.533
46697W        W10421  30.942  42.826  14.507
46698W        W10422  31.087  37.900   1.448
46699W        W10423  29.163  31.614   4.212
46700W        W10424   2.740  32.514   3.822
46701W        W10425  33.073  25.207   2.364
46702W        W10426  20.596  11.233   2.415
46703W        W10427  13.714   9.334   0.957
46704W        W10428  15.318   4.749   0.390
46705W        W10429  14.714  22.577   4.144
46706W        W10430   8.756  13.207  12.554
46707W        W10431   8.359  34.083   3.386
46708W        W10432   5.226  34.383  13.803
46709W        W10433  44.990   5.351  14.835
46710W        W10434  41.845  41.854  12.931
46711W        W10435  42.335   1.312   1.435
46712W        W10436  12.223  23.632  12.574
46713W        W10437   5.251  12.659   1.346
46714W        W10438  29.979  18.239   4.313
46715W        W10439   4.805   1.971   4.620
46716W        W10440  29.639   5.852  11.418
46717W        W10441  33.525   0.494   5.213
46718W        W10442  34.091  17.717   0.749
46719W        W10443  38.956   1.841  13.021
46720W        W10444  38.546  11.650   2.379
46721W        W10445  18.190  17.648  11.916
46722W        W10446   1.304   6.214   2.326
46723W        W10447   1.466   4.830  13.834
46724W        W10448  33.048  14.104  11.912
46725W        W10449  35.918  22.130   4.160
46726W        W10450  15.302   6.756  14.507
46727W        W10451  41.998  35.100   0.396
46728W        W10452  28.477   5.276   3.263
46729W        W10453  31.498  19.083   1.403
46730W        W10454   8.899   3.233  10.572
46731W        W10455  26.000  43.765  14.989
46732W        W10456  29.488   0.374  14.840
46733W        W10457  43.353  27.548  10.595
46734W        W10458  36.996  16.760   4.673
46735W        W10459  19.662  10.148  11.084
46736W        W10460   8.704  44.781   4.349
46737W        W10461  18.182   1.433  11.948
46738W        W10462  41.498  22.656   4.172
46739W        W10463  42.949  17.197   3.859
46740W        W10464   9.761  41.887   1.764
46741W        W10465  18.215  34.486   4.611
46742W        W10466  12.825  10.347   3.257
46743W        W10467   8.357  25.689   0.884
46744W        W10468  30.599   3.954   1.779
46745W        W10469  35.860  32.431  10.944
46746W        W10470  15.182  24.108  12.473
46747W        W10471   4.421  26.478   1.338
46748W        W10472   3.245   5.854  13.028
46749W        W10473  38.403  26.100  11.459
46750W        W10474  32.095  23.571  10.101
46751W        W10475  21.736  21.094   4.268
46752W        W10476  38.535  43.828  10.428
46753W        W10477  42.394  20.133  10.532
46754W        W10478  41.898  19.741   1.905
46755W        W10479  34.450  15.124  13.870
46756W        W10480  41.014  14.593  14.016
46757W        W10481   7.779  14.209   5.154
46758W        W10482   1.368  20.613   1.312
46759W        W10483  24.683   6.829  10.901
46760W        W10484  39.897   7.289  13.400
46761W        W10485  21.624   0.250   2.902
46762W        W10486   2.727  32.493   4.776
46763W        W10487  10.353   7.706   3.262
46764W        W10488  26.658  22.236   0.314
46765W        W10489  31.497   6.268  14.286
46766W        W10490  44.497  39.424   2.893
46767W        W10491  29.503  31.952   3.203
46768W        W10492  14.288  31.563  10.629
46769W        W10493  29.159   5.827   2.823
46770W        W10494  40.997  11.219  10.992
46771W        W10495  24.146  32.131   3.328
46772W        W10496  18.779  25.603   4.330
46773W        W10497   8.743  11.127   4.277
46774W        W10498  38.555  19.545   2.334
46775W        W10499  31.151  12.166   0.745
46776W        W10500   6.760  15.203  13.340
46777W        W10501  29.080  44.950   0.732
46778W        W10502  36.565  26.091  11.047
46779W        W10503   2.444  44.762   3.831
46780W        W10504   2.901  10.783   0.413
46781W        W10505  26.544   2.805   3.742
46782W        W10506  30.510   6.326  10.613
46783W        W10507  37.546  42.378   0.834
46784W        W10508  30.024  28.596   2.411
46785W        W10509  30.978   5.349   3.373
46786W        W10510  30.146  35.962  11.505
46787W        W10511   0.904  12.657  12.828
46788W        W10512  30.104  17.758   4.678
46789W        W10513  30.056  37.921   2.246
46790W        W10514   8.766  33.498   2.379
46791W        W10515  43.013   3.721  12.846
46792W        W10516   7.275  26.599  11.394
46793W        W10517   5.382  37.064   2.881
46794W        W10518   6.704  29.475  13.802
46795W        W10519  19.770   2.749   3.294
46796W        W10520  19.549  10.265   5.315
46797W        W10521  32.951   8.720  14.404
46798W        W10522  22.209   2.257   4.721
46799W        W10523  11.139  33.410  10.934
46800W        W10524  44.425   7.225  10.040
46801W        W10525  34.489  14.158   1.785
46802W        W10526  28.636   5.902  12.976
46803W        W10527  41.024  44.427   0.748
46804W        W10528   1.315  21.690   3.728
46805W        W10529  20.087   7.745   4.737
46806W        W10530  20.551  27.158  12.040
46807W        W10531  17.658  30.942   4.331
46808W        W10532  38.455  28.099  11.515
46809W        W10533  28.614   6.915  11.486
46810W        W10534   0.810  31.901   0.793
46811W        W10535  24.524  12.253   3.370
46812W        W10536   3.836  35.053  10.475
46813W        W10537  27.977   8.732  11.438
46814W        W10538  35.879  30.149   0.331
46815W        W10539  11.766  17.155   1.816
46816W        W10540  28.984  39.936   1.391
46817W        W10541  22.201  11.143   0.433
46818W        W10542  20.080   1.373   1.786
46819W        W10543  37.449  19.279  10.445
46820W        W10544  29.517  40.043   3.257
46821W        W10545   1.402   9.154   1.716
46822W        W10546  22.701  35.039   2.889
46823W        W10547  21.037  43.865  11.881
46824W        W10548  15.301  30.019   1.444
46825W        W10549  15.620  29.038   3.379
46826W        W10550  21.097   8.708  10.975
46827W        W10551  38.867  31.907  13.534
46828W        W10552  23.573  20.691   1.790
46829W        W10553  33.470  44.767  12.493
46830W        W10554  15.183  26.057  10.449
46831W        W10555   9.689  13.669   0.480
46832W        W10556  28.181  22.163   4.741
46833W        W10557  39.898  33.478   2.351
46834W        W10558  39.891  23.684   3.818
46835W        W10559  31.031  10.376  12.472
46836W        W10560   7.245  25.624   3.328
46837W        W10561   6.409  38.040   3.382
46838W        W10562  31.495  32.515   1.277
46839W        W10563  20.254   1.436  11.505
46840W        W10564  23.999   9.679   0.333
46841W        W10565  28.561  38.022   0.803
46842W        W10566  29.636  15.763   4.670
46843W        W10567   2.957   3.365  12.892
46844W        W10568  37.446  25.471  14.402
46845W        W10569  30.530  41.014  10.914
46846W        W10570  36.560  33.561  13.019
46847W        W10571  21.645  44.346   2.414
46848W        W10572  40.474  39.487   2.183
46849W        W10573  31.000  20.052   3.355
46850W        W10574  20.525  17.729   2.417
46851W        W10575   6.800  27.637  14.433
46852W        W10576   0.353  15.591   2.204
46853W        W10577   8.369   9.814  12.398
46854W        W10578  26.672  25.101   2.712
46855W        W10579  41.968   1.313  14.500
46856W        W10580  16.670  20.643   4.212
46857W        W10581   3.766   4.942  13.475
46858W        W10582   4.822   7.743  13.867
46859W        W10583  39.818  44.897  11.048
46860W        W10584  14.327  33.589   1.711
46861W        W10585  35.479  13.212  11.964
46862W        W10586   4.865   6.274   3.822
46863W        W10587  41.476  22.052   2.323
46864W        W10588  15.735   9.315  14.771
46865W        W10589  37.430  39.962  14.882
46866W        W10590  41.397  14.673   4.200
46867W        W10591  22.722   0.440  14.451
46868W        W10592  32.073  13.746   3.284
46869W        W10593  30.598   3.334   0.754
46870W        W10594   2.769  17.638   3.762
46871W        W10595  22.555  24.007   2.249
46872W        W10596  22.128  11.744   3.358
46873W        W10597  29.432  20.731   0.900
46874W        W10598  20.651  38.007  11.564
46875W        W10599  21.587  33.925   1.406
46876W        W10600  32.472  41.482  10.918
46877W        W10601  35.506  20.175  11.402
46878W        W10602  30.141  41.321   0.862
46879W        W10603  33.621   7.724  10.111
46880W        W10604  13.138  35.573  14.363
46881W        W10605   8.745  24.027  12.378
46882W        W10606  34.079   1.831   1.388
46883W        W10607  17.299  35.444   4.613
46884W        W10608   7.193   8.303  14.927
46885W        W10609  37.074  32.517   1.334
46886W        W10610  32.596   2.420   1.778
46887W        W10611  35.910   8.871   0.963
46888W        W10612  36.531   4.410  12.846
46889W        W10613   7.872  35.466   3.711
46890W        W10614  23.999  16.567  11.084
46891W        W10615   8.260  29.463  10.948
46892W        W10616  21.086  11.701  13.984
46893W        W10617  28.529  20.129   3.668
46894W        W10618  15.168  24.209   3.780
46895W        W10619   8.330  11.732   2.721
46896W        W10620  19.108  15.205  11.934
46897W        W10621  20.722  22.566   0.936
46898W        W10622  25.982  41.830   2.860
46899W        W10623   4.934  13.720  11.114
46900W        W10624  25.015   7.746  12.969
46901W        W10625  36.440   9.185  14.894
46902W        W10626  32.938  35.578   2.307
46903W        W10627  13.796  42.510  12.954
46904W        W10628   2.912   6.320   1.891
46905W        W10629   5.414  26.506  10.033
46906W        W10630  16.166   8.284  13.332
46907W        W10631  12.195  25.471  12.991
46908W        W10632  20.758  19.594  10.923
46909W        W10633   9.328  27.994   2.876
46910W        W10634   1.426  43.294   0.812
46911W        W10635   1.393  28.609   0.828
46912W        W10636  44.301  33.450   2.753
46913W        W10637  29.014  18.690  11.603
46914W        W10638  17.184  40.997   3.225
46915W        W10639  18.242  24.614   3.677
46916W        W10640  39.538   1.869   2.247
46917W        W10641   1.970  44.919   4.195
46918W        W10642   7.380   0.858   0.296
46919W        W10643  22.628  38.076   3.289
46920W        W10644  34.439   6.226   4.632
46921W        W10645  42.484  25.572   4.175
46922W        W10646  35.536   2.391  12.500
46923W        W10647  35.403  24.107  10.502
46924W        W10648  14.251  40.480   4.687
46925W        W10649   8.792   3.365   2.804
46926W        W10650  42.903  44.800  11.883
46927W        W10651  12.297  38.849  14.878
46928W        W10652  32.091  21.634   1.804
46929W        W10653  37.838  23.008   0.776
46930W        W10654  18.207  44.983   2.706
46931W        W10655  26.618   6.380   0.815
46932W        W10656  39.980   6.801  12.429
46933W        W10657  26.178   5.205  14.001
46934W        W10658  41.359  29.524   1.385
46935W        W10659  28.122  28.111  14.959
46936W        W10660  26.121  26.635  10.089
46937W        W10661   3.426  28.647  13.965
46938W        W10662  18.763  19.197   4.192
46939W        W10663  17.582  38.345   2.398
46940W        W10664  10.857  24.041  13.548
46941W        W10665  35.950  11.822  11.006
46942W        W10666  23.518  26.667  13.395
46943W        W10667  42.346  18.682   0.817
46944W        W10668  17.559  39.544   3.799
46945W        W10669  26.134   8.672   1.337
46946W        W10670   7.353  24.200   3.859
46947W        W10671  11.802  39.990  11.447
46948W        W10672  36.900  40.514  14.763
46949W        W10673  22.995   1.308  13.443
46950W        W10674   1.432  12.649  13.484
46951W        W10675   6.186  40.469  12.446
46952W        W10676  31.904   9.237  12.339
46953W        W10677   2.276   6.230  12.935
46954W        W10678  25.208  22.591  13.512
46955W        W10679  27.555   6.261  10.579
46956W        W10680  25.572  41.452  10.939
46957W        W10681  34.435  42.425   0.304
46958W        W10682   0.460  37.498  12.078
46959W        W10683  20.053  22.039   2.893
46960W        W10684  35.987  12.171  12.412
46961W        W10685  25.097  22.076  14.967
46962W        W10686  42.784  18.709  14.902
46963W        W10687   0.458  25.686   2.687
46964W        W10688   1.834  34.538   4.179
46965W        W10689  29.503  12.285  12.399
46966W        W10690  41.526  39.322  11.947
46967W        W10691  13.622  11.283   3.695
46968W        W10692  36.890  41.853   2.232
46969W        W10693  33.989   2.350   0.471
46970W        W10694   6.783  35.539   0.243
46971W        W10695  21.604  37.509   2.847
46972W        W10696  34.912  37.559  13.839
46973W        W10697  16.296  10.662   2.792
46974W        W10698  42.955  13.146   4.620
46975W        W10699  12.206   1.442   2.365
46976W        W10700   7.349  27.562   4.804
46977W        W10701   6.800   9.710  13.320
46978W        W10702  11.239  11.347  12.366
46979W        W10703  18.620  12.163  11.013
46980W        W10704  40.989  21.191  10.977
46981W        W10705  20.726  11.816  14.493
46982W        W10706   7.321  32.531   3.635
46983W        W10707  28.098  10.855   0.802
46984W        W10708  27.094  42.471  10.978
46985W        W10709  32.623  41.493   2.304
46986W        W10710   8.736  38.007   3.339
46987W        W10711  40.321  23.662   1.931
46988W        W10712  20.064  18.050   1.916
46989W        W10713  23.215   4.938   9.994
46990W        W10714  35.958  14.682  12.541
46991W        W10715  27.154  12.230   1.829
46992W        W10716  27.487  15.778  13.329
46993W        W10717  37.082  44.499   2.287
46994W        W10718  40.445  28.067  14.790
46995W        W10719  18.710  17.163   2.357
46996W        W10720  30.987  44.264  14.287
46997W        W10721  35.483   6.400   4.769
46998W        W10722  18.577  13.761  12.932
46999W        W10723  25.172  37.385   0.859
47000W        W10724   2.816  39.351  13.042
47001W        W10725   9.666   8.863  14.827
47002W        W10726  32.610  28.519   3.721
47003W        W10727  37.436  32.516  13.485
47004W        W10728  26.530  28.989  12.899
47005W        W10729  17.557  40.506   3.704
47006W        W10730   6.910  35.085   1.315
47007W        W10731  25.532  18.708   3.215
47008W        W10732   2.385  24.004   3.268
47009W        W10733  43.506  17.111  13.322
47010W        W10734  40.049   0.263  12.505
47011W        W10735  22.105  24.569   2.212
47012W        W10736  44.895  23.121  12.495
47013W        W10737  25.098   5.360  14.798
47014W        W10738  14.172  16.227  12.934
47015W        W10739  10.302  15.823   3.757
47016W        W10740  20.636  32.949  13.869
47017W        W10741   0.255  40.797  12.874
47018W        W10742  12.855  34.878  11.121
47019W        W10743  17.800  18.170   0.429
47020W        W10744   0.838  16.581   0.394
47021W        W10745  42.796  35.499   4.342
47022W        W10746  41.329  31.144  13.397
47023W        W10747   3.246   2.319  13.532
47024W        W10748  21.626  13.254   3.794
47025W        W10749  13.686  17.263  14.463
47026W        W10750   6.264  43.344  12.527
47027W        W10751  35.956  42.389   4.823
47028W        W10752  28.534  15.611  14.856
47029W        W10753  13.307  31.411   2.331
47030W        W10754  44.761   9.699  11.457
47031W        W10755  11.370   2.847  14.440
47032W        W10756  40.883  19.184   3.213
47033W        W10757  16.166   4.289   0.849
47034W        W10758   9.304   9.812  12.046
47035W        W10759   6.826  10.158   3.364
47036W        W10760  39.863   9.246   0.755
47037W        W10761  42.488  40.984  14.939
47038W        W10762   7.715   5.742   0.951
47039W        W10763  16.133   6.420  10.630
47040W        W10764  19.659  21.243  14.402
47041W        W10765  16.222   3.757   0.298
47042W        W10766  36.078  21.607  13.482
47043W        W10767   6.802  40.037  14.966
47044W        W10768  18.594  23.132   1.442
47045W        W10769  23.236   1.764   3.671
47046W        W10770  20.174  40.310  10.612
47047W        W10771   5.259  38.536  13.438
47048W        W10772  29.044  14.828  13.380
47049W        W10773  42.407   6.410  11.462
47050W        W10774   5.294  34.463   0.795
47051W        W10775  35.413  19.665   3.293
47052W        W10776  19.590  27.462  12.988
47053W        W10777  33.102   8.849  12.366
47054W        W10778  16.595  10.216  11.465
47055W        W10779  20.270  43.310  11.607
47056W        W10780  26.559  30.911   2.769
47057W        W10781  28.027  44.489  12.557
47058W        W10782  32.927  44.881  13.342
47059W        W10783  25.550   1.357   3.344
47060W        W10784  37.008   1.471   1.353
47061W        W10785  16.144  13.773   0.832
47062W        W10786  17.207   2.742   1.716
47063W        W10787  39.424   6.713  12.975
47064W        W10788  17.085  39.536  13.510
47065W        W10789  37.021  14.732  11.878
47066W        W10790  32.593  43.923  11.463
47067W        W10791  27.940  22.732   1.795
47068W        W10792   0.970   2.927  13.889
47069W        W10793  23.111  28.547   1.398
47070W        W10794  35.039  32.067   4.149
47071W        W10795   6.402  20.104   3.727
47072W        W10796  29.115   3.301   2.723
47073W        W10797  20.111  22.739  13.924
47074W        W10798   3.371  17.194  14.984
47075W        W10799   1.292  33.461  11.568
47076W        W10800  29.636  26.543   4.699
47077W        W10801   1.962  32.620  14.867
47078W        W10802   9.387  20.669  12.990
47079W        W10803   2.739  25.089  14.286
47080W        W10804   7.717  44.335   1.428
47081W        W10805  13.757  29.541  13.861
47082W        W10806  28.106  22.200   0.739
47083W        W10807  31.497  30.139  13.794
47084W        W10808  15.591  16.742  11.560
47085W        W10809  33.574  19.216  13.395
47086W        W10810  16.670  19.627   3.775
47087W        W10811  24.574  36.944   4.787
47088W        W10812  31.498  18.166   0.751
47089W        W10813  30.444  17.120  14.883
47090W        W10814   6.890   7.818  11.902
47091W        W10815   4.438  13.674   3.230
47092W        W10816  13.312  31.615  11.486
47093W        W10817  28.141  18.282   1.880
47094W        W10818   6.730  11.293  12.471
47095W        W10819  42.435   1.896  11.114
47096W        W10820  39.316   3.845  14.853
47097W        W10821  41.951  39.928  14.448
47098W        W10822  12.767  37.932   4.818
47099W        W10823  39.451   8.317   0.397
47100W        W10824  20.625   0.320  11.552
47101W        W10825  20.097   3.314   4.244
47102W        W10826   7.824  13.783   1.366
47103W        W10827  14.612  27.165  10.959
47104W        W10828  19.234  21.262   1.810
47105W        W10829  29.560  23.112   2.268
47106W        W10830  44.472  42.862   0.355
47107W        W10831  17.221  21.629   0.783
47108W        W10832  41.849  24.111   2.723
47109W        W10833  35.036  24.701   1.259
47110W        W10834  17.290  29.567  11.937
47111W        W10835  44.317  29.002  14.301
47112W        W10836   4.864  22.193  13.866
47113W        W10837   5.778  32.569   0.383
47114W        W10838  14.226  32.096  14.977
47115W        W10839  15.095  43.974  14.317
47116W        W10840  29.457  29.950  14.481
47117W        W10841  32.429  26.485   0.319
47118W        W10842  40.939  44.387  11.411
47119W        W10843   1.366  15.821   2.873
47120W        W10844  30.094   2.417  11.065
47121W        W10845  26.572   1.242   1.699
47122W        W10846  27.621  37.482   4.200
47123W        W10847  21.574  26.464   0.267
47124W        W10848  12.838  36.535  10.487
47125W        W10849  37.919  20.242  10.539
47126W        W10850  36.423  34.106   2.299
47127W        W10851   0.376   7.370   4.120
47128W        W10852  24.141  14.262  14.921
47129W        W10853  17.633   7.797   3.321
47130W        W10854  13.250   3.271   4.701
47131W        W10855  41.353  42.325  12.477
47132W        W10856  44.912   1.924  11.027
47133W        W10857   3.948  11.847   4.329
47134W        W10858  19.103   4.794  14.452
47135W        W10859  28.559  11.683  13.434
47136W        W10860  37.377  33.124  12.483
47137W        W10861  14.272  33.476  14.011
47138W        W10862  43.954  14.144  12.578
47139W        W10863  38.832  25.529  12.446
47140W        W10864   8.201  17.750  13.412
47141W        W10865  41.378  14.240  11.556
47142W        W10866  18.102   3.398  12.895
47143W        W10867  44.905  23.157   4.151
47144W        W10868  25.028  38.348   1.772
47145W        W10869   9.688  10.710  13.030
47146W        W10870  17.303   3.221  13.538
47147W        W10871   4.732  43.442   4.324
47148W        W10872  35.984  39.400   1.879
47149W        W10873  10.848   9.800  13.433
47150W        W10874   1.951  42.417  10.468
47151W        W10875  22.225  14.819  12.471
47152W        W10876  39.344  30.055   1.808
47153W        W10877  34.061   0.859  12.041
47154W        W10878  25.179  11.764   4.326
47155W        W10879  15.692  36.381   2.746
47156W        W10880   7.411  44.265  14.868
47157W        W10881  42.963  34.603  11.864
47158W        W10882   1.887  44.311   2.348
47159W        W10883  10.210   4.246   4.819
47160W        W10884  44.470  19.128  11.086
47161W        W10885  23.987  25.100   5.259
47162W        W10886  36.038  20.564  13.925
47163W        W10887  38.383   0.880  12.449
47164W        W10888   8.846   0.416  14.972
47165W        W10889  42.907   0.758   2.866
47166W        W10890   1.822  15.276  11.932
47167W        W10891  18.253  20.715   2.851
47168W        W10892  20.534  29.595  12.494
47169W        W10893  38.420  18.588  14.815
47170W        W10894  24.618  32.531   4.745
47171W        W10895  35.525   9.871   1.711
47172W        W10896  12.294  25.123  10.542
47173W        W10897   4.869  28.056   0.384
47174W        W10898  38.497  14.129   2.899
47175W        W10899  13.222  20.187   0.458
47176W        W10900  24.122  37.973  11.894
47177W        W10901   7.264  14.806   1.430
47178W        W10902   0.482  41.801   1.351
47179W        W10903  10.720  14.236   1.728
47180W        W10904  39.888  29.138  13.058
47181W        W10905  41.368  27.684  13.460
47182W        W10906   4.413   0.425  11.940
47183W        W10907  43.841  40.046   0.272
47184W        W10908  40.466  42.302   2.869
47185W        W10909  41.914  13.307   4.163
47186W        W10910  20.726  11.311   3.717
47187W        W10911   1.335  17.632  12.924
47188W        W10912  23.191   7.417   2.813
47189W        W10913  17.755  11.195   4.800
47190W        W10914  20.663  40.028   5.296
47191W        W10915  13.160  34.916  12.447
47192W        W10916  37.991  31.484   0.381
47193W        W10917  30.555  32.622  14.474
47194W        W10918   7.393  20.152   4.152
47195W        W10919  28.986  33.132   2.789
47196W        W10920  21.639   3.358  10.503
47197W        W10921  30.090  18.679   1.710
47198W        W10922  41.376   2.937  12.438
47199W        W10923  31.117   7.216  11.061
47200W        W10924  43.769  26.110   3.285
47201W        W10925   0.946  31.481  14.798
47202W        W10926  15.180  37.514   0.363
47203W        W10927  40.342  21.627   4.763
47204W        W10928  39.841  40.943   4.246
47205W        W10929  39.840  44.875  10.623
47206W        W10930  23.682  19.269   4.241
47207W        W10931  20.069  40.958  14.847
47208W        W10932  41.398  25.052   3.152
47209W        W10933  36.448  10.778   3.658
47210W        W10934  31.103  31.595   0.879
47211W        W10935  42.444  19.764  11.903
47212W        W10936  20.149  25.100  13.040
47213W        W10937  21.019  37.476   2.729
47214W        W10938  19.750  34.982   2.191
47215W        W10939   4.875  37.427  12.917
47216W        W10940  20.181  21.123   3.159
47217W        W10941  13.324  10.265  12.061
47218W        W10942  20.032  17.621  13.854
47219W        W10943   5.253  43.802   4.134
47220W        W10944  21.047  19.209  11.869
47221W        W10945   1.806  41.828  14.810
47222W        W10946  44.760   7.899   2.818
47223W        W10947  19.601  43.415  12.908
47224W        W10948  41.414  26.183  11.578
47225W        W10949  35.492  13.740   3.337
47226W        W10950  37.954   2.767  14.769
47227W        W10951  40.401  13.794   2.667
47228W        W10952  37.429   1.260  13.808
47229W        W10953  26.152  38.456  14.515
47230W        W10954  22.717  43.411   1.863
47231W        W10955   4.307  39.863  14.338
47232W        W10956  26.669  26.534  12.885
47233W        W10957  27.456  42.797  14.009
47234W        W10958  40.899  44.311  13.799
47235W        W10959  41.967  41.985  10.006
47236W        W10960  27.007  43.019   4.830
47237W        W10961  35.467   8.828  13.448
47238W        W10962  36.507  16.732   9.934
47239W        W10963  28.176  33.595   4.760
47240W        W10964  14.709  31.611  14.911
47241W        W10965  11.244  14.248   0.737
47242W        W10966  34.567  10.853   4.622
47243W        W10967  24.116  18.116   0.278
47244W        W10968  27.633  23.206  10.454
47245W        W10969  18.125  28.581  14.282
47246W        W10970  43.405  19.643  11.526
47247W        W10971  16.108  27.043  11.611
47248W        W10972  21.038  28.181   1.236
47249W        W10973  33.532  29.064   0.731
47250W        W10974   2.382  30.952   1.428
47251W        W10975  16.721  33.422  14.819
47252W        W10976  26.694  24.989  14.281
47253W        W10977   6.330   7.186   1.840
47254W        W10978   7.755  26.596  11.555
47255W        W10979  11.186  13.698   0.324
47256W        W10980  38.449  24.026  12.438
47257W        W10981   9.787  20.598   0.870
47258W        W10982  30.030  39.857  13.793
47259W        W10983  25.598  16.318   1.934
47260W        W10984  39.030  15.193  14.349
47261W        W10985   2.801   7.696  13.928
47262W        W10986  26.160   6.417   2.409
47263W        W10987  35.503  42.295   4.647
47264W        W10988  33.394  21.663   0.308
47265W        W10989  35.987  22.670  11.083
47266W        W10990   4.942  42.018   5.150
47267W        W10991   6.251  44.371   4.331
47268W        W10992  26.952  40.964   0.859
47269W        W10993  11.256  20.269   4.175
47270W        W10994  12.652  32.437  14.804
47271W        W10995  39.818  12.819   0.913
47272W        W10996   8.664  41.924   3.861
47273W        W10997  10.827   8.828   1.919
47274W        W10998   2.957  21.562   2.818
47275W        W10999  16.678  31.039  10.590
47276W        W11000  10.764  29.943   3.342
47277W        W11001  31.091   0.874   1.724
47278W        W11002  26.486  11.845   0.880
47279W        W11003   0.454  26.622  11.951
47280W        W11004  20.228  29.575   1.775
47281W        W11005  35.097  38.830  13.409
47282W        W11006  43.297  16.774   4.636
47283W        W11007   2.448   1.960  11.990
47284W        W11008  34.523  40.956   3.846
47285W        W11009   4.884  18.758  11.927
47286W        W11010  31.996  43.955  10.003
47287W        W11011  26.071   1.266  13.857
47288W        W11012   0.355  32.440  12.575
47289W        W11013   1.784  18.703   3.325
47290W        W11014   9.826  38.399  13.540
47291W        W11015  31.446   0.808   3.648
47292W        W11016  35.082   6.773  11.034
47293W        W11017  37.036  15.772  10.078
47294W        W11018  22.244  44.917  11.579
47295W        W11019  18.283  27.096   1.395
47296W        W11020  13.111   6.198  13.462
47297W        W11021  24.709  34.105  12.446
47298W        W11022  34.541  34.396  11.463
47299W        W11023  43.424  14.234  10.052
47300W        W11024  30.164  10.244   3.688
47301W        W11025  22.210  27.166  10.077
47302W        W11026  34.004  11.773   1.280
47303W        W11027  37.546  13.121   4.124
47304W        W11028   8.678   7.765   0.262
47305W        W11029  36.413  33.441   4.291
47306W        W11030   9.231   8.275  10.469
47307W        W11031  33.036   4.434   1.934
47308W        W11032   3.948  31.621   4.333
47309W        W11033  41.528  10.356   5.259
47310W        W11034  43.479  13.602  13.876
47311W        W11035  15.676  19.134   3.694
47312W        W11036  25.137  16.807  11.874
47313W        W11037  33.583  25.988  13.517
47314W        W11038  41.795  11.718  13.056
47315W        W11039  14.832  37.867   3.775
47316W        W11040  29.106  12.254   4.345
47317W        W11041  28.521  42.908   3.748
47318W        W11042  42.913   9.829   2.781
47319W        W11043  34.501   8.401   3.299
47320W        W11044  27.622   7.337  11.983
47321W        W11045   6.197  28.115   3.339
47322W        W11046  25.555  30.581   0.862
47323W        W11047  31.070  25.995   1.360
47324W        W11048  12.633   1.256  11.528
47325W        W11049   0.415  34.389  13.806
47326W        W11050   3.790  29.937  11.391
47327W        W11051  13.727  38.982   4.759
47328W        W11052  42.878  43.882  11.529
47329W        W11053  43.960  18.594  14.296
47330W        W11054  30.494  28.070   1.756
47331W        W11055  24.112  35.478   1.917
47332W        W11056  35.092  23.080   1.446
47333W        W11057  17.244  32.463   4.120
47334W        W11058  38.500  19.100   1.907
47335W        W11059  12.321  14.181   0.331
47336W        W11060   5.915   7.300   0.863
47337W        W11061  13.677  12.162   1.295
47338W        W11062  12.240  11.637   4.825
47339W        W11063  18.778  34.547   0.298
47340W        W11064  41.406   1.384  13.901
47341W        W11065  21.675  38.340  12.824
47342W        W11066  10.866  28.075  13.935
47343W        W11067   2.785  18.554  14.364
47344W        W11068  30.939  42.803   3.345
47345W        W11069  19.663   4.751   2.702
47346W        W11070   1.792  43.333  13.314
47347W        W11071   3.418   0.260  14.437
47348W        W11072  24.623   3.403  11.458
47349W        W11073  10.371  44.289  12.940
47350W        W11074  39.877  39.009  13.803
47351W        W11075   2.267  39.896  11.041
47352W        W11076  39.022  20.652   0.880
47353W        W11077  12.834  31.471   2.814
47354W        W11078  19.148  33.571   0.781
47355W        W11079  19.186   5.918   0.895
47356W        W11080  29.090  12.205   0.958
47357W        W11081  39.863  38.387  13.444
47358W        W11082   9.689  11.757  10.425
47359W        W11083  11.292  30.017  10.980
47360W        W11084  22.083  21.669   2.180
47361W        W11085  21.556  20.238  13.440
47362W        W11086   2.430  32.455   0.817
47363W        W11087  28.652  30.920   2.401
47364W        W11088  12.135  15.784  12.432
47365W        W11089  26.651  10.768  12.524
47366W        W11090  44.346  15.813   2.356
47367W        W11091   9.182  20.693  11.919
47368W        W11092  32.565  11.668  11.974
47369W        W11093   8.350  42.438  14.872
47370W        W11094  16.126  32.099   4.260
47371W        W11095  34.571  24.571   1.335
47372W        W11096  24.047  26.691   2.268
47373W        W11097  38.396   6.237  12.393
47374W        W11098  36.912  26.169   3.740
47375W        W11099  37.365   9.831   3.702
47376W        W11100   1.747  31.427  14.775
47377W        W11101   5.286   3.236  12.502
47378W        W11102  26.605  28.035   1.395
47379W        W11103  33.395   2.304  11.418
47380W        W11104  42.434  33.562  13.362
47381W        W11105   1.456  27.997  12.486
47382W        W11106  41.901   5.702   4.191
47383W        W11107  43.480  25.147  13.057
47384W        W11108  28.479  33.618  10.635
47385W        W11109   4.904  28.647  14.797
47386W        W11110   3.899  11.645  11.084
47387W        W11111  23.636  44.468   3.704
47388W        W11112   3.458  15.323  11.038
47389W        W11113   6.383   8.710   0.904
47390W        W11114  15.797  38.829  10.567
47391W        W11115  31.617  34.922  11.860
47392W        W11116   0.320  42.802   1.794
47393W        W11117  32.998  38.564  14.777
47394W        W11118   3.412  43.932   1.415
47395W        W11119  29.085  17.663   2.348
47396W        W11120  33.915  29.112  13.039
47397W        W11121  29.073  20.731   4.312
47398W        W11122  13.602   3.940  14.324
47399W        W11123  28.003   7.252  13.542
47400W        W11124  37.525  16.074   2.179
47401W        W11125  18.137   0.382  10.961
47402W        W11126  35.029  27.193  14.424
47403W        W11127  42.858   0.928  14.931
47404W        W11128  42.844  13.822   4.167
47405W        W11129  40.547  25.211   1.394
47406W        W11130   7.203  30.120   0.260
47407W        W11131   4.766  37.912  14.511
47408W        W11132  41.530  27.031   4.201
47409W        W11133   6.680  33.019   4.750
47410W        W11134  27.112  17.720   4.190
47411W        W11135  44.792  33.078   3.761
47412W        W11136   5.224   0.954   2.356
47413W        W11137   3.912  21.586   2.288
47414W        W11138  19.580  12.229  13.936
47415W        W11139  18.073  14.831   0.280
47416W        W11140   2.952   3.240   4.750
47417W        W11141  10.279   6.714   3.819
47418W        W11142  44.314  15.304  13.382
47419W        W11143  17.108   8.189   2.330
47420W        W11144   8.687   1.318   2.324
47421W        W11145   7.188  12.647   2.273
47422W        W11146  32.489  20.151  12.979
47423W        W11147  42.806   8.792   4.730
47424W        W11148  41.881   1.883   3.165
47425W        W11149   2.364  10.835  11.926
47426W        W11150  31.961   1.340  10.636
47427W        W11151  21.086  28.100  10.991
47428W        W11152  41.489  12.219   4.669
47429W        W11153  23.237  33.901   1.272
47430W        W11154  24.177  11.177   1.376
47431W        W11155   4.247  40.387  14.919
47432W        W11156  14.176  20.272   5.140
47433W        W11157  18.769   3.772  10.908
47434W        W11158  31.136   6.783   4.680
47435W        W11159  41.400  11.224   0.920
47436W        W11160  24.035  20.629  13.011
47437W        W11161  21.520   6.232   4.138
47438W        W11162  20.746  32.436   0.871
47439W        W11163  13.693  19.758   2.779
47440W        W11164  18.192   1.318  12.459
47441W        W11165  19.130  27.997  14.375
47442W        W11166   1.773  17.104  14.304
47443W        W11167  13.206  29.653   4.719
47444W        W11168  22.651  33.077  13.514
47445W        W11169  12.225  40.508   2.763
47446W        W11170   7.666   1.374  12.827
47447W        W11171  31.620  31.059  10.632
47448W        W11172  34.956  29.450   2.197
47449W        W11173   4.792  30.434   1.416
47450W        W11174  26.527  34.433  11.439
47451W        W11175  22.239  24.224  11.549
47452W        W11176  38.020  16.575   1.907
47453W        W11177   5.250  40.340   0.901
47454W        W11178  17.764  13.148  14.996
47455W        W11179  33.575  12.197   0.917
47456W        W11180   3.846  41.905   2.246
47457W        W11181  34.383  26.656   0.259
47458W        W11182  28.033  12.786  10.641
47459W        W11183  23.135  24.037   1.307
47460W        W11184  35.421   2.748  11.978
47461W        W11185  44.890  34.905  11.523
47462W        W11186  33.008  25.149   2.734
47463W        W11187  33.624  20.766   0.941
47464W        W11188   8.743  29.508   3.299
47465W        W11189   7.838   9.839  10.957
47466W        W11190  38.956  10.233  11.586
47467W        W11191  31.555  22.551  10.582
47468W        W11192   6.375  38.042  13.943
47469W        W11193   5.225   6.814  10.608
47470W        W11194  10.669   5.876   1.392
47471W        W11195  27.506   2.367  13.453
47472W        W11196  30.088  34.076  12.535
47473W        W11197  19.195  22.155  13.486
47474W        W11198  35.989   1.783   2.803
47475W        W11199  11.630  31.457  13.841
47476W        W11200   2.380  42.517   1.316
47477W        W11201  32.139  13.757   1.925
47478W        W11202  13.218  18.590   4.281
47479W        W11203  17.105  31.986  13.431
47480W        W11204   7.830  21.691   3.793
47481W        W11205  22.998  34.582  12.412
47482W        W11206  11.722  28.070   2.878
47483W        W11207  25.558  40.957  12.036
47484W        W11208  41.313  37.982   5.143
47485W        W11209  25.183  25.634  14.940
47486W        W11210  37.867  19.230   0.842
47487W        W11211   4.911  24.643   3.223
47488W        W11212  13.153  11.752  14.785
47489W        W11213  20.538   8.397   2.369
47490W        W11214  41.887   9.293  11.043
47491W        W11215  27.134  32.563   2.865
47492W        W11216  14.649  22.523   0.342
47493W        W11217   3.864  13.614  13.843
47494W        W11218  33.390  18.571  14.810
47495W        W11219  32.137   0.338   0.303
47496W        W11220  16.687  11.630   4.821
47497W        W11221  35.855   3.351  14.997
47498W        W11222  22.148  31.036   3.335
47499W        W11223  26.200  26.007  13.046
47500W        W11224  32.961  20.072   2.379
47501W        W11225  19.744  34.067  11.469
47502W        W11226  26.594  13.235  12.960
47503W        W11227  27.062  15.600  13.021
47504W        W11228  42.377  41.999  14.892
47505W        W11229  37.559  16.252   1.698
47506W        W11230  26.633  35.447   4.697
47507W        W11231  12.226  24.040  12.351
47508W        W11232  23.075  24.018  11.393
47509W        W11233  36.056   5.381   4.641
47510W        W11234  22.540  11.203  13.797
47511W        W11235   9.744  34.516  12.860
47512W        W11236  15.210   0.374   3.748
47513W        W11237  32.030  42.973   1.751
47514W        W11238   6.700  42.442   4.607
47515W        W11239   4.203  27.151   3.662
47516W        W11240  32.895  43.479  13.966
47517W        W11241  32.136  11.864  13.421
47518W        W11242   9.386  35.382  10.449
47519W        W11243  28.032  42.020   3.295
47520W        W11244  37.482   6.208   0.837
47521W        W11245  29.000  37.505   3.686
47522W        W11246   6.899  40.373   4.189
47523W        W11247  24.511  17.573   2.814
47524W        W11248  40.894  34.386  10.010
47525W        W11249  33.979   2.377  11.990
47526W        W11250  20.035   2.275  12.917
47527W        W11251  19.711  28.150  11.926
47528W        W11252  38.414  26.042  13.837
47529W        W11253   3.867  23.112   0.916
47530W        W11254  24.696  10.147  14.274
47531W        W11255  11.664   4.267  11.382
47532W        W11256  15.180  42.325   0.863
47533W        W11257  23.668  10.731   3.730
47534W        W11258  42.800  21.261  10.456
47535W        W11259  36.521  35.389   3.854
47536W        W11260  31.030  29.465   1.850
47537W        W11261   6.299  29.469  14.829
47538W        W11262  21.199  41.298  13.361
47539W        W11263  27.103  26.195   3.687
47540W        W11264   5.771  44.448   2.874
47541W        W11265  34.589  36.001  12.907
47542W        W11266   0.908  22.645   0.741
47543W        W11267  13.658  15.669   0.832
47544W        W11268  34.414  28.619   2.277
47545W        W11269  29.039   8.196   1.907
47546W        W11270  10.253  34.988  11.967
47547W        W11271   5.884  36.083  13.508
47548W        W11272  31.549  24.191  13.893
47549W        W11273  18.112  21.057   1.368
47550W        W11274  39.544   5.364  14.494
47551W        W11275  38.877  27.536   3.153
47552W        W11276  41.433   2.892   1.227
47553W        W11277  25.500  26.628  12.505
47554W        W11278  25.666  43.933   2.821
47555W        W11279  12.617  26.601   1.748
47556W        W11280  43.816   6.187   2.201
47557W        W11281  34.981  36.581   3.731
47558W        W11282  36.011  21.216   3.666
47559W        W11283  41.823  18.704   5.102
47560W        W11284   2.257   6.256  14.387
47561W        W11285  32.603  25.556   4.723
47562W        W11286  20.627  42.940  11.865
47563W        W11287   1.327  19.564  12.357
47564W        W11288  28.565  31.897   3.295
47565W        W11289  12.216  32.451   2.312
47566W        W11290   8.164  26.204   3.224
47567W        W11291  11.145  32.054  12.853
47568W        W11292  44.767  14.612  14.870
47569W        W11293  10.876  31.532   4.173
47570W        W11294  30.619   1.976   4.161
47571W        W11295  17.579  32.052   2.679
47572W        W11296  36.412  10.639  12.917
47573W        W11297  44.411  15.272   3.776
47574W        W11298   8.283  21.671   3.838
47575W        W11299  37.891  16.234  11.062
47576W        W11300  33.590  37.886  11.878
47577W        W11301  19.534  26.102   3.281
47578W        W11302  13.332  37.400  10.128
47579W        W11303  11.809  32.563   2.783
47580W        W11304  24.016   7.261   3.171
47581W        W11305  24.496   9.735   1.344
47582W        W11306   4.261  21.087  11.078
47583W        W11307  26.524  15.093  13.970
47584W        W11308   8.247  35.502   3.683
47585W        W11309  20.236  34.988  11.958
47586W        W11310  18.558  43.355   1.781
47587W        W11311  22.713  38.489   2.203
47588W        W11312  32.418  16.607   1.272
47589W        W11313  37.370  38.007  12.984
47590W        W11314  27.462  33.905  11.089
47591W        W11315  25.550  33.119  11.525
47592W        W11316  23.646  44.998  12.544
47593W        W11317  40.444   2.788   0.369
47594W        W11318  10.705   8.238  13.854
47595W        W11319  42.865  40.947   4.291
47596W        W11320  39.867  31.006   4.825
47597W        W11321  24.981  33.535  11.419
47598W        W11322  39.347  22.023   3.871
47599W        W11323  19.657  34.038  13.907
47600W        W11324  18.730   1.344   3.693
47601W        W11325   1.950   3.451  13.051
47602W        W11326   6.810  40.379  11.555
47603W        W11327  15.635   0.844   3.838
47604W        W11328  23.690  17.614   4.320
47605W        W11329   7.681  11.831  10.482
47606W        W11330   5.829  38.455   2.753
47607W        W11331  19.573  13.769   0.785
47608W        W11332   5.914  27.978  12.531
47609W        W11333   4.443  28.105  11.596
47610W        W11334  17.078  15.770   0.341
47611W        W11335  39.553  32.633   0.385
47612W        W11336  10.205  25.207   9.921
47613W        W11337  22.053  24.073   2.715
47614W        W11338  40.017   1.835   1.839
47615W        W11339  10.840   7.695  13.369
47616W        W11340  20.101  33.044   0.308
47617W        W11341   1.384  16.223  13.540
47618W        W11342  19.086  18.613  12.844
47619W        W11343  10.197   3.236   3.264
47620W        W11344  42.366  37.000  12.955
47621W        W11345  24.204  41.985   2.262
47622W        W11346  40.432  14.213   2.848
47623W        W11347  16.208  12.773  12.495
47624W        W11348  22.050  23.127  10.512
47625W        W11349  43.785  35.544  11.487
47626W        W11350  17.676  25.089  14.318
47627W        W11351  37.838  24.483  14.472
47628W        W11352  13.702  19.152   4.725
47629W        W11353  31.404  18.675  11.109
47630W        W11354  16.680  34.607   3.846
47631W        W11355  14.719  18.261  14.398
47632W        W11356   3.260  24.994  11.519
47633W        W11357  44.367   1.325   2.185
47634W        W11358  32.487  39.526   1.437
47635W        W11359  33.431  36.022  11.458
47636W        W11360  42.990   2.345  11.528
47637W        W11361  36.962  27.461   2.766
47638W        W11362  34.973  26.549   0.786
47639W        W11363  42.407  11.261   2.270
47640W        W11364  18.051  13.746  12.414
47641W        W11365   7.753   4.913   0.443
47642W        W11366   3.775  38.925   1.312
47643W        W11367  35.575  34.520   2.291
47644W        W11368  29.528  25.004  11.606
47645W        W11369  24.481  15.288   4.187
47646W        W11370  13.128   6.407   5.241
47647W        W11371   0.883  31.138  13.423
47648W        W11372   6.891  19.211  13.506
47649W        W11373  39.903  15.698  11.100
47650W        W11374  27.159  12.611  13.376
47651W        W11375  10.215  39.872   3.713
47652W        W11376  24.517  17.752   4.618
47653W        W11377   6.844  40.873   0.348
47654W        W11378  22.151  37.435   1.229
47655W        W11379  21.687  11.868   3.324
47656W        W11380  22.139  35.409  13.833
47657W        W11381  10.372  31.151   0.287
47658W        W11382  22.571  26.105   4.782
47659W        W11383  19.177  32.532  14.008
47660W        W11384  23.189  36.438  14.424
47661W        W11385  26.176  24.223   1.234
47662W        W11386   9.838  19.241   4.330
47663W        W11387  31.910  24.192   4.827
47664W        W11388  15.766  31.560  10.991
47665W        W11389  35.056   6.710  13.004
47666W        W11390   4.774  24.536  12.519
47667W        W11391  36.584  33.895   4.597
47668W        W11392  36.931  16.286   2.899
47669W        W11393   0.972  34.380  10.922
47670W        W11394  36.532  14.651  14.400
47671W        W11395  33.955  32.584   4.683
47672W        W11396  14.620  18.215   4.236
47673W        W11397  41.484  14.735   1.389
47674W        W11398   8.862  27.080  12.390
47675W        W11399  41.893  25.142   2.882
47676W        W11400   2.936  44.488  12.429
47677W        W11401  18.697   7.190   4.253
47678W        W11402   4.879  11.679  14.428
47679W        W11403  10.864   5.789  13.402
47680W        W11404  23.037  21.612   3.291
47681W        W11405  33.505  31.142  14.417
47682W        W11406   4.814  36.024  10.115
47683W        W11407  41.320  17.254   0.446
47684W        W11408  33.537  14.327   0.458
47685W        W11409   4.779   0.825  13.918
47686W        W11410   4.912  36.067   3.818
47687W        W11411   3.363  14.742  14.483
47688W        W11412   8.702   0.324   2.287
47689W        W11413  37.050  33.130   2.796
47690W        W11414  27.660  12.232   2.353
47691W        W11415  13.294  36.017  10.469
47692W        W11416  30.064   1.829   3.189
47693W        W11417  10.859   5.415   1.771
47694W        W11418  21.527   4.300   1.239
47695W        W11419  21.106  16.571  14.327
47696W        W11420  29.564  10.788   3.166
47697W        W11421   1.818  35.937   0.350
47698W        W11422  33.587  31.613  14.310
47699W        W11423  34.573  41.426  13.318
47700W        W11424   0.760  41.463   0.863
47701W        W11425  23.628  30.997  14.440
47702W        W11426  41.363  13.795   2.354
47703W        W11427  11.357  34.023   4.790
47704W        W11428   5.838  33.889   2.723
47705W        W11429  21.514  14.717  12.006
47706W        W11430  25.972  10.636  11.018
47707W        W11431  15.678  16.709   0.378
47708W        W11432  42.439  33.460   4.293
47709W        W11433  22.220   0.790   2.321
47710W        W11434  38.845  11.775   4.318
47711W        W11435  25.012   6.815   3.384
47712W        W11436  18.059  11.209   4.219
47713W        W11437  36.894   1.966   2.334
47714W        W11438  22.519  41.412  10.062
47715W        W11439   5.317  13.144  11.585
47716W        W11440  42.882  41.512  12.086
47717W        W11441  28.951   2.935  14.890
47718W        W11442  36.386  22.053   4.620
47719W        W11443   0.745  41.798  10.568
47720W        W11444  16.148  37.368   2.840
47721W        W11445  15.255  31.949   9.988
47722W        W11446  16.147  33.028  11.088
47723W        W11447   1.423  25.112   3.832
47724W        W11448   9.305   7.179  11.911
47725W        W11449  34.874   0.315  12.347
47726W        W11450  33.001  10.665  12.472
47727W        W11451  17.063   6.367  13.538
47728W        W11452  26.613  24.983   4.121
47729W        W11453  26.075   5.341  10.514
47730W        W11454  44.810  18.735   1.900
47731W        W11455  16.732  17.652   1.296
47732W        W11456  12.710  43.905   1.797
47733W        W11457   7.359  25.166   0.759
47734W        W11458  17.735  19.163  12.954
47735W        W11459  28.966  15.224   2.732
47736W        W11460  34.476  33.087  11.526
47737W        W11461  29.170  35.387  14.495
47738W        W11462  23.093  44.484  10.937
47739W        W11463   2.330  11.689   1.401
47740W        W11464  17.690  32.941  10.551
47741W        W11465  14.625  24.021   0.778
47742W        W11466  42.437  23.646   0.249
47743W        W11467  29.035  22.584  14.497
47744W        W11468   1.818  39.880  12.965
47745W        W11469  22.169  15.745   9.954
47746W        W11470  27.557  39.877   1.811
47747W        W11471  17.573  19.561  12.460
47748W        W11472  31.611   7.409  10.937
47749W        W11473  39.912  18.113  12.354
47750W        W11474   5.906   8.709  14.910
47751W        W11475  34.101  29.058   3.361
47752W        W11476  11.774  42.523  11.604
47753W        W11477  33.424  39.995  14.779
47754W        W11478  33.011  20.576   2.367
47755W        W11479   7.872  13.741  10.052
47756W        W11480   3.810  36.379   3.269
47757W        W11481  28.436  30.440   0.804
47758W        W11482  21.134   4.906   1.883
47759W        W11483  17.096  30.636   3.345
47760W        W11484  20.105  29.007   4.640
47761W        W11485  10.660  20.526   3.748
47762W        W11486  18.170  27.479  10.967
47763W        W11487   6.901  37.901   1.762
47764W        W11488  29.925  44.911  10.996
47765W        W11489   5.810  11.686  14.350
47766W        W11490   3.712  33.473   0.425
47767W        W11491  43.928  39.924  13.871
47768W        W11492  42.333  33.945   0.808
47769W        W11493  40.862  33.606   2.692
47770W        W11494  29.571  23.124  10.901
47771W        W11495  31.478  39.469  14.783
47772W        W11496  22.175  18.690   1.263
47773W        W11497   0.250  14.827   2.753
47774W        W11498  27.009  31.023  10.994
47775W        W11499  44.944  43.862   4.153
47776W        W11500  23.680  42.372   4.821
47777W        W11501  43.838   3.731   4.646
47778W        W11502   2.728   5.755  14.407
47779W        W11503  22.534  18.262  10.425
47780W        W11504  16.783  20.698  11.926
47781W        W11505  29.587  13.717  10.890
47782W        W11506   1.453  30.908   3.315
47783W        W11507  21.529  28.982   0.474
47784W        W11508  27.688   4.432   4.654
47785W        W11509  23.533  33.615  12.345
47786W        W11510  14.616  38.499  14.020
47787W        W11511   9.265  28.461  11.864
47788W        W11512  16.129  21.552  12.543
47789W        W11513  22.690  24.004   0.935
47790W        W11514  44.766   3.290  10.610
47791W        W11515  15.812  10.266   0.378
47792W        W11516  34.098   7.240   4.781
47793W        W11517  14.813   7.729   4.704
47794W        W11518  42.428  44.929  11.392
47795W        W11519  25.517   1.240   3.664
47796W        W11520  35.884   6.752   0.898
47797W        W11521   8.853  42.281   3.360
47798W        W11522  36.918   4.354   3.866
47799W        W11523  38.884  24.560   5.190
47800W        W11524   6.832  44.795   3.656
47801W        W11525  15.783  20.099   2.860
47802W        W11526  29.057  31.937   4.718
47803W        W11527  19.094   2.400   4.121
47804W        W11528  17.272  17.273   2.890
47805W        W11529   0.796  23.033   1.830
47806W        W11530   7.235  10.310   1.889
47807W        W11531  28.944   6.290   1.262
47808W        W11532  35.999  28.483   3.301
47809W        W11533  30.540  36.574   0.886
47810W        W11534  21.262   9.235   3.775
47811W        W11535  17.660  11.159  10.931
47812W        W11536   7.770  33.424  13.370
47813W        W11537  14.278   5.923  13.543
47814W        W11538   1.875  17.623  11.870
47815W        W11539  19.281  16.134   1.921
47816W        W11540   1.277   3.749   3.177
47817W        W11541   2.740  32.107  12.026
47818W        W11542   4.871  10.717   2.732
47819W        W11543  12.265   8.717  14.894
47820W        W11544  14.731  35.460   2.769
47821W        W11545  24.014  10.678   1.888
47822W        W11546  38.977   3.762   4.146
47823W        W11547  37.562   6.203   3.871
47824W        W11548  40.033  14.274   3.368
47825W        W11549  13.716   7.723  11.510
47826W        W11550  11.373  15.750  14.406
47827W        W11551  20.584   5.872  11.385
47828W        W11552  28.120  14.664  11.449
47829W        W11553  22.012  21.143   2.363
47830W        W11554  36.937  15.127   0.294
47831W        W11555  18.576  11.760   2.275
47832W        W11556  37.885  16.225  10.435
47833W        W11557   5.202  42.944  11.021
47834W        W11558  37.388   1.796  13.030
47835W        W11559  28.014   1.369   2.193
47836W        W11560  23.540  32.971   2.245
47837W        W11561  32.922  10.712   4.775
47838W        W11562   6.903   0.336   1.707
47839W        W11563  33.022  32.020   0.749
47840W        W11564  14.601  10.834   3.301
47841W        W11565  24.226  33.531  13.871
47842W        W11566  16.141  15.628   4.689
47843W        W11567  28.037  21.252   5.156
47844W        W11568   2.428  38.410  10.632
47845W        W11569  32.582  38.542  13.480
47846W        W11570   8.662  42.799  11.085
47847W        W11571  30.545  29.125  10.891
47848W        W11572   7.824  17.254  10.612
47849W        W11573  18.658  13.718  12.072
47850W        W11574   1.936  11.847  13.982
47851W        W11575   4.892  15.310   5.086
47852W        W11576  43.447  14.771   3.741
47853W        W11577  17.570   9.704  12.039
47854W        W11578   3.298  38.927  10.936
47855W        W11579  10.270  19.082  11.958
47856W        W11580  39.340   8.898   1.341
47857W        W11581  42.024  27.110  13.890
47858W        W11582  11.828  25.973   4.650
47859W        W11583  28.168  39.409   4.626
47860W        W11584   0.437   6.320  12.534
47861W        W11585  29.134  33.032   2.404
47862W        W11586   1.743   2.266   1.891
47863W        W11587  27.155  32.044  13.489
47864W        W11588  38.055  22.132  11.046
47865W        W11589  22.583  24.112  11.515
47866W        W11590   6.867   4.769   0.272
47867W        W11591  10.773   2.932  14.396
47868W        W11592  15.176  34.053   0.411
47869W        W11593  27.546  13.775  13.044
47870W        W11594   2.258  24.553   2.854
47871W        W11595  30.025   1.414  10.514
47872W        W11596  14.681  23.028  14.929
47873W        W11597   3.295  18.171  13.899
47874W        W11598  16.140  37.336   3.359
47875W        W11599  28.568   5.392   1.443
47876W        W11600  44.302   6.182  12.847
47877W        W11601  39.929  33.034  11.873
47878W        W11602  21.713  30.540   0.316
47879W        W11603  10.644  17.092  14.905
47880W        W11604  35.926   0.767  14.340
47881W        W11605  21.569  24.603   2.712
47882W        W11606  19.769   3.840   2.891
47883W        W11607  19.142  40.537  11.955
47884W        W11608  23.111  15.640  14.444
47885W        W11609  14.264  35.592  12.418
47886W        W11610   0.448  43.388  14.490
47887W        W11611  27.956  12.239   2.838
47888W        W11612  19.078  33.527   0.312
47889W        W11613   3.768  35.866   5.092
47890W        W11614  17.218   1.915   2.375
47891W        W11615   4.315  30.637   3.305
47892W        W11616  30.055  19.729   0.363
47893W        W11617  23.042   3.452   2.331
47894W        W11618  20.042  23.087   0.837
47895W        W11619  19.654   7.789   4.714
47896W        W11620  14.337  34.121  14.943
47897W        W11621  23.063  13.206   4.287
47898W        W11622   2.260   6.819  12.543
47899W        W11623   0.760  30.138  12.484
47900W        W11624  18.636  34.895   4.131
47901W        W11625  38.938  28.027  14.774
47902W        W11626  14.252  11.806   1.431
47903W        W11627   4.312  24.587  12.910
47904W        W11628  38.434  21.539  12.536
47905W        W11629  10.644  29.061   1.440
47906W        W11630  12.695  22.127   3.678
47907W        W11631  42.489  29.475   0.762
47908W        W11632  25.217  29.030   4.239
47909W        W11633  20.069  22.097   3.367
47910W        W11634  24.592  40.977  11.034
47911W        W11635  29.103   8.271  12.006
47912W        W11636  43.469   4.305  12.890
47913W        W11637  28.949  34.937   2.311
47914W        W11638   3.335   7.702   0.451
47915W        W11639  17.078  37.348  11.949
47916W        W11640  32.548  19.202   2.718
47917W        W11641  23.002  43.313  10.568
47918W        W11642  19.549   7.823   0.872
47919W        W11643  22.022  42.297  14.790
47920W        W11644  37.566  25.537   2.362
47921W        W11645  33.565  29.154  12.573
47922W        W11646  28.075  11.170   5.184
47923W        W11647  43.822  41.317   4.317
47924W        W11648   4.767  42.427   4.742
47925W        W11649  12.311  38.942  13.444
47926W        W11650  25.125   5.404   4.301
47927W        W11651  11.844   4.770  11.454
47928W        W11652   7.253  16.776  12.343
47929W        W11653   8.878  11.723  11.883
47930W        W11654   0.982   6.689   1.741
47931W        W11655  36.910   4.443  11.401
47932W        W11656   5.832   4.303   0.283
47933W        W11657  28.560  17.753   4.816
47934W        W11658  30.442  41.484  13.351
47935W        W11659   6.846  41.490   0.871
47936W        W11660  11.348  29.032  12.383
47937W        W11661  12.698  41.453   0.250
47938W        W11662   2.799   7.763  14.877
47939W        W11663  28.003  42.013  14.376
47940W        W11664   2.957  22.680   3.763
47941W        W11665  17.675   4.747   0.290
47942W        W11666  35.007  10.796   2.753
47943W        W11667  39.014  29.643   2.334
47944W        W11668  23.136  34.965   3.768
47945W        W11669  30.053  29.428  10.490
47946W        W11670  14.668  19.665   2.896
47947W        W11671  34.560  16.794  14.339
47948W        W11672  31.947   2.297  14.495
47949W        W11673   8.272   2.942  12.935
47950W        W11674   8.671  44.923  14.936
47951W        W11675   2.403  23.111  11.977
47952W        W11676   5.232  15.621  12.932
47953W        W11677  14.635  39.009   1.411
47954W        W11678  31.606  19.629   2.227
47955W        W11679   5.420  39.327  12.028
47956W        W11680  41.922  30.533   2.809
47957W        W11681  25.571  19.559  14.326
47958W        W11682  36.912  33.559   0.852
47959W        W11683  29.940  29.531  13.008
47960W        W11684   6.856  42.400  10.462
47961W        W11685  37.977  43.424   2.353
47962W        W11686  16.293  35.953  12.482
47963W        W11687  10.371  10.648   2.220
47964W        W11688  26.613  41.003  11.947
47965W        W11689  40.024  26.123  11.969
47966W        W11690  31.562   7.395   0.795
47967W        W11691  42.832   0.269  13.406
47968W        W11692  12.308  10.640  12.829
47969W        W11693   0.313  32.629  12.883
47970W        W11694  12.194  31.540  12.525
47971W        W11695  30.612  25.512   1.766
47972W        W11696  10.667   3.845  11.863
47973W        W11697   8.365  21.185  13.428
47974W        W11698   9.268  40.336   3.834
47975W        W11699  23.570  34.877   4.280
47976W        W11700  36.356  37.972   3.357
47977W        W11701  43.765  33.601  13.006
47978W        W11702  37.415  36.575  14.858
47979W        W11703   0.981  39.856  14.475
47980W        W11704  23.685  18.232  13.949
47981W        W11705  28.529   3.359   3.746
47982W        W11706   7.260  14.677  13.476
47983W        W11707  33.545  33.909   3.368
47984W        W11708  30.555  39.020   3.311
47985W        W11709  34.981   3.901   3.245
47986W        W11710  22.202  17.298  13.498
47987W        W11711  31.417  28.628   4.708
47988W        W11712  42.429  18.063   3.675
47989W        W11713  14.709  37.884   2.387
47990W        W11714  30.605   2.390  10.444
47991W        W11715  25.654   0.856   4.193
47992W        W11716   8.721  18.714  10.940
47993W        W11717   5.261  36.937   3.345
47994W        W11718   8.349  21.758   3.239
47995W        W11719   6.391  16.783  11.088
47996W        W11720  20.271  22.011  13.996
47997W        W11721  42.299  25.624   3.802
47998W        W11722   2.913  20.074   3.678
47999W        W11723   9.730  25.201  11.425
48000W        W11724   2.727  33.409  12.389
48001W        W11725   3.414  28.455  10.915
48002W        W11726   6.807  41.412   4.787
48003W        W11727  36.350   8.752   3.751
48004W        W11728  31.477  19.691   0.364
48005W        W11729  43.457  34.523   2.724
48006W        W11730  19.711  33.126  11.465
48007W        W11731   7.301  16.109  14.797
48008W        W11732  19.578  20.665  12.840
48009W        W11733  30.443  23.984   2.188
48010W        W11734   0.784  40.925  13.857
48011W        W11735   2.773  15.613  11.505
48012W        W11736  27.065  11.725  14.926
48013W        W11737  33.049  15.096   1.441
48014W        W11738   8.233  26.171   4.196
48015W        W11739  18.726   4.820   5.222
48016W        W11740  28.527  40.847   3.259
48017W        W11741   8.755  43.908   2.756
48018W        W11742  25.971   4.352   1.226
48019W        W11743  24.510   9.669   0.800
48020W        W11744  37.863  11.770   0.871
48021W        W11745   9.232   5.746   3.244
48022W        W11746  28.111  23.616   5.217
48023W        W11747  23.664  17.225   3.849
48024W        W11748  15.135  36.452   3.207
48025W        W11749   4.393  23.180   3.152
48026W        W11750  10.205   7.808   1.819
48027W        W11751  23.028  27.466  10.911
48028W        W11752  36.849  39.963  10.548
48029W        W11753   6.879  16.171  11.106
48030W        W11754  19.129  40.882  10.603
48031W        W11755  32.571  15.226   1.744
48032W        W11756   3.442  20.092  13.500
48033W        W11757   6.353  20.223   0.323
48034W        W11758  28.451  15.641  13.011
48035W        W11759  41.909  21.731   0.252
48036W        W11760   1.885  29.020  11.901
48037W        W11761  13.273  10.242  12.382
48038W        W11762  21.731  27.538  14.464
48039W        W11763  11.704  44.903   4.153
48040W        W11764   8.788  22.205   1.849
48041W        W11765  19.216  33.554   3.343
48042W        W11766  19.584  25.135  12.921
48043W        W11767  17.586  12.649  12.369
48044W        W11768  41.892  28.097   3.646
48045W        W11769   8.284  34.489   2.313
48046W        W11770  15.102   0.433   4.254
48047W        W11771   5.318  36.582   3.635
48048W        W11772  21.605  27.570   4.830
48049W        W11773  34.079  29.990  13.059
48050W        W11774  34.985   6.847  11.422
48051W        W11775  15.115  42.402  12.880
48052W        W11776  12.713  19.140   1.238
48053W        W11777  43.917  32.569   4.838
48054W        W11778  17.601  35.959  13.038
48055W        W11779  14.286  24.587  13.481
48056W        W11780  38.967   0.889   1.421
48057W        W11781  39.830  13.797  13.884
48058W        W11782  29.166   6.218  11.989
48059W        W11783  41.516   5.751  13.960
48060W        W11784  29.504  37.492   2.838
48061W        W11785  18.249   6.303  14.883
48062W        W11786  34.517   5.313  14.900
48063W        W11787  40.539  33.929   1.422
48064W        W11788   7.363  20.172  12.566
48065W        W11789  43.374  15.209  13.531
48066W        W11790  22.203   3.841  11.880
48067W        W11791  39.967   8.184  13.795
48068W        W11792  37.861   2.933   2.251
48069W        W11793  37.039  42.372  13.803
48070W        W11794   3.242  31.107   0.800
48071W        W11795  43.516  12.349   2.197
48072W        W11796  40.369   6.812   4.749
48073W        W11797  40.522  34.580   2.683
48074W        W11798  29.475  13.162   4.202
48075W        W11799   7.228  27.088  11.446
48076W        W11800   6.393   7.844   0.393
48077W        W11801  21.633  18.587   0.833
48078W        W11802  11.770  19.135   4.344
48079W        W11803   3.275   7.684  13.851
48080W        W11804   9.167   9.777  10.959
48081W        W11805  42.794  29.109  12.502
48082W        W11806   4.345  24.677   0.937
48083W        W11807  24.681   1.240  11.454
48084W        W11808  19.599   3.254  11.606
48085W        W11809  28.511  10.879   2.793
48086W        W11810   5.759  21.704   0.402
48087W        W11811  43.838  18.727  14.006
48088W        W11812  42.512  35.421  11.985
48089W        W11813  22.705  27.687  14.991
48090W        W11814  35.009  20.036   3.292
48091W        W11815  39.897  41.841   3.322
48092W        W11816   2.804  37.032  11.071
48093W        W11817  41.398  14.702   0.461
48094W        W11818  22.243  18.674  14.854
48095W        W11819   0.489  17.279  10.609
48096W        W11820  30.598  14.230   3.284
48097W        W11821  35.061  15.165  13.795
48098W        W11822  22.063   1.356  10.479
48099W        W11823   1.938  35.947  11.947
48100W        W11824  38.381  29.438  11.908
48101W        W11825  13.219  42.789   2.363
48102W        W11826   8.312  12.336   2.717
48103W        W11827  11.633  10.181   1.698
48104W        W11828  13.220  18.259  13.974
48105W        W11829  11.797  17.115   4.290
48106W        W11830  33.979   2.434   1.250
48107W        W11831  33.026  21.034  13.478
48108W        W11832   4.374   9.799  11.533
48109W        W11833  43.394   3.294  13.470
48110W        W11834   8.324  19.703   1.777
48111W        W11835  22.102  36.495  11.573
48112W        W11836   4.712  33.449  13.863
48113W        W11837  27.139   5.388   1.442
48114W        W11838  31.033  40.543  12.033
48115W        W11839   6.293   9.746   4.731
48116W        W11840  15.121  35.479  12.529
48117W        W11841   1.278  25.098   4.768
48118W        W11842   0.263   7.347   4.804
48119W        W11843  33.603  11.300   2.211
48120W        W11844  14.147   2.334  10.969
48121W        W11845  28.104  38.559   1.417
48122W        W11846  17.619  43.456   3.152
48123W        W11847  10.797   9.866  12.070
48124W        W11848  42.001  28.025  13.050
48125W        W11849  43.322   2.354   4.240
48126W        W11850  29.976  28.525  11.043
48127W        W11851  44.475   5.422  14.967
48128W        W11852  21.717  44.952  12.392
48129W        W11853  42.371  20.720   4.279
48130W        W11854   8.750   9.719  12.924
48131W        W11855  13.180   7.816  14.324
48132W        W11856  26.175   4.210  14.768
48133W        W11857  29.991  27.951   4.670
48134W        W11858  14.283  13.784   0.364
48135W        W11859  14.825  29.117   2.784
48136W        W11860  30.457  32.984  10.489
48137W        W11861  32.008  12.654  14.810
48138W        W11862   8.663  17.186   3.782
48139W        W11863  31.539   3.391   0.875
48140W        W11864  13.240  42.385   1.407
48141W        W11865   9.736   7.212  12.505
48142W        W11866  39.412   5.882   3.772
48143W        W11867  27.520  13.793  12.553
48144W        W11868  17.069  31.141   3.658
48145W        W11869  33.542   7.903  13.544
48146W        W11870  21.685   4.836   4.340
48147W        W11871   6.843  42.350  12.415
48148W        W11872  33.598  15.823   0.312
48149W        W11873  19.196  30.936   1.880
48150W        W11874  41.852  18.614  11.885
48151W        W11875  17.205  32.624  11.081
48152W        W11876  27.178  32.118  11.930
48153W        W11877  33.610  21.742  14.322
48154W        W11878  34.010   7.229   2.240
48155W        W11879  26.166  25.575  11.921
48156W        W11880  29.537  34.406   0.284
48157W        W11881  31.522  33.496  12.846
48158W        W11882   3.228  32.939  11.124
48159W        W11883  31.604  37.395   1.416
48160W        W11884  23.166  27.185   0.442
48161W        W11885  35.471  29.107   3.731
48162W        W11886  42.908  40.812   1.323
48163W        W11887   5.822  11.204   2.794
48164W        W11888  43.020  20.704  10.506
48165W        W11889  36.427   7.290  10.975
48166W        W11890   7.709  17.695  12.841
48167W        W11891  12.692  36.576  12.876
48168W        W11892  23.148  39.825  12.076
48169W        W11893   9.652  41.306   2.732
48170W        W11894  35.899  10.253  14.832
48171W        W11895   5.871  10.827  13.324
48172W        W11896  10.214  20.265  14.276
48173W        W11897   6.786  35.416   1.444
48174W        W11898  29.535  23.985  14.382
48175W        W11899  37.397  11.225   1.871
48176W        W11900  18.746  12.807   2.857
48177W        W11901   5.331  34.587   3.767
48178W        W11902  13.194  32.496  11.547
48179W        W11903  20.580  30.038  12.095
48180W        W11904  34.500  29.057  11.940
48181W        W11905  41.483  20.550   9.558
48182W        W11906   4.408  18.280   1.447
48183W        W11907   6.282  15.289  12.429
48184W        W11908  33.015  11.232  13.044
48185W        W11909  28.504  36.587  12.899
48186W        W11910  34.112  37.470   4.208
48187W        W11911  32.530  42.868  13.516
48188W        W11912  42.434   2.784  14.388
48189W        W11913  34.972   5.739   1.301
48190W        W11914  15.110  17.632   2.212
48191W        W11915  19.678  11.622   3.247
48192W        W11916   5.284  20.157   4.614
48193W        W11917  29.959  31.480   0.304
48194W        W11918  25.999  32.576   0.263
48195W        W11919  24.714  18.643   1.402
48196W        W11920  37.963  19.534   3.154
48197W        W11921  12.657   0.289  13.391
48198W        W11922  13.239   9.152  13.503
48199W        W11923  42.415  29.454   3.382
48200W        W11924   6.803  17.270   3.358
48201W        W11925  37.057   3.798  13.015
48202W        W11926  36.061  14.277  13.394
48203W        W11927  44.471  20.710  13.498
48204W        W11928  39.402  27.687   0.940
48205W        W11929  42.935  18.720  14.390
48206W        W11930  14.653  14.297  14.027
48207W        W11931  36.050  16.119  12.452
48208W        W11932  22.692  33.917  14.879
48209W        W11933   2.914  32.457  11.423
48210W        W11934  10.360   0.312   4.265
48211W        W11935   5.334   5.922  10.569
48212W        W11936  16.229   9.235  12.989
48213W        W11937  20.265  29.146   0.358
48214W        W11938   9.316  14.254  12.957
48215W        W11939   9.698   5.235  10.923
48216W        W11940  24.723  33.401   0.888
48217W        W11941  18.745  36.532  12.344
48218W        W11942  17.167  23.636   3.799
48219W        W11943  21.725  14.251  14.500
48220W        W11944  28.476  31.464   2.373
48221W        W11945  11.245   4.699  11.585
48222W        W11946  39.924   2.455   2.871
48223W        W11947  18.137  24.091   1.259
48224W        W11948  43.909  35.892   2.751
48225W        W11949   6.414  16.808   3.817
48226W        W11950  39.850   7.188  10.565
48227W        W11951  33.531  10.671   1.329
48228W        W11952  23.515  10.201  12.351
48229W        W11953   5.312  16.638   0.894
48230W        W11954  16.200  34.466  13.854
48231W        W11955   4.238  23.149   4.599
48232W        W11956  44.867  27.576   2.345
48233W        W11957   9.227  19.597  10.533
48234W        W11958   6.230  21.587  12.518
48235W        W11959  33.386  42.959  11.974
48236W        W11960  18.136  18.177  11.404
48237W        W11961  29.647  19.183   1.802
48238W        W11962  21.701  38.877   0.738
48239W        W11963  32.035  28.084  10.508
48240W        W11964  42.990  32.085   3.683
48241W        W11965  17.563  19.627   1.912
48242W        W11966  14.768   2.896   1.727
48243W        W11967  24.012  43.272   2.756
48244W        W11968  40.029   0.838   2.347
48245W        W11969  29.097  24.541  13.037
48246W        W11970  11.785   7.312  14.848
48247W        W11971  27.568   6.221  14.016
48248W        W11972  32.921   4.391  14.909
48249W        W11973  26.137  15.605  12.415
48250W        W11974  19.630  38.989  10.519
48251W        W11975  31.471   8.884  11.862
48252W        W11976  29.129  42.875  14.439
48253W        W11977  30.633  29.035  13.814
48254W        W11978  10.189  35.588  13.811
48255W        W11979  19.051  40.805   3.160
48256W        W11980  15.275   8.865  12.578
48257W        W11981  16.147  15.277  12.953
48258W        W11982   1.349   6.864   4.142
48259W        W11983  16.294  28.127  13.023
48260W        W11984   3.239  32.086   5.207
48261W        W11985  23.635   4.295   1.706
48262W        W11986   5.859  34.912  14.797
48263W        W11987  36.970  41.462   2.675
48264W        W11988  15.787   0.779  12.558
48265W        W11989  32.957  35.896  12.861
48266W        W11990  42.451  14.111  13.425
48267W        W11991  31.933  39.531   4.725
48268W        W11992  27.122   9.332  13.006
48269W        W11993  29.007  39.926  13.920
48270W        W11994  23.238  10.206   4.820
48271W        W11995  35.926  25.475  14.318
48272W        W11996   1.975  44.853   3.320
48273W        W11997  33.116  31.420   2.296
48274W        W11998  38.892  34.115  12.387
48275W        W11999  11.143  42.391  12.454
48276W        W12000  23.157  30.421  12.072
48277W        W12001   5.926  15.167  14.899
48278W        W12002  44.288  38.960   1.829
48279W        W12003  32.132  41.821   2.279
48280W        W12004  41.956  37.376   9.596
48281W        W12005  18.066  17.171  14.369
48282W        W12006  26.667   1.820  14.863
48283W        W12007   1.831   2.452   1.365
48284W        W12008  22.192  33.012  12.545
48285W        W12009  11.259   3.382  13.977
48286W        W12010  42.423  17.211   2.837
48287W        W12011  23.110  26.688   5.122
48288W        W12012  16.201   4.425   1.901
48289W        W12013  19.270  42.433   2.847
48290W        W12014  27.562  16.222   0.331
48291W        W12015   0.454  42.324  13.470
48292W        W12016  41.393  44.984  14.993
48293W        W12017  19.130  29.593  12.846
48294W        W12018  22.574   8.300   0.840
48295W        W12019   8.160  44.422   3.308
48296W        W12020  22.735  30.955   1.869
48297W        W12021  43.882  43.855   0.357
48298W        W12022  34.043  22.180  12.370
48299W        W12023  32.959  13.120   0.325
48300W        W12024  27.682  33.563  10.002
48301W        W12025  41.441   7.272  10.632
48302W        W12026  36.478   0.901  13.340
48303W        W12027  33.889  23.200  12.048
48304W        W12028  29.131  37.833   2.826
48305W        W12029  28.476  13.208   3.318
48306W        W12030  34.053  44.338  12.004
48307W        W12031   4.698  32.458  13.855
48308W        W12032   4.246  24.651  14.444
48309W        W12033  26.498   5.925   4.731
48310W        W12034  35.499  33.488  11.047
48311W        W12035   1.734  21.575  10.492
48312W        W12036  16.072  20.057   0.468
48313W        W12037  44.763  37.512   1.442
48314W        W12038   6.408  23.188   0.350
48315W        W12039  18.680  14.601  13.942
48316W        W12040  22.723  19.237   3.200
48317W        W12041   5.806  38.341   4.212
48318W        W12042  34.018   3.833   2.758
48319W        W12043  31.443  43.358  12.510
48320W        W12044  23.591  13.712   1.373
48321W        W12045  29.473  22.568   3.867
48322W        W12046  22.995  13.312   1.851
48323W        W12047  14.776  24.688  12.961
48324W        W12048  34.558   0.837  14.322
48325W        W12049   4.699   4.895   1.883
48326W        W12050  35.034  33.981   1.391
48327W        W12051  10.722  27.145   4.119
48328W        W12052  24.556   2.465  13.885
48329W        W12053  35.931  18.222   3.780
48330W        W12054   7.278  40.868   0.358
48331W        W12055  12.666  22.648   4.149
48332W        W12056  31.053  32.094   4.300
48333W        W12057  22.243   5.401  10.963
48334W        W12058  34.569   0.899  13.048
48335W        W12059  40.303  21.253   5.298
48336W        W12060  12.197   0.882  14.390
48337W        W12061  28.485  14.184  14.003
48338W        W12062  29.485  13.607   0.436
48339W        W12063  41.410  31.006   4.222
48340W        W12064   8.804  10.832   3.772
48341W        W12065  21.740  44.361  10.446
48342W        W12066  10.204  38.490   3.806
48343W        W12067  42.025   6.678   2.758
48344W        W12068  36.464  17.075  14.820
48345W        W12069  17.650  35.101  13.311
48346W        W12070  21.561  38.516   4.355
48347W        W12071  13.177   0.365  14.770
48348W        W12072  18.146   3.215  13.451
48349W        W12073  10.663  32.105  11.917
48350W        W12074  34.459  11.180   4.264
48351W        W12075  25.029  25.503  11.932
48352W        W12076  21.134  30.066  13.411
48353W        W12077   1.928  33.389  14.327
48354W        W12078  17.775   8.314   3.323
48355W        W12079  27.106   2.897  13.443
48356W        W12080  15.221  11.235  12.893
48357W        W12081  33.074  22.512  10.932
48358W        W12082  43.432  28.558  14.768
48359W        W12083  18.117  40.054  14.512
48360W        W12084  20.168  14.623  12.985
48361W        W12085  24.002  38.833  11.561
48362W        W12086  10.866  26.192   0.840
48363W        W12087   4.839  17.695   3.868
48364W        W12088  11.266  27.604  13.003
48365W        W12089   6.349  32.606   3.378
48366W        W12090  41.518  11.624   4.350
48367W        W12091  12.273   2.379  13.457
48368W        W12092   0.939  20.666   4.123
48369W        W12093  27.683   4.907  12.844
48370W        W12094   3.868  34.999   3.342
48371W        W12095  32.135  25.521  12.433
48372W        W12096  10.236   9.299   4.624
48373W        W12097   6.334   4.420   3.809
48374W        W12098   8.287  24.102  11.533
48375W        W12099  12.765   4.856   9.619
48376W        W12100  21.145   2.822  11.893
48377W        W12101  36.358  24.096   4.707
48378W        W12102  24.138  20.173  13.417
48379W        W12103  18.676  31.583  11.401
48380W        W12104  11.292  37.988   2.180
48381W        W12105  29.608  35.094  12.962
48382W        W12106   6.818  25.082   0.458
48383W        W12107  43.960  17.693  12.409
48384W        W12108  28.120  34.013   1.369
48385W        W12109  28.575  22.012  11.085
48386W        W12110  18.161  34.510   1.739
48387W        W12111  19.258  16.224   1.278
48388W        W12112  13.238   7.795  11.932
48389W        W12113  33.958  41.435  10.923
48390W        W12114  17.241  39.331   4.157
48391W        W12115  10.336  15.286  13.948
48392W        W12116  10.718  27.639  12.047
48393W        W12117   1.480  12.227  13.866
48394W        W12118  15.121  31.430   0.739
48395W        W12119   5.767   7.278   1.926
48396W        W12120  10.786   0.432   4.298
48397W        W12121   6.332   1.401   4.180
48398W        W12122  14.678  19.630  12.965
48399W        W12123  44.996  24.218   0.947
48400W        W12124  42.873  19.238   0.298
48401W        W12125  11.660  33.091   3.689
48402W        W12126  30.945   8.757  11.398
48403W        W12127   6.773  23.503  11.052
48404W        W12128   9.265   8.877   0.804
48405W        W12129  13.193  16.722   0.766
48406W        W12130  21.206  35.074  10.913
48407W        W12131  11.184   4.228   4.814
48408W        W12132  13.768  21.190  14.915
48409W        W12133  31.496  16.084   4.167
48410W        W12134  40.454   6.295   9.978
48411W        W12135  14.188   0.867  14.467
48412W        W12136  39.874  38.921  12.949
48413W        W12137  35.450  21.231   0.936
48414W        W12138   3.872  11.352   4.316
48415W        W12139  34.394  43.395  12.356
48416W        W12140   7.399  23.049   1.929
48417W        W12141  18.740  30.084  13.876
48418W        W12142  15.109  12.659  14.460
48419W        W12143  20.262  12.792   2.193
48420W        W12144  18.095  33.121  14.368
48421W        W12145  36.070  26.068   1.278
48422W        W12146   3.359   9.738  12.879
48423W        W12147  15.583  39.442   3.648
48424W        W12148  10.196  10.800   3.302
48425W        W12149  13.222  32.427   2.700
48426W        W12150   5.284  41.421   2.323
48427W        W12151  22.735  15.718   1.365
48428W        W12152  23.036  15.172   2.714
48429W        W12153  22.577   1.808   2.211
48430W        W12154  40.338  14.250   2.321
48431W        W12155  24.610  27.466   9.516
48432W        W12156  31.007   4.375  12.935
48433W        W12157   9.734  42.306  12.873
48434W        W12158  35.056  11.338   0.807
48435W        W12159   3.446  18.551   1.924
48436W        W12160  20.125   1.907  14.425
48437W        W12161  22.701  15.817  14.414
48438W        W12162   8.749  24.658   0.874
48439W        W12163  24.679  32.032   0.923
48440W        W12164  17.206  34.511   2.882
48441W        W12165   4.426  43.861  11.893
48442W        W12166  13.761   6.920  14.836
48443W        W12167  43.273  23.688   1.795
48444W        W12168  20.242   0.745  10.407
48445W        W12169  30.571   2.290   0.785
48446W        W12170  16.088  36.888   3.240
48447W        W12171  39.054  33.421  13.940
48448W        W12172  16.208  14.782  10.514
48449W        W12173  37.988  40.527  14.298
48450W        W12174  14.766   8.759  10.113
48451W        W12175  17.748   0.335  14.963
48452W        W12176  31.137  11.323  12.867
48453W        W12177  34.030   2.739  11.096
48454W        W12178  23.527  26.694  13.001
48455W        W12179  21.103  34.579  13.014
48456W        W12180  10.876   2.740   3.248
48457W        W12181  18.651   9.809  11.457
48458W        W12182   1.896  30.586  10.936
48459W        W12183   2.347  23.107   3.648
48460W        W12184  35.953  41.953   0.378
48461W        W12185   3.373  16.075  10.510
48462W        W12186  29.584  18.215  11.381
48463W        W12187  20.242  23.219   4.184
48464W        W12188  27.136  13.131   3.644
48465W        W12189  40.992  37.990  14.881
48466W        W12190  17.766  38.828   2.206
48467W        W12191   3.827  11.182   4.720
48468W        W12192  19.141  42.833   3.649
48469W        W12193  32.909   8.739   3.266
48470W        W12194  13.827  20.745   3.317
48471W        W12195   4.370  25.681   1.867
48472W        W12196   5.830   4.758  14.939
48473W        W12197   1.816  31.491  11.946
48474W        W12198  15.189  30.992   0.400
48475W        W12199  29.137   3.841   4.610
48476W        W12200  24.645  12.644   1.288
48477W        W12201  12.226  35.380  13.808
48478W        W12202   7.859  31.600   0.316
48479W        W12203  15.592  16.117   2.314
48480W        W12204  33.497  40.003   1.373
48481W        W12205   1.862  14.249  12.951
48482W        W12206  15.814  20.104  11.911
48483W        W12207   2.451   4.431   1.354
48484W        W12208  40.017   4.764  13.935
48485W        W12209   7.362  13.221   1.884
48486W        W12210  44.831   4.827   3.330
48487W        W12211  15.113  14.100   2.711
48488W        W12212  15.640   0.322   2.695
48489W        W12213  20.585   3.841   1.708
48490W        W12214  35.420   9.379  13.040
48491W        W12215  28.565   7.816   3.850
48492W        W12216  27.554  16.786   0.811
48493W        W12217  11.737  10.763  12.512
48494W        W12218  24.070  40.800   1.723
48495W        W12219  20.227  11.235   0.464
48496W        W12220  35.420  12.848   1.274
48497W        W12221  14.695   8.367   4.124
48498W        W12222  28.118  11.803  11.583
48499W        W12223   2.809  35.433  10.442
48500W        W12224  37.862   3.355   1.823
48501W        W12225  27.975  20.145   0.245
48502W        W12226  18.706  27.473  10.424
48503W        W12227  42.294  32.408  13.906
48504W        W12228  39.513  15.679  12.067
48505W        W12229  22.077   7.868  12.362
48506W        W12230  14.172  38.391  13.438
48507W        W12231  42.813  44.281  11.090
48508W        W12232  13.249  39.340   3.694
48509W        W12233  38.914   1.264  10.023
48510W        W12234   5.317  17.757  13.858
48511W        W12235  29.984  15.318  12.460
48512W        W12236  11.828  24.643  13.890
48513W        W12237  30.046   6.393  14.284
48514W        W12238  24.974   3.811   1.256
48515W        W12239  24.166  10.766  10.642
48516W        W12240  20.596  12.664  13.532
48517W        W12241  29.536  15.742   2.872
48518W        W12242  18.668  13.664   1.810
48519W        W12243  21.659  37.004  14.019
48520W        W12244   6.363  19.283  11.397
48521W        W12245   5.915  42.918   2.817
48522W        W12246   9.192   3.718   3.632
48523W        W12247  38.423  29.591  14.315
48524W        W12248  25.119  36.063  12.406
48525W        W12249  18.294   4.883  12.364
48526W        W12250  42.021  30.506   1.871
48527W        W12251  12.726  11.633  13.413
48528W        W12252   4.815  30.056   1.695
48529W        W12253  27.076  11.205  13.865
48530W        W12254   9.800  22.668  10.456
48531W        W12255   8.855  13.732  11.092
48532W        W12256   5.911   8.257   4.346
48533W        W12257  22.735  29.960  14.489
48534W        W12258  13.176  23.166   3.698
48535W        W12259   2.866  26.671  12.947
48536W        W12260  41.392   2.359   3.792
48537W        W12261  37.831   8.381   4.205
48538W        W12262  35.887  25.161  13.041
48539W        W12263  34.096  36.896   4.290
48540W        W12264  19.180  15.265  10.136
48541W        W12265  28.680   4.323   2.191
48542W        W12266  38.976  41.497   5.313
48543W        W12267  40.047  43.003   3.273
48544W        W12268  12.167  40.941  14.871
48545W        W12269  21.104  31.633   0.911
48546W        W12270  17.278   0.320   4.126
48547W        W12271  42.304  30.080  13.953
48548W        W12272   4.425   9.676   4.714
48549W        W12273  22.701  12.798  11.493
48550W        W12274  37.531   5.403   4.136
48551W        W12275   7.764  16.293  11.461
48552W        W12276   9.234   7.861   4.346
48553W        W12277  15.634   9.692   0.888
48554W        W12278   9.734   3.358   0.339
48555W        W12279  41.349  28.635   2.297
48556W        W12280   3.807  42.794   4.139
48557W        W12281  16.188  27.463   1.276
48558W        W12282   6.241  16.633   0.813
48559W        W12283  23.209  16.597   3.362
48560W        W12284   1.313  11.791   3.199
48561W        W12285  13.714  19.114  12.534
48562W        W12286  22.065  23.193   0.872
48563W        W12287  39.995  36.890   3.327
48564W        W12288  24.039  10.213   1.888
48565W        W12289   0.490   0.883   0.283
48566W        W12290   6.407   4.211  11.969
48567W        W12291  11.210   2.422  12.480
48568W        W12292  22.705  39.419  13.311
48569W        W12293   1.972  29.956   4.328
48570W        W12294  20.163  21.751  11.947
48571W        W12295  42.979  13.779   2.228
48572W        W12296  21.719  31.522  14.899
48573W        W12297  16.772  17.760  10.518
48574W        W12298  38.462  19.749   4.619
48575W        W12299  32.079  17.653  10.996
48576W        W12300   4.416  15.710   1.847
48577W        W12301   9.810  20.227  13.380
48578W        W12302  35.573  14.336  12.532
48579W        W12303  13.658  32.505   0.872
48580W        W12304   4.363  25.606  13.969
48581W        W12305  18.678  14.830  14.439
48582W        W12306  24.054  24.676   4.699
48583W        W12307   4.442  15.235   1.303
48584W        W12308  37.400  31.443   4.181
48585W        W12309  41.834   3.276  11.060
48586W        W12310   8.296  20.757   3.812
48587W        W12311  35.394  44.859   2.248
48588W        W12312  38.012   9.843   4.768
48589W        W12313  11.157   7.352  13.900
48590W        W12314  27.151  18.288  12.897
48591W        W12315  38.375  34.514  14.344
48592W        W12316  24.512  16.732  10.584
48593W        W12317   7.248  17.667   4.290
48594W        W12318  19.743  23.028   1.855
48595W        W12319  19.039  44.793   4.302
48596W        W12320  44.433  38.515   3.851
48597W        W12321  10.657  37.076   1.870
48598W        W12322  31.422  32.110   4.156
48599W        W12323   3.410  43.992   3.863
48600W        W12324   5.384   1.867  12.996
48601W        W12325  35.090  27.112  13.500
48602W        W12326  12.849  36.588  11.021
48603W        W12327  12.307   2.909  14.453
48604W        W12328  17.276  39.485   1.922
48605W        W12329  28.504  40.034  14.504
48606W        W12330   0.983  23.028   1.446
48607W        W12331  38.470  41.815  12.037
48608W        W12332   4.418  12.235   2.868
48609W        W12333  18.693   1.370  10.547
48610W        W12334  41.007  41.041  11.908
48611W        W12335  40.031  21.667  13.916
48612W        W12336  26.967  25.147   3.761
48613W        W12337  30.447  18.180   1.773
48614W        W12338  39.475  32.068   4.247
48615W        W12339  29.512  23.717  14.385
48616W        W12340  33.117  43.966   2.223
48617W        W12341  29.066   7.848  11.549
48618W        W12342  33.916  38.427  13.813
48619W        W12343   7.808  20.658  14.863
48620W        W12344  19.274  33.110   2.674
48621W        W12345  21.657  20.628  12.576
48622W        W12346  14.603  17.235   1.845
48623W        W12347  11.799  33.902   0.253
48624W        W12348  38.935  19.173  13.343
48625W        W12349  36.843  33.483  14.946
48626W        W12350  35.005  40.505  12.865
48627W        W12351   1.409   8.260  14.347
48628W        W12352  19.734  16.074   5.190
48629W        W12353  11.722   8.710  13.532
48630W        W12354   2.438   6.694   3.779
48631W        W12355  19.251  24.656   4.823
48632W        W12356  24.128  28.653  14.310
48633W        W12357  11.632  28.078  10.955
48634W        W12358  37.547  24.084   4.781
48635W        W12359   4.799  23.647   1.779
48636W        W12360  35.563  43.386  10.615
48637W        W12361   4.386  36.077   0.779
48638W        W12362  25.178  26.073  12.841
48639W        W12363  35.418  17.597   4.757
48640W        W12364  32.044  26.481   1.308
48641W        W12365  27.979  13.680   1.273
48642W        W12366  17.666   1.352   3.784
48643W        W12367   7.211  40.995   0.770
48644W        W12368  24.708  40.503  13.351
48645W        W12369  20.751  28.437  14.277
48646W        W12370  25.486  11.326   5.714
48647W        W12371  22.123   3.242   3.373
48648W        W12372   0.347   8.895   1.815
48649W        W12373   2.740  43.326   0.277
48650W        W12374   9.851  33.452   4.719
48651W        W12375  20.624  34.506   1.311
48652W        W12376  26.617  36.422   5.248
48653W        W12377  10.355  32.088   3.150
48654W        W12378  36.578  16.598   4.708
48655W        W12379   1.433  34.488   1.448
48656W        W12380  10.779   8.706   1.355
48657W        W12381   4.887  35.871   4.330
48658W        W12382   4.921  33.051   3.740
48659W        W12383  41.846  12.833   4.303
48660W        W12384  32.068  20.139  14.280
48661W        W12385  43.860  19.238  10.626
48662W        W12386   5.851  30.540   0.375
48663W        W12387  22.066  35.898   0.806
48664W        W12388   2.819  14.689  12.470
48665W        W12389  24.599  42.848  14.804
48666W        W12390  35.539  33.381  14.967
48667W        W12391   2.390  25.063  11.987
48668W        W12392  22.548  42.839   1.847
48669W        W12393  29.066  10.701  14.463
48670W        W12394  22.627  34.864   3.374
48671W        W12395  12.277  11.315  13.804
48672W        W12396   0.291  19.248   2.237
48673W        W12397   2.299   3.710   3.272
48674W        W12398  27.646   3.375  10.571
48675W        W12399   2.447   9.708   2.381
48676W        W12400  38.882  27.968  12.489
48677W        W12401   3.367   1.900   4.244
48678W        W12402  32.616  34.594   3.729
48679W        W12403  25.541  25.016  10.443
48680W        W12404   7.891  20.263  10.531
48681W        W12405   9.759  37.420   2.389
48682W        W12406  22.183  37.376   0.423
48683W        W12407  29.974  43.872   3.186
48684W        W12408  20.046   3.887   2.818
48685W        W12409  25.484   8.778  11.461
48686W        W12410  36.411  26.681   2.843
48687W        W12411   4.288  26.020   2.366
48688W        W12412  43.487   7.380  12.411
48689W        W12413  40.460  23.555  11.957
48690W        W12414   8.711  41.818   4.685
48691W        W12415   2.913  33.593  13.405
48692W        W12416  20.536  20.245   1.874
48693W        W12417   2.408  39.839  12.531
48694W        W12418  17.223  20.583  10.951
48695W        W12419   4.918  44.851   4.271
48696W        W12420  17.181  21.154   0.862
48697W        W12421  38.040  24.036  13.484
48698W        W12422  17.707  39.971  12.928
48699W        W12423  10.658   3.846  13.349
48700W        W12424  35.059  24.028  10.448
48701W        W12425   4.927  19.581  14.950
48702W        W12426  17.195  17.783  11.883
48703W        W12427  36.423  22.653   0.833
48704W        W12428  22.129  12.706  12.070
48705W        W12429  12.358  14.285  12.547
48706W        W12430  34.995  22.741  11.033
48707W        W12431  24.159  41.333  11.028
48708W        W12432  32.902  33.571  12.454
48709W        W12433  10.203   1.912  10.599
48710W        W12434   8.680  35.518  12.381
48711W        W12435  44.769   0.359   1.271
48712W        W12436  15.113   9.223   3.262
48713W        W12437   6.725  35.951  11.102
48714W        W12438  34.437   2.889   1.334
48715W        W12439   1.907  26.967  11.493
48716W        W12440  39.930  18.706   3.223
48717W        W12441   7.838  21.245  13.047
48718W        W12442  15.317  42.505   2.711
48719W        W12443  22.070  27.955  10.459
48720W        W12444  20.526   9.201  10.635
48721W        W12445  40.457  33.561  11.434
48722W        W12446  35.558  10.178   0.824
48723W        W12447  11.726  41.470  10.088
48724W        W12448  37.434   3.765   0.268
48725W        W12449  29.477  16.722  10.482
48726W        W12450   9.874  18.565   2.306
48727W        W12451   5.357   0.980  13.826
48728W        W12452  26.671  20.703   0.411
48729W        W12453   1.352  13.776  10.514
48730W        W12454  42.378  27.987   1.331
48731W        W12455  19.696   6.768   4.694
48732W        W12456  40.352  35.086  13.810
48733W        W12457  43.802  22.213   2.405
48734W        W12458  13.297   0.472   2.771
48735W        W12459   6.308  12.801  11.019
48736W        W12460  41.975   2.332  12.010
48737W        W12461  10.867   2.909   4.680
48738W        W12462  12.848   5.195  13.400
48739W        W12463  37.867  41.832   2.348
48740W        W12464  33.605  39.376  12.891
48741W        W12465   2.787   9.710  11.971
48742W        W12466   6.414  43.988   4.699
48743W        W12467  39.922  14.658  14.311
48744W        W12468   7.682  26.169   3.306
48745W        W12469   2.735   3.445  13.860
48746W        W12470   5.855  26.189   1.780
48747W        W12471  31.599  11.727   3.827
48748W        W12472  20.556   1.341   3.252
48749W        W12473  34.492  21.187  11.947
48750W        W12474  26.685  23.040   2.353
48751W        W12475  22.610   5.818   2.831
48752W        W12476  13.631  17.632   1.830
48753W        W12477  41.906  26.055   0.846
48754W        W12478   0.339   3.944  14.919
48755W        W12479   8.719  36.935  14.297
48756W        W12480  25.549  10.204   3.371
48757W        W12481   8.215  30.025  12.419
48758W        W12482  39.906  16.131  13.376
48759W        W12483  12.248  25.489   4.169
48760W        W12484  40.526  19.647   2.286
48761W        W12485  28.968  43.957  11.959
48762W        W12486  39.365  23.992   4.796
48763W        W12487  20.714  36.405  11.024
48764W        W12488  19.174   3.357  12.579
48765W        W12489  32.440   5.412  11.418
48766W        W12490  41.809   7.832   1.401
48767W        W12491  12.674  35.438  10.459
48768W        W12492  24.204  33.396   0.904
48769W        W12493   3.330  34.401   2.247
48770W        W12494  39.425   2.857  12.861
48771W        W12495  42.858   1.760   0.434
48772W        W12496  44.794  39.335  11.441
48773W        W12497   8.236  31.480  12.504
48774W        W12498  39.065  21.648  14.323
48775W        W12499   2.382  44.973  10.897
48776W        W12500  36.992  19.198   3.667
48777W        W12501  38.494  12.672  10.920
48778W        W12502  16.163  41.446   4.201
48779W        W12503  36.962  38.057  11.494
48780W        W12504   8.751  22.194  10.894
48781W        W12505  13.680  31.152   4.340
48782W        W12506  20.671  40.538  11.387
48783W        W12507  15.241  32.009   3.647
48784W        W12508  19.220  36.421   4.336
48785W        W12509  40.995  32.989   3.815
48786W        W12510  40.333   4.881   0.819
48787W        W12511  14.288  29.071  12.889
48788W        W12512  34.106  17.573  14.290
48789W        W12513  37.895  44.959  14.435
48790W        W12514  28.515  22.210  12.854
48791W        W12515  44.352  32.068   0.946
48792W        W12516  44.415  14.650  11.534
48793W        W12517  32.989   7.893  11.953
48794W        W12518  27.656  27.521  13.011
48795W        W12519   0.972  34.555  11.474
48796W        W12520  44.834  19.094  14.355
48797W        W12521   6.812  27.101   0.431
48798W        W12522  33.606  13.325  14.319
48799W        W12523  31.977   7.899   5.184
48800W        W12524  36.522  23.138  13.013
48801W        W12525  26.999   5.303  12.937
48802W        W12526  14.240   1.398   2.754
48803W        W12527  20.139   0.937  13.382
48804W        W12528   5.250  19.716   2.280
48805W        W12529  16.260  42.466   4.649
48806W        W12530  15.215   1.352   4.806
48807W        W12531  37.374  21.137  12.093
48808W        W12532  14.228  37.512  14.895
48809W        W12533  16.195  39.955  14.397
48810W        W12534   6.200   0.254   2.803
48811W        W12535  43.906  27.656  14.407
48812W        W12536  26.546   9.797   0.250
48813W        W12537  18.570  17.119  13.495
48814W        W12538  22.197  37.368  13.527
48815W        W12539   8.266  31.119   1.295
48816W        W12540  37.909  43.488   1.814
48817W        W12541   7.185  26.621  10.944
48818W        W12542  32.015  24.084   1.442
48819W        W12543  33.118  25.649   3.730
48820W        W12544   4.764  38.334   2.832
48821W        W12545  36.995  24.036   2.805
48822W        W12546  39.428  21.173   0.387
48823W        W12547  19.280  37.979   1.290
48824W        W12548  18.062  25.582   4.247
48825W        W12549  31.120  43.302  11.088
48826W        W12550  19.594   8.226   3.688
48827W        W12551   0.427   5.861   4.278
48828W        W12552  36.352  44.821   4.766
48829W        W12553  18.146   7.816  14.828
48830W        W12554   9.262  44.390   2.318
48831W        W12555  19.618  21.686   0.880
48832W        W12556  39.370  29.038  10.478
48833W        W12557  12.638  11.242   0.262
48834W        W12558  38.028  37.024   3.153
48835W        W12559  23.233   8.856   2.241
48836W        W12560  19.674  42.326   3.804
48837W        W12561  43.925  32.596  10.987
48838W        W12562  31.133  33.098  11.908
48839W        W12563   2.935  39.001   4.334
48840W        W12564  28.955  33.613   0.943
48841W        W12565  20.605  21.616  12.086
48842W        W12566  15.185   6.416   1.270
48843W        W12567  42.877  12.200   4.216
48844W        W12568  11.270  16.214   2.259
48845W        W12569  15.655  19.626  12.391
48846W        W12570  43.303   4.426   4.804
48847W        W12571  34.081  16.079  13.039
48848W        W12572   8.376  27.464  10.412
48849W        W12573   1.393  29.583  13.894
48850W        W12574  44.939  41.852   1.360
48851W        W12575  33.082   5.376  13.440
48852W        W12576  38.432  20.213   1.706
48853W        W12577  15.225  19.164   3.668
48854W        W12578  36.538  40.508   3.245
48855W        W12579   3.435  10.295   4.153
48856W        W12580   2.457  19.583   0.322
48857W        W12581  33.606  42.867  13.964
48858W        W12582  26.581  26.671   2.781
48859W        W12583  14.699  15.311   3.687
48860W        W12584  33.057  25.476  12.923
48861W        W12585  24.634  12.164  13.347
48862W        W12586   3.724  35.040   4.801
48863W        W12587  19.583  21.023  10.956
48864W        W12588  21.057  17.700   4.240
48865W        W12589  37.832  38.957  11.046
48866W        W12590   0.389   1.775   3.661
48867W        W12591  41.327  11.621  12.398
48868W        W12592   3.265  30.488   4.260
48869W        W12593  12.663  18.771  13.841
48870W        W12594  22.554   9.383  14.416
48871W        W12595  37.954   9.266   3.760
48872W        W12596   5.343  13.771  11.872
48873W        W12597  44.478   3.911  10.472
48874W        W12598  11.859  11.678   2.808
48875W        W12599  36.452  36.973  11.588
48876W        W12600  37.397  21.238   3.657
48877W        W12601  16.217  30.109   0.372
48878W        W12602  27.626   2.416   2.734
48879W        W12603  42.961  26.576  10.106
48880W        W12604  25.029  23.233  14.514
48881W        W12605  25.008  40.941  11.585
48882W        W12606  26.159  26.656   3.343
48883W        W12607   8.683  24.721  14.949
48884W        W12608  18.746   1.261   2.330
48885W        W12609  31.910   0.408   4.740
48886W        W12610  39.977   3.217  10.564
48887W        W12611  14.801  38.945  14.349
48888W        W12612  28.586  28.933  13.360
48889W        W12613   3.871  16.074  10.623
48890W        W12614   7.173   9.382  10.433
48891W        W12615  12.798   6.690  14.292
48892W        W12616  34.996   6.252   4.718
48893W        W12617  44.371  11.860   0.870
48894W        W12618  32.402  44.759  13.540
48895W        W12619   5.804  16.109  10.438
48896W        W12620  35.594   3.310  12.071
48897W        W12621  16.575  39.881  13.855
48898W        W12622  43.271  24.712  12.374
48899W        W12623  27.607   0.970   3.832
48900W        W12624  30.058  44.835   1.264
48901W        W12625  14.276  42.307  13.816
48902W        W12626  26.614  28.622  12.425
48903W        W12627  27.691  21.629   1.722
48904W        W12628  15.111  12.655  13.468
48905W        W12629  43.365  38.361   4.244
48906W        W12630  11.368   2.920  11.465
48907W        W12631  42.798   7.334   0.944
48908W        W12632   9.829   7.753  10.954
48909W        W12633  14.318   9.258  11.945
48910W        W12634   0.457  11.633   0.453
48911W        W12635  27.162   8.686  13.060
48912W        W12636  35.563  42.978   3.793
48913W        W12637  15.726  33.405   0.906
48914W        W12638   4.771  33.936   3.289
48915W        W12639   9.788   5.260  12.511
48916W        W12640  22.081  40.488   2.405
48917W        W12641  37.075  13.786   2.328
48918W        W12642  15.785   0.397   4.810
48919W        W12643  14.134  27.489   4.301
48920W        W12644  38.489   3.821   4.137
48921W        W12645  30.995   5.930   0.780
48922W        W12646  41.347  14.140   1.906
48923W        W12647  21.525   0.431  14.281
48924W        W12648  24.142  44.808  13.482
48925W        W12649  12.610  22.559   1.745
48926W        W12650  35.005  13.295  11.045
48927W        W12651  34.118  29.551   3.332
48928W        W12652  42.357  32.492  12.086
48929W        W12653  17.601  20.637   2.339
48930W        W12654  20.626  19.180  13.547
48931W        W12655  40.316  32.457   3.216
48932W        W12656  18.135  13.156  14.026
48933W        W12657  14.716  24.659   1.745
48934W        W12658  10.179  35.388  10.538
48935W        W12659  37.904  33.937  10.889
48936W        W12660  23.631  25.193   0.769
48937W        W12661   4.924  38.454   1.270
48938W        W12662  35.536   1.823  12.075
48939W        W12663  25.690  13.656  12.076
48940W        W12664  21.610  16.750  11.944
48941W        W12665  20.263  36.396  12.055
48942W        W12666   7.671   9.312  12.888
48943W        W12667   0.746  40.543  10.955
48944W        W12668  16.724   9.343   2.328
48945W        W12669  41.939  34.444   5.281
48946W        W12670  37.404  21.592  12.901
48947W        W12671  25.498  39.376  10.431
48948W        W12672  43.357  31.063  13.391
48949W        W12673  41.425  18.641  12.074
48950W        W12674  28.504   4.938  10.906
48951W        W12675   1.320  32.142  13.491
48952W        W12676  37.426  33.893   2.328
48953W        W12677  13.817  10.833   3.145
48954W        W12678  10.152  20.233  10.550
48955W        W12679  34.434  23.196  12.535
48956W        W12680  24.125   5.826   2.327
48957W        W12681   1.796  41.033  13.317
48958W        W12682   7.868  27.641  12.550
48959W        W12683  35.063  20.552  14.847
48960W        W12684  42.844  29.638   0.856
48961W        W12685  17.189  17.734  14.351
48962W        W12686  14.180  39.382  11.054
48963W        W12687  36.479  12.737  13.050
48964W        W12688  15.118  31.042  12.861
48965W        W12689  43.906  22.568  10.511
48966W        W12690  43.958  11.312   3.312
48967W        W12691   5.231  17.773   2.179
48968W        W12692  43.839  21.045  10.492
48969W        W12693   8.693   4.884  10.993
48970W        W12694  11.286  21.566   0.732
48971W        W12695  40.972   5.915  12.012
48972W        W12696   6.729   8.879  12.905
48973W        W12697  29.046  14.814   4.708
48974W        W12698   6.884   3.729   3.221
48975W        W12699  17.583  35.854  10.947
48976W        W12700  16.568   5.434   4.656
48977W        W12701  32.067   5.285   3.782
48978W        W12702  21.608  10.671  14.279
48979W        W12703  15.738   4.333  14.986
48980W        W12704  23.107   4.784   4.644
48981W        W12705  12.722  22.095  12.078
48982W        W12706  35.859  36.578   4.655
48983W        W12707  42.947   7.397  11.442
48984W        W12708  23.499  31.009  11.029
48985W        W12709  41.953  22.566  14.886
48986W        W12710  34.084   8.218  12.040
48987W        W12711  38.334   4.762  10.643
48988W        W12712  44.288  16.255   4.739
48989W        W12713  37.566  25.998   2.675
48990W        W12714  36.505   3.787  11.447
48991W        W12715  26.026  22.999  13.537
48992W        W12716  36.987  32.477  14.443
48993W        W12717   7.788  28.952   3.631
48994W        W12718  38.045  17.225   0.266
48995W        W12719  26.645  28.072  12.424
48996W        W12720   8.772  36.843   3.632
48997W        W12721  37.997  12.834   0.342
48998W        W12722  38.066  40.348  11.962
48999W        W12723  44.392  42.832  11.975
49000W        W12724  12.692  10.714  12.011
49001W        W12725  38.474   5.423  14.358
49002W        W12726  10.733   9.221   3.768
49003W        W12727   1.923  27.585  12.536
49004W        W12728   9.806  35.897   2.697
49005W        W12729   7.344  24.096   0.412
49006W        W12730  11.695  32.075  10.464
49007W        W12731  28.480   9.293   0.803
49008W        W12732  37.515  32.902   0.852
49009W        W12733  42.014   5.796   1.244
49010W        W12734  35.447  28.591  10.637
49011W        W12735  15.235  25.010   0.844
49012W        W12736  34.524  40.351   4.163
49013W        W12737  13.237   7.323   1.844
49014W        W12738  26.577  18.186  11.458
49015W        W12739  12.750  24.097  11.453
49016W        W12740  31.610  22.513  12.042
49017W        W12741  40.002  25.502   3.777
49018W        W12742  27.177  19.172   0.807
49019W        W12743  15.742  35.008  13.470
49020W        W12744   4.334  42.027  12.039
49021W        W12745  13.713  39.460  13.381
49022W        W12746  14.296  42.781   1.450
49023W        W12747  26.578  42.815  14.292
49024W        W12748  43.305  37.057   1.723
49025W        W12749  22.221  26.600   4.218
49026W        W12750   3.797   8.849   4.799
49027W        W12751  14.693  35.546   1.251
49028W        W12752  33.589  16.150  10.582
49029W        W12753  43.433  16.136  12.539
49030W        W12754  34.424  10.787  12.509
49031W        W12755  12.821  35.414  13.852
49032W        W12756  27.983  15.163   3.739
49033W        W12757   5.717   4.402   4.263
49034W        W12758  30.642   6.877   3.682
49035W        W12759  27.057  28.574  10.071
49036W        W12760  16.276  10.688  12.531
49037W        W12761  36.431  16.120  12.535
49038W        W12762   6.210   4.879   4.713
49039W        W12763  40.037  23.688  13.811
49040W        W12764  31.602  14.824   3.858
49041W        W12765   5.285  28.028  12.864
49042W        W12766  41.851  41.967  10.985
49043W        W12767  17.800  44.270  13.892
49044W        W12768  25.529  36.364  13.919
49045W        W12769   1.266  21.741   0.802
49046W        W12770   1.480  11.332  10.508
49047W        W12771  19.590  14.260  12.865
49048W        W12772  13.224  44.465   2.389
49049W        W12773  39.940  35.582   1.724
49050W        W12774  14.299   9.390   1.428
49051W        W12775  13.225   4.299  12.414
49052W        W12776   2.345  17.629  10.925
49053W        W12777  23.185  40.025   1.350
49054W        W12778  33.971   7.778   3.690
49055W        W12779  44.433  30.927   1.262
49056W        W12780  20.140   8.750  13.064
49057W        W12781   0.476   1.809  12.858
49058W        W12782  10.823  11.272   0.467
49059W        W12783  32.496  35.985  13.924
49060W        W12784   6.411  10.367  10.127
49061W        W12785  40.965  38.518   0.939
49062W        W12786  43.935  22.092  11.375
49063W        W12787  20.213  20.710  11.917
49064W        W12788   0.427   6.914  12.534
49065W        W12789   6.345  25.615  14.885
49066W        W12790  20.698  41.975  14.994
49067W        W12791   7.835  29.445   0.246
49068W        W12792  19.693  37.465   2.735
49069W        W12793  10.297  13.639   0.798
49070W        W12794  13.182  15.242  12.839
49071W        W12795  38.892  42.318  10.898
49072W        W12796  33.624  32.975   2.307
49073W        W12797  34.113  11.358  11.931
49074W        W12798  38.480  27.606  13.931
49075W        W12799   9.170  30.534   3.661
49076W        W12800   7.778  13.274  14.809
49077W        W12801   3.767  38.996   1.766
49078W        W12802  24.631   9.887   9.478
49079W        W12803  30.130  39.041  13.917
49080W        W12804  10.768  44.488  10.451
49081W        W12805   3.792  19.116  14.406
49082W        W12806   0.345   0.431   3.382
49083W        W12807  16.733  32.039   2.781
49084W        W12808  23.207  30.147  12.441
49085W        W12809  22.562   0.309  12.885
49086W        W12810   1.940  16.120   4.658
49087W        W12811  17.588   9.669   2.405
49088W        W12812  40.860   9.832   4.304
49089W        W12813  24.044   9.875   2.854
49090W        W12814  35.089  20.595  10.469
49091W        W12815  11.823  27.602  12.560
49092W        W12816  24.537   3.233   1.907
49093W        W12817  44.265  36.505  13.351
49094W        W12818   3.235   0.420   1.797
49095W        W12819  29.549  11.635  10.575
49096W        W12820  13.668   1.859   4.805
49097W        W12821  11.327  40.327  13.822
49098W        W12822  12.302  18.105  14.312
49099W        W12823  37.833   0.790   3.176
49100W        W12824  21.045  27.997  11.904
49101W        W12825   8.174  14.796   1.815
49102W        W12826  25.037  40.341  11.559
49103W        W12827  19.146  38.378   9.978
49104W        W12828  32.440   4.347  12.445
49105W        W12829  26.976  28.447   0.828
49106W        W12830  41.481  24.705   3.314
49107W        W12831  26.631  41.479   0.263
49108W        W12832   2.374  39.879  10.497
49109W        W12833  38.446  27.989   1.794
49110W        W12834  12.226   1.353   3.209
49111W        W12835  21.048  28.942  14.001
49112W        W12836  42.509  20.555   1.290
49113W        W12837  42.296  32.494  13.524
49114W        W12838  31.993  32.488   1.883
49115W        W12839  22.650  26.632  11.070
49116W        W12840   1.736  23.538  11.595
49117W        W12841   7.390  36.458   0.919
49118W        W12842  17.679  34.522   3.696
49119W        W12843  38.062  15.662  10.904
49120W        W12844  44.365  41.505   2.285
49121W        W12845  30.580  37.843  13.375
49122W        W12846  27.643   6.193   3.655
49123W        W12847  16.160   7.187   3.175
49124W        W12848  43.983  34.052  12.977
49125W        W12849  33.564  27.147   4.129
49126W        W12850  13.203  39.493   4.769
49127W        W12851   2.949  34.610   2.292
49128W        W12852  44.339   7.745   3.863
49129W        W12853  30.088  44.330  10.914
49130W        W12854  35.921   7.380   4.226
49131W        W12855  35.475  23.492  12.993
49132W        W12856  37.464  17.587  11.529
49133W        W12857  10.802   7.669  12.382
49134W        W12858  24.536  16.156   1.382
49135W        W12859  18.288  42.909  13.462
49136W        W12860  40.887  37.352   2.871
49137W        W12861   6.417  41.316  12.561
49138W        W12862  11.720  37.492   9.922
49139W        W12863  24.572  34.977  12.360
49140W        W12864  24.690  29.585   2.323
49141W        W12865  42.016  36.017   3.347
49142W        W12866  19.779  22.704   2.706
49143W        W12867  16.091  24.652  14.388
49144W        W12868   3.930  34.051   0.900
49145W        W12869  43.805  37.025   3.821
49146W        W12870   9.163  14.768   0.258
49147W        W12871   9.887   5.760   4.352
49148W        W12872  30.045  38.509   2.850
49149W        W12873  19.169  15.634  11.940
49150W        W12874  31.517  33.964   0.771
49151W        W12875  43.272  19.568   2.354
49152W        W12876  11.342   3.739   1.393
49153W        W12877  32.403   1.888  14.981
49154W        W12878  41.040  38.563   1.870
49155W        W12879   7.780  19.101   3.840
49156W        W12880   5.381  27.146  14.933
49157W        W12881  36.459   5.309   3.666
49158W        W12882  40.511  30.955  10.435
49159W        W12883  37.554  23.706  14.513
49160W        W12884   8.393   3.252   5.108
49161W        W12885  28.010  20.745  11.528
49162W        W12886  36.486   2.928   1.789
49163W        W12887  10.774   0.962   2.734
49164W        W12888  27.469  31.593   2.731
49165W        W12889  42.796  10.205  14.858
49166W        W12890  38.538  15.107   1.726
49167W        W12891  29.567   0.779  13.894
49168W        W12892   8.289  34.595   1.321
49169W        W12893  31.917   2.324   2.352
49170W        W12894   0.449  40.932  13.905
49171W        W12895  40.027  27.542   2.306
49172W        W12896   2.472  39.995  13.007
49173W        W12897  10.866   3.743  14.476
49174W        W12898  31.094  28.018   0.915
49175W        W12899   5.701   4.310   3.850
49176W        W12900   0.917   2.225  12.561
49177W        W12901  28.042  41.435   1.367
49178W        W12902  34.389   1.817  13.987
49179W        W12903  32.461  39.968   0.244
49180W        W12904  28.096  30.000  11.538
49181W        W12905  18.268   6.264   3.352
49182W        W12906  15.612  14.758  11.536
49183W        W12907  14.825   1.736  11.047
49184W        W12908  26.660  22.716   5.197
49185W        W12909  11.275  24.594  11.129
49186W        W12910  38.516  14.626   2.278
49187W        W12911  24.657  10.361  11.982
49188W        W12912  20.619   0.855  10.942
49189W        W12913  22.132  33.073   2.734
49190W        W12914  15.661  35.438  11.056
49191W        W12915  21.107  44.769   1.348
49192W        W12916  35.431  37.376  13.033
49193W        W12917  42.784  13.322  14.875
49194W        W12918  26.556   0.417  11.125
49195W        W12919  43.775  21.646  14.466
49196W        W12920  22.245  10.264  13.974
49197W        W12921  24.208  16.630   1.795
49198W        W12922  39.962  35.485   2.254
49199W        W12923  40.400   5.236  13.024
49200W        W12924  34.988  15.271   2.790
49201W        W12925  30.443  37.036   3.859
49202W        W12926  28.486  40.411  10.535
49203W        W12927  37.525  16.590  11.540
49204W        W12928   6.370  43.288  13.814
49205W        W12929  40.001  15.196  13.531
49206W        W12930   9.212  24.702  14.414
49207W        W12931   4.361  11.342  11.982
49208W        W12932   7.230  22.728  10.933
49209W        W12933  29.568   8.807   2.342
49210W        W12934   6.756  10.281   9.534
49211W        W12935  44.459  15.229   0.739
49212W        W12936  17.772  21.021   4.647
49213W        W12937  43.894  21.750   1.387
49214W        W12938  28.477   8.835   3.312
49215W        W12939  24.011  24.599   3.869
49216W        W12940   3.729   6.412  10.610
49217W        W12941  44.409  33.090   1.240
49218W        W12942  38.034  22.573   1.762
49219W        W12943  15.710  19.081   4.628
49220W        W12944  40.530  16.621  10.967
49221W        W12945   6.899  40.024   2.767
49222W        W12946  25.685   4.407  12.090
49223W        W12947   9.350   9.224  10.504
49224W        W12948  10.823   8.374  10.915
49225W        W12949   7.352  25.976  12.478
49226W        W12950  32.392  23.711  13.899
49227W        W12951  12.149  38.471  13.362
49228W        W12952   4.703  43.953  13.790
49229W        W12953  41.434  35.506  11.054
49230W        W12954  19.130  20.146  10.542
49231W        W12955  28.513   6.744  12.429
49232W        W12956  29.562  19.572   9.938
49233W        W12957  34.486  24.549   3.816
49234W        W12958  30.544  41.329   1.450
49235W        W12959   8.269  20.088  11.390
49236W        W12960  25.658   7.267   5.129
49237W        W12961   3.711   0.290   2.724
49238W        W12962  27.682  27.549   4.786
49239W        W12963   4.916   4.407   2.402
49240W        W12964  23.643   9.713   2.232
49241W        W12965   8.656  13.674  14.995
49242W        W12966   6.330  24.613  11.015
49243W        W12967   4.830  27.126  12.982
49244W        W12968   9.333  12.277  10.012
49245W        W12969   2.818  16.589  11.400
49246W        W12970   4.878   0.465   1.822
49247W        W12971  24.640  35.935  11.998
49248W        W12972   3.854  36.863  10.555
49249W        W12973  30.581  19.185   3.226
49250W        W12974  28.588  39.062   3.239
49251W        W12975  26.040   8.400   5.797
49252W        W12976  14.746   3.791   4.821
49253W        W12977   3.450  42.874   0.310
49254W        W12978  37.968  24.188   2.738
49255W        W12979  16.234  16.686   1.879
49256W        W12980  41.874   6.308   0.812
49257W        W12981  27.169  19.638   0.461
49258W        W12982  30.550  43.367  12.025
49259W        W12983  37.463   5.790  10.428
49260W        W12984  39.844  19.683   4.270
49261W        W12985  30.600  17.797  13.017
49262W        W12986  30.504   3.307   1.265
49263W        W12987  20.595  33.971  14.504
49264W        W12988  35.423  15.728   1.811
49265W        W12989   9.331  40.815   0.729
49266W        W12990  43.922  26.999   2.775
49267W        W12991  36.357  17.272   3.352
49268W        W12992   7.234  40.844   2.291
49269W        W12993  17.203  34.889   2.690
49270W        W12994  25.537   9.384  12.843
49271W        W12995   8.260  33.989  11.381
49272W        W12996  29.467  40.419   4.304
49273W        W12997  30.549  16.754  12.500
49274W        W12998   9.740  15.227   1.440
49275W        W12999   3.314  11.311  12.369
49276W        W13000  21.518   5.425  10.600
49277W        W13001  38.968  24.607  11.859
49278W        W13002  22.135  41.028  14.281
49279W        W13003  40.894  32.419   1.271
49280W        W13004  26.529   2.879  10.944
49281W        W13005  25.482  27.127   4.114
49282W        W13006  20.126  37.561  14.775
49283W        W13007  39.554   8.788   3.755
49284W        W13008   9.751   3.811   2.297
49285W        W13009  37.430  32.009  11.535
49286W        W13010  15.114  42.474  14.857
49287W        W13011  29.432  39.952  12.358
49288W        W13012  16.606  33.999  12.480
49289W        W13013   0.260  12.642  12.490
49290W        W13014  28.033  11.858   0.389
49291W        W13015  13.645  13.708   0.416
49292W        W13016   9.390  35.371   4.694
49293W        W13017  13.280  32.890  14.853
49294W        W13018  22.724  23.693   0.881
49295W        W13019  44.276  44.361   3.283
49296W        W13020   3.890  34.547  14.993
49297W        W13021  31.450  12.828  13.017
49298W        W13022  22.148  36.980   2.697
49299W        W13023  18.283  39.983  12.523
49300W        W13024   2.271   7.379  13.990
49301W        W13025   3.784  23.009  10.457
49302W        W13026  22.637  28.980  11.601
49303W        W13027  24.206  27.151   2.803
49304W        W13028  27.646  37.088   1.410
49305W        W13029   5.232   3.886   2.866
49306W        W13030   1.378  10.849   3.717
49307W        W13031  22.681  33.570  13.059
49308W        W13032   4.270  29.591  14.762
49309W        W13033  42.873  17.576  12.498
49310W        W13034  42.325  22.079  13.882
49311W        W13035  29.985  29.078   3.701
49312W        W13036   5.272  15.280  14.863
49313W        W13037  18.137  11.181  11.090
49314W        W13038  39.422   2.325   2.735
49315W        W13039  10.288  27.650   2.219
49316W        W13040  19.744   4.749  14.371
49317W        W13041  39.838  38.915   1.739
49318W        W13042  11.751   7.390   2.400
49319W        W13043  20.736  39.936  14.931
49320W        W13044  11.866   5.715   2.885
49321W        W13045  11.719   1.451  14.482
49322W        W13046  41.310  33.405  13.517
49323W        W13047  37.389  44.917  11.129
49324W        W13048   7.891  44.868  13.438
49325W        W13049  33.512  17.617  14.288
49326W        W13050  24.605   9.872  12.541
49327W        W13051  24.691   4.437  10.448
49328W        W13052  43.343  37.831  12.346
49329W        W13053  39.048  29.461  10.153
49330W        W13054  11.784  29.550  12.384
49331W        W13055   9.870  15.124   2.787
49332W        W13056  21.667  36.037  13.454
49333W        W13057  18.651  31.543   2.726
49334W        W13058  42.425   0.318  11.080
49335W        W13059  31.013   8.855   4.254
49336W        W13060   7.667  17.734   3.310
49337W        W13061  38.371  31.957   2.363
49338W        W13062  43.281  20.039   1.249
49339W        W13063  41.803  38.457   1.725
49340W        W13064  32.621  24.697   4.353
49341W        W13065   3.320   2.302   0.877
49342W        W13066   9.204  16.618   0.850
49343W        W13067  29.006   1.271   1.797
49344W        W13068  26.694  40.453  11.521
49345W        W13069  35.571  14.816   1.217
49346W        W13070  16.593  21.233  11.061
49347W        W13071  31.969  16.735   0.481
49348W        W13072  25.032  16.096   4.311
49349W        W13073  44.861   3.938  12.834
49350W        W13074   2.932  15.592  10.414
49351W        W13075  43.806  31.127  11.473
49352W        W13076  12.326  32.611  13.451
49353W        W13077  11.251   6.416   0.775
49354W        W13078  16.083   9.239   4.311
49355W        W13079  38.879  10.830  12.040
49356W        W13080  16.086  36.983   4.230
49357W        W13081  28.658  36.860  13.947
49358W        W13082   3.952   2.886  14.448
49359W        W13083   5.332  21.138  10.095
49360W        W13084  30.630  18.627   4.635
49361W        W13085  21.222  23.132  13.442
49362W        W13086  36.563  39.037  13.479
49363W        W13087  16.736   5.859   4.776
49364W        W13088   3.235   8.330  14.772
49365W        W13089  38.388  39.378  10.437
49366W        W13090   7.360  24.174  13.527
49367W        W13091  25.674  13.328  12.045
49368W        W13092  33.926  18.683   0.833
49369W        W13093  34.482   9.323   1.252
49370W        W13094  39.435  39.042  14.857
49371W        W13095  15.735  34.482   5.214
49372W        W13096  18.661  16.240   1.387
49373W        W13097  43.779  25.601   9.477
49374W        W13098  33.485  28.552  12.071
49375W        W13099   8.331   2.801   0.855
49376W        W13100  29.597  24.705   2.673
49377W        W13101   8.235  16.185   2.812
49378W        W13102  24.485   1.964   4.199
49379W        W13103  27.940  20.575  12.021
49380W        W13104  19.208   6.691   3.183
49381W        W13105   6.876  23.998   4.698
49382W        W13106  27.631  31.402  12.886
49383W        W13107   4.837  29.031  12.486
49384W        W13108  19.173   8.656   2.853
49385W        W13109  14.217  31.006  11.876
49386W        W13110  20.269   3.419   3.228
49387W        W13111  39.057  16.702   1.801
49388W        W13112  19.602  29.574   0.399
49389W        W13113  25.488   1.830  14.018
49390W        W13114  19.551  15.714   0.744
49391W        W13115  36.894  19.284   2.688
49392W        W13116   3.894   3.261  12.017
49393W        W13117  27.460   7.848   4.704
49394W        W13118  38.894   3.869   3.852
49395W        W13119  22.644  41.291  13.008
49396W        W13120  11.143  19.114   4.211
49397W        W13121  13.817  12.787   0.466
49398W        W13122  36.013  29.640  11.101
49399W        W13123  11.272  27.569   1.219
49400W        W13124  12.237   9.729  10.527
49401W        W13125   7.348  14.713   0.422
49402W        W13126  39.387  37.446   2.852
49403W        W13127   2.880   2.461  11.033
49404W        W13128  14.811  37.469  14.978
49405W        W13129   9.702  25.123   4.640
49406W        W13130  31.437  27.644   2.773
49407W        W13131  32.105  20.114   1.705
49408W        W13132  20.115  27.066   3.707
49409W        W13133  42.527  20.247  11.566
49410W        W13134  41.367  17.743   2.861
49411W        W13135  26.661  33.525   3.787
49412W        W13136  18.180  40.903  14.767
49413W        W13137  29.089  25.136  12.861
49414W        W13138  41.354  11.278   4.214
49415W        W13139  11.837  24.490  10.946
49416W        W13140   0.831  13.738  11.556
49417W        W13141   9.256  43.801   2.785
49418W        W13142  30.496  32.020   0.784
49419W        W13143  33.053  34.610   3.663
49420W        W13144   8.655  37.407  14.800
49421W        W13145  36.869  34.451   1.897
49422W        W13146  19.083  42.787  14.407
49423W        W13147   1.320  25.646  14.405
49424W        W13148  34.867   7.375  10.566
49425W        W13149  18.692  42.776  11.010
49426W        W13150  41.514  31.987  11.970
49427W        W13151  27.005  24.650  13.019
49428W        W13152  17.296  41.295   2.419
49429W        W13153  40.904  33.891   2.352
49430W        W13154  30.504  41.863  14.950
49431W        W13155  17.695  30.129  11.005
49432W        W13156  19.231  12.316  13.026
49433W        W13157  12.184  21.223  14.011
49434W        W13158   7.208  13.721  12.030
49435W        W13159  35.917   3.307   2.238
49436W        W13160  26.045  29.922  10.568
49437W        W13161  25.634  14.264  11.126
49438W        W13162  21.753  18.161   3.262
49439W        W13163   7.766  38.987  12.870
49440W        W13164  12.789  13.698  11.048
49441W        W13165  20.634   0.428  14.509
49442W        W13166  16.639  43.375  13.926
49443W        W13167  16.282  19.165   4.180
49444W        W13168  36.025  41.017  10.536
49445W        W13169   1.974  44.427   2.726
49446W        W13170   9.648  34.925  10.950
49447W        W13171  38.329  40.022   4.305
49448W        W13172  12.832  21.576   4.634
49449W        W13173  44.276  40.381  12.388
49450W        W13174   0.823  40.369  13.424
49451W        W13175   7.828  23.128  11.393
49452W        W13176  21.083  26.532  13.824
49453W        W13177  39.045  38.417  10.533
49454W        W13178  43.900  40.541  12.081
49455W        W13179  11.771   9.711   0.253
49456W        W13180  22.644  25.685  11.470
49457W        W13181   8.374  14.717  11.432
49458W        W13182  20.050  28.957   3.752
49459W        W13183  16.105  24.021  12.958
49460W        W13184  31.075  33.032  11.006
49461W        W13185  14.661  35.366  14.369
49462W        W13186  13.726  29.654  14.397
49463W        W13187  26.668  35.425   0.767
49464W        W13188  22.137  15.793  14.302
49465W        W13189  12.310  40.930  10.951
49466W        W13190  38.520  18.140  12.938
49467W        W13191  30.947  17.631  12.988
49468W        W13192  33.913  29.620   2.278
49469W        W13193  30.961  13.195   2.387
49470W        W13194  18.252   3.228   1.437
49471W        W13195  38.020  23.196  13.330
49472W        W13196  21.125  21.583   2.329
49473W        W13197  31.574  25.199   4.698
49474W        W13198  21.228  28.562   1.228
49475W        W13199  39.977  27.955   4.275
49476W        W13200  22.681  23.199   3.832
49477W        W13201  18.701  35.106   3.698
49478W        W13202   3.788  35.539  13.806
49479W        W13203  35.382  10.343   2.726
49480W        W13204  32.428  11.808  14.846
49481W        W13205  11.279  33.892  11.087
49482W        W13206  17.734  27.673   1.265
49483W        W13207  37.553  26.193  12.408
49484W        W13208  30.597  40.935  12.417
49485W        W13209  38.417  32.513  14.966
49486W        W13210  30.471  40.445  10.454
49487W        W13211  10.840  37.409   2.226
49488W        W13212  42.473  30.522  14.003
49489W        W13213  15.738  39.341   0.954
49490W        W13214  44.331  43.426  12.419
49491W        W13215   5.396  37.368   1.809
49492W        W13216  15.258  28.070   2.329
49493W        W13217  32.009  10.170  13.047
49494W        W13218  24.508  33.078   3.795
49495W        W13219  18.721  26.093  11.568
49496W        W13220   1.828  31.458  14.350
49497W        W13221  33.385  12.795   9.508
49498W        W13222   3.753  37.968   3.706
49499W        W13223   3.347  37.948  12.452
49500W        W13224  12.617   9.834   1.335
49501W        W13225  13.645  41.024   0.835
49502W        W13226  16.177  40.336  14.798
49503W        W13227  30.629  21.625   2.731
49504W        W13228  14.228   3.741  14.358
49505W        W13229  15.796  21.210   5.172
49506W        W13230   4.894  25.591   2.797
49507W        W13231   5.820   0.930   0.357
49508W        W13232  38.356  34.891   3.790
49509W        W13233   0.765  25.179  11.016
49510W        W13234  22.580  38.992  13.463
49511W        W13235  42.367  15.743   1.820
49512W        W13236  32.602  42.826   4.188
49513W        W13237  35.544  26.555  11.377
49514W        W13238   1.448  34.977   2.707
49515W        W13239  15.734  30.091  12.420
49516W        W13240   6.765  27.536   0.396
49517W        W13241   0.355  37.988  13.935
49518W        W13242  28.629  12.283   0.796
49519W        W13243  27.482  14.625   2.383
49520W        W13244  18.770  18.213  10.029
49521W        W13245  37.565  17.103  11.993
49522W        W13246  25.964  16.102   1.438
49523W        W13247  31.902  14.632   2.404
49524W        W13248  42.789  25.070   1.746
49525W        W13249  31.976  36.466   1.837
49526W        W13250  42.393  21.180   4.229
49527W        W13251   0.957  12.360   3.367
49528W        W13252  39.852   5.885   3.240
49529W        W13253   3.886  37.849  11.471
49530W        W13254  22.672  40.895   5.583
49531W        W13255  40.034   4.350   4.627
49532W        W13256  29.540  17.711  11.510
49533W        W13257  25.003  43.899  13.030
49534W        W13258  42.304   8.793  13.855
49535W        W13259  19.623   8.706  11.378
49536W        W13260  36.555  27.448   3.216
49537W        W13261  39.928  16.111   1.792
49538W        W13262  43.777  19.727  10.438
49539W        W13263  42.480  34.405  12.045
49540W        W13264  23.571  12.823   3.361
49541W        W13265   3.720  40.861  13.052
49542W        W13266  41.879  17.062   0.741
49543W        W13267  29.428  18.755   2.663
49544W        W13268  36.070  36.346  14.841
49545W        W13269   1.292  19.780  11.858
49546W        W13270  13.730  24.559  13.429
49547W        W13271  44.911  23.220  12.948
49548W        W13272   7.326  25.664   4.626
49549W        W13273  39.343  24.676   2.676
49550W        W13274   2.451  30.062   3.630
49551W        W13275  24.564  24.102   1.377
49552W        W13276   3.335  17.609  10.932
49553W        W13277  26.613  11.168  10.554
49554W        W13278  17.063  23.018  10.531
49555W        W13279  33.532  19.095  12.900
49556W        W13280  33.990  40.052   0.261
49557W        W13281  37.356   3.806   1.922
49558W        W13282  30.653  15.189   1.415
49559W        W13283  23.709  43.993  14.841
49560W        W13284  42.420  43.414  14.800
49561W        W13285  31.643   8.760   3.737
49562W        W13286  25.984  10.825   2.761
49563W        W13287  18.600   9.276  12.908
49564W        W13288  25.621  24.722  10.922
49565W        W13289  18.580  31.079  14.903
49566W        W13290  28.059  33.938  10.600
49567W        W13291  42.500  21.145   0.908
49568W        W13292  15.290   4.886  13.313
49569W        W13293  20.162   6.750  13.867
49570W        W13294   3.726  44.385   2.738
49571W        W13295   8.355  43.997   0.940
49572W        W13296  34.874  16.271   2.899
49573W        W13297  27.596  32.948  13.548
49574W        W13298  39.472  12.265   0.463
49575W        W13299  32.096  13.272   3.657
49576W        W13300   0.786  43.317  13.872
49577W        W13301  38.506  24.586  10.083
49578W        W13302  26.086   1.410   3.192
49579W        W13303   5.438  25.046   0.478
49580W        W13304  29.011   6.792  13.373
49581W        W13305  29.153  39.512  10.475
49582W        W13306  14.333  31.534   4.328
49583W        W13307  35.985  13.159  10.509
49584W        W13308  18.675  43.803   2.411
49585W        W13309  29.434  26.964   4.298
49586W        W13310  34.387  38.961  13.377
49587W        W13311  43.931  28.163  14.512
49588W        W13312  38.354  29.152   3.176
49589W        W13313  12.716  42.898   4.137
49590W        W13314  11.193  23.213  12.957
49591W        W13315   5.754  17.727  13.902
49592W        W13316   0.319  27.153  11.478
49593W        W13317  20.559  37.562   3.322
49594W        W13318  27.940  10.141   3.313
49595W        W13319  34.043   1.260   1.827
49596W        W13320   1.410  29.968  14.355
49597W        W13321  26.960  23.171  12.898
49598W        W13322  38.475  17.077  12.959
49599W        W13323  23.520  13.701   2.292
49600W        W13324  12.694  17.749   2.226
49601W        W13325  38.443  18.675  12.377
49602W        W13326   6.742  44.374   4.351
49603W        W13327   0.396  44.850  14.515
49604W        W13328  36.526  32.489   4.278
49605W        W13329   0.841  37.447   2.361
49606W        W13330  31.641  22.557  13.031
49607W        W13331  27.516  35.371  13.427
49608W        W13332  32.625  13.648   3.264
49609W        W13333  34.615  21.116   1.435
49610W        W13334  23.070  28.078   3.183
49611W        W13335  16.084   8.206   4.809
49612W        W13336  23.617  15.652  11.896
49613W        W13337   0.295  41.484   0.813
49614W        W13338   7.827   0.871   4.810
49615W        W13339  25.712   3.940   0.934
49616W        W13340  36.842  11.216   4.648
49617W        W13341  41.945  43.346   1.271
49618W        W13342   1.855  12.248  13.514
49619W        W13343  26.025  36.588  14.010
49620W        W13344  21.560  35.931  14.359
49621W        W13345  16.810  34.537  11.893
49622W        W13346  22.209  40.915   3.272
49623W        W13347  37.361  37.392   2.256
49624W        W13348  42.985   3.813  11.395
49625W        W13349  38.998   5.800  10.003
49626W        W13350  17.168   1.798   1.767
49627W        W13351  30.635   4.259   0.757
49628W        W13352  26.509  17.772   1.436
49629W        W13353  15.744   3.843   3.245
49630W        W13354   8.375   5.251   4.655
49631W        W13355  41.461  29.149   4.760
49632W        W13356   2.340  39.884   3.697
49633W        W13357  36.513  33.582   0.830
49634W        W13358  18.647  24.592   2.816
49635W        W13359  23.657  31.556   1.219
49636W        W13360  29.032   3.920   3.226
49637W        W13361  37.570  21.725  14.915
49638W        W13362  33.581  42.917  11.428
49639W        W13363  31.616   7.766   4.291
49640W        W13364  23.689  32.457   2.848
49641W        W13365  22.168  11.858  14.008
49642W        W13366  10.694  29.072  11.981
49643W        W13367  40.802  34.910  12.387
49644W        W13368  23.216  10.745   0.312
49645W        W13369  17.765  25.083   1.748
49646W        W13370  43.382  26.985  12.359
49647W        W13371   5.243   5.365  13.857
49648W        W13372  30.572  13.296  12.392
49649W        W13373  20.561  41.885  12.086
49650W        W13374   9.252   7.708   1.287
49651W        W13375  34.568  31.570  13.009
49652W        W13376  42.010  17.208  12.856
49653W        W13377  38.568  17.069   2.294
49654W        W13378  25.129  30.553   0.312
49655W        W13379  29.541   3.352  10.024
49656W        W13380  15.270  44.811   4.683
49657W        W13381  21.127   3.232  14.956
49658W        W13382   1.956   5.246  13.825
49659W        W13383  16.304  25.690   1.912
49660W        W13384   4.857  36.960   4.118
49661W        W13385   9.171  30.531  10.082
49662W        W13386  31.929  41.386  13.424
49663W        W13387  35.487  11.631  13.060
49664W        W13388  39.530  19.139  14.313
49665W        W13389  43.888  15.273   3.191
49666W        W13390  26.532  11.770   0.438
49667W        W13391  14.785  26.980  12.898
49668W        W13392  11.233  10.791  11.540
49669W        W13393  28.633  19.696  13.385
49670W        W13394  15.296  18.149  10.951
49671W        W13395  15.264   8.267   0.744
49672W        W13396  12.712   5.231   2.289
49673W        W13397  28.158  11.704   4.678
49674W        W13398  42.298  11.207   1.368
49675W        W13399  16.091  29.632  12.029
49676W        W13400  13.729   1.387  13.891
49677W        W13401  31.148  18.261  13.058
49678W        W13402  38.436   5.387   3.348
49679W        W13403  43.952  28.523   3.357
49680W        W13404   8.159  33.513  12.903
49681W        W13405   7.289  20.139   0.483
49682W        W13406   9.787   4.863   9.958
49683W        W13407  44.352   4.287   4.313
49684W        W13408   5.370  19.112   0.276
49685W        W13409  37.990  16.287  12.897
49686W        W13410  17.077  10.665   3.324
49687W        W13411  11.817  13.285  13.479
49688W        W13412  20.714  40.958   2.804
49689W        W13413   1.752  27.161  10.574
49690W        W13414  31.474  14.658   1.875
49691W        W13415   7.678  28.095  12.455
49692W        W13416  37.866  29.586   0.782
49693W        W13417  11.305  15.199  13.336
49694W        W13418  41.512  14.277   4.640
49695W        W13419   9.309  21.617  12.051
49696W        W13420   6.233  11.359  14.421
49697W        W13421  27.974  17.159  13.048
49698W        W13422  40.391   6.903  13.816
49699W        W13423  41.858  25.587   1.796
49700W        W13424  37.406  23.150   3.836
49701W        W13425  30.516  30.114   0.479
49702W        W13426  23.037  21.646   1.811
49703W        W13427   9.722  26.125   0.801
49704W        W13428   1.385  39.546   1.707
49705W        W13429  32.505  10.291   0.746
49706W        W13430  23.082   1.859  14.793
49707W        W13431  36.960   2.463   3.210
49708W        W13432   4.761  27.134  11.399
49709W        W13433   1.837  33.100  12.970
49710W        W13434  41.484  29.523  11.013
49711W        W13435   4.706  24.560  14.285
49712W        W13436  35.043  13.670  12.561
49713W        W13437  24.647   5.224  12.925
49714W        W13438  20.550  30.161   1.318
49715W        W13439  30.551  32.982  13.456
49716W        W13440  39.333  24.593  13.478
49717W        W13441  36.359  10.369   1.872
49718W        W13442  39.013   2.277   0.302
49719W        W13443  42.520   7.405  11.001
49720W        W13444  20.610  44.907   4.781
49721W        W13445  20.627   2.375  11.479
49722W        W13446  33.937  12.360  11.373
49723W        W13447  28.953  25.632  12.904
49724W        W13448  43.271  25.081  11.866
49725W        W13449  32.496   0.929   0.870
49726W        W13450  10.821  30.053  11.488
49727W        W13451  43.278   3.319   2.399
49728W        W13452  13.316  16.645  11.006
49729W        W13453  43.978  20.585   4.301
49730W        W13454  44.946  38.454   0.421
49731W        W13455   5.234   3.779  10.505
49732W        W13456  40.861  34.014   9.528
49733W        W13457   9.877  33.456  12.065
49734W        W13458  39.975  37.878   4.806
49735W        W13459  19.700  34.441   2.267
49736W        W13460   3.947  11.236   0.346
49737W        W13461  13.226  26.533   1.272
49738W        W13462  38.996   7.386  12.876
49739W        W13463  28.510  17.737   3.287
49740W        W13464   9.853  20.749   0.474
49741W        W13465   8.891   7.332   3.254
49742W        W13466  32.487  36.869   2.880
49743W        W13467  39.553  42.431  14.325
49744W        W13468  29.035   7.244  11.557
49745W        W13469  38.948  10.333   1.353
49746W        W13470  43.799  33.998  10.024
49747W        W13471   9.387  37.507  11.873
49748W        W13472  18.745   6.269  13.963
49749W        W13473  19.110  14.617  14.005
49750W        W13474   3.922  27.562   3.811
49751W        W13475  36.981  16.247   4.285
49752W        W13476  43.439  38.352  11.086
49753W        W13477  14.117   4.940  13.025
49754W        W13478  21.192  13.800  12.444
49755W        W13479  19.108  22.557   3.160
49756W        W13480  12.641   6.875   4.204
49757W        W13481  16.692  28.459  12.953
49758W        W13482  41.835  11.318   0.357
49759W        W13483  40.494   7.405   5.241
49760W        W13484  20.664  40.912   1.829
49761W        W13485   4.255   3.843  12.853
49762W        W13486  40.387  10.795  10.949
49763W        W13487  40.418   8.755  10.032
49764W        W13488   5.798  18.295   0.776
49765W        W13489  43.359  38.539  14.503
49766W        W13490  42.461   7.401  13.921
49767W        W13491  42.358  22.733  14.411
49768W        W13492  12.782   7.201  14.472
49769W        W13493  20.525  40.993  12.871
49770W        W13494  42.313  35.442   3.337
49771W        W13495  33.912  21.193  14.459
49772W        W13496  19.541  17.755  11.545
49773W        W13497   7.211  15.172   2.840
49774W        W13498  26.085   3.318  13.315
49775W        W13499  34.913  42.445   0.380
49776W        W13500   1.969  44.830  14.960
49777W        W13501  35.393  41.830   3.366
49778W        W13502   7.416  21.536   4.213
49779W        W13503  36.934   8.271   1.288
49780W        W13504  21.134  27.553   3.327
49781W        W13505   3.248  32.544  12.925
49782W        W13506  44.982  36.388   9.651
49783W        W13507  28.943  25.078  11.927
49784W        W13508  22.566  34.460  12.350
49785W        W13509  42.896  22.106  11.065
49786W        W13510   9.677   7.875   2.204
49787W        W13511  11.146  10.830  10.503
49788W        W13512   5.794   2.935   4.823
49789W        W13513  15.765  28.613   1.252
49790W        W13514  15.251  23.614   0.348
49791W        W13515   9.359  26.462  10.560
49792W        W13516  37.563   2.874   0.909
49793W        W13517   1.482  16.149  11.113
49794W        W13518   4.287  31.150   2.816
49795W        W13519  13.279   5.811   1.350
49796W        W13520  44.369  18.210  13.352
49797W        W13521  44.367  24.684  10.587
49798W        W13522  13.834  24.605   3.189
49799W        W13523   9.226  16.185   4.753
49800W        W13524  10.344  40.884   0.833
49801W        W13525   5.878  39.494  11.462
49802W        W13526   1.247  15.188  12.062
49803W        W13527   7.202  33.106   3.764
49804W        W13528  24.196  15.671   4.159
49805W        W13529  38.899  22.597  10.156
49806W        W13530   3.316  30.947   3.766
49807W        W13531  30.056   8.327  13.827
49808W        W13532   7.888  16.088   1.795
49809W        W13533  30.043  28.610  14.782
49810W        W13534   3.948  35.008   1.721
49811W        W13535  33.427  32.054  11.599
49812W        W13536   6.897  14.764   4.620
49813W        W13537  24.069  29.109  14.929
49814W        W13538  17.636  36.059   4.288
49815W        W13539  21.726  41.310  11.110
49816W        W13540  19.723  31.968   1.882
49817W        W13541  31.472   5.350   0.365
49818W        W13542  28.579  30.987  10.973
49819W        W13543  34.119  42.317  13.317
49820W        W13544  18.164  16.123   1.871
49821W        W13545  15.139  32.885  10.558
49822W        W13546  23.564   8.244  11.026
49823W        W13547  14.154   8.806   4.178
49824W        W13548  33.916   4.246  12.965
49825W        W13549   3.223  38.828   1.249
49826W        W13550   9.358   2.399   1.347
49827W        W13551  29.104  41.456   2.876
49828W        W13552  28.579  21.239  12.910
49829W        W13553  20.128  42.908  12.432
49830W        W13554  43.316  41.447  12.989
49831W        W13555  44.979   1.741  13.053
49832W        W13556   8.400  22.726   0.361
49833W        W13557  17.268  19.566   5.143
49834W        W13558   2.873   9.667   0.843
49835W        W13559  29.919  13.254   1.397
49836W        W13560  22.671  24.503   2.678
49837W        W13561   2.326  41.365   1.756
49838W        W13562  24.057  10.783  12.038
49839W        W13563  19.106  24.171   4.752
49840W        W13564  19.105  32.555   3.839
49841W        W13565  30.929  27.963   3.766
49842W        W13566  31.055   4.846  11.076
49843W        W13567  12.231  35.573  13.427
49844W        W13568  26.541  17.286   1.382
49845W        W13569  27.976  31.015   2.750
49846W        W13570  20.559  35.088   1.787
49847W        W13571  43.380   7.797   1.402
49848W        W13572  27.459  37.037   0.907
49849W        W13573   7.788  19.047   0.452
49850W        W13574  33.038  37.419   2.251
49851W        W13575  43.997  32.932   1.238
49852W        W13576   5.292  33.414  13.898
49853W        W13577  44.792  35.534   0.387
49854W        W13578   3.393   1.864   2.824
49855W        W13579  42.283  25.963   4.704
49856W        W13580  21.704  19.620   1.778
49857W        W13581   9.254  26.690   2.877
49858W        W13582   0.491  31.124  11.074
49859W        W13583  30.940  32.613  13.500
49860W        W13584  32.093  24.177  13.474
49861W        W13585  23.010   9.353  10.614
49862W        W13586  23.155  11.332  12.410
49863W        W13587  37.440  22.622  11.097
49864W        W13588   4.837   0.437   2.300
49865W        W13589  36.947  21.568   2.832
49866W        W13590  15.222  36.459  11.545
49867W        W13591  37.832  18.237  13.919
49868W        W13592  38.054  23.156  12.549
49869W        W13593  17.305  44.930  10.428
49870W        W13594   5.766  28.446  13.843
49871W        W13595  31.626  27.991  13.961
49872W        W13596  35.074  39.014  10.013
49873W        W13597  24.517  33.590  13.448
49874W        W13598  39.867  41.830   2.226
49875W        W13599  28.553  15.148  14.353
49876W        W13600  17.226  23.040   4.171
49877W        W13601   6.371  29.486  12.528
49878W        W13602  24.541  31.564   1.858
49879W        W13603  22.032  22.711  12.546
49880W        W13604  31.134   5.218   3.730
49881W        W13605  31.929  41.474  12.552
49882W        W13606  28.447  41.483   1.276
49883W        W13607  38.871  42.283  14.004
49884W        W13608   4.795  37.878  11.397
49885W        W13609   0.436  28.575  10.580
49886W        W13610  36.024   6.332  11.612
49887W        W13611   5.365   5.296  14.985
49888W        W13612  44.367   1.969  14.783
49889W        W13613   7.685  32.621   0.305
49890W        W13614  43.338  25.006   2.181
49891W        W13615  17.200  38.939   3.335
49892W        W13616  32.476  23.142   0.266
49893W        W13617  43.832   9.185  14.381
49894W        W13618  37.447   0.975  14.860
49895W        W13619  24.059  15.617  14.792
49896W        W13620   3.460  32.143  14.967
49897W        W13621   7.686  27.585  14.815
49898W        W13622  36.088   5.319  13.452
49899W        W13623   4.435  12.773  14.940
49900W        W13624  19.215  35.943   2.414
49901W        W13625  27.530   3.367   4.313
49902W        W13626  40.317  17.702  10.993
49903W        W13627  24.492   0.490   4.236
49904W        W13628  12.681  43.470   0.952
49905W        W13629   2.788  34.415  11.605
49906W        W13630   3.725   3.290  14.904
49907W        W13631  33.548  29.985   3.235
49908W        W13632  40.886   6.704   2.787
49909W        W13633  17.227  26.616  11.128
49910W        W13634  22.176  16.675  14.503
49911W        W13635  25.595  22.564   2.340
49912W        W13636  23.240  12.667   0.804
49913W        W13637   9.367  14.735   2.869
49914W        W13638  42.504  15.166  10.449
49915W        W13639  30.106  37.897   0.862
49916W        W13640  11.685  39.039   1.834
49917W        W13641   5.706  29.923   2.252
49918W        W13642   9.666  35.464  12.027
49919W        W13643  12.813  22.168   2.419
49920W        W13644   4.750  11.701  10.463
49921W        W13645  34.549  44.447   4.177
49922W        W13646  36.953  37.046   1.378
49923W        W13647  19.144  14.280  10.444
49924W        W13648  10.338  35.518  11.951
49925W        W13649  22.229   0.904  11.957
49926W        W13650  17.139   0.459   3.237
49927W        W13651  23.580  17.305   3.216
49928W        W13652  17.789   8.279  11.957
49929W        W13653  27.129  28.162  14.344
49930W        W13654  25.587  31.961  12.563
49931W        W13655  29.125  11.750   4.739
49932W        W13656  10.367  30.948   1.862
49933W        W13657  11.859  21.665  12.487
49934W        W13658  12.620  24.636  12.876
49935W        W13659  24.573   0.867   1.390
49936W        W13660  23.026   8.258  13.019
49937W        W13661  33.095  35.902   4.710
49938W        W13662  17.634  32.122   5.125
49939W        W13663  28.651  18.073   1.890
49940W        W13664  39.382  43.836   3.356
49941W        W13665  29.097  13.138   3.339
49942W        W13666  27.181  30.528   4.674
49943W        W13667  39.907  15.200   1.378
49944W        W13668  28.956  12.833   0.736
49945W        W13669  22.121  37.524   0.888
49946W        W13670  44.933  14.292  14.926
49947W        W13671  38.901  29.477  10.988
49948W        W13672  27.163   5.705  14.404
49949W        W13673  38.030  16.793   4.669
49950W        W13674   2.236  29.659  13.866
49951W        W13675  19.546  34.562   4.266
49952W        W13676  36.363  43.508  10.575
49953W        W13677  29.922  34.950   2.757
49954W        W13678  38.898  43.988   5.094
49955W        W13679  27.511   5.772   0.302
49956W        W13680  23.008   6.885   4.224
49957W        W13681  21.513  40.320  12.971
49958W        W13682  14.667  24.193   4.160
49959W        W13683  37.402  16.785   4.257
49960W        W13684  43.486  41.934  14.792
49961W        W13685  42.520  39.903  13.504
49962W        W13686  35.019  23.718  14.768
49963W        W13687  37.510   8.725   2.760
49964W        W13688  11.320  14.726   0.801
49965W        W13689  39.002  34.087   2.720
49966W        W13690  40.825  19.640   0.758
49967W        W13691   7.807  28.035   0.243
49968W        W13692  11.339  15.133   3.362
49969W        W13693  15.768  32.487  13.309
49970W        W13694  10.729   4.374  12.561
49971W        W13695  18.148  41.314   1.388
49972W        W13696  26.544  21.692   0.404
49973W        W13697  34.437  17.633   0.429
49974W        W13698  11.133  22.589   2.350
49975W        W13699  20.767   0.419   4.259
49976W        W13700   6.203  25.569   0.757
49977W        W13701  42.485  11.363  10.465
49978W        W13702   7.897  21.148   4.834
49979W        W13703  24.165   8.797  14.921
49980W        W13704  44.295  29.976  11.539
49981W        W13705  41.985  12.704  10.618
49982W        W13706  29.116  36.941   4.774
49983W        W13707  41.814   4.278   1.877
49984W        W13708  25.103  11.316  11.122
49985W        W13709  34.424  33.436   4.657
49986W        W13710  38.986  20.609  14.829
49987W        W13711  42.012  38.391   5.214
49988W        W13712  10.843  31.078   1.738
49989W        W13713  41.037  38.523   4.689
49990W        W13714   1.239  35.879  11.023
49991W        W13715   2.303  37.880  10.403
49992W        W13716  19.716  25.585  11.402
49993W        W13717  14.600  32.474  12.399
49994W        W13718   7.389  12.688  14.013
49995W        W13719  19.698   6.902  11.081
49996W        W13720  14.177  44.356   2.407
49997W        W13721  37.477  17.213   3.153
49998W        W13722  41.865  16.201  14.808
49999W        W13723  24.133  20.080  11.097
50000W        W13724  43.416  36.097  11.114
50001W        W13725  24.564  36.561   3.189
50002W        W13726  35.917  23.582   1.834
50003W        W13727   3.946  22.046   2.862
50004W        W13728  31.455  28.096  12.552
50005W        W13729  21.673  15.703   1.715
50006W        W13730  40.023  39.928   0.464
50007W        W13731   6.900  11.180  14.854
50008W        W13732  24.212  27.503   1.219
50009W        W13733   1.455  17.764  13.544
50010W        W13734  39.924  41.881  12.000
50011W        W13735  42.977  39.905  11.504
50012W        W13736  36.925  30.460  12.500
50013W        W13737  12.645   3.438   5.320
50014W        W13738  18.599  18.648  13.344
50015W        W13739  18.779  33.948  11.008
50016W        W13740  33.449  40.840   0.373
50017W        W13741  27.643   8.676   2.188
50018W        W13742  40.353  17.170  14.357
50019W        W13743  33.623   4.710   4.632
50020W        W13744  30.970  21.086   0.399
50021W        W13745   1.757  12.618  13.530
50022W        W13746  11.839  10.718  13.389
50023W        W13747  44.465  22.570   4.238
50024W        W13748  40.311  27.466   4.700
50025W        W13749  10.363   7.387   3.232
50026W        W13750   7.704   3.879  10.441
50027W        W13751  33.025   6.888   0.422
50028W        W13752  42.331  21.552  10.604
50029W        W13753  25.602  42.953   1.860
50030W        W13754  31.555  14.104   9.474
50031W        W13755  36.442  15.701  14.449
50032W        W13756  14.243  35.566   0.252
50033W        W13757  12.826  37.522   0.906
50034W        W13758  12.845  11.755   2.304
50035W        W13759   3.747  10.752  13.796
50036W        W13760  32.973  33.482   1.241
50037W        W13761  23.710  39.343  11.966
50038W        W13762  28.050   3.319  10.975
50039W        W13763   1.976   1.397  13.394
50040W        W13764   1.927   8.759  13.366
50041W        W13765  10.697  27.560   1.392
50042W        W13766  14.335  17.594   3.643
50043W        W13767  34.471  25.468  10.485
50044W        W13768  20.756  12.626   0.869
50045W        W13769  35.018  31.916  11.897
50046W        W13770  13.321  13.228  11.454
50047W        W13771  22.079   3.823   2.690
50048W        W13772  31.017  35.565  14.019
50049W        W13773   9.167  22.152  13.483
50050W        W13774  13.649  13.816  14.008
50051W        W13775   2.840  28.513  13.001
50052W        W13776  44.293   4.770   3.683
50053W        W13777   9.671  43.809  11.105
50054W        W13778  21.641  21.092  11.387
50055W        W13779  21.122  32.960  10.980
50056W        W13780  17.061  29.125   1.744
50057W        W13781   3.420  11.631   2.262
50058W        W13782  10.321   5.313  13.362
50059W        W13783  33.391  27.080  10.999
50060W        W13784   8.374  11.372  14.837
50061W        W13785  14.255   6.279  12.370
50062W        W13786  35.078   3.426  13.320
50063W        W13787  25.017  38.888   2.744
50064W        W13788  15.230  10.378  10.480
50065W        W13789  26.534  35.478  10.526
50066W        W13790  28.462  24.112   0.871
50067W        W13791  18.155  10.654   3.859
50068W        W13792  15.789  15.580   1.395
50069W        W13793  30.439  25.689  13.965
50070W        W13794  31.140  37.491   1.813
50071W        W13795   8.730  19.688  14.940
50072W        W13796  18.658  29.613   0.401
50073W        W13797  16.667  22.150   2.189
50074W        W13798   1.303  32.529   1.238
50075W        W13799  24.136  13.760  11.031
50076W        W13800  40.824  10.702  10.505
50077W        W13801   8.369  12.695   3.859
50078W        W13802  40.347  25.531  10.927
50079W        W13803  12.736  41.999  12.940
50080W        W13804  31.542   7.395  13.334
50081W        W13805  41.499  14.720  14.839
50082W        W13806  23.579   1.868  11.498
50083W        W13807  23.196   0.481  11.052
50084W        W13808   1.773  32.936   2.410
50085W        W13809  10.326   0.293  12.941
50086W        W13810  21.544  25.036  14.800
50087W        W13811  25.645  22.729  10.415
50088W        W13812   2.860  15.686   4.243
50089W        W13813  14.199  38.005   3.233
50090W        W13814  29.081  21.667   0.875
50091W        W13815  15.696   8.859   1.825
50092W        W13816  33.523  13.771  14.890
50093W        W13817  12.181  22.740  13.469
50094W        W13818  30.091  30.067   3.849
50095W        W13819  36.572  13.634   2.742
50096W        W13820  23.645  33.064   1.713
50097W        W13821  13.203  22.540  14.977
50098W        W13822  38.564   8.698   0.842
50099W        W13823  39.041  18.569  12.032
50100W        W13824  35.416  33.473   2.214
50101W        W13825  24.672  27.522   5.700
50102W        W13826  11.194   4.878  13.444
50103W        W13827   3.783  17.795   1.916
50104W        W13828  13.748   1.738   1.218
50105W        W13829   3.401  16.647  10.042
50106W        W13830  39.973  11.636   2.343
50107W        W13831  19.587  24.167   2.756
50108W        W13832  26.054  24.132  14.408
50109W        W13833   8.813  21.039   3.153
50110W        W13834  42.785  23.046  13.856
50111W        W13835   5.797   6.200   3.645
50112W        W13836  21.592   5.756  11.083
50113W        W13837  25.633  32.950  12.961
50114W        W13838   3.330  12.795  13.469
50115W        W13839  41.491  44.869  13.847
50116W        W13840  41.790   1.965  10.896
50117W        W13841  35.424  44.437  14.031
50118W        W13842   0.442  39.996  10.982
50119W        W13843  44.959  32.526   4.168
50120W        W13844   1.241  32.067   2.770
50121W        W13845   9.311  18.230  12.023
50122W        W13846  32.535  25.209   4.640
50123W        W13847  39.390  32.093   3.858
50124W        W13848  43.012  11.860   5.293
50125W        W13849  22.662  42.895   3.263
50126W        W13850  18.251  34.910  13.912
50127W        W13851   0.800  24.134  11.125
50128W        W13852  23.030  29.540  14.511
50129W        W13853  23.715   0.310  13.358
50130W        W13854   2.876   4.397  11.896
50131W        W13855  16.579  24.599   2.335
50132W        W13856  41.894   8.288  10.905
50133W        W13857  18.679  42.386  10.463
50134W        W13858  20.528  40.530   3.790
50135W        W13859  33.514  10.143   1.215
50136W        W13860  11.253  16.177  11.928
50137W        W13861  12.236  15.169  11.935
50138W        W13862  28.611  44.905   0.880
50139W        W13863  42.304   5.768  12.537
50140W        W13864  21.126  21.653   3.192
50141W        W13865  20.576  19.131  13.831
50142W        W13866   4.302   0.352  12.539
50143W        W13867   2.879  44.441   3.709
50144W        W13868  21.083  25.106  13.880
50145W        W13869  44.902  37.356  10.084
50146W        W13870  37.405  36.090   0.812
50147W        W13871  44.811  18.547   4.599
50148W        W13872  15.679  24.089  11.987
50149W        W13873  31.459  36.513  11.030
50150W        W13874  32.993  23.707   4.612
50151W        W13875  35.929  36.555   1.782
50152W        W13876  26.013   1.416  13.355
50153W        W13877   5.349   2.293   3.706
50154W        W13878  11.210  28.436   4.703
50155W        W13879  20.640  35.560  10.945
50156W        W13880  33.600  14.107   2.853
50157W        W13881  19.537  10.823  11.071
50158W        W13882  10.291  23.226  11.023
50159W        W13883   5.689  10.726  10.426
50160W        W13884  43.360  19.613  10.066
50161W        W13885  31.588  43.494  10.934
50162W        W13886  40.826  27.189   0.934
50163W        W13887  31.427  27.053  11.113
50164W        W13888   6.257  10.789  13.976
50165W        W13889  41.030  19.771  14.344
50166W        W13890  21.647  26.523   4.723
50167W        W13891   4.296  18.282   3.778
50168W        W13892  26.701  44.928  14.377
50169W        W13893  15.781   4.211   2.345
50170W        W13894  40.921  23.500  10.576
50171W        W13895  21.639  12.719  14.437
50172W        W13896  36.419  17.124  12.063
50173W        W13897  18.620  20.104   2.854
50174W        W13898   3.271  12.336   0.927
50175W        W13899   8.359  29.570  13.820
50176W        W13900  19.069  34.408   3.160
50177W        W13901   2.466  14.320  10.060
50178W        W13902   8.241  30.960  12.855
50179W        W13903   5.407  29.042   0.784
50180W        W13904  22.192  17.277   0.372
50181W        W13905  39.827  37.014  12.451
50182W        W13906  34.001  42.896   1.875
50183W        W13907  41.341  31.520  14.406
50184W        W13908  29.532  10.785  14.434
50185W        W13909  19.129   0.467  11.034
50186W        W13910   3.766  11.738   1.839
50187W        W13911   5.384  31.144  12.063
50188W        W13912  42.792  16.712   1.342
50189W        W13913  44.496  18.235   0.277
50190W        W13914  27.529  32.017   1.857
50191W        W13915  10.785  34.087   1.850
50192W        W13916  20.714  34.579   4.829
50193W        W13917  15.811  17.297  11.005
50194W        W13918  43.985  41.975   0.334
50195W        W13919  40.000   0.442   2.736
50196W        W13920  39.901  42.784  12.004
50197W        W13921  18.697  16.095   0.409
50198W        W13922  39.500  41.024   0.357
50199W        W13923   9.847  19.115  12.060
50200W        W13924  19.048  30.641  12.444
50201W        W13925  35.994  15.695  13.506
50202W        W13926  14.770   8.286   3.721
50203W        W13927  32.929  29.086   3.811
50204W        W13928  33.388  16.177  13.456
50205W        W13929  12.675  15.647   0.767
50206W        W13930  14.667  36.560  11.388
50207W        W13931   0.283  24.515   2.703
50208W        W13932   2.385  24.988   4.793
50209W        W13933  31.586  33.436  11.039
50210W        W13934  43.351  29.970   1.818
50211W        W13935   6.278  32.394   1.242
50212W        W13936  13.835  11.779  11.062
50213W        W13937  30.567  12.638  10.548
50214W        W13938  38.493  36.872   0.798
50215W        W13939  31.992  38.548  11.031
50216W        W13940  36.539  29.069  10.041
50217W        W13941   2.427   8.356  12.019
50218W        W13942  41.486  27.619  11.006
50219W        W13943  33.619  14.223  14.381
50220W        W13944  41.451  30.121   0.457
50221W        W13945  24.009  32.125   4.782
50222W        W13946  24.635  30.506  14.365
50223W        W13947  15.170  29.663  12.545
50224W        W13948  10.810  29.036   2.268
50225W        W13949  18.740   9.698  11.074
50226W        W13950  29.598  17.766   3.384
50227W        W13951   9.737  15.693  12.383
50228W        W13952  34.606  31.053   0.247
50229W        W13953  22.232  39.532  14.871
50230W        W13954   3.797  28.032  14.976
50231W        W13955  35.987   6.401  13.010
50232W        W13956  44.848  25.006   0.478
50233W        W13957  29.040   7.705   3.341
50234W        W13958  28.008  41.958   2.858
50235W        W13959  29.480  42.796   1.867
50236W        W13960   0.894  40.417   4.645
50237W        W13961   7.692  23.085  11.094
50238W        W13962  30.642  24.214  13.415
50239W        W13963  22.700   7.843   4.326
50240W        W13964  43.328  43.793  14.351
50241W        W13965  24.035  28.152   3.242
50242W        W13966  31.030   9.238  11.116
50243W        W13967   5.234  42.863   3.215
50244W        W13968  22.637   9.359   4.124
50245W        W13969  33.430  18.143   2.763
50246W        W13970  12.116  12.207   4.272
50247W        W13971  14.155  43.856  14.277
50248W        W13972  44.939  25.482   4.131
50249W        W13973  19.171  38.553   2.866
50250W        W13974   3.329  24.039  13.988
50251W        W13975  26.663  24.536   1.411
50252W        W13976  25.127  42.291   2.411
50253W        W13977  25.967  17.294   4.790
50254W        W13978  28.015  36.573  12.053
50255W        W13979  42.905  13.209   1.745
50256W        W13980  32.103  10.781   2.410
50257W        W13981  35.078  15.681   0.270
50258W        W13982  32.060  42.027  10.917
50259W        W13983  31.461  14.225   1.240
50260W        W13984  16.623  21.249   1.218
50261W        W13985  15.295  20.149   2.795
50262W        W13986   4.900  31.029  10.919
50263W        W13987  38.925   3.940   4.713
50264W        W13988  34.392   9.861  13.500
50265W        W13989  30.467  11.810   1.240
50266W        W13990   8.394  42.383  12.975
50267W        W13991  37.932  35.102  14.383
50268W        W13992   1.782  18.203   2.784
50269W        W13993  27.525  36.401   1.352
50270W        W13994   0.961  44.387   2.679
50271W        W13995  31.934  42.899   4.232
50272W        W13996   9.157  20.692   2.272
50273W        W13997  26.497  34.374  13.916
50274W        W13998  37.394   5.201  10.902
50275W        W13999  26.018  12.122   3.727
50276W        W14000  34.920  34.961  10.503
50277W        W14001  34.499  16.318   4.802
50278W        W14002  33.502  15.272   2.680
50279W        W14003  32.929  34.997  12.452
50280W        W14004  19.130  44.813  12.879
50281W        W14005  19.042  41.835  11.387
50282W        W14006  21.541  40.928   0.848
50283W        W14007  12.256  42.806  14.987
50284W        W14008  18.626  31.085   0.328
50285W        W14009  22.573  39.404  11.462
50286W        W14010   1.454   5.705  14.309
50287W        W14011  26.647  22.576   2.761
50288W        W14012  38.367   7.411   1.280
50289W        W14013  33.970  28.011  12.881
50290W        W14014   9.699  44.342   2.354
50291W        W14015  26.545   4.749  13.514
50292W        W14016  18.638  42.443  12.862
50293W        W14017  11.789  28.453  10.905
50294W        W14018  28.634  27.023  14.282
50295W        W14019  36.560   6.225  13.931
50296W        W14020   5.768  25.628   2.324
50297W        W14021  41.510  24.026  13.536
50298W        W14022  13.702  20.598  13.039
50299W        W14023  26.047  40.365   1.444
50300W        W14024  25.188   5.720   0.295
50301W        W14025  20.685  32.018   0.422
50302W        W14026  43.297   1.820  13.806
50303W        W14027  32.600  31.059  12.832
50304W        W14028  15.222   2.288  14.964
50305W        W14029  37.429  15.127  14.303
50306W        W14030  24.043  15.260   1.420
50307W        W14031  33.576   0.941  11.398
50308W        W14032  42.883  40.882   0.865
50309W        W14033  12.785  24.120   2.692
50310W        W14034  31.078  24.196  14.009
50311W        W14035   0.745  40.814  10.439
50312W        W14036  43.938  31.065  13.887
50313W        W14037   8.887  19.190  14.507
50314W        W14038  38.052   5.253   1.784
50315W        W14039  43.867  14.701   0.767
50316W        W14040  34.079  24.197  10.060
50317W        W14041  12.260  30.969  14.343
50318W        W14042   9.680  30.537  11.997
50319W        W14043  16.240   4.435  13.355
50320W        W14044  21.102   7.392   0.407
50321W        W14045  19.190  29.462  12.527
50322W        W14046  33.587  36.584   3.730
50323W        W14047  24.607  22.052   1.743
50324W        W14048  17.779  23.646   2.842
50325W        W14049  19.050   5.386   4.812
50326W        W14050   9.821   7.817  14.368
50327W        W14051  20.046  41.814  11.532
50328W        W14052  25.190  35.096   1.272
50329W        W14053   0.930  38.338   2.402
50330W        W14054   0.977  24.609   4.745
50331W        W14055  16.743   3.245   1.695
50332W        W14056  37.425  11.752   5.164
50333W        W14057  15.251   4.767  11.544
50334W        W14058  35.900   1.746  13.534
50335W        W14059  35.004  39.842  10.597
50336W        W14060  35.946  22.097  12.556
50337W        W14061  13.807  41.464  14.978
50338W        W14062  39.314  42.874   0.806
50339W        W14063  17.689   2.853   2.329
50340W        W14064  27.025  26.622  12.940
50341W        W14065  11.621  29.587  13.909
50342W        W14066  36.948  30.639   3.247
50343W        W14067  17.124  30.922  12.046
50344W        W14068  17.660   6.777   2.795
50345W        W14069   3.890  22.055  11.379
50346W        W14070   2.797  43.462  14.863
50347W        W14071  41.434  44.304   2.220
50348W        W14072  24.675  22.173  12.914
50349W        W14073  25.001  32.578   1.729
50350W        W14074  24.624  17.232   0.852
50351W        W14075  28.177   7.697   0.441
50352W        W14076  18.648  13.807   0.245
50353W        W14077  15.314  41.348   2.706
50354W        W14078  37.413  44.437   3.651
50355W        W14079   6.704  39.339  10.579
50356W        W14080  21.221  26.207  12.498
50357W        W14081  38.348  33.010   4.635
50358W        W14082  13.649  22.067  11.015
50359W        W14083  13.209  19.533  14.361
50360W        W14084  39.547  19.718  14.363
50361W        W14085   7.361  42.378   4.303
50362W        W14086   8.186  39.380  14.492
50363W        W14087  24.528  19.631  12.473
50364W        W14088  40.028  43.851   3.149
50365W        W14089  24.024  32.940   4.799
50366W        W14090   8.762  16.770   0.945
50367W        W14091   6.379  23.049  14.276
50368W        W14092   7.286  42.781   0.786
50369W        W14093  38.003  22.646   9.966
50370W        W14094  41.925   7.180  10.043
50371W        W14095   3.864  36.052  11.536
50372W        W14096  17.767   1.448  12.564
50373W        W14097  39.492  19.151   4.736
50374W        W14098  33.617  10.746   0.299
50375W        W14099  12.837  25.108   1.226
50376W        W14100  33.392  44.951  13.428
50377W        W14101  12.803  37.076   4.696
50378W        W14102  28.441  23.179  12.353
50379W        W14103   4.293   1.308   3.759
50380W        W14104  28.578   5.857  11.943
50381W        W14105  27.585  31.995  14.957
50382W        W14106  21.566  38.876   0.453
50383W        W14107  20.651  21.261  11.472
50384W        W14108  23.615  29.114  13.946
50385W        W14109  42.453  36.072  12.902
50386W        W14110  21.591  35.952  12.994
50387W        W14111  26.563  10.691  13.800
50388W        W14112  10.851  43.326  11.590
50389W        W14113  33.015  26.102   4.774
50390W        W14114  28.960  14.131  13.946
50391W        W14115  42.917  12.843  14.409
50392W        W14116   2.357  21.027  12.941
50393W        W14117  44.293  29.665  13.810
50394W        W14118  19.179  20.540  14.906
50395W        W14119   8.262   9.672  11.033
50396W        W14120  36.081  13.317  14.878
50397W        W14121  15.316  39.052  11.589
50398W        W14122  27.061  12.173  12.463
50399W        W14123  16.076  16.717  13.464
50400W        W14124  12.208  20.769  10.915
50401W        W14125  42.512   9.806   2.809
50402W        W14126  34.908  19.280   3.253
50403W        W14127  24.627   5.234  14.412
50404W        W14128  19.068  18.727   2.746
50405W        W14129   8.384  12.841  12.087
50406W        W14130  40.466  24.219   1.751
50407W        W14131  16.248   8.237   0.902
50408W        W14132  32.520  13.343  13.512
50409W        W14133  29.971  25.667  11.930
50410W        W14134  24.166  42.386   3.293
50411W        W14135   1.374  38.934   3.246
50412W        W14136   0.337  30.914   3.283
50413W        W14137  33.402  16.282   4.716
50414W        W14138  24.065   0.781   2.374
50415W        W14139   4.910   6.217  12.041
50416W        W14140   8.869  33.978  13.000
50417W        W14141  17.759  42.415   4.691
50418W        W14142  43.364  13.245  13.835
50419W        W14143  18.661  41.408  12.982
50420W        W14144  19.771  21.234   0.278
50421W        W14145  20.218  21.227   3.698
50422W        W14146  29.099  32.390  13.965
50423W        W14147  15.722  16.680  13.032
50424W        W14148  21.681  13.753  11.589
50425W        W14149  32.912   6.306   2.314
50426W        W14150  19.132   2.376  11.856
50427W        W14151   0.408   0.874  11.425
50428W        W14152  18.086   1.906  11.489
50429W        W14153  41.434  25.500  12.949
50430W        W14154  17.297   4.450   5.674
50431W        W14155  39.422  13.125  11.421
50432W        W14156  38.852  38.041   3.375
50433W        W14157   9.380  13.785  14.341
50434W        W14158   0.952  14.716   3.171
50435W        W14159  36.009  44.782   4.257
50436W        W14160   4.317  23.065  11.874
50437W        W14161  32.633   8.200   2.370
50438W        W14162   4.917  24.553   1.226
50439W        W14163  44.475   3.769   0.363
50440W        W14164   7.298  27.065   4.834
50441W        W14165  38.529  10.732   1.296
50442W        W14166   5.759  28.172   1.305
50443W        W14167  42.283  22.609   5.142
50444W        W14168  34.974  17.177  13.012
50445W        W14169  23.650   1.952  13.472
50446W        W14170  37.364   2.338  10.925
50447W        W14171  44.976  40.945   2.340
50448W        W14172  39.039  21.141  14.336
50449W        W14173  16.614  38.354  11.877
50450W        W14174  35.883   5.913  11.107
50451W        W14175  33.515  12.160  13.416
50452W        W14176   5.249  38.528  11.464
50453W        W14177   9.365  14.146   4.195
50454W        W14178   1.743  39.966  11.598
50455W        W14179   3.461  42.791   3.743
50456W        W14180  30.598  43.021   0.377
50457W        W14181  24.699  23.724   0.445
50458W        W14182  32.464   0.843  13.865
50459W        W14183  13.289  38.870   4.208
50460W        W14184  30.133  30.052  10.495
50461W        W14185   4.324  23.095   0.771
50462W        W14186  17.791  13.657  11.378
50463W        W14187  39.059  35.943   4.330
50464W        W14188  41.473  15.182  14.826
50465W        W14189  11.696  20.543   2.874
50466W        W14190  23.734  14.814  14.028
50467W        W14191  26.046  36.372  11.374
50468W        W14192  42.292  44.383  13.800
50469W        W14193   5.332  25.205  14.875
50470W        W14194   0.391   8.308   3.377
50471W        W14195  10.870   5.401  10.581
50472W        W14196  10.724  43.923  10.890
50473W        W14197   1.945  33.066  13.311
50474W        W14198  29.487   0.782   2.880
50475W        W14199  35.532  14.710   1.847
50476W        W14200  28.458   4.352  12.878
50477W        W14201  17.128  31.584  11.912
50478W        W14202   1.890  15.172   0.728
50479W        W14203  25.526  40.883  11.452
50480W        W14204  27.112  43.791   3.848
50481W        W14205   2.871  43.810  12.523
50482W        W14206   4.930  22.736  14.367
50483W        W14207  12.796  29.540  13.436
50484W        W14208  14.251  37.339  12.530
50485W        W14209  37.468  35.913   2.243
50486W        W14210  16.666  37.526  13.906
50487W        W14211   3.366  42.973   4.731
50488W        W14212   0.276   7.860   4.649
50489W        W14213  38.429  27.636   2.747
50490W        W14214  12.337  21.130   4.215
50491W        W14215  25.088  19.661   0.276
50492W        W14216  40.451   6.263   0.344
50493W        W14217   7.180  41.428  12.367
50494W        W14218  13.820  38.335   2.338
50495W        W14219  22.119   9.312   2.221
50496W        W14220  38.822  25.035   0.442
50497W        W14221  28.501  23.012   2.317
50498W        W14222   2.367  37.911   1.877
50499W        W14223  40.865  17.152   2.828
50500W        W14224  43.352  34.912  11.960
50501W        W14225  32.920  23.999  11.007
50502W        W14226   9.379  27.994   0.459
50503W        W14227   2.905  36.525   3.687
50504W        W14228  18.638  39.532  14.901
50505W        W14229  38.334  21.512  10.441
50506W        W14230  44.300   4.369   0.438
50507W        W14231  19.204  17.180  11.020
50508W        W14232  44.361  38.426   0.963
50509W        W14233  21.743  34.110  14.862
50510W        W14234  18.704  28.936  10.588
50511W        W14235  29.169  43.321   1.352
50512W        W14236  30.565  39.391  14.431
50513W        W14237  38.038  16.748  13.979
50514W        W14238  43.386   1.921  11.397
50515W        W14239  36.424   5.802  10.525
50516W        W14240  12.199  35.412   2.259
50517W        W14241  21.615  30.915   1.260
50518W        W14242  35.591  44.286   2.412
50519W        W14243   8.180  17.087  14.011
50520W        W14244  41.833  29.958   1.798
50521W        W14245  12.725  40.040  14.902
50522W        W14246   0.961  43.380   2.204
50523W        W14247   4.376  18.569   3.318
50524W        W14248  24.491  36.881   4.236
50525W        W14249   2.829   0.301   4.598
50526W        W14250  35.472  23.694  12.383
50527W        W14251  32.411   5.348  13.975
50528W        W14252  10.244  44.937  14.353
50529W        W14253  30.055   6.875   3.336
50530W        W14254   4.211  25.137  11.472
50531W        W14255  23.038  31.932  12.905
50532W        W14256   5.320   1.271   1.849
50533W        W14257  17.095   2.348  12.030
50534W        W14258  19.233  11.180   3.851
50535W        W14259   6.357  27.626  12.384
50536W        W14260  35.975  42.294  11.550
50537W        W14261  44.443  24.182  11.473
50538W        W14262   3.295  20.575   4.608
50539W        W14263  28.498  41.826  11.993
50540W        W14264   7.325   6.773   0.783
50541W        W14265  37.921  28.505  12.431
50542W        W14266   4.868  23.675   0.930
50543W        W14267   1.459  29.125   2.872
50544W        W14268  30.600  13.272  13.417
50545W        W14269  42.851   3.740   2.742
50546W        W14270   2.352   3.819  12.933
50547W        W14271   8.784  24.707  12.968
50548W        W14272  33.506  28.025   5.269
50549W        W14273  43.779  34.604  12.521
50550W        W14274  43.304  21.599  13.032
50551W        W14275   9.342   5.857   1.753
50552W        W14276  13.165  36.928  11.964
50553W        W14277  34.006  42.903  14.008
50554W        W14278  40.803  16.143  13.897
50555W        W14279   3.904   6.364  14.770
50556W        W14280   4.431  37.947   3.857
50557W        W14281   4.869   5.797   0.746
50558W        W14282  26.620  23.655  10.952
50559W        W14283  40.358  28.452  13.401
50560W        W14284  26.575   8.174   1.888
50561W        W14285  23.713   5.250  14.398
50562W        W14286  25.097  44.914  11.485
50563W        W14287   9.713  11.785   3.377
50564W        W14288  16.094  13.744  13.894
50565W        W14289  41.971   4.897   2.861
50566W        W14290   9.851  33.562   2.213
50567W        W14291  39.009  18.696  11.467
50568W        W14292  21.202  28.637  10.913
50569W        W14293  44.460   4.807  10.952
50570W        W14294  27.997  25.487  11.053
50571W        W14295  27.618  36.054   4.183
50572W        W14296  31.000  13.282  10.931
50573W        W14297  18.078  11.846   3.820
50574W        W14298  34.387  11.628   2.784
50575W        W14299  15.622  39.386  11.391
50576W        W14300   0.813  35.074  10.500
50577W        W14301  25.197   1.881  13.380
50578W        W14302  28.982  31.002  12.910
50579W        W14303  15.726   5.766   3.241
50580W        W14304   9.856  16.073   4.235
50581W        W14305  18.731   3.282   2.793
50582W        W14306   5.817   3.794   4.673
50583W        W14307   3.218  32.016   4.807
50584W        W14308  24.038  34.370  10.586
50585W        W14309  29.623  38.458  14.836
50586W        W14310   9.223   1.868  12.530
50587W        W14311  25.551  13.706   0.446
50588W        W14312  41.818  13.155   3.155
50589W        W14313  29.493  44.886   2.827
50590W        W14314   9.666   5.390  12.865
50591W        W14315  37.984  30.617  11.024
50592W        W14316   5.343  38.966   2.333
50593W        W14317   9.770  20.249  14.401
50594W        W14318   6.300   0.423  14.992
50595W        W14319  30.943  15.624   2.736
50596W        W14320  27.493  33.026  12.489
50597W        W14321   7.193   7.707  14.435
50598W        W14322  29.019  20.048   0.934
50599W        W14323   5.421   7.267   2.783
50600W        W14324  34.609  32.483  11.441
50601W        W14325  29.461  15.241  14.418
50602W        W14326  16.678  33.050  10.408
50603W        W14327   0.987   8.878   3.317
50604W        W14328  20.071  44.866  11.990
50605W        W14329  29.500   9.355  14.938
50606W        W14330  16.150  43.425  11.524
50607W        W14331  37.918  15.252  14.951
50608W        W14332   2.812  24.165   3.251
50609W        W14333  12.678   5.201   0.793
50610W        W14334  22.719  21.610   5.240
50611W        W14335  30.423   4.797  14.311
50612W        W14336  15.178  37.881   2.233
50613W        W14337   5.407  44.940  10.548
50614W        W14338  39.018  14.166   4.312
50615W        W14339   6.414  24.505  13.056
50616W        W14340   2.258  15.268   1.270
50617W        W14341  29.542  22.112   4.347
50618W        W14342  16.191  17.668   2.192
50619W        W14343  24.171  42.468  11.093
50620W        W14344  14.689  17.772  11.569
50621W        W14345  43.305  37.364   5.294
50622W        W14346  37.830  30.024   1.264
50623W        W14347  27.175  30.164   3.222
50624W        W14348  11.832  28.623  14.325
50625W        W14349  27.663  42.901   1.329
50626W        W14350  39.388   4.318  13.021
50627W        W14351  22.164  33.884  13.345
50628W        W14352  14.227  28.457   1.866
50629W        W14353   7.180  41.897  13.507
50630W        W14354   0.406  43.433  12.872
50631W        W14355  39.986  32.124   3.354
50632W        W14356  10.857  36.454   4.836
50633W        W14357  37.928  37.842  11.473
50634W        W14358  11.243  14.701  12.413
50635W        W14359  44.418  28.624  11.929
50636W        W14360  20.271  39.529   0.750
50637W        W14361  15.329   4.312  12.470
50638W        W14362  12.227  33.902   1.389
50639W        W14363  17.247  22.039  11.605
50640W        W14364  26.014  10.199  13.415
50641W        W14365  26.092  41.509  14.448
50642W        W14366  12.342  16.655  10.570
50643W        W14367  28.479  38.007  14.372
50644W        W14368  16.120  26.602  12.378
50645W        W14369   6.911  26.067  13.943
50646W        W14370  30.543  38.348  11.874
50647W        W14371  20.062  17.576  12.973
50648W        W14372  26.090   7.383  12.498
50649W        W14373  22.600  23.597  12.026
50650W        W14374  41.797  29.082  12.539
50651W        W14375  17.644  35.416  14.793
50652W        W14376   4.730  16.705   2.844
50653W        W14377  19.748  16.311  12.919
50654W        W14378  28.095  16.204   4.157
50655W        W14379  31.982  21.751  10.946
50656W        W14380  13.747   2.468  11.995
50657W        W14381  29.504  20.263  11.971
50658W        W14382  30.956  42.454   3.236
50659W        W14383   6.313  44.278  11.015
50660W        W14384   4.886  23.723  12.460
50661W        W14385   0.296  17.205   0.886
50662W        W14386  24.577  27.500   1.782
50663W        W14387  16.572  30.573   1.720
50664W        W14388  27.121  44.291   3.221
50665W        W14389  25.508  38.850   0.962
50666W        W14390  13.830   4.708  11.903
50667W        W14391  26.028   2.798   4.198
50668W        W14392  15.162  24.224   4.209
50669W        W14393  14.748  23.677  10.516
50670W        W14394   5.353  16.306   3.271
50671W        W14395   7.232  12.753  14.900
50672W        W14396   1.919  13.219   2.372
50673W        W14397  33.543  43.963  10.446
50674W        W14398   5.195  20.589   0.325
50675W        W14399  10.375  18.147   0.470
50676W        W14400   7.755  24.609  11.981
50677W        W14401  33.024   2.295  10.554
50678W        W14402  14.624  33.984   1.396
50679W        W14403  24.981  35.479   1.384
50680W        W14404   5.720  16.184  12.436
50681W        W14405  36.464  34.561   2.816
50682W        W14406  26.160   6.305  13.856
50683W        W14407  36.092  27.654  10.961
50684W        W14408  14.727  15.668   4.724
50685W        W14409  25.586  34.070  13.518
50686W        W14410  30.955  34.107  14.295
50687W        W14411  35.943   2.831   4.276
50688W        W14412  21.621  29.990  12.393
50689W        W14413   0.940  33.875   0.445
50690W        W14414  21.692  12.214   2.202
50691W        W14415  22.155  13.348   1.350
50692W        W14416  39.356  18.663  12.491
50693W        W14417  13.328  13.637   1.729
50694W        W14418   7.371  43.496  11.873
50695W        W14419  19.721  44.320  10.634
50696W        W14420  19.094  35.881  12.507
50697W        W14421  42.030   9.328   0.245
50698W        W14422  30.557   4.236  14.476
50699W        W14423  29.161  14.287   2.861
50700W        W14424  20.186  38.456   1.871
50701W        W14425  24.227  12.239   1.851
50702W        W14426   4.247  14.211  13.370
50703W        W14427  24.692  42.969  11.611
50704W        W14428  44.936   9.232   4.128
50705W        W14429  43.491  10.206  13.995
50706W        W14430  13.723  27.667  13.827
50707W        W14431   4.885  15.318   4.652
50708W        W14432  23.022  42.426   3.836
50709W        W14433  28.101  26.684  12.525
50710W        W14434  29.524  10.239   0.411
50711W        W14435   8.364  41.889   3.844
50712W        W14436  31.631  39.540   1.932
50713W        W14437  29.536   8.362  11.978
50714W        W14438   2.942  27.471  14.407
50715W        W14439  10.346  44.000   1.345
50716W        W14440  23.123  12.808  13.827
50717W        W14441  17.755  33.421   2.739
50718W        W14442  39.849   9.873  12.559
50719W        W14443  16.700  38.355  13.865
50720W        W14444  13.180  24.997  11.873
50721W        W14445  37.939   8.873   3.752
50722W        W14446  26.958  18.743  12.055
50723W        W14447  26.071  34.119   4.219
50724W        W14448  13.235  29.088  12.368
50725W        W14449  23.677  19.536   3.293
50726W        W14450   1.819  31.126  13.038
50727W        W14451   2.960  39.315  12.563
50728W        W14452  16.651   0.450   2.276
50729W        W14453  44.933  25.991  13.924
50730W        W14454  16.166  27.527   2.804
50731W        W14455  16.594  37.556   3.785
50732W        W14456  28.133  36.907   2.389
50733W        W14457  40.847  30.471  13.370
50734W        W14458   8.341  30.974  10.998
50735W        W14459  20.104  11.757   3.298
50736W        W14460  39.329  30.977   4.297
50737W        W14461   0.975  15.800  14.005
50738W        W14462   1.314   5.840   4.210
50739W        W14463  10.871   1.819   2.219
50740W        W14464   9.151  40.036  14.411
50741W        W14465  31.606  30.529   0.367
50742W        W14466  26.994  33.021   2.896
50743W        W14467   2.412  33.568   4.705
50744W        W14468  19.268  22.534   3.637
50745W        W14469  23.528  25.506   3.762
50746W        W14470  19.067  20.165  14.281
50747W        W14471  18.770  35.569  14.931
50748W        W14472  24.064  15.680   3.371
50749W        W14473  14.592  26.540   9.941
50750W        W14474  44.839  39.423  14.349
50751W        W14475  24.007  40.873   9.929
50752W        W14476  40.955  36.364   1.231
50753W        W14477   4.371  41.837  11.542
50754W        W14478  10.767  28.471   1.250
50755W        W14479   4.365  23.582  13.446
50756W        W14480  17.199  34.047   1.786
50757W        W14481  27.638   6.839   5.175
50758W        W14482  17.238  37.997   0.745
50759W        W14483   0.886  11.736   4.119
50760W        W14484   0.932   2.242  14.274
50761W        W14485   9.259  18.640   4.811
50762W        W14486  27.545   3.746  13.052
50763W        W14487  20.573  36.964   4.773
50764W        W14488  29.035  37.844  13.964
50765W        W14489  14.624  33.549   4.667
50766W        W14490  20.165  25.510  13.943
50767W        W14491   8.404   7.903  10.989
50768W        W14492  12.815   0.386   2.754
50769W        W14493  12.809  31.902   2.759
50770W        W14494   8.810  31.499   4.817
50771W        W14495   5.412  25.129   3.783
50772W        W14496  35.517  32.521   2.344
50773W        W14497  25.185  25.558  13.852
50774W        W14498   9.674   5.824  10.498
50775W        W14499   6.394  17.303  12.934
50776W        W14500  33.465  24.095   0.767
50777W        W14501   6.272   5.771  10.547
50778W        W14502  15.261  32.118   5.195
50779W        W14503  35.380  23.524   1.348
50780W        W14504  10.745  15.724  11.992
50781W        W14505  20.609  43.418  11.395
50782W        W14506  33.603  33.409   5.219
50783W        W14507   7.183   5.324   1.822
50784W        W14508  37.378   0.845   3.204
50785W        W14509   9.863  17.794  12.491
50786W        W14510   8.170   2.856   3.748
50787W        W14511  22.154  15.711  11.076
50788W        W14512  37.562   7.884  10.931
50789W        W14513  18.746   1.415  14.463
50790W        W14514  25.166  43.862   0.306
50791W        W14515  38.050  19.586   3.765
50792W        W14516  33.465  31.643   4.344
50793W        W14517  11.147  33.911   3.297
50794W        W14518  19.080  25.695   1.890
50795W        W14519  16.682   0.808  11.584
50796W        W14520  10.834  15.275  11.995
50797W        W14521  23.705  44.839   3.368
50798W        W14522  21.208  36.976   1.899
50799W        W14523  17.639  35.429  14.303
50800W        W14524  19.041  30.132   1.865
50801W        W14525  30.641  14.772   3.165
50802W        W14526  32.594   1.788  12.090
50803W        W14527  11.647  16.316   1.830
50804W        W14528  11.200  43.967   4.633
50805W        W14529  20.559  32.045  11.510
50806W        W14530   3.440   7.384   1.731
50807W        W14531  39.015  18.145   2.792
50808W        W14532   9.262  17.081   0.300
50809W        W14533  13.816  39.944  10.987
50810W        W14534  40.526   6.209  10.477
50811W        W14535  28.140  15.171   3.185
50812W        W14536  42.830  24.524   3.710
50813W        W14537  15.585  14.239  13.533
50814W        W14538  35.926  10.864   4.657
50815W        W14539  22.709  44.007   9.956
50816W        W14540  10.809   8.295   4.783
50817W        W14541   4.837   7.233   2.739
50818W        W14542  18.176  34.586  10.964
50819W        W14543  33.916  42.778  11.041
50820W        W14544  20.081   6.806  10.623
50821W        W14545  39.834   9.678   1.349
50822W        W14546  17.773   4.422  13.820
50823W        W14547  33.109  41.841  11.603
50824W        W14548  29.987  14.667   2.720
50825W        W14549  42.021   1.973   0.809
50826W        W14550  26.608  38.970   0.306
50827W        W14551  36.409  31.936  14.434
50828W        W14552  39.550  15.761   3.233
50829W        W14553  39.316   9.831   1.734
50830W        W14554  37.347  43.898   3.383
50831W        W14555  23.220  39.550   3.380
50832W        W14556  11.165  24.085   4.313
50833W        W14557  22.567  23.069  11.996
50834W        W14558  22.584  39.372   0.446
50835W        W14559  28.088  27.618  13.431
50836W        W14560  43.505  29.516   4.665
50837W        W14561  27.084  16.569   2.224
50838W        W14562  17.196   2.832   3.857
50839W        W14563  14.239   6.395   1.924
50840W        W14564   7.227  34.976  14.451
50841W        W14565  32.441  29.542   1.363
50842W        W14566  29.586  14.107   5.157
50843W        W14567  22.620  40.842  14.825
50844W        W14568  15.123  15.808   0.404
50845W        W14569   1.371  36.575  12.889
50846W        W14570  15.191   9.728   3.269
50847W        W14571   8.859   0.389  11.590
50848W        W14572  24.663   7.257  11.570
50849W        W14573  26.977  23.568  10.902
50850W        W14574  21.251  27.461  12.428
50851W        W14575  27.458  27.618   4.264
50852W        W14576  32.472  34.512  10.633
50853W        W14577  18.160  32.608   3.147
50854W        W14578  25.685   2.257   1.334
50855W        W14579  33.046   0.756   4.141
50856W        W14580  22.525  32.532   2.870
50857W        W14581  19.588  29.497   1.801
50858W        W14582  28.458  19.614  12.050
50859W        W14583  13.738   6.752  10.559
50860W        W14584   7.208  15.823  14.869
50861W        W14585  38.552  35.860   2.371
50862W        W14586  28.968  29.600   2.899
50863W        W14587  38.892  19.143  11.593
50864W        W14588  10.363  13.766  13.439
50865W        W14589   9.358  20.640   3.648
50866W        W14590  27.532  12.260  10.034
50867W        W14591  44.882  12.132  12.882
50868W        W14592  36.089  33.130  11.383
50869W        W14593   5.892  27.532  11.033
50870W        W14594   0.269  43.338   2.355
50871W        W14595  16.644  38.060  10.998
50872W        W14596  25.548   4.850  14.966
50873W        W14597  22.111  25.093   4.665
50874W        W14598  19.719  37.990   2.203
50875W        W14599  22.164  41.831   3.301
50876W        W14600  24.650  15.610   3.172
50877W        W14601  30.471  23.159   0.363
50878W        W14602  27.662  29.013  13.450
50879W        W14603  13.664  28.670   4.807
50880W        W14604   0.292  32.910   3.849
50881W        W14605  18.604  14.792  13.363
50882W        W14606  33.448  28.656   1.259
50883W        W14607   6.676   5.847   2.418
50884W        W14608  31.595  12.817  13.834
50885W        W14609  11.781   6.873   3.198
50886W        W14610  22.516  40.954   0.396
50887W        W14611  41.787  14.140  13.489
50888W        W14612  12.829   4.802  12.969
50889W        W14613  29.591  27.597   3.724
50890W        W14614  33.602   8.786   4.617
50891W        W14615   1.335  32.083  10.120
50892W        W14616   2.312  25.554  14.931
50893W        W14617  40.907  23.064   3.381
50894W        W14618   5.330  34.946   0.382
50895W        W14619   9.161  27.679  11.974
50896W        W14620  17.694  14.126  13.890
50897W        W14621  16.199  36.859   0.792
50898W        W14622   8.705  43.908  14.017
50899W        W14623  27.131  17.145   1.447
50900W        W14624  29.047  19.570   2.663
50901W        W14625  20.085  26.579  12.556
50902W        W14626  35.517  27.492  11.102
50903W        W14627  14.269  36.943  12.490
50904W        W14628  44.996  14.245   4.637
50905W        W14629   5.219  36.432  11.100
50906W        W14630  12.214  25.007   1.844
50907W        W14631  25.627   6.187   5.161
50908W        W14632  44.861  38.980   2.279
50909W        W14633  33.891  33.918  11.398
50910W        W14634  12.759   1.447   3.740
50911W        W14635  39.475  23.505   3.201
50912W        W14636  18.121  29.522   0.244
50913W        W14637   9.821  34.904   4.804
50914W        W14638  12.196  32.485   1.275
50915W        W14639  16.247  15.158  14.351
50916W        W14640   9.827   1.851  11.520
50917W        W14641  34.487  28.107  10.494
50918W        W14642  32.035  31.935   1.384
50919W        W14643  24.130  40.495   0.316
50920W        W14644  29.529   5.784   2.663
50921W        W14645  19.750  30.141   0.870
50922W        W14646  16.636  42.433   2.860
50923W        W14647  35.961  13.635   3.812
50924W        W14648   2.957   7.720  13.437
50925W        W14649  27.684  17.570   3.765
50926W        W14650  28.549  36.998   2.729
50927W        W14651  39.934  24.611   0.421
50928W        W14652  34.106   2.271  13.944
50929W        W14653   0.479   1.251  11.041
50930W        W14654  34.592   2.790   2.857
50931W        W14655  15.612  40.459   3.176
50932W        W14656   5.743  14.310  11.535
50933W        W14657  32.505  10.287   1.382
50934W        W14658  31.978  35.993  10.914
50935W        W14659   9.345  41.396   5.150
50936W        W14660  13.271  30.085  13.449
50937W        W14661  22.224  42.929  13.946
50938W        W14662  44.946   7.182  12.958
50939W        W14663  22.678  14.746  14.894
50940W        W14664  10.201  42.348   2.828
50941W        W14665  12.164  20.165   0.381
50942W        W14666   3.934  40.931   1.345
50943W        W14667   3.718  18.084  10.993
50944W        W14668  18.771  42.931  11.922
50945W        W14669  34.415  39.465   2.409
50946W        W14670  33.388  30.041   1.833
50947W        W14671  27.976   0.349   4.602
50948W        W14672  23.723   3.784  11.601
50949W        W14673  32.428  20.053  11.892
50950W        W14674  33.959  32.475   2.257
50951W        W14675   2.902  42.446   2.797
50952W        W14676   7.187  22.208   4.212
50953W        W14677   8.883  28.006  13.483
50954W        W14678  41.373  21.752   5.696
50955W        W14679  21.046  22.136   2.408
50956W        W14680  39.508  13.112  14.509
50957W        W14681  42.848   8.172   2.886
50958W        W14682  44.941  32.008  10.441
50959W        W14683   6.200  26.487   4.208
50960W        W14684  29.063  25.497  13.850
50961W        W14685  17.776  42.013  14.890
50962W        W14686   2.373  22.226  10.990
50963W        W14687  35.002  44.885   4.645
50964W        W14688  35.581  36.439  10.511
50965W        W14689  15.744  33.983  12.963
50966W        W14690  43.489  24.096   1.746
50967W        W14691   1.260  40.032  13.893
50968W        W14692  34.554  15.718   5.217
50969W        W14693  39.965  39.408   1.811
50970W        W14694  44.865  35.867  10.905
50971W        W14695  11.861  34.384   1.900
50972W        W14696  40.030   9.730  13.350
50973W        W14697   6.743   9.165   0.880
50974W        W14698  44.432  28.039  12.342
50975W        W14699  44.368  21.641  12.851
50976W        W14700  28.031  35.860  14.495
50977W        W14701  21.598  34.985   3.308
50978W        W14702  39.463  15.803   4.133
50979W        W14703  35.490  42.503   2.815
50980W        W14704  29.630   2.800  12.938
50981W        W14705  40.365  38.030  13.916
50982W        W14706   4.726  30.458  11.526
50983W        W14707  17.129  44.888  11.011
50984W        W14708  13.846  24.644  13.057
50985W        W14709  13.336   6.748  13.546
50986W        W14710  43.469  37.865  11.602
50987W        W14711  35.483  11.638  11.950
50988W        W14712   2.753  41.944   4.233
50989W        W14713  22.630  27.045  12.520
50990W        W14714  25.518  41.332  10.047
50991W        W14715  13.792  34.562   3.350
50992W        W14716  15.659  33.061   1.820
50993W        W14717  15.221  26.100   0.405
50994W        W14718  42.451   4.850  12.036
50995W        W14719  34.108  37.369   4.814
50996W        W14720  35.387  41.923  14.328
50997W        W14721  40.423  32.138   3.654
50998W        W14722   3.326  13.842   0.742
50999W        W14723  32.034  31.452   4.164
51000W        W14724  29.641  19.584  10.946
51001W        W14725  40.535  15.196   2.341
51002W        W14726  11.866  37.391   0.934
51003W        W14727  39.420   2.837   1.743
51004W        W14728  20.232  19.571  14.388
51005W        W14729  19.541  10.345  12.496
51006W        W14730  35.385  36.412  11.501
51007W        W14731  30.429  20.661  13.866
51008W        W14732  14.314  39.829   4.148
51009W        W14733   0.871   4.711   0.957
51010W        W14734   9.380   4.716   0.411
51011W        W14735  19.112  25.004  12.476
51012W        W14736  16.592  14.723  10.089
51013W        W14737   7.346  36.864   0.281
51014W        W14738  36.450  14.604   1.296
51015W        W14739  29.946   7.225   0.316
51016W        W14740  21.598  34.026  12.986
51017W        W14741  32.595   6.289   1.312
51018W        W14742  11.191  34.504  13.819
51019W        W14743  33.552  41.464   2.817
51020W        W14744  10.337   6.881   5.303
51021W        W14745  36.922  44.428  13.404
51022W        W14746   2.446  35.961  10.426
51023W        W14747  27.670  24.511  11.040
51024W        W14748  11.277  21.142   1.330
51025W        W14749  36.994  32.037  13.839
51026W        W14750  32.008  10.825  13.890
51027W        W14751   6.424  35.072   1.239
51028W        W14752  37.519   7.834  14.434
51029W        W14753   7.822  43.302   0.832
51030W        W14754  37.525  29.163  13.033
51031W        W14755  20.582  28.674   4.343
51032W        W14756  27.555  24.175  13.543
51033W        W14757   8.658   7.836  13.810
51034W        W14758  40.881   0.315   4.225
51035W        W14759  37.916  39.381   4.627
51036W        W14760   7.186  32.983   4.217
51037W        W14761   6.916  34.023   0.344
51038W        W14762  26.123  31.610  13.833
51039W        W14763  28.561  17.784  13.460
51040W        W14764  26.062  25.042  11.040
51041W        W14765  24.717  38.960   4.833
51042W        W14766  28.511  16.597   4.150
51043W        W14767  35.385  40.389  11.410
51044W        W14768  39.905  27.497  13.490
51045W        W14769  13.620  23.058   4.804
51046W        W14770   0.874  20.663   2.668
51047W        W14771  35.447  20.072   1.387
51048W        W14772  14.159  20.228   1.364
51049W        W14773  40.974  22.096   2.801
51050W        W14774  16.699  17.149  12.967
51051W        W14775  37.913  26.143  13.026
51052W        W14776  25.148  35.860  14.020
51053W        W14777  20.252  16.571  12.972
51054W        W14778  24.165   9.701   1.287
51055W        W14779   6.232  42.505  11.372
51056W        W14780  24.061  43.799   0.417
51057W        W14781  39.894  38.907   0.478
51058W        W14782  23.576   1.353  10.448
51059W        W14783  10.302  38.872  10.448
51060W        W14784  11.203  41.931  13.381
51061W        W14785  38.421   1.977  11.602
51062W        W14786  24.611   5.875   4.730
51063W        W14787  24.984   6.338   1.292
51064W        W14788  17.089  25.487  11.554
51065W        W14789  21.523  23.040   3.640
51066W        W14790  33.523  19.545  13.053
51067W        W14791  41.361  38.977   2.413
51068W        W14792  19.567  27.034  10.530
51069W        W14793  34.934  16.236  11.946
51070W        W14794  41.901   7.404  14.927
51071W        W14795  44.353  43.460  13.529
51072W        W14796  24.671  24.144   0.335
51073W        W14797  15.122  30.523  12.424
51074W        W14798   5.888   9.769   3.706
51075W        W14799   3.878  17.624  13.930
51076W        W14800   2.909   6.207  14.336
51077W        W14801   7.205  43.815   3.344
51078W        W14802   8.249  36.012  14.819
51079W        W14803   6.249  42.387  14.968
51080W        W14804  26.656  15.611  10.493
51081W        W14805  27.643  26.569   3.171
51082W        W14806   4.318  32.393   2.190
51083W        W14807  34.389  42.815   3.218
51084W        W14808  14.293  41.022   2.757
51085W        W14809   6.847  28.156   2.666
51086W        W14810  37.036  31.422   4.767
51087W        W14811   6.193  34.908   2.273
51088W        W14812  40.479  32.608  14.016
51089W        W14813  42.008  15.089  11.597
51090W        W14814  14.632  27.616   3.387
51091W        W14815  26.613   2.389  11.375
51092W        W14816  41.007  10.297   1.863
51093W        W14817  14.799  22.006  11.881
51094W        W14818  26.115   0.334  11.043
51095W        W14819  14.699   9.369   3.380
51096W        W14820  16.674  22.161   1.436
51097W        W14821  24.005   4.354   1.260
51098W        W14822  40.383  16.722   1.721
51099W        W14823   8.784  14.764  11.865
51100W        W14824  29.046   0.941  10.905
51101W        W14825  21.734  38.046   3.658
51102W        W14826  40.455   8.898   2.365
51103W        W14827  34.970  27.180   1.900
51104W        W14828  20.532   0.749   2.757
51105W        W14829  15.615  43.516  13.060
51106W        W14830  20.155  17.739   4.685
51107W        W14831  33.029  18.708  14.010
51108W        W14832  34.885  30.447  12.969
51109W        W14833  34.454  12.306  14.326
51110W        W14834  25.589  25.032  13.861
51111W        W14835   4.807  15.822   1.930
51112W        W14836  38.844  27.003  12.562
51113W        W14837  12.727  31.124   2.222
51114W        W14838  36.077  18.637  14.910
51115W        W14839   4.301  23.121   2.873
51116W        W14840   0.933  37.445  14.481
51117W        W14841  34.606   1.918  14.280
51118W        W14842  33.017  37.428  14.307
51119W        W14843  36.859  20.546   4.353
51120W        W14844  30.008  11.730   3.695
51121W        W14845   5.413  33.547  12.576
51122W        W14846   4.834  30.542  10.158
51123W        W14847  42.425  16.645   0.434
51124W        W14848  43.981  11.675  14.873
51125W        W14849  33.614  44.409   0.845
51126W        W14850  15.095  27.963   2.775
51127W        W14851  21.523   1.426  10.609
51128W        W14852   6.719  11.726   0.867
51129W        W14853   8.290  20.139  13.527
51130W        W14854   2.389  22.529   1.705
51131W        W14855  18.581  42.938   1.384
51132W        W14856  21.200  32.579  13.050
51133W        W14857  24.662  23.509  11.475
51134W        W14858  29.626  22.059   1.211
51135W        W14859   0.851  44.409   4.631
51136W        W14860  40.456   2.854  14.399
51137W        W14861  34.109  19.121   1.243
51138W        W14862  31.901  36.902   1.328
51139W        W14863   7.743  18.124  11.572
51140W        W14864  15.206  41.041  12.540
51141W        W14865   1.935  15.719   4.243
51142W        W14866   2.838  27.539   2.700
51143W        W14867  15.633  15.746   3.830
51144W        W14868  36.019  24.136  12.565
51145W        W14869  23.612  41.400  14.016
51146W        W14870  22.735   5.301  13.002
51147W        W14871  23.660  36.986  12.515
51148W        W14872   3.936  29.055   4.293
51149W        W14873   7.736   0.484  11.455
51150W        W14874  13.636  18.122  11.564
51151W        W14875  10.635  16.150  12.373
51152W        W14876  30.476  39.027   1.821
51153W        W14877   7.892  14.305   2.301
51154W        W14878   5.766  35.866  10.593
51155W        W14879   3.409   6.909  13.861
51156W        W14880  18.164  37.857   1.749
51157W        W14881  20.737  43.898  13.392
51158W        W14882  41.522   8.214  14.469
51159W        W14883   7.729  26.197  11.560
51160W        W14884  24.652  21.041   1.410
51161W        W14885  38.364  10.140   0.243
51162W        W14886  42.481  20.530   2.208
51163W        W14887   5.858  42.806  11.083
51164W        W14888  25.143  19.137  12.509
51165W        W14889  35.575  37.992  10.460
51166W        W14890  13.804  43.859  12.449
51167W        W14891   8.180  43.860   4.226
51168W        W14892  44.970  33.943  13.485
51169W        W14893  22.551   7.376  10.474
51170W        W14894  29.035  32.524   4.658
51171W        W14895  39.037  26.199  13.379
51172W        W14896   7.176  27.143   2.685
51173W        W14897  28.995  19.767   3.242
51174W        W14898  12.736  34.389  10.502
51175W        W14899   1.408  41.893   1.928
51176W        W14900  34.569  44.504  14.420
51177W        W14901  40.422   0.772   9.959
51178W        W14902  34.464  30.584  14.451
51179W        W14903  36.394  19.241  10.532
51180W        W14904  11.842  40.536  13.983
51181W        W14905  41.369  40.420   3.703
51182W        W14906  31.904   5.255   0.906
51183W        W14907   8.235  21.031  11.896
51184W        W14908  39.826  11.315  13.423
51185W        W14909  33.566  18.183  10.563
51186W        W14910  31.105  11.195  11.021
51187W        W14911   8.337  28.480   4.781
51188W        W14912  44.462  10.686  11.527
51189W        W14913  33.104  40.803   2.223
51190W        W14914  31.037  34.434  13.858
51191W        W14915  22.041  27.150  14.020
51192W        W14916  35.568   1.879  13.503
51193W        W14917  23.592  10.184   4.673
51194W        W14918  18.719   6.864   4.323
51195W        W14919  13.112  10.327   3.637
51196W        W14920   6.342   6.419  14.958
51197W        W14921  23.534  14.694   0.915
51198W        W14922   5.933   8.682   0.755
51199W        W14923  35.514  34.603  13.328
51200W        W14924  43.432  33.477   2.819
51201W        W14925  13.687  29.131   4.315
51202W        W14926  31.937  25.607  13.488
51203W        W14927  34.587  34.599   0.855
51204W        W14928  27.667  40.547   2.235
51205W        W14929  30.430   3.952  10.628
51206W        W14930  19.580  21.139   3.218
51207W        W14931  11.626   7.862   0.316
51208W        W14932  44.331  34.473   5.630
51209W        W14933  26.105  25.694   4.610
51210W        W14934   5.270  20.583   3.829
51211W        W14935  13.216  11.644  12.555
51212W        W14936  19.251  28.677   2.749
51213W        W14937   2.301  38.885   0.477
51214W        W14938  39.356  33.961  13.471
51215W        W14939  18.740  39.551   1.774
51216W        W14940  34.496  16.737   1.863
51217W        W14941  41.010  27.099   2.872
51218W        W14942   7.214  22.042   3.279
51219W        W14943  20.137  14.614  12.383
51220W        W14944  24.609  18.227   2.359
51221W        W14945  31.463  40.831  11.916
51222W        W14946  20.052  44.420   3.720
51223W        W14947  38.409  19.580  13.524
51224W        W14948   9.195  27.992   4.138
51225W        W14949   5.417  28.003   3.231
51226W        W14950  15.289  16.625  11.127
51227W        W14951   3.797   7.730   2.311
51228W        W14952  22.134  31.645  13.503
51229W        W14953  15.171   9.886   2.746
51230W        W14954   7.310  13.651  10.472
51231W        W14955  31.498   0.780   1.910
51232W        W14956   4.898   3.776  14.293
51233W        W14957  38.974   8.764   3.838
51234W        W14958  36.094   1.471   3.794
51235W        W14959   9.269  20.613  11.100
51236W        W14960  43.401   2.465  10.587
51237W        W14961  43.377   6.377   3.284
51238W        W14962  22.183   7.304  10.415
51239W        W14963  10.746  31.140   0.242
51240W        W14964  39.920  30.590   0.845
51241W        W14965   4.368  37.389   3.776
51242W        W14966  31.530   7.787   4.776
51243W        W14967  24.082  24.070  13.502
51244W        W14968  36.937   9.869   4.235
51245W        W14969  29.452   6.220  12.094
51246W        W14970  33.909  17.072  13.426
51247W        W14971  23.013  19.097   2.286
51248W        W14972  34.101   7.261   3.357
51249W        W14973  13.723   9.830  14.836
51250W        W14974   7.371  37.914   3.207
51251W        W14975   5.876  32.096  14.903
51252W        W14976  13.703  34.074   0.284
51253W        W14977  22.064  13.171   1.766
51254W        W14978  32.113   2.921   0.247
51255W        W14979  20.562  10.140   2.245
51256W        W14980   1.453  28.455  13.990
51257W        W14981  34.974  25.036  10.981
51258W        W14982   8.405  10.349  14.433
51259W        W14983   4.887  21.100   0.916
51260W        W14984   3.395   7.328  13.028
51261W        W14985  23.664  36.471  14.929
51262W        W14986  18.212  16.307   3.378
51263W        W14987  21.142  11.333   3.329
51264W        W14988  19.244   1.790   3.812
51265W        W14989   3.887  26.998   1.448
51266W        W14990   2.731   4.268  14.002
51267W        W14991  36.063  10.660  10.539
51268W        W14992  24.194   0.406  14.894
51269W        W14993   6.209  41.374  11.897
51270W        W14994  18.712   7.846   0.926
51271W        W14995  41.377  40.502   1.725
51272W        W14996  25.513  16.603  13.869
51273W        W14997  27.677  16.294  14.794
51274W        W14998   4.714  29.128   3.274
51275W        W14999   8.697   6.390   2.270
51276W        W15000   3.439  34.083   3.250
51277W        W15001  37.429  25.151   2.890
51278W        W15002  21.523  12.133  11.920
51279W        W15003  15.236   6.380  14.289
51280W        W15004  18.600  16.567  12.496
51281W        W15005   7.864  43.435   1.708
51282W        W15006   0.935  30.657   1.288
51283W        W15007   3.904  19.677   5.208
51284W        W15008  41.879  36.090   1.316
51285W        W15009  29.064  43.863   0.379
51286W        W15010   5.797  36.400   0.484
51287W        W15011  37.069  34.436  13.893
51288W        W15012  26.684   9.889  11.461
51289W        W15013   0.346  24.055  12.042
51290W        W15014   6.299  37.366  14.465
51291W        W15015  31.052  13.165   4.640
51292W        W15016  17.778   4.928  13.799
51293W        W15017   0.370   3.451  11.901
51294W        W15018   1.357  29.090   1.743
51295W        W15019  19.106   4.278   1.778
51296W        W15020   0.478  19.594  11.904
51297W        W15021   2.245  42.983  10.032
51298W        W15022  10.833  19.673   2.408
51299W        W15023  38.346  16.598   3.224
51300W        W15024  29.925  10.793   2.749
51301W        W15025  16.732   1.844   4.726
51302W        W15026   5.324   1.752   3.753
51303W        W15027  20.112  23.566  12.009
51304W        W15028  10.359   6.848   3.183
51305W        W15029   9.287  33.589   1.381
51306W        W15030  36.501  31.453  10.527
51307W        W15031  21.555  34.428   1.290
51308W        W15032  42.473  21.706   3.296
51309W        W15033  38.071  35.982   3.830
51310W        W15034  27.104  25.544  11.097
51311W        W15035  38.345  12.854  11.913
51312W        W15036   9.170  21.646   2.766
51313W        W15037  31.504  19.566  12.522
51314W        W15038   5.353   0.493  12.572
51315W        W15039  43.850  35.470  14.764
51316W        W15040  36.890   1.338   1.839
51317W        W15041  37.863  13.801  11.600
51318W        W15042  29.456   9.671   3.753
51319W        W15043  11.309  14.135  13.468
51320W        W15044  29.019   3.218   5.254
51321W        W15045  41.978  13.784   4.141
51322W        W15046  35.020   2.387  11.419
51323W        W15047   7.352   4.913  14.983
51324W        W15048  12.704  36.932   3.782
51325W        W15049   7.242  17.668   1.283
51326W        W15050   4.435  42.311  13.423
51327W        W15051  40.919  26.579   4.803
51328W        W15052   7.744  43.328   1.351
51329W        W15053  10.713  23.042   3.147
51330W        W15054  16.691  10.214   2.829
51331W        W15055  20.717  37.085   2.205
51332W        W15056  27.001  22.530   0.891
51333W        W15057   6.849  28.466  12.008
51334W        W15058  15.197   6.724   5.717
51335W        W15059  23.985   4.862  14.030
51336W        W15060   4.865  22.611   0.461
51337W        W15061  21.065  27.113  13.486
51338W        W15062  18.267  38.394  10.912
51339W        W15063  12.634  28.663  11.928
51340W        W15064  18.707  35.486  13.875
51341W        W15065  38.982   2.435   4.732
51342W        W15066  10.835  43.855  14.330
51343W        W15067   0.938  43.951   3.757
51344W        W15068  15.138  44.790   1.785
51345W        W15069   3.386  41.998   3.258
51346W        W15070  32.462  16.642   2.851
51347W        W15071  16.682  30.919   4.144
51348W        W15072   1.896   3.266   3.253
51349W        W15073  30.584  25.139   2.875
51350W        W15074  24.547  34.057  14.276
51351W        W15075  30.027  42.436  14.391
51352W        W15076  16.616  30.549  12.828
51353W        W15077  29.657  44.452  12.563
51354W        W15078  18.184  10.755  11.566
51355W        W15079  19.664  23.517   0.804
51356W        W15080  39.890   9.281   1.728
51357W        W15081  34.451   7.282  14.922
51358W        W15082   1.243  15.763  13.485
51359W        W15083  12.218  14.805  13.847
51360W        W15084  26.700   5.439   0.752
51361W        W15085  19.104  26.199   4.272
51362W        W15086  27.655  20.646   3.725
51363W        W15087  18.232   9.663  11.974
51364W        W15088   7.356  42.452  10.552
51365W        W15089  20.270  29.631   2.213
51366W        W15090  37.378   6.766  10.929
51367W        W15091  44.813  36.948  12.547
51368W        W15092  15.280  34.607  14.808
51369W        W15093   6.299  17.720  13.941
51370W        W15094   2.743  42.825   0.482
51371W        W15095   4.850  22.669  12.909
51372W        W15096  13.733   8.174   1.264
51373W        W15097  34.119  22.179   0.742
51374W        W15098  24.022   9.657  12.065
51375W        W15099  35.942   3.449   3.664
51376W        W15100  30.529   6.236  13.988
51377W        W15101   0.270  10.707   0.316
51378W        W15102  15.141  39.941   4.347
51379W        W15103  36.986  36.465  10.930
51380W        W15104  16.294  22.149   2.406
51381W        W15105  13.316  34.497   1.888
51382W        W15106  36.590  15.251   0.905
51383W        W15107  22.150  37.900  14.874
51384W        W15108  39.031  10.223   1.876
51385W        W15109  37.874   1.424  13.493
51386W        W15110   2.256  13.682  12.368
51387W        W15111  29.432   7.707  11.107
51388W        W15112  37.933  37.392  12.872
51389W        W15113  40.322   0.424  10.531
51390W        W15114   6.889  37.034   4.708
51391W        W15115  15.099   0.419  11.392
51392W        W15116  20.751   5.385   4.732
51393W        W15117  28.587  12.673   0.342
51394W        W15118  18.613  13.107  10.097
51395W        W15119   9.848   0.479  13.888
51396W        W15120   4.808  18.684   2.901
51397W        W15121   0.325   8.236  13.797
51398W        W15122   7.308  19.199   4.340
51399W        W15123  14.279  44.892  11.552
51400W        W15124  25.192   6.307   0.905
51401W        W15125  12.855   7.890  10.426
51402W        W15126  43.457  20.250  12.834
51403W        W15127  24.715  36.976   3.632
51404W        W15128   4.358  40.529  12.919
51405W        W15129  24.505  39.350  12.552
51406W        W15130  43.802  25.584  10.024
51407W        W15131  25.973  10.185  13.910
51408W        W15132  34.094  39.964  10.444
51409W        W15133   6.774   5.831   4.303
51410W        W15134  39.439  18.563  10.642
51411W        W15135  16.305  24.532   0.420
51412W        W15136  26.195  11.313  12.028
51413W        W15137  42.521  11.845   2.741
51414W        W15138  17.639  29.052  12.982
51415W        W15139  29.606  40.886   1.748
51416W        W15140  26.549  25.679  10.615
51417W        W15141   6.802  38.952  13.322
51418W        W15142  20.733  29.058   1.913
51419W        W15143   2.848  33.902  10.641
51420W        W15144   9.783  20.657  14.394
51421W        W15145   3.926  41.971  12.081
51422W        W15146  22.693   4.275  12.035
51423W        W15147  44.943  38.541  13.822
51424W        W15148  37.957   0.858  12.368
51425W        W15149  36.004   9.183  11.584
51426W        W15150   5.875  11.793  11.987
51427W        W15151  38.452  40.365   3.763
51428W        W15152  38.952  35.954   0.833
51429W        W15153   5.757   5.221  10.523
51430W        W15154   4.255   5.219   0.962
51431W        W15155   1.360  15.134   1.883
51432W        W15156  30.968  24.981   0.784
51433W        W15157  16.697   7.338  12.526
51434W        W15158  27.503  21.080   1.772
51435W        W15159  34.887   0.946  10.998
51436W        W15160  27.657  37.043   4.205
51437W        W15161  12.330  39.958  14.353
51438W        W15162  22.500  38.522  11.594
51439W        W15163  38.521  35.439   0.440
51440W        W15164  15.793  38.952   2.350
51441W        W15165  41.991  31.935  13.363
51442W        W15166   2.458  18.695  10.585
51443W        W15167  18.058  27.030  13.936
51444W        W15168  28.572  29.581  14.436
51445W        W15169  41.798   9.377  11.411
51446W        W15170   8.231  36.905   0.756
51447W        W15171   7.904  37.367  10.641
51448W        W15172   7.734  12.706  14.477
51449W        W15173   6.231  22.096  13.547
51450W        W15174  11.248   6.246  11.027
51451W        W15175   5.250  26.553  14.833
51452W        W15176  38.030  11.826  12.579
51453W        W15177  39.376  39.500  14.884
51454W        W15178   2.295  26.197   2.247
51455W        W15179  35.404  28.142   0.319
51456W        W15180  31.614  27.683   4.781
51457W        W15181  14.191   3.283  13.853
51458W        W15182  35.898  14.801  13.507
51459W        W15183  19.574  27.195   1.426
51460W        W15184  10.872   5.221   2.250
51461W        W15185  42.986   5.866  12.881
51462W        W15186  32.031  22.139  11.109
51463W        W15187  23.215   5.691   2.897
51464W        W15188  22.159   8.384  12.086
51465W        W15189  11.787  34.428  12.528
51466W        W15190  23.547  27.040   5.750
51467W        W15191  13.834  12.802   3.802
51468W        W15192  26.961   9.270  13.311
51469W        W15193   0.925  16.274   0.453
51470W        W15194  41.332  10.853   4.759
51471W        W15195   0.322   4.859   2.188
51472W        W15196  14.188  32.425   0.848
51473W        W15197  10.315   7.294  10.517
51474W        W15198  23.122   5.907  11.557
51475W        W15199  21.138  12.330   3.175
51476W        W15200  26.471  40.341  11.884
51477W        W15201   2.381  25.101  12.944
51478W        W15202  18.064  14.179  11.860
51479W        W15203  20.034  21.199  14.792
51480W        W15204  41.485  41.394   2.817
51481W        W15205  43.019  25.161  10.888
51482W        W15206  35.562  42.976  11.394
51483W        W15207  40.039   5.718  12.093
51484W        W15208   9.289  23.056   4.804
51485W        W15209  16.802  24.577   3.248
51486W        W15210  39.555   9.835   0.284
51487W        W15211   4.853   2.432  12.409
51488W        W15212   3.907   8.777  14.922
51489W        W15213  36.886  16.229   1.345
51490W        W15214  10.705  41.018  12.410
51491W        W15215   0.406  40.006   1.716
51492W        W15216  33.123   7.724   1.288
51493W        W15217  18.110  16.727   0.835
51494W        W15218  39.542   2.784  12.011
51495W        W15219  22.568  35.061  10.549
51496W        W15220  27.154  15.138   1.921
51497W        W15221  29.132  21.243   1.338
51498W        W15222   8.216   8.863   0.388
51499W        W15223  35.007  39.998   2.283
51500W        W15224  37.040  36.394   0.336
51501W        W15225  15.590  35.432   2.305
51502W        W15226  27.035   6.733   1.877
51503W        W15227  40.029  20.616   2.812
51504W        W15228   7.251  22.236  14.761
51505W        W15229  32.465  37.042  13.503
51506W        W15230  31.014   6.870  13.355
51507W        W15231  19.765  11.269  11.549
51508W        W15232  40.535  10.173   4.325
51509W        W15233  32.593  16.209  13.360
51510W        W15234  38.032  37.008   2.703
51511W        W15235  10.228   1.402  12.977
51512W        W15236  11.785  31.605  11.869
51513W        W15237   3.426  18.167  10.059
51514W        W15238  19.176  33.956   4.288
51515W        W15239  36.929   7.806  14.459
51516W        W15240  29.655  24.155  11.549
51517W        W15241  26.159   8.205   0.283
51518W        W15242   5.368  36.927  11.573
51519W        W15243  12.643  37.947   2.184
51520W        W15244  34.926  39.871   4.290
51521W        W15245  35.368  13.769   1.328
51522W        W15246  39.892   1.385  12.526
51523W        W15247  13.631  21.258  12.511
51524W        W15248  10.726  26.517  10.927
51525W        W15249  20.222  23.006   2.681
51526W        W15250  43.339  28.587   0.788
51527W        W15251  17.086   4.230  12.057
51528W        W15252  24.511  16.218   4.262
51529W        W15253   6.329  21.602  12.035
51530W        W15254   0.832  17.264  14.832
51531W        W15255  22.738  31.580   3.657
51532W        W15256  11.180  30.950   2.863
51533W        W15257  24.189  21.644   4.690
51534W        W15258  20.153  37.349  12.470
51535W        W15259  32.464  35.554   4.603
51536W        W15260  27.524  12.828  13.450
51537W        W15261  44.268  31.978   2.789
51538W        W15262  41.905  24.120  11.944
51539W        W15263  33.614  28.972   2.725
51540W        W15264   4.369  20.694   4.355
51541W        W15265   0.259  19.650   2.681
51542W        W15266  19.254  40.436   3.364
51543W        W15267  29.449  23.509  11.490
51544W        W15268  23.592  10.645  11.975
51545W        W15269   4.733  24.487  13.420
51546W        W15270  22.584  36.466   2.320
51547W        W15271   3.939  18.088  12.360
51548W        W15272  29.122  22.216  12.862
51549W        W15273   1.288  26.199  12.056
51550W        W15274  38.888  22.663   4.790
51551W        W15275  32.925  37.982  11.903
51552W        W15276  36.527  28.510   0.334
51553W        W15277  35.379   7.800  13.392
51554W        W15278  41.471  25.177  10.907
51555W        W15279  25.662  32.561   0.946
51556W        W15280  26.182  11.726   3.728
51557W        W15281  39.054   2.277  12.462
51558W        W15282  16.574  39.382   4.752
51559W        W15283  30.124   0.315  10.548
51560W        W15284  22.673  16.612   1.361
51561W        W15285  36.517  28.069   2.277
51562W        W15286  24.183  36.431  13.540
51563W        W15287  37.878  10.679   4.155
51564W        W15288   4.313  40.890  10.610
51565W        W15289  23.097  23.095  12.017
51566W        W15290  16.719   9.716   1.406
51567W        W15291  31.089  19.054  13.991
51568W        W15292  18.102  38.396  14.420
51569W        W15293  18.621   0.775   3.167
51570W        W15294  32.909  13.774   2.796
51571W        W15295  30.009  37.835  13.353
51572W        W15296   4.244  19.563  14.330
51573W        W15297  42.516  19.285  13.047
51574W        W15298  42.964  12.736  10.957
51575W        W15299  38.048  19.101  14.888
51576W        W15300  18.549   2.962  13.018
51577W        W15301  15.233  23.124   4.183
51578W        W15302  28.520  32.409  13.925
51579W        W15303  44.278  27.495   2.836
51580W        W15304   2.359  31.966  11.392
51581W        W15305  28.034  20.263   1.802
51582W        W15306  42.931  29.025  13.369
51583W        W15307  21.052  38.922   2.303
51584W        W15308   7.784  11.245  11.062
51585W        W15309  36.349  13.609  13.386
51586W        W15310   5.828  40.964   4.604
51587W        W15311   8.234   8.261   2.856
51588W        W15312   6.346  29.142   0.834
51589W        W15313  10.805   7.875  11.024
51590W        W15314  34.925  44.834  12.918
51591W        W15315  33.418  39.483  14.825
51592W        W15316  18.691  22.241  12.070
51593W        W15317  14.747  23.654   0.858
51594W        W15318  36.867   0.863   4.114
51595W        W15319   2.885  19.201   1.878
51596W        W15320  12.693  14.260   3.867
51597W        W15321  26.663  40.345  13.999
51598W        W15322  37.396  36.584   2.368
51599W        W15323  44.272  33.461   4.142
51600W        W15324  31.403  27.940   1.896
51601W        W15325   1.351   3.773  14.031
51602W        W15326  36.923  14.287  12.518
51603W        W15327  25.710  29.460   1.400
51604W        W15328   9.760  44.798   1.350
51605W        W15329  23.502  13.663  13.043
51606W        W15330  23.058   3.794  11.513
51607W        W15331  24.582  40.805   2.298
51608W        W15332  36.082  34.446  12.850
51609W        W15333  22.581  36.545   0.294
51610W        W15334  19.690  22.512  14.779
51611W        W15335  30.575  40.855   1.765
51612W        W15336  32.604  26.086   2.384
51613W        W15337   0.275  17.722  11.071
51614W        W15338  41.511   3.853   0.829
51615W        W15339  39.530   8.169   1.305
51616W        W15340   0.898   0.843   0.476
51617W        W15341  16.602  22.122   0.462
51618W        W15342  18.205  17.614   3.357
51619W        W15343  20.209  25.670  13.039
51620W        W15344  31.516  34.963  13.532
51621W        W15345  21.542  16.297  10.012
51622W        W15346   0.298  10.373  10.433
51623W        W15347  35.048  38.453  13.901
51624W        W15348  12.352  30.982   3.648
51625W        W15349  18.291  31.945  14.889
51626W        W15350  23.088  18.224  12.409
51627W        W15351  32.079  28.145   2.237
51628W        W15352   3.808  32.556   4.150
51629W        W15353  11.748   2.842  14.396
51630W        W15354  33.050  10.749  14.308
51631W        W15355   8.667  10.138   0.346
51632W        W15356  41.005   4.934  14.399
51633W        W15357  40.506  38.402  13.027
51634W        W15358  12.231  31.931   3.832
51635W        W15359  10.795   3.307  11.488
51636W        W15360   7.246  43.484  11.545
51637W        W15361  13.813  21.176   0.307
51638W        W15362  11.141  31.141   1.892
51639W        W15363  18.101  24.977  10.637
51640W        W15364  42.416   8.820   2.381
51641W        W15365  26.699  30.973   4.167
51642W        W15366  17.658  39.426  14.276
51643W        W15367  39.367  34.076  13.973
51644W        W15368   4.249   1.302  12.437
51645W        W15369  35.497  31.020   2.201
51646W        W15370   1.281  21.635   2.858
51647W        W15371  21.078  34.000  13.037
51648W        W15372  37.880  16.653  14.325
51649W        W15373  28.931  38.416   3.266
51650W        W15374  34.436   4.327  13.928
51651W        W15375  30.412   4.861   3.158
51652W        W15376   5.801  39.876   2.268
51653W        W15377  15.801  32.983   0.402
51654W        W15378  33.482  17.219   5.299
51655W        W15379  25.587  24.562  13.909
51656W        W15380   7.742  28.505  14.311
51657W        W15381  30.412  19.100  11.868
51658W        W15382  39.434  27.462   3.308
51659W        W15383   7.852  11.320  11.893
51660W        W15384  16.676  43.882   1.280
51661W        W15385  19.620   5.332   0.967
51662W        W15386   7.328  35.010  13.927
51663W        W15387  39.555   1.439   4.263
51664W        W15388  43.933  16.726  10.465
51665W        W15389   6.387  34.012  12.543
51666W        W15390  17.256  44.963   9.956
51667W        W15391  21.649   1.882   0.766
51668W        W15392  22.710   1.406   2.786
51669W        W15393  24.193  10.316  11.560
51670W        W15394  34.017  28.587  13.810
51671W        W15395  17.782  28.660   2.863
51672W        W15396  39.472  27.998  14.461
51673W        W15397   1.771   0.255  10.915
51674W        W15398  27.607  33.433  12.893
51675W        W15399  15.238   4.815  14.025
51676W        W15400  26.127   5.218   0.747
51677W        W15401  32.390  43.438  11.977
51678W        W15402  14.294  10.275  13.382
51679W        W15403  14.822  11.716   3.382
51680W        W15404   7.274  25.524   4.218
51681W        W15405   2.271  27.990  10.438
51682W        W15406  35.863  41.894   3.867
51683W        W15407  15.590  42.948   5.119
51684W        W15408   5.236  29.922  13.377
51685W        W15409  42.905   1.849   4.733
51686W        W15410   6.683   5.358  14.766
51687W        W15411  10.143  41.805   0.267
51688W        W15412  36.930  16.805  14.784
51689W        W15413  41.849   0.345   0.256
51690W        W15414  42.781  18.591   4.230
51691W        W15415  10.711   3.341  14.853
51692W        W15416   2.432   8.731  13.040
51693W        W15417  36.481  43.922  10.955
51694W        W15418  12.356  17.302   3.701
51695W        W15419   5.826  43.958  11.855
51696W        W15420  43.344  35.504  11.560
51697W        W15421  17.638  18.206  10.540
51698W        W15422  27.524  38.996  10.500
51699W        W15423  23.003  39.874  11.398
51700W        W15424  23.599  36.370  13.910
51701W        W15425  10.774  26.679   3.641
51702W        W15426  29.552  37.065  11.099
51703W        W15427  36.562  18.291  14.948
51704W        W15428   0.755  39.548  12.390
51705W        W15429  17.635  27.485   3.202
51706W        W15430  39.314   3.762   3.777
51707W        W15431  23.604  28.493  14.445
51708W        W15432  40.927  26.541   2.698
51709W        W15433  43.902  23.168  11.570
51710W        W15434  21.699   4.304  13.920
51711W        W15435  39.472  18.262   1.349
51712W        W15436  15.149  44.385  10.577
51713W        W15437  20.576  27.518   4.306
51714W        W15438  10.760   0.862  13.487
51715W        W15439  34.407  13.108   5.109
51716W        W15440  25.525   3.349  11.088
51717W        W15441   6.892  22.538   0.914
51718W        W15442  21.207  42.345   0.414
51719W        W15443   8.258   6.869  13.018
51720W        W15444  13.838   5.933  13.421
51721W        W15445   2.864   4.889  10.473
51722W        W15446   1.866  26.665  10.469
51723W        W15447  30.628  36.397   1.235
51724W        W15448   1.875  11.282  12.995
51725W        W15449  12.273  17.771  13.440
51726W        W15450  14.787  12.319  13.059
51727W        W15451  21.020  20.556  10.470
51728W        W15452   0.433  36.409   1.390
51729W        W15453  44.990  42.441   0.348
51730W        W15454  41.489   9.184   2.880
51731W        W15455  25.976   9.305  13.895
51732W        W15456  11.346  10.284   0.950
51733W        W15457  22.243  38.472   3.835
51734W        W15458  16.604  41.791   2.304
51735W        W15459   2.398  18.606   0.796
51736W        W15460  11.133  44.846  14.342
51737W        W15461  25.027   9.270  12.578
51738W        W15462  21.632   2.794   0.257
51739W        W15463  22.205  37.499   5.191
51740W        W15464  34.013   8.272   1.719
51741W        W15465  14.198  16.145   1.768
51742W        W15466  42.905   1.434   4.813
51743W        W15467  34.080  43.341   1.730
51744W        W15468  24.065  23.073  13.504
51745W        W15469  36.875  20.761   4.750
51746W        W15470   6.185  28.681  11.036
51747W        W15471   2.792  11.776   2.288
51748W        W15472   8.404  10.727   1.900
51749W        W15473  13.305  19.217  13.027
51750W        W15474   2.445   0.476  11.877
51751W        W15475  32.060   0.873   0.902
51752W        W15476  27.021  37.848   2.854
51753W        W15477  13.347  22.520  13.041
51754W        W15478  36.490  22.999  14.284
51755W        W15479  33.459   7.383   2.358
51756W        W15480  33.102  34.415  13.996
51757W        W15481   6.862  41.867   0.879
51758W        W15482   7.354  31.021   0.802
51759W        W15483  22.742  27.540   2.210
51760W        W15484  15.667  37.384  13.021
51761W        W15485  44.802  38.819  11.940
51762W        W15486  19.178  15.130  13.351
51763W        W15487  21.145  23.576   1.233
51764W        W15488  41.303  21.660   1.902
51765W        W15489   8.819  34.421   1.778
51766W        W15490   0.425  32.970   1.864
51767W        W15491  25.198  39.397   4.261
51768W        W15492  29.619   2.247  11.009
51769W        W15493  38.058  10.812  12.392
51770W        W15494  17.252  13.159   3.663
51771W        W15495  26.113  18.559  13.891
51772W        W15496  42.428  35.890  14.384
51773W        W15497   2.279   0.282  11.380
51774W        W15498  12.715   8.305  13.313
51775W        W15499  22.073  18.691  13.019
51776W        W15500  20.644  34.438  13.003
51777W        W15501  14.168  37.910  11.956
51778W        W15502  32.436  38.944   4.810
51779W        W15503   8.754  15.816  13.333
51780W        W15504   8.852  28.464  13.535
51781W        W15505   9.391   3.856  11.514
51782W        W15506  15.323  34.508   3.174
51783W        W15507   6.701   9.236   1.317
51784W        W15508  23.694  41.956  10.474
51785W        W15509  38.053  37.558   5.171
51786W        W15510  16.694  28.062  13.933
51787W        W15511  22.652  34.052   2.747
51788W        W15512  10.178  26.634  12.454
51789W        W15513  39.958  28.660   1.918
51790W        W15514  41.355  30.062   1.759
51791W        W15515  44.457  40.820  10.409
51792W        W15516  14.734   8.843  12.424
51793W        W15517  15.812  16.795   3.676
51794W        W15518  27.049  23.576   2.878
51795W        W15519  37.834  25.590   2.298
51796W        W15520  30.973  42.810  14.988
51797W        W15521  29.164  24.620  11.009
51798W        W15522   1.953  28.071   0.835
51799W        W15523   0.350   1.245   4.247
51800W        W15524  17.079   9.380  11.002
51801W        W15525   9.311  14.710   4.640
51802W        W15526  35.094   3.771   4.797
51803W        W15527  21.737   7.818   4.297
51804W        W15528  14.156  12.229  12.069
51805W        W15529   5.295   1.446  12.827
51806W        W15530  34.496  34.427   1.366
51807W        W15531  14.120  39.489  14.302
51808W        W15532  19.709  18.096  14.021
51809W        W15533   2.832  18.069  12.001
51810W        W15534  26.459  23.132   3.664
51811W        W15535   5.800  24.618   1.777
51812W        W15536  13.819   0.946   0.885
51813W        W15537  34.870  11.651  12.036
51814W        W15538  13.289  30.457   0.825
51815W        W15539  37.019  36.469  11.592
51816W        W15540  11.678  26.075  14.786
51817W        W15541   7.313  29.032   4.604
51818W        W15542   0.394  28.958   0.820
51819W        W15543  21.550  35.481   2.245
51820W        W15544   1.975  28.629  13.528
51821W        W15545   6.906  43.461   0.886
51822W        W15546  23.038  10.737  12.526
51823W        W15547   3.255  22.592   2.685
51824W        W15548  43.335  23.575  12.452
51825W        W15549  18.160  18.255  14.365
51826W        W15550  14.631   2.925   3.687
51827W        W15551  30.659  43.001   3.158
51828W        W15552  34.071  30.544  10.898
51829W        W15553  19.716   8.309   4.770
51830W        W15554  41.852  33.603  11.051
51831W        W15555  10.165   1.908   3.332
51832W        W15556  19.283   0.403  13.930
51833W        W15557  38.511   5.415   2.312
51834W        W15558  37.446   4.909  11.906
51835W        W15559  41.888  12.214  12.850
51836W        W15560  24.621  19.629   2.665
51837W        W15561   9.744  43.435  12.525
51838W        W15562  36.097   9.832  10.919
51839W        W15563  43.002  44.274  13.906
51840W        W15564  14.227  44.008  14.826
51841W        W15565  35.023   1.262  13.458
51842W        W15566  19.546  21.693  11.483
51843W        W15567  14.809  32.543  11.881
51844W        W15568  33.404   3.939   9.933
51845W        W15569  17.590   0.987  12.513
51846W        W15570  33.939  30.160   0.848
51847W        W15571  44.368  30.031  11.905
51848W        W15572   4.439  36.394   1.280
51849W        W15573  12.836  19.184   2.680
51850W        W15574  18.268  25.471   0.314
51851W        W15575  16.768  19.630  13.387
51852W        W15576  18.087  42.007   0.809
51853W        W15577  21.099  34.104   2.343
51854W        W15578  27.673  21.665  10.621
51855W        W15579  16.716  13.153  10.956
51856W        W15580  42.961  36.020  14.456
51857W        W15581   0.899  32.059  14.385
51858W        W15582  34.989  22.163  13.447
51859W        W15583  25.140  44.448  12.547
51860W        W15584  20.202  28.474   1.344
51861W        W15585  18.616  31.493  10.561
51862W        W15586  34.011  16.750  10.001
51863W        W15587  43.364  27.485  11.004
51864W        W15588  23.997  39.854  12.090
51865W        W15589   3.354  14.226   0.886
51866W        W15590  32.414   1.763  13.924
51867W        W15591   6.696  42.947  12.372
51868W        W15592   9.744  20.044   3.330
51869W        W15593   9.862  37.379   0.348
51870W        W15594   1.734   6.721  11.408
51871W        W15595  14.285  22.661  11.552
51872W        W15596   2.725   1.394   4.737
51873W        W15597  32.632   0.437  13.947
51874W        W15598  38.853  39.329  11.943
51875W        W15599   7.697   7.895  11.455
51876W        W15600  41.465  24.108   4.219
51877W        W15601  26.700   6.841  14.910
51878W        W15602   0.292  32.524  14.968
51879W        W15603  19.271  29.978  11.023
51880W        W15604  21.019  28.119  13.812
51881W        W15605  39.972  35.551  13.928
51882W        W15606  28.020  21.052  11.975
51883W        W15607  38.458  31.126   0.439
51884W        W15608  21.254   1.942  12.069
51885W        W15609  29.153   3.253  12.018
51886W        W15610  25.711  32.096   2.393
51887W        W15611  37.417  18.602   1.740
51888W        W15612   5.377   2.364  14.998
51889W        W15613  42.990   7.747   0.294
51890W        W15614  41.534  37.047  10.513
51891W        W15615  10.746  23.503  12.943
51892W        W15616  17.722  15.601   4.805
51893W        W15617  22.720  10.632   4.688
51894W        W15618  42.998  20.153   1.888
51895W        W15619  23.067  38.067  10.137
51896W        W15620  30.456  10.187   1.446
51897W        W15621   3.879  42.465  10.889
51898W        W15622  39.009  37.358  14.351
51899W        W15623  38.028  10.680  13.411
51900W        W15624  40.018   1.477   0.337
51901W        W15625  22.028   4.884  11.100
51902W        W15626   3.743  32.984   3.251
51903W        W15627  20.031  37.483   4.223
51904W        W15628  12.208  29.144   3.256
51905W        W15629  11.324  43.788  12.478
51906W        W15630  43.295  16.637   2.712
51907W        W15631   2.462  25.713   1.383
51908W        W15632   6.218   5.732   2.357
51909W        W15633  26.509  31.450  13.400
51910W        W15634  10.866  15.098   4.245
51911W        W15635  23.699  22.165  11.908
51912W        W15636  12.790   5.921  14.892
51913W        W15637  25.984  31.031   3.841
51914W        W15638  18.180  44.425   0.768
51915W        W15639  16.109   5.885   3.655
51916W        W15640   1.957  30.603   0.888
51917W        W15641   8.683   9.341  12.032
51918W        W15642  13.185  37.860  11.002
51919W        W15643  30.041   6.738   2.875
51920W        W15644  25.084  43.773  11.921
51921W        W15645  17.722  19.728   0.767
51922W        W15646  41.415  18.130  14.516
51923W        W15647   9.346  17.122  10.935
51924W        W15648  38.006  42.441  12.825
51925W        W15649  19.136   5.746  12.475
51926W        W15650  20.642   2.367   2.901
51927W        W15651  41.798  25.070   3.689
51928W        W15652  34.873  11.832   3.252
51929W        W15653  32.480   2.435  14.933
51930W        W15654  11.299  19.127  12.061
51931W        W15655  26.978  32.614   3.667
51932W        W15656  26.170  24.157   3.150
51933W        W15657  18.559   2.288   2.859
51934W        W15658  44.451   2.377   1.316
51935W        W15659  16.117   1.898  10.471
51936W        W15660   9.695   6.767  11.458
51937W        W15661  30.502   5.709   4.328
51938W        W15662  40.953   3.256  11.917
51939W        W15663   2.874  35.971  14.868
51940W        W15664  31.086  19.098  11.456
51941W        W15665   2.955  31.461  12.559
51942W        W15666   3.263  27.165   3.637
51943W        W15667  26.091  25.128   1.818
51944W        W15668   7.399  37.546   1.871
51945W        W15669  18.248  16.119  14.430
51946W        W15670   6.729   1.239  11.074
51947W        W15671  11.194   5.317   0.270
51948W        W15672   4.427  19.656   1.745
51949W        W15673   8.184  31.134   1.715
51950W        W15674  19.066   4.733  10.019
51951W        W15675  41.863  30.958  14.016
51952W        W15676  12.322  37.395   0.342
51953W        W15677  44.409  37.409  10.622
51954W        W15678  11.810   7.402   3.343
51955W        W15679  40.380  30.923   1.324
51956W        W15680  23.591  43.359   0.732
51957W        W15681   8.835  44.459  11.487
51958W        W15682  39.958  28.674   1.355
51959W        W15683  34.937  23.045   3.685
51960W        W15684   1.265  28.052   2.287
51961W        W15685  26.986  38.061   4.783
51962W        W15686  15.169   8.360   5.708
51963W        W15687  17.209  26.988  13.965
51964W        W15688   9.748   4.716   3.781
51965W        W15689   2.835  29.526   2.402
51966W        W15690  29.049  10.369   1.817
51967W        W15691  41.841   0.382  11.921
51968W        W15692  14.714  21.733   1.243
51969W        W15693  17.692  34.479   4.645
51970W        W15694  16.301   8.306   2.719
51971W        W15695   6.213  40.517   4.707
51972W        W15696  36.096   6.349  11.062
51973W        W15697  17.096  19.103   0.351
51974W        W15698  42.906  23.501  12.422
51975W        W15699  40.830  29.983   2.402
51976W        W15700  12.712   1.795   1.697
51977W        W15701  42.391  23.714   3.269
51978W        W15702  27.659  39.923   3.225
51979W        W15703  20.658  36.477  13.423
51980W        W15704  23.540   7.263   1.923
51981W        W15705  23.194   8.271   3.156
51982W        W15706  33.468  38.866   2.296
51983W        W15707  13.705  27.007  12.042
51984W        W15708  27.535  13.148   0.301
51985W        W15709  16.579   9.228  14.432
51986W        W15710  13.765   4.331  14.910
51987W        W15711  27.463  23.676   1.715
51988W        W15712  19.091   2.337   0.358
51989W        W15713   2.246  18.058  13.462
51990W        W15714   1.890  35.106  11.612
51991W        W15715  27.581   1.918   0.416
51992W        W15716  29.109  26.682  10.579
51993W        W15717   0.936  17.709   1.264
51994W        W15718   1.450   9.869   2.877
51995W        W15719  11.275  13.238   1.235
51996W        W15720  35.492   4.395   2.369
51997W        W15721  23.126  23.985  13.313
51998W        W15722  23.067  28.111   4.627
51999W        W15723  14.183  15.758   2.885
52000W        W15724  31.074   2.789   0.868
52001W        W15725  16.708   2.737   0.384
52002W        W15726   3.804  37.392  12.397
52003W        W15727  18.232  19.112  12.886
52004W        W15728  41.515  37.536   0.294
52005W        W15729  21.164  29.636   3.864
52006W        W15730  39.418  33.064  14.463
52007W        W15731  41.977  21.691   1.698
52008W        W15732  43.291  12.673   1.754
52009W        W15733  38.993   0.867  12.982
52010W        W15734  15.181  15.294  11.495
52011W        W15735  12.314  43.308   4.621
52012W        W15736  37.426  23.505  12.382
52013W        W15737  29.044  43.475  13.475
52014W        W15738  39.020  38.414   1.301
52015W        W15739  26.523  30.994   3.653
52016W        W15740  41.027   2.802  14.778
52017W        W15741  39.914  19.154   2.321
52018W        W15742  20.746  17.113  14.361
52019W        W15743  34.430  41.330   2.902
52020W        W15744  35.553  26.951   2.674
52021W        W15745  21.184  41.469   3.241
52022W        W15746   8.377  16.282  14.848
52023W        W15747  34.615  40.463   1.329
52024W        W15748  23.655  29.089  13.010
52025W        W15749   0.486   3.236   4.617
52026W        W15750  42.509  13.234  13.420
52027W        W15751  39.903  30.099   2.419
52028W        W15752  18.735   8.340  12.879
52029W        W15753   7.259  32.109   1.433
52030W        W15754  26.998  34.055   3.866
52031W        W15755  40.414  28.105   1.378
52032W        W15756  26.987  43.438  11.931
52033W        W15757   1.782  22.635   0.371
52034W        W15758   5.339   9.195  14.843
52035W        W15759  10.286  39.439  14.984
52036W        W15760  22.100  24.002  13.957
52037W        W15761  18.582  28.462  14.760
52038W        W15762   1.470  37.492   0.947
52039W        W15763  15.229  10.234  11.531
52040W        W15764  16.764  11.715  12.830
52041W        W15765  37.003  42.974   2.339
52042W        W15766  28.623  40.823  10.941
52043W        W15767  36.591  20.065   2.305
52044W        W15768  18.079   9.884   2.712
52045W        W15769   3.304  37.919  13.506
52046W        W15770  39.053   3.918   2.737
52047W        W15771   0.833  37.058   3.215
52048W        W15772  25.198  44.935   0.894
52049W        W15773  40.038  17.754   3.862
52050W        W15774  27.655  39.432  11.970
52051W        W15775  43.840  36.457   1.897
52052W        W15776  32.513  44.994   1.380
52053W        W15777  39.412  12.617   1.332
52054W        W15778  13.121  22.687   3.249
52055W        W15779  38.354  30.067  14.026
52056W        W15780  17.678   6.801  11.427
52057W        W15781  21.726  20.630   2.726
52058W        W15782  29.118  12.122  11.549
52059W        W15783  30.558  25.523  14.349
52060W        W15784   2.326  11.821  12.519
52061W        W15785  39.808  42.490   1.286
52062W        W15786   8.785   1.347   1.907
52063W        W15787  17.572   5.710   1.884
52064W        W15788  40.980  18.550  14.000
52065W        W15789  22.175  16.190  13.463
52066W        W15790  22.620   9.782  13.057
52067W        W15791  31.580  16.779   2.303
52068W        W15792  14.300  17.072  14.398
52069W        W15793  36.552   8.688  14.435
52070W        W15794   2.789   3.838  12.440
52071W        W15795  30.572  23.102   4.272
52072W        W15796  37.906   3.731  13.012
52073W        W15797   1.370   3.329  10.617
52074W        W15798  22.073  13.764  11.021
52075W        W15799  36.027   1.814   0.272
52076W        W15800  14.143  17.231   1.283
52077W        W15801  26.100  31.002  11.028
52078W        W15802  27.005  18.154   0.772
52079W        W15803  30.156   4.450  14.814
52080W        W15804   0.867  38.842  14.943
52081W        W15805  14.214  15.733  13.495
52082W        W15806  43.415  23.108   5.318
52083W        W15807  43.843  21.132   4.821
52084W        W15808  10.320   8.799   3.814
52085W        W15809  35.475  31.491  14.784
52086W        W15810  29.660  28.485   1.232
52087W        W15811  28.088  15.717  13.807
52088W        W15812   2.325  23.999  14.842
52089W        W15813  32.514  26.547   3.332
52090W        W15814  35.894  27.107   4.686
52091W        W15815   5.780  23.992  10.988
52092W        W15816  29.955  38.506   3.819
52093W        W15817  34.946   3.949  12.922
52094W        W15818  38.540   6.374   1.717
52095W        W15819  18.552  15.116   3.170
52096W        W15820  35.592  22.153   4.815
52097W        W15821  11.658   2.837   2.216
52098W        W15822  19.582   0.967   0.283
52099W        W15823  35.531  42.426   2.214
52100W        W15824  16.700  36.072   2.714
52101W        W15825  31.509  34.510   1.835
52102W        W15826   2.421  14.163  11.378
52103W        W15827  33.541  35.058   2.843
52104W        W15828   2.803  40.811   0.398
52105W        W15829  17.592  25.204   1.394
52106W        W15830   4.297  33.930  13.048
52107W        W15831  28.152  30.934  12.534
52108W        W15832  24.058  44.445  12.095
52109W        W15833  24.550  12.287   1.291
52110W        W15834   6.773  10.700  11.971
52111W        W15835  40.308  16.614   2.897
52112W        W15836  37.541  17.706   4.610
52113W        W15837  11.630  31.060   4.678
52114W        W15838   8.847  44.467  14.832
52115W        W15839  12.139   6.723   3.867
52116W        W15840  44.488  35.015   5.657
52117W        W15841   5.196   4.855  14.306
52118W        W15842  10.740   0.871   0.286
52119W        W15843  29.042   2.883   0.353
52120W        W15844  26.658  14.336  14.288
52121W        W15845  33.882  41.893   0.842
52122W        W15846  25.079   2.451   3.671
52123W        W15847   5.838   9.698  14.434
52124W        W15848   4.868   8.174   5.127
52125W        W15849  15.311  30.995   3.300
52126W        W15850  34.084  16.145  13.856
52127W        W15851  38.534  17.105   1.841
52128W        W15852  13.775   0.865   2.366
52129W        W15853  31.150  34.507   0.255
52130W        W15854  37.033  42.881  13.807
52131W        W15855  42.289   5.353  11.097
52132W        W15856  23.037  12.165  11.602
52133W        W15857  11.171  15.260  14.324
52134W        W15858  29.133   3.907   1.798
52135W        W15859  22.012  16.576  10.983
52136W        W15860  20.707  29.463  11.031
52137W        W15861   0.811   0.876  12.864
52138W        W15862  20.141   4.437   2.745
52139W        W15863   3.239  26.645   0.278
52140W        W15864   4.882  37.560   2.376
52141W        W15865  29.016  19.156  10.499
52142W        W15866   9.862  31.093  14.404
52143W        W15867  23.534  24.561  10.622
52144W        W15868  27.964   4.438  10.579
52145W        W15869   0.256  29.120  13.454
52146W        W15870   7.341  10.154  13.030
52147W        W15871  34.526  43.992   4.133
52148W        W15872  24.048  15.613  13.532
52149W        W15873  22.243  24.498   1.297
52150W        W15874   2.842  11.302   3.249
52151W        W15875  18.574  28.123  14.320
52152W        W15876  35.433  26.066  11.028
52153W        W15877  42.508  35.517  13.405
52154W        W15878  29.096  21.220  11.063
52155W        W15879  22.996  23.684  11.489
52156W        W15880   4.924  27.522  12.528
52157W        W15881   6.418  15.272  10.543
52158W        W15882  17.071  20.553  14.983
52159W        W15883  41.957  26.461  10.944
52160W        W15884   2.862  40.389  14.495
52161W        W15885  42.780  16.290  12.084
52162W        W15886   8.686  22.555   3.337
52163W        W15887  11.658  25.191  14.480
52164W        W15888  44.460  26.195  12.466
52165W        W15889   4.725  38.415   5.114
52166W        W15890  29.122   1.921  14.293
52167W        W15891  26.544  39.480   4.818
52168W        W15892  23.091  41.944  11.046
52169W        W15893  14.709  15.818  10.906
52170W        W15894   9.237   4.835   1.729
52171W        W15895   7.287  42.366   1.812
52172W        W15896  37.356  11.187  10.416
52173W        W15897  44.865  10.139  12.043
52174W        W15898   6.689  18.575  14.483
52175W        W15899  33.984  39.526   0.461
52176W        W15900   8.850  12.138   9.638
52177W        W15901  32.404  39.504  11.998
52178W        W15902  18.146  33.043   0.957
52179W        W15903   8.720  34.445  12.924
52180W        W15904  39.010  42.874   3.332
52181W        W15905  43.352  16.643   4.258
52182W        W15906  28.006  11.277   4.217
52183W        W15907   4.285  21.095   3.271
52184W        W15908  15.625  43.326  11.952
52185W        W15909  40.365  33.021  13.334
52186W        W15910  23.661  30.155  13.955
52187W        W15911  38.052  39.426  12.567
52188W        W15912  40.452   3.930  14.478
52189W        W15913   9.845  34.979   2.397
52190W        W15914  33.020   8.370   0.850
52191W        W15915   1.768  29.547  13.979
52192W        W15916  37.351  26.599   3.728
52193W        W15917  19.081  13.347   9.630
52194W        W15918  39.959  11.214  11.091
52195W        W15919   8.221  29.501   3.663
52196W        W15920  17.147  32.017   5.228
52197W        W15921  30.999   0.361   4.779
52198W        W15922  31.074  39.399  12.826
52199W        W15923  33.475  21.758  13.958
52200W        W15924  15.204   1.919  13.844
52201W        W15925  23.137  39.967   2.406
52202W        W15926   2.369  31.021   0.277
52203W        W15927  44.504  37.847  14.511
52204W        W15928   4.891  13.219   1.740
52205W        W15929   2.810  42.885  11.458
52206W        W15930  16.792   4.339   3.669
52207W        W15931  38.363  13.813   0.293
52208W        W15932  36.527  31.410   0.329
52209W        W15933  40.426   2.394  13.482
52210W        W15934  44.976  16.148   4.611
52211W        W15935  35.005  25.469   3.276
52212W        W15936  19.615  42.992  13.954
52213W        W15937  32.030  41.538  12.830
52214W        W15938  42.472  42.408  11.517
52215W        W15939  44.842  34.923   1.794
52216W        W15940  37.929  27.603  10.974
52217W        W15941  16.229  30.971   2.378
52218W        W15942  17.671  35.867   0.359
52219W        W15943  10.812  22.166  12.421
52220W        W15944  14.107  19.600  12.925
52221W        W15945  38.522  27.469   4.200
52222W        W15946  17.123   8.284  11.401
52223W        W15947  43.300  27.052   3.711
52224W        W15948  26.569   2.363   5.177
52225W        W15949  41.925   6.765   4.672
52226W        W15950  41.452   9.161  13.022
52227W        W15951  13.121  23.560   3.654
52228W        W15952  36.981   4.427  14.974
52229W        W15953  13.246  39.351  10.622
52230W        W15954  17.660  27.051   0.932
52231W        W15955  30.101   5.357   0.834
52232W        W15956  23.139  36.506   0.837
52233W        W15957  28.955  32.004  14.289
52234W        W15958   6.803  27.967  14.890
52235W        W15959   5.874  37.571  11.857
52236W        W15960   1.838  41.320  13.447
52237W        W15961  37.529  41.855  11.443
52238W        W15962  44.871  37.997   2.276
52239W        W15963  15.732  39.318  14.813
52240W        W15964  13.254  14.737  13.871
52241W        W15965  35.884  44.820  11.503
52242W        W15966   7.687   1.873  14.275
52243W        W15967   3.269   0.414  11.998
52244W        W15968  44.004   4.349   1.866
52245W        W15969  35.006  33.442  10.480
52246W        W15970   2.434  27.609  14.381
52247W        W15971  44.850  20.153   4.179
52248W        W15972  16.612  30.002  13.403
52249W        W15973   6.833  31.516  14.381
52250W        W15974  38.402  30.500  10.918
52251W        W15975  11.666  37.578   2.266
52252W        W15976  15.159   4.754  12.054
52253W        W15977   6.213  10.731   3.383
52254W        W15978  22.741  39.953   3.309
52255W        W15979  24.720  12.755  12.042
52256W        W15980  31.137  13.776  12.953
52257W        W15981  36.045  22.707   2.863
52258W        W15982  42.810  22.151  12.471
52259W        W15983  11.732  42.965   1.214
52260W        W15984  36.945  12.673  13.358
52261W        W15985   2.793   5.232  10.951
52262W        W15986  18.653  40.472   3.835
52263W        W15987  22.105  34.387   0.407
52264W        W15988  27.656  15.604   3.749
52265W        W15989  27.470  22.152  14.810
52266W        W15990  35.480  44.384   4.619
52267W        W15991   1.918   9.879  10.496
52268W        W15992   3.386  14.596   4.263
52269W        W15993   9.696  12.817   3.147
52270W        W15994  24.704  32.410  12.003
52271W        W15995  35.360  33.438  13.959
52272W        W15996  25.012  38.437  12.350
52273W        W15997  24.571  42.918  13.464
52274W        W15998  15.231   7.272   2.667
52275W        W15999   8.177  29.099   3.217
52276W        W16000  13.176  41.337   1.741
52277W        W16001   6.347  23.680   2.388
52278W        W16002  16.681  19.251  14.450
52279W        W16003  25.979  32.107   4.324
52280W        W16004  41.415  36.351   2.304
52281W        W16005  43.334   4.782   4.190
52282W        W16006  40.003   5.260  10.899
52283W        W16007  37.057   7.314  14.845
52284W        W16008   6.889   6.262  11.125
52285W        W16009  44.957  26.664  14.427
52286W        W16010  29.484   8.315   3.269
52287W        W16011   0.253   3.278   1.715
52288W        W16012  14.227   6.374  12.085
52289W        W16013  44.854  43.949  13.016
52290W        W16014  16.131  31.432  11.072
52291W        W16015  14.671  25.215   0.789
52292W        W16016  18.202  28.559   2.386
52293W        W16017   1.418  39.398  14.362
52294W        W16018  30.637  22.623  12.495
52295W        W16019  22.166  26.119  14.857
52296W        W16020  33.927  24.592   3.307
52297W        W16021  27.957  19.662  13.929
52298W        W16022  23.535  24.616  13.924
52299W        W16023   1.948  39.055   1.715
52300W        W16024   5.743  19.190   0.316
52301W        W16025  34.116  15.227   0.794
52302W        W16026  21.537  14.736  11.566
52303W        W16027  18.595   3.865  10.417
52304W        W16028  22.033   6.715   4.666
52305W        W16029  22.594  34.556   9.954
52306W        W16030  24.171   8.834   1.389
52307W        W16031   5.723  30.554  14.996
52308W        W16032  39.879   6.785  11.959
52309W        W16033  27.603  10.160  10.463
52310W        W16034   5.364  31.908  13.354
52311W        W16035  44.389  17.225   5.152
52312W        W16036  40.542  19.665   0.965
52313W        W16037  27.668  25.012  12.386
52314W        W16038   1.846  13.219  12.971
52315W        W16039  11.714  27.577  10.935
52316W        W16040  26.654  37.444   3.645
52317W        W16041  33.555  11.791  12.847
52318W        W16042   0.898  33.995   4.157
52319W        W16043  34.474   9.388   1.919
52320W        W16044  27.039   8.257   4.122
52321W        W16045  30.998  18.102   1.244
52322W        W16046  39.532  24.109  14.478
52323W        W16047  23.714  24.171   4.735
52324W        W16048  11.226  32.409   3.386
52325W        W16049  29.093  19.672   1.251
52326W        W16050  39.371  44.860  10.627
52327W        W16051  27.609  24.051   4.349
52328W        W16052  27.556   5.430   3.282
52329W        W16053  10.640   5.427   4.139
52330W        W16054  24.527  28.034   4.716
52331W        W16055  30.000  12.781   2.254
52332W        W16056  41.878   9.814  12.022
52333W        W16057  27.158  16.074  11.516
52334W        W16058   6.698   7.242  14.319
52335W        W16059  25.116  28.444   3.186
52336W        W16060  13.654  15.316  12.425
52337W        W16061   0.318  16.743  13.467
52338W        W16062   6.187   5.268  11.929
52339W        W16063  23.542  34.914  10.404
52340W        W16064   6.727  29.093   4.653
52341W        W16065   8.369   0.774   2.196
52342W        W16066  42.822  39.033  11.000
52343W        W16067  25.544   2.295   3.211
52344W        W16068  17.755   5.870   2.290
52345W        W16069   8.799  13.802  11.440
52346W        W16070   7.211  21.086   1.852
52347W        W16071  24.065  16.096   3.329
52348W        W16072  42.358  42.927  10.633
52349W        W16073  36.349   0.292  14.826
52350W        W16074  13.323  43.493  13.393
52351W        W16075   3.850  43.455   1.750
52352W        W16076  18.223  38.958  10.065
52353W        W16077  16.803  28.486   4.634
52354W        W16078  30.984  15.662  11.455
52355W        W16079  40.498  33.982   0.443
52356W        W16080  42.019  15.818  10.051
52357W        W16081  38.481  33.543  11.538
52358W        W16082  22.017   3.357   2.765
52359W        W16083  38.474  21.034  12.437
52360W        W16084   2.768  24.703  13.530
52361W        W16085  44.458  33.046   3.693
52362W        W16086   6.718  38.950  12.095
52363W        W16087  30.467  18.189  10.905
52364W        W16088  17.593  40.903   4.266
52365W        W16089   4.352  35.999  13.321
52366W        W16090  24.684  28.672  12.049
52367W        W16091  17.076  15.256  12.869
52368W        W16092  21.185  41.425  14.282
52369W        W16093   6.233  10.191  13.331
52370W        W16094   4.440  10.217  14.327
52371W        W16095  12.181  42.989   0.260
52372W        W16096  14.624  41.995  14.377
52373W        W16097   9.864  29.939   4.612
52374W        W16098  17.222  26.575  11.411
52375W        W16099   8.367   9.814  12.988
52376W        W16100  21.746  14.152  12.351
52377W        W16101   3.341  31.568  11.495
52378W        W16102  16.200  27.656   0.314
52379W        W16103  12.244   2.420   2.853
52380W        W16104  22.745  39.337  10.073
52381W        W16105  20.579  29.079  14.847
52382W        W16106  24.550  38.400  14.320
52383W        W16107  35.413  38.043   4.744
52384W        W16108  28.510   9.325  11.972
52385W        W16109  35.489  31.581  11.422
52386W        W16110   3.427   8.865   1.249
52387W        W16111  24.228   5.344  14.775
52388W        W16112  30.909  24.174  14.515
52389W        W16113   8.371  13.333  11.081
52390W        W16114   1.948  17.245  12.013
52391W        W16115  30.003  33.124  13.537
52392W        W16116  11.365  13.612   4.625
52393W        W16117  44.409  34.050  11.856
52394W        W16118  21.052   5.750   2.258
52395W        W16119  24.990  22.158  14.287
52396W        W16120  23.006  43.802   2.315
52397W        W16121  33.429  32.407   0.770
52398W        W16122  33.581  17.161  13.981
52399W        W16123  26.549  35.093   5.193
52400W        W16124  25.519  39.467   1.882
52401W        W16125  36.947  29.150   2.203
52402W        W16126  20.187   9.713  10.488
52403W        W16127  13.779  14.327  12.526
52404W        W16128  32.102  44.927  10.968
52405W        W16129   7.856  31.041   0.923
52406W        W16130  35.105  17.583   0.400
52407W        W16131   7.678  33.584   4.677
52408W        W16132  26.994   8.386  10.525
52409W        W16133   2.347  42.920   1.906
52410W        W16134  34.947   5.834   0.253
52411W        W16135   2.816  33.882   4.177
52412W        W16136   8.747  31.954  11.533
52413W        W16137  18.080  30.004  13.502
52414W        W16138  38.036   7.367   2.841
52415W        W16139  10.671   6.745   3.721
52416W        W16140  18.552  12.668   0.897
52417W        W16141  40.523   4.943   2.387
52418W        W16142  24.174  16.143   4.227
52419W        W16143  27.157  29.070  11.061
52420W        W16144  10.202  38.866  11.580
52421W        W16145  29.126  16.673   3.175
52422W        W16146  36.965  12.230  13.927
52423W        W16147  28.440  33.517  13.402
52424W        W16148  27.621   7.761   9.484
52425W        W16149  30.077   0.475  13.441
52426W        W16150   2.335   9.755  14.000
52427W        W16151  17.294  27.677   2.339
52428W        W16152   1.814  35.973  11.498
52429W        W16153  23.070  43.877  11.406
52430W        W16154  36.463   2.815   3.312
52431W        W16155   1.850  41.303  14.019
52432W        W16156  40.481   2.827   3.249
52433W        W16157  21.056  22.098  11.998
52434W        W16158  21.547  25.582   2.384
52435W        W16159  15.786   6.226   5.119
52436W        W16160  27.556   7.871  13.406
52437W        W16161  12.736   2.451   0.349
52438W        W16162   3.731  15.736   1.421
52439W        W16163  26.544  26.645  11.563
52440W        W16164   0.440  30.551   4.608
52441W        W16165  25.019  29.170  14.292
52442W        W16166  15.118  17.270  10.501
52443W        W16167   3.735  12.161  11.862
52444W        W16168  25.691  36.482  12.096
52445W        W16169  22.650  44.981  11.973
52446W        W16170   3.721  11.323  12.981
52447W        W16171   3.439  33.415  10.973
52448W        W16172   1.297  35.075  12.535
52449W        W16173  29.426  30.440   1.286
52450W        W16174  28.488  17.238   0.759
52451W        W16175  22.177  35.934   4.316
52452W        W16176  23.113  20.683  10.628
52453W        W16177  15.277  39.432   0.793
52454W        W16178  26.962   7.703  14.352
52455W        W16179  35.473   7.353   3.701
52456W        W16180  16.700  23.137   1.849
52457W        W16181  17.797  37.009  14.386
52458W        W16182  14.678  36.053   1.769
52459W        W16183  33.017   2.251   4.230
52460W        W16184   9.313  41.496  10.541
52461W        W16185   8.389  18.776  14.848
52462W        W16186  42.513  34.411   2.200
52463W        W16187  14.598  37.976   2.851
52464W        W16188  43.822   2.779   0.287
52465W        W16189  29.056   8.384   0.390
52466W        W16190   5.759  21.709  12.435
52467W        W16191  35.458  34.890  14.829
52468W        W16192  10.193   2.340  10.545
52469W        W16193  11.135  27.128   1.238
52470W        W16194  19.157  28.680  14.921
52471W        W16195   1.313  19.269   1.331
52472W        W16196  31.434  43.376  10.551
52473W        W16197   5.799  39.018  14.473
52474W        W16198  38.842  34.052  12.955
52475W        W16199  25.199  26.612  14.276
52476W        W16200  21.726   9.181  10.484
52477W        W16201  25.653  25.695   4.614
52478W        W16202  22.203  20.626   2.858
52479W        W16203  23.509  40.814  14.375
52480W        W16204  26.204  11.216  13.366
52481W        W16205   0.273  18.680  13.812
52482W        W16206   3.860  12.158  12.386
52483W        W16207   0.281  37.848   4.272
52484W        W16208  44.960  31.052  14.375
52485W        W16209   1.788  43.875  13.965
52486W        W16210  11.306   1.288   1.314
52487W        W16211   7.896  21.512   2.303
52488W        W16212  12.232  16.599   0.267
52489W        W16213  41.830  13.328   0.347
52490W        W16214  35.423   0.477   4.193
52491W        W16215  24.675  26.097  14.502
52492W        W16216  13.302  18.762   3.273
52493W        W16217  27.111  36.919   1.796
52494W        W16218  19.049  35.971  11.400
52495W        W16219   6.424  21.699  11.588
52496W        W16220  36.969   9.748  13.385
52497W        W16221  32.496  35.070  14.453
52498W        W16222  10.214  37.351   2.307
52499W        W16223  32.057  13.107  11.122
52500W        W16224  27.623  24.047   3.215
52501W        W16225  32.044  10.278  10.467
52502W        W16226  33.951  18.586  14.994
52503W        W16227  33.937  22.572  10.459
52504W        W16228  25.065   1.794  13.826
52505W        W16229  37.881  26.093   0.343
52506W        W16230  34.474   0.385   2.401
52507W        W16231  42.929  29.085   1.382
52508W        W16232  32.905  27.498   0.369
52509W        W16233   3.394  15.260  12.501
52510W        W16234  42.821  40.846   3.757
52511W        W16235   1.843   8.357  11.529
52512W        W16236  21.254  30.059  10.643
52513W        W16237  21.027  29.002  12.830
52514W        W16238  26.103   8.795  13.796
52515W        W16239  26.990  15.305  12.970
52516W        W16240  41.912  31.024  12.525
52517W        W16241  16.659  36.393  11.897
52518W        W16242  38.369  42.793   4.116
52519W        W16243  25.013  10.195   4.605
52520W        W16244   4.252  13.193   4.292
52521W        W16245  22.717  44.883   1.838
52522W        W16246  34.930  24.038  14.000
52523W        W16247  28.051   4.917   3.844
52524W        W16248  15.148   9.149   4.761
52525W        W16249  34.576  22.196   4.232
52526W        W16250  41.885   3.254   2.845
52527W        W16251  36.014  19.569  14.978
52528W        W16252   5.900   3.302  11.592
52529W        W16253  44.343   8.358   0.403
52530W        W16254  41.921  29.170   4.168
52531W        W16255  31.096   4.756  13.322
52532W        W16256   0.889  29.045   9.990
52533W        W16257  13.654  22.114  10.470
52534W        W16258  44.393  28.520   3.233
52535W        W16259  21.159  17.726  13.413
52536W        W16260  13.116  43.336  11.071
52537W        W16261   1.970  36.578   4.645
52538W        W16262  19.766  19.750   3.294
52539W        W16263  42.455   4.371  10.930
52540W        W16264  29.475   7.671   0.813
52541W        W16265   4.922  44.913  14.918
52542W        W16266  43.458  20.096  11.024
52543W        W16267  33.475  38.410  11.542
52544W        W16268  21.171  42.935  14.922
52545W        W16269   5.324  23.552  13.053
52546W        W16270  38.916   6.896   0.737
52547W        W16271  33.879  43.811  14.913
52548W        W16272  10.822  11.196   1.345
52549W        W16273  12.839  21.141   1.242
52550W        W16274   6.271  41.361  10.921
52551W        W16275  34.086  13.832  14.858
52552W        W16276  40.046  18.707  12.833
52553W        W16277  17.097  13.213  13.494
52554W        W16278  37.492  23.616  11.481
52555W        W16279  12.657  15.734  10.950
52556W        W16280  28.532  36.536  13.854
52557W        W16281  38.395  39.059   1.922
52558W        W16282  30.616  14.340  12.503
52559W        W16283  41.489  19.649  12.977
52560W        W16284  28.159  16.237  12.541
52561W        W16285  44.854  27.093   0.443
52562W        W16286  44.857  29.662   2.837
52563W        W16287  32.535  14.661   2.361
52564W        W16288   3.848   0.303   0.841
52565W        W16289  35.985   2.800  11.889
52566W        W16290  26.203  40.022  11.373
52567W        W16291   4.773  12.297  12.999
52568W        W16292  13.826  11.168   3.269
52569W        W16293  14.809  11.711   5.159
52570W        W16294  21.082  15.685   2.209
52571W        W16295   6.820  27.625  14.935
52572W        W16296   2.959  34.407   4.695
52573W        W16297  38.523   2.784   1.704
52574W        W16298  31.633  10.866   1.699
52575W        W16299  44.859  23.590  12.984
52576W        W16300   9.737  39.842  12.089
52577W        W16301  10.723  23.131  13.512
52578W        W16302  25.089   1.346   2.325
52579W        W16303   9.334  44.843   2.367
52580W        W16304  24.695   3.942  12.041
52581W        W16305  37.343  42.847  13.479
52582W        W16306  41.446  29.172   4.159
52583W        W16307  44.290  31.627   2.681
52584W        W16308  25.589  10.640  13.373
52585W        W16309  12.826  31.442   0.863
52586W        W16310  41.924  38.029  11.403
52587W        W16311  19.207  34.443   3.715
52588W        W16312  37.914   1.732   3.215
52589W        W16313  12.176  15.155   0.851
52590W        W16314   7.715  13.112  13.027
52591W        W16315  14.200  22.592   5.109
52592W        W16316  20.144   6.284  12.877
52593W        W16317   8.858   0.967   1.395
52594W        W16318  34.085  37.041   3.383
52595W        W16319  12.676  41.939  11.863
52596W        W16320  11.152  33.478  12.564
52597W        W16321  15.716   9.315   0.433
52598W        W16322  34.073  18.237   1.221
52599W        W16323  31.062  22.693  10.644
52600W        W16324  28.099  14.242   0.847
52601W        W16325  42.802  35.967  12.504
52602W        W16326   0.297  43.981  12.005
52603W        W16327  25.995   0.851   0.884
52604W        W16328   4.787  24.175  11.899
52605W        W16329  32.114   2.354  11.498
52606W        W16330   4.797   3.781   1.266
52607W        W16331  30.635  21.555   0.779
52608W        W16332  23.095  30.922  13.831
52609W        W16333  42.328  35.478  13.976
52610W        W16334   5.382  32.908   1.868
52611W        W16335  25.590   4.781   2.895
52612W        W16336  44.411  10.268  14.318
52613W        W16337   5.329  27.091  10.542
52614W        W16338   9.188   3.281  14.297
52615W        W16339  12.660  30.923  13.961
52616W        W16340  31.075  43.002  12.528
52617W        W16341  24.651  21.143   4.335
52618W        W16342  43.290  24.536   0.434
52619W        W16343  38.549  18.750  14.276
52620W        W16344  34.563  31.970  11.959
52621W        W16345   3.713  10.664   3.367
52622W        W16346  10.319  43.850  13.015
52623W        W16347   0.836  37.541   5.188
52624W        W16348  35.535  25.472  12.993
52625W        W16349  39.840   3.766  12.377
52626W        W16350  39.413   4.449  11.965
52627W        W16351  37.351  31.010  11.518
52628W        W16352   0.315  20.249   4.125
52629W        W16353  40.334  16.590  13.486
52630W        W16354   5.885   2.325  14.912
52631W        W16355  28.983  20.117  11.957
52632W        W16356  15.084   6.765  10.931
52633W        W16357  15.646  33.950   1.872
52634W        W16358  29.119   6.747  12.361
52635W        W16359  35.438   3.909  12.369
52636W        W16360  28.068  30.489  14.967
52637W        W16361  23.998  28.187  14.776
52638W        W16362  21.047   5.774  12.458
52639W        W16363  11.276  30.568  13.933
52640W        W16364  11.366  29.071   1.891
52641W        W16365   9.157  32.477  14.475
52642W        W16366  33.461  34.446   0.451
52643W        W16367  22.554   1.244  12.860
52644W        W16368  37.039   4.439  12.424
52645W        W16369   4.330  10.763   3.334
52646W        W16370  26.018  17.104   3.375
52647W        W16371  31.499  40.998   0.366
52648W        W16372  25.587  21.094   0.348
52649W        W16373  40.359  17.236  10.956
52650W        W16374  39.857  23.197  11.891
52651W        W16375  29.135  21.054   0.813
52652W        W16376  42.873  30.150  13.799
52653W        W16377  22.714  21.707   0.358
52654W        W16378  21.526   8.811  14.337
52655W        W16379   4.310  32.411  10.956
52656W        W16380   3.759  32.469   1.860
52657W        W16381   5.287  44.283   4.202
52658W        W16382  18.545  30.102   0.927
52659W        W16383  36.907  30.522  14.501
52660W        W16384  13.652   6.349   0.845
52661W        W16385   0.967  13.237   4.343
52662W        W16386  21.125   1.796   0.470
52663W        W16387  36.362  34.962   3.816
52664W        W16388  34.999  12.324   4.163
52665W        W16389  18.601   6.211   2.363
52666W        W16390   7.891  40.466   0.444
52667W        W16391  28.146  11.699  13.808
52668W        W16392  26.015  29.084  13.401
52669W        W16393  16.278  34.964  14.492
52670W        W16394  43.364  29.934  11.587
52671W        W16395  34.043  41.790  13.357
52672W        W16396  12.852   5.690  10.909
52673W        W16397  10.319   3.232  14.418
52674W        W16398   6.766   8.822   0.444
52675W        W16399  40.345  13.834  11.511
52676W        W16400  16.223   0.930   9.922
52677W        W16401  30.429  31.029   3.356
52678W        W16402  43.863  38.374   4.647
52679W        W16403  34.377  30.570  10.944
52680W        W16404  36.412  13.134   1.861
52681W        W16405  12.757  19.237  10.515
52682W        W16406  12.680   2.396   3.370
52683W        W16407  18.742  15.321   2.380
52684W        W16408  33.023  12.210  14.441
52685W        W16409   5.352   7.729   4.222
52686W        W16410  41.983  19.074   1.851
52687W        W16411  30.101  40.341   3.372
52688W        W16412  11.641  33.444  11.407
52689W        W16413  23.147  40.990   1.357
52690W        W16414  13.748   8.796  14.867
52691W        W16415  15.728  29.546  10.447
52692W        W16416  17.743  36.526  12.902
52693W        W16417  36.576   5.362  11.933
52694W        W16418  25.981  43.898  12.854
52695W        W16419  29.505  28.463   2.837
52696W        W16420  35.503   7.838   3.701
52697W        W16421  17.744  43.998  11.961
52698W        W16422  13.264  40.838  12.060
52699W        W16423  21.530   7.214   1.863
52700W        W16424   5.295  23.041  13.906
52701W        W16425   3.273  42.822  14.429
52702W        W16426  11.371  19.539   4.676
52703W        W16427  24.016  21.740  14.280
52704W        W16428  24.020  24.549   1.291
52705W        W16429  28.064  34.553  13.061
52706W        W16430  20.639  19.206  12.442
52707W        W16431   0.301  41.313  14.299
52708W        W16432   5.195  26.661   4.121
52709W        W16433   5.373  24.618  13.815
52710W        W16434  21.718   1.821   2.834
52711W        W16435  38.411  27.550   4.837
52712W        W16436  42.779  17.206   2.311
52713W        W16437  40.359  39.890   4.616
52714W        W16438  10.855  13.600   1.339
52715W        W16439  15.303   3.916   2.754
52716W        W16440  43.886  33.950  10.562
52717W        W16441  20.681   2.231   4.282
52718W        W16442   0.449  11.241   1.808
52719W        W16443   6.387   9.827  12.844
52720W        W16444  30.563  28.044  10.467
52721W        W16445  41.422   0.324  13.858
52722W        W16446   6.195   0.413   1.771
52723W        W16447  32.510  21.668   2.683
52724W        W16448  44.435  31.050   4.121
52725W        W16449  21.064  33.101   4.337
52726W        W16450  15.623  18.749  13.030
52727W        W16451   3.951  14.697   2.314
52728W        W16452   3.889  33.875  14.316
52729W        W16453  22.631  17.781   2.856
52730W        W16454  44.393  22.205   2.215
52731W        W16455  38.065  14.229  14.783
52732W        W16456  34.545  42.459  12.019
52733W        W16457  41.919   8.244  13.824
52734W        W16458  38.991  19.267   2.309
52735W        W16459   1.793  41.445  12.530
52736W        W16460   3.369  38.952   1.883
52737W        W16461  18.228   2.911   2.403
52738W        W16462  13.651  30.008  14.836
52739W        W16463   3.896  23.644   1.425
52740W        W16464  41.036   4.229   2.886
52741W        W16465  31.124  21.104   4.769
52742W        W16466  35.022  28.165   1.912
52743W        W16467  20.664   6.256  10.955
52744W        W16468   0.846  44.988   0.448
52745W        W16469   8.872  14.185  13.921
52746W        W16470  21.160  39.063  11.058
52747W        W16471   6.400  34.972  12.923
52748W        W16472  31.521  21.712   3.304
52749W        W16473  14.832   4.434  13.858
52750W        W16474  21.163  36.387  10.959
52751W        W16475  23.711  34.033   0.843
52752W        W16476  27.130  13.242   1.341
52753W        W16477  30.032  41.888  11.564
52754W        W16478  31.114  40.527   0.245
52755W        W16479  34.987  23.197  14.479
52756W        W16480   0.401  20.050  13.527
52757W        W16481   0.777  39.811  12.345
52758W        W16482  33.123   5.240  10.595
52759W        W16483  31.915   7.826  13.849
52760W        W16484   5.761  37.458  10.536
52761W        W16485  12.304  39.345   2.844
52762W        W16486  11.309  11.153  14.937
52763W        W16487   8.226  16.599  12.089
52764W        W16488   1.894  13.318  14.962
52765W        W16489  44.814   1.847   0.858
52766W        W16490   9.233  15.615   0.296
52767W        W16491  35.108  24.594   0.469
52768W        W16492  29.989  31.116  14.872
52769W        W16493  15.102  19.599  11.447
52770W        W16494  27.563  38.491   0.869
52771W        W16495   9.860  19.569   3.704
52772W        W16496  14.698  17.218   2.696
52773W        W16497  17.733  33.121   4.250
52774W        W16498  14.102  37.361  14.393
52775W        W16499  25.070   4.321   3.269
52776W        W16500  25.085  39.474  12.377
52777W        W16501  15.290  21.138   5.269
52778W        W16502  37.931   3.902   0.759
52779W        W16503  28.558  27.627  12.851
52780W        W16504  23.988  10.205  14.481
52781W        W16505   9.721  10.252   2.204
52782W        W16506  41.336  36.585   2.698
52783W        W16507   7.191   0.780  10.584
52784W        W16508   6.824   4.430  14.884
52785W        W16509  36.009  25.991  11.543
52786W        W16510  17.758  14.194  13.390
52787W        W16511  44.340  34.502   5.164
52788W        W16512   8.224   1.879   1.818
52789W        W16513  44.883   7.288  10.981
52790W        W16514  26.970  16.201  13.845
52791W        W16515  25.588  39.915  14.474
52792W        W16516  37.383  41.317   0.384
52793W        W16517   5.389  29.662  14.298
52794W        W16518  40.800  26.993  11.609
52795W        W16519   9.218  44.849  12.464
52796W        W16520  36.593  31.557   4.253
52797W        W16521  27.519  21.253  14.884
52798W        W16522  32.626  38.431   1.745
52799W        W16523   1.826  29.450   2.299
52800W        W16524  33.996   7.261  13.909
52801W        W16525  14.144  30.549  12.010
52802W        W16526   9.729  30.084  10.513
52803W        W16527  31.496   5.742   2.227
52804W        W16528  37.579  11.694  11.597
52805W        W16529  21.239   8.383  10.538
52806W        W16530   3.225  28.074   0.759
52807W        W16531   4.907  31.425  11.999
52808W        W16532  25.011  24.167   1.367
52809W        W16533  30.932   3.872   3.193
52810W        W16534  22.249  38.923   4.203
52811W        W16535  21.135  19.551  13.823
52812W        W16536  24.174   0.966   4.720
52813W        W16537  14.610  20.192  11.916
52814W        W16538  13.338   7.818  13.370
52815W        W16539   3.899  36.892   1.907
52816W        W16540  20.057  40.336  10.943
52817W        W16541  16.810  31.648   1.774
52818W        W16542   0.490  22.570  13.547
52819W        W16543  20.539  21.047  12.824
52820W        W16544  16.211  10.692   3.734
52821W        W16545   1.326  31.541   2.200
52822W        W16546   7.797  24.129   3.795
52823W        W16547  39.834  16.199  14.920
52824W        W16548  17.774   9.275   3.347
52825W        W16549  32.000  18.555   4.657
52826W        W16550  37.889  15.690  14.771
52827W        W16551   6.369  40.456   0.451
52828W        W16552  39.383   9.844   3.267
52829W        W16553   4.890  25.634   4.239
52830W        W16554  40.818  39.850   0.388
52831W        W16555   4.916  38.334  12.827
52832W        W16556  20.742  41.415   1.446
52833W        W16557  24.186  23.229   0.342
52834W        W16558  41.806  41.028   1.340
52835W        W16559  39.447  44.009   5.127
52836W        W16560  28.025  35.973   4.305
52837W        W16561  28.529  26.134  11.951
52838W        W16562  34.548   5.873  14.335
52839W        W16563  37.072  17.126   1.262
52840W        W16564  33.396  22.007   3.325
52841W        W16565  32.556  41.010   2.712
52842W        W16566  32.410   4.236   1.715
52843W        W16567  21.209   1.329  13.918
52844W        W16568  24.493   9.349  10.630
52845W        W16569  20.133   2.869   0.477
52846W        W16570  15.639   6.354  10.930
52847W        W16571  13.638  36.382  12.564
52848W        W16572  40.392  38.453  13.539
52849W        W16573  29.612  20.038   2.848
52850W        W16574  39.509  16.084   1.916
52851W        W16575  36.975  22.081   4.117
52852W        W16576  21.738  43.344   4.772
52853W        W16577  34.419  44.305  11.076
52854W        W16578  41.471  16.609   0.901
52855W        W16579  33.942  22.527  14.462
52856W        W16580  41.980  39.459   0.292
52857W        W16581  40.470  40.402   4.758
52858W        W16582  39.038   6.423  12.392
52859W        W16583  15.098   5.693  13.519
52860W        W16584  33.480   1.378  12.549
52861W        W16585  26.979  14.813   2.754
52862W        W16586  27.990   9.286   0.413
52863W        W16587  11.310  26.043   1.844
52864W        W16588  10.660  33.122   2.331
52865W        W16589  18.203  40.447   2.248
52866W        W16590  11.654   9.818   1.752
52867W        W16591  15.581   4.750  14.422
52868W        W16592  13.122  10.731  11.404
52869W        W16593  21.666   6.304   4.693
52870W        W16594  25.634  31.154  11.996
52871W        W16595  14.320  27.192  11.917
52872W        W16596  19.137  14.158   1.286
52873W        W16597   9.164  40.917  12.840
52874W        W16598  13.349  28.993  13.815
52875W        W16599  36.426  30.160   1.249
52876W        W16600  44.453  30.002  13.820
52877W        W16601  26.957  28.038   1.313
52878W        W16602  44.779  10.141   0.882
52879W        W16603  22.512  22.553   0.252
52880W        W16604  20.190  16.254  10.081
52881W        W16605  26.543  38.964   3.817
52882W        W16606  25.218  12.821  13.479
52883W        W16607  10.791  29.015   0.372
52884W        W16608  25.549  37.491   4.302
52885W        W16609  30.101  38.387  10.484
52886W        W16610  35.374  29.464  13.481
52887W        W16611  38.821  24.212  11.888
52888W        W16612  34.904  14.215  12.901
52889W        W16613  34.397  43.501   3.862
52890W        W16614  11.839  14.687  14.920
52891W        W16615  32.038  20.118   1.283
52892W        W16616  42.934  35.935   3.278
52893W        W16617  13.123  20.597  12.449
52894W        W16618   9.168  34.433   3.729
52895W        W16619  33.555  10.811   0.759
52896W        W16620  32.623  42.457  14.788
52897W        W16621  19.176   3.220   0.764
52898W        W16622  28.965  43.016  12.077
52899W        W16623  18.588   0.883   0.482
52900W        W16624   1.397  16.691  10.983
52901W        W16625  12.845  32.448   3.208
52902W        W16626  10.303   6.298   1.867
52903W        W16627  21.075   8.838   1.716
52904W        W16628  28.670   7.773  10.967
52905W        W16629  43.912  17.596  11.002
52906W        W16630  17.064  12.834  13.425
52907W        W16631  29.061  14.190  11.417
52908W        W16632   0.853  28.531   0.891
52909W        W16633  37.014  10.718   3.386
52910W        W16634   9.745  43.285  11.484
52911W        W16635  42.783   1.470  13.406
52912W        W16636  17.686   8.840  14.831
52913W        W16637  38.328  25.162  10.156
52914W        W16638   7.743  23.094   4.159
52915W        W16639   9.713  40.039  11.582
52916W        W16640   9.273  16.130  14.874
52917W        W16641  30.641   5.762  11.068
52918W        W16642  27.047  11.204   1.438
52919W        W16643  15.309   1.362   0.798
52920W        W16644   1.971  39.059   2.381
52921W        W16645  12.227  39.556  12.454
52922W        W16646   1.422  43.785   4.273
52923W        W16647  14.819  30.145  11.013
52924W        W16648   9.654  21.670   2.838
52925W        W16649   7.732  42.779   4.286
52926W        W16650  19.722  33.470  14.324
52927W        W16651  18.290  37.846   4.619
52928W        W16652  29.050  31.443  11.075
52929W        W16653  28.506   7.276  10.494
52930W        W16654  23.604   1.820  12.028
52931W        W16655  39.495  40.326   0.818
52932W        W16656   8.336  14.119   5.688
52933W        W16657  24.172  13.110  10.432
52934W        W16658  23.599   1.780   0.878
52935W        W16659   1.270  43.359   2.411
52936W        W16660  39.518  29.608  10.629
52937W        W16661  13.739   0.961  14.897
52938W        W16662  37.975  20.541  12.922
52939W        W16663   7.666  22.506  11.569
52940W        W16664  10.370  11.673   1.285
52941W        W16665  28.495  38.933  12.932
52942W        W16666  28.638  37.902   2.296
52943W        W16667  32.100  34.521  14.884
52944W        W16668  25.100  40.907  11.063
52945W        W16669  31.424  20.723  10.934
52946W        W16670  21.078   2.228   0.870
52947W        W16671  24.094  19.755   5.215
52948W        W16672  19.169  26.644   1.788
52949W        W16673  37.553  43.012   0.242
52950W        W16674  26.478   0.319   3.211
52951W        W16675  17.073  14.254   2.892
52952W        W16676  33.570  33.541  14.008
52953W        W16677  29.438   7.201   1.243
52954W        W16678  27.512  32.563  11.588
52955W        W16679  22.593  39.394   3.151
52956W        W16680  26.489  39.478  11.597
52957W        W16681  17.209  19.678  11.044
52958W        W16682  35.460  13.269   0.266
52959W        W16683   2.775  16.143  11.933
52960W        W16684  10.190   0.855   2.802
52961W        W16685  29.459  30.980  13.930
52962W        W16686   1.263  18.623   1.393
52963W        W16687  20.757  36.406   1.226
52964W        W16688  15.726  26.477  12.546
52965W        W16689  19.701  24.006  13.897
52966W        W16690  33.462  41.342   0.470
52967W        W16691  38.464  41.815   2.727
52968W        W16692  23.530   9.378  12.989
52969W        W16693  16.195  28.591   0.477
52970W        W16694  36.957  34.010  14.833
52971W        W16695  34.606  14.765   4.204
52972W        W16696  20.652  23.552  13.056
52973W        W16697  15.296   7.880   3.379
52974W        W16698  30.625   0.459  12.927
52975W        W16699  44.382  14.254  10.495
52976W        W16700  26.014  42.852  13.913
52977W        W16701  29.170  29.492   3.722
52978W        W16702  19.131  23.139   3.259
52979W        W16703  10.179  25.600  13.406
52980W        W16704  17.604  25.113  11.589
52981W        W16705  14.595  16.803   2.733
52982W        W16706  10.214   6.907   4.153
52983W        W16707   4.210  36.038   3.716
52984W        W16708  13.294   1.815   0.334
52985W        W16709  24.079  31.150   1.769
52986W        W16710  10.147  26.138   2.326
52987W        W16711  17.124  12.278  13.037
52988W        W16712  35.998  17.575  13.357
52989W        W16713  32.098   0.758  14.877
52990W        W16714  30.109   8.733   0.899
52991W        W16715  28.172  37.977  12.935
52992W        W16716  24.003   5.906  12.421
52993W        W16717  12.167   3.380   3.795
52994W        W16718  42.786  12.128   3.169
52995W        W16719  12.824  30.584   2.779
52996W        W16720  30.425  28.649  14.409
52997W        W16721  36.964  33.418  13.382
52998W        W16722  29.928  34.463   2.818
52999W        W16723  40.431  19.544   0.444
53000W        W16724   4.700  18.286  12.362
53001W        W16725  27.605  28.956   1.238
53002W        W16726  31.495   0.483  11.526
53003W        W16727  30.092  11.726  11.922
53004W        W16728  27.092  25.975  11.920
53005W        W16729  39.547  40.377   0.246
53006W        W16730  11.369  20.626  12.415
53007W        W16731  44.406  25.472   2.397
53008W        W16732   9.888  42.323  10.491
53009W        W16733   0.793  29.028   3.846
53010W        W16734  11.210  42.890  13.412
53011W        W16735  20.226  43.393   1.256
53012W        W16736   6.354  40.976  10.917
53013W        W16737  44.852   4.832  11.063
53014W        W16738  21.152  18.692   1.240
53015W        W16739   1.895   0.880   3.753
53016W        W16740   3.742  18.254   0.478
53017W        W16741  20.122  41.965  13.417
53018W        W16742  27.082  29.127   1.417
53019W        W16743  16.126   1.474   2.202
53020W        W16744  13.757   7.681   3.296
53021W        W16745  22.602  11.840  13.406
53022W        W16746  41.493  27.449   0.931
53023W        W16747  11.291   8.328  12.549
53024W        W16748  36.985  20.122  10.593
53025W        W16749  31.402   7.303   1.298
53026W        W16750  29.941   4.703  12.404
53027W        W16751  42.019   3.881  13.954
53028W        W16752  41.972  38.375   1.291
53029W        W16753  32.120  44.009  12.497
53030W        W16754  30.981  14.306   1.787
53031W        W16755   4.442  26.988   4.838
53032W        W16756  18.752  42.352   4.242
53033W        W16757  16.696  32.095  14.777
53034W        W16758  43.325  36.352  14.007
53035W        W16759   4.836   3.955   3.822
53036W        W16760  23.165  13.743  10.574
53037W        W16761  19.052  17.178  14.011
53038W        W16762  20.162  31.565  11.516
53039W        W16763  25.973  19.586  12.491
53040W        W16764  35.525   2.870  11.070
53041W        W16765   0.850  25.092   3.831
53042W        W16766   4.812   6.424  10.555
53043W        W16767  25.627  39.321  13.430
53044W        W16768  25.108  32.026  13.342
53045W        W16769  14.756   1.788   0.878
53046W        W16770  29.925   0.813  11.597
53047W        W16771  25.104  37.573  11.099
53048W        W16772   1.433  24.720   1.734
53049W        W16773  13.661  29.154   0.874
53050W        W16774  15.270  23.110  13.977
53051W        W16775  12.314  34.061   4.160
53052W        W16776   9.195  15.090  10.422
53053W        W16777  30.493  27.501   2.861
53054W        W16778  34.098  21.157   4.206
53055W        W16779  38.029   4.718   2.753
53056W        W16780  26.682  39.526   4.158
53057W        W16781  16.282  42.952   2.258
53058W        W16782  39.838  30.971  14.499
53059W        W16783  42.023   9.857   2.800
53060W        W16784  14.210  13.228  14.826
53061W        W16785  18.700   7.745  10.963
53062W        W16786   6.360  16.178   0.245
53063W        W16787  27.155  25.195   1.291
53064W        W16788  32.411  15.132  13.494
53065W        W16789  40.508  43.353   3.660
53066W        W16790  39.823   3.828   1.876
53067W        W16791  19.713   6.289  12.491
53068W        W16792  42.927  32.046   4.313
53069W        W16793  33.414  41.846  10.610
53070W        W16794  39.420  44.956   2.401
53071W        W16795  22.017  21.583  14.947
53072W        W16796  38.985  25.143  12.874
53073W        W16797  35.996  30.043  14.280
53074W        W16798  20.730  25.024   4.816
53075W        W16799  28.175  26.134   4.188
53076W        W16800  13.290  42.795   2.679
53077W        W16801  30.039  39.992   0.960
53078W        W16802  30.527  36.996  12.564
53079W        W16803  34.024  42.406  12.413
53080W        W16804   4.380   6.869   4.325
53081W        W16805  32.535  33.557  10.931
53082W        W16806  17.789   9.150  13.486
53083W        W16807   3.222  19.167  12.510
53084W        W16808  11.842  28.992  11.111
53085W        W16809  18.178  37.026  12.007
53086W        W16810  28.087  11.690   4.352
53087W        W16811  43.350   8.265  12.906
53088W        W16812  32.950  18.124   2.737
53089W        W16813  39.930  12.219  13.320
53090W        W16814  27.980  31.906   1.880
53091W        W16815  21.154  32.481  13.894
53092W        W16816  27.659   7.331  10.075
53093W        W16817  28.439  36.863   0.735
53094W        W16818  30.969  34.463   1.382
53095W        W16819  30.995  11.218  12.341
53096W        W16820  19.593  31.105  12.093
53097W        W16821  24.634  40.997  12.493
53098W        W16822   9.186  29.498  11.050
53099W        W16823   3.416  14.101   0.306
53100W        W16824  23.175  13.159  14.488
53101W        W16825  19.239   7.840   3.337
53102W        W16826  31.950  31.995  14.835
53103W        W16827  38.416   3.278  12.365
53104W        W16828   3.749  17.305  13.893
53105W        W16829  12.319  42.300   4.635
53106W        W16830  26.017  18.703   1.411
53107W        W16831  32.929  43.768   0.848
53108W        W16832  30.499  10.276   0.901
53109W        W16833  34.475  40.833   4.712
53110W        W16834  37.918  36.918   4.231
53111W        W16835   1.738  26.037   2.729
53112W        W16836  34.484  19.616   4.301
53113W        W16837  34.915  20.746  13.033
53114W        W16838   6.794  19.541  11.881
53115W        W16839  35.568  30.551   2.784
53116W        W16840   4.435   1.314  11.930
53117W        W16841  12.643   1.267  13.547
53118W        W16842  40.869  43.414  11.402
53119W        W16843  24.537  42.301  11.897
53120W        W16844   4.756  39.040  11.901
53121W        W16845  14.315  15.124  13.818
53122W        W16846  40.928  14.298   1.266
53123W        W16847  28.993   2.258   2.353
53124W        W16848  20.166   4.336   3.152
53125W        W16849  29.972  35.533  12.958
53126W        W16850   2.962  24.160  13.908
53127W        W16851  13.268  37.581   3.717
53128W        W16852  28.063  21.731  10.943
53129W        W16853  11.303  14.742   1.385
53130W        W16854   7.805   0.766  11.887
53131W        W16855  20.669   3.309   0.448
53132W        W16856  32.107  33.086   3.278
53133W        W16857  24.225  36.350   1.436
53134W        W16858  14.266  37.539  10.608
53135W        W16859  20.272   9.375  10.948
53136W        W16860   8.185  13.267  13.023
53137W        W16861  19.648  18.201  11.492
53138W        W16862  26.610  33.115   2.302
53139W        W16863   4.427  16.605  13.310
53140W        W16864  27.532  24.180   1.817
53141W        W16865  35.570  27.625  14.766
53142W        W16866  10.844  41.901   2.708
53143W        W16867  23.635  19.601   2.782
53144W        W16868  15.617   4.297   0.310
53145W        W16869  15.228  17.300   2.684
53146W        W16870  21.221  34.886   5.183
53147W        W16871  38.387  41.037  12.500
53148W        W16872  43.433  13.680   2.250
53149W        W16873  33.602  15.693   5.144
53150W        W16874  13.820  18.211  13.994
53151W        W16875  11.747  25.713   4.775
53152W        W16876   4.328  30.968   4.143
53153W        W16877   8.369  40.939  13.872
53154W        W16878  42.975   5.806   4.603
53155W        W16879  30.588  30.470   1.806
53156W        W16880  13.753  33.445   2.783
53157W        W16881  32.635  31.099  10.421
53158W        W16882  27.549   6.220   2.848
53159W        W16883  26.982   8.205  11.970
53160W        W16884  39.953  43.778   9.589
53161W        W16885  38.487   8.764   5.096
53162W        W16886  37.857  44.268   3.249
53163W        W16887  10.648  23.627  11.892
53164W        W16888  35.972  15.691  11.888
53165W        W16889   8.318  28.048  14.487
53166W        W16890   6.258  33.105  10.614
53167W        W16891   1.341  39.545  12.995
53168W        W16892  12.325  44.847  13.327
53169W        W16893  13.212  10.280   0.361
53170W        W16894  22.238  34.021  14.324
53171W        W16895  29.953  43.817   0.965
53172W        W16896  16.275  43.346  14.923
53173W        W16897   5.337  36.419  14.875
53174W        W16898  43.961  11.661   3.693
53175W        W16899   7.884  38.395   0.473
53176W        W16900  32.462  29.966  12.493
53177W        W16901  26.596  44.893   0.281
53178W        W16902  28.000   7.827  13.874
53179W        W16903  12.723  16.643   4.254
53180W        W16904  16.225   4.391  11.068
53181W        W16905  40.371   9.838  13.048
53182W        W16906  14.655  11.659   3.759
53183W        W16907  12.327   0.980  14.789
53184W        W16908  44.983  33.080  12.963
53185W        W16909  34.452   6.236  14.948
53186W        W16910  30.546   8.692   0.930
53187W        W16911  37.503   7.263  14.455
53188W        W16912  29.552  35.370   2.248
53189W        W16913  42.965  17.588  13.389
53190W        W16914   5.789  25.149  12.394
53191W        W16915  15.125   1.756  14.969
53192W        W16916  21.522  24.027  12.963
53193W        W16917  20.726  14.688   4.138
53194W        W16918  14.097   8.166  10.410
53195W        W16919   3.253  43.452   2.681
53196W        W16920  38.516  23.152   1.814
53197W        W16921  44.449  26.582  13.872
53198W        W16922  38.915  23.588  12.997
53199W        W16923  29.920  41.430   1.902
53200W        W16924  10.685  19.264   2.236
53201W        W16925   6.213  22.176  10.927
53202W        W16926  12.251  43.016  13.473
53203W        W16927   2.775   4.431  11.556
53204W        W16928  35.370  11.230   0.760
53205W        W16929   0.261  18.076  13.545
53206W        W16930   9.663  40.895  11.467
53207W        W16931  17.147  22.065  12.386
53208W        W16932  14.664  38.520  11.082
53209W        W16933   9.217  23.097   1.873
53210W        W16934  22.220  44.428   0.839
53211W        W16935  40.817  27.586  12.070
53212W        W16936  36.486  32.038  11.532
53213W        W16937  32.913  39.460  13.869
53214W        W16938  34.884  35.566   0.879
53215W        W16939  30.588  34.390   1.853
53216W        W16940  19.215   4.214  10.636
53217W        W16941   9.351  27.196  12.028
53218W        W16942   3.806  26.464   9.928
53219W        W16943   2.278   4.744   1.736
53220W        W16944  38.383  39.893   3.164
53221W        W16945  11.196  26.035  12.045
53222W        W16946  17.230  16.129   1.718
53223W        W16947  41.332  12.621   1.225
53224W        W16948  38.443  17.249   3.735
53225W        W16949  38.418  41.846   1.389
53226W        W16950  13.338  22.643  13.488
53227W        W16951  37.991  37.017  10.491
53228W        W16952  12.151  39.490  13.356
53229W        W16953  41.947  14.311   4.733
53230W        W16954  11.853   0.962  13.440
53231W        W16955  17.622  21.223  14.496
53232W        W16956   3.381  35.509  12.993
53233W        W16957  10.716  24.040  10.954
53234W        W16958  32.559  11.298   0.285
53235W        W16959  26.090   5.278   3.632
53236W        W16960   8.213  23.197  14.439
53237W        W16961  26.967  32.583   4.638
53238W        W16962  14.304  24.511  11.542
53239W        W16963   0.835  13.110  10.563
53240W        W16964  15.646  27.082   1.890
53241W        W16965  17.564  31.939   2.330
53242W        W16966  34.605  26.100   3.321
53243W        W16967  43.843  35.471  12.944
53244W        W16968  29.989  26.181  12.928
53245W        W16969  36.449  22.555  12.952
53246W        W16970   8.217  24.027   1.758
53247W        W16971  36.526  26.015   2.310
53248W        W16972  35.051  12.176   2.809
53249W        W16973  36.847   0.935  13.019
53250W        W16974  25.166  16.175   3.859
53251W        W16975   3.740   5.325  11.399
53252W        W16976  16.193  10.366  12.448
53253W        W16977  20.137  44.457  12.569
53254W        W16978  13.687  33.101  14.345
53255W        W16979  38.040  11.630  11.918
53256W        W16980  42.497   9.658  10.524
53257W        W16981  40.523  15.764   3.860
53258W        W16982  33.893   6.312  11.123
53259W        W16983  16.604   7.339  11.551
53260W        W16984  35.937  24.039   3.378
53261W        W16985   6.329  42.398   2.681
53262W        W16986  38.505  35.578   1.934
53263W        W16987   5.886  36.098   3.777
53264W        W16988   7.305  21.616   4.772
53265W        W16989  32.004   8.239  12.349
53266W        W16990  10.199   1.347  13.921
53267W        W16991  41.793  18.077   1.287
53268W        W16992  29.951  41.435  12.897
53269W        W16993  30.521  27.069  11.509
53270W        W16994  35.975  18.211  11.484
53271W        W16995  27.015  11.797  14.496
53272W        W16996   4.226   5.842  13.546
53273W        W16997  39.949  42.778   1.362
53274W        W16998  32.432   6.199  14.771
53275W        W16999  18.099  11.234   3.385
53276W        W17000   6.311  37.382  13.365
53277W        W17001  42.444  18.212   3.359
53278W        W17002  41.851  43.875   4.671
53279W        W17003   2.312   4.810  11.105
53280W        W17004  41.858  36.486   2.724
53281W        W17005  31.130  29.074  12.565
53282W        W17006  34.098  42.526  14.847
53283W        W17007  20.107  41.386  14.348
53284W        W17008   0.824   0.288   4.820
53285W        W17009   2.736   1.852  12.508
53286W        W17010  37.852  31.937   0.253
53287W        W17011  21.258  42.354  10.464
53288W        W17012  33.935  31.582   1.362
53289W        W17013  25.171  15.182   0.254
53290W        W17014  21.749   0.394  12.456
53291W        W17015  44.939  41.021  13.820
53292W        W17016  37.498  23.688   2.195
53293W        W17017  22.651  38.379   0.385
53294W        W17018  11.367   9.169   4.193
53295W        W17019  29.427  28.950  15.000
53296W        W17020  25.200  17.238   2.703
53297W        W17021   0.760   7.324   4.174
53298W        W17022  36.031  11.791   0.283
53299W        W17023   1.803  15.808  14.383
53300W        W17024  41.835  30.941   2.758
53301W        W17025  26.696  14.692   1.878
53302W        W17026   2.395  19.632  11.091
53303W        W17027  33.000  30.548   0.432
53304W        W17028  43.889   4.893  14.350
53305W        W17029   0.311  22.248  14.789
53306W        W17030  42.358  29.945   4.682
53307W        W17031   1.476  15.769  11.979
53308W        W17032  38.856   9.839  14.758
53309W        W17033  17.657   2.242   2.319
53310W        W17034  26.034  25.498  12.345
53311W        W17035  25.683   4.813   3.328
53312W        W17036  38.387  37.972   3.672
53313W        W17037   2.735  24.497  13.063
53314W        W17038  10.757   7.733  12.071
53315W        W17039  18.241  32.536   4.133
53316W        W17040  31.981  32.025   2.719
53317W        W17041  10.845  31.141  13.359
53318W        W17042  42.785  16.715  11.033
53319W        W17043  33.540  13.120  12.059
53320W        W17044   5.310  32.037  10.543
53321W        W17045  19.772  20.053   0.799
53322W        W17046   2.945  39.375   0.726
53323W        W17047  11.630  33.894   1.867
53324W        W17048  11.281  37.405   0.296
53325W        W17049  36.529  24.558   3.149
53326W        W17050  30.932  40.488   4.754
53327W        W17051  26.510  30.049  10.483
53328W        W17052  38.048  33.909   1.837
53329W        W17053  27.129   2.910   2.282
53330W        W17054  43.325  33.562   3.156
53331W        W17055  30.144  13.131  14.949
53332W        W17056  24.499  14.128  14.322
53333W        W17057  15.762  23.547  11.575
53334W        W17058   3.361   7.338   4.801
53335W        W17059  34.422  25.595   2.223
53336W        W17060  36.863  19.261   1.889
53337W        W17061  43.842   0.856   0.465
53338W        W17062  16.604  37.043   4.196
53339W        W17063  31.048  42.940   4.760
53340W        W17064  43.404  30.581  14.503
53341W        W17065  18.268  25.687  12.010
53342W        W17066  43.366  33.516  14.477
53343W        W17067  29.458  17.638   2.759
53344W        W17068  12.802  22.014   0.821
53345W        W17069  20.247  30.650  12.576
53346W        W17070  10.282   2.311  11.510
53347W        W17071  33.127  34.056  14.330
53348W        W17072  39.548  42.291  14.015
53349W        W17073  14.784  44.874   0.853
53350W        W17074   3.437  25.970  12.067
53351W        W17075  32.978  43.985   3.161
53352W        W17076  34.374  32.990   2.844
53353W        W17077  30.534  35.920   4.168
53354W        W17078   3.921   8.290   2.296
53355W        W17079   4.882  19.646   3.359
53356W        W17080  35.979  10.162   0.424
53357W        W17081  37.929  10.201   2.768
53358W        W17082  13.239  11.248   0.256
53359W        W17083  28.990  27.550  12.060
53360W        W17084  38.385  23.017   0.325
53361W        W17085   6.424  16.585   0.482
53362W        W17086   4.803  11.179   1.921
53363W        W17087  33.418  34.948   0.308
53364W        W17088  34.386  16.201  10.610
53365W        W17089  37.520  32.584   0.469
53366W        W17090  16.191   1.259   3.222
53367W        W17091  36.946  26.648  12.350
53368W        W17092  26.085  26.982   2.278
53369W        W17093  22.199  32.032  11.032
53370W        W17094   9.757  33.917  14.764
53371W        W17095   8.675  26.189  11.993
53372W        W17096  36.846   7.825   0.386
53373W        W17097  15.695  17.136  14.501
53374W        W17098  29.437  35.448  11.035
53375W        W17099  17.163  42.350   1.695
53376W        W17100  25.511  30.033  13.940
53377W        W17101  22.576  24.136  12.574
53378W        W17102  36.514  37.468  13.915
53379W        W17103   4.221  30.142   2.207
53380W        W17104   3.221  36.941  13.854
53381W        W17105   3.236  28.006   3.714
53382W        W17106   9.173  26.628   4.797
53383W        W17107   6.677   9.350  11.956
53384W        W17108   2.945  13.823  10.485
53385W        W17109  38.917  29.610   0.800
53386W        W17110  33.081   2.931  14.295
53387W        W17111   9.665  40.039  10.471
53388W        W17112  17.787  18.180  10.943
53389W        W17113   8.675  14.129   0.875
53390W        W17114  24.001  17.556   1.889
53391W        W17115  26.530  11.348  12.439
53392W        W17116  44.386  12.709  13.321
53393W        W17117  33.878  23.552  12.501
53394W        W17118  18.663  22.224  12.850
53395W        W17119  27.073  12.763   0.748
53396W        W17120  36.870   7.769  10.950
53397W        W17121   8.231  44.471  12.509
53398W        W17122  44.269  17.093  13.913
53399W        W17123  10.352  33.002  13.828
53400W        W17124   5.267  23.209   0.951
53401W        W17125   7.201   2.835  12.394
53402W        W17126  15.692  19.746  14.842
53403W        W17127   1.241   1.949  10.519
53404W        W17128   6.399  41.402   0.962
53405W        W17129  40.536  37.554   2.390
53406W        W17130  23.020  25.994   1.849
53407W        W17131  29.016  33.025   3.334
53408W        W17132  28.678  13.290   3.721
53409W        W17133   9.828  19.651  10.462
53410W        W17134   4.343   9.804   2.847
53411W        W17135  15.613  31.935   3.293
53412W        W17136  36.380  25.499   3.323
53413W        W17137  21.060  15.228  11.494
53414W        W17138   1.783  26.023   0.870
53415W        W17139  30.137  19.235  11.600
53416W        W17140   2.781  23.086   4.810
53417W        W17141  20.055   5.205  10.925
53418W        W17142  13.763  10.772   4.736
53419W        W17143  19.061  31.985  14.500
53420W        W17144   4.888  15.817   3.678
53421W        W17145  29.065  34.930   0.928
53422W        W17146  44.346   3.799   4.240
53423W        W17147  28.656  25.973  12.974
53424W        W17148   8.316  36.061   3.372
53425W        W17149  37.348  22.717  13.050
53426W        W17150  16.294  16.251   9.587
53427W        W17151  36.046  16.252  14.860
53428W        W17152  11.813  42.967  14.811
53429W        W17153  43.919  36.538   1.330
53430W        W17154   7.859  12.713   5.772
53431W        W17155   6.901  16.670  14.982
53432W        W17156  21.089  36.089  14.508
53433W        W17157  32.491   3.376   4.797
53434W        W17158  15.596  25.473  12.440
53435W        W17159  23.003   0.311   0.411
53436W        W17160  32.576   5.789  12.521
53437W        W17161  15.322  43.952   3.734
53438W        W17162  26.139   7.304  14.909
53439W        W17163  11.312  33.101   4.221
53440W        W17164  30.586  10.289   2.274
53441W        W17165   5.923   0.261  12.413
53442W        W17166  44.358  31.561  12.838
53443W        W17167  16.166   9.306   2.853
53444W        W17168  44.400   5.738  11.425
53445W        W17169  41.480  30.997  11.042
53446W        W17170  38.444  42.032   3.164
53447W        W17171  35.025   7.739  14.455
53448W        W17172   6.693  12.714   3.660
53449W        W17173   6.805  27.992  11.490
53450W        W17174  10.666  43.386  12.840
53451W        W17175  26.681  43.870   4.198
53452W        W17176   7.264   4.229   4.735
53453W        W17177   6.381  42.323   1.389
53454W        W17178  20.158   3.306  14.948
53455W        W17179  17.183  25.535  14.510
53456W        W17180  42.929  17.733   4.633
53457W        W17181  42.294  10.345  11.522
53458W        W17182  27.942  41.519  14.863
53459W        W17183  16.700   9.247  14.988
53460W        W17184  44.995  38.936   0.349
53461W        W17185  31.936   9.679   2.898
53462W        W17186  41.449  25.084   2.377
53463W        W17187  25.038  10.650  12.011
53464W        W17188  16.745   0.405  13.846
53465W        W17189  41.907  16.235  10.969
53466W        W17190  34.443  24.556  13.468
53467W        W17191  24.032  31.422  14.310
53468W        W17192   4.807  29.542  10.898
53469W        W17193  43.910  21.024   3.685
53470W        W17194   5.350  15.139   1.707
53471W        W17195  35.910  12.199   2.723
53472W        W17196   0.873  23.518  12.414
53473W        W17197   8.664  10.697   2.363
53474W        W17198  20.174  41.908   1.817
53475W        W17199  17.256  12.851  12.898
53476W        W17200  28.151  19.722  12.350
53477W        W17201  21.201   6.809   2.764
53478W        W17202  11.247  32.607  10.900
53479W        W17203   1.942  12.640   2.245
53480W        W17204   9.207  40.869  11.877
53481W        W17205  17.569  11.749   4.289
53482W        W17206  32.560   8.669   0.256
53483W        W17207   1.820  30.039   1.790
53484W        W17208  29.631   7.307  10.624
53485W        W17209   4.272  34.593   1.340
53486W        W17210  23.695  23.504   0.285
53487W        W17211  24.048  32.484   2.312
53488W        W17212  41.409   7.262   3.792
53489W        W17213  40.870  18.644  13.404
53490W        W17214  37.380  22.110   0.441
53491W        W17215  28.472   8.706  14.866
53492W        W17216  24.641  19.556   1.277
53493W        W17217  12.804  18.225   3.771
53494W        W17218  24.022  35.436   2.899
53495W        W17219  19.560  25.535  13.408
53496W        W17220  33.081   3.341  14.865
53497W        W17221  44.366  10.654   2.387
53498W        W17222   2.852  41.320  12.006
53499W        W17223  22.128  34.996  13.344
53500W        W17224  23.142  16.163  11.570
53501W        W17225  29.454  44.003  11.466
53502W        W17226  25.128  16.746  12.562
53503W        W17227  44.756  12.618  10.520
53504W        W17228  43.363  41.337   1.248
53505W        W17229   9.271  31.534  13.373
53506W        W17230   8.184  25.624  13.988
53507W        W17231  18.667  39.025   0.330
53508W        W17232  26.081  39.809  13.037
53509W        W17233   6.861   3.344   2.672
53510W        W17234  20.039  29.113  14.969
53511W        W17235  38.070  33.533   0.760
53512W        W17236   3.940  37.008   2.403
53513W        W17237   9.337  36.940   3.216
53514W        W17238  33.937  44.889  12.363
53515W        W17239  13.711  24.984   1.788
53516W        W17240  21.164  37.548  11.947
53517W        W17241   4.870  29.161   0.326
53518W        W17242  31.990  16.144   2.737
53519W        W17243  29.081  41.361   1.885
53520W        W17244   6.762  37.877  14.374
53521W        W17245  18.662  37.013  11.558
53522W        W17246  22.655  28.938  10.976
53523W        W17247  28.504  38.038   2.817
53524W        W17248  19.767  10.732  10.407
53525W        W17249  44.434  26.650   3.723
53526W        W17250   2.945  12.122   3.783
53527W        W17251  29.173  36.370  12.025
53528W        W17252  36.850  16.187  10.621
53529W        W17253  27.122  14.756  12.841
53530W        W17254  38.927  16.716   4.158
53531W        W17255  21.246  18.723   4.209
53532W        W17256  21.119  15.609  11.868
53533W        W17257  42.875  36.893  12.993
53534W        W17258  33.536  16.606   2.244
53535W        W17259   6.744  17.217   4.600
53536W        W17260  13.296  11.314  11.045
53537W        W17261   7.344   3.729   3.157
53538W        W17262  43.834   4.429  14.399
53539W        W17263  10.272  24.560   1.392
53540W        W17264  38.522  38.498  14.390
53541W        W17265  22.023  23.507   2.209
53542W        W17266  44.373   2.919  12.348
53543W        W17267  43.996  29.023   4.255
53544W        W17268   2.448  41.293  13.326
53545W        W17269  14.165  17.091   0.850
53546W        W17270  26.151  34.015   1.406
53547W        W17271  14.105  18.691   5.234
53548W        W17272  17.771  27.964   3.284
53549W        W17273  30.954   1.827   2.802
53550W        W17274  15.164  29.583   2.271
53551W        W17275  24.170  29.175  13.862
53552W        W17276  24.500  13.185  10.940
53553W        W17277  30.943   8.209   2.766
53554W        W17278  34.994  37.012   3.641
53555W        W17279  29.670  40.933   0.754
53556W        W17280  30.614  20.091   4.207
53557W        W17281  23.733  37.938   5.133
53558W        W17282  24.165  33.522   4.239
53559W        W17283   0.445  28.175  13.917
53560W        W17284   8.707   2.375   3.176
53561W        W17285  37.371   0.316  11.406
53562W        W17286  14.800  28.935  14.818
53563W        W17287   0.822  11.213   0.456
53564W        W17288  32.412   7.211   4.157
53565W        W17289  16.789   9.883   1.849
53566W        W17290   1.457  23.147   1.251
53567W        W17291   9.182  25.689   0.316
53568W        W17292  39.508   5.838   4.607
53569W        W17293  42.458  11.639  11.484
53570W        W17294  44.427  42.429  11.556
53571W        W17295  35.538  16.273  14.486
53572W        W17296  22.554  20.089  13.943
53573W        W17297  24.015  29.977   0.959
53574W        W17298   0.293  36.469  12.495
53575W        W17299  28.124   6.856  10.404
53576W        W17300  30.496  27.522   0.267
53577W        W17301   9.331  28.607   0.342
53578W        W17302   0.301  43.006  13.487
53579W        W17303   0.860  35.097   2.903
53580W        W17304  43.486  17.625   4.611
53581W        W17305  13.251  29.163   3.861
53582W        W17306  21.057   9.832   4.302
53583W        W17307   1.289  14.233   2.815
53584W        W17308  37.880  27.147  14.966
53585W        W17309  17.593  35.013   0.483
53586W        W17310  40.882  14.823   4.284
53587W        W17311   9.790  16.640   1.342
53588W        W17312   9.160  17.795   0.939
53589W        W17313  26.132  26.203  10.907
53590W        W17314  39.502  28.019   2.309
53591W        W17315   6.260   2.781   2.210
53592W        W17316  28.123  41.856  12.935
53593W        W17317  14.833  33.409  14.304
53594W        W17318  28.502   7.813   1.883
53595W        W17319  22.109  30.568  12.880
53596W        W17320   0.780  31.093   1.345
53597W        W17321  14.110   3.756   2.267
53598W        W17322  44.335  34.478   4.709
53599W        W17323  11.723  44.987  10.964
53600W        W17324  28.469   1.434   2.412
53601W        W17325   0.931  22.523   0.437
53602W        W17326  17.697  17.097  12.395
53603W        W17327  36.557  14.158   3.864
53604W        W17328  37.356  29.035  14.447
53605W        W17329  33.879  33.530   4.676
53606W        W17330  15.226  43.472   0.728
53607W        W17331  40.360  25.547   1.740
53608W        W17332  36.848  34.468   0.271
53609W        W17333  17.639  34.874   4.693
53610W        W17334  39.012  43.327  14.346
53611W        W17335  29.503  30.422   3.151
53612W        W17336   0.453   7.350  13.346
53613W        W17337  19.547  20.650   3.664
53614W        W17338  24.204   2.750   0.740
53615W        W17339   4.928   1.922   2.802
53616W        W17340   3.266  27.054  10.634
53617W        W17341  33.547  10.233  10.909
53618W        W17342  44.923  21.748   0.382
53619W        W17343  31.977  17.782  14.769
53620W        W17344  12.808  24.102  13.952
53621W        W17345  29.588   7.315  10.156
53622W        W17346  34.472   9.166  11.066
53623W        W17347  26.095  36.507   2.715
53624W        W17348  36.094  23.642   3.795
53625W        W17349  24.110  39.922   2.357
53626W        W17350  18.200  11.823  12.439
53627W        W17351  11.649  13.745  11.408
53628W        W17352  35.423  13.210   4.663
53629W        W17353   3.711  27.096   4.345
53630W        W17354   4.870  13.193   0.861
53631W        W17355  30.588  35.089  12.044
53632W        W17356  40.917   5.921  13.842
53633W        W17357  18.095  21.560   3.866
53634W        W17358  21.522  42.339  13.359
53635W        W17359  15.681  43.974   2.293
53636W        W17360  11.179  41.915   4.127
53637W        W17361  11.362  22.744  13.456
53638W        W17362  27.148  11.811  11.075
53639W        W17363  19.769  24.642   1.895
53640W        W17364  26.090  23.006   0.285
53641W        W17365  38.848  34.417   1.221
53642W        W17366  31.931   5.845   0.915
53643W        W17367  19.197  38.830  11.503
53644W        W17368  34.893  39.928  14.446
53645W        W17369  19.544  19.728   2.321
53646W        W17370  10.230  29.669   4.687
53647W        W17371  29.623  41.865  13.852
53648W        W17372  36.500  11.761  10.433
53649W        W17373  20.664   8.788  12.450
53650W        W17374   8.663  24.093   2.693
53651W        W17375   7.273  14.203  12.073
53652W        W17376  29.061  25.627   2.821
53653W        W17377   3.805  32.547  14.403
53654W        W17378  13.316  35.604   0.248
53655W        W17379  30.558  24.107   1.833
53656W        W17380  38.374  14.253   1.363
53657W        W17381  39.850   4.450   1.274
53658W        W17382  11.734   4.322   2.222
53659W        W17383  18.208  42.503  11.429
53660W        W17384  38.945  27.484  14.328
53661W        W17385  11.864  37.919  10.969
53662W        W17386  28.085  20.557   4.198
53663W        W17387  12.795  23.117  11.022
53664W        W17388  43.465   6.749  11.444
53665W        W17389  14.706   3.762  12.996
53666W        W17390  43.893  33.039   0.881
53667W        W17391   0.423  33.477  14.481
53668W        W17392  18.767  12.850   4.656
53669W        W17393  10.234  16.318   1.884
53670W        W17394  43.942  22.141  13.994
53671W        W17395   5.223  21.117  13.853
53672W        W17396  20.585   6.239   4.146
53673W        W17397   8.212  25.109   4.345
53674W        W17398  43.864  38.571   2.777
53675W        W17399  29.065  32.979   0.843
53676W        W17400  39.530  20.526   3.692
53677W        W17401  39.437   8.243   2.769
53678W        W17402  16.190   1.864  12.574
53679W        W17403  23.999   3.415   1.238
53680W        W17404  14.643  14.593   3.196
53681W        W17405  17.649   2.923   1.736
53682W        W17406  19.052   5.284  10.975
53683W        W17407   2.379  26.680  14.015
53684W        W17408  43.393  35.559   1.886
53685W        W17409  43.018  31.482  12.855
53686W        W17410  18.169  33.543  12.852
53687W        W17411  37.337  33.876  10.481
53688W        W17412  18.202  30.056  13.993
53689W        W17413  41.978  44.888  14.895
53690W        W17414  33.921   2.850   3.736
53691W        W17415  10.639   6.378  10.070
53692W        W17416   7.764  31.972  12.881
53693W        W17417   8.376  17.081   1.284
53694W        W17418  20.639  19.643   2.339
53695W        W17419   3.866   6.691  13.791
53696W        W17420  27.479  28.550  14.956
53697W        W17421  38.525  30.960   3.354
53698W        W17422  19.138   5.901   1.850
53699W        W17423  39.916  11.740   1.358
53700W        W17424  41.493  33.971  13.436
53701W        W17425  37.354   1.329   0.472
53702W        W17426   5.855   1.374  14.956
53703W        W17427  16.305  21.173   0.784
53704W        W17428  36.949  25.626  10.912
53705W        W17429  19.619  26.653  14.885
53706W        W17430  43.455  44.366   2.744
53707W        W17431  35.960  32.000   1.417
53708W        W17432  32.111  38.006  10.891
53709W        W17433  40.963   0.886  13.935
53710W        W17434  21.710  43.414   3.784
53711W        W17435   6.270  35.461  14.468
53712W        W17436  21.639   2.787  11.126
53713W        W17437   8.304  33.498   2.350
53714W        W17438  14.208  23.724  11.866
53715W        W17439  17.615  30.079  14.423
53716W        W17440  44.851   0.817  12.934
53717W        W17441  23.169   6.279   2.842
53718W        W17442  37.351  25.579   0.483
53719W        W17443   7.673  36.028  11.609
53720W        W17444  44.929   0.776   2.666
53721W        W17445  40.349   7.871   2.833
53722W        W17446  29.950  18.058  13.329
53723W        W17447  42.518  37.382  11.592
53724W        W17448  43.788  27.446  13.509
53725W        W17449  17.204  21.692   1.824
53726W        W17450  38.992  35.392  10.988
53727W        W17451  29.938   0.889  13.030
53728W        W17452  24.113  26.603  11.574
53729W        W17453  42.511  43.395  12.402
53730W        W17454  16.256  34.514  11.534
53731W        W17455  21.584   1.795  13.797
53732W        W17456  10.247   9.783   4.346
53733W        W17457  22.071  16.224  14.933
53734W        W17458  29.624  29.585   0.886
53735W        W17459  22.638  30.928  14.833
53736W        W17460  16.646  39.929   1.217
53737W        W17461   7.695   3.257   2.388
53738W        W17462  17.119  19.249   3.304
53739W        W17463  34.978  31.998   1.305
53740W        W17464  13.228  11.165   1.450
53741W        W17465  42.776  44.474  10.414
53742W        W17466   3.897  16.796   2.696
53743W        W17467  34.964  37.380   2.903
53744W        W17468   9.316  37.041  10.445
53745W        W17469  18.104   1.748   2.893
53746W        W17470   1.742  36.914   3.218
53747W        W17471   3.382  36.496  11.513
53748W        W17472  37.976   5.709   3.298
53749W        W17473  38.029  31.520   2.355
53750W        W17474  24.109  43.891  14.516
53751W        W17475   9.827  18.158  12.413
53752W        W17476  44.407   2.247   3.655
53753W        W17477   3.312  44.466  11.400
53754W        W17478   1.817   8.201   3.771
53755W        W17479  18.243   6.369  12.523
53756W        W17480  30.477  42.493  12.413
53757W        W17481  31.143  35.954   2.875
53758W        W17482   2.731  34.987   3.819
53759W        W17483  29.660  17.276   4.339
53760W        W17484  41.926  40.409   4.304
53761W        W17485  38.391  20.565  12.510
53762W        W17486   0.447   0.441  13.403
53763W        W17487  36.966  29.468   1.424
53764W        W17488  30.606  32.095   1.799
53765W        W17489  30.428  42.420  13.812
53766W        W17490  22.017   4.318   0.409
53767W        W17491  33.093   6.382  11.989
53768W        W17492  34.523   2.454  13.982
53769W        W17493   1.444  30.931   4.599
53770W        W17494  33.092  15.798  13.387
53771W        W17495   6.277  40.397  10.577
53772W        W17496  43.901  38.997   2.719
53773W        W17497  41.482  22.031   1.888
53774W        W17498  24.992  19.695  13.808
53775W        W17499  41.345  31.012  12.974
53776W        W17500  35.089   7.183  11.426
53777W        W17501   7.335   2.429  12.961
53778W        W17502  17.760   6.844   4.627
53779W        W17503  25.971  28.111   2.751
53780W        W17504  10.365  35.877   2.231
53781W        W17505  23.631  18.607  12.034
53782W        W17506  43.458  38.049  12.899
53783W        W17507  24.042  43.959  11.561
53784W        W17508  17.065  11.308   4.643
53785W        W17509  31.091   5.219  13.829
53786W        W17510  34.976   6.866  13.394
53787W        W17511  12.709  38.394   2.832
53788W        W17512  43.483  11.289   3.184
53789W        W17513  26.644  26.161   0.865
53790W        W17514  42.937  35.884   2.327
53791W        W17515   3.798  33.038  13.992
53792W        W17516   8.165  32.952   3.248
53793W        W17517  16.744  41.426   2.737
53794W        W17518  44.417  20.678  10.107
53795W        W17519  40.808  11.280   1.382
53796W        W17520   7.830  15.251  11.606
53797W        W17521  14.766   7.724   0.420
53798W        W17522  21.184  33.059   2.833
53799W        W17523  21.637  10.319   9.925
53800W        W17524   4.249  26.609   0.431
53801W        W17525  18.266  35.402   2.286
53802W        W17526  42.896  33.971  14.837
53803W        W17527  30.997  43.828   4.772
53804W        W17528   6.274  13.707  10.622
53805W        W17529  30.111   0.926   2.369
53806W        W17530  44.810  22.205  12.491
53807W        W17531  38.422   6.681   3.372
53808W        W17532  41.435  42.982   3.229
53809W        W17533  31.976   5.393   1.882
53810W        W17534  33.920  16.288   9.661
53811W        W17535  42.859  37.868  13.475
53812W        W17536   7.835  16.262   0.244
53813W        W17537  22.612  32.531  13.011
53814W        W17538  20.267  41.387  10.488
53815W        W17539  35.457  13.110  14.907
53816W        W17540   7.747  23.081   0.767
53817W        W17541  42.410  33.404  10.056
53818W        W17542  23.182   4.806  11.470
53819W        W17543  18.622  34.418  10.898
53820W        W17544  30.451  41.457  12.926
53821W        W17545  10.862  14.159  13.011
53822W        W17546  21.597   7.379   1.360
53823W        W17547  22.603   1.279  11.421
53824W        W17548   4.380  10.246   2.323
53825W        W17549  34.525  41.307   1.429
53826W        W17550  32.421  30.003  12.844
53827W        W17551   2.741  20.046   0.476
53828W        W17552  27.152  33.616   4.323
53829W        W17553  18.649  14.707  10.917
53830W        W17554  25.490  30.615  13.925
53831W        W17555  16.646  35.080  12.882
53832W        W17556  28.957  30.449   1.851
53833W        W17557  19.077  32.037  10.498
53834W        W17558  17.780  43.393   4.717
53835W        W17559  23.689  15.218   0.950
53836W        W17560  36.442  22.186   0.386
53837W        W17561  41.386  25.141  14.863
53838W        W17562   8.180  31.964  14.391
53839W        W17563  30.536  27.620  12.992
53840W        W17564   4.267  26.053   1.373
53841W        W17565  17.144  18.584   3.718
53842W        W17566   1.273   7.269  11.107
53843W        W17567  30.599  44.440   0.822
53844W        W17568  32.901  26.668  11.938
53845W        W17569  42.405   2.959   4.671
53846W        W17570  31.127  26.145  14.982
53847W        W17571  30.931  22.574  14.278
53848W        W17572   9.833  37.438   1.712
53849W        W17573  34.917  37.458  14.896
53850W        W17574  14.816   6.390  10.517
53851W        W17575  40.406  43.470  11.103
53852W        W17576  38.842  39.041  12.922
53853W        W17577  21.180  39.994   2.775
53854W        W17578  16.302  31.062  13.991
53855W        W17579   3.229  35.422   1.731
53856W        W17580   2.843  43.295   3.195
53857W        W17581   1.405  24.060  13.822
53858W        W17582  36.552  13.605   1.793
53859W        W17583  24.211  29.528  12.083
53860W        W17584  25.591   2.374  12.496
53861W        W17585  40.822  40.533   2.694
53862W        W17586   6.735  22.694  10.439
53863W        W17587  37.985  20.576   3.214
53864W        W17588  11.812   8.272  10.465
53865W        W17589  35.594  33.944  14.827
53866W        W17590  43.428  24.648  10.606
53867W        W17591  10.648  43.019   2.353
53868W        W17592  23.531   3.734  12.426
53869W        W17593  37.915   6.346   2.300
53870W        W17594  44.866  31.997  11.557
53871W        W17595  10.800  42.938  13.309
53872W        W17596  18.065   1.787  12.835
53873W        W17597  32.091  11.301  12.064
53874W        W17598  32.057  28.986  12.948
53875W        W17599  13.338   1.406   2.837
53876W        W17600  42.886   4.264   1.868
53877W        W17601   2.926  42.889  12.392
53878W        W17602  38.954  23.600   3.860
53879W        W17603  23.685  19.180  14.861
53880W        W17604  27.121  22.568   4.340
53881W        W17605   2.324  31.910  14.792
53882W        W17606  30.013  31.590  13.426
53883W        W17607   5.763  27.457   4.674
53884W        W17608  11.778  11.851   2.200
53885W        W17609  32.435  39.357   3.818
53886W        W17610   8.283  24.513   3.680
53887W        W17611  38.873  37.437  10.605
53888W        W17612  26.515  10.739  14.903
53889W        W17613  37.841  32.478   1.267
53890W        W17614   8.891  25.599   0.452
53891W        W17615   1.887  36.859  10.575
53892W        W17616   9.734  29.977   3.184
53893W        W17617  32.516  11.852   0.470
53894W        W17618  16.665  31.527  10.990
53895W        W17619   5.254  10.174   3.656
53896W        W17620  42.889  43.819   4.317
53897W        W17621  36.982  32.912  11.080
53898W        W17622   0.488  30.532  13.921
53899W        W17623   8.396   1.794   0.804
53900W        W17624  37.370   6.720  12.063
53901W        W17625  44.316  37.013   4.150
53902W        W17626   0.848  19.251  12.912
53903W        W17627   2.735  26.503  12.563
53904W        W17628   4.894  10.687  11.062
53905W        W17629  32.979  32.593   1.931
53906W        W17630   5.896   8.331  13.498
53907W        W17631  31.574  38.959   0.747
53908W        W17632  15.272   7.856  11.376
53909W        W17633   8.236  42.283  10.482
53910W        W17634  21.522  36.016   3.276
53911W        W17635  22.168   2.454   3.333
53912W        W17636  41.007  37.984   1.413
53913W        W17637  40.980  29.649  14.868
53914W        W17638   8.209  21.029   1.859
53915W        W17639  30.609   0.898   3.765
53916W        W17640  25.632   9.220   0.901
53917W        W17641  20.632  25.193   0.872
53918W        W17642   1.793  39.541  10.968
53919W        W17643  20.713   0.907  11.984
53920W        W17644  40.353   7.885  12.556
53921W        W17645  13.181  41.388   5.186
53922W        W17646  36.350  34.931   4.131
53923W        W17647  18.550  41.015  14.843
53924W        W17648   1.850  20.660   4.831
53925W        W17649  35.570   7.720   2.895
53926W        W17650  30.463  21.240   3.792
53927W        W17651  14.589  11.787  12.400
53928W        W17652   9.862   0.431   2.751
53929W        W17653  20.717  20.645   1.859
53930W        W17654  25.981  21.217  14.797
53931W        W17655  24.175  22.582  13.878
53932W        W17656  43.368  21.552   4.662
53933W        W17657  20.532  25.991   2.862
53934W        W17658   4.850  30.071   2.886
53935W        W17659  41.326  39.898  12.555
53936W        W17660  35.494   3.283  12.428
53937W        W17661  43.334  32.040  13.504
53938W        W17662  21.264  42.363   3.814
53939W        W17663  27.943  17.603   2.303
53940W        W17664  17.129  41.413   2.758
53941W        W17665  16.214  16.704  11.569
53942W        W17666  32.506  20.173  12.482
53943W        W17667   2.387   3.233   0.400
53944W        W17668   8.734  25.994  13.021
53945W        W17669  25.183  16.799   1.361
53946W        W17670  34.121  28.043   1.345
53947W        W17671   6.880   1.258   2.741
53948W        W17672  23.563  25.659  12.860
53949W        W17673  16.684   4.292  11.947
53950W        W17674   0.970   3.451  12.553
53951W        W17675  17.125  23.107   0.326
53952W        W17676  18.220  17.596  10.553
53953W        W17677  24.185  10.276  12.064
53954W        W17678  34.520  26.021   0.441
53955W        W17679   5.308   3.865   3.233
53956W        W17680   0.362  24.036   3.370
53957W        W17681  29.439  31.920   0.482
53958W        W17682   2.941  38.892  13.523
53959W        W17683   1.314  19.746   2.763
53960W        W17684  21.062  10.145  13.946
53961W        W17685   0.878   8.865  10.436
53962W        W17686  23.010   3.911   4.647
53963W        W17687   4.716  11.362  12.514
53964W        W17688  27.528  30.928   3.738
53965W        W17689  16.241   2.334  12.569
53966W        W17690  16.656  37.565   0.412
53967W        W17691  16.221  24.610   3.212
53968W        W17692  39.317  14.315   0.402
53969W        W17693  24.686  13.610   3.738
53970W        W17694  16.212  14.314  11.042
53971W        W17695  37.445  30.512  14.293
53972W        W17696  20.141  36.362   4.617
53973W        W17697  35.595   2.729  14.910
53974W        W17698  34.450  21.606  11.020
53975W        W17699  12.799  10.808  10.909
53976W        W17700  29.927  34.080  13.347
53977W        W17701  16.601   3.893  12.002
53978W        W17702  39.556   2.844  10.921
53979W        W17703  20.647  18.701  10.456
53980W        W17704   9.776  38.869   0.440
53981W        W17705   9.770  38.042  14.010
53982W        W17706  17.748  27.982  13.003
53983W        W17707  37.863  24.165  14.785
53984W        W17708   2.911   0.418  12.366
53985W        W17709  18.698  36.423  11.065
53986W        W17710  26.179  38.975   1.790
53987W        W17711  29.645  20.564  10.961
53988W        W17712  11.798   9.833   3.821
53989W        W17713   7.685   9.737   5.101
53990W        W17714  23.675  34.978   4.829
53991W        W17715   7.904  28.522  13.544
53992W        W17716  39.882  16.808   1.885
53993W        W17717  15.788  24.214   1.726
53994W        W17718  30.464  27.184  14.490
53995W        W17719  40.829  32.432  10.974
53996W        W17720  32.920  17.764  12.568
53997W        W17721  19.650  28.477   0.464
53998W        W17722   6.383  38.940   3.254
53999W        W17723  28.532  25.057   4.255
54000W        W17724  40.811   4.889  12.556
54001W        W17725  24.998  33.936  13.035
54002W        W17726   0.826  19.543   5.090
54003W        W17727   6.804  22.552  13.454
54004W        W17728  13.629  13.767   0.890
54005W        W17729  40.981  16.704  11.971
54006W        W17730  22.097  14.675  11.990
54007W        W17731  34.116   9.784   2.666
54008W        W17732  19.766  16.569  12.996
54009W        W17733   5.810  27.049   0.952
54010W        W17734  11.306  31.547   2.837
54011W        W17735   8.714  12.347   1.864
54012W        W17736  43.407  21.048   3.227
54013W        W17737  39.514  37.914   2.345
54014W        W17738   4.276  37.848   3.316
54015W        W17739  19.063  21.098  10.610
54016W        W17740  14.252  41.419   1.735
54017W        W17741  28.137  20.160  12.881
54018W        W17742  21.212  25.709  13.410
54019W        W17743   2.257  40.390  10.964
54020W        W17744  31.928  43.420   4.337
54021W        W17745  20.273  11.371   2.719
54022W        W17746  25.081  20.049  12.071
54023W        W17747  36.099  20.142  11.997
54024W        W17748   4.761  23.097  10.441
54025W        W17749  40.038  39.472  13.906
54026W        W17750  23.735  40.841  11.578
54027W        W17751  35.986   3.873  14.894
54028W        W17752  30.651  40.538   1.890
54029W        W17753  17.685  12.719   4.328
54030W        W17754  33.520  13.156   9.596
54031W        W17755  36.457  23.539   0.917
54032W        W17756  33.954  22.543   2.391
54033W        W17757  28.634  11.801   4.832
54034W        W17758  38.916   4.412  12.077
54035W        W17759   7.708   6.236   1.273
54036W        W17760  26.689  14.182  10.946
54037W        W17761  17.627  39.543   2.387
54038W        W17762   3.319  43.415  13.942
54039W        W17763  17.107  34.095   3.738
54040W        W17764  43.912  29.621  10.504
54041W        W17765  28.103  27.120  13.881
54042W        W17766   0.769  18.698   1.359
54043W        W17767  42.390  16.754  14.321
54044W        W17768  24.101  42.518   2.327
54045W        W17769  26.113  14.304   2.244
54046W        W17770  22.210  11.148   2.666
54047W        W17771   0.390   6.333  13.431
54048W        W17772  22.995  21.131  14.484
54049W        W17773  41.435  39.344  14.341
54050W        W17774  19.692  16.767   5.189
54051W        W17775  39.951  12.812  10.570
54052W        W17776   1.830   1.483   2.845
54053W        W17777  33.026  43.771   2.838
54054W        W17778  24.664  16.206   3.762
54055W        W17779  31.090  26.174   1.922
54056W        W17780  25.478  11.721   1.280
54057W        W17781   3.911  16.138  12.027
54058W        W17782  39.843  24.506  11.923
54059W        W17783   8.843  30.456   2.291
54060W        W17784  12.699   6.792   0.899
54061W        W17785  32.921   8.799  13.434
54062W        W17786   5.423  13.230   0.392
54063W        W17787  38.885  26.117  12.066
54064W        W17788  14.251   3.804   9.963
54065W        W17789  39.558  39.999  12.438
54066W        W17790  34.953  15.602  14.288
54067W        W17791  21.211  22.664  12.982
54068W        W17792   6.796  39.015  12.560
54069W        W17793  24.016  32.933   2.695
54070W        W17794  28.144  18.664   0.329
54071W        W17795  39.011  16.567  10.141
54072W        W17796  11.683  43.352  14.299
54073W        W17797   8.895  25.503   4.199
54074W        W17798  20.153   3.852   4.715
54075W        W17799  38.011  36.021   4.650
54076W        W17800  16.171  30.538  14.400
54077W        W17801  21.698  42.815  12.344
54078W        W17802   2.407  21.529  13.493
54079W        W17803   5.872  20.074  11.609
54080W        W17804  24.655  43.329  12.084
54081W        W17805  40.985   3.403  14.998
54082W        W17806   5.818  18.677  12.447
54083W        W17807  19.552   7.765  14.884
54084W        W17808  34.911  44.433  10.639
54085W        W17809  17.244  15.666  10.531
54086W        W17810  43.400  36.843   4.221
54087W        W17811  28.096   9.322  10.542
54088W        W17812  37.867  12.203   4.325
54089W        W17813  28.146  25.151  12.043
54090W        W17814  19.697  12.675   3.312
54091W        W17815  12.722   9.380  12.977
54092W        W17816  22.698  26.568   1.927
54093W        W17817   3.890   4.205  13.824
54094W        W17818  38.492  39.484   3.266
54095W        W17819  42.421  38.074  11.382
54096W        W17820  42.032  20.183   2.269
54097W        W17821  25.208  11.766  12.010
54098W        W17822  36.466   8.668   4.257
54099W        W17823   2.927   9.299   0.782
54100W        W17824   3.899  30.437   1.442
54101W        W17825  35.895  36.896   3.778
54102W        W17826   5.358  41.499  11.915
54103W        W17827   4.253  34.097   0.244
54104W        W17828  28.592  32.071  13.490
54105W        W17829   4.781  21.674  14.883
54106W        W17830  22.129  14.162   0.814
54107W        W17831  32.000  35.451  12.375
54108W        W17832  10.775  10.170  12.091
54109W        W17833  30.471  14.122  10.888
54110W        W17834  21.229  23.231   4.242
54111W        W17835   2.287  22.708   2.246
54112W        W17836  15.088  24.579  12.358
54113W        W17837  29.501  25.685  13.512
54114W        W17838  38.380  13.105  12.367
54115W        W17839   7.844  12.703  13.811
54116W        W17840   1.957  44.345   1.808
54117W        W17841  39.854  22.635  12.392
54118W        W17842  21.044  15.580  13.014
54119W        W17843  16.130   5.413  12.385
54120W        W17844   0.955  31.098   3.340
54121W        W17845  24.128  40.866  12.040
54122W        W17846  36.407  41.939   2.695
54123W        W17847  28.108   2.290  10.404
54124W        W17848  10.183  33.509   1.317
54125W        W17849  26.692  21.088  11.991
54126W        W17850  38.382   4.329   4.674
54127W        W17851  15.755  32.617   0.913
54128W        W17852   9.384  43.418  14.920
54129W        W17853  31.029  15.661  12.520
54130W        W17854  25.011  21.085   3.223
54131W        W17855  16.580  16.660   4.320
54132W        W17856  40.863  44.009   2.784
54133W        W17857  23.730   5.210   0.735
54134W        W17858  43.280   2.434  12.466
54135W        W17859  36.022  43.014  13.013
54136W        W17860   2.259  28.107   4.309
54137W        W17861  26.063  14.638   0.294
54138W        W17862   9.332  10.288  14.879
54139W        W17863  11.710  30.489  12.391
54140W        W17864   2.302   6.686   2.671
54141W        W17865   5.372  23.598  11.429
54142W        W17866  18.579  22.668  10.027
54143W        W17867  16.638   2.460   0.825
54144W        W17868  26.583  21.122  14.377
54145W        W17869  14.750   1.250   0.371
54146W        W17870   4.897  21.074  13.904
54147W        W17871  17.765  18.561   3.188
54148W        W17872  35.531  30.086  14.964
54149W        W17873   2.854  21.048  12.091
54150W        W17874   2.787  16.235   3.791
54151W        W17875  17.145  42.952   3.201
54152W        W17876  44.832   0.391  10.516
54153W        W17877  12.624  32.032   5.110
54154W        W17878  29.446  34.921   1.224
54155W        W17879  43.835   5.712  14.941
54156W        W17880   7.277  43.823   0.392
54157W        W17881  21.683  33.474   1.408
54158W        W17882  18.161  27.010  13.003
54159W        W17883  11.279  37.576  12.978
54160W        W17884   0.431   5.299  14.813
54161W        W17885   4.759  44.961  14.476
54162W        W17886   7.888   9.817  13.498
54163W        W17887  26.644   7.720  12.840
54164W        W17888  39.480  11.739  13.462
54165W        W17889  15.103  35.481  10.412
54166W        W17890  18.571  44.424   3.630
54167W        W17891  24.575   1.969  11.456
54168W        W17892   7.767  41.855  10.543
54169W        W17893  36.883  27.581   4.267
54170W        W17894   5.292  14.802  11.126
54171W        W17895  12.687  24.608   1.267
54172W        W17896  32.020   5.380  14.453
54173W        W17897  18.050  37.404   2.876
54174W        W17898   5.247  16.767  13.514
54175W        W17899  39.851  33.884   2.847
54176W        W17900   6.799  27.968   0.274
54177W        W17901  16.587   4.450   9.661
54178W        W17902   1.470   6.264  14.512
54179W        W17903  17.671   7.840   1.408
54180W        W17904  11.176  43.407  11.863
54181W        W17905  28.522   7.360  11.122
54182W        W17906  40.487  40.349   3.696
54183W        W17907  37.404   1.306   4.747
54184W        W17908  16.759  15.674  12.526
54185W        W17909  34.959  24.587   4.166
54186W        W17910  25.004  21.605   2.190
54187W        W17911  33.958  26.670  11.973
54188W        W17912  20.093   9.225  14.340
54189W        W17913   2.437  43.458   4.139
54190W        W17914  11.703  22.705  11.591
54191W        W17915  17.652  26.686   0.274
54192W        W17916  40.411  12.724   4.170
54193W        W17917  17.689   9.649  10.988
54194W        W17918  40.974  28.042   0.910
54195W        W17919  38.515  44.759   3.795
54196W        W17920   7.715  14.664   5.153
54197W        W17921   9.676  23.692   2.230
54198W        W17922  17.183  15.298  11.547
54199W        W17923  43.379  15.220  11.943
54200W        W17924  41.381   7.226  12.468
54201W        W17925  32.908   5.690  12.534
54202W        W17926  24.568  26.054   0.412
54203W        W17927  27.169  25.210   0.368
54204W        W17928   9.721  13.703  14.977
54205W        W17929  37.552  16.739   2.800
54206W        W17930  30.655  11.307  11.482
54207W        W17931  43.986  35.982   4.190
54208W        W17932  42.818   2.253   3.200
54209W        W17933  42.969  38.018   3.157
54210W        W17934  12.620  29.931   2.870
54211W        W17935   3.361  38.436  13.526
54212W        W17936   6.246  30.959   4.761
54213W        W17937  26.065  38.030   2.197
54214W        W17938   8.347  40.547  14.786
54215W        W17939  41.854  23.231   3.375
54216W        W17940  29.958   9.752  11.097
54217W        W17941   8.184  33.473  12.560
54218W        W17942  23.731  23.528  10.502
54219W        W17943   7.784  40.925   1.725
54220W        W17944  40.863  41.379   3.831
54221W        W17945  10.272  22.632  14.420
54222W        W17946  13.337  11.267  13.458
54223W        W17947  18.102  16.190  12.066
54224W        W17948  30.565  23.047   3.833
54225W        W17949  27.115   8.224   3.793
54226W        W17950  15.657  10.819  10.519
54227W        W17951  11.692  39.517  13.008
54228W        W17952  27.022  14.109   0.323
54229W        W17953   1.282  38.503   0.965
54230W        W17954  13.172  40.530   5.153
54231W        W17955  17.180  36.911  14.774
54232W        W17956   1.880  41.790   3.855
54233W        W17957   4.223   1.427   0.916
54234W        W17958  21.246  13.192  11.389
54235W        W17959  28.949   5.339   2.805
54236W        W17960   2.903  25.545   3.323
54237W        W17961   3.418  30.611   1.212
54238W        W17962  42.898  37.498   3.339
54239W        W17963  29.461  36.416  12.515
54240W        W17964   4.383  38.397   0.331
54241W        W17965  44.910  10.658   4.133
54242W        W17966  17.667  33.905   4.724
54243W        W17967  16.713   9.349   2.833
54244W        W17968   0.462   9.861   3.855
54245W        W17969  37.516  44.884   0.819
54246W        W17970   3.800  37.015  11.066
54247W        W17971   3.923  37.959   1.299
54248W        W17972  17.274  22.527   2.868
54249W        W17973  41.992  44.006   3.262
54250W        W17974   5.701   1.260  14.327
54251W        W17975  38.555  17.157  10.532
54252W        W17976  42.833   0.755  13.995
54253W        W17977  22.683  13.317  13.830
54254W        W17978  36.878  24.512   3.273
54255W        W17979  17.765   0.977  12.857
54256W        W17980  23.675  22.065   3.299
54257W        W17981  40.931  22.208   4.638
54258W        W17982  24.974  12.623   4.769
54259W        W17983   7.176  31.121   1.347
54260W        W17984   7.229   9.714   2.686
54261W        W17985  18.592  29.944   3.294
54262W        W17986  20.640  14.176  10.617
54263W        W17987  43.314   7.338   2.293
54264W        W17988   3.880  40.334  10.631
54265W        W17989  43.280  44.798  11.400
54266W        W17990  37.371  16.227   3.370
54267W        W17991  36.926  30.023   1.863
54268W        W17992   6.195  31.410   2.781
54269W        W17993  33.901  33.990   2.395
54270W        W17994   3.446   1.239  11.454
54271W        W17995  43.395  14.255   4.833
54272W        W17996  22.175  13.763  13.018
54273W        W17997  21.021  32.970  11.955
54274W        W17998   7.785   7.331   4.170
54275W        W17999  38.872   0.777  10.141
54276W        W18000  37.558  15.215   0.955
54277W        W18001  23.695  12.139   2.340
54278W        W18002  22.175  17.741   2.181
54279W        W18003  25.562  26.529   3.323
54280W        W18004  20.713  19.191   1.343
54281W        W18005  16.793  38.912  14.782
54282W        W18006  16.794  33.006  14.782
54283W        W18007  24.499  38.963   4.256
54284W        W18008   3.303  23.615   4.816
54285W        W18009   6.866  18.266   0.378
54286W        W18010   3.800  44.845  11.028
54287W        W18011  44.427  12.235  14.888
54288W        W18012  44.947  14.750  12.891
54289W        W18013  30.525  27.471  14.027
54290W        W18014  29.164  39.385   1.723
54291W        W18015  19.172  39.917   3.697
54292W        W18016   8.825  22.715  14.352
54293W        W18017  22.515  24.689  12.416
54294W        W18018   7.398   5.207   3.314
54295W        W18019   4.205  13.763  12.914
54296W        W18020   9.832  33.065   0.867
54297W        W18021  24.029  38.468  14.920
54298W        W18022   3.797  29.490   4.741
54299W        W18023  29.074  32.971  12.441
54300W        W18024  32.895   9.348   0.869
54301W        W18025   2.809  40.808  13.043
54302W        W18026  24.555  15.171   3.150
54303W        W18027  42.341  31.472  14.500
54304W        W18028  32.518  31.984  14.472
54305W        W18029  42.938  37.876   1.694
54306W        W18030  33.024   5.265   1.343
54307W        W18031   5.868  44.495   1.245
54308W        W18032   8.831  11.681   1.859
54309W        W18033  17.740  11.342   4.295
54310W        W18034  32.065  12.330  12.509
54311W        W18035  23.119  39.441  13.014
54312W        W18036  19.549  18.233  14.411
54313W        W18037   7.333   6.754   2.229
54314W        W18038  31.139  39.996   1.915
54315W        W18039  42.884  11.825  13.794
54316W        W18040  12.155  36.097  11.449
54317W        W18041  27.047   3.446  13.415
54318W        W18042  25.088  14.700   4.609
54319W        W18043   6.243  22.662  10.614
54320W        W18044  30.129  38.012  12.576
54321W        W18045   4.814  12.817  12.506
54322W        W18046  32.886  15.683  13.983
54323W        W18047  25.579  43.978  13.959
54324W        W18048  35.404   6.244  14.437
54325W        W18049  21.157  20.597   3.774
54326W        W18050   0.468  35.566   3.870
54327W        W18051  19.556  17.245   0.410
54328W        W18052   8.879   4.332  10.485
54329W        W18053   9.843  28.160   3.327
54330W        W18054  29.162   5.323  10.950
54331W        W18055  35.933  43.417   3.260
54332W        W18056  39.972   8.894  14.466
54333W        W18057  14.223  19.133   4.275
54334W        W18058  13.288   4.886   1.837
54335W        W18059  27.942  42.518   2.416
54336W        W18060  29.139   5.255   3.658
54337W        W18061  30.600  26.001   0.936
54338W        W18062  44.888  33.581   2.248
54339W        W18063   8.828  28.077   0.350
54340W        W18064  42.965  18.153  12.024
54341W        W18065  21.599  16.579   2.388
54342W        W18066  11.735   5.381   4.829
54343W        W18067  22.633   3.261  10.918
54344W        W18068  11.750  40.498  12.369
54345W        W18069   1.761  33.430  13.858
54346W        W18070  34.437  19.191   4.830
54347W        W18071  15.288  39.355   3.633
54348W        W18072  21.053  28.947   0.880
54349W        W18073  43.365  24.191  10.919
54350W        W18074  22.164  29.964  13.352
54351W        W18075   3.932   3.803   2.694
54352W        W18076  10.341   2.283  11.936
54353W        W18077   0.397   5.257  10.568
54354W        W18078   2.865   1.926   4.722
54355W        W18079  25.495  33.552   3.256
54356W        W18080  39.968  40.053  13.996
54357W        W18081  30.630  32.621   2.802
54358W        W18082  44.985  19.070  10.969
54359W        W18083  23.039  15.640  13.826
54360W        W18084  10.336  25.130   2.678
54361W        W18085   4.257  26.686  12.048
54362W        W18086  22.153  35.089   2.882
54363W        W18087  28.002  40.845   4.297
54364W        W18088  43.996  15.262  14.951
54365W        W18089   9.334  15.627  11.460
54366W        W18090  20.123  11.168   0.952
54367W        W18091  40.354   8.770  13.054
54368W        W18092  24.620   1.238   1.833
54369W        W18093   4.445  36.503   2.776
54370W        W18094  22.703  20.695   0.808
54371W        W18095  34.533   1.386   3.177
54372W        W18096  34.882  31.559  14.913
54373W        W18097  19.776   1.938   3.348
54374W        W18098  13.349  27.467   1.343
54375W        W18099  13.308  15.177   4.258
54376W        W18100  12.143  22.152  14.389
54377W        W18101  23.644  18.651  13.033
54378W        W18102   6.688  18.577  14.028
54379W        W18103  42.463  37.446  12.473
54380W        W18104  31.988   7.740  11.882
54381W        W18105   0.482  18.175  10.429
54382W        W18106  42.440   2.456  14.788
54383W        W18107   2.312  16.144  10.506
54384W        W18108  27.060  44.432   0.353
54385W        W18109  33.557  12.126  10.139
54386W        W18110  22.714   2.373   3.377
54387W        W18111  22.728  35.073   5.261
54388W        W18112  42.809  18.200   4.350
54389W        W18113  28.023  40.315   0.743
54390W        W18114   5.329  22.568  11.500
54391W        W18115  39.954  34.460  11.607
54392W        W18116  32.458   1.241  12.411
54393W        W18117   5.786  38.327  14.352
54394W        W18118  24.999  14.783  12.562
54395W        W18119  30.418  13.325   4.260
54396W        W18120  37.959  26.614   4.131
54397W        W18121  38.843  37.005   2.676
54398W        W18122  17.296  33.960  11.613
54399W        W18123  12.140  28.532  13.958
54400W        W18124   4.886  21.675   4.738
54401W        W18125  35.020  17.692   4.688
54402W        W18126  39.501  38.959  14.485
54403W        W18127  42.994  21.670   4.198
54404W        W18128  31.478  41.492   2.766
54405W        W18129  34.985   0.439   4.277
54406W        W18130  25.526   0.966  13.894
54407W        W18131  27.058  24.690  13.832
54408W        W18132  26.166  22.637   2.752
54409W        W18133  13.695  32.068  10.976
54410W        W18134  31.016   8.898   1.853
54411W        W18135  22.237  21.536   3.264
54412W        W18136  31.068   7.251  11.475
54413W        W18137  42.480  12.787  11.972
54414W        W18138   8.865   8.827   3.775
54415W        W18139  32.887  38.903   1.806
54416W        W18140  30.563  15.115   3.778
54417W        W18141  14.127   6.401  13.384
54418W        W18142   7.302  36.516  12.531
54419W        W18143  25.991  30.447  10.588
54420W        W18144  18.123  27.157   0.456
54421W        W18145  32.004  11.821  11.399
54422W        W18146  36.401   3.765   1.319
54423W        W18147  32.612  17.571  13.909
54424W        W18148  18.205  16.592  13.005
54425W        W18149  40.439  10.810   2.208
54426W        W18150  19.638  28.571  13.369
54427W        W18151   3.833  32.970  14.379
54428W        W18152  39.324   5.348   4.640
54429W        W18153   2.752   2.858  11.418
54430W        W18154  24.139  43.373  12.057
54431W        W18155  25.191  27.169   4.133
54432W        W18156  12.276  42.918  12.027
54433W        W18157  28.999  25.084   0.463
54434W        W18158  33.926   1.911  11.006
54435W        W18159  28.577  37.553  12.081
54436W        W18160  38.070  39.059  12.355
54437W        W18161  24.195  35.913  13.913
54438W        W18162  32.517  12.183   1.315
54439W        W18163   9.752   6.914  10.963
54440W        W18164  30.046  18.761   3.669
54441W        W18165  13.682  28.449  10.606
54442W        W18166  37.384  29.667   2.419
54443W        W18167  38.325  21.140   2.307
54444W        W18168  11.668  16.073  12.559
54445W        W18169  24.537  16.678  13.417
54446W        W18170  33.019  23.066  10.977
54447W        W18171  34.018  38.337   1.866
54448W        W18172   5.412  36.494  12.021
54449W        W18173  18.063   3.762   4.206
54450W        W18174   4.230  19.778   2.275
54451W        W18175  17.706  27.516  11.426
54452W        W18176  27.520  39.475  12.869
54453W        W18177  15.120  19.285   1.360
54454W        W18178  33.621   0.295  11.129
54455W        W18179  34.025  41.926   3.156
54456W        W18180  37.939   2.964   3.295
54457W        W18181  37.950  16.121  14.441
54458W        W18182  12.182  17.234  12.469
54459W        W18183  15.321  16.652   2.286
54460W        W18184  39.964  41.886  14.434
54461W        W18185  24.194  40.968   3.793
54462W        W18186  15.153  13.186  10.906
54463W        W18187  16.097   7.312  10.636
54464W        W18188  24.016  13.276   2.283
54465W        W18189  18.752  24.624   3.752
54466W        W18190   8.397  30.004   0.247
54467W        W18191   7.281  35.020   1.230
54468W        W18192  43.832  28.611  12.552
54469W        W18193   1.874   7.218  14.496
54470W        W18194  37.868  41.873   3.301
54471W        W18195  41.016  17.209  13.828
54472W        W18196  15.138  35.975  13.430
54473W        W18197  19.140  38.018   9.486
54474W        W18198  41.873  14.107   0.431
54475W        W18199  30.923  41.494  12.938
54476W        W18200  28.128   3.955  11.598
54477W        W18201  39.540   8.300  13.430
54478W        W18202  15.159  24.718  12.023
54479W        W18203  37.901   2.919  11.548
54480W        W18204  20.130  35.927   3.865
54481W        W18205  15.686  16.667   4.249
54482W        W18206  39.383  38.828  11.877
54483W        W18207  23.547  13.736   0.477
54484W        W18208  13.788  35.984  10.404
54485W        W18209  44.259  39.487   3.237
54486W        W18210  37.951   8.321  13.462
54487W        W18211  33.089   6.863  11.601
54488W        W18212  15.619  13.129  12.437
54489W        W18213  18.095  30.454   0.458
54490W        W18214  32.083  37.970  14.377
54491W        W18215  40.521  13.781   4.134
54492W        W18216  42.477  12.330  11.399
54493W        W18217   9.198  37.965  12.443
54494W        W18218  24.209  37.566  12.089
54495W        W18219  37.420   6.346   4.754
54496W        W18220  31.965  34.075   3.249
54497W        W18221   5.694  26.017  10.627
54498W        W18222   7.224   2.784   2.290
54499W        W18223  17.079  19.124   4.722
54500W        W18224  26.488   4.399  10.892
54501W        W18225  17.294  34.016   4.743
54502W        W18226  39.432  20.731  12.422
54503W        W18227  37.403   3.276  13.404
54504W        W18228   4.864  37.861  13.902
54505W        W18229  26.961   8.343   0.406
54506W        W18230  11.351  20.555   3.197
54507W        W18231  31.054  23.593   4.731
54508W        W18232  17.578  44.910  10.958
54509W        W18233  35.905  14.230  14.004
54510W        W18234  13.249  44.404  10.488
54511W        W18235  36.897   6.232   1.392
54512W        W18236  40.896  42.477  14.032
54513W        W18237  29.559  43.922  12.880
54514W        W18238   7.357   1.959  14.489
54515W        W18239  29.626  22.525  13.025
54516W        W18240  13.303  25.070   3.258
54517W        W18241  25.200  14.167  14.341
54518W        W18242  40.496  40.895  12.992
54519W        W18243  16.191  44.883  14.306
54520W        W18244  17.276  29.447   2.868
54521W        W18245  39.409  11.643   1.813
54522W        W18246  13.766  28.933  14.851
54523W        W18247  35.104  22.181   4.764
54524W        W18248  26.675  27.147  12.562
54525W        W18249  21.743  37.538   0.958
54526W        W18250   3.344  41.813  10.558
54527W        W18251  29.633  18.281   0.944
54528W        W18252  14.135  23.194  13.443
54529W        W18253  35.509  37.002   4.736
54530W        W18254  13.250   3.781   0.942
54531W        W18255  25.974  22.616   0.369
54532W        W18256  38.370   5.418  12.934
54533W        W18257   0.954  39.343   3.831
54534W        W18258   5.918  40.489  14.803
54535W        W18259  13.338  21.234  10.498
54536W        W18260  18.578  21.638   3.279
54537W        W18261  38.425  24.493   2.662
54538W        W18262  42.483  14.254  12.020
54539W        W18263  42.414  41.026  13.833
54540W        W18264  41.789  21.709  13.367
54541W        W18265  23.606   4.840  12.549
54542W        W18266  33.489  40.312   3.691
54543W        W18267  37.072  43.446   1.240
54544W        W18268  14.720  17.187   2.317
54545W        W18269  31.019   7.322   1.358
54546W        W18270  37.832  31.117  12.397
54547W        W18271   5.283  32.392  12.433
54548W        W18272  40.028   5.249   4.181
54549W        W18273   9.816  29.163  10.564
54550W        W18274  19.712  20.649   2.830
54551W        W18275  10.366  44.947   3.804
54552W        W18276  10.268   4.307   3.715
54553W        W18277  12.204   9.831   4.322
54554W        W18278  16.099  15.778   3.636
54555W        W18279  25.133  22.052  11.498
54556W        W18280  43.516  24.696   0.934
54557W        W18281  10.358  14.596   1.696
54558W        W18282  35.377  23.679  13.318
54559W        W18283   5.326  15.703   3.655
54560W        W18284  12.767   6.221   0.758
54561W        W18285  44.873  20.041  13.875
54562W        W18286   4.214   0.308  12.917
54563W        W18287  29.940  22.635  14.396
54564W        W18288  44.834   5.438   0.286
54565W        W18289   0.365  35.067   0.885
54566W        W18290  15.112  14.292  14.959
54567W        W18291  31.049  32.124  14.377
54568W        W18292  10.871  44.329  11.504
54569W        W18293   6.812  30.093  11.444
54570W        W18294  20.093  13.351  12.996
54571W        W18295   1.375  38.994   2.797
54572W        W18296   3.712  25.113   3.259
54573W        W18297  38.914  10.752  12.859
54574W        W18298  43.872  29.616  11.995
54575W        W18299   4.440   7.314   2.312
54576W        W18300  19.683  21.551  13.004
54577W        W18301  40.314  21.259  14.393
54578W        W18302   0.970  16.645  11.879
54579W        W18303  26.622  34.960   3.296
54580W        W18304  13.642   2.873   1.352
54581W        W18305  13.200   2.415   3.222
54582W        W18306  43.900  35.511  12.413
54583W        W18307  36.852  12.610  11.977
54584W        W18308  18.690  14.617  11.989
54585W        W18309  41.961  16.602   0.279
54586W        W18310  23.501  12.323   2.900
54587W        W18311  22.193  28.599   2.713
54588W        W18312  43.371  10.310   2.755
54589W        W18313  22.645  18.673  14.427
54590W        W18314  36.566  40.533   4.114
54591W        W18315  25.109  42.856   3.778
54592W        W18316  17.733  22.708  11.920
54593W        W18317  16.737  42.424   1.818
54594W        W18318  36.982  42.439  10.012
54595W        W18319   3.740   6.834   1.366
54596W        W18320  17.573   6.236   0.946
54597W        W18321  36.079   3.431  13.342
54598W        W18322  41.820  37.055  11.108
54599W        W18323  13.719  40.525   4.657
54600W        W18324  20.654  19.649   1.406
54601W        W18325  28.026  28.128  13.498
54602W        W18326  32.487  29.641  12.943
54603W        W18327  33.624  44.959  13.944
54604W        W18328  21.147  37.362  14.981
54605W        W18329  11.715  41.374   0.815
54606W        W18330   8.405  16.187   3.249
54607W        W18331  32.491  27.546   4.226
54608W        W18332  35.403  22.519  11.076
54609W        W18333   2.767  35.465  13.827
54610W        W18334  35.086  17.271   1.243
54611W        W18335  16.231  28.122   1.854
54612W        W18336   7.231  39.431   3.309
54613W        W18337  11.348  44.306   0.730
54614W        W18338  39.033   5.796  14.476
54615W        W18339  19.090  25.484   0.387
54616W        W18340  32.609  33.586  11.589
54617W        W18341   7.778  21.546  13.848
54618W        W18342  17.144  33.565  14.980
54619W        W18343   1.736  19.272  13.517
54620W        W18344  34.020  28.504   3.833
54621W        W18345  44.322  11.208  12.385
54622W        W18346  43.420  19.772   3.661
54623W        W18347  41.022   3.900  12.985
54624W        W18348   6.718  33.545   3.820
54625W        W18349   4.939   8.252   0.436
54626W        W18350  27.534   4.701  10.481
54627W        W18351  21.214  34.438  10.086
54628W        W18352  29.005  16.728  11.611
54629W        W18353  40.964  34.420  11.101
54630W        W18354  11.161  17.698  12.558
54631W        W18355  25.051   6.268   0.422
54632W        W18356   6.906  31.523   1.853
54633W        W18357  28.132  29.507  11.407
54634W        W18358  20.717  19.675   0.954
54635W        W18359   5.379  25.599   2.696
54636W        W18360  36.844   9.828   3.159
54637W        W18361   3.292  41.987  11.374
54638W        W18362  14.604  44.463   1.394
54639W        W18363  35.480  19.107   3.147
54640W        W18364  22.026  37.487   5.603
54641W        W18365   4.282  12.257   1.366
54642W        W18366   7.800  26.025  12.084
54643W        W18367  27.516  40.514   0.350
54644W        W18368  24.018   9.279  12.551
54645W        W18369  29.016   4.730   2.410
54646W        W18370  44.309  30.126   3.656
54647W        W18371  29.150  35.983  10.465
54648W        W18372   3.861  24.585  14.873
54649W        W18373   5.875   4.788   0.947
54650W        W18374   3.440  30.159  11.968
54651W        W18375   3.935   2.353  11.946
54652W        W18376  37.992  10.255  14.439
54653W        W18377  10.160  10.186   1.438
54654W        W18378  40.526  36.531  12.469
54655W        W18379  23.710  27.144   0.902
54656W        W18380  18.716  23.006   3.345
54657W        W18381  24.004  16.276  11.917
54658W        W18382   4.280  41.482   1.868
54659W        W18383  22.226  16.575   0.744
54660W        W18384  33.000  21.053  11.988
54661W        W18385   3.809  31.967  14.985
54662W        W18386  41.304  21.172  10.039
54663W        W18387  18.108  42.840   1.844
54664W        W18388  13.766   1.253  14.406
54665W        W18389   4.744   6.712  14.762
54666W        W18390   6.360  32.521   3.670
54667W        W18391  22.184   3.399  12.934
54668W        W18392  31.466   2.922   2.385
54669W        W18393  25.993  41.010   2.755
54670W        W18394  24.527  13.125   4.262
54671W        W18395  28.624  14.679   3.674
54672W        W18396  41.864  35.874  14.423
54673W        W18397  15.146  20.271  12.056
54674W        W18398  34.458  11.673  10.568
54675W        W18399   6.714  13.799   1.928
54676W        W18400  42.858  32.139   1.865
54677W        W18401  16.653  10.667   2.876
54678W        W18402  12.811   2.861   4.688
54679W        W18403  42.344  25.088   2.235
54680W        W18404   4.725  39.842   3.351
54681W        W18405  28.508  39.929  10.631
54682W        W18406   7.342  28.439   2.780
54683W        W18407   2.426  21.217   3.251
54684W        W18408   9.266  28.048  12.551
54685W        W18409  14.326   1.780   3.179
54686W        W18410  15.671  10.853  14.398
54687W        W18411  28.127   2.735  13.895
54688W        W18412   2.789   3.342   0.403
54689W        W18413  27.505  17.158  14.884
54690W        W18414  35.934   2.237   4.618
54691W        W18415   8.866   0.383  10.934
54692W        W18416   0.427  33.086   0.413
54693W        W18417  10.308   9.199   1.404
54694W        W18418   9.239   8.204  11.983
54695W        W18419  12.651   5.403  13.823
54696W        W18420  27.649  25.173   1.408
54697W        W18421  21.176   9.365  14.387
54698W        W18422  34.057  22.528   1.329
54699W        W18423  34.066  38.325   2.248
54700W        W18424  43.857   3.714  14.302
54701W        W18425  44.288  19.657   1.364
54702W        W18426  20.627  38.557   3.669
54703W        W18427  33.037  15.155   3.333
54704W        W18428  30.573  11.850   4.779
54705W        W18429   0.412   6.318   1.931
54706W        W18430  17.258  25.603   2.753
54707W        W18431  39.885  24.168  14.924
54708W        W18432   3.249  25.472   3.279
54709W        W18433  14.659  11.621   4.680
54710W        W18434  19.055  19.738   0.933
54711W        W18435   8.836  27.612   0.891
54712W        W18436  29.611  22.219  13.484
54713W        W18437  18.290  33.937   3.758
54714W        W18438   7.833  16.632  11.125
54715W        W18439  17.633  38.002   1.699
54716W        W18440  14.256  15.146  11.502
54717W        W18441  19.164  34.480   1.336
54718W        W18442   4.875  29.539   3.737
54719W        W18443  20.594  44.465   4.254
54720W        W18444  43.461   4.447   1.732
54721W        W18445  39.947   4.895   1.868
54722W        W18446  24.631  27.493   2.327
54723W        W18447  38.387   4.344   0.416
54724W        W18448   3.778  31.029  14.354
54725W        W18449  31.628  11.720   0.362
54726W        W18450  35.380  32.941   1.734
54727W        W18451   5.314  31.508  14.974
54728W        W18452  12.773  29.081   4.739
54729W        W18453  35.081  20.189  14.340
54730W        W18454  36.948   2.272   1.224
54731W        W18455  20.261  18.563  12.412
54732W        W18456  31.445  20.676   3.852
54733W        W18457  13.642   6.728   2.236
54734W        W18458   5.214   5.361   3.188
54735W        W18459  19.704  37.943  10.567
54736W        W18460  25.130   3.353  13.965
54737W        W18461   3.440  23.099   3.156
54738W        W18462  26.550  15.168   2.233
54739W        W18463  36.372  31.645   3.149
54740W        W18464  13.823  24.060   2.223
54741W        W18465  40.822  35.469  11.053
54742W        W18466  26.580  31.456   3.858
54743W        W18467  41.865  17.627   4.684
54744W        W18468  24.508  10.810   4.765
54745W        W18469  14.192   6.795  11.017
54746W        W18470  19.231  43.372   4.165
54747W        W18471  12.127  11.816  12.417
54748W        W18472  12.330   3.386   5.184
54749W        W18473  35.486  22.109  14.893
54750W        W18474   8.670   2.468   0.316
54751W        W18475  34.408  17.753  11.982
54752W        W18476  35.997  20.736  12.083
54753W        W18477  36.941  29.060  11.001
54754W        W18478   7.854   2.944   1.307
54755W        W18479  12.650  39.942   2.786
54756W        W18480   4.435  29.063   1.911
54757W        W18481   5.316  12.134  10.097
54758W        W18482  39.393  34.010   2.365
54759W        W18483   3.815  20.057  13.426
54760W        W18484  44.261  11.638   1.828
54761W        W18485  16.638   2.953  11.468
54762W        W18486  13.745  38.829  12.555
54763W        W18487  43.947   8.163  10.474
54764W        W18488  37.514  21.141   0.248
54765W        W18489   8.396  43.844   4.721
54766W        W18490  41.380  17.285  11.552
54767W        W18491   8.870   1.744   0.405
54768W        W18492  41.303  17.266   1.841
54769W        W18493  35.897  20.697   3.860
54770W        W18494  20.150  21.625  14.794
54771W        W18495  44.855  17.270  11.881
54772W        W18496  19.560  16.598   2.800
54773W        W18497  28.035  37.363   3.840
54774W        W18498   8.894  18.570   4.276
54775W        W18499   4.354  25.628  10.585
54776W        W18500  29.639   7.680   4.176
54777W        W18501   8.385  41.366  10.465
54778W        W18502  39.954   3.325   0.761
54779W        W18503  34.569  13.200   0.964
54780W        W18504   1.249  22.556   1.363
54781W        W18505  13.296  29.633  10.004
54782W        W18506   6.191   3.717  12.901
54783W        W18507  10.158  31.518  12.972
54784W        W18508   8.721  31.502   3.768
54785W        W18509  44.943  44.777   2.403
54786W        W18510  33.440  44.446   0.263
54787W        W18511  19.231  26.555   2.685
54788W        W18512  26.046  25.711   3.330
54789W        W18513  32.137  13.160   1.436
54790W        W18514   0.473  17.750  11.383
54791W        W18515   2.270  44.323   3.706
54792W        W18516  44.403  23.606   3.844
54793W        W18517  40.869  30.970  11.465
54794W        W18518   6.428   5.262  10.554
54795W        W18519  13.168   1.837  14.898
54796W        W18520  13.274  23.679   4.295
54797W        W18521  36.530   7.218   0.915
54798W        W18522  41.958  18.261   2.719
54799W        W18523   2.419  35.541   2.246
54800W        W18524  44.483   6.218  13.493
54801W        W18525  34.517  29.503   0.866
54802W        W18526  23.158  38.472   2.807
54803W        W18527  15.578  41.819  14.419
54804W        W18528  40.956  25.135   9.977
54805W        W18529  34.435  35.537  13.442
54806W        W18530  28.590   0.470   3.147
54807W        W18531  42.324  42.824   5.091
54808W        W18532  24.099  39.316   0.290
54809W        W18533  23.586  36.454   4.286
54810W        W18534   3.432  15.112   4.826
54811W        W18535   1.919  36.566  13.416
54812W        W18536  39.945   3.710  11.939
54813W        W18537  25.214  17.186   3.248
54814W        W18538  39.536   2.366   0.800
54815W        W18539   5.277  22.061  10.493
54816W        W18540  37.938  42.301   4.207
54817W        W18541  39.394  44.501  11.868
54818W        W18542  17.145  34.477  11.005
54819W        W18543   1.834  22.050  11.998
54820W        W18544  28.073  11.668   3.688
54821W        W18545  22.686  24.101  12.902
54822W        W18546   7.377  15.199  10.626
54823W        W18547  27.054  42.015  10.586
54824W        W18548  22.057  33.430   1.766
54825W        W18549  10.745  27.196  14.785
54826W        W18550  11.661  40.013   3.186
54827W        W18551  21.170   7.309   2.769
54828W        W18552  16.789  36.079   0.436
54829W        W18553  21.165  20.642   4.790
54830W        W18554  37.472  16.161   2.896
54831W        W18555  33.008  10.332  14.473
54832W        W18556   9.750   1.798  13.451
54833W        W18557  34.097  17.601  12.989
54834W        W18558  23.531  32.050  13.426
54835W        W18559  21.242  24.718   2.824
54836W        W18560   6.291  16.200   2.378
54837W        W18561  36.462   9.715  11.537
54838W        W18562  17.743  25.594  14.323
54839W        W18563  30.064  12.846   3.261
54840W        W18564   4.740  31.141   2.732
54841W        W18565  25.087  31.531   3.228
54842W        W18566   4.847  34.570   3.276
54843W        W18567  18.082  34.590  13.030
54844W        W18568  42.392  19.662   1.812
54845W        W18569  28.103  28.520   3.184
54846W        W18570  40.037  40.811  12.376
54847W        W18571   0.280  14.291  10.609
54848W        W18572   8.835   0.959  12.994
54849W        W18573  11.827  16.088  14.866
54850W        W18574  37.398  44.427  10.414
54851W        W18575  33.462  18.221  14.327
54852W        W18576  20.142   0.372   3.717
54853W        W18577  30.446  18.119  13.808
54854W        W18578   4.856   7.204  12.858
54855W        W18579  34.994  20.087   4.164
54856W        W18580  38.059  19.767  12.425
54857W        W18581   3.857  32.919  12.892
54858W        W18582  26.027   7.879   0.305
54859W        W18583  43.849   1.766   1.416
54860W        W18584  18.782  32.533  13.424
54861W        W18585   4.222   5.751  11.394
54862W        W18586  35.009   4.248  13.839
54863W        W18587   8.751  39.058   3.291
54864W        W18588   9.337  22.747  12.433
54865W        W18589   4.278  18.668   4.126
54866W        W18590  39.493  44.784  13.034
54867W        W18591  31.923  40.032  10.427
54868W        W18592   1.864  30.458  14.379
54869W        W18593   7.811   6.759   4.704
54870W        W18594   7.299  30.925  12.871
54871W        W18595   3.865  18.278   2.270
54872W        W18596  27.018  41.886  13.434
54873W        W18597   3.216  16.573   2.690
54874W        W18598   7.359  38.993   3.640
54875W        W18599   7.688   9.154  10.075
54876W        W18600  21.519   6.282  11.001
54877W        W18601   4.724  40.375  10.100
54878W        W18602  17.090   9.751  11.017
54879W        W18603  10.287  31.046   0.852
54880W        W18604  23.649   2.334  14.760
54881W        W18605  23.988   2.268   0.313
54882W        W18606  40.020  12.774  14.475
54883W        W18607  34.061  14.337  13.953
54884W        W18608  14.094  10.186   1.772
54885W        W18609  27.064  30.932  12.015
54886W        W18610  17.226   2.291   3.187
54887W        W18611   4.849  26.092   2.734
54888W        W18612  36.499   6.876  11.036
54889W        W18613  18.266   8.335  12.471
54890W        W18614   1.749   0.758   0.777
54891W        W18615  34.432  28.172  10.998
54892W        W18616  14.755  39.314  10.510
54893W        W18617   6.336  18.191   1.884
54894W        W18618   8.217  12.841   1.761
54895W        W18619  10.228  12.278   1.264
54896W        W18620  36.427  32.075  12.347
54897W        W18621  15.629  38.465   3.290
54898W        W18622   3.886  27.604   4.134
54899W        W18623  32.408  20.706  12.522
54900W        W18624  41.851   6.676   0.299
54901W        W18625   9.752   0.869  13.879
54902W        W18626  15.773  39.031   4.747
54903W        W18627   9.204  12.290   1.813
54904W        W18628  19.283   7.217   0.393
54905W        W18629  44.770  12.775  11.073
54906W        W18630  29.573  10.703  12.480
54907W        W18631  32.084  11.284  14.426
54908W        W18632   2.312  22.146   1.846
54909W        W18633  19.134   9.149  12.543
54910W        W18634  34.417  27.599   1.393
54911W        W18635   7.212  22.144  12.973
54912W        W18636  29.432  34.430   4.788
54913W        W18637  15.785  28.600  12.418
54914W        W18638  38.928  41.459   0.848
54915W        W18639  44.008   3.748   2.186
54916W        W18640  18.661  11.326  10.024
54917W        W18641  17.606   5.317   0.269
54918W        W18642   9.305  41.857  13.970
54919W        W18643   2.731   1.957  13.433
54920W        W18644  29.481  13.729  14.846
54921W        W18645   1.378   4.929   0.881
54922W        W18646  42.374  24.709  12.992
54923W        W18647   7.823   1.335   4.141
54924W        W18648   4.318   7.861   3.261
54925W        W18649  20.553  30.989   1.341
54926W        W18650  10.865  19.629  12.525
54927W        W18651  11.187   9.166   2.744
54928W        W18652  29.011  42.299   1.395
54929W        W18653  33.917  19.551  13.985
54930W        W18654  38.898   2.960  10.452
54931W        W18655  21.702   1.831   3.759
54932W        W18656  13.248   8.318   1.388
54933W        W18657  31.647  35.092  14.889
54934W        W18658  39.412  18.078  11.920
54935W        W18659  43.328  19.562  11.986
54936W        W18660   2.453  28.605   2.247
54937W        W18661  15.227  17.643   0.302
54938W        W18662   9.883  37.020  14.428
54939W        W18663  10.256  12.344  12.055
54940W        W18664  21.525  18.232   3.802
54941W        W18665  11.688   5.217   3.157
54942W        W18666  12.216   4.228  13.807
54943W        W18667  43.349   0.281   3.818
54944W        W18668  27.060   2.472   1.774
54945W        W18669  10.686  32.424  11.109
54946W        W18670  34.083   8.306   4.642
54947W        W18671  37.385  14.800   1.924
54948W        W18672  32.967  32.469  13.905
54949W        W18673  31.580   5.932  14.429
54950W        W18674  18.142  24.214   3.237
54951W        W18675  11.710  35.884   4.798
54952W        W18676   3.835  37.517   4.607
54953W        W18677  32.461  32.604   0.734
54954W        W18678  23.066   1.351  11.016
54955W        W18679  34.581  12.650   3.159
54956W        W18680  27.546  30.658   2.382
54957W        W18681  23.690  26.159  12.524
54958W        W18682  10.314  35.082  13.059
54959W        W18683  19.771   8.709  12.426
54960W        W18684  35.063  18.671  14.474
54961W        W18685  24.532   0.957  13.472
54962W        W18686  29.429  38.863  11.459
54963W        W18687  27.105   1.965  13.019
54964W        W18688  31.436  26.503  10.895
54965W        W18689  42.920  14.205  12.928
54966W        W18690  10.355  26.588   4.739
54967W        W18691   2.229  41.828   3.782
54968W        W18692  26.074  44.961   4.627
54969W        W18693  43.319  11.302  10.959
54970W        W18694  17.787   3.357  10.422
54971W        W18695  22.684  35.522   1.700
54972W        W18696  42.855  33.620   3.386
54973W        W18697  34.468  29.625   2.402
54974W        W18698  21.552   0.795   3.636
54975W        W18699  24.022  39.881   5.723
54976W        W18700  17.598  21.715   0.790
54977W        W18701  26.597  21.581  13.835
54978W        W18702   2.394   1.373   2.399
54979W        W18703  39.946  44.409  14.856
54980W        W18704  17.116  43.276   9.962
54981W        W18705  19.163  17.196   3.794
54982W        W18706  42.293  22.007  10.924
54983W        W18707   5.923  23.577  12.965
54984W        W18708  27.117  17.773  13.820
54985W        W18709  37.346  40.529   3.236
54986W        W18710  25.557  12.645  11.589
54987W        W18711   6.909   3.808  11.990
54988W        W18712  38.401  16.142   1.703
54989W        W18713   4.857  43.333  10.618
54990W        W18714   2.438   3.717   1.318
54991W        W18715  15.278  26.630   3.763
54992W        W18716   5.193  14.776  11.506
54993W        W18717  44.876  40.328  14.944
54994W        W18718  14.190  24.581   3.204
54995W        W18719  39.923   8.232   3.228
54996W        W18720  16.659   4.361   3.222
54997W        W18721  11.776  23.105  14.896
54998W        W18722  20.151   2.229   3.724
54999W        W18723  14.680  40.884  10.433
55000W        W18724  18.767  18.193  13.453
55001W        W18725  19.747   9.830  10.934
55002W        W18726  20.586  15.631   3.681
55003W        W18727  38.825   5.716  11.578
55004W        W18728  27.531  43.886  10.599
55005W        W18729   1.829  43.471  10.933
55006W        W18730  15.724   7.316  10.033
55007W        W18731   4.749  26.959   3.837
55008W        W18732  36.347  34.468  14.901
55009W        W18733  40.452  23.192  12.941
55010W        W18734  37.003  26.583  10.433
55011W        W18735  29.930  42.861   4.280
55012W        W18736  15.588   3.370  11.943
55013W        W18737  37.472   6.390   2.680
55014W        W18738  17.166  14.697   5.571
55015W        W18739  19.261  24.641  12.405
55016W        W18740  10.309  10.375  12.986
55017W        W18741  37.843  33.005  14.892
55018W        W18742   2.374  44.989  13.967
55019W        W18743  12.714  10.371   0.412
55020W        W18744  20.205   5.271   2.877
55021W        W18745  41.434  36.995   0.447
55022W        W18746  17.168  28.439  14.836
55023W        W18747   4.812  41.484  14.978
55024W        W18748  33.874  10.740  13.869
55025W        W18749  20.263  20.540  14.510
55026W        W18750  36.443  19.196   1.706
55027W        W18751  27.165  20.185   0.401
55028W        W18752  44.915  32.398  12.842
55029W        W18753  40.935   3.901   3.247
55030W        W18754  44.368  27.554  12.859
55031W        W18755  31.503  11.208  10.913
55032W        W18756  25.490  15.120  13.986
55033W        W18757  33.967  13.185   1.873
55034W        W18758   9.289  13.346  12.577
55035W        W18759   9.787  34.421  14.935
55036W        W18760   1.949  41.855   2.274
55037W        W18761  25.055  29.441   1.790
55038W        W18762  24.627   6.374  12.009
55039W        W18763  25.088  17.245   1.259
55040W        W18764  21.194  37.088   4.797
55041W        W18765  43.881   5.307   4.784
55042W        W18766  32.531  41.474   4.627
55043W        W18767  40.888  28.112  11.936
55044W        W18768  40.375  21.237   1.389
55045W        W18769  28.562  17.120   4.343
55046W        W18770  14.107   4.340   4.151
55047W        W18771  20.561  19.776  14.907
55048W        W18772  39.943  17.794  13.813
55049W        W18773   2.270  42.976   4.665
55050W        W18774  20.655  33.620   4.817
55051W        W18775  35.065  28.955  12.825
55052W        W18776  10.182   3.298   2.368
55053W        W18777  32.070  12.341   0.316
55054W        W18778  37.394  11.666  14.508
55055W        W18779  17.658  44.311   1.364
55056W        W18780  41.841  41.392   0.329
55057W        W18781  13.302  27.691  14.401
55058W        W18782   8.245   6.223  11.529
55059W        W18783  27.636  40.403   1.430
55060W        W18784   7.410  40.812  14.849
55061W        W18785  19.077  31.598   4.149
55062W        W18786   1.961  31.092   3.240
55063W        W18787  32.394  12.248   0.477
55064W        W18788  44.358  18.235  13.814
55065W        W18789  40.973  39.392   4.814
55066W        W18790  38.827  28.443   0.242
55067W        W18791  12.664  28.150  10.510
55068W        W18792  25.664  34.980   1.730
55069W        W18793   8.881  31.998   2.792
55070W        W18794  34.992  42.475   2.331
55071W        W18795  38.405  22.231  12.536
55072W        W18796  27.989   8.374  13.909
55073W        W18797  29.925  40.038  13.009
55074W        W18798  29.936  11.772  13.835
55075W        W18799  16.232  26.491  14.488
55076W        W18800  33.954  12.841   2.305
55077W        W18801  29.948  28.948  13.939
55078W        W18802  22.560   5.326  12.547
55079W        W18803   6.716  12.786   4.324
55080W        W18804  30.041   0.824  12.550
55081W        W18805  16.604  12.158  10.587
55082W        W18806  34.590  19.123   1.418
55083W        W18807  18.273  31.148  10.629
55084W        W18808  30.571   7.822  12.543
55085W        W18809   2.397   4.238   4.734
55086W        W18810  41.993  35.086   3.641
55087W        W18811  43.824  27.585   2.365
55088W        W18812  44.779  24.016   1.773
55089W        W18813   9.830   8.760  11.529
55090W        W18814  32.428  33.414  12.995
55091W        W18815  19.742  27.659  11.002
55092W        W18816  22.150  17.294  11.582
55093W        W18817   3.328  20.154   0.270
55094W        W18818  35.479  24.984   1.723
55095W        W18819  18.140  16.798  13.888
55096W        W18820  40.000  17.563   0.244
55097W        W18821  26.606  29.600  14.940
55098W        W18822  28.440   3.456  14.764
55099W        W18823  28.986  34.029  12.544
55100W        W18824  42.522  17.203   4.339
55101W        W18825  26.168  13.227   3.287
55102W        W18826  16.211  12.687  13.971
55103W        W18827  25.480  21.234  11.476
55104W        W18828  14.299  33.572  11.958
55105W        W18829  28.989  19.608  13.313
55106W        W18830  34.397  32.562   3.638
55107W        W18831   1.380  27.524  11.064
55108W        W18832  13.785  20.122  14.819
55109W        W18833  12.273  44.806   1.747
55110W        W18834  18.264  27.497  12.490
55111W        W18835  26.041   8.846   0.476
55112W        W18836  43.439   9.845   4.331
55113W        W18837  42.957   4.282  10.403
55114W        W18838   1.842  43.295  12.554
55115W        W18839  28.997  10.209  14.783
55116W        W18840   5.723  15.588  11.536
55117W        W18841  36.913  43.462  11.862
55118W        W18842  28.527  11.179  11.540
55119W        W18843  22.052  16.291   9.557
55120W        W18844   3.897   7.258  10.415
55121W        W18845   5.353  11.285  11.439
55122W        W18846  11.784  44.381   1.303
55123W        W18847  20.602  23.547  12.422
55124W        W18848  42.357  27.085  11.556
55125W        W18849  16.103  16.651  10.620
55126W        W18850  36.396  18.638   3.701
55127W        W18851  37.437  38.825  11.924
55128W        W18852  17.674   3.231   4.133
55129W        W18853   3.778   3.295  12.413
55130W        W18854   8.220  44.959  10.528
55131W        W18855  34.576  15.768   1.382
55132W        W18856  27.039  36.504   3.649
55133W        W18857   2.300  43.991  13.534
55134W        W18858  22.703  31.561   1.369
55135W        W18859  33.031  29.973   3.847
55136W        W18860  23.643   3.215  13.505
55137W        W18861  17.747  11.328  14.780
55138W        W18862  38.060  10.754   4.638
55139W        W18863  17.647  34.873  10.418
55140W        W18864   2.854  24.040  13.540
55141W        W18865  26.019   8.316  13.371
55142W        W18866  24.673  23.218  11.508
55143W        W18867   4.379  12.188   4.826
55144W        W18868  35.601  31.538   1.746
55145W        W18869  10.190   6.246  10.607
55146W        W18870  13.298  27.189   1.225
55147W        W18871  44.796   2.379   1.856
55148W        W18872  33.577  26.479   3.728
55149W        W18873  29.099   9.805  13.864
55150W        W18874  23.199  42.381  14.840
55151W        W18875  13.171  32.922   0.322
55152W        W18876   2.388  41.013   4.717
55153W        W18877  11.686  32.978  11.539
55154W        W18878  31.045  17.681   2.265
55155W        W18879   6.907  36.011   4.825
55156W        W18880  18.156   6.739   4.811
55157W        W18881  36.896  10.800   2.709
55158W        W18882   2.801  26.148  13.849
55159W        W18883  23.503  16.593  14.935
55160W        W18884   7.399  29.989   1.445
55161W        W18885   5.728  22.647   1.408
55162W        W18886  37.428  19.766   1.282
55163W        W18887  37.371  15.227  13.499
55164W        W18888  20.071  38.941   4.804
55165W        W18889  25.570  38.376  10.908
55166W        W18890  25.643  11.752  14.996
55167W        W18891  32.057   5.912  12.976
55168W        W18892  23.683   3.776  14.294
55169W        W18893   9.808  33.915   0.346
55170W        W18894  27.151  31.037  13.373
55171W        W18895  11.333  43.771  14.022
55172W        W18896  16.774  39.063   3.163
55173W        W18897  43.320  31.116   1.360
55174W        W18898  17.641   3.326  14.857
55175W        W18899  13.679  24.489   1.906
55176W        W18900  31.521  26.173   4.228
55177W        W18901  39.371  26.140   2.325
55178W        W18902  44.429  44.278   2.193
55179W        W18903   8.321  18.554   4.702
55180W        W18904  23.694  11.247  10.618
55181W        W18905   8.206  44.266   2.342
55182W        W18906  19.746  44.833  12.982
55183W        W18907   4.328  36.586   3.852
55184W        W18908  33.965   9.225  13.941
55185W        W18909  42.342  22.568  12.964
55186W        W18910  43.955  28.052  14.007
55187W        W18911   6.799  28.053  14.458
55188W        W18912  21.111  21.563  10.953
55189W        W18913  37.026  42.990  10.924
55190W        W18914  44.011  43.507   3.867
55191W        W18915  44.282   6.890   0.453
55192W        W18916   2.251  13.651   4.766
55193W        W18917  41.405  40.866  14.500
55194W        W18918  35.521  38.563  14.901
55195W        W18919  39.404  10.268  10.418
55196W        W18920  32.447  22.582   4.743
55197W        W18921  31.053  27.997   1.768
55198W        W18922  34.466  15.236   1.919
55199W        W18923  12.718  31.616   1.308
55200W        W18924  19.132   9.664   0.943
55201W        W18925  42.448   7.738   0.932
55202W        W18926   4.807  38.955  13.396
55203W        W18927  18.213  10.207   2.319
55204W        W18928  20.102  40.343   2.837
55205W        W18929   1.420  44.003   0.255
55206W        W18930   1.909  28.003  10.425
55207W        W18931  21.587   3.852  12.987
55208W        W18932  18.643  31.981  14.481
55209W        W18933  33.998  14.770  14.779
55210W        W18934  42.001  16.634   4.772
55211W        W18935  35.432  43.956  10.623
55212W        W18936   7.790  39.856  13.400
55213W        W18937  25.533  22.079  11.942
55214W        W18938   7.242  28.648   0.906
55215W        W18939   0.847   0.322   2.766
55216W        W18940   8.280  39.455  14.991
55217W        W18941  33.004  15.746   4.193
55218W        W18942   4.804  16.762  11.001
55219W        W18943  19.779  13.660   5.708
55220W        W18944   1.751   0.350   0.271
55221W        W18945  35.589  29.583  13.044
55222W        W18946   9.370  20.680   4.810
55223W        W18947  12.668   1.352   3.316
55224W        W18948  16.639  28.003   3.278
55225W        W18949  18.646  30.587  13.039
55226W        W18950   8.664  12.220  13.055
55227W        W18951  41.912  37.520  14.821
55228W        W18952  43.370  22.556  13.829
55229W        W18953  13.834  27.188   3.336
55230W        W18954   2.936  24.007   0.477
55231W        W18955   7.837   7.377   2.700
55232W        W18956  44.473  13.717  12.948
55233W        W18957  27.021   5.746  11.458
55234W        W18958  20.174   8.699   9.965
55235W        W18959  26.601  35.392   3.707
55236W        W18960  42.923   3.288  12.975
55237W        W18961  14.780  11.657  13.841
55238W        W18962   8.873   8.875   4.626
55239W        W18963   2.851  15.111  12.033
55240W        W18964  41.840  16.085   2.370
55241W        W18965  27.982   9.712   0.424
55242W        W18966  36.573  22.732   0.416
55243W        W18967  30.019  36.352   2.887
55244W        W18968  43.977  34.414   3.298
55245W        W18969  44.812  43.882  14.297
55246W        W18970  10.173   7.284  13.337
55247W        W18971  42.908  16.130   0.248
55248W        W18972  32.586  27.997   0.477
55249W        W18973  29.038   1.779   1.780
55250W        W18974  39.028   6.230  13.442
55251W        W18975  17.273  21.260   5.315
55252W        W18976  16.763   1.253   1.272
55253W        W18977  43.441  14.232  11.010
55254W        W18978   0.965  18.239  11.900
55255W        W18979  24.504   1.786  14.003
55256W        W18980   9.272  21.699  11.010
55257W        W18981   5.201  10.845  12.485
55258W        W18982  37.524  13.187  14.903
55259W        W18983  11.178  29.616  13.899
55260W        W18984  39.413  38.409   0.954
55261W        W18985  15.819  21.195   2.781
55262W        W18986  30.069   9.755  11.527
55263W        W18987  15.278  20.526   3.261
55264W        W18988   7.410  35.603  11.388
55265W        W18989   3.241  44.488   3.753
55266W        W18990   1.482  28.536  11.469
55267W        W18991   8.366  28.536  12.525
55268W        W18992   6.407  24.509   2.294
55269W        W18993   8.392  35.520  12.854
55270W        W18994  19.733  14.796   0.826
55271W        W18995   6.677  30.607  12.950
55272W        W18996   4.706  21.199   5.231
55273W        W18997  30.963  14.312  11.398
55274W        W18998  37.873  14.739   4.817
55275W        W18999  37.576  34.998  14.291
55276W        W19000   2.242  13.801  11.974
55277W        W19001  42.457  11.165  13.863
55278W        W19002  20.698   3.953  14.960
55279W        W19003  38.058   0.394  11.950
55280W        W19004  41.374  29.600  12.060
55281W        W19005   0.260  12.216   0.770
55282W        W19006  14.132  27.633   1.380
55283W        W19007  36.578  21.531   4.336
55284W        W19008   8.682  30.473  12.063
55285W        W19009  21.526  28.167   0.452
55286W        W19010   8.327  24.057   4.742
55287W        W19011  20.685  39.339   2.345
55288W        W19012   1.757  41.349  10.927
55289W        W19013  25.207  40.358   3.648
55290W        W19014  16.079  13.117   0.314
55291W        W19015  13.645   7.774  14.773
55292W        W19016  20.217  27.682   1.775
55293W        W19017  34.596  34.064   0.382
55294W        W19018   3.871  26.146  11.470
55295W        W19019  31.929  38.522   2.294
55296W        W19020   4.845  42.941   1.866
55297W        W19021  34.875  42.015  13.396
55298W        W19022  31.510   0.863  12.852
55299W        W19023  19.126  22.617   2.894
55300W        W19024  18.190  24.196  10.596
55301W        W19025  25.608  32.960   3.702
55302W        W19026   0.386   5.323   3.701
55303W        W19027  29.653  20.263  13.498
55304W        W19028  34.489  35.014   2.670
55305W        W19029  24.647  12.852   1.745
55306W        W19030  17.641  25.568  10.542
55307W        W19031  12.834  37.355   2.794
55308W        W19032  41.812  36.091   2.255
55309W        W19033   4.872  32.514  13.439
55310W        W19034  34.602   2.342  13.039
55311W        W19035  16.702  38.953  12.902
55312W        W19036   6.366  34.534  11.862
55313W        W19037   3.891  11.285  13.479
55314W        W19038  40.501   7.865  11.560
55315W        W19039  44.426  29.567   1.854
55316W        W19040  31.418  13.714  11.499
55317W        W19041   2.759  38.356  10.504
55318W        W19042  18.130  31.048  10.894
55319W        W19043  19.635  25.632  14.938
55320W        W19044   1.777  30.133   0.852
55321W        W19045  35.003  33.544   3.794
55322W        W19046  14.793  41.042   2.291
55323W        W19047   4.246  34.381  13.975
55324W        W19048  37.900  33.569  14.872
55325W        W19049   3.849  31.517   2.244
55326W        W19050  15.592  20.254  12.972
55327W        W19051  12.291  40.355  13.444
55328W        W19052  27.471  37.077   0.379
55329W        W19053   2.794  28.980   1.305
55330W        W19054   8.735  13.218   1.831
55331W        W19055  13.603  34.001   4.632
55332W        W19056  40.485  26.470   5.136
55333W        W19057  32.081   0.777   3.743
55334W        W19058  19.690   6.208  10.439
55335W        W19059  12.309  16.270  13.905
55336W        W19060   3.881   7.792  12.055
55337W        W19061  31.513   0.811  12.580
55338W        W19062  25.128  10.825   0.422
55339W        W19063  40.053  35.496   3.756
55340W        W19064  24.551  18.064   0.844
55341W        W19065  41.038  41.439  11.865
55342W        W19066   6.706  36.530  14.805
55343W        W19067  18.749   5.803   4.786
55344W        W19068  44.417  35.880  11.447
55345W        W19069  44.805  25.478   2.339
55346W        W19070   9.663   5.257   3.829
55347W        W19071  41.824   3.778  12.416
55348W        W19072   6.223   8.190  14.337
55349W        W19073   7.886  21.041  12.382
55350W        W19074  25.007  16.693   4.728
55351W        W19075  26.592  25.154   1.416
55352W        W19076  18.263  17.673  13.339
55353W        W19077  44.455   1.930  14.304
55354W        W19078   2.760  26.696   2.742
55355W        W19079   4.240  17.748  12.414
55356W        W19080  10.854  32.543   1.305
55357W        W19081  30.659  32.518  14.846
55358W        W19082  21.630  42.512   5.575
55359W        W19083  34.467  10.228  12.839
55360W        W19084  19.779  33.405   0.380
55361W        W19085  16.300  13.785   1.335
55362W        W19086  18.597  41.447  14.441
55363W        W19087  25.509  35.389   2.702
55364W        W19088  21.135  35.555  13.857
55365W        W19089  35.402  35.931   2.201
55366W        W19090  36.582   4.841  10.537
55367W        W19091  29.978   0.883   1.309
55368W        W19092  34.456  44.367   3.160
55369W        W19093   9.790  11.208   2.703
55370W        W19094  36.918   8.709  13.827
55371W        W19095  12.272   6.832   4.207
55372W        W19096  21.207  40.030  13.850
55373W        W19097   6.716   6.272  12.534
55374W        W19098   3.405  42.786  13.839
55375W        W19099   1.794  28.599  11.435
55376W        W19100  41.296  43.829  13.465
55377W        W19101  39.444  37.510   1.887
55378W        W19102   6.281  19.721  10.140
55379W        W19103  15.703  14.135   2.871
55380W        W19104  38.860   0.287   0.365
55381W        W19105  41.337   7.740  12.959
55382W        W19106  11.659  27.592   1.854
55383W        W19107  11.835   8.239  13.864
55384W        W19108  13.325  14.123  10.155
55385W        W19109   2.461  20.130   0.324
55386W        W19110  18.742  35.377  12.549
55387W        W19111  30.946  33.892  11.540
55388W        W19112  31.450  33.523  10.410
55389W        W19113  18.084  42.388  13.393
55390W        W19114   7.302   9.182  10.103
55391W        W19115  31.959  27.944  10.911
55392W        W19116  12.704  21.511   1.926
55393W        W19117   1.839   9.340   2.243
55394W        W19118   3.256  28.571  11.474
55395W        W19119   4.357  43.007   2.673
55396W        W19120  23.122  18.281   1.765
55397W        W19121  40.535  34.104   2.373
55398W        W19122  44.775   6.822  13.905
55399W        W19123  40.359  21.025  14.771
55400W        W19124  14.175  40.532  13.048
55401W        W19125  16.143  24.109   4.150
55402W        W19126  11.754  31.014  12.928
55403W        W19127  20.701  38.497  10.910
55404W        W19128  22.231  20.165   3.317
55405W        W19129   1.734  10.710  13.026
55406W        W19130  17.600  32.912  11.419
55407W        W19131  22.713  42.496  12.442
55408W        W19132  33.554  44.430  11.427
55409W        W19133  37.561  15.124   4.213
55410W        W19134   3.882   4.757   2.761
55411W        W19135  28.942   2.827   4.295
55412W        W19136  14.329  36.986   2.371
55413W        W19137  17.075  26.121   3.181
55414W        W19138  38.377   5.803  14.276
55415W        W19139  36.963   2.412   0.256
55416W        W19140  12.317   9.309  12.051
55417W        W19141  39.527  26.974  12.367
55418W        W19142   3.720  12.770  10.570
55419W        W19143  21.679  16.747  14.405
55420W        W19144   2.272  23.549  11.977
55421W        W19145  13.682   9.213  14.904
55422W        W19146  34.997  30.518   0.274
55423W        W19147  38.395  20.629  10.577
55424W        W19148   1.482  34.599  13.394
55425W        W19149  27.643  20.542  11.526
55426W        W19150  29.600  42.007  12.392
55427W        W19151   5.368  10.834   4.261
55428W        W19152  22.522  33.559  14.314
55429W        W19153  11.233  27.649  11.567
55430W        W19154  18.774   2.228   1.336
55431W        W19155  15.123   6.239   9.565
55432W        W19156  34.402   9.781   2.797
55433W        W19157   3.317  36.501  11.948
55434W        W19158  42.450  35.091   3.848
55435W        W19159  27.461   4.289   3.755
55436W        W19160  17.743  18.264   1.433
55437W        W19161   3.379  27.039  12.837
55438W        W19162  36.857  14.642   0.955
55439W        W19163  22.236   9.683  10.473
55440W        W19164   8.348  30.908   3.758
55441W        W19165   9.713  43.478   1.808
55442W        W19166   4.347  42.788  12.418
55443W        W19167  25.155  43.357   1.394
55444W        W19168  44.957  35.989   2.186
55445W        W19169  41.897  18.683  14.020
55446W        W19170  36.863  36.553   1.218
55447W        W19171   1.802  21.583   4.677
55448W        W19172  17.212  14.657  12.901
55449W        W19173  42.802  29.495  14.025
55450W        W19174   1.280  38.507  10.524
55451W        W19175  36.044  28.003   1.784
55452W        W19176   2.273  27.501   0.911
55453W        W19177  18.085  44.784  13.869
55454W        W19178   3.875  26.025  14.345
55455W        W19179   9.779  42.988   3.703
55456W        W19180   7.353  42.866   2.228
55457W        W19181  31.585  29.443   2.308
55458W        W19182   7.379  11.198   2.345
55459W        W19183  21.595  42.859   0.440
55460W        W19184   2.836  15.652   2.707
55461W        W19185  20.133  25.085   4.147
55462W        W19186  22.211  28.022   1.349
55463W        W19187  17.247  38.510  13.814
55464W        W19188  28.950  35.384  12.480
55465W        W19189  21.636  23.185  11.465
55466W        W19190   8.705  23.082   0.280
55467W        W19191  31.062   9.818   3.637
55468W        W19192  14.768  13.338  10.936
55469W        W19193  19.255  18.278   0.426
55470W        W19194  24.522  36.405  13.878
55471W        W19195  38.957   2.770  10.965
55472W        W19196   8.819  23.096   0.911
55473W        W19197  32.530   7.414   3.726
55474W        W19198  43.994   9.342  12.514
55475W        W19199   7.747  11.676  14.841
55476W        W19200  12.211  11.840   1.820
55477W        W19201  43.852  36.027   0.334
55478W        W19202  11.167  10.843   4.744
55479W        W19203  43.281  38.994   2.335
55480W        W19204  29.581  36.386  10.889
55481W        W19205   9.175  30.052  12.017
55482W        W19206  38.901   7.325   4.731
55483W        W19207  44.278  39.015  11.475
55484W        W19208  39.340  25.628  12.500
55485W        W19209  43.477   1.329   4.601
55486W        W19210  33.954   5.863  14.031
55487W        W19211  16.784  34.550   4.170
55488W        W19212  37.994   4.861   0.417
55489W        W19213   8.346   4.723   2.251
55490W        W19214   4.227  30.973  14.512
55491W        W19215  37.001  35.491  14.408
55492W        W19216  11.819  21.533   1.788
55493W        W19217  39.909  14.183  13.992
55494W        W19218  41.476  27.965   4.720
55495W        W19219  24.149  18.060   5.154
55496W        W19220  16.313  13.297   3.335
55497W        W19221  16.778  41.841   1.410
55498W        W19222   1.304  26.601   0.809
55499W        W19223   6.882   9.313  10.578
55500W        W19224  25.131  21.613  12.405
55501W        W19225  40.860  44.814  10.453
55502W        W19226  17.277  23.563  14.275
55503W        W19227  27.581  24.063   4.692
55504W        W19228  18.075  35.060  14.379
55505W        W19229   3.424  33.389  14.281
55506W        W19230  30.097  17.690  11.418
55507W        W19231  13.258   6.862  13.919
55508W        W19232   0.274  37.393  11.377
55509W        W19233  36.572  39.906  12.090
55510W        W19234  19.633  12.684  14.004
55511W        W19235   5.867  26.625  12.997
55512W        W19236  22.675  16.645   0.389
55513W        W19237  43.980  36.495   5.603
55514W        W19238   4.759  26.004   1.837
55515W        W19239  16.092  29.476  13.374
55516W        W19240   0.318  43.372   3.839
55517W        W19241  33.028   2.450  12.030
55518W        W19242   9.167  25.123   4.626
55519W        W19243  42.335  31.577  12.930
55520W        W19244  36.473   4.913  14.017
55521W        W19245  18.088  30.588   3.730
55522W        W19246  14.284  35.499   2.693
55523W        W19247  29.065  28.090   3.831
55524W        W19248  36.097  28.546   1.704
55525W        W19249  12.177  10.817  14.903
55526W        W19250  32.418  25.202   0.310
55527W        W19251  23.178  19.684  13.802
55528W        W19252  37.420  30.119  11.970
55529W        W19253  12.665  10.656   0.792
55530W        W19254  18.071   2.295  13.822
55531W        W19255  11.195  38.525   0.317
55532W        W19256  26.970  23.001   2.280
55533W        W19257  20.218   0.935  13.888
55534W        W19258  19.723  12.684  12.841
55535W        W19259  19.622  38.922  14.376
55536W        W19260  28.605  19.268   2.259
55537W        W19261  36.490  43.421  11.997
55538W        W19262  36.854  10.721   0.371
55539W        W19263  21.716  27.065  12.941
55540W        W19264  40.038  10.173  13.816
55541W        W19265  21.645  38.482  11.468
55542W        W19266   5.376   6.807  14.945
55543W        W19267  13.734  12.211   1.872
55544W        W19268  20.544  11.354   1.350
55545W        W19269  29.590  30.419   2.327
55546W        W19270  31.966  23.986  13.911
55547W        W19271  27.691  10.140   5.103
55548W        W19272  29.992  21.724  11.489
55549W        W19273  32.074  18.202  10.893
55550W        W19274  31.052  38.051  11.445
55551W        W19275  36.369   6.761   4.250
55552W        W19276  27.182  35.102   0.862
55553W        W19277   9.244  19.539   5.156
55554W        W19278  36.486  28.101  12.444
55555W        W19279   4.284  43.328   3.249
55556W        W19280   0.422   2.357  12.394
55557W        W19281  13.735   0.356  14.965
55558W        W19282  34.564   8.275   0.823
55559W        W19283  31.900  35.947  14.994
55560W        W19284  26.635  44.344  12.881
55561W        W19285  32.629  44.451   4.657
55562W        W19286  34.572  22.739   4.170
55563W        W19287   4.221  11.801  12.961
55564W        W19288  18.737  10.287  10.118
55565W        W19289  24.053  30.100   4.348
55566W        W19290  44.778  34.993   5.103
55567W        W19291  26.026  43.470   4.117
55568W        W19292  11.767  30.915   1.265
55569W        W19293  22.507  17.276   2.408
55570W        W19294   6.202  27.089  10.912
55571W        W19295  35.440  36.081  12.562
55572W        W19296  14.297  40.917   3.681
55573W        W19297  29.056  37.053  10.564
55574W        W19298  30.120  29.068   0.807
55575W        W19299  26.164  18.669   3.792
55576W        W19300  29.111  20.695  11.598
55577W        W19301  44.776  15.763  13.923
55578W        W19302  12.714   8.877  11.001
55579W        W19303  28.618  15.742   3.838
55580W        W19304  34.032  26.682   0.955
55581W        W19305  15.317  10.793   3.301
55582W        W19306  30.003  37.572   1.931
55583W        W19307  25.121  23.095   1.386
55584W        W19308  14.673  43.017  13.920
55585W        W19309  43.331  43.767  13.534
55586W        W19310  33.385  39.860   4.126
55587W        W19311  12.338  25.621  13.528
55588W        W19312  18.172  21.031  12.402
55589W        W19313  31.090  28.567  14.030
55590W        W19314  29.095   4.434   0.777
55591W        W19315  12.781  36.539   0.372
55592W        W19316  27.098   5.782  12.910
55593W        W19317  13.805   4.204   3.339
55594W        W19318  34.867  41.466   0.442
55595W        W19319   1.375  12.637  12.012
55596W        W19320  24.561  40.920   2.678
55597W        W19321   9.376  28.005  11.862
55598W        W19322  19.777  21.254  11.485
55599W        W19323   5.807  29.628  12.870
55600W        W19324  24.024  20.699  10.632
55601W        W19325   9.754   0.415   3.706
55602W        W19326  21.066  35.963  11.115
55603W        W19327  31.472  13.342  10.622
55604W        W19328   1.862  23.662   0.865
55605W        W19329  28.990  26.149  10.597
55606W        W19330  28.139  19.049   3.723
55607W        W19331  32.983  31.907   1.912
55608W        W19332  31.460  21.709  10.980
55609W        W19333  43.288  19.088   0.874
55610W        W19334  17.110  10.291  14.347
55611W        W19335  37.958  10.823   0.319
55612W        W19336  30.095  12.705   4.795
55613W        W19337  13.265  22.732  10.532
55614W        W19338   7.175  20.542  12.900
55615W        W19339  21.062  32.895   4.752
55616W        W19340  26.611  30.148   2.320
55617W        W19341   8.234   5.242  14.315
55618W        W19342  15.728   6.912  12.095
55619W        W19343  40.023  34.965   5.084
55620W        W19344  44.780  28.655   4.672
55621W        W19345  38.342  13.659  14.981
55622W        W19346   4.717  29.153  14.857
55623W        W19347  33.072  21.560  12.017
55624W        W19348  24.220  31.972  12.065
55625W        W19349   4.349  23.227  13.007
55626W        W19350  24.571  22.050   0.246
55627W        W19351   8.237  16.288   4.204
55628W        W19352  17.694   3.392   0.311
55629W        W19353   5.838  21.598  13.871
55630W        W19354  11.313   7.701  14.412
55631W        W19355  23.024  41.518  14.028
55632W        W19356   3.340  18.202  14.313
55633W        W19357  22.738  22.074   2.325
55634W        W19358   2.342  36.400  11.021
55635W        W19359   6.919  10.197   1.761
55636W        W19360  23.010  32.110  13.456
55637W        W19361  28.636  13.751   2.191
55638W        W19362  38.052  11.216  11.386
55639W        W19363  31.457  43.016  14.803
55640W        W19364  27.100  27.534  10.416
55641W        W19365  35.011  39.392   0.286
55642W        W19366   7.232  25.063   3.313
55643W        W19367  30.974  43.280  13.984
55644W        W19368  22.240  25.977   0.794
55645W        W19369  30.987   9.671   1.249
55646W        W19370   6.306  29.155   5.311
55647W        W19371  17.233   9.243   4.237
55648W        W19372  20.764   5.345  13.334
55649W        W19373  37.352  42.368  11.403
55650W        W19374  33.952  33.460  13.038
55651W        W19375  44.357  26.964  11.485
55652W        W19376  38.950  42.961  12.091
55653W        W19377  26.132  12.778   3.786
55654W        W19378  40.321  17.564  12.039
55655W        W19379  13.188  32.121   4.737
55656W        W19380  11.762  33.899  10.924
55657W        W19381   1.890   1.428  10.969
55658W        W19382  39.839  29.140   2.805
55659W        W19383  24.571  30.049   4.838
55660W        W19384   3.760   6.270   4.693
55661W        W19385   9.863  14.107  11.606
55662W        W19386  37.464  36.869  10.446
55663W        W19387  33.959   3.930  14.899
55664W        W19388   8.322  27.581  11.939
55665W        W19389  13.227  25.514   1.348
55666W        W19390  32.605   3.794  11.900
55667W        W19391  19.217   1.389   4.159
55668W        W19392  16.666  21.738   0.868
55669W        W19393  39.361   0.326  12.412
55670W        W19394   7.385  39.398  11.912
55671W        W19395   5.784  30.513   4.712
55672W        W19396  11.317  37.463   4.624
55673W        W19397  17.292  28.134   2.711
55674W        W19398  29.153   7.890  10.454
55675W        W19399  20.212   7.671   2.262
55676W        W19400  18.740  18.739   3.374
55677W        W19401  12.186  25.577  11.973
55678W        W19402  42.315  14.161  13.953
55679W        W19403   9.770  25.167  11.861
55680W        W19404  37.374   8.844  10.444
55681W        W19405  14.299  11.236  12.371
55682W        W19406  43.009  16.274   1.737
55683W        W19407  33.573  29.448  14.996
55684W        W19408  15.664  42.791   3.804
55685W        W19409  38.515  11.654   4.328
55686W        W19410  15.796   8.784   9.952
55687W        W19411  25.476  41.010  14.472
55688W        W19412   6.421  37.027  11.037
55689W        W19413   8.249  17.140   1.850
55690W        W19414  23.186  10.333  10.484
55691W        W19415  37.035  44.994  13.930
55692W        W19416  11.346  23.022   0.875
55693W        W19417  19.651  20.641   0.765
55694W        W19418  39.888  10.291   0.443
55695W        W19419  23.644   5.860   0.755
55696W        W19420  40.436  37.995   0.770
55697W        W19421  36.860   3.934  13.908
55698W        W19422  29.929  43.860  13.467
55699W        W19423   0.432  25.071  10.974
55700W        W19424  39.896   2.436  12.981
55701W        W19425  13.225  28.508   0.849
55702W        W19426  26.144  43.814   2.747
55703W        W19427  41.003   0.352   5.581
55704W        W19428  26.132  36.452  13.433
55705W        W19429  12.613  40.858  13.855
55706W        W19430  31.148  43.317   1.788
55707W        W19431  36.462  12.162   2.324
55708W        W19432   5.227   8.380  14.968
55709W        W19433  14.734  41.980   0.744
55710W        W19434  42.519  38.473   2.735
55711W        W19435  19.604  38.460   3.156
55712W        W19436  14.327  29.641  11.049
55713W        W19437  26.191   2.738  14.804
55714W        W19438   4.303  25.487  12.563
55715W        W19439   1.307  40.974  13.382
55716W        W19440   3.719  29.124   2.756
55717W        W19441   3.411  33.381  11.494
55718W        W19442  44.374  29.436   0.839
55719W        W19443  37.422  26.516  10.570
55720W        W19444  28.503  35.365  12.947
55721W        W19445  41.809  30.163   3.693
55722W        W19446   9.755  18.614   1.730
55723W        W19447   9.834  43.905  13.943
55724W        W19448  33.620  10.756   3.715
55725W        W19449   2.391   1.791  12.401
55726W        W19450  34.065   0.366  12.860
55727W        W19451  33.876   8.891  13.862
55728W        W19452  31.566  37.950  12.527
55729W        W19453  10.689  22.010  11.459
55730W        W19454  27.120  21.172  10.150
55731W        W19455  11.848   9.227   2.822
55732W        W19456   7.402   0.264   1.230
55733W        W19457  12.238  12.663  10.490
55734W        W19458  43.785  38.365   0.963
55735W        W19459  38.548  34.087  14.852
55736W        W19460  23.081   7.211  12.973
55737W        W19461  21.023  41.839  13.367
55738W        W19462   7.789   5.689   0.344
55739W        W19463  30.520  30.045  11.999
55740W        W19464  37.942   0.923  13.052
55741W        W19465   9.372  18.717  12.534
55742W        W19466   8.876  32.514   1.376
55743W        W19467  33.015  23.668  12.941
55744W        W19468   5.399  38.928   0.807
55745W        W19469  21.514  35.529   3.833
55746W        W19470  10.331  34.385   3.147
55747W        W19471  40.451  40.510   1.865
55748W        W19472   4.266   2.417  10.604
55749W        W19473  37.580  17.634  12.368
55750W        W19474   6.688  33.612  11.379
55751W        W19475  13.133  19.099  14.508
55752W        W19476  27.474   0.248  12.021
55753W        W19477   6.393  30.618  14.866
55754W        W19478   8.168  40.808  14.766
55755W        W19479  26.055  39.826   2.682
55756W        W19480   6.346   8.314   4.304
55757W        W19481   5.785  35.509   1.829
55758W        W19482   7.236   5.710   2.302
55759W        W19483  13.735  40.032  12.887
55760W        W19484  28.666  21.744  11.108
55761W        W19485  31.916  39.026   4.259
55762W        W19486  36.054  21.031   1.897
55763W        W19487   3.237  26.980   0.298
55764W        W19488  14.791   4.794   3.820
55765W        W19489  21.680  11.234   3.663
55766W        W19490  43.483  14.784  13.857
55767W        W19491  11.643  20.088   2.384
55768W        W19492  27.158  33.503   3.632
55769W        W19493  23.145  23.562  13.369
55770W        W19494  27.484  18.241  12.515
55771W        W19495  32.513  35.396   2.721
55772W        W19496  36.455  19.772  14.333
55773W        W19497  25.700  27.972  11.937
55774W        W19498   3.263  16.697  11.978
55775W        W19499   8.183  19.761  13.866
55776W        W19500  18.628   1.896  13.411
55777W        W19501   1.395   5.411  12.555
55778W        W19502  14.323  14.304  13.448
55779W        W19503  26.538  23.024   4.239
55780W        W19504   6.796   3.841   4.788
55781W        W19505   6.891  30.028  14.829
55782W        W19506   7.817   7.331   3.288
55783W        W19507  38.894  18.134   1.290
55784W        W19508  15.688  23.691   1.376
55785W        W19509  40.829  12.823   1.767
55786W        W19510  42.943  32.603  12.484
55787W        W19511   3.758  35.482  10.488
55788W        W19512  24.625  25.190  12.829
55789W        W19513   4.269  13.811   1.301
55790W        W19514  18.105  19.550   4.776
55791W        W19515  28.517  10.642  10.468
55792W        W19516   9.690   6.196  14.824
55793W        W19517  44.835  32.622   3.165
55794W        W19518  38.394   3.938  10.500
55795W        W19519  37.027  11.819  13.796
55796W        W19520  41.390  40.416   3.338
55797W        W19521  18.166  34.493  14.831
55798W        W19522  44.955  36.901   4.208
55799W        W19523   5.736  37.997   4.212
55800W        W19524  30.071   4.831   1.806
55801W        W19525  44.353  23.119  12.969
55802W        W19526  23.074  34.419  12.919
55803W        W19527  39.907  30.043   0.245
55804W        W19528  11.827  31.995   3.168
55805W        W19529  14.735  17.599  10.593
55806W        W19530  12.240  26.653  14.292
55807W        W19531  11.343  39.864  12.883
55808W        W19532   6.911  33.536   4.216
55809W        W19533  34.888  19.560  11.937
55810W        W19534  19.703  12.358   2.373
55811W        W19535  33.053  44.887  13.798
55812W        W19536  27.053  25.003   2.868
55813W        W19537  36.585  27.511  13.504
55814W        W19538  39.822   1.350   4.274
55815W        W19539   0.966  15.283   3.336
55816W        W19540  30.444  29.630   1.447
55817W        W19541  44.488   6.777  14.297
55818W        W19542   8.898  12.329  14.280
55819W        W19543  42.369  24.087   9.666
55820W        W19544  40.485   2.906  10.587
55821W        W19545   4.913  39.960   1.826
55822W        W19546   6.200  15.144  11.981
55823W        W19547  19.108  22.746   1.362
55824W        W19548  20.650  40.030   1.924
55825W        W19549  21.579  41.983  14.403
55826W        W19550   1.936  37.515  10.972
55827W        W19551   4.210  29.008   2.750
55828W        W19552   8.177  27.041  13.341
55829W        W19553  27.550  17.243   1.403
55830W        W19554   9.163  12.815   3.247
55831W        W19555  21.590   6.203   2.686
55832W        W19556  22.146  13.281  13.860
55833W        W19557  42.031  20.555   3.851
55834W        W19558  37.525   8.322  10.905
55835W        W19559  22.559  38.836   1.823
55836W        W19560  19.734  26.165  12.857
55837W        W19561  21.555  25.191  12.357
55838W        W19562   3.748   3.832   3.731
55839W        W19563   4.834  25.502   3.695
55840W        W19564  29.625  15.770   1.736
55841W        W19565  41.926  11.722   2.190
55842W        W19566   6.676  27.039   2.802
55843W        W19567  20.635  14.305   4.328
55844W        W19568  28.501  24.667  11.378
55845W        W19569  29.665   7.249   0.848
55846W        W19570  11.258  30.603   1.341
55847W        W19571   9.691   0.823   4.777
55848W        W19572  29.516   9.715   0.436
55849W        W19573   8.750  30.129   4.732
55850W        W19574   7.886  23.065   2.711
55851W        W19575  14.099  26.691   2.327
55852W        W19576   2.433  17.612   4.344
55853W        W19577  13.664   7.229   4.655
55854W        W19578  22.099  13.722   2.794
55855W        W19579  38.878  31.030   0.883
55856W        W19580  10.215   5.748  13.334
55857W        W19581  31.419  22.156  13.371
55858W        W19582  30.653  10.333  14.905
55859W        W19583   2.726  11.849   2.808
55860W        W19584  15.246  28.537  11.377
55861W        W19585  29.438  38.562   1.266
55862W        W19586  11.248   3.385   3.715
55863W        W19587  11.797  12.829   0.920
55864W        W19588   7.282  23.662   3.740
55865W        W19589  33.091  20.635  12.369
55866W        W19590   5.788  32.579   1.264
55867W        W19591  33.384  41.852  11.041
55868W        W19592  40.534  37.512  14.391
55869W        W19593  31.413  24.064  14.330
55870W        W19594   6.426   5.872   1.372
55871W        W19595  24.025  36.063  11.422
55872W        W19596  39.941   6.344  11.387
55873W        W19597   3.449   2.957  11.912
55874W        W19598  30.572   3.870   4.248
55875W        W19599   0.775  35.488   2.221
55876W        W19600  43.441  44.006  11.004
55877W        W19601  23.021  26.603   1.755
55878W        W19602  20.051  24.213  13.388
55879W        W19603  28.505  15.104  14.822
55880W        W19604   7.844  22.065  10.966
55881W        W19605  26.638  12.786   5.280
55882W        W19606  35.897  17.184   4.201
55883W        W19607   1.972  18.276  11.531
55884W        W19608  20.088   3.360   1.397
55885W        W19609  10.723  29.600  14.760
55886W        W19610   1.291  13.736   4.256
55887W        W19611  21.212  30.004   2.412
55888W        W19612  18.702  27.946  11.882
55889W        W19613  21.170  25.510   1.893
55890W        W19614  30.007  29.620  14.390
55891W        W19615  41.908   9.782  14.513
55892W        W19616   5.720  39.843   4.768
55893W        W19617   5.238   7.814  12.514
55894W        W19618  10.794  11.843   2.405
55895W        W19619  22.233  20.581  12.063
55896W        W19620  26.100  41.829  10.580
55897W        W19621  36.888   2.284  12.944
55898W        W19622  15.204  27.654   2.341
55899W        W19623  27.999  10.376  13.853
55900W        W19624  21.597  31.929   2.418
55901W        W19625   6.827   4.210   0.298
55902W        W19626   5.427  11.649  13.890
55903W        W19627  20.559  35.885  13.374
55904W        W19628  30.932   4.865  11.998
55905W        W19629   1.733  38.055  13.377
55906W        W19630  22.225  41.448  10.044
55907W        W19631  41.494  33.540   3.374
55908W        W19632  30.949   1.326   3.840
55909W        W19633  38.570   7.750  13.506
55910W        W19634   0.983  44.823  11.934
55911W        W19635   4.827  28.552  11.086
55912W        W19636   7.790  27.052   0.269
55913W        W19637   6.838  36.353  10.635
55914W        W19638   2.832  36.967  12.080
55915W        W19639   6.240  29.016   1.396
55916W        W19640  11.670  29.074   2.846
55917W        W19641  40.002  12.312  14.413
55918W        W19642   5.808  27.961  13.426
55919W        W19643   8.886  43.885   3.822
55920W        W19644  15.783  13.140  11.022
55921W        W19645   2.825  39.005   0.930
55922W        W19646  43.377  36.501  12.385
55923W        W19647  31.056   3.346   3.754
55924W        W19648  20.536  28.164  11.882
55925W        W19649  37.415  41.479  12.944
55926W        W19650  44.948  36.012   4.176
55927W        W19651  38.333  44.797   3.367
55928W        W19652   3.760   5.423   2.769
55929W        W19653   9.881  44.492  12.883
55930W        W19654  33.589   5.768  10.939
55931W        W19655  31.591  39.847  14.910
55932W        W19656  21.258   3.273   1.715
55933W        W19657  21.731  29.658   3.192
55934W        W19658  41.922  11.244  12.381
55935W        W19659  19.718  35.600  12.062
55936W        W19660  23.646  35.495  12.923
55937W        W19661  33.414  36.964  12.964
55938W        W19662  23.072  38.495  11.861
55939W        W19663   4.817  12.702   3.187
55940W        W19664  29.924  34.465   4.751
55941W        W19665  20.711  24.116  13.792
55942W        W19666  23.568  23.074  13.357
55943W        W19667   0.845  40.995   3.807
55944W        W19668  11.848  14.306  14.448
55945W        W19669  13.315  31.512   1.274
55946W        W19670  44.426  41.441   9.955
55947W        W19671  39.405  41.865   1.360
55948W        W19672  35.421  12.270  12.905
55949W        W19673   4.894  27.181  11.929
55950W        W19674  14.751  12.345  10.553
55951W        W19675  18.241  43.398   4.730
55952W        W19676   2.738  28.141  12.352
55953W        W19677   5.433   1.303  14.487
55954W        W19678   8.836  27.119   1.868
55955W        W19679   0.434   7.807   2.717
55956W        W19680  10.868   2.858   3.826
55957W        W19681  44.465  13.270  14.841
55958W        W19682  19.234   0.481   1.309
55959W        W19683  17.581  25.645  11.539
55960W        W19684   7.682  19.110  11.437
55961W        W19685  29.979  12.352   3.641
55962W        W19686  39.927  15.616   3.214
55963W        W19687  17.271  37.424   0.879
55964W        W19688  18.657  19.074  12.844
55965W        W19689  21.697  22.078  11.971
55966W        W19690  41.010  39.026   2.675
55967W        W19691  26.622   1.745   1.851
55968W        W19692   6.852  27.055  12.363
55969W        W19693  22.071  26.469  12.525
55970W        W19694  29.491  30.065  12.994
55971W        W19695  13.696  22.548   4.338
55972W        W19696   2.735  28.088   1.769
55973W        W19697  35.072   1.881  10.145
55974W        W19698  40.488  22.600  13.050
55975W        W19699  29.169   1.831   0.793
55976W        W19700  17.169  37.399  13.949
55977W        W19701   8.781  20.135  10.584
55978W        W19702  17.223  26.038   4.644
55979W        W19703   4.229   1.435  10.627
55980W        W19704  37.522  24.573   1.718
55981W        W19705   8.774  11.836  13.466
55982W        W19706  32.594  13.647  13.047
55983W        W19707  19.643  40.830  11.922
55984W        W19708  41.890  10.242   0.403
55985W        W19709  16.167  30.427   0.790
55986W        W19710  24.030  24.604   2.258
55987W        W19711  23.127  12.836   0.477
55988W        W19712  40.442  20.617   1.706
55989W        W19713  30.111  24.154   3.360
55990W        W19714  26.684  19.187   0.817
55991W        W19715  17.606  22.577   3.297
55992W        W19716  17.274   3.883  11.967
55993W        W19717   1.290  41.310  13.406
55994W        W19718   7.832   9.810   5.628
55995W        W19719  33.044  18.104   0.814
55996W        W19720  17.184  32.958  11.937
55997W        W19721  30.460  23.001  12.058
55998W        W19722  44.866  18.556   0.821
55999W        W19723  24.507  14.262   0.918
56000W        W19724  23.536  23.004  11.030
56001W        W19725   8.759  35.065   4.611
56002W        W19726   7.389  23.205  11.488
56003W        W19727  22.735  32.399   1.366
56004W        W19728  39.556  38.367   3.236
56005W        W19729  11.638  10.805  14.899
56006W        W19730  28.502   4.251   4.699
56007W        W19731  21.186  22.515   3.267
56008W        W19732  36.941   9.173   4.642
56009W        W19733  39.954   0.943   0.399
56010W        W19734  34.448  37.035   4.118
56011W        W19735  19.630  40.522  11.992
56012W        W19736  38.463   2.253  14.501
56013W        W19737  24.599   9.776   5.213
56014W        W19738  39.538  34.571   2.831
56015W        W19739  11.781  18.588   3.814
56016W        W19740   9.741   4.796   0.313
56017W        W19741  22.740  24.509  14.822
56018W        W19742  43.382  39.320   4.606
56019W        W19743  15.147  24.133   2.348
56020W        W19744  31.908   7.211  11.038
56021W        W19745  10.791  23.095  10.442
56022W        W19746  21.238  13.167  14.935
56023W        W19747  33.432  38.864   3.788
56024W        W19748  23.241  36.082   3.375
56025W        W19749   3.733   8.781  14.342
56026W        W19750   9.191   7.761  11.072
56027W        W19751  12.734   9.681   3.245
56028W        W19752   4.735  23.600   9.984
56029W        W19753   4.276  29.435   2.381
56030W        W19754  20.225  20.160  14.907
56031W        W19755  19.199  35.576  10.999
56032W        W19756  21.592  10.141   2.252
56033W        W19757  12.647  18.779  10.440
56034W        W19758  35.550  30.085   4.246
56035W        W19759  32.914  44.283   0.277
56036W        W19760  37.857  13.269   1.844
56037W        W19761  21.034  44.370  14.773
56038W        W19762  12.271  13.811  13.520
56039W        W19763  34.943  28.608  12.003
56040W        W19764   0.404  37.936   4.784
56041W        W19765   3.318   5.805  10.898
56042W        W19766  34.578   6.910   4.677
56043W        W19767  44.370  25.166   1.846
56044W        W19768  15.158  33.626  10.945
56045W        W19769   7.218  26.039  14.334
56046W        W19770  44.776  20.213   3.689
56047W        W19771   7.331  39.515  10.995
56048W        W19772  24.576  10.819   3.323
56049W        W19773   7.296  35.985   2.264
56050W        W19774  15.115  28.078  11.105
56051W        W19775  44.873  23.559   1.879
56052W        W19776  37.988  13.843   1.715
56053W        W19777  42.293  18.143   1.769
56054W        W19778   8.818  23.680   0.251
56055W        W19779  39.000  33.410  12.067
56056W        W19780  12.634  36.348  13.844
56057W        W19781  24.595  34.995  12.976
56058W        W19782   2.351  34.463   2.231
56059W        W19783   7.701  44.869   2.890
56060W        W19784   8.265  13.656   9.481
56061W        W19785   7.334  23.092  11.994
56062W        W19786  40.471  10.330   9.978
56063W        W19787  22.550  12.781  10.029
56064W        W19788  40.991  25.085  11.897
56065W        W19789   4.251  13.623  14.913
56066W        W19790   3.908  18.135  13.361
56067W        W19791  18.694  10.220  13.943
56068W        W19792   9.364  24.045  14.275
56069W        W19793  25.475  25.712  12.485
56070W        W19794  33.586  22.099   1.297
56071W        W19795  41.992  31.442  12.081
56072W        W19796  38.842  33.541   4.598
56073W        W19797  41.890   4.830  11.060
56074W        W19798  13.759  27.458   3.718
56075W        W19799  27.976  37.972  13.507
56076W        W19800   2.887  16.609   1.831
56077W        W19801  41.294  37.056  13.370
56078W        W19802  28.980  30.615   0.793
56079W        W19803   9.368  41.477   3.374
56080W        W19804  31.896  34.105  13.875
56081W        W19805  27.128  19.648  13.843
56082W        W19806  31.517  12.304   4.659
56083W        W19807  40.833  11.291   0.456
56084W        W19808  28.146   4.875   5.193
56085W        W19809  25.591   0.377  10.522
56086W        W19810  29.134  43.995   4.611
56087W        W19811  15.247  44.976  14.340
56088W        W19812  13.738  41.013  11.855
56089W        W19813  14.713  25.095  10.492
56090W        W19814  25.092  44.334  11.974
56091W        W19815  12.619   2.312  10.572
56092W        W19816   2.286  25.638  14.374
56093W        W19817   8.897  35.450   0.787
56094W        W19818  17.301  21.201   4.644
56095W        W19819  38.522  30.069  10.533
56096W        W19820  39.877   4.787   2.178
56097W        W19821   6.406  18.768   4.675
56098W        W19822  26.961  44.004   0.367
56099W        W19823  13.160  32.139   0.308
56100W        W19824  22.034  24.088   4.797
56101W        W19825  44.990  12.225  11.944
56102W        W19826  13.239   9.303   0.802
56103W        W19827  37.365  24.104  14.482
56104W        W19828  40.543   0.853   4.314
56105W        W19829   6.699   5.712  12.870
56106W        W19830  40.440  36.413  12.940
56107W        W19831   6.316   5.854   1.719
56108W        W19832  42.389  22.216  12.407
56109W        W19833  41.507  34.438   1.729
56110W        W19834  22.665  26.633   3.831
56111W        W19835  37.498  10.276   5.293
56112W        W19836  25.191  34.439   2.888
56113W        W19837  35.564  35.899  14.378
56114W        W19838   4.882   0.490   3.148
56115W        W19839  34.601  24.688  11.947
56116W        W19840  30.084  25.542  11.423
56117W        W19841  25.657  33.959   4.602
56118W        W19842  37.082  28.492   1.250
56119W        W19843   2.401  44.002   1.787
56120W        W19844  24.711  22.111  10.492
56121W        W19845   2.457  40.493   4.291
56122W        W19846  34.539  13.751  14.942
56123W        W19847  11.208  10.755  11.074
56124W        W19848  43.969  19.677   0.365
56125W        W19849  36.397   3.452  12.523
56126W        W19850  42.485  15.790   0.807
56127W        W19851  25.974  33.381   4.634
56128W        W19852  23.059  18.224   3.723
56129W        W19853   5.877  43.940  13.527
56130W        W19854  14.724   6.316   9.632
56131W        W19855  39.464   9.845   1.334
56132W        W19856  40.977  38.913  11.922
56133W        W19857  31.968  30.507  10.896
56134W        W19858  10.848  42.341  14.929
56135W        W19859  20.629  39.471  10.938
56136W        W19860  27.084   7.779   3.156
56137W        W19861  18.188  17.209  13.852
56138W        W19862  33.619  13.248  11.492
56139W        W19863  11.645   5.319   4.214
56140W        W19864  44.004  15.728  13.505
56141W        W19865  41.809   5.842   4.646
56142W        W19866  25.972  24.136  13.316
56143W        W19867  37.526  16.761  11.906
56144W        W19868  16.720  18.652   1.894
56145W        W19869   2.459   7.370   5.228
56146W        W19870  24.981   9.783  13.454
56147W        W19871  38.468   8.372   2.847
56148W        W19872  36.010  31.572   4.175
56149W        W19873   7.371  25.100   3.836
56150W        W19874   5.384  44.989   4.153
56151W        W19875   5.267  27.165   0.394
56152W        W19876   7.371  27.612   2.234
56153W        W19877  27.034  13.127  12.431
56154W        W19878  17.589   9.354   4.765
56155W        W19879  38.472  19.156  12.552
56156W        W19880  10.257  18.640  14.765
56157W        W19881  42.463  12.766   3.192
56158W        W19882  22.692   0.760   4.672
56159W        W19883  24.993  22.522  14.995
56160W        W19884  26.617  34.554  12.339
56161W        W19885  11.184  43.945   2.717
56162W        W19886  13.132   2.832   1.225
56163W        W19887   6.763   8.396  10.576
56164W        W19888  38.832  39.480  12.483
56165W        W19889   6.236  27.049  11.918
56166W        W19890  19.665  26.050  14.769
56167W        W19891  35.852   2.327  14.411
56168W        W19892   2.852  32.965   0.361
56169W        W19893  44.325   6.774  10.604
56170W        W19894  24.129  20.705  12.059
56171W        W19895   4.798   4.214   4.209
56172W        W19896   9.862  31.630  13.883
56173W        W19897  21.576  17.125   3.772
56174W        W19898  40.900  18.128   2.332
56175W        W19899   7.176  17.707  11.422
56176W        W19900   5.919  23.723   2.315
56177W        W19901  31.477  30.605   3.184
56178W        W19902  43.309  44.496   0.801
56179W        W19903  14.140  10.213  13.837
56180W        W19904  14.298  20.660   3.229
56181W        W19905  37.991  44.449   4.744
56182W        W19906  37.878   4.742   1.749
56183W        W19907  34.987   1.925   1.360
56184W        W19908  13.132  18.274   2.884
56185W        W19909  25.576   0.979  13.335
56186W        W19910  23.646  35.586   1.862
56187W        W19911   4.849   6.807  10.498
56188W        W19912  26.676  29.981   5.266
56189W        W19913   7.861  17.744   0.397
56190W        W19914   0.407  14.194  11.934
56191W        W19915   3.278  36.848   3.711
56192W        W19916  21.088  42.353  12.856
56193W        W19917  37.363   7.363  10.573
56194W        W19918  37.459  22.085   2.340
56195W        W19919   5.402  43.376  11.410
56196W        W19920  21.682  22.743  14.922
56197W        W19921  43.807  17.658   1.440
56198W        W19922  19.044  28.992   0.959
56199W        W19923   2.853   6.896   0.445
56200W        W19924   7.880  28.166  11.510
56201W        W19925  22.583  27.652   2.765
56202W        W19926   3.897  22.069   4.233
56203W        W19927   2.909  11.746  14.921
56204W        W19928  42.339  29.535  14.994
56205W        W19929   6.223  11.207   1.249
56206W        W19930  23.532  22.522   2.848
56207W        W19931  36.911  37.961  13.453
56208W        W19932  16.138  19.148  12.461
56209W        W19933  28.086  28.547   1.417
56210W        W19934  13.728   2.266  13.876
56211W        W19935  11.142   6.374  10.444
56212W        W19936   0.810  31.097  11.506
56213W        W19937  41.964  40.520  10.645
56214W        W19938   0.272   4.435  14.896
56215W        W19939   9.250  39.887  12.935
56216W        W19940   3.348   2.271   1.744
56217W        W19941  44.336   9.219  14.308
56218W        W19942  11.630  28.994   2.224
56219W        W19943   6.776  27.004  14.297
56220W        W19944  15.254  39.379  13.927
56221W        W19945  18.620  32.503  14.465
56222W        W19946  30.976  34.899  11.953
56223W        W19947  23.014  39.003  13.917
56224W        W19948  38.004  24.537  11.108
56225W        W19949  21.549  16.568  13.840
56226W        W19950  38.558  12.256  14.474
56227W        W19951  36.863   5.307  14.282
56228W        W19952   8.763  24.145  14.452
56229W        W19953  40.543   2.257   0.446
56230W        W19954   2.761  39.997   3.718
56231W        W19955   2.435  38.895  10.981
56232W        W19956  18.126   3.771  13.483
56233W        W19957   9.686  25.099  10.412
56234W        W19958  34.889   8.227  12.449
56235W        W19959  42.443   4.407  11.885
56236W        W19960  14.714  33.451   3.337
56237W        W19961   9.704  31.096  13.054
56238W        W19962  14.142  27.655  13.967
56239W        W19963  42.916   1.782   2.831
56240W        W19964  31.903  41.496   4.287
56241W        W19965  10.177   3.405  13.400
56242W        W19966  44.484  36.569  10.143
56243W        W19967  32.563  28.149  13.449
56244W        W19968  43.773  21.619   4.278
56245W        W19969   5.904   1.445  11.913
56246W        W19970  40.506  10.328   2.308
56247W        W19971  18.244  18.579   4.787
56248W        W19972   7.898   1.810   0.286
56249W        W19973  41.907  20.263   4.152
56250W        W19974  21.030  41.803  11.041
56251W        W19975  44.365  19.750  13.875
56252W        W19976  44.904  38.870   4.194
56253W        W19977  37.046  40.961   4.314
56254W        W19978  27.112  35.916  12.892
56255W        W19979  14.810  29.665  11.110
56256W        W19980  35.477  25.615  14.761
56257W        W19981  36.471  33.113  14.972
56258W        W19982  37.978  37.452   1.407
56259W        W19983  22.544   5.873   3.696
56260W        W19984  33.971   9.766   1.910
56261W        W19985  37.541  22.197  14.763
56262W        W19986  32.913  26.607  14.809
56263W        W19987   2.458  26.956   0.797
56264W        W19988  39.556  25.148  12.097
56265W        W19989  44.809  32.595  12.039
56266W        W19990  16.203  42.518  12.492
56267W        W19991  12.328  23.520   0.448
56268W        W19992  37.029  28.014   4.765
56269W        W19993  31.983   4.736  13.838
56270W        W19994   3.881  22.691  11.559
56271W        W19995  11.254  18.078   0.428
56272W        W19996  16.784  32.067   0.903
56273W        W19997  25.519  19.096   4.266
56274W        W19998  30.542  14.664  11.560
56275W        W19999   3.816  35.435  10.894
56276W        W20000  25.053  42.011  11.862
56277W        W20001   2.281  10.288   2.376
56278W        W20002   1.836  34.439  13.325
56279W        W20003  13.272   6.308   0.342
56280W        W20004  10.707  27.543  12.554
56281W        W20005   8.267   7.189   2.417
56282W        W20006  27.661  17.270   1.917
56283W        W20007   7.759  19.138  10.502
56284W        W20008  23.175   1.940  10.985
56285W        W20009   4.293  31.536  14.902
56286W        W20010   7.817  44.491   2.245
56287W        W20011  25.007  29.061   2.725
56288W        W20012  34.449  26.518  13.985
56289W        W20013  37.339  27.669  10.529
56290W        W20014  33.589  26.702  14.953
56291W        W20015  36.011  12.275   1.308
56292W        W20016  24.631  36.459  12.836
56293W        W20017  14.822  23.232  10.908
56294W        W20018  14.616  18.588   4.643
56295W        W20019  32.999  23.602  11.474
56296W        W20020  43.317  20.587   1.858
56297W        W20021  40.544  21.563   1.765
56298W        W20022  13.112  16.713   3.291
56299W        W20023   3.411  27.036   0.958
56300W        W20024   5.337  20.160  13.059
56301W        W20025   6.254  30.991  14.390
56302W        W20026  10.641  21.668   1.348
56303W        W20027   3.383  11.127   3.311
56304W        W20028  37.980  41.866  14.962
56305W        W20029  13.630  33.384   4.608
56306W        W20030  29.453  28.001   4.336
56307W        W20031  15.592  34.022  11.381
56308W        W20032  40.422  12.818  10.632
56309W        W20033   3.377  43.779   4.245
56310W        W20034  26.511  24.703  11.985
56311W        W20035  41.824  16.655   1.851
56312W        W20036  40.807   8.711  13.021
56313W        W20037  16.735  17.707   4.818
56314W        W20038   8.724   0.859   2.253
56315W        W20039  20.724  12.152   4.312
56316W        W20040  28.005  27.679  10.531
56317W        W20041  30.435  32.556  14.011
56318W        W20042  32.508  38.937   2.391
56319W        W20043  23.196  28.511   3.336
56320W        W20044  17.201  41.793   2.329
56321W        W20045  20.582  43.940   3.825
56322W        W20046  20.163   4.934   4.144
56323W        W20047  21.602   3.786   4.703
56324W        W20048   4.246   2.770  13.311
56325W        W20049   8.705  18.691   5.250
56326W        W20050  33.598   0.484   2.309
56327W        W20051  27.097  14.095  12.084
56328W        W20052  31.618  29.965  13.005
56329W        W20053  27.561  28.531   0.921
56330W        W20054  44.898  12.127   1.850
56331W        W20055  20.153  20.617   3.643
56332W        W20056  41.865  31.554  13.909
56333W        W20057  31.640  28.457  13.882
56334W        W20058  42.368  25.148  12.874
56335W        W20059  38.919  42.488   2.706
56336W        W20060  40.017  39.525   3.857
56337W        W20061   0.318   4.208   0.315
56338W        W20062  11.231  38.909   3.275
56339W        W20063   9.759  11.153   1.285
56340W        W20064  25.537   8.849   3.802
56341W        W20065  16.763  37.420  11.612
56342W        W20066  10.288  29.111  12.575
56343W        W20067  17.085  35.001  12.994
56344W        W20068  16.087  32.434   3.255
56345W        W20069  37.954  13.745   2.359
56346W        W20070  23.141  43.892   0.315
56347W        W20071  33.604   3.917  12.466
56348W        W20072  30.943  41.872  12.827
56349W        W20073  19.125  15.319   1.835
56350W        W20074  39.453  20.192   0.783
56351W        W20075  17.800   8.798   1.361
56352W        W20076  26.174  15.179  11.061
56353W        W20077  10.815  10.679   4.662
56354W        W20078  26.139  36.542   4.789
56355W        W20079   5.752  16.742  13.548
56356W        W20080  33.875   5.297   2.240
56357W        W20081  39.495  37.348  14.370
56358W        W20082  30.037  19.690   2.224
56359W        W20083  37.041   2.381  13.902
56360W        W20084   3.739  42.349   1.902
56361W        W20085   7.677   9.811   0.836
56362W        W20086   6.224  41.894   3.695
56363W        W20087  24.582  38.889   2.208
56364W        W20088  19.099  34.437   1.840
56365W        W20089  43.925  10.654   4.817
56366W        W20090   8.404  30.090   2.262
56367W        W20091  12.160   7.889  12.067
56368W        W20092  14.754   4.329   3.673
56369W        W20093  29.175  11.310  11.063
56370W        W20094  39.358  24.980   1.412
56371W        W20095  35.991  32.139   2.818
56372W        W20096  13.158  14.333  13.459
56373W        W20097   3.919  18.070  14.414
56374W        W20098   3.334  31.592   1.856
56375W        W20099  10.235   5.232   1.890
56376W        W20100  22.031  34.047   2.191
56377W        W20101   6.892  32.519   2.381
56378W        W20102  12.837  40.319   4.659
56379W        W20103   4.382   0.953   3.347
56380W        W20104  28.465  33.009   0.412
56381W        W20105   1.386  32.062   4.331
56382W        W20106  24.190  29.553   1.901
56383W        W20107  33.902   0.788   0.410
56384W        W20108   2.771   9.366  10.624
56385W        W20109  27.520   3.821  14.877
56386W        W20110  44.404   7.329  13.433
56387W        W20111  41.476  31.133  12.352
56388W        W20112  31.447  34.091  14.471
56389W        W20113  30.140  29.649  13.513
56390W        W20114   2.452  39.994   4.163
56391W        W20115  16.759  37.985  10.619
56392W        W20116  34.462  26.976   0.760
56393W        W20117  40.986  30.983   2.870
56394W        W20118   6.286  19.101   2.787
56395W        W20119  12.706  24.010   0.307
56396W        W20120  41.357  13.745  11.998
56397W        W20121   9.779  22.567   1.430
56398W        W20122  20.243   9.735   2.866
56399W        W20123  44.398  32.633  13.856
56400W        W20124  29.652  18.154  11.874
56401W        W20125  42.816  24.672  11.538
56402W        W20126  38.948  17.113   3.285
56403W        W20127  23.151  32.615  14.482
56404W        W20128  29.516  27.466   2.810
56405W        W20129  20.157  31.592  10.532
56406W        W20130  31.994  14.707  13.791
56407W        W20131  26.110  31.422  12.342
56408W        W20132  39.498   9.181  14.382
56409W        W20133  11.866  37.517   5.308
56410W        W20134  37.064   8.214   0.833
56411W        W20135  10.680   0.251  11.441
56412W        W20136  28.049  44.832   0.821
56413W        W20137  24.562  15.631   1.902
56414W        W20138  32.022  31.522   0.339
56415W        W20139  19.700  23.992   2.253
56416W        W20140  31.972  30.007   0.383
56417W        W20141  16.745  32.520  11.607
56418W        W20142   6.288  25.142  10.944
56419W        W20143  41.488   5.195   1.394
56420W        W20144   2.260  10.301   1.784
56421W        W20145  44.289  16.650   0.889
56422W        W20146  32.069  13.724  11.117
56423W        W20147  25.204  17.629  12.983
56424W        W20148  43.839   7.735   1.714
56425W        W20149  33.484  30.929  12.064
56426W        W20150   9.359  10.748   1.812
56427W        W20151  37.895   6.854  11.013
56428W        W20152  44.446  18.724   2.182
56429W        W20153  40.310   6.234   2.679
56430W        W20154  37.407  42.919   5.102
56431W        W20155  30.049   9.344  14.977
56432W        W20156  24.975  34.973   3.207
56433W        W20157  34.429  40.539  14.802
56434W        W20158  29.668  24.181  13.392
56435W        W20159   5.809  26.598  14.796
56436W        W20160  31.981   4.290   2.690
56437W        W20161  19.578   4.322  12.895
56438W        W20162  32.922  27.190  10.562
56439W        W20163  39.045  43.900   0.437
56440W        W20164  41.988  13.670   3.770
56441W        W20165  35.964  15.108  11.934
56442W        W20166  41.321  23.135  14.937
56443W        W20167  29.587  13.126   0.931
56444W        W20168  39.511   5.237  12.927
56445W        W20169  16.087   8.388  14.433
56446W        W20170   8.765  18.546   0.243
56447W        W20171  23.513  12.707  12.052
56448W        W20172   1.840   0.322   2.237
56449W        W20173  27.612  18.211   1.785
56450W        W20174  17.304   0.815  14.882
56451W        W20175   3.772  27.958   0.443
56452W        W20176  31.985  41.038   0.316
56453W        W20177  17.066  34.092  12.421
56454W        W20178  33.475  15.817  11.057
56455W        W20179   4.899  26.609  11.001
56456W        W20180  28.995  18.159   3.256
56457W        W20181   4.798  24.092  10.159
56458W        W20182   4.369  40.317   2.277
56459W        W20183  19.224   2.403  14.425
56460W        W20184  32.901   1.283   2.708
56461W        W20185  29.985  37.431  11.894
56462W        W20186  13.283  28.648   3.757
56463W        W20187  39.955   2.362   0.851
56464W        W20188  16.795  10.705  14.304
56465W        W20189  22.566  11.320   9.929
56466W        W20190   3.307  29.525  11.033
56467W        W20191  25.198   8.797  14.429
56468W        W20192  42.801  39.858   1.380
56469W        W20193  24.493   6.736   0.443
56470W        W20194   8.773  22.191  10.512
56471W        W20195  21.073  16.572   2.409
56472W        W20196  11.312   7.187  11.443
56473W        W20197  29.612   3.411  12.949
56474W        W20198  32.472  40.052   0.836
56475W        W20199  31.067   6.764   0.372
56476W        W20200  10.367  25.195   3.368
56477W        W20201  11.284  34.465   4.669
56478W        W20202  13.323  27.568   3.303
56479W        W20203  40.024  15.674   2.294
56480W        W20204  17.619  16.603  13.541
56481W        W20205  14.622   6.915   1.906
56482W        W20206  31.045  41.334  14.779
56483W        W20207  13.267  34.959   1.710
56484W        W20208   3.877   9.335   2.230
56485W        W20209  25.667  28.087  14.013
56486W        W20210  31.051  28.640  14.414
56487W        W20211  28.028  42.469  11.490
56488W        W20212  24.525  42.478  12.914
56489W        W20213  12.199  18.593  13.873
56490W        W20214   1.853  13.194  13.847
56491W        W20215  14.654  37.976  11.508
56492W        W20216   6.691  25.135   2.381
56493W        W20217   0.425  39.419   4.775
56494W        W20218  41.820  27.132   4.736
56495W        W20219  12.197  18.134   1.332
56496W        W20220  14.668   2.789   3.323
56497W        W20221  20.134  11.845  13.059
56498W        W20222   4.812  14.725   0.390
56499W        W20223  13.312  25.003  14.328
56500W        W20224   8.334  16.769   2.903
56501W        W20225  44.870   5.359  12.087
56502W        W20226   1.795  10.178   2.346
56503W        W20227  35.410   4.424   4.762
56504W        W20228  40.026  44.289  11.906
56505W        W20229  28.151  22.073  12.966
56506W        W20230   7.415  44.806   1.315
56507W        W20231   6.739  33.970   1.889
56508W        W20232   4.863  44.984   3.264
56509W        W20233  26.659   9.788   1.376
56510W        W20234  10.210  39.869  12.042
56511W        W20235  38.943   1.447  11.569
56512W        W20236  26.955  38.934  11.455
56513W        W20237  23.990   8.703  10.994
56514W        W20238  27.483  42.024   0.377
56515W        W20239  13.706  17.184   1.900
56516W        W20240  14.590  43.372  13.911
56517W        W20241   3.924   1.887  12.968
56518W        W20242  26.658  36.877  13.527
56519W        W20243  41.924  43.400  12.033
56520W        W20244  10.149  27.091  11.953
56521W        W20245   4.725  41.367   4.700
56522W        W20246  41.962   2.261   1.314
56523W        W20247  31.547   5.836  14.774
56524W        W20248  44.367  18.206  13.027
56525W        W20249  41.458  37.843  10.986
56526W        W20250  27.457  41.446  14.973
56527W        W20251  12.350  11.645  12.836
56528W        W20252  12.334   1.439   1.832
56529W        W20253   5.826  34.995  13.804
56530W        W20254  36.551  43.886  14.440
56531W        W20255  23.672  22.163  12.996
56532W        W20256  10.365  32.626   2.845
56533W        W20257   4.266  41.424   4.736
56534W        W20258  26.492  22.199  10.464
56535W        W20259  11.652  31.941   5.127
56536W        W20260  24.677  26.969   0.291
56537W        W20261  42.359  23.537  13.795
56538W        W20262  38.018   4.212  12.401
56539W        W20263  10.743  40.881   2.836
56540W        W20264  42.419  24.587   3.248
56541W        W20265  28.506  20.746   0.820
56542W        W20266  33.885  28.542   0.926
56543W        W20267  29.555  41.485   5.109
56544W        W20268  17.069  38.441   3.322
56545W        W20269  43.975   2.381  13.364
56546W        W20270  14.216  15.801  10.986
56547W        W20271  37.375  37.472   3.239
56548W        W20272  24.535  40.377  11.493
56549W        W20273   4.917  42.792  11.858
56550W        W20274   0.283   2.954  10.644
56551W        W20275  36.093  27.004  14.848
56552W        W20276   8.214  32.466   3.343
56553W        W20277  21.645  23.143   1.235
56554W        W20278  29.535  25.609  12.486
56555W        W20279  16.648  20.268  14.873
56556W        W20280  13.263  15.821   5.168
56557W        W20281  20.094  28.952   2.225
56558W        W20282  19.779  16.600  13.984
56559W        W20283  31.482  16.214  11.478
56560W        W20284  16.683  24.621   2.700
56561W        W20285   0.251  23.663  11.531
56562W        W20286  24.101   7.813   4.740
56563W        W20287  37.042  34.032  11.416
56564W        W20288  21.092  33.881   4.130
56565W        W20289   5.218   4.766   2.756
56566W        W20290   0.938  10.663   4.323
56567W        W20291  34.993  17.705  10.615
56568W        W20292   9.672  36.392   3.210
56569W        W20293   7.271   5.737  14.870
56570W        W20294   9.865  13.686   1.249
56571W        W20295  28.030   4.706   4.138
56572W        W20296   1.283  30.029   1.366
56573W        W20297  33.503  29.061   3.680
56574W        W20298  14.161  37.065   4.340
56575W        W20299  44.298  34.016   3.187
56576W        W20300  11.653  25.028   9.982
56577W        W20301  24.588  14.808  10.541
56578W        W20302  12.833  35.029   0.401
56579W        W20303  35.895  39.388  12.469
56580W        W20304  41.996  16.736  11.570
56581W        W20305  16.610  39.042  11.382
56582W        W20306  25.632  37.065   3.766
56583W        W20307  16.248  30.138  10.960
56584W        W20308   8.362   3.318   2.198
56585W        W20309  35.954  16.758   1.277
56586W        W20310  44.475  21.056   4.251
56587W        W20311  17.255  41.535  12.522
56588W        W20312  35.937  27.661  14.951
56589W        W20313   5.798  21.659   1.441
56590W        W20314  25.215  27.122   0.770
56591W        W20315  19.152  14.319   4.341
56592W        W20316  43.815  32.509  13.846
56593W        W20317   7.704   7.338  14.795
56594W        W20318  11.305  41.816   3.171
56595W        W20319  11.721   8.874  13.051
56596W        W20320  27.598  10.741   4.349
56597W        W20321   2.822  17.218   3.639
56598W        W20322   8.344  10.167  11.899
56599W        W20323  38.851   2.809   4.188
56600W        W20324  41.411  26.481  10.419
56601W        W20325  27.164  38.410  11.878
56602W        W20326   7.282  20.727  10.469
56603W        W20327  24.029  27.524   2.902
56604W        W20328  18.283  21.217  11.611
56605W        W20329  12.726  35.520   3.194
56606W        W20330  25.060  30.542   3.796
56607W        W20331  21.541  14.151   3.177
56608W        W20332  23.049  17.708   0.727
56609W        W20333  14.598  44.952  12.861
56610W        W20334  38.910  43.335   1.244
56611W        W20335  30.620   5.360  10.529
56612W        W20336  28.479  36.371  10.610
56613W        W20337  30.472   4.235   4.145
56614W        W20338  13.265  42.912   5.241
56615W        W20339   7.399   3.725  13.913
56616W        W20340   9.179  16.699  11.381
56617W        W20341  33.500  24.624  11.009
56618W        W20342  37.535  27.487   2.314
56619W        W20343  27.186  14.155  13.900
56620W        W20344   1.298  43.437   1.356
56621W        W20345  22.019  19.639   0.953
56622W        W20346  20.709  35.936  10.934
56623W        W20347  44.759  27.972  11.900
56624W        W20348   5.349  31.957  12.478
56625W        W20349  11.237  31.942   0.932
56626W        W20350  28.621  12.805   1.220
56627W        W20351  38.954   0.464  10.090
56628W        W20352  32.092   4.245  12.857
56629W        W20353  29.967  11.306  14.781
56630W        W20354  34.431  23.239   2.231
56631W        W20355  40.848  42.860  10.941
56632W        W20356  28.653  15.814   0.369
56633W        W20357  13.117   1.419  12.938
56634W        W20358  20.665  13.708   0.736
56635W        W20359  43.989  30.544  12.544
56636W        W20360   6.759  44.869  14.315
56637W        W20361  34.917  18.216   3.243
56638W        W20362  35.533  40.306   0.899
56639W        W20363  12.175  15.722  13.319
56640W        W20364  32.503  37.085   3.163
56641W        W20365  40.880  25.491  11.426
56642W        W20366   0.813  28.623  11.441
56643W        W20367   3.877   6.676   3.852
56644W        W20368  19.261  34.920   2.202
56645W        W20369  35.923  34.079  12.347
56646W        W20370   7.879  18.187  10.035
56647W        W20371  10.237  15.769   1.324
56648W        W20372  26.696  14.692   3.274
56649W        W20373  26.654   8.726  12.084
56650W        W20374  15.707   2.920   9.975
56651W        W20375  11.296  16.294   1.812
56652W        W20376   4.872  36.443  14.438
56653W        W20377  41.044   7.838  12.564
56654W        W20378  10.797  39.011   4.647
56655W        W20379  29.132  32.138   5.291
56656W        W20380  28.599  42.923   1.733
56657W        W20381  38.954  38.538  11.894
56658W        W20382  38.820  13.636  14.912
56659W        W20383  26.171   6.396  14.855
56660W        W20384  17.747   9.249  11.064
56661W        W20385  27.074  27.627   1.738
56662W        W20386  36.375  10.146  10.085
56663W        W20387  30.560  24.980   1.835
56664W        W20388  13.130  29.935   2.727
56665W        W20389   4.802  36.063   0.892
56666W        W20390   7.385  15.738   4.195
56667W        W20391   9.258  12.253  12.573
56668W        W20392  10.814   4.932   2.704
56669W        W20393  42.317   4.698  13.329
56670W        W20394   6.817  34.459  11.410
56671W        W20395  26.017  30.968  11.983
56672W        W20396   5.781  10.678   1.816
56673W        W20397   8.402  13.816   0.788
56674W        W20398  34.560  36.937   4.823
56675W        W20399  11.366   2.860   4.261
56676W        W20400   1.878  33.932  14.473
56677W        W20401  29.055   3.384   3.257
56678W        W20402  31.112  31.592  11.907
56679W        W20403  27.456   6.765   2.377
56680W        W20404   5.361  35.483  13.015
56681W        W20405  43.355   3.451   0.246
56682W        W20406  39.905  19.247   4.320
56683W        W20407  12.221  30.413   1.925
56684W        W20408   0.764   6.719  11.482
56685W        W20409  32.404  18.746  13.909
56686W        W20410  18.272  19.088   0.727
56687W        W20411  13.770  30.598   2.769
56688W        W20412  21.168  34.980   3.248
56689W        W20413  42.003  13.309  14.764
56690W        W20414  28.503   4.762   1.890
56691W        W20415  17.766  20.220  14.401
56692W        W20416  17.155  27.105  11.855
56693W        W20417  36.051  41.322   1.803
56694W        W20418  28.614  32.521  14.920
56695W        W20419  12.655  21.594  14.343
56696W        W20420  41.014  37.839   9.947
56697W        W20421  34.005  18.747  10.638
56698W        W20422  12.686   5.266   9.615
56699W        W20423  29.587  14.217   2.177
56700W        W20424  28.030  32.984  14.462
56701W        W20425  35.093  19.560  13.015
56702W        W20426  28.635   0.275   3.864
56703W        W20427  14.292  20.182   2.315
56704W        W20428  38.508  24.527  11.913
56705W        W20429  37.465  24.593   2.746
56706W        W20430  29.439  28.988  14.329
56707W        W20431   9.339  34.441   4.297
56708W        W20432  20.032  17.755   3.360
56709W        W20433   5.293  14.674   4.763
56710W        W20434  21.262  42.424   2.266
56711W        W20435  34.574  24.076  10.636
56712W        W20436  10.802  41.441  14.498
56713W        W20437  40.886  22.674   1.348
56714W        W20438  14.250  16.112   3.207
56715W        W20439   6.770  41.981   2.822
56716W        W20440   6.199  24.495  14.934
56717W        W20441  19.593  33.609   0.740
56718W        W20442   1.441  21.604  13.485
56719W        W20443  34.594  44.906  14.967
56720W        W20444   4.760   5.770   0.408
56721W        W20445  31.559  24.012   4.224
56722W        W20446  21.120   5.818   3.283
56723W        W20447  28.074   4.448   0.303
56724W        W20448  36.855   6.238   4.833
56725W        W20449  30.919  32.509   3.212
56726W        W20450   4.432  20.733   1.396
56727W        W20451   0.868  15.323   1.242
56728W        W20452  29.621  10.853  14.822
56729W        W20453  19.746   1.809  13.528
56730W        W20454  27.690  40.905  13.391
56731W        W20455   3.363  17.202   5.255
56732W        W20456   5.322  17.213  11.025
56733W        W20457   8.260   9.259   1.367
56734W        W20458  43.777  20.736  10.899
56735W        W20459  41.924  28.049   0.931
56736W        W20460  19.163  11.297   2.759
56737W        W20461  32.509  23.632   2.267
56738W        W20462  27.000  14.305   2.842
56739W        W20463   6.387  35.985  12.364
56740W        W20464  28.951  39.056  13.028
56741W        W20465  38.501  34.575   1.362
56742W        W20466  44.761  13.194   3.266
56743W        W20467  39.431  12.697   4.674
56744W        W20468   0.941  42.497   3.176
56745W        W20469   8.755  28.094   0.938
56746W        W20470  14.637  20.559   4.664
56747W        W20471   9.859  41.381  11.947
56748W        W20472   9.702   1.304   3.801
56749W        W20473   7.247  21.212  14.921
56750W        W20474  17.253  18.090  14.422
56751W        W20475  13.109  37.447   1.295
56752W        W20476   7.182  20.207  14.013
56753W        W20477  23.232  19.125  14.409
56754W        W20478  26.042  43.351   0.393
56755W        W20479  17.621  33.438  11.969
56756W        W20480  25.549  30.020   5.290
56757W        W20481  15.771  14.285   2.342
56758W        W20482   7.773  28.519   2.340
56759W        W20483   2.916   3.257  11.914
56760W        W20484  33.991  23.671  11.597
56761W        W20485   8.238  41.376   2.902
56762W        W20486   0.461  33.538   3.167
56763W        W20487  36.460  39.051   3.155
56764W        W20488  10.859  16.089  11.099
56765W        W20489  35.072  13.185  13.944
56766W        W20490  25.562  23.617  12.501
56767W        W20491   9.278  41.804  11.432
56768W        W20492  22.220  40.547  11.864
56769W        W20493   0.922   5.860   1.363
56770W        W20494  32.120  32.064   3.847
56771W        W20495  29.970   6.766  12.426
56772W        W20496   9.860  36.845   4.768
56773W        W20497  37.923  25.125   0.766
56774W        W20498  25.987  15.171   1.334
56775W        W20499  38.526   5.737  13.394
56776W        W20500  44.276  19.716  14.950
56777W        W20501  44.941   2.844  13.546
56778W        W20502  35.359  17.780  11.421
56779W        W20503  41.507   2.762  14.816
56780W        W20504   1.470   7.754  12.977
56781W        W20505  31.951  23.192   3.791
56782W        W20506  25.692  39.467   3.307
56783W        W20507  31.993  24.087   0.260
56784W        W20508  22.560   2.899  14.001
56785W        W20509  42.509  23.022  12.064
56786W        W20510  12.333  24.999  12.946
56787W        W20511  12.310  10.293   4.255
56788W        W20512  33.912  14.753  12.527
56789W        W20513  20.231  27.571   0.381
56790W        W20514  42.477  18.254  11.991
56791W        W20515  26.502  38.561   3.236
56792W        W20516  21.619  12.304   3.295
56793W        W20517  11.857  25.962   1.783
56794W        W20518  30.444  27.614  11.072
56795W        W20519  23.524   7.761   1.403
56796W        W20520  11.363  36.963  14.445
56797W        W20521  36.472  41.388  12.453
56798W        W20522   9.278  44.889  11.509
56799W        W20523  14.620  15.685  14.879
56800W        W20524  22.102  38.470   1.253
56801W        W20525   0.259  32.907  12.508
56802W        W20526  17.096  24.631  14.438
56803W        W20527   9.722   1.843  11.923
56804W        W20528  11.779  30.589  12.908
56805W        W20529  30.925  25.613  12.996
56806W        W20530  43.414  16.796   3.741
56807W        W20531  15.620  20.687   2.899
56808W        W20532  17.263   1.938   0.736
56809W        W20533  21.191  10.802  11.395
56810W        W20534  16.298  12.169   2.281
56811W        W20535   4.880  41.503   3.183
56812W        W20536  36.432  44.262  13.325
56813W        W20537  16.196  16.084  12.488
56814W        W20538  26.154  28.979  14.498
56815W        W20539   1.374  40.407   3.233
56816W        W20540  21.144  17.131   0.457
56817W        W20541  12.612  21.145  11.885
56818W        W20542  17.608   2.929  12.079
56819W        W20543   9.732  33.098   1.251
56820W        W20544  17.713  20.090  11.412
56821W        W20545  16.811  40.372   3.335
56822W        W20546  17.168  21.540   4.258
56823W        W20547  10.685  39.526   3.382
56824W        W20548   4.746  16.607  14.024
56825W        W20549  16.307  14.790   4.786
56826W        W20550   1.442  34.922   0.876
56827W        W20551  19.602   9.856   0.745
56828W        W20552  31.497  34.424  11.885
56829W        W20553   5.234   5.247   4.129
56830W        W20554  13.322   0.799  10.000
56831W        W20555  43.908  29.961   0.263
56832W        W20556  31.905  36.985  13.820
56833W        W20557  19.114  38.937  12.063
56834W        W20558  10.733  21.560  12.382
56835W        W20559  38.946  36.535   1.434
56836W        W20560  33.531  43.428   0.891
56837W        W20561   4.240  33.399   1.412
56838W        W20562  18.103   8.355  10.525
56839W        W20563  10.285   3.802  12.436
56840W        W20564  29.637   5.746   1.365
56841W        W20565  10.286  43.866  10.546
56842W        W20566   5.817  27.187  14.918
56843W        W20567   9.846   2.793  11.611
56844W        W20568  44.812   8.858   2.861
56845W        W20569  31.619  26.144   4.711
56846W        W20570  39.500   7.300   4.670
56847W        W20571   7.902   9.646   4.655
56848W        W20572  26.644  38.060  12.019
56849W        W20573  10.796  35.375   4.759
56850W        W20574  15.751   8.263  10.995
56851W        W20575  40.832  39.991  11.905
56852W        W20576  37.834  15.204  11.558
56853W        W20577   9.832  29.018   2.839
56854W        W20578  19.572  10.753  14.817
56855W        W20579   7.211  19.136  12.091
56856W        W20580  43.466  32.110   4.145
56857W        W20581  14.184  41.898   4.343
56858W        W20582  35.468  26.480  12.891
56859W        W20583  23.190  34.871   1.355
56860W        W20584  19.235  20.639  11.104
56861W        W20585  34.114  14.101  11.075
56862W        W20586  30.929  42.323  10.950
56863W        W20587  14.647  21.748   2.261
56864W        W20588  35.990  13.105   4.229
56865W        W20589   2.960   8.720   3.368
56866W        W20590  22.651  31.599   1.837
56867W        W20591  27.449  10.336   4.278
56868W        W20592  28.088  34.441   0.801
56869W        W20593   5.233  25.123  11.574
56870W        W20594  34.974  44.959   2.274
56871W        W20595   4.755  20.737  13.314
56872W        W20596   8.349  33.093  14.322
56873W        W20597  17.251  29.636   4.311
56874W        W20598  14.673  21.083   3.792
56875W        W20599   1.961   1.382  12.024
56876W        W20600  24.170  31.496   2.698
56877W        W20601   8.240  11.731  11.596
56878W        W20602  38.065  28.450  13.971
56879W        W20603  16.202  14.310   0.408
56880W        W20604  29.628  30.524  14.895
56881W        W20605  28.962  36.904   0.797
56882W        W20606  21.554  35.437  11.592
56883W        W20607   0.326  29.452   0.824
56884W        W20608  30.607  26.015  14.454
56885W        W20609  18.144  30.972  12.551
56886W        W20610   6.407  41.346   0.442
56887W        W20611   1.257  33.059  14.959
56888W        W20612  35.889  13.134   0.391
56889W        W20613  14.834  41.348  11.875
56890W        W20614  38.384  30.513   2.400
56891W        W20615  23.149  21.214   1.918
56892W        W20616  16.283  25.695   2.724
56893W        W20617  21.182  17.795  11.859
56894W        W20618   4.752  27.143   1.846
56895W        W20619  41.921  23.650   0.799
56896W        W20620  36.879  37.985  11.054
56897W        W20621  20.074  16.570   2.206
56898W        W20622  29.467  12.299   2.353
56899W        W20623  39.393  12.353   2.782
56900W        W20624  40.549   0.805   3.814
56901W        W20625  15.264  38.417   1.430
56902W        W20626  26.627  44.276   4.684
56903W        W20627  38.381  18.636  13.546
56904W        W20628  34.514  33.947   3.170
56905W        W20629  12.178  22.591  14.454
56906W        W20630  31.412  14.156  12.487
56907W        W20631  33.104  44.269   2.392
56908W        W20632   5.703  38.484   4.648
56909W        W20633  21.689  31.150  12.978
56910W        W20634  40.055   4.314  14.016
56911W        W20635  44.452  12.256  10.549
56912W        W20636   6.308  28.493   4.125
56913W        W20637  29.469  38.452  13.859
56914W        W20638  35.069   5.226  14.903
56915W        W20639  18.758   4.224   1.398
56916W        W20640  25.704  20.739   3.191
56917W        W20641  27.954   3.949  14.818
56918W        W20642  14.114  19.123  14.361
56919W        W20643  42.975   4.251   3.329
56920W        W20644   8.300  19.148   4.269
56921W        W20645  39.053  28.977   5.088
56922W        W20646  13.338  25.137  12.887
56923W        W20647  42.922  29.493   1.706
56924W        W20648  19.138   1.341   2.754
56925W        W20649  29.490   3.247  14.882
56926W        W20650  23.569  19.550  12.015
56927W        W20651  28.169  11.710   2.393
56928W        W20652   3.913  25.171   2.190
56929W        W20653  16.682  23.624   1.369
56930W        W20654  40.907  30.039   4.330
56931W        W20655  37.484  30.951  13.974
56932W        W20656  23.491  19.545   0.345
56933W        W20657  34.610  31.105  13.503
56934W        W20658  23.163  13.191   0.936
56935W        W20659   4.232  32.615   1.388
56936W        W20660  16.700  42.852  12.899
56937W        W20661  35.089  26.683   4.665
56938W        W20662  25.639   4.293   0.869
56939W        W20663  16.676  29.544  13.344
56940W        W20664  23.655  42.793  11.892
56941W        W20665  38.357  14.201   4.816
56942W        W20666  31.082  23.583  13.421
56943W        W20667  22.037  37.434  14.861
56944W        W20668   3.898  18.783  11.527
56945W        W20669   1.891  19.595   1.715
56946W        W20670  20.607  22.615   2.768
56947W        W20671  34.543  42.347   2.678
56948W        W20672  29.006  30.633  11.882
56949W        W20673  21.569   5.792   2.249
56950W        W20674  14.252  44.994   4.698
56951W        W20675  44.771  43.952   2.394
56952W        W20676  40.398  32.059  11.470
56953W        W20677   6.854  10.362  11.544
56954W        W20678  21.102  11.342  13.450
56955W        W20679  34.430  31.952  12.991
56956W        W20680  40.351  42.885  10.129
56957W        W20681  41.031  35.885   2.706
56958W        W20682  13.775  39.328  12.559
56959W        W20683  26.985  15.583   0.321
56960W        W20684  35.417  10.346  12.342
56961W        W20685  13.345  33.577  11.063
56962W        W20686  15.179  12.202  10.552
56963W        W20687  36.412  19.238  10.948
56964W        W20688  20.733  11.627   1.323
56965W        W20689  34.947  34.612   2.845
56966W        W20690  17.714   1.862   0.368
56967W        W20691  42.972  39.412  10.900
56968W        W20692  27.187  42.998  14.496
56969W        W20693   3.900  42.789  14.495
56970W        W20694   1.252  12.833  10.943
56971W        W20695  37.366  39.995   4.644
56972W        W20696   8.884  17.103  12.410
56973W        W20697  44.816  21.205   4.812
56974W        W20698  21.727   2.228   0.446
56975W        W20699  44.800  36.092  11.492
56976W        W20700  29.436  23.223   1.441
56977W        W20701  19.150  14.226   5.300
56978W        W20702  44.900   1.246  12.015
56979W        W20703   9.298   6.328  13.460
56980W        W20704  20.107  13.650   2.404
56981W        W20705  15.808  22.172  13.416
56982W        W20706  39.810  16.810  13.057
56983W        W20707  23.693  35.029  12.012
56984W        W20708  28.958  32.426  10.575
56985W        W20709  25.634  19.576   3.263
56986W        W20710  37.068  27.679  14.321
56987W        W20711   7.395   7.225   2.200
56988W        W20712   3.320  41.884   4.267
56989W        W20713  17.122  20.122  10.532
56990W        W20714  44.310  44.271  14.848
56991W        W20715  21.239  23.071   1.266
56992W        W20716  23.504  34.935  14.339
56993W        W20717  13.305  16.780  13.492
56994W        W20718  40.049  30.092  10.472
56995W        W20719  39.927  40.838   5.743
56996W        W20720  11.310  23.135   4.318
56997W        W20721  12.765  44.458   2.764
56998W        W20722   3.333  14.657  14.938
56999W        W20723  41.404   1.760   1.748
57000W        W20724  44.950  30.006   1.912
57001W        W20725  42.878  16.202   4.352
57002W        W20726   1.343   4.924   3.669
57003W        W20727  15.671  14.712   3.741
57004W        W20728  33.550  23.077  11.422
57005W        W20729  10.316  10.357   0.449
57006W        W20730   0.265  28.460   0.936
57007W        W20731  28.186  14.254  14.972
57008W        W20732  43.893   5.844  13.011
57009W        W20733  20.031  21.236  11.953
57010W        W20734   5.879  42.892  14.959
57011W        W20735  23.077  40.462   5.202
57012W        W20736  25.639  32.095   4.131
57013W        W20737  33.899   3.420   2.243
57014W        W20738  33.015   2.365  10.951
57015W        W20739  24.080  18.264   4.202
57016W        W20740   4.833  24.100   4.837
57017W        W20741  41.401   3.364  11.443
57018W        W20742  21.639   7.274   4.223
57019W        W20743  20.704  38.454  13.914
57020W        W20744  13.729  10.273   3.365
57021W        W20745  25.609  42.413   0.756
57022W        W20746   1.810  21.546   1.219
57023W        W20747  29.438  44.323   0.728
57024W        W20748  16.713   1.426  13.961
57025W        W20749  19.243   0.783   1.727
57026W        W20750  20.138   8.352   0.397
57027W        W20751  14.828  30.953   2.689
57028W        W20752  36.904  13.734  14.460
57029W        W20753  35.591  14.591   0.396
57030W        W20754  12.289   1.442  13.847
57031W        W20755  18.710   4.748  14.809
57032W        W20756  25.467  28.125   3.158
57033W        W20757  40.944  38.025  11.100
57034W        W20758  43.355  36.093   2.415
57035W        W20759  43.821  38.542  11.504
57036W        W20760   2.910  11.750   1.801
57037W        W20761   4.704  33.952  13.474
57038W        W20762  40.823  21.046   0.372
57039W        W20763   9.325   0.438  12.580
57040W        W20764  14.167  25.079  10.499
57041W        W20765  19.679  32.556   4.756
57042W        W20766  28.138  25.615   3.852
57043W        W20767  37.566   7.380   0.351
57044W        W20768   7.745   1.817  12.520
57045W        W20769  20.126   8.257  14.989
57046W        W20770  26.206  12.162   0.325
57047W        W20771  26.018  32.939  14.444
57048W        W20772  10.837   1.341   4.286
57049W        W20773  24.106  38.460   2.773
57050W        W20774  16.122  21.151  10.620
57051W        W20775  20.575  17.757   0.919
57052W        W20776  12.657   3.825   1.762
57053W        W20777  23.103  37.527   0.965
57054W        W20778   7.265   3.308   3.800
57055W        W20779  12.637  13.801  14.490
57056W        W20780  27.111  22.664   2.262
57057W        W20781  32.102  28.625   1.381
57058W        W20782  21.105  32.557   4.640
57059W        W20783  17.064  43.359   3.184
57060W        W20784  11.279  13.742  14.335
57061W        W20785  38.347  42.945   1.416
57062W        W20786  34.909   0.293  12.023
57063W        W20787  44.997  43.449   3.305
57064W        W20788  23.028  24.554  13.804
57065W        W20789   2.340   5.403  11.029
57066W        W20790   7.276   3.332  13.950
57067W        W20791   3.948   3.381   2.375
57068W        W20792  29.173  24.096   0.404
57069W        W20793   0.379  38.873  12.086
57070W        W20794  18.652  41.925  14.381
57071W        W20795  30.577   1.479  13.409
57072W        W20796  19.152   6.280  10.966
57073W        W20797   9.357  40.511   0.910
57074W        W20798  12.337  33.613  12.429
57075W        W20799  35.945  41.378   3.173
57076W        W20800  28.051   2.286  11.448
57077W        W20801  38.053  32.601  14.359
57078W        W20802  14.338  36.409   1.884
57079W        W20803  15.684   9.757   3.637
57080W        W20804  39.810   8.345  12.428
57081W        W20805  11.763  20.118   0.868
57082W        W20806  26.992  20.111  14.875
57083W        W20807  23.122  43.370  13.340
57084W        W20808  26.091  15.193   2.898
57085W        W20809  21.752   3.933  11.123
57086W        W20810  31.605   6.748   4.769
57087W        W20811  34.112   4.754   1.240
57088W        W20812  31.605  29.974  14.973
57089W        W20813  18.222  28.631   1.931
57090W        W20814   5.225  39.961   1.375
57091W        W20815   0.774  10.316   4.151
57092W        W20816  37.535  32.966  12.959
57093W        W20817  15.310   7.803   4.719
57094W        W20818  19.693  43.828   1.267
57095W        W20819  26.681  37.960   1.747
57096W        W20820  34.525  36.864  13.021
57097W        W20821  44.871   1.454   3.640
57098W        W20822   0.298  15.653   3.274
57099W        W20823  27.116  38.397  12.455
57100W        W20824  11.632   8.376  11.099
57101W        W20825  10.764  25.165   4.761
57102W        W20826  28.625  18.551   0.948
57103W        W20827  41.009  44.412   3.840
57104W        W20828  37.345  29.483   4.662
57105W        W20829  24.997  24.131  11.888
57106W        W20830   8.815   9.341  14.007
57107W        W20831  43.515   5.782   1.399
57108W        W20832   8.811   2.363  11.439
57109W        W20833   5.324  18.645  14.800
57110W        W20834  31.918   8.893   2.687
57111W        W20835   1.362   3.785   3.793
57112W        W20836   8.873  20.057   3.214
57113W        W20837  39.413  29.631  11.526
57114W        W20838  31.591  16.738   3.154
57115W        W20839  17.676   3.309   3.174
57116W        W20840  28.592  14.721   4.685
57117W        W20841  12.708   8.791   1.321
57118W        W20842   7.910   4.244  13.477
57119W        W20843  36.033  13.808  11.968
57120W        W20844  37.358  12.755  13.883
57121W        W20845  13.692  34.891  12.892
57122W        W20846  43.359  25.191   1.728
57123W        W20847  38.545  37.845   1.917
57124W        W20848  26.540   4.931   0.266
57125W        W20849  17.642   5.744   2.760
57126W        W20850  31.027   5.309  13.548
57127W        W20851   7.407  19.276  11.420
57128W        W20852  16.081  32.540  13.949
57129W        W20853  21.620  40.865   0.402
57130W        W20854  12.313  28.967   1.405
57131W        W20855   8.724  44.320   1.813
57132W        W20856  10.815  25.999  11.415
57133W        W20857  41.949  41.021  13.998
57134W        W20858   8.180  36.002   4.297
57135W        W20859  43.406   8.211   4.791
57136W        W20860  11.240  36.071   0.783
57137W        W20861   0.480  43.952  14.962
57138W        W20862  29.456  25.170   3.302
57139W        W20863  38.826  44.925   4.143
57140W        W20864  31.573  11.288   0.930
57141W        W20865   2.928  12.725  11.066
57142W        W20866  25.036  20.686  12.575
57143W        W20867  32.521  40.422   2.290
57144W        W20868  11.257  14.747   2.738
57145W        W20869  25.713   5.211  13.538
57146W        W20870   5.408  23.093  12.400
57147W        W20871  10.243  24.676   4.688
57148W        W20872  24.210  42.945   1.934
57149W        W20873   9.382  44.868   0.310
57150W        W20874  19.146   8.319   4.268
57151W        W20875   3.835  30.544  11.045
57152W        W20876  34.460   0.884   2.711
57153W        W20877  11.298  44.858   0.332
57154W        W20878   9.261  41.020  10.447
57155W        W20879  28.989   4.389  13.542
57156W        W20880  13.604   1.290   3.226
57157W        W20881  14.226  27.983   5.119
57158W        W20882  14.747  23.530  14.316
57159W        W20883  41.497  19.543   4.622
57160W        W20884  10.237  20.693   2.753
57161W        W20885  20.622  28.051   0.412
57162W        W20886  10.286  30.594   2.716
57163W        W20887  14.250   2.367   3.261
57164W        W20888  21.550  12.339  14.471
57165W        W20889  25.094  22.057  12.439
57166W        W20890   4.700  42.965   5.290
57167W        W20891  11.817  27.125   3.803
57168W        W20892  42.491  28.461  12.899
57169W        W20893  35.858   4.267  12.546
57170W        W20894  39.051   3.265  11.903
57171W        W20895  24.058  14.697  12.556
57172W        W20896  32.071  10.207  12.081
57173W        W20897  22.562  18.169   4.213
57174W        W20898  40.021  40.810   9.577
57175W        W20899  36.455   6.306   3.154
57176W        W20900  35.546  41.320  12.462
57177W        W20901  23.021  34.080  14.405
57178W        W20902  34.989   9.193  14.031
57179W        W20903  40.044  32.980  12.839
57180W        W20904  40.957  16.289   1.279
57181W        W20905  16.787  17.575  13.912
57182W        W20906   1.833  42.806  12.036
57183W        W20907  23.497  42.360  11.920
57184W        W20908  43.394  10.322  14.427
57185W        W20909  41.483  10.793  12.391
57186W        W20910  17.584  39.871   2.811
57187W        W20911  18.605   7.756  13.427
57188W        W20912  40.816  22.189  12.084
57189W        W20913  14.762  28.172  13.027
57190W        W20914  44.294  11.831  13.474
57191W        W20915  10.266  16.615   9.987
57192W        W20916  26.496  16.305   3.188
57193W        W20917  35.084  35.999  11.904
57194W        W20918  30.149  44.824   4.240
57195W        W20919  41.373  26.682   4.700
57196W        W20920  20.565  25.467   4.604
57197W        W20921  16.604   9.312   4.820
57198W        W20922  37.836  38.459   0.391
57199W        W20923  21.631   9.246  12.029
57200W        W20924   7.402  29.664  12.518
57201W        W20925   1.966  34.971   0.428
57202W        W20926  19.547   1.870  14.435
57203W        W20927  43.990  21.687   9.931
57204W        W20928  18.170  44.840   3.761
57205W        W20929  36.503  31.098   0.748
57206W        W20930  27.171  23.013  13.347
57207W        W20931  26.046  23.611  14.018
57208W        W20932  34.965  33.501   0.416
57209W        W20933  20.158  15.700   0.312
57210W        W20934  30.573  16.728   3.234
57211W        W20935   0.474   1.933   1.864
57212W        W20936  40.981   1.281   3.324
57213W        W20937  14.791  22.629  10.578
57214W        W20938  37.948  16.610  13.524
57215W        W20939  21.260   4.700   4.780
57216W        W20940   2.312  28.000   5.315
57217W        W20941   6.310  26.982   2.679
57218W        W20942  12.271  43.490   4.341
57219W        W20943  37.015  20.048  11.999
57220W        W20944  21.235  13.145   1.270
57221W        W20945   2.895  31.097  13.791
57222W        W20946  32.416  16.651  11.063
57223W        W20947  25.181  38.900   1.418
57224W        W20948  11.723  36.526  10.441
57225W        W20949  29.050  18.208   4.130
57226W        W20950  14.233  38.913  14.442
57227W        W20951  18.226  40.952   0.825
57228W        W20952  20.160   8.345   3.239
57229W        W20953  19.709  14.724   0.343
57230W        W20954   9.668  32.629   1.835
57231W        W20955  28.551  33.032  12.918
57232W        W20956  23.562  36.912  10.144
57233W        W20957  28.562  18.176   0.845
57234W        W20958  14.778  21.180  13.349
57235W        W20959  18.083  43.441   4.215
57236W        W20960  27.002  10.739   9.934
57237W        W20961  30.972  28.585   1.700
57238W        W20962  12.306  35.106   1.740
57239W        W20963  18.228  30.949   1.854
57240W        W20964  34.492  22.133  12.081
57241W        W20965  15.302  23.008  11.570
57242W        W20966  43.812  16.292  13.982
57243W        W20967  23.735  20.197   2.241
57244W        W20968  19.227  14.598  14.442
57245W        W20969  17.779  22.200   3.847
57246W        W20970  23.665  30.558   3.223
57247W        W20971   4.706  37.463  13.823
57248W        W20972   1.805  16.101   1.335
57249W        W20973  20.213  16.139   2.198
57250W        W20974   9.255   5.900   0.299
57251W        W20975  14.787  31.570  11.611
57252W        W20976  28.120  25.634   2.787
57253W        W20977  11.628  33.011   2.278
57254W        W20978  38.892  23.537   1.902
57255W        W20979  12.176  29.588   0.800
57256W        W20980   0.291   6.756  13.337
57257W        W20981  44.322   8.755  12.526
57258W        W20982   0.472  18.200   0.941
57259W        W20983   5.813  30.954   2.874
57260W        W20984  36.856  32.078  13.036
57261W        W20985  31.643   2.766   2.746
57262W        W20986  30.133  10.742  11.590
57263W        W20987  33.461   7.397   4.138
57264W        W20988  32.024  16.812  11.979
57265W        W20989  12.826  28.551   2.301
57266W        W20990   9.707  35.010   1.288
57267W        W20991  44.790  39.896   4.802
57268W        W20992  16.104   1.323   3.704
57269W        W20993  18.655  42.524   2.688
57270W        W20994  27.491  35.963  11.458
57271W        W20995   8.397  17.178  10.577
57272W        W20996  17.604   1.848  10.985
57273W        W20997   1.894  31.933  13.868
57274W        W20998  25.170  32.422   1.321
57275W        W20999   2.825  41.977   2.329
57276W        W21000  31.127  24.606   3.704
57277W        W21001   9.281  25.103  13.880
57278W        W21002  20.730  25.591  13.828
57279W        W21003   6.386  12.171  12.000
57280W        W21004  15.214  13.193  12.452
57281W        W21005   8.272  42.932  14.854
57282W        W21006  21.653  15.722   0.388
57283W        W21007  41.975  33.386   4.124
57284W        W21008  19.269  23.179   0.778
57285W        W21009  23.626  43.394   3.728
57286W        W21010  23.706  28.661  11.079
57287W        W21011  10.183  37.021  10.548
57288W        W21012   6.857  30.601  10.633
57289W        W21013  21.047   9.380   0.422
57290W        W21014  42.502  27.181  10.997
57291W        W21015  12.309  44.873   2.412
57292W        W21016  38.002  13.773   0.774
57293W        W21017  12.122  27.529   1.343
57294W        W21018   3.303  12.750  12.005
57295W        W21019  36.561  24.204  12.354
57296W        W21020  31.431  14.186  14.475
57297W        W21021   1.431  15.757   2.301
57298W        W21022   3.740  35.580   3.232
57299W        W21023  13.611   6.725   3.215
57300W        W21024  40.922  29.461   3.274
57301W        W21025  44.835  16.296   2.723
57302W        W21026  29.447  24.028   3.727
57303W        W21027  41.500   2.415   3.249
57304W        W21028  19.673  24.489  10.901
57305W        W21029  38.998  37.495  11.471
57306W        W21030  40.806  13.798  14.838
57307W        W21031  28.462  41.814  12.485
57308W        W21032  14.119  22.711   4.750
57309W        W21033  21.624  24.686   3.750
57310W        W21034  14.737  24.628  12.051
57311W        W21035  31.037  26.973   3.192
57312W        W21036  27.475   5.419  11.052
57313W        W21037  12.186  42.501   1.247
57314W        W21038   3.811  21.148   0.340
57315W        W21039   9.752  17.175  12.951
57316W        W21040  10.379  16.099  12.912
57317W        W21041  20.195  29.923  11.984
57318W        W21042  15.177  27.589  10.908
57319W        W21043  19.598  34.921   5.293
57320W        W21044   7.669  22.018   3.254
57321W        W21045   8.798   0.752  13.839
57322W        W21046  28.674  39.814  13.033
57323W        W21047   7.322  12.688  11.121
57324W        W21048  42.480  28.434  11.991
57325W        W21049  10.649  14.163  11.532
57326W        W21050  16.770  39.354  12.478
57327W        W21051  28.475  20.704  11.468
57328W        W21052   4.291  11.743  11.443
57329W        W21053  39.815  16.213   4.251
57330W        W21054   8.368  39.012   3.358
57331W        W21055  32.501  44.275   4.181
57332W        W21056  32.924  41.881  13.335
57333W        W21057  29.015  41.895  12.474
57334W        W21058  22.155  30.929   0.339
57335W        W21059  25.667   3.935   2.350
57336W        W21060  10.845  40.484   4.146
57337W        W21061  11.676  10.716   2.840
57338W        W21062  40.310   7.355  10.097
57339W        W21063  35.954  34.489  11.901
57340W        W21064  23.207  16.748  13.983
57341W        W21065  23.186   1.893   2.695
57342W        W21066   3.452  25.555  10.478
57343W        W21067  34.958  32.906  12.518
57344W        W21068   7.771   8.169  12.869
57345W        W21069  41.398   4.272  12.437
57346W        W21070  34.583   7.890  11.574
57347W        W21071   0.744   4.396  12.827
57348W        W21072  20.742  38.423   4.117
57349W        W21073  15.178   6.680   2.854
57350W        W21074  34.035  12.358  12.508
57351W        W21075   3.775   1.897   2.715
57352W        W21076  28.084   1.953  12.883
57353W        W21077   9.858  21.197  11.950
57354W        W21078  32.399  40.341  12.018
57355W        W21079   7.871  10.339   2.324
57356W        W21080   1.799  14.264   3.817
57357W        W21081   7.751  41.363  14.296
57358W        W21082  21.213  15.609   1.886
57359W        W21083  42.422   9.875  12.969
57360W        W21084  23.722   3.394   4.293
57361W        W21085  27.947  37.482  13.491
57362W        W21086  24.574  36.563   3.738
57363W        W21087  24.035  16.252   3.675
57364W        W21088   6.906  21.056  10.445
57365W        W21089  40.030  17.105   4.187
57366W        W21090  17.108  33.973  13.000
57367W        W21091  41.850  40.434   0.899
57368W        W21092  38.023  19.150  12.054
57369W        W21093  17.744  37.461  11.999
57370W        W21094  20.069   9.704  14.027
57371W        W21095   7.838  42.513   3.259
57372W        W21096  24.569  42.843   3.218
57373W        W21097  33.448   6.231   0.281
57374W        W21098   9.668  28.980  11.061
57375W        W21099  14.823  31.612   0.853
57376W        W21100  13.348   3.306   0.480
57377W        W21101  15.321   6.258  14.909
57378W        W21102   0.447   0.824  12.983
57379W        W21103   5.194  42.897  11.936
57380W        W21104  29.173   0.771   4.188
57381W        W21105   1.443   2.422  13.344
57382W        W21106   9.837   2.940  11.880
57383W        W21107   7.877  44.392   2.738
57384W        W21108  31.075  21.567   3.159
57385W        W21109  19.180  37.082   0.759
57386W        W21110  43.981   3.378   0.881
57387W        W21111  25.671  26.488   0.372
57388W        W21112  24.519  42.828  10.617
57389W        W21113  24.157  24.030   2.828
57390W        W21114  43.342  40.455  11.028
57391W        W21115   0.817   5.823  14.288
57392W        W21116  34.920   2.236  11.075
57393W        W21117  19.141  11.804   1.428
57394W        W21118  22.638  10.164  11.452
57395W        W21119  30.037  15.310   0.828
57396W        W21120  23.725  31.613   3.806
57397W        W21121   6.271  29.085  11.065
57398W        W21122  38.841  16.709   2.195
57399W        W21123  36.044  30.444  14.000
57400W        W21124  36.478  40.033   2.198
57401W        W21125  34.927  14.145   3.333
57402W        W21126   3.887  12.270   2.224
57403W        W21127  32.570   6.301   3.305
57404W        W21128  39.461  32.539  14.454
57405W        W21129  43.847   8.758  11.534
57406W        W21130  18.685  36.898  13.516
57407W        W21131   0.491  10.879  11.407
57408W        W21132  42.370   3.871   0.921
57409W        W21133   7.264  12.332   1.262
57410W        W21134  20.683  40.844  13.477
57411W        W21135  31.475  23.528  11.491
57412W        W21136  44.301  40.486   0.356
57413W        W21137  28.978  33.093  11.919
57414W        W21138  29.565  16.135  12.893
57415W        W21139  25.197  42.474   0.859
57416W        W21140  42.822  12.646  11.883
57417W        W21141  27.957  28.964   2.665
57418W        W21142  28.550  13.136   1.807
57419W        W21143  31.573  41.832  13.433
57420W        W21144   3.334  36.355  12.876
57421W        W21145   1.315  42.341  13.389
57422W        W21146  37.457  19.145  12.516
57423W        W21147   0.455  19.182   4.691
57424W        W21148  21.603   7.725   1.280
57425W        W21149   3.360  15.682  13.339
57426W        W21150   2.320   2.756   0.854
57427W        W21151   8.848   4.824   3.347
57428W        W21152  18.611  33.513   2.762
57429W        W21153  44.477  26.995   4.269
57430W        W21154   2.412  32.463   3.851
57431W        W21155  20.621  44.908  12.988
57432W        W21156  41.813   6.725  14.920
57433W        W21157   0.923   3.253   3.664
57434W        W21158   6.381  21.639   3.275
57435W        W21159  37.374  26.526   0.773
57436W        W21160   0.979  28.986  10.460
57437W        W21161  37.844  22.087   2.366
57438W        W21162  18.153  22.730   3.155
57439W        W21163   5.285  29.666  11.580
57440W        W21164  24.658   7.361  13.979
57441W        W21165  10.280  28.663  12.524
57442W        W21166  19.110  22.724  13.854
57443W        W21167  14.775  22.746   1.327
57444W        W21168  18.094  31.575   0.394
57445W        W21169  36.069   6.348  13.372
57446W        W21170  25.593  23.620  14.351
57447W        W21171  18.589  43.443  14.991
57448W        W21172  27.010  12.116  13.470
57449W        W21173  22.166  39.895   4.710
57450W        W21174  20.035  37.527   0.922
57451W        W21175   9.720  42.451  14.317
57452W        W21176  30.076  13.661   3.273
57453W        W21177  44.875   8.841  10.598
57454W        W21178  32.445  17.222  11.418
57455W        W21179  42.960  13.632  13.926
57456W        W21180  24.586  26.479  14.934
57457W        W21181   0.413  33.415   0.279
57458W        W21182  31.555  23.115  10.427
57459W        W21183  31.470  10.843   0.455
57460W        W21184  12.330  27.119  11.034
57461W        W21185  23.634  43.342  11.971
57462W        W21186  33.931  26.474  11.014
57463W        W21187  44.264  40.486  11.964
57464W        W21188  37.581  35.495   3.159
57465W        W21189  25.607  16.637   4.120
57466W        W21190  21.545   8.854   3.853
57467W        W21191  19.143   2.349   2.250
57468W        W21192   3.814  39.902  13.512
57469W        W21193  21.731  25.592   4.306
57470W        W21194  16.165  34.955   1.384
57471W        W21195   7.830  10.231  11.427
57472W        W21196  13.822  43.291  10.437
57473W        W21197   4.860   9.196  13.456
57474W        W21198   1.242   2.906  10.470
57475W        W21199   7.830  27.985  14.494
57476W        W21200  20.626  35.884  13.884
57477W        W21201  39.961  25.616   4.649
57478W        W21202  10.315  16.179   0.276
57479W        W21203  39.475  36.984   3.177
57480W        W21204  16.082  16.755  12.510
57481W        W21205  38.394  32.140   3.219
57482W        W21206  36.488   5.275  10.584
57483W        W21207   8.682  41.880   0.383
57484W        W21208   5.410  17.200  10.406
57485W        W21209   4.829   3.453   0.925
57486W        W21210  19.127  18.749   4.783
57487W        W21211  42.295  42.385   1.253
57488W        W21212   1.897  19.136  10.464
57489W        W21213   8.204  36.536   1.805
57490W        W21214  27.966  41.430  10.918
57491W        W21215   2.724  32.958   2.219
57492W        W21216  22.745  33.489  14.845
57493W        W21217  41.459   5.834  11.601
57494W        W21218  17.234  37.385   1.932
57495W        W21219  30.053  20.767  12.466
57496W        W21220  11.814  42.843   4.167
57497W        W21221   6.395  30.092   0.870
57498W        W21222  39.881  15.811   2.677
57499W        W21223  17.096   2.772  12.095
57500W        W21224  39.494  32.397  11.896
57501W        W21225  18.140  12.165  14.291
57502W        W21226  43.367   0.290   4.245
57503W        W21227  38.385  40.314  14.782
57504W        W21228  32.108  44.948   1.358
57505W        W21229   7.758  34.435  12.847
57506W        W21230   4.717  14.620  10.426
57507W        W21231  27.691  28.634  11.406
57508W        W21232   2.416  44.004  11.970
57509W        W21233  28.666  34.538   0.412
57510W        W21234  39.056   3.411   1.308
57511W        W21235  21.170  14.279  12.027
57512W        W21236  33.069  36.445   3.218
57513W        W21237   8.175  28.966  11.388
57514W        W21238  42.847   9.380   4.327
57515W        W21239  12.776  36.962   4.347
57516W        W21240   1.911  29.559  14.307
57517W        W21241  21.658  24.706   4.248
57518W        W21242   4.279   3.781   2.852
57519W        W21243  43.326  42.344   1.258
57520W        W21244  17.226  38.468   0.362
57521W        W21245  31.088  40.370  12.895
57522W        W21246  16.230  24.117  14.886
57523W        W21247  28.613  42.890  10.148
57524W        W21248   6.698  17.633   1.367
57525W        W21249   0.295  23.173   1.403
57526W        W21250  30.099  23.010  11.964
57527W        W21251  31.131   4.854   4.283
57528W        W21252  34.466  13.649  10.907
57529W        W21253  11.229  12.286   0.248
57530W        W21254   6.265  30.432  10.038
57531W        W21255   9.288  14.740   1.916
57532W        W21256  33.582  41.479   1.436
57533W        W21257  22.604   6.838  11.537
57534W        W21258  39.355   4.405  10.994
57535W        W21259  32.481  23.688   3.224
57536W        W21260  33.880   9.669  10.971
57537W        W21261  39.558   9.305  11.876
57538W        W21262  33.451  27.009   1.822
57539W        W21263  41.477  33.956   3.826
57540W        W21264  10.342  15.283  14.883
57541W        W21265  12.250   8.811  11.477
57542W        W21266  33.468  35.421   0.921
57543W        W21267  41.897  14.709   0.335
57544W        W21268  19.239  17.608  10.006
57545W        W21269  26.680   7.747   0.376
57546W        W21270   0.296  27.195  14.329
57547W        W21271  35.040  18.277   4.304
57548W        W21272  11.157  21.097  11.032
57549W        W21273  35.430  19.255  10.455
57550W        W21274  34.960  42.516   2.828
57551W        W21275   2.893  20.053   4.143
57552W        W21276  14.777  38.915   2.216
57553W        W21277  30.464  28.000   5.237
57554W        W21278   4.446  35.515   0.876
57555W        W21279   1.440  36.458  11.987
57556W        W21280  28.097  26.492   1.270
57557W        W21281   4.822   1.856   3.360
57558W        W21282   9.827  30.448  12.934
57559W        W21283  23.057   3.825  10.635
57560W        W21284  32.091  19.177   0.266
57561W        W21285  41.806   3.306   4.786
57562W        W21286  35.105  41.464  14.793
57563W        W21287  35.430  43.979   3.682
57564W        W21288  17.256  30.064   4.741
57565W        W21289  23.201  40.930   0.261
57566W        W21290  19.227   6.286   4.146
57567W        W21291  43.808  34.927   9.485
57568W        W21292  28.576  31.617   1.789
57569W        W21293  11.236  14.165   4.826
57570W        W21294  20.258   1.461   0.331
57571W        W21295   5.854  11.294  11.868
57572W        W21296  19.284  13.839  13.814
57573W        W21297  36.889  17.173   4.618
57574W        W21298  39.916  39.037  11.383
57575W        W21299   3.332  41.334   2.185
57576W        W21300  22.126  15.100   0.765
57577W        W21301  18.209   4.441  13.997
57578W        W21302   0.347  23.019  13.898
57579W        W21303  23.614  18.652   1.878
57580W        W21304  21.211  31.950  14.357
57581W        W21305  41.857  17.071   1.241
57582W        W21306  13.302   2.855   2.698
57583W        W21307  21.540  25.107  14.507
57584W        W21308   1.374  25.135   2.203
57585W        W21309   6.333   7.235  12.364
57586W        W21310   6.851  21.142   0.262
57587W        W21311   1.281  11.640   1.225
57588W        W21312   0.433  24.722  12.362
57589W        W21313  35.997  26.561   3.857
57590W        W21314  16.746   2.398   0.315
57591W        W21315  12.707  21.567  12.924
57592W        W21316   2.276  23.729  11.388
57593W        W21317  11.854   7.304   4.831
57594W        W21318  43.280  36.081   0.377
57595W        W21319  34.037   2.272  14.796
57596W        W21320  16.305   4.359   2.836
57597W        W21321   2.765  43.777  14.295
57598W        W21322  22.227  14.294  10.937
57599W        W21323  23.560  27.577   0.268
57600W        W21324   1.809  15.222   2.200
57601W        W21325  25.523  14.102   0.849
57602W        W21326  42.960  16.682  13.055
57603W        W21327  42.818  15.297   1.224
57604W        W21328  19.104  17.587   0.899
57605W        W21329  22.555   1.949  13.855
57606W        W21330   9.343  21.203   1.423
57607W        W21331  20.248  34.427  13.368
57608W        W21332  43.952  37.343   1.262
57609W        W21333  25.673   2.872  13.443
57610W        W21334   9.790   3.373   1.410
57611W        W21335  17.792   2.806   0.415
57612W        W21336  38.071   9.392   2.217
57613W        W21337  30.960  21.114   3.844
57614W        W21338  36.402  14.833  11.394
57615W        W21339  39.478  29.445  11.881
57616W        W21340   5.891  26.626   3.372
57617W        W21341  13.116  23.627   3.363
57618W        W21342  21.525   0.780   1.806
57619W        W21343  39.394  32.558  10.573
57620W        W21344  30.055  13.231  10.925
57621W        W21345  32.620   2.366   4.317
57622W        W21346  15.617  41.486  13.441
57623W        W21347   0.774   5.771   0.788
57624W        W21348   8.385  15.710   4.166
57625W        W21349  33.038  26.490   4.715
57626W        W21350  26.072   9.314  11.062
57627W        W21351   0.421  21.562  11.046
57628W        W21352   3.423  28.111   0.477
57629W        W21353  31.618  13.800   4.726
57630W        W21354  23.073  24.707  11.095
57631W        W21355  10.850  38.434  14.001
57632W        W21356  32.465  35.011   4.780
57633W        W21357  34.908   4.744   1.375
57634W        W21358   1.960  20.099   3.172
57635W        W21359  44.342  18.118   0.771
57636W        W21360  26.572  12.642   1.449
57637W        W21361  44.337  43.446  11.974
57638W        W21362  25.136  41.447  14.000
57639W        W21363  27.125  41.939  13.818
57640W        W21364  22.081  22.109   2.376
57641W        W21365  38.487  27.109   4.332
57642W        W21366  31.509  33.884  10.431
57643W        W21367  44.899   4.284   3.192
57644W        W21368  28.014  17.573  11.899
57645W        W21369  26.595  41.426   1.826
57646W        W21370  14.749  30.080  10.505
57647W        W21371   3.826  40.440  11.973
57648W        W21372  32.466   3.281   0.888
57649W        W21373  16.628  44.907   1.337
57650W        W21374  38.345  19.143  14.814
57651W        W21375  34.016   3.458  10.607
57652W        W21376  22.518  35.552  10.437
57653W        W21377   7.847  13.842  14.774
57654W        W21378   4.928   2.804   1.918
57655W        W21379  18.621   7.376  11.868
57656W        W21380  28.478  25.975  14.031
57657W        W21381  29.050  23.997  12.429
57658W        W21382   0.392  35.546   4.219
57659W        W21383  11.242  22.125  14.965
57660W        W21384  30.064  43.508   0.939
57661W        W21385  15.751   2.417  11.957
57662W        W21386   9.864  29.069   1.793
57663W        W21387  17.775  18.726  13.841
57664W        W21388  13.805   8.173  14.466
57665W        W21389  29.636  42.287  12.474
57666W        W21390  27.533  10.712   2.873
57667W        W21391  29.056  27.120  13.453
57668W        W21392  19.684  38.484  12.865
57669W        W21393  25.483  38.923   3.174
57670W        W21394  32.955   1.920   1.773
57671W        W21395  37.474  29.569   4.273
57672W        W21396  11.706  21.173   3.306
57673W        W21397  25.972   3.459   4.122
57674W        W21398  11.344  33.916  12.957
57675W        W21399  31.618  15.716  12.901
57676W        W21400  14.338   5.228  12.940
57677W        W21401  21.200  11.692  13.381
57678W        W21402   6.320   9.177   3.841
57679W        W21403  23.646  24.704  11.015
57680W        W21404  12.358  11.774  13.389
57681W        W21405  21.097  22.008  14.976
57682W        W21406  43.473  13.698   1.725
57683W        W21407  29.086  39.908   2.344
57684W        W21408  14.328  25.015  14.491
57685W        W21409  20.610   2.791   1.906
57686W        W21410  31.403  31.987  12.552
57687W        W21411  35.990  21.586  11.462
57688W        W21412  41.511  39.029  14.982
57689W        W21413   9.193   6.195   2.305
57690W        W21414  23.554  26.954   0.297
57691W        W21415  12.324  14.692   1.836
57692W        W21416  21.182  28.103   1.890
57693W        W21417  25.493  21.736  11.540
57694W        W21418  24.708  43.933  10.637
57695W        W21419  29.489  41.434   3.778
57696W        W21420  10.698  12.221  12.893
57697W        W21421  10.758  35.091  14.940
57698W        W21422  39.926  34.514   3.833
57699W        W21423  11.662   5.821  10.988
57700W        W21424   9.294   5.224   2.756
57701W        W21425  34.446  16.085   9.468
57702W        W21426   7.264  34.444   3.374
57703W        W21427  16.153   9.272  13.808
57704W        W21428  25.562   4.837  13.799
57705W        W21429  36.862   7.729   4.825
57706W        W21430  43.272  37.501   4.782
57707W        W21431  19.104  13.132   4.256
57708W        W21432  25.073  15.184   1.226
57709W        W21433  40.363  44.443  11.522
57710W        W21434  25.000   4.744   5.205
57711W        W21435  21.555  19.555   3.840
57712W        W21436  13.122  44.947  11.467
57713W        W21437  22.029  27.076  12.088
57714W        W21438  25.007  41.527  13.453
57715W        W21439  26.645  13.344   2.675
57716W        W21440  23.586  36.421   0.292
57717W        W21441   3.815  39.820  13.988
57718W        W21442  24.695  19.072   1.284
57719W        W21443   6.250  35.601  13.944
57720W        W21444  22.125  42.450  12.432
57721W        W21445  26.642  25.155  10.469
57722W        W21446   9.286  15.217   3.770
57723W        W21447   4.742  19.620   5.089
57724W        W21448  16.153  17.563  12.950
57725W        W21449  16.125  16.270   5.730
57726W        W21450  36.381  42.996   0.755
57727W        W21451  20.218  25.640  10.594
57728W        W21452  13.118   6.812  11.973
57729W        W21453  11.669  34.088   4.352
57730W        W21454  13.123   6.228   2.276
57731W        W21455  39.045  43.379  10.934
57732W        W21456  14.188  27.626   3.796
57733W        W21457  34.409  36.966  13.967
57734W        W21458   8.360   8.232   3.338
57735W        W21459  10.231  29.101  14.879
57736W        W21460   4.857  21.161  11.038
57737W        W21461  13.842  33.922   1.844
57738W        W21462  15.779   2.801   3.368
57739W        W21463  44.898  15.151   1.441
57740W        W21464   0.841   2.892   1.273
57741W        W21465  31.060  17.192   4.154
57742W        W21466  37.412  11.285  12.981
57743W        W21467   8.741  24.650  11.882
57744W        W21468   0.253  34.369   3.258
57745W        W21469   2.308   9.680   1.731
57746W        W21470  32.612   1.915   2.746
57747W        W21471  14.246   0.818  13.484
57748W        W21472  31.090  37.356   2.419
57749W        W21473  30.609   1.274   4.252
57750W        W21474  42.876  16.218   2.377
57751W        W21475  38.388  35.394   1.305
57752W        W21476   8.793  16.181  12.501
57753W        W21477  31.989   1.448   2.876
57754W        W21478  40.932  16.742   4.135
57755W        W21479  35.917   6.189  10.495
57756W        W21480  26.580  33.045  13.022
57757W        W21481  18.108  33.965  13.947
57758W        W21482  24.108   1.240  11.387
57759W        W21483   7.828  15.172  14.809
57760W        W21484  34.900  38.388   2.765
57761W        W21485  27.977  25.510   4.257
57762W        W21486  23.707  18.626   3.274
57763W        W21487  42.282  21.597  12.480
57764W        W21488  25.616  39.042  11.488
57765W        W21489   9.387  29.055   1.335
57766W        W21490  40.416  23.598  13.889
57767W        W21491   7.362   1.750  13.471
57768W        W21492  22.164  13.703   0.249
57769W        W21493  38.971  35.438  11.903
57770W        W21494  43.467   4.330   3.749
57771W        W21495   1.483  27.487  11.408
57772W        W21496  31.474   7.850   0.960
57773W        W21497  31.614   8.179   2.394
57774W        W21498   3.224  36.495  11.081
57775W        W21499  42.282   2.349  12.937
57776W        W21500  25.108  10.273  12.404
57777W        W21501   3.295  43.951  14.377
57778W        W21502   4.881  27.063   2.194
57779W        W21503  31.078  13.844   0.727
57780W        W21504   3.217  28.632  13.456
57781W        W21505  16.744  29.622   2.864
57782W        W21506  35.471  18.715   4.683
57783W        W21507  15.158  33.452  12.076
57784W        W21508  29.092   4.907   2.776
57785W        W21509  43.953  11.755   1.268
57786W        W21510  28.598  31.141   0.350
57787W        W21511   4.941   8.667  11.432
57788W        W21512  29.069  16.789  14.333
57789W        W21513   2.928   4.905   4.802
57790W        W21514  20.594  30.602   0.413
57791W        W21515  31.443  31.917   3.325
57792W        W21516  22.539  19.216   4.828
57793W        W21517   7.290  21.095   0.387
57794W        W21518  40.033  42.450  12.854
57795W        W21519  23.648  19.117  13.474
57796W        W21520   2.799  31.909   3.184
57797W        W21521  32.440  10.674   0.314
57798W        W21522  19.724  40.964  10.518
57799W        W21523  16.313  14.787  12.865
57800W        W21524  17.101  39.434  10.544
57801W        W21525   6.424   5.399  11.578
57802W        W21526  41.505  23.671  12.935
57803W        W21527  31.458   8.224  13.874
57804W        W21528  10.812  42.304   0.443
57805W        W21529  23.068  28.005  10.624
57806W        W21530  44.310  34.393   1.271
57807W        W21531  14.148  26.966   4.785
57808W        W21532   8.324  38.049   1.231
57809W        W21533   9.360  28.498  12.572
57810W        W21534  32.585  19.677  12.483
57811W        W21535  25.570  35.521   0.874
57812W        W21536  33.491  29.655   0.401
57813W        W21537  44.840  44.870  14.824
57814W        W21538   2.812   7.685   3.352
57815W        W21539  43.278  12.651  12.495
57816W        W21540  26.143   5.391  14.876
57817W        W21541  43.341  23.581   5.114
57818W        W21542  20.633  26.968   1.267
57819W        W21543   0.306  23.513   3.678
57820W        W21544  42.858  40.857  11.558
57821W        W21545  18.118  22.661  14.819
57822W        W21546  21.733  18.621  14.994
57823W        W21547  26.461  18.148   2.180
57824W        W21548   6.423  14.831   1.368
57825W        W21549  24.165   4.343   2.740
57826W        W21550  44.489   3.752   1.768
57827W        W21551  35.456  43.989  12.556
57828W        W21552   7.796   8.386   3.255
57829W        W21553   1.254  27.469   4.265
57830W        W21554  36.000  23.084  14.380
57831W        W21555  20.669  18.713   0.455
57832W        W21556  33.123  33.407   2.394
57833W        W21557  34.437  25.508  10.982
57834W        W21558  44.868   2.368  12.869
57835W        W21559  27.682  34.012   3.379
57836W        W21560  31.966   1.413  12.987
57837W        W21561  18.705  34.104   1.775
57838W        W21562  15.705  31.602  14.957
57839W        W21563  27.606   2.936   4.686
57840W        W21564  38.444  31.007   2.307
57841W        W21565   7.889   5.433   2.182
57842W        W21566  41.996  14.237  12.535
57843W        W21567  12.320  24.634  10.407
57844W        W21568  16.713  31.116  14.794
57845W        W21569  43.373  22.184  11.414
57846W        W21570  25.704  18.644  11.486
57847W        W21571  24.583   1.464  12.845
57848W        W21572  37.500  36.004  11.112
57849W        W21573  43.451  28.933   3.219
57850W        W21574  30.508  22.050  12.526
57851W        W21575   4.918  29.168  14.508
57852W        W21576  14.235  12.314  10.957
57853W        W21577  17.752  32.502  11.016
57854W        W21578  26.096  27.530   5.319
57855W        W21579  16.179  26.162   2.724
57856W        W21580  20.664  21.528   1.869
57857W        W21581  43.335  41.014   3.177
57858W        W21582  12.681   1.396   2.279
57859W        W21583  18.152  17.235   3.733
57860W        W21584  36.364  38.520  13.882
57861W        W21585  35.970   9.846  11.930
57862W        W21586   4.215  35.419  11.049
57863W        W21587  11.661  43.016   2.683
57864W        W21588  19.165   1.858   3.321
57865W        W21589  35.452   4.310   2.864
57866W        W21590  18.199  23.146   3.631
57867W        W21591   5.934  40.402   2.405
57868W        W21592  10.879  20.072  11.125
57869W        W21593  15.195   4.728  12.432
57870W        W21594  42.964  32.974  10.096
57871W        W21595  12.345  15.090   2.890
57872W        W21596   8.226   4.222  10.449
57873W        W21597  43.011  22.125  10.471
57874W        W21598  34.434  36.509   1.802
57875W        W21599  27.548  22.573   3.332
57876W        W21600  33.099  18.182   3.288
57877W        W21601  35.438  19.205   3.819
57878W        W21602  38.507  25.523   2.765
57879W        W21603   6.293  28.676  13.432
57880W        W21604  21.571   6.384  10.594
57881W        W21605  39.010   8.693  12.538
57882W        W21606   7.798  30.541   4.742
57883W        W21607  22.716  32.456   0.348
57884W        W21608  22.135   2.403  13.049
57885W        W21609   4.275   9.203   2.415
57886W        W21610  32.133  40.946  14.425
57887W        W21611   5.419  43.462   2.790
57888W        W21612   0.986  14.777  12.864
57889W        W21613  31.030  25.204  12.838
57890W        W21614  24.586  16.233  11.019
57891W        W21615  23.105   6.239  12.375
57892W        W21616  11.166  29.995   1.697
57893W        W21617  18.640  44.755   3.759
57894W        W21618   8.173  38.524  10.513
57895W        W21619  13.762  38.044  13.328
57896W        W21620   7.732  38.861  14.278
57897W        W21621  35.394  31.640  12.373
57898W        W21622   0.373  10.320  11.988
57899W        W21623  28.457  11.187  12.562
57900W        W21624  38.451  40.406  11.086
57901W        W21625  37.570  38.369   4.248
57902W        W21626  41.495  28.673   3.806
57903W        W21627  18.615  25.501  11.555
57904W        W21628  11.705  21.608   4.694
57905W        W21629  38.427  17.564   4.681
57906W        W21630  34.094  24.218   3.149
57907W        W21631  32.548  26.031  10.525
57908W        W21632  16.215  14.178   4.299
57909W        W21633  17.223  27.597   0.305
57910W        W21634  23.541  25.141   4.241
57911W        W21635  15.129  33.905   4.292
57912W        W21636  11.795  15.133   3.213
57913W        W21637  20.754  30.960  11.044
57914W        W21638  31.448  41.987  10.577
57915W        W21639  43.013  41.028   2.682
57916W        W21640  24.147  20.645   3.735
57917W        W21641  34.108  38.383   2.770
57918W        W21642  10.256  14.715  14.453
57919W        W21643   7.831  34.448  13.963
57920W        W21644  38.865  24.168  10.492
57921W        W21645  15.223  21.568  11.077
57922W        W21646   8.184  23.652   4.633
57923W        W21647  12.244  28.496  14.849
57924W        W21648  38.363  23.168   9.498
57925W        W21649  11.824  22.722  12.944
57926W        W21650   4.850  37.928  12.352
57927W        W21651  38.994   0.907   2.799
57928W        W21652   8.690   3.851  10.585
57929W        W21653  43.298  26.505   3.731
57930W        W21654  11.229  33.933   1.802
57931W        W21655  11.342  21.606   4.687
57932W        W21656  21.555  18.686  10.979
57933W        W21657  37.850  43.359   3.784
57934W        W21658  23.508  29.075   1.750
57935W        W21659  38.390  37.457  12.935
57936W        W21660  20.112  43.860  10.572
57937W        W21661  34.879   3.253   2.415
57938W        W21662  25.616   2.829  11.595
57939W        W21663   2.303  28.939  11.545
57940W        W21664  13.183  43.468  11.940
57941W        W21665  43.455  29.562   4.322
57942W        W21666  34.412  38.524   0.256
57943W        W21667   9.329  42.282   1.878
57944W        W21668   3.926  18.170   1.418
57945W        W21669  15.317  21.145   3.188
57946W        W21670  33.611   4.823  11.078
57947W        W21671   3.736  27.493  10.439
57948W        W21672  39.852  43.467  12.960
57949W        W21673  16.147   0.892   1.266
57950W        W21674   0.359  33.466   3.672
57951W        W21675  24.694  10.738   0.417
57952W        W21676  23.570  40.955   1.801
57953W        W21677  29.429  15.628  13.951
57954W        W21678  28.931  24.149   1.390
57955W        W21679   7.786  22.245   3.753
57956W        W21680   2.303  29.447   5.186
57957W        W21681  34.932  40.878  10.937
57958W        W21682  16.166  33.468   1.431
57959W        W21683  24.065   8.390  13.396
57960W        W21684  41.516  36.498   1.308
57961W        W21685  27.183  30.099  13.828
57962W        W21686   0.818  24.988   5.114
57963W        W21687  35.106  33.530  10.930
57964W        W21688  19.767  11.667  14.430
57965W        W21689  41.866   0.462   2.337
57966W        W21690  12.735   7.220   2.324
57967W        W21691  19.273  31.143   1.409
57968W        W21692  18.671  35.498  14.431
57969W        W21693  40.823  35.414  14.278
57970W        W21694  39.330  36.077  12.497
57971W        W21695  27.518  11.665  12.898
57972W        W21696   8.242  41.041   0.388
57973W        W21697  26.531  17.210   3.283
57974W        W21698  39.009  39.498   1.234
57975W        W21699  35.035  21.125  12.388
57976W        W21700  19.109  19.741   2.281
57977W        W21701   6.323  23.639   4.147
57978W        W21702  31.519  32.927   2.715
57979W        W21703  25.641  18.581   4.306
57980W        W21704  37.368  25.682  13.958
57981W        W21705  10.650  36.857   0.768
57982W        W21706  19.711  10.151  14.866
57983W        W21707  29.552  33.024  13.396
57984W        W21708   5.380  41.821   0.287
57985W        W21709  36.411  26.687   0.358
57986W        W21710   9.201  43.798  12.953
57987W        W21711  16.163  29.949  13.913
57988W        W21712   5.704  36.516  12.389
57989W        W21713  10.261  27.032   1.254
57990W        W21714  28.026  34.413  10.433
57991W        W21715  36.923   8.313  14.311
57992W        W21716  44.866  16.724   0.832
57993W        W21717  21.540  37.958   2.742
57994W        W21718  35.067  25.099   2.241
57995W        W21719  16.717   4.330  10.601
57996W        W21720  35.103  43.015   1.289
57997W        W21721  28.942  27.641  11.107
57998W        W21722  20.256  38.873   9.635
57999W        W21723  22.651  44.932   3.714
58000W        W21724  34.977  38.000  12.416
58001W        W21725  37.564   2.447  11.971
58002W        W21726  40.373  34.391  13.354
58003W        W21727   0.374   4.740  10.138
58004W        W21728  16.780  27.464  14.828
58005W        W21729  33.890  20.722   2.765
58006W        W21730  38.442   7.263  11.002
58007W        W21731   4.330  30.105   0.952
58008W        W21732  12.338  13.633  10.947
58009W        W21733  43.365  28.930  12.951
58010W        W21734  31.637  11.671  14.952
58011W        W21735  38.411  36.078   0.923
58012W        W21736  27.472  36.586   4.126
58013W        W21737   9.257  31.105  13.859
58014W        W21738  43.951   9.648  12.066
58015W        W21739  10.766   7.880   3.639
58016W        W21740  17.644   7.344  14.842
58017W        W21741  35.564   6.226   2.366
58018W        W21742   1.361   5.826   2.224
58019W        W21743  23.081  38.396   2.205
58020W        W21744   0.946   8.736   2.729
58021W        W21745  12.149  28.097   1.332
58022W        W21746   9.781  15.218  12.890
58023W        W21747  34.383  18.160  12.077
58024W        W21748  23.572  44.377   2.672
58025W        W21749  44.846   1.304  14.886
58026W        W21750  10.854  27.946   2.775
58027W        W21751  42.428  31.130  12.577
58028W        W21752   8.295   6.911   0.948
58029W        W21753  34.527  20.567  11.440
58030W        W21754  40.935   0.302   2.823
58031W        W21755  14.622  20.593  13.410
58032W        W21756  39.332  15.787  11.065
58033W        W21757  18.116  27.644   0.295
58034W        W21758  36.050  34.612   2.841
58035W        W21759   4.396  31.635  14.479
58036W        W21760  25.106  43.498  12.455
58037W        W21761  12.698  11.145  11.072
58038W        W21762   3.317   7.720  14.300
58039W        W21763   8.294  18.283   3.276
58040W        W21764  40.518  30.088  12.946
58041W        W21765  42.828   3.332  13.338
58042W        W21766  25.505  44.300   3.858
58043W        W21767   2.781   0.767  13.009
58044W        W21768  33.592  17.656  13.479
58045W        W21769  40.396  44.288  10.008
58046W        W21770  22.161  36.901  13.450
58047W        W21771  30.139  10.798   4.146
58048W        W21772   4.932  39.317   2.409
58049W        W21773  34.895  17.623  13.476
58050W        W21774  32.406   0.780   2.418
58051W        W21775  42.029  28.672  10.538
58052W        W21776  21.124  29.611  14.975
58053W        W21777  42.905  29.533   4.253
58054W        W21778  33.480   7.848   5.173
58055W        W21779  23.037   5.397  14.458
58056W        W21780   1.413  22.126   1.935
58057W        W21781   8.854  32.629   4.714
58058W        W21782  33.443  23.541  12.825
58059W        W21783  30.115  37.962   3.337
58060W        W21784  40.457  25.062   3.748
58061W        W21785  39.378  28.021  12.441
58062W        W21786   1.849   1.290  10.568
58063W        W21787  36.437   7.675  11.589
58064W        W21788  22.226  18.195  11.498
58065W        W21789  40.310  17.094  14.907
58066W        W21790  30.033  27.533   3.350
58067W        W21791   3.822  12.672   2.753
58068W        W21792   8.182   0.460  13.434
58069W        W21793  22.065   4.294  12.943
58070W        W21794  28.998  37.444  14.977
58071W        W21795  12.631  34.573   0.825
58072W        W21796  28.642  29.992   3.765
58073W        W21797  29.031  38.013  13.376
58074W        W21798  17.565  37.492  12.906
58075W        W21799  21.683  19.690  12.955
58076W        W21800   8.285  24.169  14.860
58077W        W21801   0.319  12.126   4.624
58078W        W21802  24.123  17.616   3.285
58079W        W21803  18.563  41.033  10.490
58080W        W21804   8.282  10.660   2.669
58081W        W21805  40.539  35.524  13.415
58082W        W21806   5.275  15.586   2.704
58083W        W21807  33.382  38.388  10.987
58084W        W21808   0.905  14.733  12.521
58085W        W21809   3.775   9.308  11.378
58086W        W21810  40.463  22.132  11.864
58087W        W21811  26.972   1.346  10.578
58088W        W21812   2.277  26.034   3.751
58089W        W21813  38.406  12.765  10.534
58090W        W21814  19.706   9.266   2.736
58091W        W21815  10.203  36.415  12.481
58092W        W21816  28.571  40.952   2.714
58093W        W21817  27.143  17.687  14.831
58094W        W21818   4.848   3.331  10.478
58095W        W21819  22.053  31.492   0.398
58096W        W21820  14.254  11.245   0.374
58097W        W21821  34.872  12.250   1.447
58098W        W21822   3.248  24.979   2.865
58099W        W21823  28.587  44.853  10.614
58100W        W21824  43.965   1.845   3.799
58101W        W21825  27.059   6.784  14.872
58102W        W21826  29.997   7.712  11.050
58103W        W21827  42.479  11.152  13.332
58104W        W21828   8.350  40.996  12.087
58105W        W21829  22.132   6.313  12.935
58106W        W21830  24.698  20.032  14.785
58107W        W21831  36.945  18.714   0.866
58108W        W21832  42.895   3.217  11.400
58109W        W21833  42.405  30.597   4.783
58110W        W21834   5.855  42.006   4.660
58111W        W21835   0.865  42.452   4.690
58112W        W21836  37.359  35.861  14.358
58113W        W21837   8.674   2.905  11.416
58114W        W21838   0.391   0.444   3.695
58115W        W21839  34.606  22.172  10.445
58116W        W21840   0.951  39.446  10.614
58117W        W21841  29.502  35.025  14.281
58118W        W21842  39.902  17.238   2.196
58119W        W21843  33.096  16.183  14.339
58120W        W21844  36.977  36.033   1.881
58121W        W21845  37.341  43.512   4.737
58122W        W21846  39.984  26.042   3.815
58123W        W21847  22.078   4.364   0.779
58124W        W21848  12.850  28.650  12.505
58125W        W21849  41.312  20.162  11.982
58126W        W21850   0.787  31.432   0.357
58127W        W21851   7.814  16.778   1.821
58128W        W21852  29.922  15.752   2.661
58129W        W21853   2.843  39.419   1.372
58130W        W21854  25.635  31.144   2.208
58131W        W21855  35.859  13.631   1.773
58132W        W21856  38.503  38.854  13.471
58133W        W21857  18.714  23.622  13.537
58134W        W21858  22.596   3.302  10.494
58135W        W21859   5.304  10.149   4.687
58136W        W21860  17.240   6.836  12.400
58137W        W21861  43.842  26.148  10.415
58138W        W21862  41.893  35.050  13.432
58139W        W21863  25.209  42.800   3.368
58140W        W21864   1.253   4.212   3.847
58141W        W21865  39.470  13.136   4.275
58142W        W21866  41.030  30.450   1.774
58143W        W21867  34.952  37.563  14.443
58144W        W21868  10.837  37.935  12.910
58145W        W21869   9.647  20.616  12.410
58146W        W21870   0.491  13.785   2.383
58147W        W21871  23.661  13.142  10.568
58148W        W21872  28.143  43.416   4.276
58149W        W21873  16.791  21.187   3.818
58150W        W21874   6.803   7.888  11.410
58151W        W21875  34.981  22.734   1.408
58152W        W21876  22.664  19.103  12.981
58153W        W21877   3.384   6.187  11.390
58154W        W21878   9.666  23.535   0.926
58155W        W21879  16.087  13.202   3.795
58156W        W21880  11.715   1.833  12.975
58157W        W21881  13.675  11.329  12.459
58158W        W21882  22.608  32.013   2.417
58159W        W21883  34.060  21.711   3.857
58160W        W21884  16.610  18.166  12.436
58161W        W21885   3.413   7.388   3.753
58162W        W21886  43.283  10.855   1.780
58163W        W21887  23.702  14.823   1.861
58164W        W21888  43.425  39.907   4.758
58165W        W21889  44.409  17.247   4.116
58166W        W21890   4.354  13.221   3.341
58167W        W21891  41.815   9.255  12.559
58168W        W21892   2.299  42.873  14.361
58169W        W21893  35.992  21.039  11.603
58170W        W21894  36.402  29.923  14.767
58171W        W21895  23.151   3.816   2.188
58172W        W21896  34.576   6.401   3.196
58173W        W21897   0.783  30.637  12.456
58174W        W21898  44.763  15.660  14.789
58175W        W21899  32.926  22.606  13.363
58176W        W21900  39.396  19.183   2.698
58177W        W21901  18.672  21.138  14.322
58178W        W21902  21.074  36.936  12.851
58179W        W21903  27.013  29.115   0.810
58180W        W21904   3.421  24.118   4.772
58181W        W21905  37.966  35.493  11.483
58182W        W21906  30.439  14.659  13.028
58183W        W21907  37.887  30.038  12.086
58184W        W21908  18.127  17.296  10.919
58185W        W21909   4.410  27.972  13.928
58186W        W21910  10.161  23.706  13.828
58187W        W21911  38.018  26.154  13.988
58188W        W21912  22.723  11.776   2.869
58189W        W21913  11.267  15.223   0.769
58190W        W21914  44.476  21.177  11.942
58191W        W21915  35.059   3.923  13.489
58192W        W21916  15.639   7.304   1.226
58193W        W21917   9.279   5.237  13.364
58194W        W21918  36.402  24.656  11.857
58195W        W21919   7.687  39.900   0.281
58196W        W21920   7.379  42.879   3.774
58197W        W21921  10.194   8.286  12.997
58198W        W21922  36.568  17.279   5.082
58199W        W21923  26.013  32.115   3.699
58200W        W21924  42.873  33.881   2.385
58201W        W21925  36.525  41.353  14.016
58202W        W21926  21.530  30.575  13.893
58203W        W21927  44.964  30.535   0.820
58204W        W21928   8.896  42.874   0.348
58205W        W21929  42.313  28.574  14.471
58206W        W21930  37.012  26.101  14.966
58207W        W21931  13.746  17.093   4.343
58208W        W21932  20.648  16.257   3.766
58209W        W21933  34.374  34.109  10.467
58210W        W21934  35.046  21.206  13.932
58211W        W21935  16.648   6.278   2.338
58212W        W21936  27.027  38.392   1.340
58213W        W21937  26.012   5.791   1.784
58214W        W21938  15.299   6.323   5.191
58215W        W21939   9.313  43.865  11.579
58216W        W21940  21.157  28.626  12.861
58217W        W21941  34.393   6.827   1.450
58218W        W21942  12.289   4.873   1.242
58219W        W21943  11.263  17.715  13.030
58220W        W21944  36.359   5.923  11.550
58221W        W21945   8.375  15.307  14.787
58222W        W21946  33.898   4.371   1.425
58223W        W21947  23.666   9.670   4.655
58224W        W21948   1.394  42.441  11.540
58225W        W21949  43.390  11.673  14.017
58226W        W21950  21.740  38.892  13.912
58227W        W21951  13.299  43.501   1.300
58228W        W21952  20.703  34.501   1.905
58229W        W21953  20.049  28.039   3.226
58230W        W21954  17.179  20.161  11.067
58231W        W21955  26.667  20.564  10.637
58232W        W21956  21.224   1.813   9.987
58233W        W21957   9.169  17.191   3.217
58234W        W21958  32.077  19.713  11.965
58235W        W21959  43.300  36.050  13.480
58236W        W21960   7.270  18.216   4.274
58237W        W21961  11.622  10.646   0.269
58238W        W21962  40.812  38.955   4.800
58239W        W21963  27.050  29.631  13.802
58240W        W21964  31.535   5.438   3.822
58241W        W21965  23.167  36.381  13.059
58242W        W21966  22.667  27.979  13.801
58243W        W21967   7.343  29.647  11.571
58244W        W21968  13.629  28.024  11.081
58245W        W21969   9.823  12.646  14.001
58246W        W21970   2.356  28.121  11.531
58247W        W21971   9.815  42.001   3.254
58248W        W21972   2.809  13.806   0.881
58249W        W21973  40.977  31.909  13.850
58250W        W21974  20.564  32.529   1.715
58251W        W21975   0.405  18.063   1.246
58252W        W21976  17.713   9.216   4.279
58253W        W21977   8.814  12.254  11.611
58254W        W21978  40.442  39.507   1.877
58255W        W21979  25.596  42.784  12.936
58256W        W21980   8.749   3.410  11.481
58257W        W21981  25.216  39.923  11.925
58258W        W21982  26.202  11.167  14.469
58259W        W21983  21.598   3.306   1.341
58260W        W21984  40.521  22.200   2.398
58261W        W21985  28.937  27.508   0.759
58262W        W21986   5.697  16.309   2.340
58263W        W21987  14.597  24.175  14.770
58264W        W21988  14.138  38.570  12.853
58265W        W21989  35.585  21.234   2.393
58266W        W21990  22.145  41.353  10.415
58267W        W21991  24.560  15.142   0.878
58268W        W21992  28.669  23.093  12.021
58269W        W21993  33.496   3.860  11.875
58270W        W21994   0.250  26.570  10.492
58271W        W21995  19.764   0.960   1.342
58272W        W21996   9.179   5.433   3.631
58273W        W21997  18.634  30.620   1.773
58274W        W21998  29.959  44.333   3.800
58275W        W21999   4.445   3.401   0.898
58276W        W22000   6.830  37.867  11.573
58277W        W22001  38.014  12.664   2.299
58278W        W22002   0.880  23.072  14.358
58279W        W22003  15.580   7.714   4.125
58280W        W22004  29.047   8.252   0.864
58281W        W22005  10.651   8.668   3.709
58282W        W22006  31.983  18.092  13.546
58283W        W22007   6.355  22.539  13.411
58284W        W22008  17.700  35.595   0.250
58285W        W22009   2.345   1.404  12.014
58286W        W22010  41.428  24.722   1.783
58287W        W22011  10.344  44.413   3.754
58288W        W22012  15.120  10.833   1.701
58289W        W22013  44.867  44.956   1.359
58290W        W22014  27.661  10.868  11.603
58291W        W22015  16.787  29.633   4.780
58292W        W22016  14.306  39.872   2.744
58293W        W22017   8.378  16.810   1.427
58294W        W22018  40.828  43.959   3.817
58295W        W22019   3.926  42.405   0.414
58296W        W22020  20.178  25.708   4.651
58297W        W22021  41.350  25.081   5.569
58298W        W22022  24.624  30.124  13.935
58299W        W22023  40.546  30.512   2.667
58300W        W22024  39.906  43.277   3.311
58301W        W22025  23.567  35.874  13.530
58302W        W22026  31.593   8.240   0.431
58303W        W22027  31.406   1.278   0.351
58304W        W22028   5.253  12.320  14.999
58305W        W22029  43.341  41.296  12.524
58306W        W22030  26.694  32.057   1.376
58307W        W22031  12.292  15.608   0.879
58308W        W22032  14.106  15.744  12.422
58309W        W22033   3.342   3.923   4.123
58310W        W22034   4.822  24.002   2.396
58311W        W22035  20.155   4.895   3.178
58312W        W22036  36.093  34.489  12.515
58313W        W22037  14.670  32.625   2.868
58314W        W22038   5.840  30.466  10.500
58315W        W22039  14.729  18.734   4.115
58316W        W22040  41.446   4.936  10.514
58317W        W22041  10.863  37.396  11.611
58318W        W22042  30.038   6.904   0.922
58319W        W22043  18.545  27.645  14.018
58320W        W22044  32.110  33.431   2.380
58321W        W22045  36.081  10.367  11.440
58322W        W22046  21.218  16.611   4.713
58323W        W22047  34.574  34.038  11.016
58324W        W22048   6.303   1.808  10.987
58325W        W22049  24.226  34.113  10.953
58326W        W22050   6.902   1.466  12.546
58327W        W22051   9.278  25.191  14.847
58328W        W22052  44.810  40.925   4.207
58329W        W22053   3.869  44.927   0.917
58330W        W22054  10.197   9.367   4.307
58331W        W22055  28.653  39.030  14.511
58332W        W22056  40.949  16.236  11.076
58333W        W22057  12.156  44.346   0.826
58334W        W22058  24.670  29.481   2.747
58335W        W22059  32.130   9.373   1.857
58336W        W22060  24.093   7.811   4.272
58337W        W22061  36.054   8.777  14.477
58338W        W22062   9.777   7.717  12.993
58339W        W22063   3.876  33.614   1.774
58340W        W22064  21.666  19.601   3.231
58341W        W22065  39.056  12.792   3.637
58342W        W22066  25.507  39.821  12.456
58343W        W22067  28.070   5.817  12.833
58344W        W22068  28.562  25.628   3.266
58345W        W22069  17.175  17.730  11.090
58346W        W22070  10.238  16.635  13.503
58347W        W22071  10.737   7.362   2.735
58348W        W22072  37.975   2.262   0.726
58349W        W22073  23.019   3.298  11.035
58350W        W22074  34.992  10.334   9.928
58351W        W22075  28.165  18.756  11.942
58352W        W22076  30.044  23.017   4.628
58353W        W22077  43.444  23.679   2.292
58354W        W22078  43.996  39.869   2.832
58355W        W22079  34.465  42.366  12.980
58356W        W22080   8.262   2.787  12.343
58357W        W22081  16.631  38.435  12.883
58358W        W22082  40.826  14.771  12.375
58359W        W22083  14.116  36.936   0.296
58360W        W22084  20.695  25.525  14.978
58361W        W22085  39.448   2.415  12.538
58362W        W22086  18.778  10.306   0.245
58363W        W22087  36.509  12.796  13.892
58364W        W22088  25.593  30.944   0.892
58365W        W22089   2.269  17.701   0.926
58366W        W22090  37.970  30.989   4.687
58367W        W22091   4.734  23.637  12.860
58368W        W22092  35.943  37.973  10.523
58369W        W22093   4.868   1.340  14.899
58370W        W22094  22.009  29.980  14.509
58371W        W22095  39.327  25.127   3.723
58372W        W22096  24.528  36.588  14.421
58373W        W22097  26.584  20.622  14.990
58374W        W22098   5.291  14.166  14.765
58375W        W22099   1.286  11.328  14.471
58376W        W22100   5.810  38.406  13.489
58377W        W22101  42.479   4.421  14.773
58378W        W22102  20.131  38.881   0.836
58379W        W22103   8.251  16.683   2.183
58380W        W22104  11.242  29.077  10.583
58381W        W22105  16.233   4.314   3.842
58382W        W22106  18.744  35.370  10.484
58383W        W22107  16.779  39.558   2.682
58384W        W22108  17.074  30.048  14.439
58385W        W22109  26.616  32.914  12.360
58386W        W22110  31.638   1.400   2.785
58387W        W22111  37.402  31.109   5.188
58388W        W22112   1.922  41.990   1.866
58389W        W22113  19.218  18.781  10.899
58390W        W22114  21.020  40.911  11.880
58391W        W22115  44.359   9.287   1.765
58392W        W22116  33.877   3.279  14.411
58393W        W22117  21.060  42.785   1.258
58394W        W22118  29.969  44.436  14.311
58395W        W22119  14.663  13.742   1.716
58396W        W22120  33.451  29.512  12.537
58397W        W22121  21.524  30.646  13.457
58398W        W22122  35.907   5.342   1.927
58399W        W22123  33.936   4.236   1.930
58400W        W22124  32.529  14.131  11.571
58401W        W22125  40.492   9.170   2.861
58402W        W22126  36.065   8.397  11.578
58403W        W22127  18.250  18.198   3.278
58404W        W22128   1.463  18.069   1.742
58405W        W22129  39.329  41.498  12.069
58406W        W22130  29.138  43.987   2.819
58407W        W22131  23.215   1.937   4.640
58408W        W22132  27.085  43.834   2.278
58409W        W22133  16.222   4.327  11.870
58410W        W22134  40.851   1.436   4.700
58411W        W22135  26.594  27.667   4.327
58412W        W22136   3.456  44.943  12.366
58413W        W22137  41.487  36.022   1.218
58414W        W22138  25.604  13.252  14.016
58415W        W22139  41.799  13.742   4.602
58416W        W22140  35.097  30.606   4.691
58417W        W22141   6.851  36.352   3.300
58418W        W22142  21.037   3.302   1.394
58419W        W22143   5.399   0.796  12.393
58420W        W22144   2.403  28.460   3.242
58421W        W22145  35.855   1.926  14.365
58422W        W22146   6.326  32.034   3.366
58423W        W22147   2.382   5.874   2.376
58424W        W22148  11.637  29.610  11.533
58425W        W22149  30.912  42.412  14.275
58426W        W22150  19.707   3.330  11.858
58427W        W22151  10.845   1.871   1.828
58428W        W22152  37.981  31.615  10.899
58429W        W22153  28.546  44.338  14.414
58430W        W22154  10.217  36.404  12.999
58431W        W22155  41.377  29.131  12.847
58432W        W22156  43.012  23.232  14.319
58433W        W22157  14.191  33.953  11.907
58434W        W22158  27.971  11.332  12.093
58435W        W22159  22.048  30.047   2.843
58436W        W22160   0.328  16.172  12.012
58437W        W22161  25.081  31.104   1.728
58438W        W22162   1.923  25.140   3.216
58439W        W22163  12.149   4.352  10.098
58440W        W22164   0.875  44.006   1.359
58441W        W22165  12.176  43.295   0.877
58442W        W22166  26.131  44.419  13.793
58443W        W22167  16.246   2.436   4.805
58444W        W22168   1.273  35.579  14.507
58445W        W22169  32.986   8.901   4.183
58446W        W22170   4.380  30.108  12.445
58447W        W22171  28.449  33.089   2.872
58448W        W22172  17.146  10.797  12.387
58449W        W22173  30.162   0.317   3.832
58450W        W22174  15.659  20.092  14.464
58451W        W22175  38.337  16.604  11.519
58452W        W22176  39.971  13.142  11.393
58453W        W22177  23.610  29.555   2.208
58454W        W22178   9.691  35.594   4.812
58455W        W22179   2.820  44.789   3.656
58456W        W22180  23.554   5.742  14.973
58457W        W22181  38.463  32.991  11.379
58458W        W22182   5.251  17.281  11.496
58459W        W22183  35.437   6.907  11.546
58460W        W22184   5.224  36.571  12.900
58461W        W22185  14.770  33.879   4.242
58462W        W22186  10.276  26.548   3.380
58463W        W22187  43.459  37.381   0.267
58464W        W22188  29.941  25.005  10.622
58465W        W22189   1.341  34.110   3.166
58466W        W22190  17.774  32.925  14.864
58467W        W22191  31.000   1.819  13.523
58468W        W22192   5.786  25.534   3.797
58469W        W22193   0.288  17.296  14.392
58470W        W22194   4.790  12.289   1.835
58471W        W22195  34.487  40.355   0.766
58472W        W22196  40.309  21.062  13.545
58473W        W22197  39.435   9.851  13.028
58474W        W22198  24.488  17.603  10.495
58475W        W22199  36.379  40.502   5.119
58476W        W22200  14.683  29.598   2.388
58477W        W22201  36.574   3.346   2.217
58478W        W22202  26.610   2.300   4.784
58479W        W22203  39.410  10.859  13.406
58480W        W22204  18.740  39.350  14.492
58481W        W22205  24.539  18.623   3.640
58482W        W22206  13.706  16.610  13.969
58483W        W22207  12.161  23.211  12.452
58484W        W22208  32.423  27.554  13.989
58485W        W22209   0.462  39.483   0.912
58486W        W22210  43.384   0.911  12.043
58487W        W22211  15.105  22.653  14.797
58488W        W22212  18.275  33.037   4.320
58489W        W22213  25.530  18.575  14.344
58490W        W22214  11.170  11.324   3.387
58491W        W22215   3.427  25.502  14.409
58492W        W22216  40.042  13.628  13.482
58493W        W22217  24.560  19.725   2.266
58494W        W22218   3.837  13.788  11.000
58495W        W22219  32.958  13.774   0.741
58496W        W22220  29.449  31.440   1.302
58497W        W22221  11.647  18.569  14.827
58498W        W22222  26.564   5.368  10.921
58499W        W22223   2.368  12.142  14.986
58500W        W22224   6.735  36.901   1.918
58501W        W22225  41.815   9.877  12.446
58502W        W22226   5.194  44.266  12.871
58503W        W22227  34.903   3.941  11.971
58504W        W22228  14.745  13.702   4.123
58505W        W22229   4.904   2.726  14.881
58506W        W22230   1.396   3.233  14.379
58507W        W22231  36.403  28.646   2.246
58508W        W22232  44.291   6.391  14.356
58509W        W22233  17.289   3.366  14.983
58510W        W22234  22.556  37.452   0.455
58511W        W22235  33.534  13.210  10.639
58512W        W22236  19.185  33.904  14.829
58513W        W22237  20.709  22.098  14.325
58514W        W22238  32.105   7.892   2.736
58515W        W22239  43.012  16.315  11.066
58516W        W22240  28.637  25.029   0.868
58517W        W22241  26.572  41.369  10.503
58518W        W22242   0.457  15.160   1.408
58519W        W22243  16.777  12.340  13.426
58520W        W22244  31.450  40.510  11.060
58521W        W22245  30.490  29.518  14.344
58522W        W22246   7.228  12.150   9.455
58523W        W22247  23.672  29.465  13.346
58524W        W22248  31.451  37.996  11.540
58525W        W22249  44.276  26.047  12.975
58526W        W22250  21.538  27.609   2.178
58527W        W22251  27.507  34.082  14.504
58528W        W22252  19.285   9.739  14.014
58529W        W22253  21.642  15.107  14.346
58530W        W22254  30.911  17.643   4.228
58531W        W22255  10.341  31.581  14.507
58532W        W22256  37.883   8.826  13.933
58533W        W22257  14.095  44.890  10.920
58534W        W22258  18.598  11.662   4.221
58535W        W22259   5.204  41.482  12.849
58536W        W22260  30.944  41.415  13.920
58537W        W22261   0.899  31.504   4.205
58538W        W22262  12.117  23.115   0.279
58539W        W22263  26.618  40.502  14.326
58540W        W22264   4.765  40.940  11.899
58541W        W22265  15.732   1.791  11.424
58542W        W22266  10.694  40.821  13.398
58543W        W22267  10.814  21.189  11.486
58544W        W22268  15.756  24.026   2.749
58545W        W22269  33.972   2.388  13.341
58546W        W22270   3.437   4.827  12.995
58547W        W22271   6.677  21.180  14.846
58548W        W22272  13.113  27.470   1.743
58549W        W22273   4.884  42.949   0.848
58550W        W22274  43.927  44.440  11.891
58551W        W22275  11.684   4.918   3.278
58552W        W22276  25.685  21.047  14.327
58553W        W22277   2.361  16.588  14.505
58554W        W22278  23.103  29.014   1.802
58555W        W22279   5.890   2.963   1.305
58556W        W22280  37.051   1.777  13.375
58557W        W22281  17.673  17.571   2.371
58558W        W22282  11.321   5.387   3.191
58559W        W22283  32.612  23.112  14.400
58560W        W22284  32.596  35.014   1.262
58561W        W22285  35.069  25.169  10.523
58562W        W22286  14.227   3.839  13.504
58563W        W22287  36.980   7.302   4.167
58564W        W22288   0.967  25.523   4.346
58565W        W22289  23.500   0.802   2.282
58566W        W22290  25.703  12.833   0.754
58567W        W22291  11.630   6.226   2.211
58568W        W22292  20.245  36.913   2.898
58569W        W22293  27.621   2.748  10.456
58570W        W22294  40.797  23.681   3.212
58571W        W22295  30.971  29.102  11.568
58572W        W22296  34.609   8.766   1.257
58573W        W22297  43.330  24.071  14.869
58574W        W22298  16.638  37.994   1.782
58575W        W22299  26.594   9.668  12.077
58576W        W22300  27.448  13.185  13.804
58577W        W22301   2.911   8.697   2.415
58578W        W22302  43.500  18.149  10.055
58579W        W22303  10.650  13.814  14.766
58580W        W22304   5.331   6.271   2.855
58581W        W22305   5.269  33.922   1.917
58582W        W22306  14.664  26.123  13.010
58583W        W22307   8.804  24.588   4.676
58584W        W22308   1.904  29.481  11.926
58585W        W22309  11.306  11.720  12.837
58586W        W22310  15.598   7.682  14.328
58587W        W22311  24.548  42.814   5.231
58588W        W22312  24.652  14.185   4.724
58589W        W22313  17.293  41.415  13.007
58590W        W22314  15.131  14.326   4.649
58591W        W22315   5.718  17.621   0.845
58592W        W22316  17.223  34.914   3.384
58593W        W22317  44.865  35.858  13.940
58594W        W22318  17.765   9.302   2.695
58595W        W22319   5.292  34.893   2.702
58596W        W22320  22.509  14.628   2.363
58597W        W22321  32.528  42.792   4.721
58598W        W22322  25.972  16.689  12.834
58599W        W22323  19.717   1.750  12.396
58600W        W22324  35.540  35.872   1.701
58601W        W22325   1.364  12.655  11.524
58602W        W22326  12.651   3.452  14.454
58603W        W22327  29.514  35.936  10.644
58604W        W22328   8.728  25.561   0.941
58605W        W22329  40.392  17.594  14.900
58606W        W22330  33.956  26.101  13.400
58607W        W22331  10.641   9.366  12.096
58608W        W22332  29.528  20.110   0.391
58609W        W22333  26.009  12.211   4.768
58610W        W22334  12.248  19.264   1.409
58611W        W22335  14.124  25.690   1.918
58612W        W22336  15.266  13.350   1.244
58613W        W22337  43.823  23.531   4.247
58614W        W22338  20.274  37.907  12.861
58615W        W22339   2.239   0.457  12.407
58616W        W22340  32.006  13.348  11.987
58617W        W22341   6.229  24.689   0.333
58618W        W22342  44.333   4.944   2.686
58619W        W22343  22.038  39.353  10.609
58620W        W22344  27.110   4.781   2.203
58621W        W22345  23.526   7.352   0.751
58622W        W22346  13.727  35.944   4.605
58623W        W22347  44.324  42.384   1.864
58624W        W22348  21.555  16.651  10.405
58625W        W22349   1.445  42.345   3.670
58626W        W22350  21.104  15.723  14.414
58627W        W22351   8.203  15.128  13.039
58628W        W22352  42.923   5.245  14.014
58629W        W22353  11.729   5.344  14.412
58630W        W22354  27.969   3.931   0.761
58631W        W22355  34.002  14.752  13.049
58632W        W22356  43.370  11.661  12.380
58633W        W22357  35.989  29.063  14.805
58634W        W22358   9.644  42.893  10.979
58635W        W22359  43.918  12.732  14.396
58636W        W22360  10.694  17.723   4.227
58637W        W22361  19.735  38.929   1.328
58638W        W22362  34.959  19.263   2.678
58639W        W22363   8.794   3.413   3.222
58640W        W22364  14.798  10.785   2.321
58641W        W22365   4.742  41.002   0.741
58642W        W22366  29.999   9.828  14.002
58643W        W22367  12.174  10.767   4.719
58644W        W22368  37.528  21.578   2.708
58645W        W22369   7.362  11.804   3.821
58646W        W22370  19.605  24.114  13.312
58647W        W22371  21.615  21.570   3.328
58648W        W22372  10.734   1.795   4.253
58649W        W22373   7.314   2.911  14.508
58650W        W22374  31.019  30.584  14.317
58651W        W22375   3.358  10.344  14.963
58652W        W22376  28.078  38.903   2.688
58653W        W22377  43.313   7.390   3.263
58654W        W22378  27.470  42.363  13.468
58655W        W22379   0.882  39.478  13.047
58656W        W22380  36.086  23.596   4.772
58657W        W22381   7.750  30.616   2.260
58658W        W22382  40.865  11.301   4.195
58659W        W22383  33.609  10.331   2.808
58660W        W22384  29.572   6.888   0.410
58661W        W22385  36.492  44.406  10.487
58662W        W22386  39.483  21.513   0.940
58663W        W22387   3.294  43.789   3.343
58664W        W22388  28.930  27.684  11.613
58665W        W22389  13.762  37.338   2.696
58666W        W22390  41.015  44.458  12.577
58667W        W22391   8.807  19.631   4.123
58668W        W22392  27.673   4.732  14.015
58669W        W22393  16.737  10.294   4.597
58670W        W22394  18.175   9.884   2.417
58671W        W22395  14.249  44.922   2.218
58672W        W22396   1.805  29.149   1.773
58673W        W22397   6.784  25.504   3.233
58674W        W22398   8.296  23.092  10.449
58675W        W22399   8.401  26.041  14.502
58676W        W22400  19.644  37.061  11.121
58677W        W22401  23.004  30.923   2.193
58678W        W22402  44.321  31.997  11.027
58679W        W22403  35.410  42.902   1.816
58680W        W22404  37.429  40.818  13.055
58681W        W22405   5.913  34.060  11.539
58682W        W22406  27.158   2.806   0.431
58683W        W22407  44.495  40.040   3.683
58684W        W22408  12.320   9.165   0.442
58685W        W22409   0.853  34.588  13.842
58686W        W22410   9.841  40.981  12.056
58687W        W22411  34.016  25.655  11.076
58688W        W22412  21.544   8.757  11.561
58689W        W22413  36.944  34.089   3.790
58690W        W22414  34.111  15.183   0.374
58691W        W22415  41.391   5.762  10.520
58692W        W22416   0.275  26.678  11.089
58693W        W22417  34.966  39.379  11.922
58694W        W22418  33.386  12.708   4.656
58695W        W22419  40.335  25.586   0.276
58696W        W22420  28.437  37.083   3.331
58697W        W22421  33.419  10.741  11.474
58698W        W22422   0.916  35.056  11.478
58699W        W22423  11.657  19.540  12.910
58700W        W22424  18.125  40.871  11.109
58701W        W22425  37.393  16.282  10.475
58702W        W22426  26.177  32.418   3.340
58703W        W22427   9.786   4.766  13.463
58704W        W22428  38.916  44.430   3.716
58705W        W22429  21.088   8.768  10.413
58706W        W22430  42.002  23.219   1.221
58707W        W22431   1.901  26.605   2.707
58708W        W22432  42.466  11.271  10.945
58709W        W22433  10.676  19.216   0.326
58710W        W22434  24.151  42.937   1.358
58711W        W22435  16.271   1.943  12.973
58712W        W22436  26.048  34.527  12.037
58713W        W22437  29.650  20.732  10.641
58714W        W22438  32.416   4.213   0.424
58715W        W22439  11.269  19.749   3.717
58716W        W22440   6.420  35.895   2.862
58717W        W22441  24.703   8.829  13.836
58718W        W22442  17.645  25.017   4.256
58719W        W22443  26.046  11.636   1.416
58720W        W22444   9.770   9.235  11.374
58721W        W22445  24.135  13.666  10.599
58722W        W22446   5.919  28.174   0.325
58723W        W22447  44.296  27.617  10.429
58724W        W22448  21.227  43.993  11.383
58725W        W22449  13.184  12.826   3.688
58726W        W22450  17.290  13.604  12.847
58727W        W22451  11.646   3.928  14.330
58728W        W22452  20.257  44.986  10.570
58729W        W22453  10.735  35.957  13.835
58730W        W22454  34.082   7.254   0.856
58731W        W22455  44.786   1.317   0.738
58732W        W22456  18.113  20.160   1.821
58733W        W22457  33.008  13.819  14.914
58734W        W22458  42.498  32.542   4.295
58735W        W22459  43.890  15.816  11.471
58736W        W22460   0.904  39.475   2.747
58737W        W22461   0.808  31.906  11.120
58738W        W22462  32.023   9.649  10.112
58739W        W22463  18.265  34.975  12.993
58740W        W22464  11.765   3.399   1.718
58741W        W22465  16.668   1.956   3.381
58742W        W22466   1.403  14.119   2.289
58743W        W22467  35.563  25.175   2.830
58744W        W22468  39.557  33.924  10.454
58745W        W22469  31.500  38.429  14.966
58746W        W22470   5.736  36.393  13.038
58747W        W22471  24.071  23.566  12.371
58748W        W22472  40.326  23.042   2.292
58749W        W22473   6.409   7.285   4.777
58750W        W22474  35.574   2.918   0.366
58751W        W22475  44.495   7.719  11.497
58752W        W22476  19.724  36.415   1.406
58753W        W22477  27.509  26.650   4.809
58754W        W22478  24.616  27.567  14.286
58755W        W22479  37.347  16.158  14.428
58756W        W22480  17.303  11.744  10.902
58757W        W22481  25.114  22.191  12.072
58758W        W22482   5.816  18.648  11.573
58759W        W22483  14.175  30.554   0.365
58760W        W22484  29.973  37.464  11.602
58761W        W22485  38.055  30.141  11.005
58762W        W22486  29.590  30.614   2.723
58763W        W22487  10.640  39.857  13.317
58764W        W22488  19.630  40.382  11.451
58765W        W22489  38.926  39.058   4.703
58766W        W22490   2.818  37.426   0.288
58767W        W22491  24.608  43.771  12.993
58768W        W22492  35.088  11.240   1.218
58769W        W22493   0.866  44.294   0.399
58770W        W22494  38.010  18.625   0.803
58771W        W22495   5.330  32.059  14.915
58772W        W22496  31.643   5.849  12.939
58773W        W22497   1.837  12.792   3.319
58774W        W22498  25.029  30.502  13.534
58775W        W22499  38.017   9.272  13.363
58776W        W22500  20.647   0.883  14.925
58777W        W22501  23.237  25.978   3.747
58778W        W22502  16.750  25.625  11.600
58779W        W22503   2.353  24.164  11.099
58780W        W22504  22.007  39.448   5.109
58781W        W22505   9.247   3.299   3.256
58782W        W22506  44.973  37.577   4.254
58783W        W22507  24.608  33.538  11.988
58784W        W22508  16.151  42.969   4.149
58785W        W22509  29.058  32.929  12.867
58786W        W22510  36.498  27.449  12.955
58787W        W22511  34.473  19.144   3.637
58788W        W22512  25.176  24.587  12.358
58789W        W22513  23.182  31.515  12.025
58790W        W22514  37.039  26.588   2.370
58791W        W22515  29.040  36.855  12.873
58792W        W22516  39.950   8.184   3.756
58793W        W22517   5.250  11.846   3.770
58794W        W22518  43.021  31.635   2.724
58795W        W22519  24.136  30.597   5.271
58796W        W22520  41.885  31.083   0.440
58797W        W22521  28.612  29.118   2.404
58798W        W22522   9.867  38.842  11.612
58799W        W22523  28.030  28.588   0.819
58800W        W22524  19.156   3.307   3.816
58801W        W22525  13.284   9.832  14.278
58802W        W22526  10.739  43.379   4.259
58803W        W22527  22.180  43.908  11.967
58804W        W22528  31.544  24.201  13.544
58805W        W22529  14.094  40.921  10.961
58806W        W22530  42.462  19.724   3.726
58807W        W22531   8.771  12.231  13.539
58808W        W22532  34.534   7.892   2.275
58809W        W22533  39.036  23.005   9.574
58810W        W22534  43.803  14.164   5.101
58811W        W22535   7.798  21.024   4.131
58812W        W22536  10.372  19.554  13.013
58813W        W22537  29.153  17.145   3.260
58814W        W22538  26.521   0.898  12.065
58815W        W22539  25.602   8.333   4.680
58816W        W22540   1.360  22.173   3.758
58817W        W22541   2.436   3.834  11.466
58818W        W22542  24.145  26.600  11.968
58819W        W22543   1.239   1.329  10.482
58820W        W22544  16.741   5.917  12.015
58821W        W22545   8.781   4.907   1.931
58822W        W22546  43.323  30.509  15.000
58823W        W22547  42.859  27.453  12.951
58824W        W22548   6.789  29.537   1.445
58825W        W22549  29.473  35.007  12.455
58826W        W22550   8.377  15.706   1.269
58827W        W22551  27.541  15.712   4.828
58828W        W22552   2.309  32.069   2.694
58829W        W22553   9.797   6.797   3.770
58830W        W22554   5.716   9.322   2.670
58831W        W22555  28.589  22.642  12.578
58832W        W22556  43.946   2.733  12.002
58833W        W22557   9.313  13.288  12.857
58834W        W22558  20.180   1.805  13.995
58835W        W22559  13.139  28.134  13.929
58836W        W22560  20.747  42.838   2.863
58837W        W22561  37.471   7.874  13.308
58838W        W22562  37.991  29.427   4.221
58839W        W22563  24.049  11.240  13.429
58840W        W22564  37.914   7.340  11.984
58841W        W22565  40.475  41.029   2.270
58842W        W22566  21.204  37.848  11.482
58843W        W22567   8.784  14.199   3.171
58844W        W22568  39.816  21.250  13.793
58845W        W22569   5.922  26.663  11.520
58846W        W22570  29.091  16.287  10.503
58847W        W22571   8.236   6.733   4.148
58848W        W22572  15.280  35.445  13.914
58849W        W22573  36.893  20.228  11.567
58850W        W22574  26.969  27.094   3.311
58851W        W22575  16.076  21.237  12.064
58852W        W22576  24.540  25.512   0.471
58853W        W22577  12.658  22.622  14.858
58854W        W22578  21.594  39.380  12.976
58855W        W22579  43.810   2.464  14.477
58856W        W22580  33.116  16.155   1.298
58857W        W22581   9.716   7.754   1.419
58858W        W22582   5.399   1.340   0.402
58859W        W22583  21.565  11.349   0.268
58860W        W22584   1.965  26.958   0.798
58861W        W22585   8.738   3.935   0.904
58862W        W22586   4.283  26.114  13.060
58863W        W22587  12.117  42.021  10.640
58864W        W22588   2.938  20.238  11.121
58865W        W22589   5.744  38.429   3.662
58866W        W22590  24.063  38.933   2.816
58867W        W22591  22.216  38.472   0.476
58868W        W22592   1.358  36.553   1.839
58869W        W22593   4.387   4.732  13.947
58870W        W22594  36.880  13.116   0.836
58871W        W22595  36.528  13.718   4.763
58872W        W22596  14.815   4.941  11.970
58873W        W22597  26.508  14.203   3.782
58874W        W22598  44.945   3.388   0.293
58875W        W22599   7.688  17.590  10.414
58876W        W22600  23.701  28.942  11.871
58877W        W22601  28.620  21.122  13.428
58878W        W22602  22.247  17.714  14.028
58879W        W22603  31.537  24.719  13.903
58880W        W22604  31.406   0.901   4.746
58881W        W22605   3.881  21.540   0.299
58882W        W22606   3.440  28.965   2.752
58883W        W22607  15.650  11.758  13.448
58884W        W22608  24.709   5.220  10.412
58885W        W22609  15.226   2.785  14.915
58886W        W22610   1.835  21.099  10.500
58887W        W22611  12.766  10.138  11.122
58888W        W22612  25.694  29.041   1.729
58889W        W22613  16.131  21.149   1.411
58890W        W22614  30.955  25.670   3.274
58891W        W22615  19.575  32.411   0.929
58892W        W22616  26.688  35.919  11.981
58893W        W22617   6.242  16.642   4.122
58894W        W22618   5.860  39.503  10.455
58895W        W22619  10.229   4.353   0.775
58896W        W22620  22.730  36.068   4.350
58897W        W22621   7.262  10.653   3.786
58898W        W22622   3.389  17.081   1.417
58899W        W22623  29.533  33.976  13.866
58900W        W22624  29.937  29.078  11.487
58901W        W22625  24.090  17.685  12.987
58902W        W22626  27.008   3.261   2.839
58903W        W22627  44.011  17.727  13.384
58904W        W22628  39.921   1.378   1.757
58905W        W22629   3.902  28.534  12.397
58906W        W22630  22.209   5.396   1.312
58907W        W22631  14.697  24.565   0.395
58908W        W22632   2.456  15.127   0.882
58909W        W22633  31.425  27.944   2.792
58910W        W22634  40.961  26.473  13.538
58911W        W22635  37.969  30.929   3.713
58912W        W22636  35.029  17.236  11.396
58913W        W22637   8.182   2.295   1.231
58914W        W22638  24.652   2.782  12.057
58915W        W22639  16.791  37.975  11.880
58916W        W22640  18.756  43.848  13.999
58917W        W22641   4.379  22.566  13.941
58918W        W22642  33.511  39.962  12.570
58919W        W22643  30.438  37.546   2.230
58920W        W22644  27.597  37.076  13.881
58921W        W22645  36.880  33.904   3.151
58922W        W22646  35.485   6.293  11.962
58923W        W22647  32.576  12.788  12.828
58924W        W22648   6.404   6.376  11.463
58925W        W22649  36.551  36.855   3.708
58926W        W22650   4.769   2.721  13.547
58927W        W22651  11.622  25.522   0.857
58928W        W22652  14.112  12.192   1.873
58929W        W22653  27.516  26.496  12.440
58930W        W22654   8.264  12.275   1.303
58931W        W22655  36.038   6.800   3.350
58932W        W22656  17.075   8.211  10.581
58933W        W22657  44.461   7.707   4.178
58934W        W22658  31.119  23.108  11.901
58935W        W22659   9.771  14.799   0.387
58936W        W22660  14.804   1.351   4.718
58937W        W22661  33.875   5.843   3.257
58938W        W22662   4.752   3.734  12.863
58939W        W22663  23.731   9.343   2.360
58940W        W22664  26.053  21.085   2.715
58941W        W22665  33.091  26.533   0.370
58942W        W22666  44.466  44.996  14.015
58943W        W22667   8.175  25.486  14.904
58944W        W22668   5.922  28.966  14.366
58945W        W22669  24.656   2.751   4.291
58946W        W22670  42.514  33.442   0.805
58947W        W22671  10.723  42.474  11.087
58948W        W22672  10.774  27.053   3.273
58949W        W22673  29.471  39.932   0.736
58950W        W22674  37.367   1.854  13.857
58951W        W22675   2.270  36.976  10.523
58952W        W22676  20.599  23.218  14.787
58953W        W22677  19.204  23.205   4.702
58954W        W22678  26.509  24.216  13.528
58955W        W22679  42.006   6.832   0.821
58956W        W22680   6.676  31.064   1.303
58957W        W22681   1.283   2.825  13.841
58958W        W22682   4.278  17.224   3.284
58959W        W22683  42.338  37.380  14.328
58960W        W22684  27.518  24.703  14.859
58961W        W22685  26.015  16.313   0.454
58962W        W22686  10.157  16.148  11.929
58963W        W22687   4.931  38.559  11.541
58964W        W22688  37.853  17.244   1.299
58965W        W22689  21.595   2.918   4.119
58966W        W22690   7.905  11.754   1.786
58967W        W22691  40.826  10.223  13.004
58968W        W22692  22.096  13.627  13.341
58969W        W22693  42.976  37.408   3.819
58970W        W22694  16.315  22.747   0.800
58971W        W22695  17.663   2.827   3.175
58972W        W22696  26.572  41.483   3.633
58973W        W22697  10.265  10.203   4.617
58974W        W22698  25.548  35.910   4.713
58975W        W22699  18.761  38.072  14.801
58976W        W22700  37.045  35.039  14.331
58977W        W22701  10.264  21.740   2.252
58978W        W22702   0.272  29.124  13.858
58979W        W22703  21.177  30.481  13.817
58980W        W22704  28.660  29.464  13.469
58981W        W22705  20.218  14.765   2.867
58982W        W22706   2.739  25.651  10.405
58983W        W22707  19.282   5.391   0.281
58984W        W22708  43.954   5.232  13.941
58985W        W22709   9.379  42.975   4.172
58986W        W22710  17.208   0.978   0.360
58987W        W22711  26.591  21.101  12.354
58988W        W22712  33.467   1.414   5.151
58989W        W22713  31.439  35.901  10.496
58990W        W22714  27.080  43.836  14.424
58991W        W22715  20.548  42.841   5.143
58992W        W22716  39.839  41.297  12.896
58993W        W22717   9.230   4.352  14.299
58994W        W22718  23.673  35.086   2.807
58995W        W22719   8.160  30.018  13.891
58996W        W22720  27.646   0.464  10.494
58997W        W22721  24.118   6.784   3.786
58998W        W22722  32.038   3.346  14.936
58999W        W22723  18.133  19.700  11.596
59000W        W22724  12.850  26.583  13.062
59001W        W22725  23.627  24.593   4.641
59002W        W22726  12.190  16.184  11.069
59003W        W22727  33.494  38.840  11.914
59004W        W22728  22.066   5.875   1.347
59005W        W22729   2.345  29.995  13.485
59006W        W22730   3.892  17.669  10.603
59007W        W22731  27.614  12.746  12.508
59008W        W22732  12.659  34.530  13.430
59009W        W22733  41.966  12.277  14.428
59010W        W22734   4.818   0.988   4.225
59011W        W22735  16.234  12.246   3.340
59012W        W22736  19.166  30.015   3.809
59013W        W22737  14.757  37.959   1.336
59014W        W22738  30.570  23.033  12.525
59015W        W22739  38.890   2.464   9.987
59016W        W22740   2.750  34.869   2.192
59017W        W22741  28.627  42.308   1.397
59018W        W22742  20.270   9.186  13.534
59019W        W22743  36.447  21.734   4.837
59020W        W22744  34.551  43.840  11.435
59021W        W22745   0.253  33.453   2.775
59022W        W22746  23.549  39.396   2.201
59023W        W22747   7.417  31.993  14.418
59024W        W22748   8.163  39.829  11.916
59025W        W22749  18.606  12.344  11.989
59026W        W22750  10.774  29.457   0.467
59027W        W22751  23.172  31.094   3.282
59028W        W22752  36.020  35.369  14.926
59029W        W22753   0.934  38.438  14.861
59030W        W22754   6.914  20.738   3.319
59031W        W22755  43.876   1.745   2.697
59032W        W22756  12.809  27.025  11.916
59033W        W22757  42.425  26.173   2.740
59034W        W22758  22.695  17.619   0.304
59035W        W22759  25.126  26.595   3.841
59036W        W22760  24.718  13.129   3.333
59037W        W22761  26.485  23.518   1.824
59038W        W22762   2.904  21.150   1.312
59039W        W22763  13.323   4.784  11.974
59040W        W22764  30.930  23.572   2.296
59041W        W22765   4.931  35.073   3.714
59042W        W22766   9.358  22.504  13.359
59043W        W22767  33.022  10.379   3.679
59044W        W22768  32.564  29.488  13.542
59045W        W22769  24.653  24.118  13.516
59046W        W22770  25.547  30.439  11.895
59047W        W22771   8.187  39.951   3.364
59048W        W22772  37.388  34.511   2.253
59049W        W22773  35.401  17.110  11.872
59050W        W22774  42.875  20.269   2.817
59051W        W22775  25.214  12.726   3.275
59052W        W22776   4.817  36.879  10.974
59053W        W22777  34.964  44.399   1.389
59054W        W22778  23.058   1.760  11.404
59055W        W22779  33.009   2.377   3.671
59056W        W22780  10.702   5.859  14.382
59057W        W22781  26.147   0.342   4.320
59058W        W22782  20.706  40.374   0.313
59059W        W22783  15.235  41.973   1.834
59060W        W22784  34.050  33.623  11.874
59061W        W22785   3.274  24.536   0.452
59062W        W22786  15.252  30.074  12.084
59063W        W22787   3.950  35.888   4.637
59064W        W22788  12.643  33.409  14.279
59065W        W22789  44.808   0.809  13.507
59066W        W22790  20.199   8.671  13.926
59067W        W22791   0.808   9.652   0.447
59068W        W22792  36.010   2.954   1.429
59069W        W22793   0.903  17.559  13.546
59070W        W22794  31.553  39.955   3.214
59071W        W22795  12.170  27.062   1.844
59072W        W22796  43.478  20.525   1.335
59073W        W22797  30.998   4.755   0.737
59074W        W22798  28.510  35.590   0.373
59075W        W22799  41.921  17.766  12.560
59076W        W22800  19.566  30.024  10.950
59077W        W22801  43.922  20.159   3.767
59078W        W22802  38.427  31.045  14.793
59079W        W22803  19.121   3.451  14.904
59080W        W22804  38.922  36.923  10.548
59081W        W22805  19.280  28.505   1.266
59082W        W22806  27.447   9.854  12.466
59083W        W22807  13.161  15.292  11.057
59084W        W22808  21.104  30.065  14.771
59085W        W22809  44.767   9.390   3.659
59086W        W22810  39.995  42.431   4.802
59087W        W22811  42.385  25.216   0.408
59088W        W22812  24.178   8.883  11.869
59089W        W22813  38.538   8.276  13.937
59090W        W22814  18.263   6.750  10.533
59091W        W22815   6.297  34.370  14.765
59092W        W22816   5.246  14.833  14.352
59093W        W22817  42.975  42.290   4.353
59094W        W22818  23.620  11.739  12.869
59095W        W22819   6.426  27.969  11.027
59096W        W22820  38.483  39.013   1.321
59097W        W22821  24.521  28.141  10.904
59098W        W22822  34.960   4.942   3.193
59099W        W22823  27.510  25.514   1.295
59100W        W22824  43.425   5.766   0.867
59101W        W22825   4.789  26.117  13.804
59102W        W22826   7.772   5.220  10.478
59103W        W22827   5.746  43.793  10.581
59104W        W22828  32.898   6.827   3.361
59105W        W22829  23.577  17.751   0.830
59106W        W22830  33.084  16.801   2.769
59107W        W22831   1.969  25.565   3.291
59108W        W22832  44.876  24.683  12.022
59109W        W22833   1.910  16.613  13.979
59110W        W22834  36.417  44.484  13.002
59111W        W22835  26.996  31.424  10.609
59112W        W22836  17.620  32.500   0.256
59113W        W22837  17.660  22.128  11.941
59114W        W22838  22.575  28.628  10.513
59115W        W22839   2.866  13.320  12.965
59116W        W22840  41.458  22.649  14.911
59117W        W22841  36.845   2.435  13.463
59118W        W22842  36.894  25.649  10.482
59119W        W22843  23.105  35.434  11.080
59120W        W22844  29.100  16.140  14.275
59121W        W22845   4.405   3.236   2.748
59122W        W22846  10.637  25.588  10.976
59123W        W22847  30.161   1.746  11.587
59124W        W22848   6.819   7.413  11.521
59125W        W22849  31.041  22.579  13.528
59126W        W22850   6.243  40.316  14.902
59127W        W22851  23.576   4.272   2.881
59128W        W22852  18.720  40.893  11.425
59129W        W22853   0.492  44.500  13.322
59130W        W22854   4.284  31.594   0.301
59131W        W22855  43.019  42.391  10.966
59132W        W22856  32.507   3.307  10.956
59133W        W22857  36.403  11.242   2.248
59134W        W22858  39.867  41.829  13.063
59135W        W22859  21.542  44.416  14.797
59136W        W22860  25.612  31.080  13.884
59137W        W22861   1.237  30.577   2.781
59138W        W22862  25.628   7.342  13.328
59139W        W22863  21.146  11.338  12.042
59140W        W22864  41.902   1.754  13.846
59141W        W22865   0.483  15.727  10.921
59142W        W22866  42.915  30.135   3.268
59143W        W22867  22.573  13.632   4.294
59144W        W22868  27.453   8.691  12.892
59145W        W22869   9.724   8.384  13.827
59146W        W22870  23.060  43.787  14.508
59147W        W22871  27.445  14.150   0.372
59148W        W22872   6.296  17.566   0.343
59149W        W22873   6.253  30.572  10.566
59150W        W22874  14.298  20.753  14.870
59151W        W22875  28.993  21.093  13.918
59152W        W22876  42.875  22.701   4.696
59153W        W22877  42.847  18.246   2.807
59154W        W22878  31.084  28.180  10.430
59155W        W22879  38.454  32.471  14.403
59156W        W22880  25.589  33.119   2.241
59157W        W22881  35.856  40.845  12.561
59158W        W22882   0.251  30.440   3.361
59159W        W22883  41.376  28.469   3.321
59160W        W22884  14.811  36.454   1.396
59161W        W22885  38.042  36.932  14.908
59162W        W22886  36.540  16.711  13.511
59163W        W22887  41.822  17.576   2.787
59164W        W22888  27.140   0.353   3.816
59165W        W22889  37.878  25.708   3.742
59166W        W22890  18.640  44.266   1.707
59167W        W22891  12.197  21.658   2.881
59168W        W22892  42.417   6.686   4.735
59169W        W22893  15.150  30.028   2.689
59170W        W22894  35.565  23.683  12.021
59171W        W22895  16.144  41.853  11.603
59172W        W22896  44.271   7.700  10.960
59173W        W22897  11.688  17.290  12.480
59174W        W22898  15.132  31.051  11.022
59175W        W22899  13.768  20.687  10.574
59176W        W22900   6.742  30.026  12.948
59177W        W22901  17.065  18.751  12.394
59178W        W22902  14.830   8.201   4.785
59179W        W22903  31.127  28.503   0.843
59180W        W22904   1.414  29.959   1.818
59181W        W22905   6.762  41.950  10.945
59182W        W22906   2.455   4.878  14.931
59183W        W22907  27.674  34.414   0.253
59184W        W22908   6.897  31.132  13.537
59185W        W22909  26.987  17.595  13.444
59186W        W22910  12.116  43.806  11.943
59187W        W22911   2.372   1.295  14.016
59188W        W22912  18.223  37.894   4.251
59189W        W22913  19.081   6.913  14.911
59190W        W22914   9.855   9.158   2.806
59191W        W22915  36.872  16.586   3.152
59192W        W22916  36.916  15.625   1.838
59193W        W22917  44.348  15.250  10.421
59194W        W22918  18.278  14.165  12.488
59195W        W22919  29.608  33.474   3.815
59196W        W22920  13.801  16.267   0.291
59197W        W22921  24.479  26.032  11.390
59198W        W22922  38.836  29.944  10.150
59199W        W22923   2.937   9.248   4.695
59200W        W22924  26.465   4.431  14.873
59201W        W22925  30.609   2.319  13.889
59202W        W22926  32.610  11.221  13.340
59203W        W22927   8.390  36.991   2.324
59204W        W22928  44.958  13.109  14.409
59205W        W22929  16.776   3.296   3.325
59206W        W22930  43.923  22.082   2.672
59207W        W22931  12.828  12.199   4.136
59208W        W22932   8.192  41.975  13.890
59209W        W22933  27.594  17.675   2.287
59210W        W22934   2.338  38.934  11.408
59211W        W22935  22.542   0.468   1.245
59212W        W22936   0.892  30.995   4.315
59213W        W22937   5.232  17.240   1.875
59214W        W22938  32.427  35.928   2.197
59215W        W22939  33.435  34.019  12.833
59216W        W22940  16.083  17.579   1.346
59217W        W22941  34.076  24.105   1.411
59218W        W22942  11.159  26.516  14.020
59219W        W22943  13.815  40.506  12.949
59220W        W22944  44.868  40.504   3.802
59221W        W22945  16.640  26.689   0.790
59222W        W22946  37.059  42.508   1.724
59223W        W22947  15.095  22.687   4.645
59224W        W22948   4.914  38.431  11.012
59225W        W22949  16.260  19.534  11.051
59226W        W22950   7.388   1.824  12.445
59227W        W22951   3.854  41.396  13.955
59228W        W22952  36.965   6.754   1.929
59229W        W22953  24.151  23.736   1.810
59230W        W22954  20.692   8.378  12.837
59231W        W22955  27.658  13.707   1.323
59232W        W22956  23.068  21.116   4.674
59233W        W22957  28.494  36.464   2.251
59234W        W22958  16.111   0.849   4.665
59235W        W22959   9.302   0.775  14.953
59236W        W22960  10.277  44.919  10.908
59237W        W22961  36.028  35.867   4.678
59238W        W22962  22.031  18.212   0.931
59239W        W22963  44.853  36.482   4.293
59240W        W22964   6.686   3.331  10.642
59241W        W22965  23.701  43.320  13.377
59242W        W22966  20.076   6.914  11.567
59243W        W22967  28.055  40.896  11.395
59244W        W22968   9.837  31.414  12.022
59245W        W22969  41.332   6.709   4.160
59246W        W22970  32.585  31.132   3.309
59247W        W22971  19.213  21.686  14.278
59248W        W22972  40.950  11.705   3.803
59249W        W22973   4.266  21.530  12.985
59250W        W22974  18.581  20.543   0.761
59251W        W22975  25.630   8.166  12.514
59252W        W22976  30.161  41.979   1.214
59253W        W22977  26.662   6.256  11.423
59254W        W22978  44.468   2.778   3.833
59255W        W22979  39.945  17.614  12.368
59256W        W22980  17.588  14.810  10.917
59257W        W22981  10.310   4.777  10.992
59258W        W22982   2.461   8.235  14.824
59259W        W22983  42.979  17.126  14.409
59260W        W22984  35.974  39.452   3.370
59261W        W22985  39.333  43.877  14.778
59262W        W22986  44.420  37.477  13.023
59263W        W22987  10.215  39.986   5.253
59264W        W22988  34.083   4.764  14.912
59265W        W22989  38.996  33.101  10.890
59266W        W22990  17.725  40.481   4.696
59267W        W22991  43.460  34.957  11.472
59268W        W22992  34.494  40.025  10.610
59269W        W22993  12.118  32.108   4.177
59270W        W22994  13.820  31.517   4.733
59271W        W22995  23.699  29.616  13.851
59272W        W22996  22.709  39.934   2.809
59273W        W22997   4.227  28.649   3.224
59274W        W22998  37.877  27.555  12.358
59275W        W22999   2.930  37.554  10.929
59276W        W23000  35.580  13.751   9.480
59277W        W23001  11.781  36.066   0.780
59278W        W23002  25.694  20.547   2.303
59279W        W23003  40.840  18.104   1.452
59280W        W23004  16.709  15.775   2.798
59281W        W23005  37.444  27.022   4.312
59282W        W23006   2.865  33.064   1.377
59283W        W23007  26.457  37.056   4.735
59284W        W23008  42.015  27.667   0.938
59285W        W23009  12.343  32.044  13.358
59286W        W23010  17.211  38.967   2.245
59287W        W23011  37.871  10.672  12.994
59288W        W23012  43.447   6.871   2.288
59289W        W23013   2.828  19.753   1.284
59290W        W23014  26.606  27.010   1.284
59291W        W23015  19.142  30.071  12.060
59292W        W23016  34.105  27.110  12.495
59293W        W23017  33.886  36.022  12.375
59294W        W23018   1.405   0.445  12.024
59295W        W23019  25.502  21.044  12.062
59296W        W23020  37.460  35.107   4.281
59297W        W23021   3.725  13.671   3.827
59298W        W23022  19.764  38.536  11.960
59299W        W23023  28.119  22.165  14.313
59300W        W23024  15.267   3.356  14.446
59301W        W23025   4.903  18.694  10.411
59302W        W23026  44.942   8.698   3.276
59303W        W23027   5.270  39.327   1.442
59304W        W23028  27.483  20.675   1.697
59305W        W23029  26.025  37.043   1.933
59306W        W23030  18.199  10.335  11.105
59307W        W23031   2.237  20.109  11.064
59308W        W23032  29.630  42.871   4.151
59309W        W23033   8.695  40.879   2.729
59310W        W23034  12.762   2.245   1.916
59311W        W23035  27.646   0.926   2.805
59312W        W23036  36.980  10.832  13.356
59313W        W23037   3.259  34.589  14.282
59314W        W23038   2.760  39.012   2.185
59315W        W23039  27.571  14.272   3.818
59316W        W23040   9.179  36.484  14.463
59317W        W23041   0.298  31.085  11.593
59318W        W23042  35.369   6.786   3.745
59319W        W23043  10.863  24.667   2.829
59320W        W23044  35.587  24.030   0.361
59321W        W23045   5.291  20.226  10.412
59322W        W23046   7.751   3.832   4.283
59323W        W23047   3.456  43.894  11.467
59324W        W23048  20.612  32.971  14.396
59325W        W23049   7.680  33.580   2.811
59326W        W23050  19.569   9.696   2.793
59327W        W23051  30.539  22.091  11.990
59328W        W23052   0.983  33.992   4.819
59329W        W23053  19.065  16.208   2.877
59330W        W23054  34.945  25.138  13.918
59331W        W23055  21.062  17.703  10.557
59332W        W23056  13.809  42.977   2.856
59333W        W23057  22.623  44.962  13.332
59334W        W23058   2.428  33.972   2.314
59335W        W23059  33.033  18.639   1.855
59336W        W23060  14.702  27.991  13.976
59337W        W23061  22.109  36.909  14.461
59338W        W23062   5.208   7.814  12.833
59339W        W23063   5.902  18.576  10.619
59340W        W23064  13.639  28.455  12.877
59341W        W23065   2.352  11.367   0.957
59342W        W23066  40.803  20.682  10.516
59343W        W23067  18.551  27.975   3.236
59344W        W23068   2.920   2.810   2.396
59345W        W23069  35.862  33.465  11.607
59346W        W23070  10.358  28.109   1.275
59347W        W23071  21.589  10.334  13.876
59348W        W23072  30.438   9.284   4.619
59349W        W23073  26.141  10.214   0.796
59350W        W23074  26.500  25.163  10.058
59351W        W23075  20.611  22.711  13.916
59352W        W23076  20.700  42.974  14.296
59353W        W23077  16.192  18.151   0.438
59354W        W23078   1.257   6.846  14.343
59355W        W23079   6.205  14.806   1.779
59356W        W23080   9.672   4.415   0.459
59357W        W23081  12.760  17.770   1.866
59358W        W23082  38.977  28.078   4.810
59359W        W23083  32.116  19.712   2.335
59360W        W23084  34.594   9.714  14.868
59361W        W23085  37.039   4.761  10.409
59362W        W23086  38.364  29.435   0.871
59363W        W23087   0.404  29.979  12.071
59364W        W23088  32.015   5.273   2.262
59365W        W23089  35.906  36.529   3.196
59366W        W23090  44.261   3.368  14.948
59367W        W23091  34.410   2.729   4.293
59368W        W23092  40.853  16.123   0.270
59369W        W23093  31.059  19.266   0.301
59370W        W23094  37.892  16.728   2.227
59371W        W23095  25.529   9.878  11.602
59372W        W23096  33.095  41.906   4.610
59373W        W23097   3.262   6.896   4.767
59374W        W23098  43.863   8.178  14.883
59375W        W23099  17.067  36.022   3.868
59376W        W23100  27.450  38.467  11.903
59377W        W23101  40.883  34.570  14.989
59378W        W23102  39.903  29.589   4.171
59379W        W23103  17.162  18.166  13.363
59380W        W23104   2.448  18.245   9.989
59381W        W23105  26.620  13.152   4.164
59382W        W23106  43.897   4.809   3.658
59383W        W23107  15.650  30.161   2.879
59384W        W23108  27.069  30.112   9.991
59385W        W23109   2.277  29.527   4.217
59386W        W23110  24.110  31.636  11.125
59387W        W23111  38.447  38.459   0.917
59388W        W23112  21.065  19.626   2.763
59389W        W23113  18.267  37.477   3.295
59390W        W23114  34.577  28.551  11.869
59391W        W23115  28.444  28.946   3.155
59392W        W23116  38.027   7.804  13.005
59393W        W23117  35.508  39.950   0.766
59394W        W23118  18.239  20.217  14.461
59395W        W23119  28.058  37.547  10.508
59396W        W23120  35.941   3.762  10.948
59397W        W23121  18.293  41.484  14.443
59398W        W23122  11.723  30.130   9.944
59399W        W23123  29.941   6.775   4.711
59400W        W23124  30.580  18.566  12.834
59401W        W23125   2.872  21.686  11.004
59402W        W23126  13.158  17.720  12.547
59403W        W23127   1.390  11.363  14.891
59404W        W23128  27.050   0.323  12.828
59405W        W23129   2.940  37.051  12.827
59406W        W23130  38.827  17.612  11.567
59407W        W23131  34.603  29.575  11.956
59408W        W23132  30.142  23.637   1.320
59409W        W23133   6.886  10.216   5.106
59410W        W23134  32.938   9.370   3.818
59411W        W23135  43.499  36.085   3.764
59412W        W23136   7.859  35.378   2.893
59413W        W23137  20.210  17.118  12.979
59414W        W23138  34.107  17.278   4.173
59415W        W23139  44.999  10.646   1.767
59416W        W23140  39.471   7.726  12.571
59417W        W23141  17.777  25.985   3.725
59418W        W23142  10.171  39.334  14.349
59419W        W23143   5.205  30.994  10.532
59420W        W23144  30.025   5.435  13.954
59421W        W23145  13.648  20.228   2.704
59422W        W23146   6.216   5.269  11.018
59423W        W23147  27.001  29.165   2.752
59424W        W23148  22.164  36.530   3.852
59425W        W23149  39.040  33.573   3.801
59426W        W23150  20.155  20.734  12.372
59427W        W23151  18.129  13.147  11.947
59428W        W23152  41.921  16.760   1.259
59429W        W23153   8.874  11.360  13.948
59430W        W23154  39.937  16.713   4.222
59431W        W23155  35.027  24.635  11.933
59432W        W23156  17.624  43.895   0.449
59433W        W23157  36.435  16.609   1.310
59434W        W23158  30.148  14.191   2.396
59435W        W23159  19.662  12.352   0.243
59436W        W23160   1.358  19.091   3.234
59437W        W23161  10.252  32.094  10.964
59438W        W23162   8.663  43.992   0.781
59439W        W23163  12.615  32.416   4.193
59440W        W23164   2.433  41.519   2.352
59441W        W23165  17.101   8.317   3.858
59442W        W23166  19.697  25.991  11.484
59443W        W23167  24.513  19.113   4.669
59444W        W23168  44.498  28.112  10.463
59445W        W23169  18.176  32.391   2.407
59446W        W23170  28.184   9.884   3.760
59447W        W23171  31.645  25.026   0.295
59448W        W23172  27.989  40.852  13.483
59449W        W23173   4.314  28.453  12.957
59450W        W23174  24.009  42.474  13.980
59451W        W23175  24.167  27.546   5.219
59452W        W23176   1.305  37.353  11.967
59453W        W23177  28.506  33.915   1.329
59454W        W23178  42.309  28.523  14.827
59455W        W23179  12.218  12.803  13.379
59456W        W23180  10.331  36.042  14.406
59457W        W23181  34.907  29.497  13.473
59458W        W23182  10.360  35.973   2.724
59459W        W23183  26.040   4.296  10.541
59460W        W23184  38.927   0.928  14.877
59461W        W23185  44.994  36.382  14.790
59462W        W23186  38.457  15.118  10.457
59463W        W23187  29.156  16.139   1.301
59464W        W23188  10.793  27.088   1.830
59465W        W23189   4.930  35.467   0.337
59466W        W23190  40.428   4.855   2.686
59467W        W23191  36.984  30.995   1.425
59468W        W23192  30.623   7.745   3.286
59469W        W23193  32.897   1.290  14.874
59470W        W23194  14.817  20.584  13.862
59471W        W23195  19.685   3.735   2.190
59472W        W23196   8.302  41.888  10.485
59473W        W23197  40.313  36.558  14.846
59474W        W23198   1.391  11.761   2.286
59475W        W23199  29.993  10.798   1.874
59476W        W23200  32.990  13.762  12.993
59477W        W23201   5.302  12.232   3.293
59478W        W23202  30.127  19.614   2.755
59479W        W23203  32.054  39.970  11.404
59480W        W23204  17.628  25.986   4.810
59481W        W23205  24.008  28.456   3.819
59482W        W23206  27.539  13.675   4.607
59483W        W23207  12.354  19.196  14.809
59484W        W23208  30.958  19.723   5.217
59485W        W23209  29.605  14.248  10.605
59486W        W23210  12.241  38.531   0.425
59487W        W23211  31.579   6.827   2.208
59488W        W23212  13.319  42.423   3.177
59489W        W23213  20.679  25.088   3.382
59490W        W23214  27.467  27.613   2.184
59491W        W23215  15.801   9.230  13.406
59492W        W23216  38.949  17.171  13.037
59493W        W23217  31.934   4.796  13.392
59494W        W23218  20.762  16.114  10.536
59495W        W23219   7.270   5.775  11.098
59496W        W23220  14.237  14.095  14.455
59497W        W23221   6.692  31.136  14.383
59498W        W23222  41.909   5.317  10.949
59499W        W23223  20.767  31.595   2.902
59500W        W23224  10.792  30.963   3.632
59501W        W23225   1.347  37.516  11.519
59502W        W23226  15.747   6.753  11.400
59503W        W23227  14.721  27.535   2.312
59504W        W23228   5.738  21.066   3.166
59505W        W23229  29.994  12.703  14.335
59506W        W23230  26.632  11.197  14.025
59507W        W23231   3.402  25.154  12.856
59508W        W23232  18.170  38.980   0.447
59509W        W23233  10.799   4.736  14.988
59510W        W23234   3.343  28.596   4.633
59511W        W23235   2.431  11.246  13.015
59512W        W23236  14.243  10.307   2.260
59513W        W23237  18.752  37.355   0.740
59514W        W23238  15.822  25.027   2.722
59515W        W23239  41.475  26.987  12.418
59516W        W23240  36.395  22.117  11.991
59517W        W23241  29.426  30.438   1.704
59518W        W23242  20.761   6.752  14.893
59519W        W23243  24.176  26.020   3.707
59520W        W23244  21.731  11.783   3.681
59521W        W23245  28.959  37.568  13.457
59522W        W23246  27.690  23.034  11.924
59523W        W23247  44.837  33.888  14.826
59524W        W23248  10.868  25.599  14.338
59525W        W23249  10.157  11.127  13.031
59526W        W23250  34.971  40.438   3.339
59527W        W23251  20.209  43.335   4.638
59528W        W23252  38.983  13.745  13.324
59529W        W23253  32.398  12.332   1.713
59530W        W23254  16.262  31.934  12.076
59531W        W23255  24.607  31.979  10.545
59532W        W23256  18.062  27.565  14.509
59533W        W23257  13.174  15.136   1.367
59534W        W23258  25.541  42.022  11.094
59535W        W23259  20.702   7.712   4.278
59536W        W23260  29.139  39.510  14.946
59537W        W23261  35.582  40.041   2.774
59538W        W23262  35.427  18.087   1.327
59539W        W23263  16.151  12.752   1.711
59540W        W23264  21.094  29.458  11.997
59541W        W23265  21.514  16.194  13.849
59542W        W23266  27.173  26.121   0.853
59543W        W23267  36.446  30.971   2.699
59544W        W23268   7.671   0.893  10.926
59545W        W23269  35.911  30.443  14.288
59546W        W23270  29.985  22.595  14.905
59547W        W23271  30.108  34.428  12.481
59548W        W23272  35.065  16.163   3.261
59549W        W23273  43.279  30.514   2.754
59550W        W23274  38.457   6.866  12.465
59551W        W23275  19.135  21.207  10.958
59552W        W23276  23.086  23.151  14.941
59553W        W23277  10.731  16.301   0.826
59554W        W23278  26.036   6.879   4.634
59555W        W23279  21.046  38.997  14.340
59556W        W23280  24.194   3.267  12.401
59557W        W23281   8.707   2.961   4.143
59558W        W23282   2.390  40.993  11.907
59559W        W23283  43.865  11.680  13.022
59560W        W23284  41.868  43.896   1.695
59561W        W23285  39.403  13.295   1.264
59562W        W23286  37.052  23.233  13.959
59563W        W23287   6.851  36.963  13.534
59564W        W23288  39.483   2.737  12.573
59565W        W23289  36.467  15.775   5.271
59566W        W23290   8.213  22.008   2.315
59567W        W23291  33.548  30.562  11.595
59568W        W23292  10.799  29.582  10.048
59569W        W23293  37.005  33.417   3.770
59570W        W23294  40.475  37.065  12.854
59571W        W23295  30.510  38.858  11.438
59572W        W23296  17.069  25.162   0.377
59573W        W23297  27.475  24.199  13.930
59574W        W23298  11.366  43.444  12.390
59575W        W23299   2.306  43.943   3.332
59576W        W23300  36.480  42.917   2.199
59577W        W23301  42.378   4.250   0.730
59578W        W23302  43.977  29.961   4.270
59579W        W23303  42.888  39.974  12.989
59580W        W23304  19.162  39.523  14.455
59581W        W23305  24.641  11.683   2.249
59582W        W23306  33.900  39.406   3.222
59583W        W23307   0.806   8.783   3.663
59584W        W23308  21.717  21.262   2.371
59585W        W23309  25.042  17.729   0.468
59586W        W23310  22.695   1.310   3.356
59587W        W23311  18.235  43.800  12.363
59588W        W23312  24.030  42.967  13.867
59589W        W23313  40.349   3.289  13.975
59590W        W23314  35.866  25.016  10.995
59591W        W23315  38.489  19.571  11.593
59592W        W23316  37.539  40.041   2.837
59593W        W23317  23.726   5.265  13.512
59594W        W23318  10.639  11.686   0.435
59595W        W23319   9.746  15.683   4.223
59596W        W23320  24.594  12.352  11.576
59597W        W23321  33.413  39.333   2.250
59598W        W23322  16.622  13.337   2.671
59599W        W23323  38.844  12.350  13.927
59600W        W23324  16.207  29.459   3.227
59601W        W23325  25.509  30.438   2.901
59602W        W23326  35.972  36.939   2.274
59603W        W23327  32.447  43.855   3.230
59604W        W23328  26.688   2.325   0.771
59605W        W23329  21.258  10.655   0.773
59606W        W23330  13.607  24.626  12.510
59607W        W23331  30.061  12.353  13.375
59608W        W23332   2.236  26.496  10.517
59609W        W23333   0.938  23.083   2.750
59610W        W23334  33.386  29.512   2.211
59611W        W23335  30.659  13.744   0.274
59612W        W23336  13.814  26.041   0.392
59613W        W23337   3.857  16.736  10.572
59614W        W23338  21.050  35.954  13.009
59615W        W23339  37.965   7.703   2.795
59616W        W23340  36.423  40.434  12.967
59617W        W23341  28.074  12.635  14.759
59618W        W23342  38.419  32.965   3.257
59619W        W23343  15.789   2.455   0.449
59620W        W23344  36.844   3.904  14.454
59621W        W23345  25.620   2.244   1.838
59622W        W23346  11.275   3.301  12.459
59623W        W23347  39.896   0.789  14.331
59624W        W23348   2.406  10.752  13.866
59625W        W23349   2.882  28.151  13.500
59626W        W23350  33.551  37.476  10.084
59627W        W23351  44.388   8.197   3.823
59628W        W23352  14.327  17.741   3.158
59629W        W23353   1.878  20.678  11.411
59630W        W23354  18.183   4.726  10.460
59631W        W23355  17.213  31.459   4.225
59632W        W23356   1.755  18.289  13.793
59633W        W23357  13.830   1.863  10.404
59634W        W23358  23.026  12.204  14.434
59635W        W23359  20.170   4.380  12.498
59636W        W23360  35.103  26.038   1.432
59637W        W23361   5.349   4.767   0.929
59638W        W23362  42.967   1.244   2.349
59639W        W23363  39.055  39.313   4.183
59640W        W23364  35.956  37.954   0.794
59641W        W23365  24.988  17.303  10.892
59642W        W23366  44.299   0.847  11.122
59643W        W23367  43.404  40.434  13.397
59644W        W23368   2.786  25.523   2.849
59645W        W23369  28.494  37.012  13.023
59646W        W23370  24.058  33.472  12.972
59647W        W23371  34.404   2.747   3.857
59648W        W23372  31.429  13.825   1.211
59649W        W23373  44.760   5.256   1.313
59650W        W23374  39.836  34.588   0.350
59651W        W23375   1.244  36.877   2.335
59652W        W23376  20.216  15.248   0.460
59653W        W23377   0.931  16.739   1.434
59654W        W23378  37.068  30.926   2.834
59655W        W23379  18.106  35.083   1.320
59656W        W23380  44.394  23.151  11.012
59657W        W23381  43.373  28.117   4.718
59658W        W23382  27.570  14.762  13.991
59659W        W23383   2.462  16.622   2.408
59660W        W23384   9.224   6.428  13.932
59661W        W23385  31.513  28.059   4.810
59662W        W23386  17.280  14.137  10.921
59663W        W23387   6.878   0.897  10.505
59664W        W23388  25.562  27.104   2.212
59665W        W23389   0.894  39.053  11.479
59666W        W23390   3.442  40.415   3.675
59667W        W23391  26.984   5.265  10.554
59668W        W23392  37.840  16.798   0.786
59669W        W23393   2.789  14.284   0.937
59670W        W23394  44.335  20.101  12.931
59671W        W23395  35.421   9.678  10.421
59672W        W23396  33.407  11.756   5.206
59673W        W23397  43.464  12.647  10.425
59674W        W23398   4.212   8.816   3.719
59675W        W23399  20.136   6.396  11.977
59676W        W23400  21.625   1.239   3.795
59677W        W23401   8.179  44.814  10.996
59678W        W23402   4.275   1.796  11.501
59679W        W23403  37.891  34.436  14.439
59680W        W23404  37.370  38.350  11.055
59681W        W23405   7.226   4.337  11.403
59682W        W23406  35.887  15.110   2.840
59683W        W23407  18.666  34.997  13.917
59684W        W23408   0.412  40.478   2.818
59685W        W23409  24.494  36.864   3.295
59686W        W23410  41.427  36.991  12.576
59687W        W23411   3.866  17.164   3.169
59688W        W23412   9.673  35.398   1.377
59689W        W23413  16.724   3.866   5.231
59690W        W23414  43.373  17.239  13.941
59691W        W23415  20.222  18.268   2.886
59692W        W23416  40.425  43.791  12.074
59693W        W23417  24.148  14.669   1.694
59694W        W23418  35.525  14.798  13.033
59695W        W23419  29.515  22.707   0.411
59696W        W23420  34.906  23.190  10.515
59697W        W23421  31.944  14.696  14.428
59698W        W23422  31.636   8.847   0.267
59699W        W23423   5.311   4.917  13.434
59700W        W23424   6.714  17.109  11.421
59701W        W23425   0.885  31.613  11.574
59702W        W23426  14.163  29.444  11.862
59703W        W23427  30.993  23.698  14.466
59704W        W23428  24.022  25.696  12.567
59705W        W23429  30.456  30.106  13.933
59706W        W23430   5.932  25.995   4.154
59707W        W23431  38.826  35.853  11.576
59708W        W23432   9.796  15.596   1.303
59709W        W23433  30.606  34.086   1.339
59710W        W23434  38.860  20.544  10.603
59711W        W23435   2.742   1.299  13.958
59712W        W23436  11.652  20.065   3.681
59713W        W23437  21.700  25.075  10.597
59714W        W23438  18.287  12.755  12.512
59715W        W23439  33.972   3.802   4.138
59716W        W23440  36.469   0.898  12.514
59717W        W23441  13.792  23.684   4.320
59718W        W23442  11.139  25.474   3.381
59719W        W23443   4.867  33.064   0.965
59720W        W23444  11.623  20.060  11.420
59721W        W23445  19.245  25.043   3.806
59722W        W23446  32.420   1.858   1.799
59723W        W23447  12.252  24.536  13.997
59724W        W23448  43.823  30.996  14.367
59725W        W23449  25.645  27.940   0.253
59726W        W23450   3.308   8.316  13.546
59727W        W23451  21.195  30.535  10.598
59728W        W23452  37.528   4.913   4.773
59729W        W23453  38.915   8.734  14.027
59730W        W23454  18.232  20.140  13.953
59731W        W23455  13.684   7.176   3.641
59732W        W23456  42.428  43.321  11.874
59733W        W23457  44.996  15.158   0.266
59734W        W23458  38.472  23.621   4.266
59735W        W23459  39.062  44.924   2.229
59736W        W23460   9.823  43.882  12.908
59737W        W23461  42.868  33.506   1.835
59738W        W23462  15.285  43.372  11.865
59739W        W23463  31.145  29.077   1.400
59740W        W23464  11.168  16.111   3.357
59741W        W23465   9.170  19.143   0.353
59742W        W23466   8.270  37.556  10.441
59743W        W23467  41.009  33.901  12.444
59744W        W23468   3.949   3.356   1.723
59745W        W23469   1.425   2.374  11.535
59746W        W23470   2.733  35.386   4.682
59747W        W23471  41.808  12.255   2.178
59748W        W23472   3.306  31.087  14.803
59749W        W23473  43.341   6.201  11.601
59750W        W23474  28.436   5.306  13.500
59751W        W23475  34.535   9.321   3.387
59752W        W23476  28.181  31.101  13.026
59753W        W23477  14.312  21.062   4.310
59754W        W23478  32.138  19.534   4.726
59755W        W23479   4.426  24.655   4.624
59756W        W23480  36.503  34.060  13.389
59757W        W23481  17.168  36.367  11.438
59758W        W23482  40.912  25.056   3.850
59759W        W23483  11.802  22.596  13.328
59760W        W23484   0.329  20.161  13.808
59761W        W23485  30.444  33.978  14.828
59762W        W23486  38.887  16.792  11.015
59763W        W23487  36.489   9.370   2.738
59764W        W23488   4.375  32.941   0.838
59765W        W23489  40.493  23.190   4.306
59766W        W23490  33.055  33.937   0.905
59767W        W23491  18.654  25.036   4.294
59768W        W23492  19.150  29.466  11.862
59769W        W23493  33.600  21.081  10.520
59770W        W23494  17.729  37.404  11.573
59771W        W23495  19.693  33.120   4.655
59772W        W23496  31.558  11.628   1.767
59773W        W23497   1.409  41.017   0.887
59774W        W23498   0.486  16.318   4.295
59775W        W23499   7.715  23.076   3.269
59776W        W23500  27.577  16.309   2.228
59777W        W23501  30.158  25.558  14.363
59778W        W23502  12.196  33.929  13.044
59779W        W23503  42.978  24.225  13.027
59780W        W23504  44.377   5.194   1.858
59781W        W23505   4.301  16.654  13.008
59782W        W23506  37.364  23.113  11.123
59783W        W23507  16.094  12.694   0.944
59784W        W23508  26.989  40.398   3.866
59785W        W23509  35.913  33.519  13.918
59786W        W23510  31.101  16.116  14.976
59787W        W23511  39.869  43.804   0.327
59788W        W23512  33.451  41.044   1.405
59789W        W23513  14.637  12.651   1.279
59790W        W23514   3.455   9.184  10.517
59791W        W23515  16.752  36.946   2.899
59792W        W23516  43.780  38.949   4.726
59793W        W23517  23.566  17.718  11.941
59794W        W23518  27.540  35.890  13.930
59795W        W23519   1.744  36.559   1.436
59796W        W23520  12.769   1.369   1.409
59797W        W23521  14.160   9.194   3.331
59798W        W23522  11.240  20.145  12.033
59799W        W23523   7.806  31.134  14.350
59800W        W23524  32.069   9.885  14.509
59801W        W23525  13.145   7.812  12.868
59802W        W23526   4.376  17.798   3.343
59803W        W23527  43.936   3.256  11.011
59804W        W23528  43.430  34.518  13.516
59805W        W23529  38.940  28.465   4.811
59806W        W23530  21.230  14.136  14.350
59807W        W23531  29.941  25.119  11.971
59808W        W23532  40.035  10.712  12.841
59809W        W23533  22.573   9.350   3.659
59810W        W23534  21.246  36.007  11.906
59811W        W23535   8.737  14.163  11.600
59812W        W23536  35.958  23.068   1.766
59813W        W23537  20.252  13.646  14.881
59814W        W23538  21.634  30.045   5.693
59815W        W23539  19.089  17.572   4.355
59816W        W23540  16.138   3.372  14.960
59817W        W23541  31.425  39.515  14.382
59818W        W23542  32.112   6.764   2.749
59819W        W23543   7.280   1.446  14.861
59820W        W23544  24.973  28.178  12.374
59821W        W23545  23.066   9.785   2.734
59822W        W23546  16.676  30.977   3.360
59823W        W23547  23.490  10.869  11.411
59824W        W23548  15.634  18.173  13.525
59825W        W23549  34.883  33.933  10.981
59826W        W23550   1.246  41.893  12.884
59827W        W23551  41.005   0.816  11.463
59828W        W23552  44.812  23.612  13.532
59829W        W23553  44.450  14.135  13.819
59830W        W23554   2.449  33.389  14.499
59831W        W23555  35.548  36.492   4.630
59832W        W23556   4.923  12.704   0.933
59833W        W23557  17.632   8.276   4.724
59834W        W23558  21.134  27.659  10.033
59835W        W23559  11.649  22.589   1.326
59836W        W23560   6.898   9.745  11.572
59837W        W23561  38.045   0.260   0.382
59838W        W23562  10.641  20.763   0.791
59839W        W23563  36.045  20.602   3.244
59840W        W23564   4.859  40.332   1.391
59841W        W23565   3.309  14.736   5.166
59842W        W23566   5.697  42.394  11.539
59843W        W23567  43.816  38.835   2.342
59844W        W23568  26.062  18.675  11.893
59845W        W23569  24.650  23.182   3.724
59846W        W23570  21.603  33.909  11.966
59847W        W23571   3.802  26.488   1.323
59848W        W23572  39.830  13.836  12.474
59849W        W23573   9.307  25.534   1.716
59850W        W23574  38.897  17.092   4.339
59851W        W23575  23.156  36.461  12.339
59852W        W23576  25.991   1.381  10.583
59853W        W23577  38.479  25.621  11.857
59854W        W23578   5.315  11.654  10.947
59855W        W23579   8.690  35.586   1.397
59856W        W23580  19.540  18.099   0.854
59857W        W23581   7.711  28.952   4.139
59858W        W23582   9.158  13.290  14.785
59859W        W23583  34.938  16.672   0.942
59860W        W23584  19.092  14.617   4.825
59861W        W23585  37.391   8.181  14.324
59862W        W23586  29.437  24.122   4.621
59863W        W23587  32.572  22.675   1.354
59864W        W23588  15.760  32.392   3.638
59865W        W23589   5.821  15.132   4.824
59866W        W23590  27.940   2.338   1.893
59867W        W23591  25.158  36.873   1.703
59868W        W23592   0.961  40.022  10.943
59869W        W23593  40.400   8.655  11.480
59870W        W23594  41.786   1.405  14.981
59871W        W23595  33.445  26.535   1.340
59872W        W23596  19.779  35.979   0.920
59873W        W23597   4.729  34.468  13.374
59874W        W23598  23.723   5.847  10.471
59875W        W23599  20.191  10.795  10.986
59876W        W23600   1.330  25.536   1.763
59877W        W23601  12.843   3.416  11.517
59878W        W23602  44.381   0.385   4.251
59879W        W23603  25.534  14.256   2.184
59880W        W23604  17.135  28.126  12.069
59881W        W23605   8.717  10.221  10.610
59882W        W23606   6.716  28.563   0.866
59883W        W23607  22.117  39.845  14.287
59884W        W23608  32.611  17.738   0.407
59885W        W23609  43.304  21.041  10.547
59886W        W23610  14.313   6.823   5.104
59887W        W23611  32.086  36.441  12.028
59888W        W23612  33.468   2.357   3.760
59889W        W23613  30.091  19.701  13.498
59890W        W23614  11.313  20.552   0.458
59891W        W23615  27.098  23.673   0.893
59892W        W23616  20.256  27.182   4.309
59893W        W23617   5.203   9.872   5.082
59894W        W23618  18.256  24.167  11.022
59895W        W23619   4.337  40.961   1.882
59896W        W23620  37.560  21.676   3.635
59897W        W23621   6.235  30.992  11.955
59898W        W23622  28.132  43.772  11.897
59899W        W23623  13.225  33.532  12.961
59900W        W23624  26.692   5.741   1.730
59901W        W23625  38.538   1.842  10.617
59902W        W23626  42.857  39.355  11.437
59903W        W23627  12.225  20.102  13.887
59904W        W23628  24.623  22.628  13.859
59905W        W23629  22.171   0.791   2.856
59906W        W23630  29.982   1.481  14.783
59907W        W23631  11.738  28.593   0.354
59908W        W23632  23.122  22.146  11.398
59909W        W23633   4.808  17.219   2.764
59910W        W23634  39.331  32.593  11.412
59911W        W23635  29.037  17.564  14.383
59912W        W23636  10.710  44.964  12.533
59913W        W23637  30.425  21.740   0.269
59914W        W23638   5.404   5.406   1.789
59915W        W23639  23.563  36.949  12.855
59916W        W23640  19.598   7.733   1.316
59917W        W23641  23.192  24.154   1.858
59918W        W23642  38.845  25.667  10.887
59919W        W23643   4.437  16.746   4.306
59920W        W23644  25.158   2.247  11.055
59921W        W23645  33.561  12.260   2.857
59922W        W23646  24.632  32.467   1.424
59923W        W23647  10.806  16.269   3.284
59924W        W23648  22.647  44.997   4.774
59925W        W23649  28.171  36.852  12.940
59926W        W23650  35.080  12.293  12.391
59927W        W23651  40.902   8.842   3.785
59928W        W23652  26.634  42.434  10.582
59929W        W23653  28.655  13.190  13.354
59930W        W23654  34.491  40.374   4.771
59931W        W23655  31.536  38.347   2.882
59932W        W23656  23.094   4.385   1.371
59933W        W23657   1.917  15.231  12.369
59934W        W23658   9.153  41.404   1.414
59935W        W23659  34.909  31.570  12.369
59936W        W23660  33.511  38.535  12.526
59937W        W23661  31.594  19.624   1.911
59938W        W23662   3.763  38.404   1.300
59939W        W23663  15.193  15.640  11.066
59940W        W23664  15.284   8.381  14.016
59941W        W23665  30.120  32.591  11.900
59942W        W23666  38.905  24.640   1.706
59943W        W23667  16.790  21.260  11.431
59944W        W23668  11.281  30.640  10.516
59945W        W23669  42.388  22.603   2.900
59946W        W23670  10.358  23.131   0.786
59947W        W23671  18.729  27.579  11.911
59948W        W23672  34.980   0.284  13.333
59949W        W23673  39.375  44.975   4.306
59950W        W23674  29.941  20.630  13.905
59951W        W23675  28.052   4.213   4.669
59952W        W23676   8.214   9.748   4.340
59953W        W23677   7.883  26.104  12.425
59954W        W23678  38.918   5.195  12.908
59955W        W23679  11.858  31.495  10.967
59956W        W23680  41.292  43.277   0.437
59957W        W23681   0.800  13.775  12.488
59958W        W23682  31.517  40.488   4.631
59959W        W23683  40.946  40.450   0.755
59960W        W23684  33.934  24.495  10.566
59961W        W23685  44.299  19.231  14.825
59962W        W23686  35.895  41.403   0.728
59963W        W23687   4.866  41.374   4.324
59964W        W23688  15.091  44.836   0.331
59965W        W23689  32.447  33.612   1.280
59966W        W23690   2.319  42.363   4.762
59967W        W23691  35.989  33.437   0.749
59968W        W23692  27.146  16.813  14.291
59969W        W23693  42.029   4.314   0.266
59970W        W23694   1.468  19.039  13.943
59971W        W23695  27.955  15.604  11.374
59972W        W23696   9.869  33.398  14.815
59973W        W23697  15.290  26.619  13.534
59974W        W23698  35.037   0.355   3.278
59975W        W23699  31.964  13.249   1.895
59976W        W23700  36.069  39.865  11.472
59977W        W23701   8.271   1.475  11.042
59978W        W23702  37.507   9.308   1.716
59979W        W23703  31.623  28.581   3.664
59980W        W23704   6.752   6.254  12.879
59981W        W23705  25.992  26.148  14.341
59982W        W23706  23.603  20.075   3.755
59983W        W23707  24.654  30.596  14.969
59984W        W23708   5.934  11.748   2.313
59985W        W23709  35.954   8.851   1.335
59986W        W23710  30.070  21.631  12.536
59987W        W23711  10.383  22.205  12.472
59988W        W23712  33.504  22.199  14.395
59989W        W23713  39.937  17.581   0.923
59990W        W23714  23.131  41.349  11.968
59991W        W23715   2.740  17.652  13.432
59992W        W23716  17.583  38.447   0.752
59993W        W23717  13.314  38.326  13.863
59994W        W23718  19.096  31.535  14.939
59995W        W23719  40.037  30.142  13.844
59996W        W23720  24.503  33.436  12.478
59997W        W23721  24.582  33.569  11.014
59998W        W23722  34.969  39.493   2.803
59999W        W23723  42.389   7.787  11.538
60000W        W23724   2.798  38.970  11.070
60001W        W23725  43.416  25.526  13.508
60002W        W23726  39.355   5.323   0.726
60003W        W23727  39.826  39.832   3.266
60004W        W23728  37.057  39.986   1.812
60005W        W23729  26.610  43.957  12.364
60006W        W23730  15.205  25.604  14.374
60007W        W23731  10.670  32.033   1.249
60008W        W23732  17.616   6.373   2.790
60009W        W23733  29.467  29.944  13.441
60010W        W23734  13.147  16.248  13.456
60011W        W23735   2.825  24.524   1.881
60012W        W23736  43.893  39.941  11.911
60013W        W23737  41.537   6.773   1.444
60014W        W23738  43.492  42.503  10.613
60015W        W23739   3.359  42.963   3.333
60016W        W23740   8.285   2.453   1.771
60017W        W23741  41.316  25.488  14.870
60018W        W23742   4.222  33.963   1.896
60019W        W23743  42.781   4.842  14.917
60020W        W23744  19.705  35.095   3.184
60021W        W23745  19.715  31.047  12.461
60022W        W23746   8.695  29.667  14.477
60023W        W23747   0.335   5.816  13.360
60024W        W23748  34.903  15.604  13.942
60025W        W23749  25.163  37.931  11.484
60026W        W23750  29.970  16.150   0.460
60027W        W23751  23.635  40.019   9.986
60028W        W23752   1.434  25.593  11.556
60029W        W23753  36.361  22.077  14.466
60030W        W23754   7.355  34.089  12.466
60031W        W23755  22.681  23.528  13.337
60032W        W23756  16.807   2.773  14.327
60033W        W23757   4.381   1.751   4.207
60034W        W23758  15.756  26.662   0.334
60035W        W23759   3.223  34.610   3.244
60036W        W23760  31.639  25.685  12.501
60037W        W23761  44.991  29.589   3.849
60038W        W23762   2.909  33.562  11.114
60039W        W23763  24.030  16.303  12.910
60040W        W23764  38.433  30.531  13.444
60041W        W23765  42.005  15.708  12.380
60042W        W23766  31.127   5.401  14.762
60043W        W23767   7.412  41.854  14.351
60044W        W23768   7.293  14.232   9.992
60045W        W23769  43.496  14.228   2.698
60046W        W23770  24.635  20.694  10.507
60047W        W23771  17.211  32.903  14.836
60048W        W23772  44.833   4.839  13.349
60049W        W23773  22.166   9.225  14.942
60050W        W23774   9.771   9.750  10.084
60051W        W23775  10.841  38.026   4.677
60052W        W23776   0.444  18.597   4.683
60053W        W23777   5.336  22.140  12.044
60054W        W23778   6.373  23.698   3.791
60055W        W23779  20.256  23.149  10.421
60056W        W23780  23.133   3.768  10.992
60057W        W23781  17.187   3.862   3.796
60058W        W23782  32.459  41.345  13.400
60059W        W23783   3.282   1.968  12.348
60060W        W23784  20.037  26.017  13.054
60061W        W23785  13.815   3.895   1.374
60062W        W23786  33.896   9.882   0.928
60063W        W23787  18.629  41.375  11.867
60064W        W23788  43.423  11.269   2.194
60065W        W23789  36.473  29.034   1.802
60066W        W23790  22.146  19.578  13.541
60067W        W23791  25.622  14.314  10.604
60068W        W23792  27.674  42.850   3.861
60069W        W23793   4.759  33.065  13.884
60070W        W23794  44.766   3.456  12.874
60071W        W23795  24.111  15.147  11.425
60072W        W23796   5.908  15.692  13.363
60073W        W23797   4.239   6.757  10.946
60074W        W23798  20.670   1.747  13.835
60075W        W23799  36.896   6.303  10.522
60076W        W23800  17.134   6.271  10.538
60077W        W23801  12.242   0.762   2.361
60078W        W23802  31.100  33.039  14.867
60079W        W23803  37.992  23.240  14.327
60080W        W23804  26.971  36.506  14.378
60081W        W23805  32.538   6.686   2.665
60082W        W23806   3.718  14.636  13.911
60083W        W23807  19.075  30.077   4.219
60084W        W23808  27.606   3.314  14.933
60085W        W23809  20.608   9.847  11.082
60086W        W23810   0.265  42.874   0.373
60087W        W23811   2.932  23.729  11.092
60088W        W23812  19.136  40.385   4.668
60089W        W23813  33.393  37.572   1.302
60090W        W23814   0.329  39.978   0.310
60091W        W23815   1.936   5.406   1.740
60092W        W23816   3.820  25.188   1.793
60093W        W23817  35.601  20.674  14.925
60094W        W23818   4.709  13.346  14.836
60095W        W23819  25.701  39.960   2.822
60096W        W23820   4.891  38.017   1.748
60097W        W23821  16.652  29.165  10.620
60098W        W23822  14.815   1.768   0.318
60099W        W23823  23.019  44.309  11.529
60100W        W23824  42.316  40.509   2.832
60101W        W23825  42.352   1.871   1.897
60102W        W23826   6.773   3.798  12.927
60103W        W23827  28.449  15.108   4.779
60104W        W23828  10.874  36.569  12.977
60105W        W23829   1.966  21.654   1.767
60106W        W23830  22.543  17.634   1.738
60107W        W23831  41.916  44.501  11.444
60108W        W23832  12.287  19.281   3.255
60109W        W23833  16.272  21.222   9.933
60110W        W23834   0.748  31.998  11.409
60111W        W23835  15.294   6.355  10.934
60112W        W23836   5.844  38.914   4.340
60113W        W23837  23.520  26.579   0.251
60114W        W23838  35.984   3.857  14.357
60115W        W23839  34.940   1.432   2.728
60116W        W23840   8.367  38.040   2.311
60117W        W23841  44.823  38.936  11.087
60118W        W23842  23.165  13.606   1.275
60119W        W23843  17.600  15.253   2.877
60120W        W23844  13.611  22.156  13.951
60121W        W23845   4.230  36.354  14.995
60122W        W23846   3.952  43.458  13.496
60123W        W23847  11.672  19.546  11.544
60124W        W23848  38.876   7.335  14.760
60125W        W23849   8.298  10.798   3.847
60126W        W23850  38.458  36.036  11.585
60127W        W23851  10.764  33.396  11.536
60128W        W23852  32.555  44.344  14.322
60129W        W23853   9.731   8.876   0.335
60130W        W23854  23.646   9.867   3.194
60131W        W23855  28.637   4.944   4.833
60132W        W23856   2.842  34.034  13.498
60133W        W23857  18.073  27.566  13.504
60134W        W23858  14.776  28.484  13.793
60135W        W23859  29.663   3.852  10.623
60136W        W23860   1.447  27.515  13.326
60137W        W23861  44.263  28.592  10.955
60138W        W23862  23.506   1.918   0.377
60139W        W23863  24.635   3.933  12.571
60140W        W23864  35.483  32.491  11.518
60141W        W23865  22.109  43.818  14.981
60142W        W23866  33.900  36.388  14.504
60143W        W23867   8.202  27.108   4.132
60144W        W23868  36.067  26.049  13.467
60145W        W23869   6.361  31.612   3.165
60146W        W23870  36.034  27.685  13.905
60147W        W23871  27.593  15.658   1.871
60148W        W23872  29.104  11.814  13.440
60149W        W23873  42.974  26.480  11.488
60150W        W23874  21.521  28.671   1.409
60151W        W23875  41.894   6.197  13.422
60152W        W23876  31.123  13.635  10.983
60153W        W23877  34.036  21.250   4.618
60154W        W23878  14.131  34.377  11.456
60155W        W23879   0.960  35.515  13.809
60156W        W23880  36.015  16.727   2.679
60157W        W23881  28.018  39.867   0.880
60158W        W23882  34.070  33.076  14.914
60159W        W23883  26.057   5.406  12.902
60160W        W23884  41.375  17.287  13.512
60161W        W23885  36.549  22.643   3.695
60162W        W23886  28.056   8.291   2.732
60163W        W23887  25.651  20.035   1.409
60164W        W23888  41.517  37.052  13.794
60165W        W23889  29.132  34.005  14.967
60166W        W23890  12.177  20.670   1.857
60167W        W23891   7.869   5.248   1.844
60168W        W23892   8.192  15.784   2.296
60169W        W23893  34.448  11.321  14.005
60170W        W23894   8.384  15.122  10.997
60171W        W23895  13.244  30.459  12.975
60172W        W23896  44.956  24.483  11.114
60173W        W23897  31.911  10.798   1.919
60174W        W23898  13.297  30.473  10.117
60175W        W23899  22.163  37.932  12.059
60176W        W23900  31.949   1.451   1.721
60177W        W23901  33.028  41.003   3.739
60178W        W23902  25.036  18.255  10.939
60179W        W23903  23.681  28.505   3.247
60180W        W23904  22.620   4.914   2.188
60181W        W23905  41.394  25.701   0.332
60182W        W23906  31.507  12.332   0.924
60183W        W23907  26.623  21.741   2.742
60184W        W23908  31.420   2.731   0.757
60185W        W23909  11.699  44.403   2.732
60186W        W23910  25.195   3.221  10.073
60187W        W23911  22.573   9.384   4.823
60188W        W23912   2.918  40.508   4.208
60189W        W23913  34.377  20.086  13.464
60190W        W23914  23.032  35.595   3.242
60191W        W23915   2.867   3.384   2.358
60192W        W23916   7.812  38.548  11.111
60193W        W23917  44.425  10.868  14.827
60194W        W23918  29.171  29.121   1.408
60195W        W23919   3.873   1.849   4.241
60196W        W23920  43.783  42.820  14.996
60197W        W23921  41.340  38.405   0.323
60198W        W23922   6.734  28.994   0.746
60199W        W23923  36.537  22.129  10.940
60200W        W23924  16.579  23.095  10.602
60201W        W23925  36.578  18.081   1.907
60202W        W23926  14.709  43.019  12.834
60203W        W23927  30.616  41.513   0.424
60204W        W23928  29.574  14.131   3.751
60205W        W23929  27.016  19.129  14.026
60206W        W23930   2.773  35.886   4.802
60207W        W23931   1.740  24.602  10.541
60208W        W23932  24.113  14.230   2.830
60209W        W23933   3.909  37.416   0.747
60210W        W23934  41.812  13.133  14.293
60211W        W23935  11.806  29.433   4.175
60212W        W23936  17.670   3.852  11.941
60213W        W23937   4.339   2.339  13.537
60214W        W23938  43.365   7.172  11.023
60215W        W23939  27.166  35.437  13.458
60216W        W23940  32.425  18.611  11.458
60217W        W23941  41.865   7.802   2.703
60218W        W23942  35.919  33.430   4.669
60219W        W23943  37.039  13.260  14.387
60220W        W23944  39.426  13.767  11.424
60221W        W23945  24.158  16.092   1.783
60222W        W23946  19.534  44.783   4.652
60223W        W23947  28.084  30.931   4.225
60224W        W23948  31.919   6.683   4.728
60225W        W23949  33.460   7.345   1.232
60226W        W23950  12.205   0.370   4.155
60227W        W23951  23.696  31.463  12.520
60228W        W23952  12.690  43.859   0.325
60229W        W23953   3.756  21.710  11.553
60230W        W23954   5.232   4.882  10.437
60231W        W23955  10.657  33.963   2.184
60232W        W23956  17.773  36.055  12.531
60233W        W23957  21.609   8.202   3.716
60234W        W23958  12.795   1.380  12.426
60235W        W23959  44.297   5.759  14.419
60236W        W23960   0.923  29.531   1.699
60237W        W23961   6.762  38.047   0.915
60238W        W23962  44.820   7.743  12.366
60239W        W23963   9.204   7.849  10.451
60240W        W23964  27.688  39.931  12.474
60241W        W23965  10.699  36.539   3.187
60242W        W23966   2.952  36.478   0.438
60243W        W23967  41.930  41.899  11.580
60244W        W23968   1.743   7.739   0.256
60245W        W23969  17.117  14.107   4.136
60246W        W23970  23.625  40.850  10.927
60247W        W23971  22.735  28.621  11.052
60248W        W23972  35.874  22.009   1.261
60249W        W23973  41.901  34.377   3.310
60250W        W23974  28.064  18.081   3.824
60251W        W23975  18.094  30.454  14.873
60252W        W23976  30.948   1.755   4.338
60253W        W23977  21.194  25.664   1.328
60254W        W23978  22.097  42.901   0.341
60255W        W23979  13.120  25.973  14.492
60256W        W23980   7.300  40.941  14.400
60257W        W23981   5.230  40.935  11.092
60258W        W23982  44.266  29.514  10.952
60259W        W23983  19.596  17.260  11.537
60260W        W23984  39.002  20.674  12.410
60261W        W23985  12.723  40.006  13.392
60262W        W23986  21.089  42.908  11.486
60263W        W23987   4.401  29.027  13.879
60264W        W23988  11.742  31.611  11.555
60265W        W23989  34.872   9.385   0.794
60266W        W23990  12.729   5.194  11.596
60267W        W23991   0.403  27.143   0.948
60268W        W23992   5.866  12.316  12.481
60269W        W23993  14.221  12.829   3.286
60270W        W23994  40.422  41.349  13.813
60271W        W23995  13.170  11.711   9.949
60272W        W23996  41.307  32.404   0.749
60273W        W23997  33.077  24.072   3.361
60274W        W23998  44.267  14.640  11.084
60275W        W23999  28.140  42.975  12.476
60276W        W24000  39.866  37.554   4.317
60277W        W24001  37.409  20.119   2.249
60278W        W24002  29.598   8.278   2.808
60279W        W24003   1.377  36.361   0.824
60280W        W24004  18.248  19.215   0.242
60281W        W24005  28.619  32.901  12.510
60282W        W24006  34.023  41.409   1.875
60283W        W24007   7.364  33.516   1.244
60284W        W24008   5.690  17.614  10.634
60285W        W24009   1.356  14.313   3.864
60286W        W24010  41.527   9.741  11.441
60287W        W24011  16.158  24.150  14.489
60288W        W24012  16.652  19.091   4.234
60289W        W24013  32.058   2.295   2.787
60290W        W24014  20.655  12.205   3.356
60291W        W24015  22.055  15.766  13.380
60292W        W24016  23.510   9.242   4.199
60293W        W24017  14.107   1.793  13.854
60294W        W24018   4.269   5.842  14.919
60295W        W24019  40.034   9.242  11.126
60296W        W24020  20.081   8.325   0.817
60297W        W24021   7.808  37.987   1.438
60298W        W24022  43.805  32.619  10.419
60299W        W24023  36.356   5.690  12.900
60300W        W24024  37.352  12.149   4.797
60301W        W24025  15.655  27.603   0.320
60302W        W24026  29.005  32.564  14.758
60303W        W24027  16.239  14.323  13.456
60304W        W24028   1.263  13.824  13.863
60305W        W24029   8.842   7.904   1.882
60306W        W24030  13.204   1.745  11.015
60307W        W24031  29.059  22.716  13.965
60308W        W24032  18.175   5.225   4.669
60309W        W24033  44.492  38.030  13.977
60310W        W24034   3.282  26.188   3.819
60311W        W24035  27.507   8.172   3.673
60312W        W24036  33.081  22.048   2.275
60313W        W24037   8.882  24.697   4.206
60314W        W24038  15.761  13.619  10.479
60315W        W24039  19.137  24.129  11.486
60316W        W24040  20.552   5.754   2.891
60317W        W24041  12.155  31.490   3.337
60318W        W24042  39.516  29.009  14.377
60319W        W24043  37.038  40.470  13.031
60320W        W24044  37.888  23.720   0.772
60321W        W24045  34.487  18.203   1.242
60322W        W24046  34.960  28.151  13.506
60323W        W24047   2.960  12.640   0.946
60324W        W24048  14.130  31.129  10.581
60325W        W24049  43.383  10.331   0.301
60326W        W24050  33.935  23.206  13.904
60327W        W24051  28.677  21.756   0.949
60328W        W24052   0.778  12.232  11.914
60329W        W24053  27.012  39.057  14.507
60330W        W24054   1.907  32.076   3.663
60331W        W24055   9.817   8.235  14.766
60332W        W24056  34.396  12.354  10.547
60333W        W24057  34.036  12.134   2.771
60334W        W24058   3.432   5.348  14.029
60335W        W24059  24.621  42.352   0.409
60336W        W24060  13.693   5.892   1.892
60337W        W24061   7.769  33.998   3.349
60338W        W24062  33.423  35.027   3.826
60339W        W24063   8.696  29.100  13.503
60340W        W24064  24.664  29.173  11.448
60341W        W24065  30.416  44.884   2.288
60342W        W24066  32.894  26.601   4.222
60343W        W24067   5.909   1.814   0.917
60344W        W24068  27.498  34.582   2.796
60345W        W24069   9.375   5.384   0.318
60346W        W24070  10.644  40.310  13.362
60347W        W24071  23.531  25.104  13.826
60348W        W24072  32.433  35.908  10.566
60349W        W24073  19.238  40.389  12.919
60350W        W24074  20.561  35.040   3.829
60351W        W24075  18.132  36.030   0.249
60352W        W24076   4.836   0.301   4.297
60353W        W24077  44.969   9.199  11.919
60354W        W24078  24.139   3.783   0.874
60355W        W24079   4.332  22.573   1.227
60356W        W24080  31.942  25.042   3.218
60357W        W24081  43.473  11.359   0.871
60358W        W24082  24.200  30.010  13.421
60359W        W24083   5.743  30.123  10.526
60360W        W24084  19.538   4.775  12.854
60361W        W24085  44.477  34.413   0.833
60362W        W24086  13.252   2.461  14.293
60363W        W24087  16.084  22.630   3.632
60364W        W24088   8.687  21.261  14.031
60365W        W24089  25.696  21.741   0.852
60366W        W24090  34.542  25.602   0.930
60367W        W24091  32.439   5.253   0.773
60368W        W24092   9.864  36.491   4.829
60369W        W24093  21.715  39.887   2.390
60370W        W24094   1.453  39.890  14.355
60371W        W24095  18.765  26.040  11.947
60372W        W24096  27.478  43.908   3.274
60373W        W24097  42.865  36.593  13.401
60374W        W24098  34.458  10.297   0.955
60375W        W24099  22.690  20.579   2.841
60376W        W24100  27.490   9.308   9.549
60377W        W24101  34.951  41.313  14.398
60378W        W24102   4.824  34.392   0.765
60379W        W24103  44.883  25.058  12.082
60380W        W24104  19.618  30.127   0.275
60381W        W24105   8.701  19.233   0.475
60382W        W24106  29.629   3.438   3.865
60383W        W24107   5.343  39.314   1.722
60384W        W24108  24.163  24.207  11.495
60385W        W24109   1.365  36.923   4.712
60386W        W24110  18.171  33.132  14.015
60387W        W24111   2.403   2.446  12.489
60388W        W24112   2.869  25.979   3.756
60389W        W24113  22.722  43.399  14.878
60390W        W24114  28.997  35.458   2.300
60391W        W24115  20.233  12.333  11.989
60392W        W24116   7.832  38.024  13.464
60393W        W24117  10.735  43.793  13.040
60394W        W24118  21.170  29.662   2.284
60395W        W24119  19.603  41.483   1.227
60396W        W24120  23.531   8.225   3.755
60397W        W24121   4.712   1.315   0.908
60398W        W24122  11.732  35.079  14.425
60399W        W24123  14.695   5.225  11.427
60400W        W24124  36.079  28.974  13.806
60401W        W24125  24.501  38.896   1.274
60402W        W24126  38.854  13.321   1.817
60403W        W24127  41.876   2.784  11.515
60404W        W24128   3.452   3.830   1.716
60405W        W24129  20.603  29.575  13.867
60406W        W24130  18.611  31.028   1.737
60407W        W24131  40.392  38.839   0.390
60408W        W24132  14.797  41.905   1.370
60409W        W24133  34.040  15.590  12.960
60410W        W24134  40.465  39.557   3.174
60411W        W24135  15.758  11.858  12.470
60412W        W24136  23.615  14.205  14.971
60413W        W24137  19.631  36.428   4.244
60414W        W24138  36.041   1.307   1.264
60415W        W24139   6.705  24.678  12.969
60416W        W24140   2.425  17.132  10.532
60417W        W24141  29.426  40.985  14.921
60418W        W24142  40.958  38.038   2.784
60419W        W24143  31.629  35.007   0.959
60420W        W24144  21.170  38.942   3.210
60421W        W24145  18.241  38.041  12.888
60422W        W24146  35.473   8.884  13.849
60423W        W24147  41.836  19.176   2.394
60424W        W24148   8.165  16.137   0.305
60425W        W24149  40.941  22.502   0.942
60426W        W24150  27.598  43.804   4.216
60427W        W24151  26.153  26.508   0.961
60428W        W24152  23.658  37.406  13.490
60429W        W24153  28.030  18.762  13.895
60430W        W24154   0.346   2.263  13.365
60431W        W24155  25.096  35.019  12.986
60432W        W24156  23.654  32.412   1.728
60433W        W24157  35.970  43.270   2.662
60434W        W24158   7.689  16.717   1.355
60435W        W24159  29.069  44.361   3.824
60436W        W24160  41.462   2.770   2.395
60437W        W24161  44.959  35.860  11.867
60438W        W24162  30.970  30.061   0.434
60439W        W24163  30.086  21.651   1.239
60440W        W24164   5.437   4.771  12.569
60441W        W24165  26.469  35.483   1.830
60442W        W24166  24.168   2.896  11.916
60443W        W24167  28.102  37.976  10.523
60444W        W24168  38.013  25.566  11.001
60445W        W24169  17.682  29.429  12.372
60446W        W24170   9.210  44.392   2.863
60447W        W24171  27.490  11.833  11.889
60448W        W24172  30.472  19.104  13.520
60449W        W24173   7.826  14.101  12.854
60450W        W24174  38.552  25.539   0.879
60451W        W24175  28.019  18.741  11.428
60452W        W24176   6.257  16.791   1.399
60453W        W24177   9.213  41.989  14.820
60454W        W24178  23.673  19.690  11.598
60455W        W24179  10.288  28.935   0.932
60456W        W24180  22.236  26.602  10.626
60457W        W24181  10.673  13.692   2.267
60458W        W24182   0.890   0.754   0.730
60459W        W24183  35.604  25.149   3.241
60460W        W24184   0.362  28.964  10.583
60461W        W24185  17.112  12.620   4.308
60462W        W24186  20.037  35.571  14.983
60463W        W24187  32.410  41.905  11.055
60464W        W24188  33.974  36.479  13.931
60465W        W24189  16.783   2.840   0.955
60466W        W24190   1.280  42.404   3.300
60467W        W24191  32.089   9.348   3.171
60468W        W24192  43.285  39.486   2.780
60469W        W24193  40.903  33.562   4.712
60470W        W24194  16.710   5.398   0.423
60471W        W24195  28.028  42.928  10.037
60472W        W24196  32.130  43.390   4.633
60473W        W24197  25.210  39.921   2.302
60474W        W24198  24.492  13.133   4.822
60475W        W24199  28.436  22.114   3.349
60476W        W24200  30.047  42.372  10.410
60477W        W24201   5.222  22.123  13.830
60478W        W24202  41.828  26.580  14.427
60479W        W24203   7.318  19.767   0.283
60480W        W24204  35.460  35.040   2.254
60481W        W24205  24.034  25.998  13.418
60482W        W24206   6.410  43.888  10.616
60483W        W24207  36.073   8.888   4.192
60484W        W24208  33.929  40.434   1.344
60485W        W24209  41.339  11.820   4.703
60486W        W24210  43.907  21.124   0.258
60487W        W24211  42.950   5.866   2.305
60488W        W24212  20.053   2.313   3.168
60489W        W24213  16.286  14.289  14.024
60490W        W24214  12.751  20.769  12.919
60491W        W24215  13.683  18.085  11.882
60492W        W24216   0.356   1.923   4.198
60493W        W24217  19.552  22.116  11.089
60494W        W24218  43.909  40.397   2.753
60495W        W24219  18.772  22.052   2.678
60496W        W24220  12.168   1.784   0.459
60497W        W24221  13.604  41.977  11.918
60498W        W24222  23.730  33.578  11.483
60499W        W24223  18.171  37.925   1.382
60500W        W24224   3.355  29.034   3.849
60501W        W24225  35.971  16.635   2.328
60502W        W24226  29.936   7.690   2.253
60503W        W24227  16.748  38.539   1.359
60504W        W24228  37.996  39.007  13.344
60505W        W24229  30.966  25.004   5.196
60506W        W24230   3.267   4.849  10.962
60507W        W24231  14.828  42.292   4.611
60508W        W24232  19.752  24.686  10.563
60509W        W24233  32.006  26.161   0.264
60510W        W24234  17.707  13.226  10.511
60511W        W24235  24.068  32.575  10.506
60512W        W24236  19.587   0.946  14.336
60513W        W24237  39.394  37.931   1.769
60514W        W24238  33.885  22.131   1.419
60515W        W24239  26.629  34.007  13.047
60516W        W24240  24.170   4.763  11.060
60517W        W24241   2.354  16.180  11.092
60518W        W24242   1.483  12.851   4.748
60519W        W24243  31.020   0.974   1.380
60520W        W24244   3.731  43.807  11.386
60521W        W24245  11.767  36.919  13.969
60522W        W24246  37.503   7.809  11.395
60523W        W24247  23.082   2.367  12.447
60524W        W24248  42.795  14.693   2.666
60525W        W24249  24.686  24.625   1.880
60526W        W24250  17.201  22.064   0.387
60527W        W24251  18.787  37.462  13.915
60528W        W24252   2.368  41.315   9.930
60529W        W24253  39.325  20.690   0.300
60530W        W24254  35.000  35.064   3.370
60531W        W24255  12.633   4.781  11.533
60532W        W24256  36.372  33.047  14.383
60533W        W24257  14.759  26.124   4.158
60534W        W24258  13.115   3.853  14.883
60535W        W24259  34.396  28.972  14.378
60536W        W24260  15.691  33.619  12.987
60537W        W24261  26.483  23.115  12.002
60538W        W24262   5.346  29.992   3.683
60539W        W24263  25.507  44.931   1.845
60540W        W24264  33.387   3.445  14.808
60541W        W24265   5.927   9.377  10.440
60542W        W24266   6.235  11.834   2.699
60543W        W24267  43.768  38.059   4.688
60544W        W24268  16.703  24.573  13.841
60545W        W24269  41.807   2.818   2.311
60546W        W24270  26.967  41.525  13.045
60547W        W24271  19.683   0.271  12.039
60548W        W24272  18.756  24.117   0.845
60549W        W24273  31.007  12.717   4.347
60550W        W24274  28.969   6.332  14.483
60551W        W24275  38.860  36.966   3.314
60552W        W24276  13.756   5.304  13.537
60553W        W24277  44.854  36.036   5.204
60554W        W24278  13.128  40.433   1.412
60555W        W24279  38.496  31.909   4.250
60556W        W24280  30.928  39.060   2.795
60557W        W24281   1.341   8.837  12.547
60558W        W24282  11.174  44.388   0.410
60559W        W24283  32.432  34.948   3.259
60560W        W24284  31.605  39.424  11.054
60561W        W24285  25.978  35.988  11.914
60562W        W24286  26.009  35.540  12.506
60563W        W24287  28.997  32.527  10.911
60564W        W24288  17.063  33.443   4.148
60565W        W24289  10.148  18.198  12.455
60566W        W24290  17.263  35.910   5.145
60567W        W24291  37.074   5.389  11.388
60568W        W24292   9.678  21.241  13.540
60569W        W24293  18.546  13.719   5.303
60570W        W24294  13.266  11.686   3.189
60571W        W24295   6.277  16.243  13.462
60572W        W24296  37.972  33.462   4.792
60573W        W24297   9.190  18.132  13.513
60574W        W24298  24.708   2.887  11.607
60575W        W24299  24.573  18.552  14.827
60576W        W24300   8.730  40.895  12.542
60577W        W24301  26.154  39.364  10.479
60578W        W24302   0.968  17.209   4.304
60579W        W24303  22.015   4.830  13.882
60580W        W24304  18.736  43.018   0.737
60581W        W24305  26.683  12.852   0.332
60582W        W24306  37.030  12.253  11.389
60583W        W24307  29.590   2.362   4.657
60584W        W24308  21.045  24.657  13.006
60585W        W24309  21.734  19.746   2.776
60586W        W24310  39.994  25.200   1.729
60587W        W24311  14.279   7.867  11.464
60588W        W24312  39.808  40.373   5.163
60589W        W24313  15.814  22.723  13.019
60590W        W24314   6.218   2.936   1.880
60591W        W24315  32.049  18.609   0.758
60592W        W24316   0.982  26.695  13.528
60593W        W24317  38.926  32.600  12.833
60594W        W24318   3.386  12.237   1.722
60595W        W24319   4.706  12.787   1.830
60596W        W24320  17.671  13.707   5.181
60597W        W24321  18.568  11.865   5.103
60598W        W24322   7.788  33.084   1.749
60599W        W24323  40.014  31.581   2.320
60600W        W24324  37.968  15.601   0.478
60601W        W24325  16.217   9.660   0.450
60602W        W24326  38.853  41.796   1.261
60603W        W24327  27.573  40.533  11.582
60604W        W24328  36.377  21.087   4.626
60605W        W24329   2.350  30.450   1.248
60606W        W24330  34.048  39.556   2.897
60607W        W24331  13.342  24.509   1.818
60608W        W24332  14.148  10.251   0.922
60609W        W24333   6.872  25.008  11.488
60610W        W24334   2.343  11.770  11.915
60611W        W24335  34.611  16.232  14.938
60612W        W24336  26.700   7.740   4.688
60613W        W24337   9.794  19.232  14.412
60614W        W24338  33.906  10.163  14.907
60615W        W24339  24.684  41.426   0.284
60616W        W24340   6.318   2.948  12.541
60617W        W24341  44.395  40.853   3.182
60618W        W24342  26.470  19.583   1.418
60619W        W24343  29.665   3.942   3.713
60620W        W24344  44.809  11.305   2.307
60621W        W24345  18.667   0.751   1.757
60622W        W24346   8.832  33.432  14.323
60623W        W24347  19.709  12.830   0.475
60624W        W24348  22.632   5.213  11.003
60625W        W24349  31.084  33.562   0.287
60626W        W24350  12.703  11.195   0.831
60627W        W24351  33.110  28.436  13.360
60628W        W24352  30.452  44.292   1.390
60629W        W24353   8.820   3.288  11.095
60630W        W24354   4.879  25.045  13.037
60631W        W24355  17.744  20.567   1.788
60632W        W24356  30.950   6.889  11.019
60633W        W24357  40.454  38.051   4.681
60634W        W24358  31.901  34.969   1.421
60635W        W24359  28.975  28.041   4.293
60636W        W24360  20.570  13.809  14.878
60637W        W24361  26.052  32.064   4.760
60638W        W24362  38.058  39.420  14.989
60639W        W24363  20.549  33.514  12.357
60640W        W24364  22.239  32.889   3.385
60641W        W24365  26.179  20.554   2.680
60642W        W24366   8.725   1.863   0.801
60643W        W24367  33.499  36.476  12.949
60644W        W24368   3.330  21.748  14.334
60645W        W24369  16.605   2.358  13.339
60646W        W24370   7.828  36.994  12.340
60647W        W24371   7.297  30.160   2.668
60648W        W24372  21.044   2.891   1.390
60649W        W24373  35.602  37.993  13.042
60650W        W24374  23.163   7.883  14.023
60651W        W24375  44.384  41.942  13.936
60652W        W24376  22.664   2.298  11.470
60653W        W24377   7.353   8.729   1.377
60654W        W24378   9.214  18.695   4.183
60655W        W24379  30.916  39.055  12.041
60656W        W24380  25.622  10.290   9.959
60657W        W24381   4.893  44.401  12.521
60658W        W24382  34.487  18.263  12.918
60659W        W24383  18.206   3.866   2.710
60660W        W24384  12.336  18.050   0.744
60661W        W24385   0.861  35.446  14.871
60662W        W24386   5.831  33.074  14.879
60663W        W24387  35.086  37.954  13.007
60664W        W24388  17.288   8.369   0.777
60665W        W24389  40.885  13.140   2.805
60666W        W24390  33.417   7.849   2.186
60667W        W24391  32.118  17.135   3.263
60668W        W24392   0.331  38.326  12.402
60669W        W24393  39.848   0.789   3.235
60670W        W24394  11.361  30.647   2.836
60671W        W24395   2.943  42.949   3.266
60672W        W24396  36.877  44.395  11.016
60673W        W24397  44.278  36.347   3.314
60674W        W24398  33.054   8.794   0.817
60675W        W24399  15.201  20.224   2.303
60676W        W24400  11.352  31.498   4.690
60677W        W24401   7.407   5.701   1.927
60678W        W24402  21.639  16.622   1.910
60679W        W24403  31.065  44.415  13.862
60680W        W24404  41.459  34.058  11.471
60681W        W24405  15.116  30.085   1.879
60682W        W24406  35.868   5.898  13.886
60683W        W24407  14.171  21.017   3.289
60684W        W24408  34.037  34.431  12.509
60685W        W24409  22.538  26.612  14.326
60686W        W24410  34.591  43.894  14.906
60687W        W24411   3.767  43.875  14.956
60688W        W24412  31.073  31.081  13.449
60689W        W24413   0.427  16.204   2.306
60690W        W24414   6.704  35.097   3.812
60691W        W24415  10.352   3.261  12.011
60692W        W24416  15.651  11.214   3.837
60693W        W24417  30.089  40.882   0.772
60694W        W24418   4.734  15.672  14.911
60695W        W24419   8.655  13.347  14.355
60696W        W24420  13.830   5.720   5.762
60697W        W24421  28.491   5.879  12.435
60698W        W24422   3.870   3.271  11.042
60699W        W24423  21.120  37.338   1.259
60700W        W24424  43.851   3.326  11.564
60701W        W24425   0.381  28.036  10.917
60702W        W24426   5.825  10.802   2.675
60703W        W24427   6.383  13.703   2.309
60704W        W24428   8.705  42.426  11.864
60705W        W24429   0.767  12.357  11.097
60706W        W24430   3.416  19.134   4.677
60707W        W24431   2.311  22.625  13.437
60708W        W24432  44.335   1.907   4.834
60709W        W24433   7.310   0.779   3.146
60710W        W24434  34.054   6.854   2.813
60711W        W24435  38.990  16.692   4.736
60712W        W24436  26.514   0.360  13.496
60713W        W24437  41.877  16.571   3.295
60714W        W24438  36.098  36.517  12.824
60715W        W24439  21.185  32.039  10.128
60716W        W24440  32.139  11.717   0.359
60717W        W24441   5.243  32.006  10.888
60718W        W24442   6.262  31.481   4.722
60719W        W24443  18.073  13.322   2.851
60720W        W24444  25.626  22.148  10.451
60721W        W24445   2.394  43.889   2.405
60722W        W24446  11.809  43.402   2.762
60723W        W24447  20.599  34.473  12.454
60724W        W24448  35.540  12.844   3.208
60725W        W24449  20.703  32.028   4.125
60726W        W24450  15.635  35.063   3.308
60727W        W24451  26.951  19.218  10.419
60728W        W24452  12.298  43.793   4.836
60729W        W24453  44.004  26.053   0.481
60730W        W24454   7.727   3.281  13.418
60731W        W24455   4.721  44.481   5.254
60732W        W24456  35.402  38.063  12.458
60733W        W24457  43.889  22.510  13.910
60734W        W24458  30.570  37.899  14.326
60735W        W24459  17.753  24.110   3.784
60736W        W24460  43.873   0.821  10.959
60737W        W24461  10.724   7.360  11.005
60738W        W24462   6.849  11.834  14.947
60739W        W24463  27.150  11.855   1.826
60740W        W24464   7.255   9.852   3.349
60741W        W24465  16.316   8.752   4.721
60742W        W24466   4.439  38.946  12.085
60743W        W24467  40.811  28.116   3.300
60744W        W24468  31.476   1.459  11.587
60745W        W24469   1.832  40.829   3.355
60746W        W24470   8.753  16.294  14.997
60747W        W24471   3.307  35.414  11.376
60748W        W24472  23.658  13.245  14.409
60749W        W24473  44.476  20.223  13.529
60750W        W24474   2.871  32.113  13.336
60751W        W24475  33.534  39.873  14.299
60752W        W24476   6.813  34.935  10.598
60753W        W24477   2.888  15.263  14.369
60754W        W24478   6.792  40.528   3.255
60755W        W24479  35.860  44.303   4.672
60756W        W24480  24.082  42.364  14.996
60757W        W24481  17.704  39.904   0.478
60758W        W24482   2.814   2.737   2.781
60759W        W24483  43.894   1.319  14.817
60760W        W24484   2.319   7.839  11.445
60761W        W24485  39.376  13.282  12.553
60762W        W24486  14.120  17.642  13.798
60763W        W24487  25.650   6.219   4.836
60764W        W24488  40.303   6.409  14.515
60765W        W24489  41.805  19.265   0.407
60766W        W24490  32.569  33.939  14.914
60767W        W24491  29.426  24.146  14.972
60768W        W24492  44.935  41.971   0.911
60769W        W24493   6.733  35.063   2.701
60770W        W24494  23.129   9.806  14.505
60771W        W24495  36.008   2.764  14.851
60772W        W24496  22.599  28.104   0.280
60773W        W24497   9.882  36.364  11.027
60774W        W24498  24.617  26.668   3.801
60775W        W24499  44.864   3.442   3.262
60776W        W24500  30.422   9.323  10.599
60777W        W24501  11.846   3.398  12.403
60778W        W24502  39.057  42.420  14.880
60779W        W24503  12.261  37.537  11.538
60780W        W24504  20.570   6.251  12.891
60781W        W24505  34.040  18.707   0.398
60782W        W24506  40.395  18.179  12.462
60783W        W24507  31.018   8.186  11.500
60784W        W24508  14.197  15.646  10.425
60785W        W24509  28.654  13.671   3.739
60786W        W24510  22.653   1.843   0.777
60787W        W24511  29.466  39.975   4.711
60788W        W24512  13.644  36.093   3.224
60789W        W24513  28.031  41.405   2.847
60790W        W24514  14.791  19.558   1.740
60791W        W24515  27.462  40.014  14.794
60792W        W24516  13.323  29.560   1.797
60793W        W24517  36.949  10.734   3.841
60794W        W24518  18.098  39.442   2.865
60795W        W24519   9.192   9.279  14.781
60796W        W24520   3.798  35.958  13.415
60797W        W24521  21.250  25.048   0.819
60798W        W24522  27.530  20.573  14.877
60799W        W24523  42.525  30.561   3.386
60800W        W24524   3.737  37.439  14.453
60801W        W24525  28.518  10.297  12.880
60802W        W24526  16.749   7.206   3.149
60803W        W24527  27.558  30.039  13.048
60804W        W24528  15.697  10.643   2.779
60805W        W24529  35.932  35.030  10.960
60806W        W24530  15.739  36.477   3.638
60807W        W24531  11.685   8.845   1.798
60808W        W24532  34.067  32.110  12.939
60809W        W24533   9.377  10.750   0.798
60810W        W24534  23.705  10.354  11.079
60811W        W24535   4.732  14.139   0.937
60812W        W24536  34.971  18.239   0.811
60813W        W24537  42.398   2.751  12.870
60814W        W24538  24.155  36.974  11.078
60815W        W24539  21.255  25.112   0.306
60816W        W24540   0.815  30.535   1.799
60817W        W24541  26.684  20.592  11.105
60818W        W24542  18.638  27.490  14.858
60819W        W24543   7.402  40.902  10.557
60820W        W24544  34.404  39.318   3.265
60821W        W24545   8.777  35.370   3.315
60822W        W24546  11.781  34.581  14.353
60823W        W24547   8.368  15.161  10.629
60824W        W24548  42.831  23.535   0.781
60825W        W24549  37.950   6.391   4.744
60826W        W24550  12.769  44.436  13.945
60827W        W24551  36.359  22.591  14.361
60828W        W24552  43.991  34.066   2.799
60829W        W24553  16.149  29.437   0.335
60830W        W24554  34.442  18.682   3.707
60831W        W24555  32.037  12.850   0.872
60832W        W24556  16.297  19.102  11.994
60833W        W24557  25.613  42.992   0.860
60834W        W24558  42.298  27.943  12.865
60835W        W24559  42.427  12.613   3.763
60836W        W24560   7.854  16.102   0.851
60837W        W24561  30.032  40.028  11.887
60838W        W24562  16.267  25.541  14.870
60839W        W24563  23.127  20.741  14.802
60840W        W24564  34.969  34.403  13.348
60841W        W24565  18.691  30.976  10.595
60842W        W24566  40.857  31.048   3.646
60843W        W24567  17.261  34.442   0.843
60844W        W24568  19.634   6.258   5.282
60845W        W24569  30.065   3.459   4.609
60846W        W24570  11.320   0.348   3.816
60847W        W24571  44.847  26.992  12.931
60848W        W24572   1.383  35.497   4.823
60849W        W24573  12.156  20.648   1.375
60850W        W24574  31.094  17.107  14.310
60851W        W24575  42.844  10.668   0.277
60852W        W24576  11.748  14.645   2.338
60853W        W24577  28.638  41.448  10.919
60854W        W24578  36.859  40.841  14.015
60855W        W24579  13.234  24.986   0.468
60856W        W24580  13.718  43.310  14.445
60857W        W24581  19.728  24.657  12.028
60858W        W24582   8.704  37.576  11.416
60859W        W24583   9.301  14.314   5.260
60860W        W24584  41.034  36.981  14.470
60861W        W24585  26.687  39.812  13.003
60862W        W24586  36.869  23.723  12.438
60863W        W24587   7.828  16.661   0.258
60864W        W24588  18.619  17.253   3.849
60865W        W24589  33.932  29.534  12.537
60866W        W24590  40.425  37.857   3.827
60867W        W24591   8.166   8.876   3.815
60868W        W24592  24.007  28.659   3.221
60869W        W24593  34.435  26.134   4.804
60870W        W24594  18.731  15.091  14.854
60871W        W24595  40.360  40.472  10.462
60872W        W24596  10.354  28.056   2.811
60873W        W24597  43.348   2.909   2.227
60874W        W24598  17.711  13.322   0.914
60875W        W24599   0.767  25.536   0.471
60876W        W24600  12.145   9.357   4.803
60877W        W24601   9.794  35.431   4.224
60878W        W24602  29.965   1.387   3.679
60879W        W24603  31.420  33.584   2.772
60880W        W24604  15.224  29.967  10.919
60881W        W24605  40.507  25.507  13.844
60882W        W24606  37.853  37.337   1.897
60883W        W24607   8.264   4.345   2.703
60884W        W24608  18.694  40.919  12.932
60885W        W24609  18.288  32.097  10.901
60886W        W24610  32.518  20.639   3.247
60887W        W24611   9.765  42.414   1.439
60888W        W24612  41.435  43.338   3.718
60889W        W24613  44.764  41.529   1.799
60890W        W24614   7.214  36.433   2.806
60891W        W24615  39.916  37.579  13.516
60892W        W24616  42.966  38.400  13.047
60893W        W24617  31.090  25.209   4.286
60894W        W24618  36.009   2.440  11.901
60895W        W24619  10.814  35.067  12.019
60896W        W24620  34.986  38.558   0.805
60897W        W24621  39.506  43.272   3.330
60898W        W24622  12.190  44.889   4.142
60899W        W24623  40.468  20.267  11.440
60900W        W24624  21.088  26.581  11.520
60901W        W24625  21.624  26.193  11.022
60902W        W24626  13.336  36.433   3.633
60903W        W24627  15.185   3.891   1.888
60904W        W24628  29.944  37.551   0.878
60905W        W24629  30.648  32.985   2.295
60906W        W24630  18.262  22.615  11.053
60907W        W24631  37.869  35.434  10.420
60908W        W24632   0.835   2.410   2.215
60909W        W24633  28.627  26.077  11.442
60910W        W24634   3.846  32.055  10.612
60911W        W24635  18.061  27.598   2.260
60912W        W24636   0.267   2.283   3.796
60913W        W24637  10.771  11.693   1.301
60914W        W24638  40.481  34.086  13.056
60915W        W24639  12.130  34.600  13.802
60916W        W24640   8.359  42.337   2.736
60917W        W24641  24.686   3.920  11.534
60918W        W24642   0.774  28.962   0.297
60919W        W24643  19.639  18.727   1.854
60920W        W24644  27.468  30.995   0.370
60921W        W24645  31.098   1.778  10.095
60922W        W24646  37.996  30.053  12.458
60923W        W24647  28.137  38.956  11.378
60924W        W24648  11.327   0.828   4.719
60925W        W24649   8.736  32.577   0.292
60926W        W24650   1.902  13.695  11.891
60927W        W24651   3.757  44.391  10.623
60928W        W24652  39.889  29.611  11.385
60929W        W24653  10.335  25.630  14.982
60930W        W24654   3.438   2.449  10.458
60931W        W24655   9.362   0.910  12.071
60932W        W24656   6.822  32.606  14.937
60933W        W24657  40.023  24.209   3.646
60934W        W24658  40.799  12.154   4.317
60935W        W24659   6.901  13.614   4.234
60936W        W24660  30.928  36.383   4.804
60937W        W24661  23.573  42.488   2.692
60938W        W24662   2.309   7.841  12.381
60939W        W24663   3.269  25.216  13.335
60940W        W24664  25.145   3.730  11.420
60941W        W24665  36.906  43.899   1.236
60942W        W24666  33.940   9.202  11.549
60943W        W24667  38.384  15.695   1.329
60944W        W24668  29.606  21.647  10.505
60945W        W24669  23.544   3.919   2.840
60946W        W24670  33.965  21.605  12.845
60947W        W24671  42.395  33.426  11.978
60948W        W24672   8.343  19.568  14.766
60949W        W24673  22.537  32.606  11.995
60950W        W24674   5.288  19.721   1.794
60951W        W24675  12.192  30.955   3.355
60952W        W24676  33.085  41.940   0.446
60953W        W24677  26.126  35.864   4.337
60954W        W24678  25.623  34.928   2.288
60955W        W24679   8.279  14.210   1.754
60956W        W24680   7.874  34.485   0.282
60957W        W24681  14.285  33.962  12.986
60958W        W24682  15.214   7.202  14.411
60959W        W24683   9.889  37.893   3.839
60960W        W24684  26.162  28.639   1.807
60961W        W24685   7.854   4.878  11.474
60962W        W24686  41.489   9.852  10.525
60963W        W24687  39.499  11.226   2.814
60964W        W24688  14.290  18.123   3.151
60965W        W24689  42.474  37.433  14.849
60966W        W24690  28.510   5.309  11.124
60967W        W24691  25.581  16.678  10.440
60968W        W24692   1.468  29.426  11.073
60969W        W24693  29.639  18.132   2.342
60970W        W24694  28.032  33.980  13.395
60971W        W24695  36.507   8.284  12.909
60972W        W24696  24.048  13.643  11.537
60973W        W24697  12.230  32.496  12.389
60974W        W24698  28.092   2.455  13.853
60975W        W24699   1.278  13.826  11.082
60976W        W24700  16.299  34.079  13.807
60977W        W24701  21.019  42.331   2.813
60978W        W24702  20.233   1.454   4.166
60979W        W24703  19.586   3.857   3.738
60980W        W24704  41.930  25.477   4.189
60981W        W24705  44.415  34.027   1.764
60982W        W24706  41.043  31.010  11.912
60983W        W24707  39.524  25.515  14.982
60984W        W24708  41.417   4.709   4.198
60985W        W24709  29.549  44.901  12.024
60986W        W24710  29.006  29.646  14.295
60987W        W24711  37.560  33.465   5.301
60988W        W24712  17.577  10.177  11.988
60989W        W24713  38.010   8.758   4.143
60990W        W24714  21.622  17.619   1.742
60991W        W24715  44.895  35.570  14.463
60992W        W24716   3.771   3.399   3.811
60993W        W24717  27.485   9.803   4.313
60994W        W24718  20.543  19.567   3.752
60995W        W24719  24.483  38.526  10.620
60996W        W24720  29.073   6.228   3.168
60997W        W24721  27.035  30.463  13.857
60998W        W24722  12.806  10.341  13.820
60999W        W24723  44.998  28.010  10.895
61000W        W24724  39.943  10.145  14.507
61001W        W24725  13.278   3.879   2.398
61002W        W24726  15.588   3.897   3.642
61003W        W24727   4.805   2.232   2.286
61004W        W24728  33.050  25.567  14.284
61005W        W24729  12.179  33.985  12.471
61006W        W24730   9.851  31.993  14.007
61007W        W24731  38.498   8.660  13.897
61008W        W24732  15.282  11.785  10.926
61009W        W24733  31.008  11.139  12.000
61010W        W24734  13.294   6.243  14.326
61011W        W24735  24.479   1.388  12.087
61012W        W24736  16.267  26.006   4.834
61013W        W24737  22.131  43.007   4.338
61014W        W24738  41.373  22.616   2.903
61015W        W24739  20.605  31.579   4.809
61016W        W24740   0.305  23.600  11.958
61017W        W24741  32.095   7.806   0.856
61018W        W24742  44.444  32.621   3.860
61019W        W24743  22.136   8.748   4.710
61020W        W24744  37.447   5.280   0.348
61021W        W24745  35.555  16.144  11.060
61022W        W24746  44.921  32.897  11.128
61023W        W24747   9.743  30.432   4.616
61024W        W24748  19.672  41.015   0.824
61025W        W24749  15.796  32.449   0.329
61026W        W24750  18.778  38.451  13.529
61027W        W24751   9.797  21.260   4.259
61028W        W24752  18.610  23.190  10.515
61029W        W24753  11.244  25.058   0.282
61030W        W24754  24.075   1.776   3.313
61031W        W24755   7.224   4.383   2.691
61032W        W24756  39.338  24.639  14.877
61033W        W24757  17.143  22.119  14.853
61034W        W24758  15.326  33.498   2.354
61035W        W24759  33.546  33.071   4.320
61036W        W24760   1.769  23.186   4.700
61037W        W24761   2.850  40.520   1.746
61038W        W24762  33.498  27.586   4.780
61039W        W24763   1.883  24.076  14.379
61040W        W24764   4.911  26.077   9.968
61041W        W24765   6.923  27.688  11.467
61042W        W24766  33.935  12.769   4.754
61043W        W24767   2.318  21.150   0.920
61044W        W24768   4.442   0.781   3.658
61045W        W24769  42.291  27.092  13.363
61046W        W24770   4.314  30.657   4.823
61047W        W24771  33.422   5.277   2.376
61048W        W24772  28.976  17.682   1.766
61049W        W24773   8.238  38.075   0.312
61050W        W24774   2.337  11.216   3.738
61051W        W24775  32.582  25.634   2.286
61052W        W24776  17.303   7.233   0.383
61053W        W24777  25.493  37.846   0.813
61054W        W24778  29.582  33.933   2.797
61055W        W24779  21.237   8.321   0.440
61056W        W24780  38.001  34.041   3.833
61057W        W24781  41.512  16.626  14.350
61058W        W24782  31.610  17.185  14.337
61059W        W24783  12.319  15.591  11.928
61060W        W24784  38.551  16.707   1.241
61061W        W24785  10.355  23.594   2.368
61062W        W24786  29.503  18.772  12.460
61063W        W24787  22.090  39.462  13.532
61064W        W24788   9.811  24.651   1.332
61065W        W24789  16.153   8.790   3.820
61066W        W24790  37.890  31.611  12.890
61067W        W24791  33.386  11.167   1.704
61068W        W24792  35.408  24.685  10.606
61069W        W24793  25.711  11.692  12.346
61070W        W24794  34.585  39.360  11.424
61071W        W24795  13.110   9.766  12.967
61072W        W24796  29.622  10.654  12.959
61073W        W24797  18.736   3.357   0.461
61074W        W24798  43.333  24.188   5.130
61075W        W24799  32.071   7.379   3.647
61076W        W24800   4.776  29.009   1.874
61077W        W24801  22.122  42.862   4.639
61078W        W24802  43.971  30.600   0.903
61079W        W24803  10.375  13.673  13.837
61080W        W24804  40.925  27.007   3.309
61081W        W24805   6.218   4.205  14.000
61082W        W24806  30.433  23.014  11.588
61083W        W24807  25.009  15.710  12.450
61084W        W24808  42.925  40.524   3.349
61085W        W24809   8.858  17.566   0.277
61086W        W24810   2.322  19.648  14.934
61087W        W24811  25.051  42.506  14.989
61088W        W24812   0.251   6.844   0.308
61089W        W24813  41.342   4.222   2.727
61090W        W24814   7.283   1.836  10.929
61091W        W24815   9.815  39.358   3.637
61092W        W24816  39.941  34.467  13.477
61093W        W24817  29.094   5.258  13.383
61094W        W24818  15.162  36.086  14.283
61095W        W24819  10.707  21.608   4.616
61096W        W24820  28.958  22.087  12.023
61097W        W24821  38.911  14.829   3.359
61098W        W24822  28.993   0.300  14.023
61099W        W24823  25.077   5.797  14.811
61100W        W24824  26.168  20.252  12.427
61101W        W24825  27.024   4.726  13.366
61102W        W24826  44.294  34.608   9.487
61103W        W24827  39.858  13.289  11.020
61104W        W24828  30.011  19.770   4.621
61105W        W24829  13.179   1.862   1.247
61106W        W24830  20.733  10.866   1.924
61107W        W24831  34.574  24.517  11.555
61108W        W24832  18.722  33.089   2.783
61109W        W24833  33.891  17.142  14.926
61110W        W24834  11.759  33.604   4.131
61111W        W24835  38.477  10.848  12.421
61112W        W24836  34.884  28.992  14.967
61113W        W24837   1.786  11.150  11.914
61114W        W24838  34.088  33.400  11.446
61115W        W24839  18.189   7.193   2.409
61116W        W24840   8.329  29.557   3.205
61117W        W24841   2.858  15.143   1.727
61118W        W24842  21.147   2.815  11.128
61119W        W24843  43.468   0.885   4.177
61120W        W24844  13.160  21.605   0.870
61121W        W24845   8.237  36.566   2.683
61122W        W24846  18.227   9.774   0.736
61123W        W24847  41.459  44.961  11.883
61124W        W24848  21.033   0.488   2.402
61125W        W24849  13.638  11.795   3.168
61126W        W24850   7.315  41.323   0.299
61127W        W24851   4.230  12.145  10.924
61128W        W24852  24.582  22.515  12.846
61129W        W24853  35.925  35.437   3.667
61130W        W24854   3.753  13.656  14.445
61131W        W24855   8.277   9.818   2.291
61132W        W24856  37.531  34.460   0.252
61133W        W24857  42.856  15.202  11.866
61134W        W24858   2.826  12.320  13.946
61135W        W24859   4.741  17.231  10.546
61136W        W24860  27.057  12.711  12.415
61137W        W24861  28.673  30.145  13.898
61138W        W24862  22.685  24.149   1.289
61139W        W24863   8.822  32.079  14.364
61140W        W24864  33.621  36.502  13.489
61141W        W24865  17.706   6.811   1.928
61142W        W24866  10.832  35.956   3.318
61143W        W24867  42.899  30.924   0.323
61144W        W24868  34.591   3.783   0.931
61145W        W24869  32.959  28.974  11.427
61146W        W24870  31.021  24.082  12.873
61147W        W24871  22.614   3.321  12.518
61148W        W24872   5.736  42.786  11.447
61149W        W24873  39.983  31.985   2.292
61150W        W24874  42.959  44.452  14.832
61151W        W24875   3.788  20.766   0.853
61152W        W24876   9.214  40.051   1.745
61153W        W24877  42.945  24.601  12.398
61154W        W24878  28.675  39.540  11.894
61155W        W24879  31.958  27.186  10.591
61156W        W24880  31.941  22.686   5.171
61157W        W24881  37.045  28.681   4.800
61158W        W24882  13.750  19.053   0.378
61159W        W24883   4.845   4.716  12.866
61160W        W24884   7.353   2.894   3.184
61161W        W24885  10.282  15.810   2.812
61162W        W24886  35.580  40.361   4.169
61163W        W24887  37.404   9.335  12.500
61164W        W24888  37.386   4.329  10.405
61165W        W24889  10.288  31.110  10.609
61166W        W24890   9.169   9.715   5.089
61167W        W24891  10.758  36.366  14.953
61168W        W24892  12.208  24.625  13.026
61169W        W24893  27.476  13.618   0.756
61170W        W24894  41.314  30.416   0.452
61171W        W24895  27.602  43.386   4.698
61172W        W24896  34.955  35.871  11.035
61173W        W24897   7.314  35.484   3.737
61174W        W24898  39.363  10.212  14.008
61175W        W24899  42.331  11.807  12.014
61176W        W24900  27.561  44.846  10.521
61177W        W24901   7.903  32.519  14.399
61178W        W24902  38.868  26.208   4.801
61179W        W24903  39.998   0.989  10.942
61180W        W24904  15.118  12.195   0.296
61181W        W24905  34.531  14.797  14.020
61182W        W24906  39.447  22.138  10.975
61183W        W24907   2.744  44.334   0.245
61184W        W24908  12.204  41.392   1.814
61185W        W24909  22.616  16.714  11.079
61186W        W24910   5.782   0.351   4.243
61187W        W24911  37.493  11.764   4.788
61188W        W24912  22.117  14.623  10.601
61189W        W24913  14.588  25.210  12.060
61190W        W24914  23.166  23.099   3.697
61191W        W24915  37.891   1.347   2.862
61192W        W24916  11.250  13.267  13.857
61193W        W24917  22.637  44.374   0.299
61194W        W24918   9.670  21.635   1.717
61195W        W24919  14.653  32.567   1.839
61196W        W24920  31.112  11.136   1.724
61197W        W24921  33.500  30.962   1.798
61198W        W24922  43.860  24.575  13.957
61199W        W24923  21.570  31.538   0.345
61200W        W24924  19.765  41.821   3.677
61201W        W24925   3.412  16.673  11.394
61202W        W24926  25.494  18.691  13.861
61203W        W24927   7.809   0.479   3.772
61204W        W24928  28.997  13.164  14.925
61205W        W24929  36.079  44.359  14.437
61206W        W24930  30.131  42.457   4.650
61207W        W24931  42.953  41.018  11.900
61208W        W24932  27.457  21.149   4.715
61209W        W24933  40.807  20.550  12.446
61210W        W24934  35.482   8.179  10.894
61211W        W24935  11.656  42.340   2.741
61212W        W24936   4.264  22.168   4.353
61213W        W24937   6.710  20.588   1.451
61214W        W24938  41.810  26.139  12.989
61215W        W24939   3.777  38.853  13.354
61216W        W24940  31.061  44.962   0.868
61217W        W24941  33.916  35.928   3.643
61218W        W24942   1.295   3.415   4.117
61219W        W24943  34.066  10.294   1.762
61220W        W24944  43.881  20.160   1.306
61221W        W24945  24.131  25.550   1.879
61222W        W24946  19.145  40.887  11.003
61223W        W24947  22.620  25.549   1.863
61224W        W24948  17.569  14.306  10.469
61225W        W24949  43.399  37.984  14.470
61226W        W24950  33.902  16.138  13.344
61227W        W24951  12.737   8.310   4.802
61228W        W24952  20.564  39.847   2.291
61229W        W24953   7.734  18.211  12.025
61230W        W24954   6.291  21.602   0.888
61231W        W24955  10.384  35.386  12.342
61232W        W24956  25.683  21.192   3.287
61233W        W24957  25.160   8.714  13.867
61234W        W24958   3.331  17.684  13.047
61235W        W24959  12.827  25.183   1.919
61236W        W24960  37.557  42.822  11.424
61237W        W24961   2.358  10.249  11.856
61238W        W24962  36.889   3.458   2.662
61239W        W24963  30.060   9.336  11.563
61240W        W24964  35.025  21.649   2.843
61241W        W24965  13.734  17.096  14.801
61242W        W24966   0.422  10.304  11.451
61243W        W24967  29.998  29.007  12.413
61244W        W24968  18.087   9.330  11.936
61245W        W24969   2.733  43.387   4.318
61246W        W24970  33.916   6.315   4.776
61247W        W24971  23.035   5.789   2.376
61248W        W24972  29.641  29.052   5.204
61249W        W24973   9.737  17.157  12.449
61250W        W24974  11.645   5.741  10.559
61251W        W24975  18.710  41.975   0.365
61252W        W24976   4.746   2.415   0.438
61253W        W24977  20.587   9.660   2.890
61254W        W24978  22.532  12.720   0.820
61255W        W24979  35.918  24.494  14.905
61256W        W24980   7.275  42.936  10.562
61257W        W24981  28.602  13.827  14.938
61258W        W24982  12.200  30.161   4.736
61259W        W24983  23.045  16.591  14.910
61260W        W24984   4.374  35.477  13.986
61261W        W24985  42.292  23.586  11.959
61262W        W24986  39.362  26.484  14.808
61263W        W24987   7.692   0.894  14.423
61264W        W24988   4.891  31.554   2.761
61265W        W24989  40.533  14.833   1.763
61266W        W24990  17.146  26.041  11.506
61267W        W24991  32.934  36.970  11.863
61268W        W24992  37.561  42.508  11.857
61269W        W24993  12.299   7.802   3.676
61270W        W24994  13.339  12.744  13.497
61271W        W24995  27.033  18.772   1.318
61272W        W24996  23.729  25.566   2.402
61273W        W24997   8.676   1.908  13.047
61274W        W24998  39.041  18.143  11.889
61275W        W24999  29.535  27.641   0.850
61276W        W25000   3.862  26.165   1.798
61277W        W25001  27.098  24.576  11.608
61278W        W25002  38.550  42.854  12.018
61279W        W25003  11.691  33.418   1.895
61280W        W25004  42.363  13.271  11.464
61281W        W25005   2.377  18.623   4.235
61282W        W25006   4.752  24.092   3.819
61283W        W25007  27.952  21.233  11.521
61284W        W25008   9.162  22.543  14.880
61285W        W25009  31.066   0.270   1.424
61286W        W25010  29.479  12.151  13.869
61287W        W25011   7.716  28.631   3.372
61288W        W25012  17.130   5.903  10.103
61289W        W25013   3.359  39.392  11.908
61290W        W25014  27.602  44.402  13.917
61291W        W25015  40.895  34.050  13.519
61292W        W25016   2.366  31.906   2.256
61293W        W25017  19.175   8.352   3.330
61294W        W25018  43.420  42.839  11.424
61295W        W25019  30.163   2.950  11.482
61296W        W25020   7.287  44.299   3.665
61297W        W25021   2.880   5.318   2.350
61298W        W25022  42.471  38.843  10.901
61299W        W25023  20.235  19.536   0.760
61300W        W25024  24.112  40.802  13.009
61301W        W25025  28.000  16.771  10.947
61302W        W25026  10.371  14.100  12.415
61303W        W25027  24.059   8.784   1.918
61304W        W25028   7.288   0.886  12.985
61305W        W25029   9.265  21.093  11.588
61306W        W25030  25.647   3.374  11.599
61307W        W25031  37.433   2.228  12.892
61308W        W25032   8.301  22.054   0.967
61309W        W25033  36.938  40.832   2.296
61310W        W25034  44.451  25.008   1.287
61311W        W25035   0.785   5.763  10.475
61312W        W25036   0.980   2.730  14.443
61313W        W25037  14.246  21.608  10.537
61314W        W25038  19.703  22.593   4.277
61315W        W25039  13.182  26.119   4.167
61316W        W25040  35.530  30.564   2.211
61317W        W25041  29.614   1.949  11.569
61318W        W25042  26.184   4.883   2.317
61319W        W25043  13.761  41.329   2.222
61320W        W25044   7.307  36.477   3.760
61321W        W25045  26.498  40.816  13.052
61322W        W25046  15.227  33.106   4.622
61323W        W25047  42.310  20.125   0.738
61324W        W25048  33.610  17.782   0.966
61325W        W25049  17.710  43.388  12.042
61326W        W25050  18.123  33.901   0.280
61327W        W25051  41.976  10.347  11.081
61328W        W25052   2.783  39.872  12.927
61329W        W25053  24.588  11.139  11.468
61330W        W25054  41.454  25.164  10.494
61331W        W25055   8.387   4.857  14.879
61332W        W25056  34.487  34.989  11.600
61333W        W25057  17.172  17.574   1.260
61334W        W25058  13.208   9.337   4.164
61335W        W25059  21.145   8.374  11.591
61336W        W25060  14.743  20.063  12.440
61337W        W25061  32.559  38.044   4.155
61338W        W25062   2.948  13.706   4.268
61339W        W25063   8.361  13.109   1.427
61340W        W25064  27.613   3.273  13.359
61341W        W25065  42.503   2.895   0.961
61342W        W25066  11.847  25.048   2.253
61343W        W25067  29.030  16.709  13.388
61344W        W25068  39.386  20.172   2.410
61345W        W25069   0.322  40.322  12.506
61346W        W25070  25.096  30.020  14.495
61347W        W25071  35.084  16.677  13.829
61348W        W25072  12.712  18.150  11.431
61349W        W25073   2.807   5.775   4.837
61350W        W25074  41.498  32.996   3.216
61351W        W25075  31.563  41.787  14.377
61352W        W25076  22.559   6.302  10.926
61353W        W25077  31.636   3.870   2.326
61354W        W25078   4.342  35.385   1.714
61355W        W25079   7.753  35.884   2.334
61356W        W25080  24.126  22.703  10.644
61357W        W25081  31.093  35.968  13.010
61358W        W25082  30.606  15.755  14.869
61359W        W25083   0.958  12.831  13.973
61360W        W25084  36.558   8.847   1.889
61361W        W25085   0.792  16.316  11.968
61362W        W25086  30.538  22.058   0.749
61363W        W25087   8.169  17.209   0.759
61364W        W25088   9.254  21.157   4.784
61365W        W25089   6.719  32.991  10.425
61366W        W25090  40.368   8.756   5.221
61367W        W25091  31.517  26.547   0.461
61368W        W25092   8.689  16.245   3.155
61369W        W25093  20.141  20.590  12.934
61370W        W25094  18.667  14.125  12.406
61371W        W25095   3.287   6.685   0.317
61372W        W25096  35.426  41.946   1.448
61373W        W25097  20.100  43.314  13.934
61374W        W25098  18.279  21.653  10.510
61375W        W25099  17.222   4.421   9.578
61376W        W25100  42.005  40.926  10.465
61377W        W25101  22.225  23.142  11.540
61378W        W25102  33.452  25.621   4.344
61379W        W25103  13.205  38.550   4.637
61380W        W25104  38.863   9.231  13.860
61381W        W25105   6.829  27.488   3.284
61382W        W25106  40.815  22.078  10.139
61383W        W25107  32.525  28.454   1.434
61384W        W25108  41.989  43.341   3.207
61385W        W25109  36.359  10.262   3.653
61386W        W25110  24.515  24.043  14.798
61387W        W25111   9.721  34.529   1.833
61388W        W25112  29.458  38.476   0.873
61389W        W25113  33.562  22.098   1.806
61390W        W25114  33.469  30.992  10.510
61391W        W25115  19.658  41.506   0.730
61392W        W25116  42.459  23.529  14.984
61393W        W25117  33.019  27.178  14.815
61394W        W25118  17.202  43.480  14.835
61395W        W25119  29.920   3.772  12.471
61396W        W25120  13.227  11.779  10.940
61397W        W25121  25.116  31.070  13.994
61398W        W25122  25.670  41.458   3.680
61399W        W25123   9.214  40.951  11.070
61400W        W25124  15.218   0.984   0.794
61401W        W25125   0.282  22.698  14.441
61402W        W25126  39.481   0.305  12.940
61403W        W25127  21.077  12.255  12.462
61404W        W25128  22.235  34.563  10.587
61405W        W25129  33.082  16.588  11.898
61406W        W25130  37.950  19.556  13.973
61407W        W25131  15.758  18.625   0.346
61408W        W25132  44.496  37.505   9.436
61409W        W25133  30.115  43.391  14.767
61410W        W25134  17.205  12.654  14.907
61411W        W25135  26.132  28.675  13.364
61412W        W25136  41.511  40.453  14.996
61413W        W25137  36.052   4.847  14.510
61414W        W25138  10.142  10.221   1.798
61415W        W25139  13.187  10.182  13.889
61416W        W25140   0.890  22.009   3.355
61417W        W25141  40.338   7.244  14.944
61418W        W25142  13.622  29.961   0.961
61419W        W25143  28.436   8.260   5.088
61420W        W25144  11.260   1.977   2.379
61421W        W25145  14.253  31.503   2.341
61422W        W25146  29.447  26.139  13.378
61423W        W25147  33.096  37.940   2.266
61424W        W25148  35.947   2.458   1.701
61425W        W25149   9.363  25.043  11.544
61426W        W25150  11.713   7.788  13.024
61427W        W25151  31.433  18.252   3.761
61428W        W25152  23.084   1.279   1.827
61429W        W25153  14.663  34.514   4.799
61430W        W25154  15.199  44.759  12.418
61431W        W25155   6.345  42.520  14.515
61432W        W25156  40.044  10.315   2.260
61433W        W25157  27.468  36.356   3.153
61434W        W25158  37.065   9.737  14.369
61435W        W25159   4.211  29.115   2.214
61436W        W25160  44.789  43.275   4.825
61437W        W25161  10.750  24.570  11.493
61438W        W25162   3.299  26.668  11.448
61439W        W25163   7.907   3.937  14.930
61440W        W25164   6.724  12.245  12.444
61441W        W25165  38.979   6.883   1.222
61442W        W25166  20.683   0.393   0.785
61443W        W25167   2.918  25.070  14.966
61444W        W25168  17.767  27.566   0.926
61445W        W25169  17.698  32.533  13.839
61446W        W25170   4.313  23.580   0.781
61447W        W25171   6.185  44.402   5.155
61448W        W25172  36.592  19.641   0.947
61449W        W25173  26.619   0.926   0.432
61450W        W25174  21.560  19.763   0.834
61451W        W25175  38.379  39.810  12.025
61452W        W25176   3.765  32.447   3.298
61453W        W25177  30.518  42.916   3.835
61454W        W25178  15.197   0.412   0.961
61455W        W25179  34.943  38.924  13.861
61456W        W25180  13.646  18.191   2.669
61457W        W25181  37.543   7.872  10.562
61458W        W25182  28.581  39.489   3.701
61459W        W25183   8.804  36.051   4.317
61460W        W25184  31.027  38.365  14.021
61461W        W25185  10.233   1.262  11.490
61462W        W25186  22.007  22.665   0.872
61463W        W25187  35.877  22.057   2.800
61464W        W25188   3.220   7.681  11.561
61465W        W25189   7.267  37.375  12.831
61466W        W25190  28.636   8.690   0.354
61467W        W25191  29.000  35.556   0.963
61468W        W25192  25.108  32.480  14.507
61469W        W25193  18.702  31.925   2.248
61470W        W25194  13.731  18.578  12.061
61471W        W25195  39.877  18.789  11.883
61472W        W25196   4.375  15.219  13.980
61473W        W25197  12.826  19.191   0.345
61474W        W25198  13.219   9.704  11.014
61475W        W25199  21.639  43.416  10.937
61476W        W25200  27.057  39.416  11.546
61477W        W25201  25.160  27.547  14.414
61478W        W25202  14.225  11.303   1.396
61479W        W25203  37.911  27.962   2.211
61480W        W25204  24.101   8.795   4.289
61481W        W25205  21.040  12.779  11.422
61482W        W25206  25.664  36.417  10.997
61483W        W25207  13.272   7.243  12.030
61484W        W25208  34.395  17.113  12.342
61485W        W25209  15.824   8.890  10.634
61486W        W25210  33.967  12.186  12.988
61487W        W25211   9.332   3.769   0.939
61488W        W25212  10.782  19.060  14.871
61489W        W25213  36.970  42.953  13.436
61490W        W25214   8.373   2.370  12.026
61491W        W25215  14.122   5.772   1.721
61492W        W25216  37.436   5.907   4.695
61493W        W25217  22.542  15.201   3.231
61494W        W25218   9.373   0.474  13.982
61495W        W25219   0.260  28.940  11.088
61496W        W25220  33.480  17.112   3.777
61497W        W25221  11.674  33.877  13.020
61498W        W25222  18.549  33.402  14.963
61499W        W25223  36.448  34.934  12.380
61500W        W25224   8.873  16.662  11.029
61501W        W25225  18.294  13.236  10.585
61502W        W25226  43.916  36.571   2.689
61503W        W25227  34.383  18.771   2.719
61504W        W25228   2.388  23.536  13.829
61505W        W25229   9.293  21.148   3.168
61506W        W25230  21.101  14.716  13.415
61507W        W25231  23.089  22.592  10.536
61508W        W25232  16.238  18.589  11.118
61509W        W25233  19.117  25.702   1.297
61510W        W25234  11.344  34.530   0.915
61511W        W25235  28.049   1.290   3.294
61512W        W25236  40.388  23.702  12.405
61513W        W25237  27.505   9.388  10.898
61514W        W25238  37.991  30.987   2.419
61515W        W25239  33.050  23.017  14.480
61516W        W25240  38.002  35.525   4.148
61517W        W25241  36.387  13.706   5.611
61518W        W25242  23.512   1.340  11.431
61519W        W25243  34.590   4.311   0.274
61520W        W25244  27.598  29.491   1.846
61521W        W25245   9.157  27.563   2.810
61522W        W25246  33.508  32.946  10.901
61523W        W25247  29.482  38.980  12.823
61524W        W25248  12.124  25.055   2.699
61525W        W25249  14.152  23.626  10.993
61526W        W25250  34.003  41.005   1.389
61527W        W25251  20.527  34.578  10.610
61528W        W25252  10.799  30.074  14.768
61529W        W25253  28.992  44.788   3.804
61530W        W25254   7.868  18.777   0.330
61531W        W25255  30.422  41.409   4.162
61532W        W25256   2.905  43.008   4.715
61533W        W25257  39.383   4.939   1.295
61534W        W25258  28.100  43.932   1.245
61535W        W25259  15.090  13.761  10.533
61536W        W25260  14.280  11.782   0.807
61537W        W25261  11.307  20.179  11.572
61538W        W25262   5.800  14.781  11.030
61539W        W25263  29.616  21.224  13.019
61540W        W25264  12.771  35.469  14.955
61541W        W25265  16.181   5.899  12.087
61542W        W25266  16.580  23.665  10.603
61543W        W25267  27.996  43.304   4.793
61544W        W25268  10.664   0.807   1.408
61545W        W25269  32.637  38.504  12.496
61546W        W25270  31.490  43.948  14.300
61547W        W25271  34.583   8.334  11.954
61548W        W25272   0.365   1.424   4.634
61549W        W25273   0.442  33.487  11.990
61550W        W25274  28.989   6.199  10.575
61551W        W25275   2.240  43.357  12.862
61552W        W25276  29.989  43.461   4.804
61553W        W25277   3.443  20.112  12.825
61554W        W25278  39.492  15.813  13.947
61555W        W25279  44.929   5.274   3.322
61556W        W25280   3.934   9.336   4.300
61557W        W25281  33.381   1.324  10.114
61558W        W25282  38.531  21.038   0.366
61559W        W25283  37.360  23.987   1.806
61560W        W25284  14.234   4.895  11.395
61561W        W25285  31.484  12.666  11.571
61562W        W25286  25.977  11.665  14.893
61563W        W25287  16.177  35.921   3.633
61564W        W25288  36.379  28.558  13.393
61565W        W25289   8.740  14.738   3.741
61566W        W25290  19.601  44.961   1.794
61567W        W25291  30.470  16.657  10.907
61568W        W25292  13.650  26.603   1.884
61569W        W25293  15.270   9.382   3.721
61570W        W25294  23.160  14.753   2.716
61571W        W25295  28.110   0.865  11.980
61572W        W25296  30.055  20.767   4.319
61573W        W25297  34.874  37.481  10.512
61574W        W25298  37.895  31.469   1.326
61575W        W25299  18.236  15.605  14.300
61576W        W25300  16.568  21.180  14.900
61577W        W25301  24.587   3.300  13.385
61578W        W25302   0.880  15.169  12.918
61579W        W25303  24.525  25.602   3.685
61580W        W25304  33.598  31.997   3.735
61581W        W25305   0.312  25.174   3.782
61582W        W25306  34.494  26.473   2.210
61583W        W25307  39.503  44.407  11.016
61584W        W25308   6.385   8.892   4.733
61585W        W25309  41.480   8.822   4.185
61586W        W25310  31.438  27.182   0.442
61587W        W25311  33.533  39.428  10.621
61588W        W25312  18.756  44.455  14.406
61589W        W25313  27.161  35.915  11.498
61590W        W25314  37.520  26.666   0.360
61591W        W25315   0.393   3.408  13.323
61592W        W25316  25.623  22.068  11.390
61593W        W25317  13.166   2.397   2.680
61594W        W25318  39.940  13.696   3.868
61595W        W25319  37.869  38.463   3.824
61596W        W25320   5.842  39.881  11.474
61597W        W25321  20.230   3.801   0.452
61598W        W25322  41.428  22.182   5.601
61599W        W25323   0.786  30.458   3.164
61600W        W25324  19.612  38.052  13.359
61601W        W25325  16.106   4.240  10.453
61602W        W25326  29.996  42.406   1.801
61603W        W25327  34.094  10.797  11.941
61604W        W25328  16.575  33.413  11.078
61605W        W25329  33.976  17.801  10.026
61606W        W25330  32.516  12.262  12.383
61607W        W25331  36.371  33.883  11.520
61608W        W25332  15.683  42.381  14.006
61609W        W25333  12.707  16.133   1.365
61610W        W25334  23.692   3.290   1.400
61611W        W25335  36.921  15.609  12.972
61612W        W25336  11.266  36.065  14.302
61613W        W25337   8.306  20.242   3.762
61614W        W25338   1.775  10.289  14.402
61615W        W25339  15.312  13.673  10.927
61616W        W25340  41.324  34.397  10.074
61617W        W25341  13.243   1.446   4.806
61618W        W25342  26.622   7.245   1.281
61619W        W25343  16.214  27.674   3.190
61620W        W25344  38.046  36.901  11.090
61621W        W25345  26.018  39.926  12.340
61622W        W25346  33.992  21.669  10.618
61623W        W25347   6.185  38.840   0.472
61624W        W25348   9.349  35.563   1.866
61625W        W25349   3.731  11.857  14.972
61626W        W25350  26.160  16.711  10.621
61627W        W25351  15.672   1.811   3.335
61628W        W25352  26.697  34.964  11.478
61629W        W25353   1.751   4.307   3.150
61630W        W25354  25.644  25.177   4.820
61631W        W25355  24.975  44.446   2.217
61632W        W25356  26.114  43.339   1.838
61633W        W25357   9.863  32.415  12.063
61634W        W25358  27.591   0.809   1.850
61635W        W25359  30.439  30.161  10.536
61636W        W25360  43.431  10.172   4.189
61637W        W25361  29.589   0.974  12.349
61638W        W25362  39.890  12.276  11.858
61639W        W25363  31.461   9.674   0.806
61640W        W25364  19.119  26.702   4.129
61641W        W25365  21.541  31.504  11.073
61642W        W25366  13.176  36.978  13.367
61643W        W25367   3.772  19.611  12.064
61644W        W25368  16.187   4.291  13.919
61645W        W25369   7.234  39.935  14.978
61646W        W25370  44.378  18.578   0.383
61647W        W25371  15.152   9.888   4.130
61648W        W25372  25.216  42.923   4.660
61649W        W25373  24.157   4.719  11.576
61650W        W25374  38.863   9.172   4.673
61651W        W25375  44.404  44.934  13.508
61652W        W25376   4.942   5.862   9.991
61653W        W25377  11.318  33.897   1.305
61654W        W25378  35.899  34.893   3.708
61655W        W25379  24.534  15.261  13.376
61656W        W25380  20.133   5.804   3.802
61657W        W25381  13.673  14.295   2.337
61658W        W25382  16.156  34.089  10.557
61659W        W25383   4.847  14.678  11.514
61660W        W25384  10.835  40.451  11.051
61661W        W25385   6.343  27.558  14.423
61662W        W25386  36.549  22.219   1.427
61663W        W25387  44.305  33.586   1.338
61664W        W25388  38.931  16.245  14.003
61665W        W25389   3.739   3.261   0.319
61666W        W25390  13.185  43.939  12.909
61667W        W25391  36.487   2.731  14.988
61668W        W25392  21.172  37.876  13.983
61669W        W25393  15.741  30.089  10.917
61670W        W25394  27.592  26.079  13.019
61671W        W25395  24.627  15.729   1.361
61672W        W25396  20.526  37.870  10.463
61673W        W25397  23.604   6.295   1.255
61674W        W25398  22.006  31.615  11.423
61675W        W25399  42.976  17.120  12.870
61676W        W25400  24.708  43.785   4.620
61677W        W25401   1.250  42.985  13.411
61678W        W25402  31.926  43.855   2.875
61679W        W25403  23.084  41.517   3.661
61680W        W25404  38.555  44.906  11.881
61681W        W25405  42.952  32.999   3.745
61682W        W25406  30.525   1.762  13.514
61683W        W25407  17.777  10.327  10.117
61684W        W25408  13.640  43.779   4.204
61685W        W25409  27.124   3.826   3.691
61686W        W25410   0.381  16.599  11.391
61687W        W25411  17.748  31.138  12.947
61688W        W25412  20.137   3.850  13.050
61689W        W25413  38.906  16.206   1.414
61690W        W25414  42.999  36.008   3.706
61691W        W25415  25.006   1.384  11.507
61692W        W25416   3.815  39.533   3.718
61693W        W25417  27.630  12.715   3.855
61694W        W25418  40.522   2.313   1.347
61695W        W25419   1.297   2.343   2.372
61696W        W25420  20.721  31.551   3.189
61697W        W25421  24.621  32.081   9.975
61698W        W25422  19.177  30.581  13.405
61699W        W25423   4.719  12.213  10.498
61700W        W25424   8.349  37.436   3.365
61701W        W25425   1.881  22.084  10.495
61702W        W25426  28.014  36.465   0.454
61703W        W25427  43.897   6.263  12.037
61704W        W25428  39.845   5.762  10.559
61705W        W25429  34.964  38.903   2.184
61706W        W25430   2.842  26.019  11.549
61707W        W25431  33.603  35.871   1.851
61708W        W25432  35.934   3.451  12.398
61709W        W25433  15.706  11.281  12.409
61710W        W25434  25.496  15.287   2.845
61711W        W25435  14.204  19.127  11.430
61712W        W25436  39.052  40.495   2.669
61713W        W25437   1.312  16.647   4.293
61714W        W25438  15.790   9.261   3.846
61715W        W25439  42.016  29.499   0.462
61716W        W25440  19.667  13.329  14.763
61717W        W25441  13.329  40.515  14.370
61718W        W25442  34.120  29.968  10.470
61719W        W25443  13.221  43.769   0.878
61720W        W25444  16.636   6.287   1.750
61721W        W25445  25.038  30.600   2.729
61722W        W25446  26.655  12.241  12.440
61723W        W25447  40.503  26.621  14.453
61724W        W25448   4.711   7.816  11.385
61725W        W25449  42.953   6.387   0.844
61726W        W25450  23.204  35.469  10.580
61727W        W25451  25.522   9.268  14.851
61728W        W25452  38.841  26.701   2.195
61729W        W25453  36.516  31.902  10.959
61730W        W25454  44.477   3.928   2.705
61731W        W25455   0.974  44.482   1.851
61732W        W25456  14.620  10.247  14.790
61733W        W25457  32.036  42.896   2.859
61734W        W25458   1.466  35.548   1.728
61735W        W25459  30.102   2.311   1.735
61736W        W25460   8.871  38.325  10.591
61737W        W25461  12.650  31.146   0.883
61738W        W25462   9.864  31.436  14.865
61739W        W25463  37.372  41.962  14.816
61740W        W25464   0.372  29.108   4.613
61741W        W25465  34.884   9.724  14.972
61742W        W25466  12.728   1.766   3.272
61743W        W25467  23.546  22.006   3.801
61744W        W25468  32.971  13.758   1.794
61745W        W25469  28.161  27.552  13.828
61746W        W25470   9.188  16.675   1.376
61747W        W25471  19.212  26.037  12.363
61748W        W25472  35.896  18.581   2.234
61749W        W25473  34.025  40.903  11.401
61750W        W25474   4.713  31.938   9.943
61751W        W25475  10.825   8.322  12.083
61752W        W25476  29.054  40.340  14.022
61753W        W25477  10.676  30.585   4.169
61754W        W25478   1.897   6.864  14.299
61755W        W25479  10.813  41.309   1.227
61756W        W25480  42.793   9.820  10.404
61757W        W25481   6.258  26.008   3.631
61758W        W25482  13.324  32.624  11.871
61759W        W25483  27.141  17.800  10.458
61760W        W25484   3.440  26.593  12.890
61761W        W25485  12.711   1.856   2.388
61762W        W25486   5.310  26.062  14.963
61763W        W25487   6.905  38.401  11.988
61764W        W25488  41.416  39.065   5.218
61765W        W25489  19.697  37.999  11.003
61766W        W25490  38.918  39.326   0.787
61767W        W25491   2.465  30.485   2.299
61768W        W25492  11.223  31.487  11.600
61769W        W25493  29.498  44.290   0.360
61770W        W25494   1.755   2.374  12.868
61771W        W25495  24.149   5.890   0.938
61772W        W25496   3.220  29.652   3.848
61773W        W25497  20.710  44.767  12.370
61774W        W25498  12.707  31.010  11.923
61775W        W25499  44.403  24.517   3.820
61776W        W25500  21.648  23.114   2.321
61777W        W25501  30.070  30.475   3.727
61778W        W25502  28.113  17.267  14.952
61779W        W25503   4.304  42.876  13.033
61780W        W25504  44.944  31.565   3.663
61781W        W25505  37.895  11.710   4.221
61782W        W25506   8.713  10.830   2.874
61783W        W25507   8.342  10.223  11.412
61784W        W25508  40.465  18.081   1.718
61785W        W25509  12.143  19.770  14.875
61786W        W25510   2.295  36.982  12.927
61787W        W25511  36.432  40.926   4.181
61788W        W25512   3.868  18.067  10.571
61789W        W25513  38.547   9.737  14.944
61790W        W25514  38.060  32.997   0.807
61791W        W25515  17.255  17.145   3.202
61792W        W25516   6.337  36.382  10.917
61793W        W25517  27.169   6.799   9.984
61794W        W25518   4.411  10.159  14.866
61795W        W25519  36.003  33.073   2.419
61796W        W25520  37.031   2.910   2.887
61797W        W25521  15.653   0.287  13.058
61798W        W25522  13.240   9.316   1.832
61799W        W25523  43.283  29.028  10.126
61800W        W25524  32.048  41.312   3.340
61801W        W25525  29.642  40.010   1.239
61802W        W25526  40.919  16.711  14.022
61803W        W25527  34.984  22.170   0.386
61804W        W25528  25.623  16.115   2.310
61805W        W25529  27.116  23.235  14.476
61806W        W25530  19.570   5.343  12.540
61807W        W25531   3.399   9.727  14.860
61808W        W25532  31.051  14.595   3.751
61809W        W25533  31.593   3.876  14.773
61810W        W25534  20.766  17.784   1.795
61811W        W25535  39.520   9.739  12.453
61812W        W25536  25.533  44.292   2.824
61813W        W25537   0.490   4.387   1.702
61814W        W25538  44.377   3.358  11.404
61815W        W25539  39.470   0.829   1.411
61816W        W25540  42.336   4.396   0.459
61817W        W25541  17.760  18.247   3.776
61818W        W25542  12.235  12.680   0.344
61819W        W25543  30.490  12.331   2.342
61820W        W25544  17.663  19.093  13.459
61821W        W25545   8.731  26.977  13.452
61822W        W25546  39.911   2.337  12.014
61823W        W25547   6.255  37.581   5.320
61824W        W25548  37.988   8.812  14.820
61825W        W25549   9.862  34.883  14.366
61826W        W25550   9.190  21.062   3.682
61827W        W25551  42.399   6.893   2.825
61828W        W25552  27.603  27.996  11.393
61829W        W25553  21.557   3.300   0.399
61830W        W25554   8.234  20.151  14.789
61831W        W25555  42.950   1.475  14.851
61832W        W25556  41.392  34.049  12.568
61833W        W25557  22.636  19.271  14.832
61834W        W25558   6.278  22.166   1.268
61835W        W25559  19.734  14.120  12.557
61836W        W25560  16.784   3.716  12.871
61837W        W25561  35.102  30.068  11.447
61838W        W25562   4.881  35.563  13.512
61839W        W25563   3.373  24.227   2.712
61840W        W25564  10.703   5.743   0.953
61841W        W25565  12.823  21.096   4.282
61842W        W25566  42.017  43.368  12.832
61843W        W25567  20.746  11.716   1.853
61844W        W25568  32.981   5.756  14.026
61845W        W25569  29.003   4.845  11.917
61846W        W25570   0.834  26.012  12.482
61847W        W25571  34.502  43.494   4.820
61848W        W25572  23.701  28.137   2.220
61849W        W25573  27.048  34.561   3.740
61850W        W25574   9.664  40.505  12.517
61851W        W25575  21.076  44.966  14.847
61852W        W25576  42.447  37.895   0.747
61853W        W25577   4.392   9.769   9.460
61854W        W25578  44.281  24.699  12.387
61855W        W25579  13.178  29.084  14.767
61856W        W25580  40.881  15.139   1.781
61857W        W25581   0.958   5.854   4.822
61858W        W25582   8.339  11.235   0.967
61859W        W25583  35.972  34.888  14.899
61860W        W25584  38.000  36.052  13.546
61861W        W25585  20.732   2.896  10.897
61862W        W25586  33.595   6.204  10.908
61863W        W25587   6.343  44.766   2.400
61864W        W25588  43.012  20.601  11.032
61865W        W25589  13.283  12.754   4.632
61866W        W25590  16.726  18.762  11.499
61867W        W25591  29.485  36.038  12.023
61868W        W25592  35.955  29.040   2.202
61869W        W25593  12.766  14.724  14.459
61870W        W25594   0.487   9.264  14.293
61871W        W25595  17.766  13.210  13.494
61872W        W25596  37.426  33.064  13.921
61873W        W25597   8.831  40.954  10.631
61874W        W25598  21.549  15.111   3.637
61875W        W25599  37.080  30.528  11.935
61876W        W25600  20.573  32.473  10.934
61877W        W25601  44.310  34.440  13.384
61878W        W25602  19.213   3.280   5.214
61879W        W25603  42.877  22.655  10.102
61880W        W25604  35.866  14.805   0.271
61881W        W25605   2.347  22.721   1.227
61882W        W25606  17.146  21.732   4.759
61883W        W25607  38.846   1.735  12.004
61884W        W25608  24.976   3.839   3.807
61885W        W25609   9.263  21.564   2.251
61886W        W25610  32.954  27.534  11.544
61887W        W25611  24.214   5.724  10.531
61888W        W25612  33.480  31.998  13.383
61889W        W25613  15.781  34.565   3.804
61890W        W25614  14.789  21.100  11.958
61891W        W25615  14.708  37.559   2.740
61892W        W25616   1.846   8.322   0.924
61893W        W25617  31.138  39.854  12.576
61894W        W25618   6.801   8.869   1.237
61895W        W25619  38.962  10.835   3.305
61896W        W25620  32.487  31.130  12.092
61897W        W25621   2.967   0.300  10.591
61898W        W25622  27.013   2.805   3.330
61899W        W25623  24.178  21.045  12.919
61900W        W25624  44.802  15.139   3.700
61901W        W25625  23.076  18.288   1.316
61902W        W25626  39.378  42.933  13.349
61903W        W25627  37.363  40.827   3.190
61904W        W25628   6.855  19.089   4.154
61905W        W25629  21.132  19.198  11.397
61906W        W25630  13.672   8.796   2.726
61907W        W25631  28.581  31.439  13.039
61908W        W25632   2.345   3.253   4.710
61909W        W25633  30.516  36.591   2.841
61910W        W25634   4.886  36.483  11.012
61911W        W25635  10.877  32.960   0.314
61912W        W25636   3.360  22.608  11.080
61913W        W25637  23.652  35.882   2.824
61914W        W25638  44.002   7.225  12.435
61915W        W25639  18.079  23.991   4.827
61916W        W25640   3.369  20.107   2.894
61917W        W25641  11.177  42.894  13.989
61918W        W25642  27.133  41.827   4.717
61919W        W25643  33.567  42.776  13.379
61920W        W25644  44.886  34.402  13.996
61921W        W25645  35.887   9.678   3.788
61922W        W25646  20.616  28.587   1.813
61923W        W25647  38.400  31.613  13.964
61924W        W25648  32.418  40.996   0.864
61925W        W25649  43.455  32.539  12.074
61926W        W25650  29.583  15.120   0.432
61927W        W25651  24.029  10.676  11.008
61928W        W25652  16.763  16.811   3.680
61929W        W25653  18.258  16.301  13.328
61930W        W25654   7.752  44.810  14.885
61931W        W25655   8.757   9.208   0.795
61932W        W25656  31.065   6.220   1.840
61933W        W25657  41.001   2.301  12.419
61934W        W25658  16.692  19.164   1.833
61935W        W25659  20.036   6.877   1.448
61936W        W25660  19.271  24.123  14.883
61937W        W25661  13.183  40.349  12.943
61938W        W25662  22.697  44.925  12.860
61939W        W25663  40.948  42.299   1.442
61940W        W25664  38.876  18.720  10.562
61941W        W25665  12.185  21.588   1.766
61942W        W25666  17.250  41.299   3.781
61943W        W25667  38.533  34.968  13.804
61944W        W25668  28.102  43.351  14.465
61945W        W25669   6.765  40.340   0.824
61946W        W25670   6.892  25.077   4.277
61947W        W25671  42.876   0.319  12.881
61948W        W25672  39.954  22.622  12.824
61949W        W25673  40.961  34.043   3.245
61950W        W25674  27.498   0.360   3.209
61951W        W25675  39.899   3.796   2.778
61952W        W25676   8.283   1.856   0.259
61953W        W25677  34.380  12.212  12.846
61954W        W25678   5.744  37.440   2.696
61955W        W25679  13.215  26.129   0.877
61956W        W25680   3.438  11.268  10.984
61957W        W25681  23.231   8.792  13.325
61958W        W25682  43.953  21.600   3.223
61959W        W25683  12.626  23.192  14.020
61960W        W25684   3.302  14.285  13.850
61961W        W25685   8.254  30.114  11.976
61962W        W25686  11.282  16.180  13.794
61963W        W25687  37.001  35.419   3.863
61964W        W25688  22.236   5.262   2.328
61965W        W25689  24.613  36.905   1.321
61966W        W25690  43.898   8.303   3.677
61967W        W25691  22.508  31.095  13.916
61968W        W25692   7.201  35.072  11.396
61969W        W25693  22.019   5.292   4.625
61970W        W25694  11.786   3.461  13.491
61971W        W25695  30.035  19.733  12.991
61972W        W25696  11.190  12.178   1.859
61973W        W25697  20.719   5.412   1.836
61974W        W25698   2.433  11.159  10.565
61975W        W25699  20.125  17.122   4.283
61976W        W25700  33.047  11.263  11.544
61977W        W25701   1.823  10.691  11.102
61978W        W25702  20.584   5.388  11.890
61979W        W25703  32.592   5.778   0.318
61980W        W25704  24.575  41.973   3.212
61981W        W25705  26.158  27.090  11.087
61982W        W25706  25.585   8.317  12.826
61983W        W25707  22.609  23.129  10.471
61984W        W25708   9.299  19.228   3.149
61985W        W25709  19.616  27.024  11.546
61986W        W25710  25.171  44.374   1.871
61987W        W25711  44.270  22.175  14.000
61988W        W25712   0.794  15.637   1.321
61989W        W25713  14.768  32.068  13.968
61990W        W25714  34.400  26.157  13.375
61991W        W25715  27.682  34.597  11.111
61992W        W25716  43.425  18.657   2.302
61993W        W25717  25.536  14.627   4.321
61994W        W25718  22.091  27.193   1.418
61995W        W25719  28.082  18.678   3.647
61996W        W25720  28.552  14.171   2.281
61997W        W25721  30.090  29.508   3.686
61998W        W25722  35.867  41.400   2.857
61999W        W25723  39.884  43.399  12.479
62000W        W25724  10.814  25.026   0.887
62001W        W25725  18.783  27.102   1.900
62002W        W25726  22.077  44.456  10.514
62003W        W25727  40.441  22.716   3.254
62004W        W25728  34.063  10.737  11.541
62005W        W25729  12.658  42.328   2.290
62006W        W25730  23.593  34.940  13.793
62007W        W25731  27.681  20.220   3.822
62008W        W25732   2.355  27.031   0.449
62009W        W25733  41.466  27.100   2.257
62010W        W25734  33.985  12.345   0.251
62011W        W25735  34.900   7.170  14.827
62012W        W25736  19.536  37.361  12.424
62013W        W25737  11.685  43.378   4.215
62014W        W25738   9.883  25.992  12.376
62015W        W25739   6.825  24.182  11.065
62016W        W25740   2.445  15.185  12.576
62017W        W25741   3.899   7.176  14.824
62018W        W25742  29.489  10.803   1.834
62019W        W25743  34.415  23.162   1.411
62020W        W25744   1.413  13.793   3.172
62021W        W25745   5.433  36.091   2.873
62022W        W25746  40.826   8.363  11.498
62023W        W25747  10.743  31.582  14.436
62024W        W25748  20.600  28.658  12.908
62025W        W25749  25.047  18.659   4.229
62026W        W25750  21.051  19.623   1.754
62027W        W25751  38.355  44.410   0.334
62028W        W25752  35.926  44.456   1.866
62029W        W25753  41.877  10.279  10.413
62030W        W25754  40.877   9.207  12.445
62031W        W25755  13.142  15.142   0.439
62032W        W25756  31.588  11.357   4.825
62033W        W25757  28.027   7.751  12.022
62034W        W25758  34.990  31.494  11.432
62035W        W25759   9.325  38.069  14.778
62036W        W25760  42.444  31.415  10.897
62037W        W25761  27.680  14.599  13.029
62038W        W25762  44.765   7.333   3.350
62039W        W25763  28.609  44.345   4.264
62040W        W25764  29.588  43.971   3.753
62041W        W25765  20.265   1.243   2.311
62042W        W25766  32.447  34.492   4.603
62043W        W25767  26.165  25.134   4.652
62044W        W25768  21.089  40.364   0.275
62045W        W25769   1.852   8.218   1.328
62046W        W25770   2.819   4.805   1.798
62047W        W25771  43.967  20.722   1.755
62048W        W25772  25.599  44.468   0.929
62049W        W25773   0.817  28.166   2.741
62050W        W25774  20.586  29.953   0.785
62051W        W25775   6.182  43.924  10.944
62052W        W25776  25.559  31.098   4.690
62053W        W25777  43.815  40.486   1.364
62054W        W25778  32.955  33.507  12.886
62055W        W25779  12.679  42.996   5.297
62056W        W25780  31.064  30.639   2.730
62057W        W25781   5.235   8.294  13.999
62058W        W25782  31.533   1.466  11.008
62059W        W25783   2.447   7.817   2.365
62060W        W25784  11.851   7.692  11.536
62061W        W25785  36.575  23.990  10.593
62062W        W25786   2.797  39.457  14.445
62063W        W25787  14.716  36.899  11.015
62064W        W25788  27.468  18.277   4.173
62065W        W25789  23.567  10.763   4.657
62066W        W25790   0.388  15.285  14.945
62067W        W25791   5.774   9.385  11.399
62068W        W25792  22.245  34.408   3.753
62069W        W25793  17.774  20.613   0.789
62070W        W25794   7.814   4.216   0.441
62071W        W25795  16.106  14.301   4.688
62072W        W25796  22.108   2.817   2.803
62073W        W25797   9.150  44.926  11.966
62074W        W25798  12.310  26.463   4.133
62075W        W25799  31.640   4.797  12.489
62076W        W25800   4.223  14.683   4.326
62077W        W25801  37.571  14.302   1.437
62078W        W25802  34.112  21.260   2.746
62079W        W25803  44.495   1.904   3.354
62080W        W25804   6.724  34.403   1.397
62081W        W25805  20.070  14.212  13.511
62082W        W25806  26.622  20.261  12.974
62083W        W25807  17.062  37.388  12.833
62084W        W25808  18.194  39.342  11.405
62085W        W25809  15.587  43.378  12.385
62086W        W25810  29.033  33.974  12.883
62087W        W25811   8.257   5.883  11.609
62088W        W25812   9.731  44.811  10.548
62089W        W25813  41.420   1.366  12.844
62090W        W25814   1.783   6.775  14.900
62091W        W25815  26.136  19.534   1.402
62092W        W25816  38.471  27.061  12.888
62093W        W25817  13.159   4.366  10.474
62094W        W25818  36.480  13.308  14.433
62095W        W25819  42.913  42.309   1.264
62096W        W25820   8.336  23.215   2.331
62097W        W25821  24.666   1.347  14.855
62098W        W25822  18.699   0.490  13.469
62099W        W25823  28.616   3.714  13.817
62100W        W25824  44.764  35.563  13.061
62101W        W25825  26.056  33.996   3.758
62102W        W25826  18.557  32.996  14.438
62103W        W25827   4.221  32.414  12.847
62104W        W25828  37.418  37.970   1.377
62105W        W25829  22.533   3.401  11.377
62106W        W25830  36.941  29.981   3.367
62107W        W25831   8.202   7.263  13.942
62108W        W25832  16.779  28.931  11.466
62109W        W25833  24.100  25.131   0.885
62110W        W25834  23.146  22.166  13.397
62111W        W25835   6.869  19.167   0.832
62112W        W25836  21.208   9.669   0.801
62113W        W25837  16.221  16.317   3.328
62114W        W25838  23.040  41.309   2.218
62115W        W25839  42.794  44.986  12.837
62116W        W25840   4.400  19.120   1.296
62117W        W25841  14.252   9.853  13.829
62118W        W25842  39.517  27.135   2.233
62119W        W25843  29.094   5.876  13.843
62120W        W25844  42.833  23.169  12.041
62121W        W25845  33.392   4.763  10.471
62122W        W25846  29.029  28.463   3.334
62123W        W25847  23.197  43.883   3.652
62124W        W25848  20.530  21.147   0.745
62125W        W25849  43.502  20.758   2.338
62126W        W25850  13.190  15.813  13.852
62127W        W25851  10.208  29.019   4.755
62128W        W25852  17.235  15.798   2.762
62129W        W25853  40.870  31.415  10.457
62130W        W25854  14.250   2.345   5.311
62131W        W25855  31.909  41.498  11.872
62132W        W25856  26.974   5.275  12.009
62133W        W25857   8.693  22.022   2.245
62134W        W25858  21.031  44.954   2.357
62135W        W25859  44.973   7.326  14.917
62136W        W25860  11.232  29.007  13.330
62137W        W25861  40.367  38.329   3.316
62138W        W25862  39.470  37.042  11.932
62139W        W25863  41.297  43.860   0.842
62140W        W25864  15.729   1.831   4.712
62141W        W25865  21.170  42.870   2.884
62142W        W25866  22.995  36.519   1.361
62143W        W25867  11.239  31.074  14.922
62144W        W25868  38.855  32.592   0.291
62145W        W25869  16.579   0.351  12.381
62146W        W25870  35.594  36.590   3.665
62147W        W25871  25.158  10.141  10.948
62148W        W25872  32.065  34.542  13.361
62149W        W25873  42.463   4.331   2.325
62150W        W25874   2.363  27.528  10.979
62151W        W25875  13.213   4.842   0.429
62152W        W25876   6.269   9.730  14.359
62153W        W25877  24.524   0.301   3.791
62154W        W25878  42.029   9.798  13.364
62155W        W25879  10.143   7.275   2.184
62156W        W25880  15.676  44.483   0.296
62157W        W25881  35.405   1.451   0.374
62158W        W25882  19.613  33.470   2.794
62159W        W25883  20.237  10.687  12.006
62160W        W25884  26.656  32.953   4.165
62161W        W25885  23.013  19.220   1.720
62162W        W25886   7.260  26.014  10.431
62163W        W25887  14.338   2.372  11.910
62164W        W25888   7.841  21.544  12.079
62165W        W25889   9.864   8.377  10.553
62166W        W25890  41.331  44.939   4.116
62167W        W25891  10.652  36.998   2.699
62168W        W25892  20.534  20.753   0.728
62169W        W25893  20.260  31.126   0.421
62170W        W25894  22.078   2.961   1.409
62171W        W25895  16.130  33.119  11.939
62172W        W25896  38.953   6.266  14.307
62173W        W25897  37.055   9.380  12.536
62174W        W25898  11.230  23.599  10.578
62175W        W25899  34.976  27.171   3.272
62176W        W25900  31.529  24.663  13.321
62177W        W25901  28.637  30.120  11.008
62178W        W25902  32.453  33.551  14.899
62179W        W25903   5.249  37.923   0.372
62180W        W25904  41.534  17.088  11.887
62181W        W25905  14.687   5.344  13.011
62182W        W25906  13.177  23.608   2.239
62183W        W25907  36.373  41.435   4.753
62184W        W25908   2.900  42.893   2.405
62185W        W25909  34.535   4.945  14.317
62186W        W25910   0.751  43.386   3.809
62187W        W25911  34.411  21.712   4.786
62188W        W25912  32.475  40.853  11.522
62189W        W25913  39.512   3.262   3.353
62190W        W25914  19.705  15.697   2.316
62191W        W25915  15.171  37.960  11.409
62192W        W25916  23.239   5.389   0.307
62193W        W25917  36.488  38.358  14.284
62194W        W25918  22.108   8.836  11.510
62195W        W25919  41.032  43.329  12.462
62196W        W25920  30.912  31.592   3.177
62197W        W25921  40.527   0.924   5.284
62198W        W25922   1.346  37.546   2.342
62199W        W25923  17.116   5.430   4.270
62200W        W25924  29.052   6.919  12.981
62201W        W25925  42.939  10.382   2.246
62202W        W25926   2.384  33.474   3.279
62203W        W25927  22.240  21.047  11.510
62204W        W25928  39.999  38.908  14.914
62205W        W25929  41.299  40.462  11.092
62206W        W25930   6.693  10.788   1.366
62207W        W25931  41.364   3.711   2.900
62208W        W25932  33.489  26.631  13.431
62209W        W25933   2.957   0.284  14.950
62210W        W25934  33.454  12.220  10.624
62211W        W25935  36.548  27.490  11.016
62212W        W25936  12.667   7.348  13.908
62213W        W25937  37.898  35.057   3.711
62214W        W25938  42.501  39.507  12.864
62215W        W25939  20.585  18.763  12.861
62216W        W25940  36.468  18.589  12.824
62217W        W25941  19.751  12.846   2.853
62218W        W25942  24.597   4.727   0.797
62219W        W25943   1.740  28.499  12.049
62220W        W25944   4.257   1.274   3.163
62221W        W25945  23.220   1.877  12.407
62222W        W25946  22.070  30.056  11.433
62223W        W25947  37.425   1.464   3.631
62224W        W25948  41.014  31.011  12.984
62225W        W25949  27.090  11.830   0.824
62226W        W25950  20.751  32.136   0.755
62227W        W25951   1.921   0.470  13.383
62228W        W25952  35.011   5.733  13.865
62229W        W25953   2.931   9.190  10.910
62230W        W25954  25.596  37.350   0.872
62231W        W25955  31.991  19.166  13.823
62232W        W25956  42.887  10.309   2.760
62233W        W25957  35.865   6.783  12.563
62234W        W25958  16.244  10.216  11.047
62235W        W25959  37.949  33.974  12.473
62236W        W25960   5.265  33.383   2.796
62237W        W25961  38.428  15.130   2.670
62238W        W25962  25.541  20.558  10.592
62239W        W25963  43.785  35.925  12.855
62240W        W25964  30.157  21.107   3.374
62241W        W25965  17.735  26.529   4.130
62242W        W25966  14.292   9.149  12.363
62243W        W25967  39.856   8.663  13.435
62244W        W25968  35.569  30.584   4.706
62245W        W25969  40.833  40.980  10.569
62246W        W25970  43.502  34.380   3.662
62247W        W25971  21.670  16.789   0.907
62248W        W25972  43.021  41.834  12.031
62249W        W25973  23.022  14.317   1.910
62250W        W25974  44.770  13.713  14.812
62251W        W25975   3.399  25.195   0.944
62252W        W25976  11.180  38.982  10.594
62253W        W25977  35.986  43.483  14.790
62254W        W25978   4.420  22.591   4.285
62255W        W25979  14.634  28.640   0.407
62256W        W25980  30.995  21.516   1.285
62257W        W25981  22.163  11.801  11.468
62258W        W25982  13.632  22.083  12.903
62259W        W25983  39.550  31.527   1.347
62260W        W25984  22.743   1.361  12.422
62261W        W25985   6.298  27.601   3.360
62262W        W25986   7.190  24.713  10.547
62263W        W25987   9.763   0.490  13.360
62264W        W25988  38.075  26.653  12.039
62265W        W25989   8.177  11.220  14.434
62266W        W25990  16.605  28.483   0.907
62267W        W25991  32.412  37.832   4.810
62268W        W25992  44.808  10.863  12.846
62269W        W25993  16.696  20.178  12.415
62270W        W25994  23.723   0.766  13.914
62271W        W25995  34.536  17.165  10.924
62272W        W25996  12.643  30.916   4.715
62273W        W25997  25.159  22.115   1.440
62274W        W25998  20.620  32.476   4.117
62275W        W25999  13.240  41.986   2.869
62276W        W26000  38.568  39.328  12.409
62277W        W26001   8.837   3.261  13.492
62278W        W26002  28.054  26.606   3.379
62279W        W26003  35.494  22.123   4.202
62280W        W26004  33.555  24.222   2.388
62281W        W26005  14.648   5.922  13.814
62282W        W26006   8.390  10.709   0.819
62283W        W26007   1.732  43.771   1.220
62284W        W26008  28.151  16.757  12.483
62285W        W26009  14.713  24.143  12.920
62286W        W26010  37.362   5.730  12.431
62287W        W26011  18.185  26.637   3.823
62288W        W26012  19.656  41.028  14.947
62289W        W26013  15.284  17.232   0.932
62290W        W26014  12.791  15.158  10.595
62291W        W26015  16.602   4.877   9.450
62292W        W26016  30.508   0.279   0.783
62293W        W26017   3.379   6.248   2.691
62294W        W26018  30.520  21.192  11.014
62295W        W26019   3.339  19.586   2.886
62296W        W26020  20.141  40.386  10.086
62297W        W26021  34.455   6.913  10.972
62298W        W26022  18.745   3.269   4.287
62299W        W26023   2.795  33.514   3.758
62300W        W26024  14.670  12.318   0.466
62301W        W26025  33.446  19.704  10.593
62302W        W26026   5.269  37.072  10.440
62303W        W26027  12.141  41.470   2.833
62304W        W26028   5.344  29.469  12.015
62305W        W26029  22.097  36.453  13.966
62306W        W26030   2.946  30.577   4.286
62307W        W26031  43.280  39.832   2.885
62308W        W26032  27.194  34.466  12.464
62309W        W26033   2.833  24.230  11.471
62310W        W26034   5.253  31.475  14.448
62311W        W26035  37.516  20.127  13.020
62312W        W26036  40.480  22.101   1.833
62313W        W26037  12.761  27.002  12.865
62314W        W26038  24.218   1.323   4.264
62315W        W26039  25.160  37.382  11.858
62316W        W26040  34.054  41.995   0.331
62317W        W26041  16.668  43.993   4.194
62318W        W26042   0.842  12.663   3.813
62319W        W26043   4.864  30.955   4.616
62320W        W26044   9.349  19.653  10.069
62321W        W26045  19.699  41.526   1.695
62322W        W26046  21.593  23.533  14.922
62323W        W26047  14.636   1.876   1.311
62324W        W26048  37.084   5.927  12.080
62325W        W26049  10.272  21.695  13.874
62326W        W26050  40.336  16.252   1.712
62327W        W26051  37.986  30.559  11.491
62328W        W26052  39.004  12.739  14.453
62329W        W26053  31.112   0.786  12.495
62330W        W26054   7.853  20.154  12.892
62331W        W26055  16.190  29.112   2.735
62332W        W26056  31.965  31.548   3.647
62333W        W26057  35.603  44.759  10.564
62334W        W26058  25.632  37.357  11.110
62335W        W26059  30.118  27.064  13.469
62336W        W26060  35.415   4.934   1.713
62337W        W26061  18.256  26.202  13.358
62338W        W26062  36.518  40.019  14.923
62339W        W26063   7.344  15.229  11.035
62340W        W26064  44.942   5.402  13.863
62341W        W26065  40.998  23.145  12.524
62342W        W26066  24.645   2.965  10.529
62343W        W26067   9.884  33.520   0.772
62344W        W26068  36.936  24.037   0.253
62345W        W26069  13.813  23.235  14.398
62346W        W26070   6.348  41.934   4.172
62347W        W26071   1.483  38.926   1.337
62348W        W26072   7.727  23.064  14.507
62349W        W26073  27.132  25.161   4.659
62350W        W26074  41.870  41.475   5.189
62351W        W26075  14.140  14.127   3.750
62352W        W26076  44.343  32.406  13.487
62353W        W26077  36.932  18.266  11.379
62354W        W26078  28.046  37.575   4.606
62355W        W26079  18.250  37.913   3.865
62356W        W26080   7.188  18.598   0.961
62357W        W26081  17.210  31.551  14.282
62358W        W26082   9.857   0.922   4.275
62359W        W26083  18.621  10.741   4.629
62360W        W26084   0.436  39.021  14.823
62361W        W26085  23.658  39.829   3.368
62362W        W26086  19.771  33.887  12.831
62363W        W26087  22.190  30.545   4.795
62364W        W26088  37.539  16.743   0.297
62365W        W26089  34.592  10.676  13.468
62366W        W26090  18.231  29.561  12.950
62367W        W26091  29.482  21.649   3.855
62368W        W26092  42.372  18.177  13.812
62369W        W26093  15.197  43.943  12.970
62370W        W26094  13.324  33.537  10.061
62371W        W26095  17.202  25.214   1.447
62372W        W26096  34.900  12.229   5.174
62373W        W26097   5.272  14.320   2.285
62374W        W26098  39.840  29.114   4.609
62375W        W26099  23.582  10.740   0.765
62376W        W26100   9.283  20.172   2.274
62377W        W26101  18.274   6.842  12.371
62378W        W26102  14.339   3.393   9.500
62379W        W26103  23.173  17.216  13.026
62380W        W26104  34.518   1.745   0.464
62381W        W26105  37.914   0.872   0.801
62382W        W26106  39.053  44.890  10.630
62383W        W26107   0.753  15.654  14.512
62384W        W26108   9.846   7.196   4.173
62385W        W26109  24.651  26.675   2.364
62386W        W26110  33.608  12.215   3.707
62387W        W26111  27.196  22.228  11.462
62388W        W26112  43.797  18.146   1.920
62389W        W26113  38.035  40.893   3.331
62390W        W26114  36.851  31.018  14.311
62391W        W26115  29.451  36.913   2.792
62392W        W26116  21.653  33.026   1.212
62393W        W26117  23.608  30.053   3.219
62394W        W26118  40.332  19.209  11.372
62395W        W26119  33.924  12.763   4.114
62396W        W26120  44.418  11.623  14.844
62397W        W26121  39.470   8.177   1.702
62398W        W26122  33.590   8.894  10.630
62399W        W26123  12.133   4.220   1.392
62400W        W26124  17.229  26.482  14.788
62401W        W26125  30.638   7.752  14.811
62402W        W26126  20.206   4.776   2.805
62403W        W26127  36.879  40.362  13.976
62404W        W26128   2.383  32.903  10.567
62405W        W26129  29.983  20.729   0.734
62406W        W26130   6.878  16.753  10.969
62407W        W26131  11.744  25.497   2.719
62408W        W26132   1.802   0.348   3.199
62409W        W26133  42.877  24.169   3.243
62410W        W26134  32.414  12.141   2.876
62411W        W26135  21.650  41.350   1.414
62412W        W26136   4.239   7.329  10.459
62413W        W26137  42.827  25.145  13.392
62414W        W26138  34.068  10.815  14.400
62415W        W26139  25.198  38.030  12.095
62416W        W26140  15.118  31.431  13.900
62417W        W26141  16.716  12.626  14.873
62418W        W26142  31.506   2.906   4.694
62419W        W26143  37.568  17.169   3.689
62420W        W26144  18.778  38.920  13.944
62421W        W26145  29.590  15.591   3.808
62422W        W26146  43.474  21.659  14.390
62423W        W26147   0.831   3.231  11.430
62424W        W26148  24.025  44.462   1.342
62425W        W26149  26.026  37.427  14.858
62426W        W26150  22.098  38.359   2.740
62427W        W26151  21.153  43.984   2.342
62428W        W26152  32.614   6.895   1.879
62429W        W26153  20.649  41.396  14.763
62430W        W26154  12.643  31.619  13.348
62431W        W26155  23.510  21.072   1.808
62432W        W26156  22.218  44.809   2.830
62433W        W26157  42.390  24.494  13.406
62434W        W26158  21.225   6.250   2.675
62435W        W26159  44.950   0.472   3.766
62436W        W26160  23.652  35.476  11.608
62437W        W26161  14.134   4.817  13.541
62438W        W26162   4.342  39.420   2.812
62439W        W26163   7.717  30.141   2.665
62440W        W26164  27.469  23.600  11.936
62441W        W26165  32.401  38.536   2.718
62442W        W26166  28.645   4.404  13.355
62443W        W26167  13.134  27.641   3.726
62444W        W26168  33.500  39.948   3.232
62445W        W26169  25.679  25.052  11.888
62446W        W26170   2.356  14.624   0.809
62447W        W26171  44.881  39.412   4.323
62448W        W26172   8.363   2.752  11.887
62449W        W26173  30.907   2.813  10.984
62450W        W26174  26.044  26.698  11.877
62451W        W26175  19.541  36.048   3.850
62452W        W26176  34.877  27.011   2.826
62453W        W26177  14.166  35.897  11.936
62454W        W26178  21.540   1.454   2.344
62455W        W26179   3.823  16.652  11.018
62456W        W26180   3.762  30.569  11.868
62457W        W26181  36.384  16.277   4.750
62458W        W26182   5.309  36.570   4.243
62459W        W26183  28.639  33.918   2.220
62460W        W26184  18.085   2.338  14.424
62461W        W26185  25.068   4.929   4.228
62462W        W26186  21.655   3.284  12.353
62463W        W26187  17.133  44.268   3.728
62464W        W26188  18.657   0.419   0.890
62465W        W26189  42.821  11.701   2.816
62466W        W26190   1.790  10.320   4.665
62467W        W26191  20.034   9.374   4.745
62468W        W26192  22.161  29.638  12.025
62469W        W26193  21.614  23.718  10.481
62470W        W26194  38.445  40.805   1.285
62471W        W26195  19.703  28.557   3.675
62472W        W26196  35.075  28.501  11.451
62473W        W26197   9.350  22.677  11.477
62474W        W26198  42.384  16.284  10.612
62475W        W26199  32.943  18.680   2.760
62476W        W26200  42.386  36.012  12.380
62477W        W26201  24.669  33.991   0.821
62478W        W26202  10.335   0.313   0.454
62479W        W26203  38.502  43.798   5.180
62480W        W26204  12.217   4.271   5.764
62481W        W26205   9.222  22.032  12.399
62482W        W26206  37.425  37.992  14.763
62483W        W26207  28.445  39.018  14.915
62484W        W26208  32.399  25.134  13.871
62485W        W26209   5.693  23.725   4.340
62486W        W26210  34.605  29.098  10.926
62487W        W26211   0.261  29.668   3.646
62488W        W26212   7.382  34.533   1.280
62489W        W26213   8.264  29.171   1.409
62490W        W26214   5.253  24.524   4.612
62491W        W26215   5.734  37.857   4.775
62492W        W26216  13.768  42.999  12.502
62493W        W26217  16.208  27.554   4.139
62494W        W26218  24.076   8.736  13.839
62495W        W26219   2.760  11.765   1.210
62496W        W26220   1.830  43.480  12.010
62497W        W26221  31.560  28.448  10.643
62498W        W26222  30.571  11.347  12.561
62499W        W26223  16.761   5.296  10.535
62500W        W26224   7.684   9.267   3.691
62501W        W26225   2.426  20.129  14.978
62502W        W26226   3.869  35.408   2.780
62503W        W26227   8.324   7.269  10.626
62504W        W26228  25.113   5.848  13.409
62505W        W26229  11.787  32.993   1.361
62506W        W26230  30.953  32.032  12.460
62507W        W26231  11.201  12.254   4.648
62508W        W26232  16.800  33.589  14.307
62509W        W26233  23.183   3.254   1.430
62510W        W26234   0.767  21.258  12.876
62511W        W26235  25.985  44.936   0.831
62512W        W26236   3.433   5.270  12.921
62513W        W26237  31.594  44.334   4.306
62514W        W26238   0.750  36.994  13.377
62515W        W26239  44.454  10.368  10.960
62516W        W26240  32.891  21.047   0.734
62517W        W26241  39.436  42.821  14.923
62518W        W26242   4.836  33.580   1.787
62519W        W26243  43.427  36.485  10.454
62520W        W26244  35.437  36.071   4.340
62521W        W26245  20.721  17.566   4.250
62522W        W26246  43.319   5.858   3.773
62523W        W26247  32.934   4.799  12.856
62524W        W26248  43.409  32.531  13.934
62525W        W26249  26.954  25.524   2.727
62526W        W26250  17.297  37.905  14.501
62527W        W26251   4.737   7.700   1.891
62528W        W26252  16.582   5.389   3.386
62529W        W26253  17.090  19.575   4.272
62530W        W26254   7.722  37.561   4.317
62531W        W26255  39.920  40.385   3.313
62532W        W26256  28.643  32.020   3.675
62533W        W26257   1.754   5.921   1.326
62534W        W26258  32.604  42.829  11.508
62535W        W26259  25.711   3.339   5.279
62536W        W26260  21.187   7.323  13.393
62537W        W26261  32.474  36.493  10.536
62538W        W26262   5.687   9.196   3.693
62539W        W26263   7.362  18.698   4.337
62540W        W26264   4.357  31.071   3.712
62541W        W26265  28.080   5.745  13.520
62542W        W26266  15.598   8.403  11.391
62543W        W26267  26.961   0.466  12.090
62544W        W26268   9.732  30.146  13.874
62545W        W26269  21.212  15.288   5.775
62546W        W26270  25.166  31.091   9.657
62547W        W26271  15.308  19.664   0.321
62548W        W26272   3.336  37.990   3.384
62549W        W26273   5.364  22.227   4.157
62550W        W26274  27.612  16.275  12.482
62551W        W26275   8.820  31.441  13.824
62552W        W26276  41.518  10.155   2.267
62553W        W26277  41.037  22.030   4.306
62554W        W26278  34.538   1.413  13.910
62555W        W26279  15.124  22.744   3.704
62556W        W26280  28.526   6.374  14.444
62557W        W26281  26.154  43.890   4.809
62558W        W26282  40.832  41.977   0.960
62559W        W26283  29.649  35.038   5.178
62560W        W26284   6.706  14.615   3.225
62561W        W26285   9.881  39.833  13.354
62562W        W26286   0.336  30.626   0.314
62563W        W26287   1.393  32.136  12.965
62564W        W26288  31.035  24.629   1.757
62565W        W26289  19.039  22.714   4.659
62566W        W26290  13.162   7.232  12.348
62567W        W26291  37.084  26.108   1.447
62568W        W26292  26.014  30.082   4.631
62569W        W26293  11.692  13.287  12.554
62570W        W26294  24.081  31.962  11.123
62571W        W26295  16.116   1.401   0.273
62572W        W26296   3.248  15.790   5.273
62573W        W26297  26.123  11.750   4.810
62574W        W26298  44.939  39.560   0.870
62575W        W26299  16.704  38.826   4.703
62576W        W26300  41.302  36.566   4.644
62577W        W26301  24.001   0.948  12.851
62578W        W26302  37.339  10.253   1.883
62579W        W26303  26.476  32.133   0.306
62580W        W26304  19.682   5.261   3.286
62581W        W26305  39.912  18.078  11.104
62582W        W26306   9.841  39.338  12.000
62583W        W26307  38.506  10.229  14.412
62584W        W26308   4.260  38.527  13.905
62585W        W26309  29.640  15.699   5.253
62586W        W26310  25.673   8.292   0.269
62587W        W26311  14.195  40.927  11.486
62588W        W26312   5.907  25.032  12.917
62589W        W26313  41.514  24.608  11.967
62590W        W26314  18.760  42.507  14.384
62591W        W26315   3.797  18.755  14.424
62592W        W26316  34.561  14.192  11.535
62593W        W26317   5.300  44.387   1.367
62594W        W26318  21.209  37.871  12.492
62595W        W26319  30.574  35.996   3.800
62596W        W26320  21.198  25.564   2.760
62597W        W26321  30.030   4.733  14.449
62598W        W26322  38.471  42.326   1.867
62599W        W26323   7.708  37.355  13.520
62600W        W26324  33.570  32.493  14.772
62601W        W26325  39.462   4.813  14.513
62602W        W26326  39.426  18.724  13.375
62603W        W26327  11.866  19.142  14.371
62604W        W26328  16.572  19.623  13.863
62605W        W26329  17.753  30.156  14.829
62606W        W26330  26.974  11.761   3.342
62607W        W26331  17.078  19.538   0.871
62608W        W26332   3.373   0.340   0.918
62609W        W26333  37.505  25.654   1.778
62610W        W26334  11.309  44.879   2.748
62611W        W26335  20.154  21.222  12.380
62612W        W26336  21.192  11.250   4.338
62613W        W26337  24.579  18.591  12.015
62614W        W26338  40.394  29.635  13.482
62615W        W26339  21.627  34.929  10.469
62616W        W26340  39.507   6.198  11.465
62617W        W26341  14.788  18.264  12.844
62618W        W26342  14.682  26.607   3.791
62619W        W26343  17.741  44.772   2.863
62620W        W26344   7.767  10.648   2.374
62621W        W26345  35.993  43.010   3.664
62622W        W26346  15.279  42.790   2.752
62623W        W26347   5.866  27.015  12.414
62624W        W26348   4.379  43.414  10.918
62625W        W26349  36.369   9.866  14.311
62626W        W26350  17.578  27.656  12.895
62627W        W26351  29.541  17.181  13.891
62628W        W26352   9.200  25.092  13.358
62629W        W26353   7.683  41.383  14.022
62630W        W26354   7.909   6.322  12.533
62631W        W26355   4.449  28.616   0.257
62632W        W26356  29.485  24.227   2.853
62633W        W26357  32.973   3.926   4.141
62634W        W26358  31.976  30.532  11.572
62635W        W26359  38.016   0.428  10.962
62636W        W26360  40.802  28.050   4.181
62637W        W26361   0.756  41.040  14.453
62638W        W26362   4.310  27.984   0.288
62639W        W26363  24.495  43.997  14.308
62640W        W26364   1.946  11.623   4.159
62641W        W26365  11.372  23.137  13.924
62642W        W26366  27.552   4.210   1.259
62643W        W26367  17.255  34.965  12.452
62644W        W26368  37.425   7.267  10.960
62645W        W26369  29.012  31.430  13.918
62646W        W26370  25.190  33.078  11.020
62647W        W26371  27.186   4.744   4.634
62648W        W26372  38.962  11.814   1.356
62649W        W26373  33.124   9.646   1.782
62650W        W26374  42.003  15.675  11.594
62651W        W26375   3.917  11.828  11.379
62652W        W26376  13.143  13.748   3.758
62653W        W26377   4.244  23.183   4.272
62654W        W26378  32.515  21.123   4.250
62655W        W26379   2.393  37.968  13.899
62656W        W26380  30.648  18.254  10.551
62657W        W26381  28.499  14.821   0.793
62658W        W26382  30.087  17.082   4.192
62659W        W26383  32.580  18.229  12.564
62660W        W26384   5.800  32.448   0.734
62661W        W26385  43.325  33.448  11.121
62662W        W26386  22.594  20.223   4.261
62663W        W26387  36.911   7.186   4.834
62664W        W26388   4.840  35.541   4.650
62665W        W26389  33.466  17.258   1.863
62666W        W26390   4.442  36.870   4.627
62667W        W26391  12.643  27.616  12.575
62668W        W26392  42.308  23.699   2.747
62669W        W26393  23.702  41.991  10.996
62670W        W26394  19.556  26.040   0.330
62671W        W26395  24.142   6.417   9.993
62672W        W26396  30.465  42.856  13.458
62673W        W26397   3.289   4.388  13.973
62674W        W26398  20.263  28.627  11.874
62675W        W26399  27.460   6.824   0.911
62676W        W26400   0.292  16.079   1.335
62677W        W26401   8.339  17.580  13.866
62678W        W26402  38.418  35.895  14.346
62679W        W26403  27.092  11.285   5.106
62680W        W26404   3.757  12.212  14.843
62681W        W26405  25.121   7.689  10.563
62682W        W26406   1.350   0.280  13.913
62683W        W26407  20.130  40.010   5.710
62684W        W26408  29.000  16.642   0.309
62685W        W26409   1.473  40.827  11.569
62686W        W26410  17.175  10.233   2.664
62687W        W26411  32.490  32.568  11.611
62688W        W26412   5.263   9.795  14.873
62689W        W26413  41.300  42.884   4.238
62690W        W26414  36.528  11.367  13.007
62691W        W26415  40.386  33.962  11.996
62692W        W26416  35.479  33.115   3.385
62693W        W26417  13.709  30.469  14.438
62694W        W26418   9.702   0.319   1.850
62695W        W26419   6.346   6.863   1.253
62696W        W26420   8.398  13.802   5.720
62697W        W26421   2.431  10.264   0.966
62698W        W26422  36.448  21.043  11.995
62699W        W26423  36.038  39.318  10.500
62700W        W26424  23.070  14.803  14.826
62701W        W26425  24.505   9.261  14.276
62702W        W26426  37.533  20.270   4.721
62703W        W26427  42.935  41.328  12.518
62704W        W26428  27.542  22.018   4.825
62705W        W26429  33.007  29.956   1.695
62706W        W26430   8.354  23.082  12.504
62707W        W26431  29.423  11.623   2.778
62708W        W26432  25.185  16.082  12.921
62709W        W26433  33.994  21.057   2.409
62710W        W26434  40.017  19.703  11.886
62711W        W26435  31.073   4.888  14.845
62712W        W26436  18.195  44.263  10.530
62713W        W26437  24.053   7.243  11.563
62714W        W26438  24.564  16.702  11.937
62715W        W26439  32.629  26.558  13.886
62716W        W26440   1.412   2.736   2.691
62717W        W26441  27.677  34.904  14.027
62718W        W26442  33.401  33.559  13.379
62719W        W26443  27.667  19.570   3.293
62720W        W26444   1.327  17.591   0.262
62721W        W26445  32.053   1.747  11.983
62722W        W26446  44.916   9.375   1.360
62723W        W26447  30.071  37.957   3.791
62724W        W26448  32.082  36.412   3.318
62725W        W26449   2.274  43.797   0.775
62726W        W26450   6.907  41.292   3.773
62727W        W26451   0.348  21.255  13.954
62728W        W26452  17.240   9.676  12.480
62729W        W26453  20.115  43.418  14.867
62730W        W26454  12.631  30.563   3.831
62731W        W26455  38.378  41.337  12.928
62732W        W26456   5.350  26.091  13.840
62733W        W26457  36.092   1.862  14.019
62734W        W26458  17.281  17.622  11.372
62735W        W26459  14.754  35.852  10.437
62736W        W26460  24.581  43.294   1.318
62737W        W26461  34.485  40.422  13.984
62738W        W26462  15.286  22.195   0.774
62739W        W26463  36.394  21.530  13.964
62740W        W26464  37.443  27.962  11.421
62741W        W26465   7.751  13.192  13.322
62742W        W26466  32.440  34.464  12.089
62743W        W26467  10.158  20.037   2.209
62744W        W26468   4.301  35.526  10.581
62745W        W26469  43.396  23.556   3.169
62746W        W26470  23.683  40.981  12.911
62747W        W26471  15.612  43.996   0.273
62748W        W26472  21.513   2.723  12.850
62749W        W26473  43.293  40.519   1.253
62750W        W26474  21.089  16.731  10.990
62751W        W26475  17.244  26.553   2.834
62752W        W26476   4.381   2.243   0.901
62753W        W26477  27.029  41.979   3.372
62754W        W26478  37.004  37.051   4.133
62755W        W26479   3.450   1.917   0.338
62756W        W26480  25.593   4.876  11.555
62757W        W26481   6.829  18.644  14.861
62758W        W26482  27.540  17.628  11.949
62759W        W26483  30.418  36.989   3.251
62760W        W26484   9.802  32.436   4.201
62761W        W26485  12.277   3.218  11.967
62762W        W26486   4.379  16.173  13.930
62763W        W26487   0.455  36.066   0.411
62764W        W26488  24.159  37.551  10.943
62765W        W26489  36.419  33.114  12.452
62766W        W26490  35.102  20.568  14.357
62767W        W26491  14.243   5.778   2.895
62768W        W26492  17.785  26.678  10.539
62769W        W26493  33.996  22.512   3.348
62770W        W26494  15.722   7.741   0.950
62771W        W26495   1.858  44.402  10.438
62772W        W26496   8.769  29.649   0.770
62773W        W26497  39.820  18.212   0.335
62774W        W26498  28.999   7.377   4.206
62775W        W26499  26.542   2.845  12.340
62776W        W26500  34.441  23.231  13.545
62777W        W26501  21.615   8.729  12.838
62778W        W26502  34.872   2.429   3.838
62779W        W26503  29.998  13.316   1.808
62780W        W26504  43.771  28.511  11.584
62781W        W26505  38.536  37.496   1.367
62782W        W26506   0.366  15.133   2.774
62783W        W26507  25.142   3.350   0.313
62784W        W26508  24.216   3.277  11.920
62785W        W26509   0.384  18.705  13.007
62786W        W26510  26.201   7.207  13.870
62787W        W26511  16.153   5.363   3.854
62788W        W26512  43.332  37.565   4.278
62789W        W26513  34.440  29.637  13.858
62790W        W26514  18.591  14.216   3.765
62791W        W26515   6.400  26.978  12.532
62792W        W26516  33.880  11.661   4.613
62793W        W26517  42.377  29.019   2.758
62794W        W26518  10.207  16.270  14.347
62795W        W26519  10.849  41.001   4.686
62796W        W26520   6.305  30.505   5.280
62797W        W26521   9.157   9.247   1.763
62798W        W26522   8.163   3.858  11.570
62799W        W26523  12.142  43.855  13.352
62800W        W26524  31.491  16.246  10.135
62801W        W26525   1.427  16.782  13.413
62802W        W26526  30.162  41.824   1.813
62803W        W26527  11.347  29.482  10.467
62804W        W26528  10.832  38.437   2.733
62805W        W26529  25.203  23.049  12.989
62806W        W26530  31.898  44.005  12.873
62807W        W26531  30.631  31.065   3.862
62808W        W26532   9.222  14.103  10.100
62809W        W26533  27.110  33.409  14.345
62810W        W26534   8.710  25.605  12.362
62811W        W26535  30.616  16.255  11.596
62812W        W26536   8.363  37.567   4.347
62813W        W26537  15.641  21.096   1.433
62814W        W26538  19.701   8.840   2.884
62815W        W26539  36.397  37.038  14.502
62816W        W26540  19.537  41.899  11.552
62817W        W26541  17.605  25.135   3.173
62818W        W26542   3.897  26.150   3.184
62819W        W26543   8.865  37.522   3.763
62820W        W26544  26.134  33.036   0.865
62821W        W26545  40.453  42.820  14.452
62822W        W26546  12.760   6.260   2.874
62823W        W26547  23.207  30.110  14.346
62824W        W26548  19.080  21.756   3.808
62825W        W26549  33.915  43.821   2.348
62826W        W26550  19.048  27.017  13.992
62827W        W26551  10.379  34.944  10.448
62828W        W26552  14.761   6.900  12.889
62829W        W26553  25.983   1.976   1.813
62830W        W26554   9.152  33.555   2.880
62831W        W26555  11.627  43.814   1.212
62832W        W26556   2.284  17.248  14.887
62833W        W26557  34.943  16.104   3.727
62834W        W26558  36.391  15.614  12.988
62835W        W26559  18.204  35.455  14.408
62836W        W26560   4.217  44.439  12.931
62837W        W26561  43.947   9.796  13.969
62838W        W26562   2.465  16.609  14.918
62839W        W26563  15.103  23.988  12.899
62840W        W26564  39.502  42.936  14.330
62841W        W26565  39.964   4.327  11.099
62842W        W26566  32.412  16.790  14.790
62843W        W26567   7.845  20.066  11.040
62844W        W26568  22.714   7.863   2.834
62845W        W26569  34.035   6.280   0.933
62846W        W26570  32.451  13.301  13.831
62847W        W26571  25.015  27.148  12.072
62848W        W26572   5.779  34.100   4.138
62849W        W26573   0.881  13.348   4.749
62850W        W26574  11.647   7.675   3.830
62851W        W26575   3.741  19.055  11.085
62852W        W26576  14.726  32.035   4.175
62853W        W26577  31.491  21.518  12.455
62854W        W26578  13.296  34.487   3.150
62855W        W26579  21.609  37.529   3.816
62856W        W26580  26.179   4.385   1.919
62857W        W26581  35.563  23.038   1.385
62858W        W26582  17.603   0.301   2.267
62859W        W26583  30.111   1.391  13.354
62860W        W26584  19.231  18.281  12.348
62861W        W26585  10.321  18.268   4.729
62862W        W26586  35.866  30.417   1.803
62863W        W26587   8.661  39.504  12.456
62864W        W26588  14.305  39.509   2.727
62865W        W26589  38.963  11.209  13.913
62866W        W26590  17.107  40.865   4.787
62867W        W26591  13.170  32.892  13.473
62868W        W26592  23.666  31.928  12.511
62869W        W26593  36.378  14.709   4.273
62870W        W26594  12.247  31.099  14.959
62871W        W26595  18.699  35.994   9.990
62872W        W26596   2.883  12.744  12.452
62873W        W26597  34.588  39.424  14.378
62874W        W26598   4.424  41.480   4.259
62875W        W26599   4.855  21.571  12.377
62876W        W26600  18.572  42.899   2.767
62877W        W26601  17.772   5.282   4.223
62878W        W26602  27.528  26.588   2.736
62879W        W26603  19.269   9.172  14.343
62880W        W26604  37.345  43.419  14.873
62881W        W26605  28.150  34.900   2.178
62882W        W26606   2.399  15.586   5.105
62883W        W26607  26.957  15.588   2.806
62884W        W26608  27.648  18.209   1.301
62885W        W26609  23.674  43.395   4.627
62886W        W26610  30.057  42.487  13.419
62887W        W26611   5.754  33.379   1.306
62888W        W26612   6.253  27.473   3.779
62889W        W26613  41.375   1.768  13.953
62890W        W26614   5.379  10.143   4.157
62891W        W26615  28.014  36.082   3.647
62892W        W26616  22.202   4.319   2.281
62893W        W26617   1.950  14.138   4.754
62894W        W26618  13.785  35.565  14.946
62895W        W26619  11.288   2.859   3.680
62896W        W26620  44.959  11.689  13.045
62897W        W26621   5.276  41.854   1.919
62898W        W26622  15.651  30.109   0.803
62899W        W26623   0.286  23.699   2.203
62900W        W26624  38.008  14.617  14.293
62901W        W26625  11.347  32.912  13.814
62902W        W26626  20.527  12.347   3.797
62903W        W26627  33.979  37.575  12.518
62904W        W26628  37.857  17.070   2.844
62905W        W26629  44.970  13.149  12.532
62906W        W26630  14.832  18.630   1.721
62907W        W26631  34.959  38.521   1.290
62908W        W26632  38.985  21.617  10.439
62909W        W26633   2.775  22.122  14.481
62910W        W26634  21.607   9.186   4.195
62911W        W26635   6.792   3.923   3.776
62912W        W26636  20.095  31.092  13.940
62913W        W26637  13.753   2.892  11.112
62914W        W26638  25.983  44.447  10.996
62915W        W26639   3.857  10.809  12.071
62916W        W26640  37.363  23.628   2.798
62917W        W26641  32.007   2.799   3.355
62918W        W26642  27.520  23.042  13.314
62919W        W26643  42.914  28.504   4.325
62920W        W26644  33.937   5.420  11.903
62921W        W26645  16.161  39.483   1.328
62922W        W26646  14.611   8.406  10.551
62923W        W26647  13.171  41.804   3.228
62924W        W26648   0.775  41.883   3.256
62925W        W26649   9.239  39.900   2.408
62926W        W26650  33.590  44.303  13.880
62927W        W26651   1.441  37.435   3.736
62928W        W26652  27.050  14.834  13.537
62929W        W26653  10.142   7.241   2.900
62930W        W26654   1.740  24.140  14.000
62931W        W26655   4.355  24.067   1.322
62932W        W26656  36.396  43.347   3.679
62933W        W26657  14.134  13.196   0.348
62934W        W26658  21.671  28.540   4.322
62935W        W26659  17.078  30.952  13.798
62936W        W26660  13.162  30.062  10.539
62937W        W26661   9.703  43.944  10.563
62938W        W26662  28.074   6.814   1.346
62939W        W26663  24.052  18.648  11.540
62940W        W26664  43.297  11.338  10.462
62941W        W26665  35.907  41.434  14.799
62942W        W26666  29.037  12.297  12.575
62943W        W26667  29.571  30.470   0.924
62944W        W26668  43.772  27.679   0.285
62945W        W26669  42.353  13.620  11.890
62946W        W26670  22.185  31.907   1.312
62947W        W26671   1.410  14.167   0.924
62948W        W26672  39.525  43.470   2.221
62949W        W26673  17.215  12.855   0.449
62950W        W26674   0.937  19.046   3.754
62951W        W26675  22.070  34.915  12.483
62952W        W26676  35.009  32.394  13.528
62953W        W26677  17.224  29.016  14.902
62954W        W26678  44.932   2.313   4.293
62955W        W26679   0.860   2.362   0.753
62956W        W26680  16.656  25.552   2.902
62957W        W26681  27.587  29.459  13.356
62958W        W26682  28.588  21.051   0.419
62959W        W26683  30.442  13.621   0.820
62960W        W26684  20.717  20.242  14.902
62961W        W26685   5.861  44.457  13.873
62962W        W26686   6.248  40.946  14.468
62963W        W26687  33.545  41.455  10.898
62964W        W26688   2.924   8.248  13.373
62965W        W26689   7.345   7.874   1.298
62966W        W26690  21.748   9.350   1.890
62967W        W26691   2.765   1.878   4.226
62968W        W26692   7.259   7.390  14.917
62969W        W26693  35.976  38.073   1.800
62970W        W26694  43.956   3.838  12.013
62971W        W26695  39.509   9.803   4.281
62972W        W26696  39.504  27.122   0.389
62973W        W26697  32.401  36.421  11.939
62974W        W26698   9.156   1.347  11.433
62975W        W26699  24.988  24.484  14.846
62976W        W26700  23.196  28.106  13.440
62977W        W26701  39.969  22.650   0.808
62978W        W26702  34.864  41.413   4.160
62979W        W26703  26.486  19.104  13.943
62980W        W26704  11.161  12.697   1.829
62981W        W26705  42.832  23.048  11.499
62982W        W26706  44.934   4.307   0.897
62983W        W26707  19.612  18.257  10.934
62984W        W26708  18.243  37.511  12.428
62985W        W26709   3.867  27.612  12.872
62986W        W26710  42.409   1.242  11.925
62987W        W26711  38.522  43.950  14.309
62988W        W26712   0.970  42.414  14.472
62989W        W26713  16.176  16.121  11.541
62990W        W26714   7.861  44.855  11.093
62991W        W26715   4.264  24.009  14.903
62992W        W26716   4.371  39.835   4.683
62993W        W26717  34.034  18.149   4.608
62994W        W26718  39.320   7.772   3.771
62995W        W26719  27.510  27.602   1.805
62996W        W26720  18.244  12.784   3.719
62997W        W26721  20.242  41.002   2.379
62998W        W26722  38.027  18.286  11.989
62999W        W26723  25.504  36.534   1.903
63000W        W26724   0.375   7.229   2.302
63001W        W26725  37.492  42.481  14.452
63002W        W26726  23.104  19.746  14.780
63003W        W26727  30.622  30.995  14.362
63004W        W26728  34.588  38.343  14.937
63005W        W26729  10.368  27.106  13.884
63006W        W26730  40.546  20.075   1.835
63007W        W26731  15.769  19.752  14.300
63008W        W26732  28.463  18.582  12.574
63009W        W26733  23.639   0.459   4.329
63010W        W26734   1.425  30.952   4.261
63011W        W26735  42.327  28.992  13.525
63012W        W26736  19.599   9.302  12.459
63013W        W26737  15.212  12.663   1.775
63014W        W26738  30.596  33.615   0.928
63015W        W26739  25.681  21.241  13.859
63016W        W26740  25.164  40.933   1.700
63017W        W26741  18.689  23.062   3.670
63018W        W26742  44.910  24.069   3.655
63019W        W26743  36.494  21.572  13.399
63020W        W26744  24.668  37.883   1.316
63021W        W26745   1.417  35.085   4.154
63022W        W26746  26.677  44.981   2.766
63023W        W26747   6.243  34.491   3.744
63024W        W26748  29.644  43.931   4.797
63025W        W26749  20.581  36.582   3.695
63026W        W26750  16.659   1.362   3.242
63027W        W26751  12.164  23.705  11.900
63028W        W26752  22.540   5.349  14.892
63029W        W26753  33.081   7.716   1.772
63030W        W26754  20.664   7.265  12.393
63031W        W26755   6.817  18.279  14.808
63032W        W26756  30.963   0.482   2.348
63033W        W26757  43.853  43.310  13.808
63034W        W26758  29.631  33.932   4.613
63035W        W26759  16.702  43.474   1.268
63036W        W26760  44.494  20.577   1.406
63037W        W26761  27.494  37.526  12.905
63038W        W26762   5.806  18.248  12.518
63039W        W26763  32.392  13.706  11.581
63040W        W26764  30.656  38.414  11.461
63041W        W26765   0.463  44.416   1.430
63042W        W26766  29.611  33.020   1.912
63043W        W26767  43.884  33.604  11.112
63044W        W26768  13.659  13.312  14.976
63045W        W26769   0.821  26.638   5.118
63046W        W26770  21.148   6.920   3.208
63047W        W26771   3.266  36.992  11.400
63048W        W26772   7.360  19.648  11.026
63049W        W26773  26.155  24.608   4.304
63050W        W26774  12.132  19.221  14.316
63051W        W26775  24.489  34.380  12.015
63052W        W26776  31.632  25.993  10.483
63053W        W26777  12.774  29.629   2.193
63054W        W26778   4.444  18.758   0.461
63055W        W26779  41.407  22.643   3.187
63056W        W26780  39.445  37.421   2.240
63057W        W26781   5.275  19.098  12.482
63058W        W26782  25.985  17.118  12.048
63059W        W26783  42.470  31.089  14.371
63060W        W26784  26.171  25.619   4.347
63061W        W26785  18.107   9.772   0.408
63062W        W26786  28.951   1.332   4.790
63063W        W26787  27.028   0.461  10.619
63064W        W26788   4.238   8.380  14.968
63065W        W26789  13.120  31.627  12.931
63066W        W26790   9.380   4.916   2.265
63067W        W26791  24.075  21.133   3.771
63068W        W26792  29.453   9.395   3.374
63069W        W26793  26.202  18.164   3.771
63070W        W26794  19.751  20.765  14.323
63071W        W26795  37.454  41.902  13.492
63072W        W26796  10.357  10.832   0.865
63073W        W26797  24.205  29.602   2.707
63074W        W26798  43.271  25.577  14.913
63075W        W26799  15.270  32.502   1.318
63076W        W26800  44.314  34.947   0.386
63077W        W26801  10.788  27.066   2.862
63078W        W26802  21.180   8.900   2.729
63079W        W26803  12.230   8.353  13.002
63080W        W26804  18.661  15.146   3.735
63081W        W26805  30.117  20.222   4.298
63082W        W26806   3.762   4.374   2.820
63083W        W26807  39.521   6.188   1.865
63084W        W26808  28.968   0.441  14.401
63085W        W26809  34.435  33.604  11.506
63086W        W26810   2.417  26.966  12.969
63087W        W26811   1.767  42.894  12.889
63088W        W26812  11.731  29.058  14.444
63089W        W26813  17.744  38.047  11.069
63090W        W26814  25.496  34.443   4.732
63091W        W26815   4.253   3.767  14.930
63092W        W26816  12.776  38.509   4.800
63093W        W26817  19.553  44.006   4.674
63094W        W26818  38.469  32.986  13.531
63095W        W26819  29.124  22.195  13.423
63096W        W26820  22.158   0.318  13.876
63097W        W26821  29.087  14.795  13.870
63098W        W26822  32.893  16.785  10.966
63099W        W26823  44.938   1.882   4.625
63100W        W26824  41.844  25.041  12.976
63101W        W26825  28.661   6.307  13.458
63102W        W26826  39.499  33.591  14.788
63103W        W26827   2.449  29.646   4.791
63104W        W26828  10.728   1.809  10.485
63105W        W26829  36.905  28.116  12.953
63106W        W26830  40.471  15.586   4.678
63107W        W26831   2.841  34.063   1.728
63108W        W26832   7.669  44.385   9.939
63109W        W26833   3.324  28.037  14.349
63110W        W26834  28.015  42.967   2.854
63111W        W26835  37.569  31.562  12.450
63112W        W26836   2.720  38.920   2.707
63113W        W26837  11.273  36.540   0.923
63114W        W26838   6.200   8.854  11.386
63115W        W26839   7.773  13.318  14.306
63116W        W26840  43.343  25.092   2.866
63117W        W26841  34.558  26.624  11.972
63118W        W26842   9.244  23.222   1.229
63119W        W26843  12.193  44.460   3.696
63120W        W26844  43.808  10.633  12.419
63121W        W26845  18.696  36.883   2.213
63122W        W26846  32.615  42.875  14.833
63123W        W26847  22.124   1.378  13.987
63124W        W26848   6.361  36.890   2.728
63125W        W26849  43.501  38.040  10.157
63126W        W26850  24.652  20.073  11.098
63127W        W26851  17.682   9.787  11.525
63128W        W26852   2.924  11.290  12.405
63129W        W26853  40.019   5.914   0.810
63130W        W26854  24.643   0.276  12.852
63131W        W26855  38.899  16.792   2.733
63132W        W26856  17.800  27.040   4.791
63133W        W26857  34.490   2.828  13.430
63134W        W26858  42.967  41.442  13.503
63135W        W26859  12.748  15.635  14.856
63136W        W26860   7.300  40.522   3.669
63137W        W26861  42.324  11.633  11.110
63138W        W26862  38.548  27.549  14.443
63139W        W26863  24.028  23.022   3.332
63140W        W26864   1.447   0.901  13.499
63141W        W26865  31.111  17.631  11.421
63142W        W26866  12.346  24.041   1.432
63143W        W26867  13.211  29.559   0.451
63144W        W26868  39.857  37.558   3.368
63145W        W26869  43.956  43.446  13.002
63146W        W26870  14.243  19.680   2.417
63147W        W26871  23.667  13.128   3.777
63148W        W26872  36.893  43.980  14.983
63149W        W26873  28.498  19.053  10.419
63150W        W26874  32.927  40.339  13.054
63151W        W26875  31.911  38.440  10.134
63152W        W26876  40.335  40.823  11.431
63153W        W26877   1.366  26.487  12.044
63154W        W26878  37.469  16.718  13.361
63155W        W26879  40.320   9.324  11.071
63156W        W26880  31.054  25.150   9.961
63157W        W26881  24.201  21.101  14.979
63158W        W26882  28.032   0.258  12.464
63159W        W26883  31.594  37.543   2.266
63160W        W26884   4.330  42.473   1.786
63161W        W26885  12.204  29.597   3.664
63162W        W26886  28.544  30.619  12.551
63163W        W26887  41.497  23.103   4.325
63164W        W26888  43.516  44.295   4.175
63165W        W26889  34.503   2.274  12.358
63166W        W26890  18.181  26.139   0.340
63167W        W26891   0.346  23.729   0.894
63168W        W26892  31.502  11.810   0.820
63169W        W26893  40.005  15.100   3.737
63170W        W26894  17.168  10.734  12.923
63171W        W26895  11.840  42.392  10.475
63172W        W26896   2.915  21.666  11.377
63173W        W26897   4.391  42.821   1.743
63174W        W26898   1.898  33.480   1.715
63175W        W26899  35.014  13.120  10.618
63176W        W26900  10.841  23.516   3.317
63177W        W26901   4.378   8.820   4.157
63178W        W26902  34.512   3.871   2.396
63179W        W26903  10.718  18.219   1.779
63180W        W26904  28.953  17.281  12.033
63181W        W26905  26.146   9.363   3.653
63182W        W26906  10.271  29.125   4.261
63183W        W26907  18.260  34.564   2.411
63184W        W26908  41.434  32.962   2.666
63185W        W26909  40.323  17.753   4.333
63186W        W26910  35.373  10.684  12.080
63187W        W26911  18.612  19.135   4.741
63188W        W26912  15.774  31.131  11.049
63189W        W26913  40.545  27.083   2.306
63190W        W26914   4.429  10.699   4.691
63191W        W26915  42.814  21.514  11.945
63192W        W26916  11.330  32.465  14.959
63193W        W26917  22.148  30.926   4.650
63194W        W26918   3.952  27.069   0.967
63195W        W26919  21.569  17.713  10.929
63196W        W26920  21.100   0.374  10.071
63197W        W26921  40.324  17.203   0.317
63198W        W26922  15.589   8.278  12.929
63199W        W26923  28.643  23.171   1.739
63200W        W26924  19.090  27.098   3.746
63201W        W26925  43.278  16.108  11.425
63202W        W26926  27.592   1.276   1.363
63203W        W26927  28.998  40.890   2.842
63204W        W26928  13.816  19.756   0.260
63205W        W26929   3.360  23.107  14.397
63206W        W26930  40.024   8.324  11.020
63207W        W26931  25.667  25.574   2.268
63208W        W26932  26.535  30.588   2.263
63209W        W26933  16.747   0.881   0.388
63210W        W26934   0.910  18.063  14.503
63211W        W26935  19.076  26.187   0.402
63212W        W26936  32.504   4.378   4.237
63213W        W26937  27.964  19.135  10.622
63214W        W26938   7.887  40.818   0.959
63215W        W26939  31.020   0.255   0.282
63216W        W26940  10.214  13.134  12.080
63217W        W26941   0.761   2.893   4.279
63218W        W26942  23.535  34.872   0.889
63219W        W26943   1.957  35.104   2.198
63220W        W26944  19.216   2.269  13.009
63221W        W26945  29.432  28.995  12.416
63222W        W26946  39.435  12.222   1.701
63223W        W26947  27.050  37.975   3.756
63224W        W26948  32.933   6.769   2.696
63225W        W26949  10.173  16.106   5.151
63226W        W26950  24.159   3.848   3.712
63227W        W26951  22.712   9.347  10.525
63228W        W26952   2.813   1.764  11.989
63229W        W26953  32.137  40.848   2.762
63230W        W26954   9.705  13.326   0.888
63231W        W26955  28.165  22.127   1.784
63232W        W26956  28.630  17.651  11.960
63233W        W26957  38.350  30.129  14.792
63234W        W26958  23.525   9.663  13.537
63235W        W26959  26.496  15.671  13.053
63236W        W26960  37.451  11.214  14.906
63237W        W26961  12.136  43.510   1.376
63238W        W26962  31.630  14.273   4.813
63239W        W26963  27.511  36.960   2.689
63240W        W26964  40.335   4.842  10.581
63241W        W26965  38.495   2.954   3.263
63242W        W26966  26.533  29.089   2.321
63243W        W26967   4.335   0.762   2.291
63244W        W26968   8.730  15.747  10.909
63245W        W26969  41.305  18.100  13.389
63246W        W26970   7.711   7.735   4.184
63247W        W26971  34.510  44.485   1.706
63248W        W26972  39.938   8.821  12.038
63249W        W26973  14.678  10.245   2.840
63250W        W26974   5.766  35.394  13.521
63251W        W26975   0.824  29.463  11.878
63252W        W26976  33.397  24.061   2.879
63253W        W26977  44.343   1.257  13.876
63254W        W26978  29.026  18.187  11.441
63255W        W26979  44.422   8.180   1.318
63256W        W26980  37.069  19.702  11.063
63257W        W26981  19.534  27.999  12.532
63258W        W26982  28.640  30.908  11.914
63259W        W26983  37.909  36.467  12.826
63260W        W26984   0.253   7.858  11.059
63261W        W26985   3.732  36.556   2.734
63262W        W26986   2.904  32.004   4.709
63263W        W26987  41.799  36.013  10.499
63264W        W26988   6.788  39.314  10.993
63265W        W26989  42.461   8.404   1.331
63266W        W26990  36.973   9.340  11.859
63267W        W26991  20.584  36.096   0.438
63268W        W26992  18.769  20.206  10.410
63269W        W26993  19.039  31.407  13.925
63270W        W26994  34.905  16.288  10.476
63271W        W26995  14.680  16.147   3.852
63272W        W26996   9.215  15.659  12.027
63273W        W26997  40.523   6.387  14.845
63274W        W26998  21.219  33.077  14.965
63275W        W26999  10.338   7.731   2.306
63276W        W27000  26.031  16.635  13.968
63277W        W27001  19.110  19.270   0.871
63278W        W27002  14.326  34.480   4.656
63279W        W27003  15.714   9.736   3.255
63280W        W27004   7.175  15.196  14.031
63281W        W27005  28.667  43.511  12.873
63282W        W27006  11.326  24.141   0.791
63283W        W27007  14.611  31.137  13.351
63284W        W27008   5.756  14.679  10.450
63285W        W27009   3.953  17.145  10.002
63286W        W27010  29.520  11.247  13.341
63287W        W27011  29.046  20.223  13.938
63288W        W27012  40.935  22.569  13.064
63289W        W27013  37.497  26.483  13.997
63290W        W27014  35.480   4.844  12.857
63291W        W27015   6.914  23.183  10.896
63292W        W27016   4.353  22.718  12.510
63293W        W27017  13.824  11.828   2.670
63294W        W27018   3.766  14.213  12.560
63295W        W27019  14.665  38.479  14.490
63296W        W27020  23.108  20.595  11.498
63297W        W27021  35.412   3.460  14.765
63298W        W27022  33.451  29.135   3.342
63299W        W27023  28.458  15.161  11.065
63300W        W27024  14.191   3.363  14.909
63301W        W27025  31.964   6.342   4.197
63302W        W27026  28.982   7.312   2.683
63303W        W27027  27.940  23.161   1.450
63304W        W27028  21.708  29.974  11.880
63305W        W27029  10.331  17.296  13.481
63306W        W27030   3.781  33.017   1.427
63307W        W27031  42.946  38.959  13.046
63308W        W27032  34.535   3.715   2.897
63309W        W27033  41.505   3.836  11.421
63310W        W27034  24.550  12.759   3.704
63311W        W27035   1.431  37.986   1.736
63312W        W27036  37.836  32.133  13.915
63313W        W27037  44.835  23.109   0.784
63314W        W27038  23.239  44.955   2.399
63315W        W27039   2.392  44.965  12.956
63316W        W27040  44.808  33.002   3.349
63317W        W27041  32.433  40.418   1.341
63318W        W27042  12.352  30.945   1.836
63319W        W27043   8.329  21.696  11.936
63320W        W27044  41.305  12.124   2.310
63321W        W27045  23.192  11.775  13.363
63322W        W27046  30.544  42.343  12.832
63323W        W27047  24.560  27.587  11.027
63324W        W27048  18.178  13.130   2.299
63325W        W27049  21.559  14.333  14.030
63326W        W27050  14.296  23.178   2.189
63327W        W27051   1.472  11.341  11.053
63328W        W27052  26.121  40.435  13.980
63329W        W27053  40.890   8.220  14.821
63330W        W27054  31.038  44.428   1.783
63331W        W27055   2.963  17.227  14.841
63332W        W27056   3.371  39.453   3.165
63333W        W27057  23.618  43.396   2.692
63334W        W27058  16.671   5.304   9.642
63335W        W27059  16.131  44.791   4.670
63336W        W27060  20.613  34.891  12.030
63337W        W27061  30.427  16.806  12.918
63338W        W27062  20.623  33.482   1.907
63339W        W27063  30.480  12.116  11.113
63340W        W27064  43.776   5.708   2.403
63341W        W27065  22.518   9.281  13.022
63342W        W27066  15.814  25.040   2.206
63343W        W27067  18.254  12.622   2.255
63344W        W27068  32.053   1.342  13.919
63345W        W27069  34.551   1.783   4.711
63346W        W27070  21.539  23.169   0.341
63347W        W27071  32.950   8.265  11.420
63348W        W27072  25.082  21.235  13.931
63349W        W27073  35.925  42.907  11.956
63350W        W27074  15.288  13.825   0.273
63351W        W27075   7.684  30.462  10.072
63352W        W27076  33.929  13.125  14.835
63353W        W27077   2.901   0.843  14.343
63354W        W27078  24.514  16.142   4.705
63355W        W27079  30.050  38.865   1.238
63356W        W27080  16.194  33.074  12.552
63357W        W27081  11.776   9.346   0.287
63358W        W27082   3.827   0.435   4.735
63359W        W27083   2.435  16.130  11.473
63360W        W27084  41.916   0.361   3.683
63361W        W27085   0.293  31.055   3.825
63362W        W27086   8.866  19.559  12.973
63363W        W27087  42.807  31.411  10.478
63364W        W27088   5.847  23.034   0.385
63365W        W27089   6.686  43.284   3.722
63366W        W27090  22.702   4.852   3.273
63367W        W27091  18.549   7.742  14.907
63368W        W27092  34.411  29.002  14.815
63369W        W27093  36.482  24.721   2.869
63370W        W27094  26.092  37.502   3.755
63371W        W27095  11.682  34.555  13.458
63372W        W27096   1.419  17.558  12.488
63373W        W27097  16.093  36.476  13.415
63374W        W27098   3.321   7.883  13.446
63375W        W27099  21.158  16.589   0.779
63376W        W27100  11.347  31.642   4.183
63377W        W27101  24.655  44.336   3.326
63378W        W27102   4.778  41.314  12.882
63379W        W27103  22.536  14.196   5.110
63380W        W27104  26.065  34.909  14.310
63381W        W27105  14.802   6.296  14.943
63382W        W27106  29.171  32.056   3.828
63383W        W27107   9.658  32.122   1.332
63384W        W27108  41.503  21.158   0.242
63385W        W27109  22.163   4.769   4.626
63386W        W27110  14.189  31.043   2.409
63387W        W27111  15.695  31.123   3.660
63388W        W27112  39.971  11.228  12.396
63389W        W27113  17.633  26.150  10.901
63390W        W27114   6.881  44.760   1.737
63391W        W27115  22.668  18.142  12.343
63392W        W27116   8.800  20.630  13.514
63393W        W27117  33.948  27.617   2.677
63394W        W27118   6.839  42.501   0.334
63395W        W27119   5.707  19.575  11.041
63396W        W27120  19.749  25.217   3.239
63397W        W27121   5.307   4.299  13.004
63398W        W27122  11.209  31.458   1.864
63399W        W27123   1.397   8.312   2.682
63400W        W27124  13.199  41.373   1.283
63401W        W27125  33.459  33.087   2.696
63402W        W27126  11.198  28.491  14.970
63403W        W27127   9.869  18.663  10.906
63404W        W27128  21.577  17.166  13.981
63405W        W27129  11.151  20.613   0.949
63406W        W27130  30.589   4.273  14.772
63407W        W27131   0.301   3.885  11.422
63408W        W27132  26.636  29.928   9.942
63409W        W27133  33.892  42.340   0.944
63410W        W27134  10.684  21.528   2.876
63411W        W27135   9.882   1.940  13.832
63412W        W27136  10.644  21.702  11.866
63413W        W27137  25.025  28.437   3.642
63414W        W27138  30.464  17.080   3.656
63415W        W27139  35.052  29.442   4.136
63416W        W27140  17.149  26.658  13.376
63417W        W27141  32.626   2.837   3.278
63418W        W27142  33.558  14.802  13.821
63419W        W27143  18.748  21.145  14.965
63420W        W27144   0.876  21.256  10.997
63421W        W27145  15.761  21.514   0.753
63422W        W27146  36.560  32.589  12.523
63423W        W27147  28.126  40.479   3.360
63424W        W27148   6.917  23.222  11.877
63425W        W27149  11.789  34.007  11.530
63426W        W27150  39.038   0.747   4.687
63427W        W27151   1.903  33.462   3.190
63428W        W27152  17.244  11.211   0.309
63429W        W27153  38.960   3.769  11.491
63430W        W27154  38.549  10.186  11.449
63431W        W27155  16.707  41.446  12.097
63432W        W27156  18.546  11.321  14.318
63433W        W27157   5.411   9.772  10.116
63434W        W27158  36.480  29.165   2.792
63435W        W27159  16.787  43.842  13.323
63436W        W27160  42.941  42.469  14.857
63437W        W27161  23.056  36.380   2.223
63438W        W27162   3.776  29.475  10.104
63439W        W27163  21.653  42.422   4.837
63440W        W27164   5.214  21.233  11.444
63441W        W27165  44.838  34.103   0.416
63442W        W27166  10.677   6.324   4.815
63443W        W27167   6.215  28.475  11.947
63444W        W27168  44.390   6.307  10.605
63445W        W27169  13.317   1.475  12.443
63446W        W27170  19.049   2.353   1.932
63447W        W27171  14.764  29.034   0.292
63448W        W27172   6.825  13.239   0.878
63449W        W27173  11.859  18.068   5.280
63450W        W27174  28.641  31.599  11.496
63451W        W27175  19.681  42.984  14.826
63452W        W27176  30.139  34.946   4.275
63453W        W27177  17.774  15.281  13.855
63454W        W27178  33.625  19.231   0.268
63455W        W27179  32.091  43.876  14.313
63456W        W27180   0.901   0.850  11.524
63457W        W27181  16.274  31.511  10.635
63458W        W27182  29.106  17.072  13.364
63459W        W27183  20.097  29.048  10.406
63460W        W27184  20.579   6.182   3.377
63461W        W27185  18.749  30.538   5.154
63462W        W27186   5.255  12.727   0.292
63463W        W27187  42.875   6.235   2.666
63464W        W27188  39.546  17.699  13.373
63465W        W27189  21.628  20.742   4.749
63466W        W27190  32.611  30.513   5.273
63467W        W27191  44.418  16.783   1.892
63468W        W27192  18.573  42.484  14.032
63469W        W27193  28.145  28.992   4.609
63470W        W27194  17.718  17.219  13.412
63471W        W27195   3.269  22.051   3.297
63472W        W27196   3.458  35.036  13.485
63473W        W27197   7.908  21.136  14.782
63474W        W27198  41.958  37.913  13.844
63475W        W27199  44.957  28.592   1.868
63476W        W27200   8.303  23.048  13.843
63477W        W27201  24.177  18.591   0.443
63478W        W27202  15.687  32.095   1.885
63479W        W27203  14.772   6.864   4.243
63480W        W27204  30.983  10.302  11.872
63481W        W27205  18.772  34.049   0.807
63482W        W27206  41.823  43.798   5.091
63483W        W27207   0.366   4.744  13.800
63484W        W27208  17.207   2.400   4.297
63485W        W27209  28.169   6.887  13.410
63486W        W27210  13.744  24.621   3.632
63487W        W27211  38.502  13.604  10.925
63488W        W27212  26.005   9.158   0.927
63489W        W27213  22.629  32.565   1.901
63490W        W27214   1.776   3.720   2.794
63491W        W27215  32.126   3.330   1.840
63492W        W27216  14.621   2.312   1.336
63493W        W27217  27.601   7.199  11.607
63494W        W27218  23.993  20.732   3.243
63495W        W27219   1.378   4.747   4.157
63496W        W27220  40.531   2.929  13.019
63497W        W27221  15.753  32.559   1.273
63498W        W27222   9.784  30.569  13.940
63499W        W27223  31.609  44.353  14.929
63500W        W27224   1.972   2.773  13.970
63501W        W27225  32.575  19.698   0.244
63502W        W27226  42.503   0.896   0.945
63503W        W27227  15.694  37.401   2.702
63504W        W27228  14.626  43.494   1.376
63505W        W27229   5.837   7.897  13.540
63506W        W27230  16.145  37.988   2.381
63507W        W27231  15.324  34.049  14.993
63508W        W27232  18.663  36.408   3.374
63509W        W27233  34.900  28.617   3.178
63510W        W27234  43.814  33.514   1.387
63511W        W27235  20.544  38.834   1.397
63512W        W27236  23.048  20.730   3.773
63513W        W27237  39.389   8.869  10.977
63514W        W27238  16.305  44.379   2.300
63515W        W27239   0.407   5.414   3.199
63516W        W27240  41.873  42.003   3.304
63517W        W27241  38.327  34.466  12.943
63518W        W27242  39.406   3.903   4.198
63519W        W27243   2.820   4.903  14.361
63520W        W27244  29.554   4.256  13.426
63521W        W27245  17.143  17.308  10.122
63522W        W27246  15.328  15.221  13.882
63523W        W27247  40.011  29.113  12.084
63524W        W27248  43.394  37.483  13.462
63525W        W27249   4.743   2.317  12.932
63526W        W27250  37.987   9.231  10.640
63527W        W27251  13.672  38.986  13.931
63528W        W27252  29.938  40.454   0.482
63529W        W27253  40.436  42.870   1.930
63530W        W27254  17.633  23.139  13.974
63531W        W27255   5.425  27.104   4.139
63532W        W27256  33.488  14.097  14.839
63533W        W27257  40.889  37.482   0.879
63534W        W27258   0.438  15.644   3.844
63535W        W27259  27.197   5.296   3.697
63536W        W27260  42.447  44.976  12.398
63537W        W27261  21.530  29.474  14.020
63538W        W27262   7.749  11.671   2.890
63539W        W27263  33.961   7.225  12.340
63540W        W27264  12.777  37.083  12.491
63541W        W27265  41.422  32.408  12.569
63542W        W27266   1.744   3.765   1.895
63543W        W27267  26.530   5.816  14.957
63544W        W27268  21.229  36.529   2.832
63545W        W27269  26.689  29.128  13.464
63546W        W27270  23.562  21.703  12.985
63547W        W27271  19.044  19.707  12.434
63548W        W27272  32.972   9.727  14.864
63549W        W27273  35.016  22.626   3.853
63550W        W27274  38.076  32.546  12.009
63551W        W27275  27.123   8.828  13.324
63552W        W27276  23.729   5.700   3.261
63553W        W27277   3.815  30.133   4.802
63554W        W27278  40.513  25.036  14.011
63555W        W27279  22.645   0.790  11.112
63556W        W27280  32.450  19.155   3.262
63557W        W27281  28.096  32.578  12.842
63558W        W27282  12.163  18.762   1.293
63559W        W27283   3.790  36.487   4.334
63560W        W27284  28.458  12.774  14.873
63561W        W27285  28.638   8.658  13.831
63562W        W27286   2.436  12.642  14.874
63563W        W27287  21.515  12.670   4.614
63564W        W27288  18.257  24.644  14.375
63565W        W27289  22.133  21.546   1.335
63566W        W27290  14.720  25.545   3.238
63567W        W27291  27.163  40.458  13.513
63568W        W27292  37.448  37.945   5.191
63569W        W27293  24.679   7.713   0.474
63570W        W27294   6.393  10.322  12.345
63571W        W27295  28.515  13.254   0.796
63572W        W27296  16.289  17.598  13.490
63573W        W27297   5.913  14.754   2.382
63574W        W27298  18.177  15.273  13.036
63575W        W27299   1.404   0.987   4.222
63576W        W27300  24.637  44.879  10.581
63577W        W27301  16.570  29.081   0.800
63578W        W27302  14.182  26.961   2.255
63579W        W27303  37.982  35.438   3.659
63580W        W27304  32.053   7.346   0.935
63581W        W27305  43.451  24.199  11.897
63582W        W27306  39.514  44.277   4.714
63583W        W27307  31.089   4.728  12.407
63584W        W27308  40.353  43.472  14.493
63585W        W27309  40.403  10.324  12.413
63586W        W27310  14.237  40.547  14.809
63587W        W27311  41.036  34.922  14.853
63588W        W27312  39.860  11.636  14.866
63589W        W27313  21.689  18.594   0.370
63590W        W27314  41.398  21.038   1.828
63591W        W27315   3.443  23.119  13.519
63592W        W27316  12.665  25.526   0.966
63593W        W27317   3.232   0.361  14.821
63594W        W27318  31.037  39.516   4.289
63595W        W27319  28.677  19.179   3.695
63596W        W27320  39.975  15.171   2.891
63597W        W27321  24.103   7.172  14.894
63598W        W27322  18.633  13.188  13.436
63599W        W27323   1.280   2.276  11.991
63600W        W27324  30.468  18.574  12.497
63601W        W27325  28.536   6.883   4.241
63602W        W27326  24.178  13.317   3.224
63603W        W27327  11.175  35.529  10.471
63604W        W27328  44.444   6.427   0.964
63605W        W27329  20.206  32.516  11.048
63606W        W27330  24.159  41.367  14.351
63607W        W27331   7.344  16.589   0.476
63608W        W27332  25.522  27.585  11.564
63609W        W27333   0.248  29.577  12.561
63610W        W27334  15.786  39.316   2.858
63611W        W27335   7.841  14.782   3.728
63612W        W27336  30.097  13.139   0.925
63613W        W27337   0.288  31.431  14.367
63614W        W27338  14.240  15.699   0.376
63615W        W27339  15.157  36.027  14.993
63616W        W27340   2.326   4.230  14.912
63617W        W27341   8.788  21.116   2.899
63618W        W27342   7.344  27.167  12.052
63619W        W27343  20.212  28.185   3.848
63620W        W27344  18.100  30.650  12.450
63621W        W27345  42.785   2.321   1.765
63622W        W27346   6.408  25.649  13.000
63623W        W27347  10.714   2.814   2.286
63624W        W27348   8.723   4.235   3.840
63625W        W27349   2.445   3.377   4.292
63626W        W27350  43.807  25.548  13.481
63627W        W27351  36.487  34.878  10.958
63628W        W27352  21.025  44.830   3.354
63629W        W27353  16.651  26.116  11.022
63630W        W27354  30.532  17.747   1.712
63631W        W27355  35.088  18.661   2.390
63632W        W27356  17.638   4.815  10.046
63633W        W27357  33.497  42.025   0.833
63634W        W27358  14.174   9.751  14.323
63635W        W27359   0.372  14.134   3.834
63636W        W27360   6.330  13.309  11.601
63637W        W27361   5.853   6.324  11.438
63638W        W27362  21.666  10.651   3.334
63639W        W27363  29.039  33.519   3.273
63640W        W27364  17.074  32.921   0.284
63641W        W27365  24.697  11.222   1.869
63642W        W27366  10.795   1.479   3.173
63643W        W27367   1.840  12.309  10.964
63644W        W27368  16.586  34.113  14.469
63645W        W27369  35.524  16.652  14.465
63646W        W27370   3.323   6.197  10.542
63647W        W27371  35.479  15.693   3.780
63648W        W27372  44.354  44.296   0.781
63649W        W27373  28.968  43.312  11.030
63650W        W27374  24.173  31.578   5.289
63651W        W27375   3.808  16.238   2.233
63652W        W27376  27.661  42.955  14.327
63653W        W27377   5.896   5.230   0.772
63654W        W27378   8.337  14.100   3.340
63655W        W27379   2.860   7.826  12.965
63656W        W27380  23.117  20.739  13.841
63657W        W27381  43.400  36.051  12.517
63658W        W27382  10.267  13.720   3.283
63659W        W27383  38.014  28.544  14.859
63660W        W27384  26.661  25.547  11.951
63661W        W27385  19.279   4.213   4.698
63662W        W27386   2.323   5.311   2.735
63663W        W27387  44.887  41.525  13.537
63664W        W27388  27.513   7.341  12.490
63665W        W27389  28.592  16.101   0.807
63666W        W27390  21.237  25.976   9.920
63667W        W27391  22.522  10.766   2.245
63668W        W27392  15.116   0.442   1.256
63669W        W27393   1.840  29.587   1.919
63670W        W27394  20.239  37.052   4.696
63671W        W27395  12.711  13.702   4.279
63672W        W27396   0.267   2.911  14.282
63673W        W27397  13.216  40.533   0.883
63674W        W27398  23.725  12.761   2.784
63675W        W27399  36.470   9.164  13.020
63676W        W27400   4.735  10.709   4.226
63677W        W27401  25.658  24.609   0.822
63678W        W27402   7.739  23.160   2.190
63679W        W27403  44.865  23.991  11.514
63680W        W27404  10.659  28.085  13.352
63681W        W27405  19.676  17.291  13.975
63682W        W27406  42.425  10.816   1.843
63683W        W27407  38.945  30.959  14.494
63684W        W27408  13.754   5.855   3.752
63685W        W27409  41.934  42.408   3.700
63686W        W27410   6.845  14.212  13.331
63687W        W27411   2.750  40.317   4.599
63688W        W27412  22.631  33.431  12.088
63689W        W27413  23.583  11.661   4.648
63690W        W27414  38.399  19.114   2.837
63691W        W27415  24.187  16.270  14.915
63692W        W27416  21.232  27.606  13.516
63693W        W27417  29.628  33.977   0.812
63694W        W27418   7.829  43.359  11.388
63695W        W27419   8.783   4.345  11.999
63696W        W27420   3.363  44.301  14.808
63697W        W27421  34.012  32.004   3.789
63698W        W27422  44.462   7.820  11.984
63699W        W27423  43.819   5.271  13.473
63700W        W27424  40.955  35.037   0.805
63701W        W27425  37.382   9.165  13.945
63702W        W27426   4.428  23.099   1.365
63703W        W27427  34.970  30.528   5.295
63704W        W27428  34.481   3.721  10.955
63705W        W27429  12.325   5.720   5.592
63706W        W27430  30.421  17.144  12.454
63707W        W27431  36.372  26.001   3.240
63708W        W27432  38.523  25.575   3.185
63709W        W27433  18.547   8.248   3.178
63710W        W27434  22.155  11.734  14.349
63711W        W27435  37.006  10.368  14.511
63712W        W27436  20.119  17.261   3.840
63713W        W27437  34.928   7.281   2.803
63714W        W27438  27.164  31.536  12.574
63715W        W27439  42.371  15.173   1.787
63716W        W27440  36.081  44.477  11.583
63717W        W27441   8.279  34.442  11.128
63718W        W27442  27.560  40.866   0.768
63719W        W27443  39.554  10.223  12.526
63720W        W27444  34.083  25.638  12.382
63721W        W27445  20.179   5.220  10.629
63722W        W27446  25.983  33.997   0.856
63723W        W27447   9.168  25.637  14.890
63724W        W27448  38.067  39.942   2.882
63725W        W27449  32.583  11.153  13.034
63726W        W27450  43.337  30.931   1.729
63727W        W27451   1.407   9.185  13.963
63728W        W27452  20.579  41.315   1.874
63729W        W27453  18.691  30.459  12.455
63730W        W27454  26.646  12.611   4.180
63731W        W27455  14.285  40.028  11.952
63732W        W27456  28.648   7.399   0.959
63733W        W27457  11.717   1.355  11.967
63734W        W27458  19.647  17.734  14.488
63735W        W27459  28.580  26.653   3.710
63736W        W27460  28.934  11.646   3.189
63737W        W27461   9.362  19.212   2.200
63738W        W27462  32.559  32.916  14.816
63739W        W27463   3.367  42.298  12.387
63740W        W27464  15.161  28.591   4.745
63741W        W27465  14.659  22.104   2.340
63742W        W27466   6.259  16.673  10.615
63743W        W27467  12.628  10.174  12.432
63744W        W27468  19.579  12.336  14.487
63745W        W27469  44.394  40.853  12.398
63746W        W27470  39.835  35.396   3.338
63747W        W27471  14.111  10.848   3.856
63748W        W27472  11.817   4.400   9.667
63749W        W27473  13.304  31.897   3.790
63750W        W27474  16.285   6.922   3.789
63751W        W27475  24.191  22.620  12.391
63752W        W27476  23.736  32.596  14.873
63753W        W27477   2.442  35.567   3.155
63754W        W27478   3.295  11.780  11.448
63755W        W27479  11.627   5.329   1.239
63756W        W27480  35.463  37.457   2.686
63757W        W27481   9.888  13.323   0.447
63758W        W27482   4.890  18.269   4.302
63759W        W27483  38.553  16.586   3.793
63760W        W27484   6.304  18.602   4.205
63761W        W27485  15.140  37.051  14.767
63762W        W27486  27.542   6.200   1.867
63763W        W27487  40.866  38.515  14.989
63764W        W27488  24.183  34.509   0.803
63765W        W27489  40.847  37.542  11.609
63766W        W27490  30.079  27.989  13.425
63767W        W27491  40.408   6.856  13.442
63768W        W27492  30.988  42.813   2.249
63769W        W27493  15.306   2.727  12.389
63770W        W27494   8.780  31.971  11.884
63771W        W27495  20.248  43.281  10.984
63772W        W27496  30.467  28.609  14.021
63773W        W27497  19.202  41.461   4.200
63774W        W27498   3.903  42.374  13.981
63775W        W27499  30.042   8.727   2.220
63776W        W27500  21.523  34.075   4.281
63777W        W27501  16.309   0.962  13.795
63778W        W27502  19.119  11.794   3.850
63779W        W27503  16.139  42.350  14.334
63780W        W27504  25.553  26.165  13.856
63781W        W27505  20.233   5.772   4.302
63782W        W27506  39.003  31.984   5.229
63783W        W27507  11.842   1.309   3.329
63784W        W27508  26.679  13.727   4.311
63785W        W27509   9.369  20.729  14.912
63786W        W27510  13.183  35.889  11.102
63787W        W27511  20.687   9.194   4.308
63788W        W27512  43.359  30.551  12.909
63789W        W27513   3.905  27.462   2.879
63790W        W27514  32.099  13.778  13.492
63791W        W27515  25.180  12.133   0.441
63792W        W27516   0.770  28.968  11.380
63793W        W27517  11.304  37.413   3.658
63794W        W27518  10.342  36.472  13.500
63795W        W27519  18.206  36.951  12.880
63796W        W27520  40.524  31.609  13.063
63797W        W27521   4.900  26.609   1.259
63798W        W27522  19.553  33.408   4.776
63799W        W27523   4.728   2.849   2.233
63800W        W27524  10.195  23.087  12.527
63801W        W27525  17.079  42.373  11.435
63802W        W27526  21.693  36.062  14.929
63803W        W27527  32.463   3.386  14.032
63804W        W27528  35.478  16.302  14.864
63805W        W27529  24.974   0.333  12.451
63806W        W27530   3.255   4.704  13.886
63807W        W27531   0.848   0.325  11.394
63808W        W27532  15.234  15.249  11.073
63809W        W27533   2.954   9.763  14.997
63810W        W27534  21.553  17.169   1.324
63811W        W27535  25.619  43.793   0.409
63812W        W27536  44.393   4.312  11.885
63813W        W27537  19.539   9.244  11.096
63814W        W27538  34.485  33.583  13.362
63815W        W27539  17.695  42.859  14.377
63816W        W27540   9.237   7.317   2.327
63817W        W27541  35.470  40.918   4.770
63818W        W27542   5.304  44.497  12.533
63819W        W27543  21.679  41.494  14.408
63820W        W27544  21.223  10.793  12.466
63821W        W27545  18.710  36.068  12.096
63822W        W27546  30.980   8.873  13.408
63823W        W27547  12.632  25.658  10.568
63824W        W27548  26.565  27.999  10.635
63825W        W27549  33.944  18.172   2.252
63826W        W27550  33.458  28.554  10.556
63827W        W27551  33.403  34.417  11.507
63828W        W27552  22.017   7.294   3.168
63829W        W27553  41.538   3.902  14.473
63830W        W27554   0.779  28.651  11.999
63831W        W27555  29.642   0.287  12.945
63832W        W27556  18.632   5.307   2.871
63833W        W27557  27.564  44.295  13.063
63834W        W27558  23.719   1.791  13.002
63835W        W27559  21.710  42.317  11.566
63836W        W27560   4.875  10.314   0.381
63837W        W27561  10.830  13.163  11.931
63838W        W27562   2.943   9.296  13.005
63839W        W27563   3.405  36.432   3.763
63840W        W27564  44.329  44.413  13.977
63841W        W27565   5.237  42.819   2.789
63842W        W27566   6.311  23.551  13.372
63843W        W27567  32.076  12.211  13.449
63844W        W27568  23.027  21.195  11.888
63845W        W27569  12.730  13.776   0.783
63846W        W27570  31.022  18.604  14.018
63847W        W27571  18.663  14.726   0.413
63848W        W27572  17.244  14.683  14.993
63849W        W27573  11.825   8.775   4.349
63850W        W27574   5.755  35.553  11.542
63851W        W27575  10.673  44.274   3.160
63852W        W27576  40.049  17.793   1.868
63853W        W27577  19.136   4.920  11.890
63854W        W27578  41.858  35.950  14.877
63855W        W27579  25.102  39.833   4.252
63856W        W27580  39.855   4.741   2.897
63857W        W27581  36.080  36.863   4.673
63858W        W27582  16.138  43.405   1.249
63859W        W27583  27.182   1.306  11.405
63860W        W27584  24.994   7.789   2.672
63861W        W27585   8.302  23.129  14.795
63862W        W27586  32.993  15.637  10.984
63863W        W27587  30.917  27.147   2.859
63864W        W27588   9.889  33.980  13.463
63865W        W27589  15.315   8.299  12.077
63866W        W27590  23.612  41.949  13.309
63867W        W27591   3.351  33.903  14.949
63868W        W27592  19.599  35.939   2.327
63869W        W27593  29.129   1.891   3.198
63870W        W27594  15.289  39.444  11.055
63871W        W27595  14.589  39.517  14.327
63872W        W27596  24.703  41.977   0.288
63873W        W27597  28.988  41.849  14.016
63874W        W27598  26.576  25.199   0.845
63875W        W27599   1.758  37.886   2.363
63876W        W27600  17.736  26.155  12.066
63877W        W27601  20.597  24.175   1.392
63878W        W27602  12.232   1.948  11.412
63879W        W27603  23.051  33.897   2.366
63880W        W27604  22.192   7.666   4.624
63881W        W27605  26.660   1.829   0.432
63882W        W27606   9.655  30.545   4.136
63883W        W27607  31.918  30.630   1.281
63884W        W27608  21.103  37.421   0.744
63885W        W27609  37.043   6.840  13.809
63886W        W27610  38.895   6.739  11.973
63887W        W27611  39.909   1.334  10.412
63888W        W27612  29.955  39.443   0.384
63889W        W27613  24.057  27.476   0.345
63890W        W27614  28.002  21.650   3.780
63891W        W27615   1.317  13.288   1.737
63892W        W27616  43.884  28.172   1.732
63893W        W27617  41.002  10.142   1.245
63894W        W27618  36.846  14.833  11.501
63895W        W27619  39.814  11.789  10.478
63896W        W27620  38.441  13.833   4.668
63897W        W27621   4.382  37.350  10.603
63898W        W27622   0.372   2.336  13.808
63899W        W27623  17.114  25.089   0.802
63900W        W27624  15.808  11.240  11.513
63901W        W27625  41.966  12.240  10.547
63902W        W27626  13.622   8.335   4.639
63903W        W27627  34.920  28.556  14.425
63904W        W27628  14.625  32.135  12.428
63905W        W27629  12.776  27.586   1.376
63906W        W27630  31.437  11.352  12.346
63907W        W27631  16.173  38.023  12.404
63908W        W27632   3.815  15.781   9.951
63909W        W27633   4.726  20.687   2.758
63910W        W27634  12.274  29.156  12.360
63911W        W27635  36.447  31.646  11.099
63912W        W27636   7.370   5.399   0.252
63913W        W27637  26.512  18.253  12.972
63914W        W27638  43.370  31.495  14.490
63915W        W27639  26.072  22.502   3.295
63916W        W27640  15.593  21.244  12.982
63917W        W27641  44.968  19.538  11.559
63918W        W27642  15.804  34.006  10.480
63919W        W27643  16.257  13.330   1.280
63920W        W27644  42.866  39.435   0.940
63921W        W27645  11.249  21.248   5.225
63922W        W27646  37.905  11.152   4.167
63923W        W27647  24.021  24.554   2.777
63924W        W27648  25.063   9.850  14.901
63925W        W27649  14.291   6.793  14.332
63926W        W27650  13.643   7.282   2.408
63927W        W27651   6.825  20.544   4.712
63928W        W27652   8.352  43.500   3.149
63929W        W27653  38.491   5.326  11.970
63930W        W27654  22.091  24.057  12.434
63931W        W27655  34.975  37.572   4.731
63932W        W27656  30.587   9.827  14.905
63933W        W27657  18.754   9.855   4.758
63934W        W27658  24.659  31.004   4.134
63935W        W27659   5.819  42.449   1.413
63936W        W27660  30.477   9.724  10.980
63937W        W27661  12.346  12.351   3.245
63938W        W27662  27.980  36.096  12.970
63939W        W27663  37.952   4.823  13.530
63940W        W27664  34.035  18.783   2.766
63941W        W27665  34.541  34.531   2.225
63942W        W27666  16.628  41.029  11.980
63943W        W27667  24.089  26.691  14.932
63944W        W27668  42.412  22.251   0.916
63945W        W27669   0.947   4.741   0.425
63946W        W27670  28.996  26.118   2.775
63947W        W27671   7.179  21.536   2.761
63948W        W27672  30.622  43.826  14.411
63949W        W27673  10.379  28.640  13.835
63950W        W27674  15.671  23.525   4.342
63951W        W27675  26.648  14.827  11.527
63952W        W27676  22.141   5.222   1.905
63953W        W27677  40.538  27.947   0.800
63954W        W27678  13.114  30.132   4.296
63955W        W27679  12.232  43.350  13.826
63956W        W27680  10.199  20.635   4.797
63957W        W27681  15.096  27.110  10.492
63958W        W27682  20.611  10.655  14.357
63959W        W27683  41.354  23.608   0.310
63960W        W27684  15.227  44.273  13.521
63961W        W27685   1.388  38.513   1.922
63962W        W27686  18.645  19.539   2.308
63963W        W27687  30.570  39.356  11.440
63964W        W27688  40.874  15.270  12.562
63965W        W27689  25.084  23.662  13.929
63966W        W27690  12.611  27.088   2.881
63967W        W27691  22.737  19.235  11.010
63968W        W27692  33.124  32.548  14.314
63969W        W27693   3.281  12.216  11.438
63970W        W27694  41.406  23.051   3.692
63971W        W27695  13.741  44.286   0.760
63972W        W27696  37.999   8.838   5.293
63973W        W27697  17.252  36.418   4.349
63974W        W27698  26.171   3.779   4.244
63975W        W27699  15.217  36.515   4.190
63976W        W27700   6.849  27.485   2.375
63977W        W27701  25.187   2.471   3.203
63978W        W27702  12.198  39.874   4.271
63979W        W27703  10.667  27.945   0.863
63980W        W27704   5.405   6.254   4.634
63981W        W27705  14.302  39.472   0.869
63982W        W27706  43.488  31.476   3.755
63983W        W27707   9.729  10.220  10.892
63984W        W27708  39.811  32.891   1.422
63985W        W27709   7.407  39.014  11.477
63986W        W27710  34.400  25.973  11.413
63987W        W27711  42.952  24.175   0.772
63988W        W27712   7.909  24.545   0.319
63989W        W27713   5.835  14.299   2.206
63990W        W27714   4.288   1.782  11.887
63991W        W27715  29.623   6.871  12.862
63992W        W27716   4.376   5.247  14.358
63993W        W27717   6.285  25.598   3.855
63994W        W27718   4.366  30.596  13.830
63995W        W27719  23.113  13.632   0.730
63996W        W27720  39.492  33.016  12.015
63997W        W27721   0.763   0.827   2.798
63998W        W27722  13.173  17.710   3.677
63999W        W27723   2.239  36.365   0.389
64000W        W27724  28.564  30.413  14.502
64001W        W27725  38.949  10.655  10.002
64002W        W27726  43.873  13.337  12.538
64003W        W27727   7.255  30.483   3.792
64004W        W27728   4.714  32.433   2.748
64005W        W27729  28.516  28.090  11.953
64006W        W27730  18.139  35.433   1.326
64007W        W27731  24.097   4.919  13.444
64008W        W27732   8.173  23.208  12.881
64009W        W27733  26.463  18.251   2.870
64010W        W27734  38.372  41.532  10.552
64011W        W27735  32.576  22.204   3.721
64012W        W27736  31.963  12.821  11.487
64013W        W27737  18.737   8.776   3.207
64014W        W27738   9.378  32.940   4.276
64015W        W27739  29.025  12.217  14.911
64016W        W27740  12.691  16.263   3.674
64017W        W27741  17.183  35.862  10.452
64018W        W27742  31.618  21.702   2.771
64019W        W27743   3.358  19.754   4.142
64020W        W27744  35.591  15.164  12.983
64021W        W27745  33.978  18.643   1.307
64022W        W27746  27.995  14.182  10.015
64023W        W27747   3.311   6.234   2.185
64024W        W27748  26.031   6.819  10.559
64025W        W27749  43.274  30.547   0.748
64026W        W27750   9.296  17.662  14.924
64027W        W27751  14.767  25.068   3.316
64028W        W27752  19.106  25.638   4.673
64029W        W27753  38.986  21.601   2.393
64030W        W27754  11.776  44.460  13.547
64031W        W27755  41.465  39.997   0.902
64032W        W27756  36.580   7.850  13.047
64033W        W27757  18.171  25.682   4.624
64034W        W27758  33.105  14.696  14.418
64035W        W27759  20.102  32.495  12.002
64036W        W27760   7.247  32.038   0.754
64037W        W27761   9.658  26.114  11.382
64038W        W27762   0.341  24.016  14.438
64039W        W27763  36.867   6.335   3.631
64040W        W27764  20.187   9.205   4.340
64041W        W27765   1.966  27.578   0.788
64042W        W27766  25.989  24.118   3.778
64043W        W27767  17.698  14.772  12.034
64044W        W27768   1.449  29.997   2.794
64045W        W27769  39.963  38.053  13.015
64046W        W27770  35.972  12.123   0.874
64047W        W27771  15.757  41.024   3.164
64048W        W27772  34.982  27.632  13.944
64049W        W27773  11.867  16.260   0.362
64050W        W27774  24.690   9.260   2.802
64051W        W27775  33.386   5.248   3.146
64052W        W27776  36.547  26.641  11.932
64053W        W27777  21.020   4.919  13.349
64054W        W27778  31.547  12.633  12.060
64055W        W27779  22.157  36.415   0.758
64056W        W27780   4.922  11.803   1.290
64057W        W27781   6.808   5.792   0.789
64058W        W27782  31.947  13.164  10.138
64059W        W27783  29.100  44.329  13.310
64060W        W27784  32.063  32.034   4.251
64061W        W27785   6.784  35.489   0.920
64062W        W27786  38.483   7.668  12.045
64063W        W27787  43.302  43.934   2.681
64064W        W27788  35.528   8.694   3.369
64065W        W27789  14.104  20.529   2.238
64066W        W27790   5.755  40.434  11.569
64067W        W27791  16.105  22.570  10.984
64068W        W27792   2.750  30.907  12.988
64069W        W27793  17.142  41.469  14.028
64070W        W27794  23.001  16.236  11.003
64071W        W27795   5.773  23.573  13.329
64072W        W27796   4.286  28.082  14.869
64073W        W27797  42.337   3.371  13.851
64074W        W27798  14.231  36.352   5.227
64075W        W27799   2.814  28.021  11.422
64076W        W27800  32.559   2.403  12.985
64077W        W27801  31.086  33.607  11.039
64078W        W27802  16.585  28.959  11.922
64079W        W27803  34.911  26.168   4.171
64080W        W27804  19.280   8.189  14.333
64081W        W27805  16.149  21.749   3.158
64082W        W27806  15.596  12.763   3.707
64083W        W27807  35.903  35.873  11.423
64084W        W27808  15.684  19.776  12.012
64085W        W27809  18.692  20.670   4.690
64086W        W27810  21.046  42.930   9.958
64087W        W27811  37.481  10.819  13.953
64088W        W27812  18.787  38.855  12.532
64089W        W27813  17.677  15.649  11.391
64090W        W27814  15.657  10.346   5.296
64091W        W27815  36.534   8.396   2.243
64092W        W27816  19.605  16.232  14.411
64093W        W27817  28.571  13.701   0.270
64094W        W27818  25.088  16.772  14.301
64095W        W27819  37.513  22.697  12.012
64096W        W27820  44.783   4.320   2.179
64097W        W27821  28.533  44.280   3.790
64098W        W27822  41.384   2.351   4.308
64099W        W27823  24.182   0.884   1.697
64100W        W27824   3.853   8.230   0.963
64101W        W27825  14.745   7.361  11.499
64102W        W27826  14.734  11.740  13.027
64103W        W27827  22.162  26.466   2.349
64104W        W27828  21.604  14.787   4.190
64105W        W27829   1.837   5.327  10.581
64106W        W27830  30.916  18.061  12.393
64107W        W27831  13.262  33.875   2.847
64108W        W27832  18.760   6.291  12.086
64109W        W27833  20.177  17.597  14.874
64110W        W27834  24.982  15.604   2.270
64111W        W27835  41.978  20.049  11.388
64112W        W27836  34.873  37.043  11.976
64113W        W27837   2.848  25.679   4.597
64114W        W27838  13.173  12.626   0.899
64115W        W27839  21.556   0.474   0.851
64116W        W27840  31.924  19.751  13.874
64117W        W27841  16.083  35.422  13.318
64118W        W27842   3.852  42.494   4.152
64119W        W27843   5.384  33.015  14.996
64120W        W27844  39.337   6.685  13.347
64121W        W27845  14.746  19.117  12.074
64122W        W27846  17.097   4.773   4.271
64123W        W27847  15.281  23.651  10.408
64124W        W27848   1.895  17.127   3.827
64125W        W27849   5.357  40.007   0.375
64126W        W27850  36.420  38.050  12.987
64127W        W27851  28.650   6.189   0.878
64128W        W27852  28.606  32.112   1.741
64129W        W27853  43.998  31.996   3.687
64130W        W27854  26.637   6.908   2.303
64131W        W27855  35.547   2.865  12.440
64132W        W27856   5.399   0.960  13.445
64133W        W27857  11.651  12.787   4.679
64134W        W27858  12.176  23.683   3.371
64135W        W27859   2.323  22.554  14.835
64136W        W27860  44.780  24.139  12.515
64137W        W27861  24.671  11.144  11.881
64138W        W27862  37.445  41.474   1.855
64139W        W27863  23.731  34.035  14.298
64140W        W27864  31.610  29.624   4.166
64141W        W27865  29.965  22.714  12.430
64142W        W27866   9.781  27.027   4.342
64143W        W27867  38.877  31.546   1.900
64144W        W27868   7.186  31.996  11.905
64145W        W27869   4.349  24.973   1.832
64146W        W27870  24.210  35.907   0.433
64147W        W27871  27.057  28.467   1.797
64148W        W27872  12.124   9.778  11.117
64149W        W27873  13.247   5.798  11.497
64150W        W27874  28.537  43.270   1.419
64151W        W27875  29.427  33.950  14.867
64152W        W27876  10.856   3.948  12.354
64153W        W27877   3.858  12.176   0.843
64154W        W27878  30.150  14.240  14.998
64155W        W27879  34.455  16.688  12.475
64156W        W27880  12.131  13.725  12.859
64157W        W27881  35.579   2.775  14.488
64158W        W27882  35.979  11.327   4.328
64159W        W27883  28.051  31.958  14.842
64160W        W27884  33.113  39.491  13.014
64161W        W27885  25.189   9.880  12.844
64162W        W27886  27.962  17.597  14.877
64163W        W27887  40.515  34.009  13.991
64164W        W27888  31.094   3.731  11.938
64165W        W27889  25.517   0.396  10.138
64166W        W27890  20.746  32.128  12.056
64167W        W27891  38.381  34.999  12.477
64168W        W27892  43.788  11.343   2.242
64169W        W27893  28.521   6.819   0.243
64170W        W27894  34.371   1.339   0.757
64171W        W27895   8.781  21.534  12.354
64172W        W27896  44.492  19.561  14.355
64173W        W27897  44.486  30.966  14.827
64174W        W27898  32.502  28.481   4.193
64175W        W27899  33.488  36.568  11.892
64176W        W27900  29.563  19.635  12.826
64177W        W27901  19.181  22.006   2.392
64178W        W27902  38.359  39.921   2.319
64179W        W27903  11.768  42.830  14.455
64180W        W27904  15.187  26.996   1.427
64181W        W27905  18.146  35.063  11.447
64182W        W27906  35.880  34.916   2.241
64183W        W27907  20.675  18.202   0.348
64184W        W27908  36.523  30.537   1.812
64185W        W27909   8.859  30.069  11.597
64186W        W27910  30.910  37.432   5.220
64187W        W27911   4.397  44.997  14.970
64188W        W27912  18.658  33.462  14.006
64189W        W27913  43.409  32.903   1.300
64190W        W27914  26.985  30.586   0.854
64191W        W27915   2.322  18.200  14.772
64192W        W27916  42.947  36.965   3.188
64193W        W27917   1.419  27.147   0.300
64194W        W27918   1.891  32.896   4.631
64195W        W27919  13.212  33.495   0.933
64196W        W27920  17.208  20.232  12.559
64197W        W27921  34.983  33.517  12.050
64198W        W27922   9.755  20.671  13.801
64199W        W27923  34.485  40.395   3.354
64200W        W27924   5.378  22.626   1.258
64201W        W27925  36.882  31.960  13.521
64202W        W27926  20.654   3.255   0.849
64203W        W27927  33.485  42.989   1.717
64204W        W27928  29.561  11.653   1.248
64205W        W27929   5.859  29.151   2.379
64206W        W27930  12.801  25.158  12.472
64207W        W27931  43.811  26.964  10.570
64208W        W27932  42.306  16.088   4.202
64209W        W27933   9.247  20.161   3.368
64210W        W27934  15.616  33.884   4.606
64211W        W27935  15.765  27.189  13.903
64212W        W27936  27.062  19.132   2.262
64213W        W27937  43.009   3.710   4.132
64214W        W27938  14.231  37.843   2.823
64215W        W27939   7.720  23.519  14.450
64216W        W27940  26.672  18.747  13.043
64217W        W27941   4.944  10.194   3.712
64218W        W27942  14.620  12.791  11.490
64219W        W27943  23.016  10.286   4.346
64220W        W27944  24.630  25.163   3.187
64221W        W27945  11.641  21.728  12.829
64222W        W27946  33.066  11.625   1.831
64223W        W27947  11.655  22.635  11.923
64224W        W27948  43.363   2.347   1.422
64225W        W27949  37.476  22.010   0.952
64226W        W27950  29.931  39.013   2.262
64227W        W27951  36.455  16.079   0.429
64228W        W27952  12.776  30.613   3.289
64229W        W27953  34.612  12.656   3.642
64230W        W27954  21.550  44.841   1.298
64231W        W27955  31.547   8.692   4.651
64232W        W27956   8.690  42.319  10.595
64233W        W27957  28.040  38.425  14.444
64234W        W27958  25.623  32.044   1.762
64235W        W27959  18.646  38.470   4.828
64236W        W27960  23.549  31.466  13.540
64237W        W27961  13.841  19.062  14.909
64238W        W27962   3.315  20.654   1.849
64239W        W27963  38.030  28.137  10.410
64240W        W27964  11.865  14.815  12.879
64241W        W27965  37.343  37.836   3.808
64242W        W27966   5.844   7.768  13.827
64243W        W27967  44.393   0.291  10.143
64244W        W27968   7.822  29.107  10.101
64245W        W27969   4.899  43.885   1.350
64246W        W27970  15.807  26.646   4.311
64247W        W27971  28.133  31.939   3.310
64248W        W27972  41.827   0.951  12.973
64249W        W27973  11.725  38.510  14.853
64250W        W27974  12.668  34.011  14.812
64251W        W27975  21.514  34.472   0.816
64252W        W27976   0.888  41.832   2.814
64253W        W27977  42.027  13.716  10.505
64254W        W27978  42.346  30.971   2.859
64255W        W27979  31.072  13.687   0.337
64256W        W27980  38.061  40.045  10.409
64257W        W27981  40.533  32.119  11.859
64258W        W27982   2.946   4.442   0.275
64259W        W27983  41.485  30.577   1.905
64260W        W27984  11.771   6.845  12.426
64261W        W27985  11.152  20.179   0.735
64262W        W27986  23.082  29.584   1.695
64263W        W27987  22.083  41.832   5.185
64264W        W27988   5.256  41.445   4.715
64265W        W27989  11.645  20.583   2.286
64266W        W27990  43.318  38.850   0.367
64267W        W27991  21.088   7.302  10.465
64268W        W27992   8.194  25.135   4.730
64269W        W27993  43.433  16.607   2.274
64270W        W27994  14.798   0.434   2.800
64271W        W27995  27.109   0.300   1.391
64272W        W27996  25.064  35.581   3.739
64273W        W27997  15.242  13.831   1.756
64274W        W27998  27.644  19.769   4.612
64275W        W27999  25.065  36.063  13.011
64276W        W28000  28.139  15.167  13.898
64277W        W28001  12.123   5.849   3.158
64278W        W28002  39.810  38.877   3.755
64279W        W28003  31.505  32.999   3.746
64280W        W28004  34.613  19.761  10.596
64281W        W28005  37.070   6.896   0.956
64282W        W28006  12.210   3.806   0.765
64283W        W28007  34.873  35.530  10.511
64284W        W28008  15.782  30.932  10.624
64285W        W28009  35.389  14.141  12.091
64286W        W28010  23.701  44.260   0.397
64287W        W28011   9.826  30.429  11.508
64288W        W28012  10.234  34.046   2.769
64289W        W28013  28.679   1.965   2.365
64290W        W28014  38.416  43.497   3.339
64291W        W28015  40.828  30.094   0.287
64292W        W28016  30.580  27.013   2.828
64293W        W28017  21.703  24.017  10.471
64294W        W28018  12.801  14.761   3.864
64295W        W28019  26.668   7.794   5.712
64296W        W28020   5.399  40.858   1.905
64297W        W28021  10.732   7.670   3.156
64298W        W28022   0.857  29.077  13.323
64299W        W28023  16.726  34.889   2.765
64300W        W28024   6.917   0.970  11.606
64301W        W28025   9.662  18.756  14.010
64302W        W28026  11.643  36.041  10.015
64303W        W28027  20.755  25.970   4.317
64304W        W28028  21.683  11.663   0.738
64305W        W28029   7.892  21.626   1.448
64306W        W28030  25.137   4.797   2.286
64307W        W28031  10.667  21.757   0.294
64308W        W28032  27.557  34.902  14.903
64309W        W28033  15.733   9.189  10.927
64310W        W28034  40.375   5.856  12.866
64311W        W28035  35.527   0.331   3.777
64312W        W28036  19.605  22.195  11.560
64313W        W28037  28.049  42.846  11.585
64314W        W28038  26.656   1.284  13.512
64315W        W28039  38.384  20.261  12.370
64316W        W28040  30.085  42.823   1.707
64317W        W28041   7.335  39.860   0.911
64318W        W28042   6.880  25.552  11.006
64319W        W28043  11.780   4.889  14.861
64320W        W28044  12.811   8.819   2.805
64321W        W28045  19.266   0.815   0.859
64322W        W28046  26.998  21.714  11.584
64323W        W28047   2.815  18.608   3.217
64324W        W28048  44.792  10.644  13.953
64325W        W28049  11.713  28.112   1.274
64326W        W28050  10.869  28.479   3.827
64327W        W28051   3.934   9.164   1.747
64328W        W28052   0.449  13.171   0.948
64329W        W28053  25.666  37.024   1.794
64330W        W28054  18.786  20.220  13.919
64331W        W28055  30.443   2.790  14.377
64332W        W28056  44.896  31.501  10.547
64333W        W28057  21.649   8.848   3.350
64334W        W28058  42.869   2.960   0.320
64335W        W28059  15.096  20.124  10.485
64336W        W28060  30.015   5.339   3.191
64337W        W28061  39.330  21.254  13.942
64338W        W28062  39.432  35.954  11.527
64339W        W28063  27.187  15.768  14.784
64340W        W28064  34.012  44.369   4.614
64341W        W28065  14.683   5.848  11.471
64342W        W28066  14.194  15.760  13.896
64343W        W28067  41.334  35.548   4.628
64344W        W28068  19.725  40.998   4.223
64345W        W28069  27.504   7.292  10.515
64346W        W28070   1.434  34.480  14.500
64347W        W28071  12.761  35.914  10.577
64348W        W28072  10.856  24.198  13.919
64349W        W28073   3.366  44.384   0.877
64350W        W28074   1.753   1.795  14.926
64351W        W28075  36.093  32.438   2.274
64352W        W28076  34.917  43.440  13.841
64353W        W28077  40.451  21.517   0.308
64354W        W28078  10.706  17.299   3.757
64355W        W28079  39.452  43.358   1.854
64356W        W28080   0.860  21.120   4.629
64357W        W28081  13.207  25.151  14.788
64358W        W28082  16.656  20.118  13.851
64359W        W28083  39.849   2.437   1.822
64360W        W28084   0.847   3.342   1.337
64361W        W28085  43.872  10.828   3.184
64362W        W28086  43.793  38.397  12.420
64363W        W28087  41.292  18.737  14.994
64364W        W28088  42.373  28.949  11.121
64365W        W28089  24.226  11.137  14.389
64366W        W28090  34.988  30.536  11.385
64367W        W28091  14.196   2.260   1.807
64368W        W28092  32.040  14.811   0.438
64369W        W28093  37.517  35.888   1.281
64370W        W28094  13.720  22.707  12.051
64371W        W28095  32.111  42.924  14.956
64372W        W28096  14.193   1.805   1.382
64373W        W28097  16.624  42.493  12.423
64374W        W28098  21.592  30.653   3.282
64375W        W28099  20.769  10.172  13.506
64376W        W28100  22.130  11.736  11.976
64377W        W28101   5.933   9.726  12.488
64378W        W28102  41.536  19.180   4.598
64379W        W28103  40.030  24.059  14.463
64380W        W28104  31.461  21.042  10.442
64381W        W28105  40.900   3.804   4.266
64382W        W28106  11.244   8.692  13.880
64383W        W28107   9.303  43.418  13.450
64384W        W28108  11.312  12.261   4.156
64385W        W28109   8.780   8.703  11.863
64386W        W28110  44.472  19.213   0.287
64387W        W28111   3.229  34.092   0.353
64388W        W28112  43.392  34.941   9.999
64389W        W28113  24.657  26.067  11.903
64390W        W28114  23.104  10.194   0.420
64391W        W28115  24.682  35.518  13.807
64392W        W28116  11.846  23.545  14.896
64393W        W28117   5.248  41.479   1.889
64394W        W28118  23.126  14.179  11.918
64395W        W28119  36.570  29.160  11.978
64396W        W28120  36.959   1.753   0.882
64397W        W28121  33.607  21.564   1.854
64398W        W28122  44.327   6.256   4.328
64399W        W28123  38.338  22.563   0.445
64400W        W28124  33.566  11.322  11.586
64401W        W28125  19.585  14.232   1.382
64402W        W28126   9.686  33.427   9.967
64403W        W28127  13.714  12.734  12.938
64404W        W28128  31.637  15.729   2.830
64405W        W28129  28.609  27.449   4.114
64406W        W28130  36.466  21.723  13.007
64407W        W28131  37.412  22.679   4.286
64408W        W28132  41.803  20.167   2.687
64409W        W28133   3.265   7.874  12.014
64410W        W28134   2.344   5.233  11.390
64411W        W28135   1.310  31.487  11.445
64412W        W28136  17.565   2.414  10.967
64413W        W28137   9.248  27.604  13.514
64414W        W28138   6.274  27.673  12.914
64415W        W28139  33.600  44.842   4.836
64416W        W28140  34.451  34.537  14.371
64417W        W28141  19.067   9.189  13.816
64418W        W28142  38.438  15.753  11.127
64419W        W28143  10.201  21.155   4.204
64420W        W28144  22.670  32.086   2.741
64421W        W28145  37.847  24.175   3.756
64422W        W28146  21.718  42.806  13.535
64423W        W28147  16.177  37.012   4.621
64424W        W28148  31.582  27.037  14.462
64425W        W28149  35.429  12.255   2.392
64426W        W28150   1.474   0.859  11.573
64427W        W28151  17.559  25.217  12.509
64428W        W28152  40.381  24.152   2.754
64429W        W28153  10.725  42.305  14.292
64430W        W28154  22.208  35.874  11.452
64431W        W28155   8.256  42.366  12.460
64432W        W28156  42.817  36.930   4.755
64433W        W28157  30.105  41.936   0.954
64434W        W28158   8.180   0.277  10.965
64435W        W28159  42.309  24.175   5.220
64436W        W28160   7.788  24.019   2.329
64437W        W28161  17.237  26.480   0.445
64438W        W28162  33.583  30.142  14.030
64439W        W28163  42.503  44.401  10.480
64440W        W28164  27.019   8.763  11.589
64441W        W28165  40.947  29.019  13.476
64442W        W28166  27.456  11.788  10.903
64443W        W28167   5.284  10.205  10.911
64444W        W28168   9.189  41.356  13.938
64445W        W28169  32.053  23.606   1.211
64446W        W28170  40.547  42.923  11.968
64447W        W28171  24.217  19.276   0.365
64448W        W28172  24.151  31.509  13.385
64449W        W28173  27.570  44.299  12.060
64450W        W28174  15.247  13.811   3.149
64451W        W28175   1.909  16.303   1.932
64452W        W28176  32.886  35.596   4.697
64453W        W28177  12.678  32.032  14.495
64454W        W28178  35.402  19.683   1.781
64455W        W28179  26.491  43.506   4.233
64456W        W28180  35.368  33.938   3.731
64457W        W28181  32.053   7.350  10.544
64458W        W28182   2.259  18.781   2.673
64459W        W28183   1.328   8.694   2.325
64460W        W28184  27.119  24.015   1.376
64461W        W28185  39.045  34.452  10.102
64462W        W28186  34.401  23.543   2.677
64463W        W28187  15.639  36.582  12.506
64464W        W28188  15.144  31.125   1.322
64465W        W28189   2.844  40.010  13.358
64466W        W28190  24.545   8.765   5.206
64467W        W28191  23.541  32.568  13.453
64468W        W28192  35.991  33.578  14.337
64469W        W28193  25.631  43.798   1.421
64470W        W28194  22.141  25.684   3.869
64471W        W28195  13.177  42.504   2.307
64472W        W28196  20.662  30.912   1.789
64473W        W28197  29.129  25.488   3.265
64474W        W28198  29.506   2.900   3.229
64475W        W28199   3.462  36.066  11.911
64476W        W28200  39.412   4.361  14.384
64477W        W28201  31.973  25.188  14.351
64478W        W28202  41.023  14.627   1.732
64479W        W28203  17.740  44.350   2.272
64480W        W28204  17.107  14.099  14.486
64481W        W28205  19.176  33.462  14.461
64482W        W28206  27.520  27.978  11.863
64483W        W28207  36.975  13.673  12.424
64484W        W28208  28.553  29.429   4.335
64485W        W28209   3.711  44.964  14.441
64486W        W28210   4.439  36.558  11.562
64487W        W28211   1.362  19.553  11.599
64488W        W28212  39.006  34.436  13.970
64489W        W28213  35.936  27.097  13.487
64490W        W28214  25.173  16.722   3.316
64491W        W28215  19.048  10.699   3.824
64492W        W28216  37.508  31.051   2.309
64493W        W28217  28.495  27.558  11.915
64494W        W28218   6.830  36.530   4.138
64495W        W28219  40.982  24.033   1.737
64496W        W28220  17.741  37.879   0.901
64497W        W28221  37.922  40.028   4.748
64498W        W28222  36.502   4.356  14.943
64499W        W28223  10.725  22.609   4.708
64500W        W28224  13.636  30.037   2.229
64501W        W28225  41.887  21.022  14.360
64502W        W28226  32.919  13.254  14.913
64503W        W28227  27.010  10.839   2.194
64504W        W28228   6.701  10.760  11.597
64505W        W28229  40.860  25.625   3.288
64506W        W28230  11.699  18.217   4.737
64507W        W28231  40.308  30.038   1.267
64508W        W28232  40.871  11.784   2.227
64509W        W28233   4.448  44.410  10.537
64510W        W28234  40.948  26.524  12.485
64511W        W28235  26.656   4.854   5.187
64512W        W28236   2.789  35.371  13.515
64513W        W28237  24.100  14.258  12.526
64514W        W28238  11.667  32.548   3.641
64515W        W28239   1.947  10.698   3.662
64516W        W28240   5.712  30.137  11.017
64517W        W28241  31.489  31.502   0.851
64518W        W28242  11.721  44.327   0.361
64519W        W28243  34.418  26.525  12.864
64520W        W28244  23.118  36.533  12.066
64521W        W28245  17.647  44.439  14.441
64522W        W28246   9.794  20.667  12.074
64523W        W28247   6.415  44.462   1.436
64524W        W28248  38.496  27.637  14.980
64525W        W28249  27.472  25.623  11.416
64526W        W28250  19.271  25.963   1.344
64527W        W28251  39.452   9.315   0.467
64528W        W28252  24.975  10.811   3.353
64529W        W28253  27.956  41.295  13.030
64530W        W28254  17.083  32.927  12.985
64531W        W28255  39.027  21.127  10.120
64532W        W28256  33.624  20.549   3.218
64533W        W28257   1.849  39.941  12.493
64534W        W28258  14.833  24.708  10.567
64535W        W28259  41.449  22.043  12.527
64536W        W28260   6.410  27.511  10.436
64537W        W28261  34.535  16.746   3.380
64538W        W28262  35.597  22.716  12.426
64539W        W28263  22.227  25.139   0.808
64540W        W28264  23.017   8.691  13.856
64541W        W28265  28.996  27.667  13.791
64542W        W28266  10.730  10.681   5.786
64543W        W28267  30.617  34.111  10.958
64544W        W28268  42.856  11.249  11.948
64545W        W28269  32.946  32.056  13.316
64546W        W28270  20.131   0.919   4.263
64547W        W28271  14.182  39.981  12.370
64548W        W28272  16.187  13.155   1.935
64549W        W28273   5.438  32.425   2.887
64550W        W28274  35.454  34.930  13.416
64551W        W28275  41.325   5.432  12.527
64552W        W28276   3.733   5.777  11.458
64553W        W28277  11.709  19.706  11.956
64554W        W28278  17.219  44.333  14.918
64555W        W28279  20.100  21.087   4.779
64556W        W28280  39.377  20.047  11.562
64557W        W28281  33.565  24.552  14.852
64558W        W28282   5.770  38.545  12.377
64559W        W28283  29.919  26.194   4.181
64560W        W28284  16.087  22.567  13.493
64561W        W28285  21.684  33.401  14.423
64562W        W28286   5.918  42.896   0.877
64563W        W28287   1.365  31.611   4.209
64564W        W28288  22.062  28.102   2.401
64565W        W28289  15.692   1.237   1.759
64566W        W28290  38.033  30.016   4.614
64567W        W28291   1.429  38.845  11.436
64568W        W28292  27.187  35.946  14.923
64569W        W28293  18.590  19.169   1.879
64570W        W28294  42.790   4.382  12.020
64571W        W28295  20.711   1.478  11.005
64572W        W28296   6.408  24.698  13.511
64573W        W28297  21.177  21.576  14.860
64574W        W28298  12.280   1.812  12.852
64575W        W28299   3.839  39.540   0.456
64576W        W28300   9.343  38.889  12.387
64577W        W28301  24.560   3.897   0.838
64578W        W28302  19.163   6.861   1.381
64579W        W28303  17.261  39.941   4.643
64580W        W28304  11.667  43.833   3.168
64581W        W28305  26.172   6.694  14.000
64582W        W28306  44.409  13.351   2.739
64583W        W28307  30.976  15.228  11.990
64584W        W28308  42.915  42.955  10.575
64585W        W28309   2.403   5.207  12.993
64586W        W28310  30.961  34.885  13.874
64587W        W28311  21.072  44.986   1.860
64588W        W28312  31.961   6.256  12.865
64589W        W28313   4.369  41.954   4.676
64590W        W28314  44.315  34.396   1.764
64591W        W28315  20.187  41.340   3.313
64592W        W28316  24.028  12.154   0.351
64593W        W28317  14.331  27.129   1.325
64594W        W28318   1.339  37.503  13.010
64595W        W28319   7.780  31.477  13.004
64596W        W28320  15.711  15.817  12.569
64597W        W28321  12.744  26.208  14.379
64598W        W28322   7.412   0.329   4.275
64599W        W28323  28.065  44.941  12.966
64600W        W28324  26.054  10.251   2.368
64601W        W28325   5.225  22.722   3.862
64602W        W28326  33.998   0.411  13.538
64603W        W28327  19.152  13.688  12.944
64604W        W28328   8.658  21.630   0.432
64605W        W28329  22.716  13.191   0.329
64606W        W28330  31.906   5.711  11.934
64607W        W28331   0.932  25.505   0.847
64608W        W28332  14.107  20.179   4.272
64609W        W28333  13.675  41.786   3.297
64610W        W28334  38.521  25.011   1.745
64611W        W28335  34.377  11.143  14.888
64612W        W28336  34.597  31.994  13.868
64613W        W28337  17.681  22.722  14.798
64614W        W28338   6.878  22.721  14.808
64615W        W28339  32.528  35.871  12.441
64616W        W28340  18.747  19.710  14.030
64617W        W28341  10.803  25.468   2.820
64618W        W28342  32.065  23.105  14.394
64619W        W28343  36.912  26.520   0.358
64620W        W28344  43.345  25.128   0.756
64621W        W28345  25.024  16.098  13.825
64622W        W28346   7.676  43.430   2.186
64623W        W28347   5.825   2.279   1.876
64624W        W28348  23.211   7.821   1.912
64625W        W28349  34.892  10.382   1.260
64626W        W28350  12.178  30.030   3.247
64627W        W28351  13.732  26.078  13.352
64628W        W28352   5.361  34.995   4.147
64629W        W28353  19.657  44.386  13.020
64630W        W28354   9.707  34.101  11.888
64631W        W28355  23.658  35.873   3.182
64632W        W28356  18.666  39.899  12.082
64633W        W28357  38.039  19.263  11.043
64634W        W28358  14.713  18.702   3.643
64635W        W28359  44.499  41.865   3.338
64636W        W28360   2.228  17.096   1.423
64637W        W28361  40.531  27.181   1.877
64638W        W28362  32.952  35.439  10.570
64639W        W28363  11.147  22.035  13.456
64640W        W28364   9.786  18.225   2.233
64641W        W28365   5.699  12.851   9.959
64642W        W28366  21.167  34.017  13.944
64643W        W28367   3.826  23.731   4.313
64644W        W28368   8.859   5.699   3.750
64645W        W28369  11.269  41.786  11.024
64646W        W28370  19.243  42.322  14.290
64647W        W28371  31.584  14.773   5.298
64648W        W28372  44.275  12.293   4.200
64649W        W28373  27.678  25.127  14.800
64650W        W28374  34.919  44.956  13.845
64651W        W28375  12.272   7.727  13.973
64652W        W28376   6.764  16.256   1.422
64653W        W28377   2.891  44.963   1.930
64654W        W28378  34.587  42.449   1.883
64655W        W28379  33.051  42.294  10.638
64656W        W28380  41.513  19.282  10.535
64657W        W28381  29.551   9.685   1.253
64658W        W28382  36.372  27.664  11.492
64659W        W28383   8.861  25.218  11.934
64660W        W28384  41.299  24.561   2.394
64661W        W28385  39.025  31.431   1.269
64662W        W28386  21.163  35.460   4.353
64663W        W28387  18.295  24.649   2.747
64664W        W28388  11.666  30.089  11.395
64665W        W28389  40.809  26.560  10.909
64666W        W28390  11.795  30.045  12.529
64667W        W28391  37.515  43.372  11.379
64668W        W28392   5.849  19.153   4.179
64669W        W28393  43.417  22.087   0.249
64670W        W28394  22.681  26.053  13.814
64671W        W28395  36.907  18.602  10.533
64672W        W28396   1.906  30.009   0.458
64673W        W28397   6.884  25.091  13.812
64674W        W28398  28.617  24.179  10.964
64675W        W28399  33.462  27.447   0.388
64676W        W28400  10.739  43.281   3.160
64677W        W28401  21.575   3.913   3.805
64678W        W28402  17.071   3.260  12.994
64679W        W28403   0.761  22.682  11.858
64680W        W28404  26.676  18.767   0.413
64681W        W28405  42.940  19.085   2.279
64682W        W28406  23.667   4.916  12.856
64683W        W28407   4.925  10.758   1.430
64684W        W28408  14.242  28.571  12.021
64685W        W28409   2.815  41.969   3.248
64686W        W28410  37.874  35.507   2.272
64687W        W28411  12.682  33.889  11.011
64688W        W28412   8.857  11.200  14.373
64689W        W28413   7.412   8.852   0.748
64690W        W28414   8.320  43.361  13.827
64691W        W28415  38.847  17.750  13.377
64692W        W28416  25.629  35.405  11.514
64693W        W28417  32.528  38.033  11.044
64694W        W28418  41.498  15.630  10.899
64695W        W28419  34.570  39.907  13.404
64696W        W28420   9.794  27.193  13.980
64697W        W28421  13.685  41.422   3.678
64698W        W28422  42.862  11.697   1.794
64699W        W28423   7.797  13.195   3.807
64700W        W28424  39.338   4.844  11.127
64701W        W28425  30.510   0.439  11.978
64702W        W28426  30.026   2.391  12.873
64703W        W28427  25.035  44.451  11.481
64704W        W28428  34.986  20.037  13.357
64705W        W28429  38.895  26.975  11.074
64706W        W28430  41.917  30.015  14.357
64707W        W28431   7.278  21.604  14.437
64708W        W28432  40.804  32.441   3.274
64709W        W28433   9.361  37.907  10.888
64710W        W28434  17.573   3.778   0.965
64711W        W28435   3.413  32.119   1.820
64712W        W28436  44.837  23.566   0.326
64713W        W28437  39.326  23.659   2.361
64714W        W28438   3.457  25.591   1.438
64715W        W28439  40.368  29.122  13.367
64716W        W28440  20.058  14.121  11.383
64717W        W28441   2.823  12.155  13.504
64718W        W28442  35.066   6.907   0.870
64719W        W28443   6.739   0.754  13.528
64720W        W28444  10.706  12.225   1.861
64721W        W28445  16.131  29.042   2.349
64722W        W28446   2.744  10.765   1.314
64723W        W28447  43.354  41.018   0.959
64724W        W28448  39.950  41.526   0.890
64725W        W28449  18.145   5.913  13.475
64726W        W28450  43.368  22.156   1.846
64727W        W28451  27.530  13.810  14.469
64728W        W28452   5.353  31.479   0.848
64729W        W28453  23.512  10.729  10.434
64730W        W28454  27.449  44.989   0.903
64731W        W28455  36.352  30.602  13.363
64732W        W28456  41.790  24.189   1.321
64733W        W28457  15.167   9.257  12.479
64734W        W28458  12.718  23.222  12.469
64735W        W28459  14.659  37.015   4.705
64736W        W28460   3.390  18.781   1.449
64737W        W28461   7.173  28.625  11.069
64738W        W28462   2.240  27.527   2.229
64739W        W28463   1.388  32.513   0.337
64740W        W28464  35.532   1.761   4.762
64741W        W28465  25.682  37.476  13.860
64742W        W28466  34.396   1.244   1.448
64743W        W28467  16.621  20.200  12.937
64744W        W28468  20.203  18.739  10.501
64745W        W28469  29.469  37.387  11.027
64746W        W28470  17.702  38.487   3.853
64747W        W28471   1.334  44.808  12.485
64748W        W28472  18.142  42.885   4.293
64749W        W28473  26.095  38.922   4.157
64750W        W28474  30.568  10.694  14.993
64751W        W28475  28.035  39.528  14.290
64752W        W28476  31.597  36.931  12.832
64753W        W28477  43.924  37.499   9.958
64754W        W28478  42.799  27.524  13.347
64755W        W28479   8.668  43.822   2.412
64756W        W28480   2.907  21.079  13.529
64757W        W28481  44.910  13.234   0.254
64758W        W28482  22.622  44.976  10.920
64759W        W28483  38.517   7.353  11.972
64760W        W28484   6.227  41.040   4.114
64761W        W28485  25.704  41.458  10.578
64762W        W28486   4.851   5.233  10.557
64763W        W28487  34.412  14.227   2.252
64764W        W28488  15.604  20.231   3.317
64765W        W28489  32.398  27.176  14.858
64766W        W28490   9.871   6.830  10.531
64767W        W28491  30.934  24.498  13.527
64768W        W28492  18.646  25.035   2.208
64769W        W28493  20.033   3.238   2.210
64770W        W28494   7.731  28.973  11.414
64771W        W28495  16.679  13.253  11.463
64772W        W28496  20.219  29.579  13.361
64773W        W28497  15.299  39.061  13.410
64774W        W28498  37.446  23.608   3.686
64775W        W28499  11.664  20.078  11.944
64776W        W28500  25.632   8.278  10.423
64777W        W28501   5.697   4.408  11.080
64778W        W28502  30.652  30.944  11.476
64779W        W28503  10.157   2.359  10.986
64780W        W28504  16.741   7.380  10.625
64781W        W28505  25.509  10.216   3.780
64782W        W28506  41.814  26.531  14.887
64783W        W28507  11.728  27.653  14.423
64784W        W28508   5.381  10.633   1.846
64785W        W28509  36.010  21.618  12.999
64786W        W28510  38.957  10.854   3.782
64787W        W28511  34.883   0.313  12.951
64788W        W28512  43.777  39.385  14.439
64789W        W28513  22.996  22.576  13.846
64790W        W28514  25.546  22.647   1.853
64791W        W28515   3.298  20.223  10.979
64792W        W28516  18.683  39.430  11.386
64793W        W28517   1.306  36.052   3.285
64794W        W28518  15.739   5.310  13.909
64795W        W28519  26.033  26.187  10.601
64796W        W28520  13.753  34.049  11.913
64797W        W28521   6.850  31.546  14.771
64798W        W28522  21.682  33.034  13.820
64799W        W28523  25.046  37.363   2.868
64800W        W28524  44.974  39.927   4.230
64801W        W28525  28.568   1.798   4.327
64802W        W28526   0.476  11.623   2.683
64803W        W28527  29.060  38.068   1.215
64804W        W28528  27.128  30.562   1.330
64805W        W28529  44.468  22.567  10.612
64806W        W28530  41.399   4.249   0.426
64807W        W28531  34.874  34.483  14.025
64808W        W28532  27.966  41.522  13.529
64809W        W28533  20.536  12.321  11.485
64810W        W28534  41.918  23.689   0.265
64811W        W28535  24.009  41.473  10.001
64812W        W28536   7.848  21.714   3.174
64813W        W28537  18.567  33.573  11.016
64814W        W28538  44.938  41.398   3.808
64815W        W28539   3.882  33.395   3.214
64816W        W28540  40.032  21.230  14.825
64817W        W28541  10.633  29.924   4.795
64818W        W28542   9.764   1.388  13.389
64819W        W28543  12.718  35.444   4.801
64820W        W28544  38.438  43.772  11.601
64821W        W28545   7.305  32.496   0.291
64822W        W28546  39.849  11.650   2.863
64823W        W28547  42.397  12.122  11.115
64824W        W28548   5.849  24.587  11.497
64825W        W28549  43.862  35.405   5.774
64826W        W28550  30.983  22.517  14.836
64827W        W28551  33.122  44.298   4.817
64828W        W28552  30.620  31.953   3.334
64829W        W28553  13.786  20.620   0.446
64830W        W28554  41.519  24.112   1.726
64831W        W28555  27.142  27.567  12.439
64832W        W28556  35.951  39.059   4.631
64833W        W28557  34.483  13.143  10.986
64834W        W28558  15.247  27.003  14.919
64835W        W28559   8.835  26.465  11.866
64836W        W28560  26.077  26.620   4.690
64837W        W28561  23.542  18.220  11.997
64838W        W28562  11.686  43.904  11.065
64839W        W28563  37.948  36.453   3.370
64840W        W28564  16.081  39.457   0.957
64841W        W28565  40.874  40.520  13.963
64842W        W28566  32.904  13.734   2.289
64843W        W28567  41.485  18.771   1.724
64844W        W28568  25.055  14.749   0.412
64845W        W28569   6.822   0.487   4.617
64846W        W28570  21.747   9.836  13.947
64847W        W28571  35.859  16.765  14.859
64848W        W28572  17.146  12.223   3.378
64849W        W28573  14.122  13.628   0.918
64850W        W28574   0.870   0.867  14.790
64851W        W28575  36.048  21.625  11.963
64852W        W28576  17.108  42.378   3.649
64853W        W28577  34.461  11.835   1.402
64854W        W28578  36.970  41.458  12.982
64855W        W28579   7.395   7.355  10.888
64856W        W28580   1.914  19.070   0.821
64857W        W28581   0.863  41.995  12.423
64858W        W28582  27.480  32.546  14.820
64859W        W28583  22.610  41.037  12.397
64860W        W28584  28.022  15.205   0.467
64861W        W28585  26.207  34.438  14.963
64862W        W28586  38.881   8.186   0.262
64863W        W28587   5.821  28.518  12.933
64864W        W28588   5.225  34.039  14.822
64865W        W28589  42.886  40.546   5.177
64866W        W28590  23.101  35.477  14.875
64867W        W28591  10.351  40.535   4.183
64868W        W28592   3.385  26.562  13.491
64869W        W28593  38.495   2.857  10.411
64870W        W28594  35.099  30.498  12.359
64871W        W28595  16.594   2.948  10.976
64872W        W28596  21.165   6.749   4.171
64873W        W28597   9.378  23.579  13.052
64874W        W28598   0.401  25.714   4.747
64875W        W28599  40.521   3.711   1.758
64876W        W28600  34.109  40.427  11.090
64877W        W28601  35.477   0.936  11.412
64878W        W28602  38.074  28.548  11.557
64879W        W28603   3.757   8.163   2.667
64880W        W28604  37.040  13.127   2.750
64881W        W28605  14.230  10.692  14.389
64882W        W28606   5.823  12.137  13.539
64883W        W28607  15.709  28.617  13.806
64884W        W28608   6.704  36.460  13.959
64885W        W28609  30.456  17.707  12.393
64886W        W28610   7.325  40.004   0.286
64887W        W28611  36.475  13.322   0.968
64888W        W28612  16.277  14.725   0.372
64889W        W28613  15.097  17.656  14.371
64890W        W28614   2.783  13.261   4.226
64891W        W28615  38.416  42.337   0.442
64892W        W28616  37.981  25.208   1.295
64893W        W28617  36.905  39.482  13.369
64894W        W28618  14.826   3.375  12.968
64895W        W28619  12.187  21.661   4.632
64896W        W28620  43.982  19.613   4.775
64897W        W28621  14.278  42.958  12.361
64898W        W28622   1.450  43.818  14.358
64899W        W28623  38.895  12.751   4.117
64900W        W28624  32.905  39.399  10.409
64901W        W28625  22.109  28.952   1.856
64902W        W28626  23.180   2.892  10.603
64903W        W28627  41.932  44.950   4.821
64904W        W28628  26.162  34.064  12.491
64905W        W28629  10.744  12.315  10.074
64906W        W28630  35.089  21.674   4.658
64907W        W28631   0.894   6.235   1.384
64908W        W28632  40.923  40.850  14.786
64909W        W28633  38.825   2.883  13.545
64910W        W28634  38.371  40.978  11.037
64911W        W28635   1.482  26.013  10.527
64912W        W28636   7.201  31.588   3.720
64913W        W28637   0.414  32.531   4.818
64914W        W28638   1.896  20.579   2.829
64915W        W28639  11.331  32.413  11.890
64916W        W28640  18.715  40.502  14.394
64917W        W28641  26.982  16.209  12.356
64918W        W28642  21.623  18.664   1.904
64919W        W28643  38.454  16.149   1.379
64920W        W28644  14.177  27.162  11.514
64921W        W28645  15.322  32.551   4.650
64922W        W28646  44.265  41.014  12.008
64923W        W28647  29.458  35.475  11.513
64924W        W28648   3.336   2.427   4.655
64925W        W28649  38.405  18.067   1.784
64926W        W28650   9.223  15.289  14.463
64927W        W28651  11.719   1.764   9.998
64928W        W28652  39.013   4.866  13.409
64929W        W28653  26.548  19.560   4.246
64930W        W28654  24.665  20.621   3.253
64931W        W28655   6.392  34.494   2.751
64932W        W28656  23.011  40.490  12.420
64933W        W28657   2.329  35.963  13.536
64934W        W28658  21.187  14.815   3.728
64935W        W28659  18.590  33.053  13.908
64936W        W28660   3.343  28.015   5.113
64937W        W28661  38.501  41.036  14.767
64938W        W28662  37.888  27.113   2.864
64939W        W28663   5.407  17.284  14.402
64940W        W28664  43.330  37.040  12.884
64941W        W28665   8.846  27.006   0.462
64942W        W28666  41.921   6.415   3.799
64943W        W28667  26.566  20.669  11.557
64944W        W28668  19.123   4.823   4.254
64945W        W28669  40.468  34.539   5.084
64946W        W28670  37.904  41.985   3.855
64947W        W28671   4.258  21.553  13.341
64948W        W28672   5.761  18.634  14.862
64949W        W28673   8.202  27.956  12.903
64950W        W28674   5.214  31.521   3.184
64951W        W28675  29.142   9.187   0.840
64952W        W28676  15.601   3.918   2.352
64953W        W28677  27.496  35.383  10.603
64954W        W28678  14.154  30.495  11.557
64955W        W28679  23.016  26.462  11.571
64956W        W28680  23.492  34.566   1.309
64957W        W28681   5.710  43.978   3.202
64958W        W28682   4.815  19.666   0.822
64959W        W28683  19.223   4.228   3.688
64960W        W28684   4.210  32.006  10.552
64961W        W28685  29.946   0.853  11.985
64962W        W28686  24.001  42.951  13.453
64963W        W28687   0.903  11.703  11.586
64964W        W28688  43.316  25.531   9.995
64965W        W28689  24.021  41.497   3.225
64966W        W28690  27.527  36.032  12.569
64967W        W28691  35.531   2.456   2.289
64968W        W28692  24.655  35.515  12.066
64969W        W28693  36.377  12.194   4.642
64970W        W28694   5.348  13.755   1.869
64971W        W28695  23.648  34.994   2.394
64972W        W28696  21.039   5.933  13.941
64973W        W28697  27.025  18.586  12.393
64974W        W28698  32.391  34.602   0.480
64975W        W28699   3.910   8.325  11.451
64976W        W28700  16.701  41.847   0.280
64977W        W28701  28.147  29.092   4.149
64978W        W28702   0.766  31.898  14.029
64979W        W28703  15.128   0.831  11.008
64980W        W28704  33.518   6.898   3.745
64981W        W28705  36.015   8.795  14.878
64982W        W28706  30.011  11.766  13.022
64983W        W28707  43.318  26.485  13.538
64984W        W28708  38.951  34.987  13.373
64985W        W28709  38.870   5.856   2.375
64986W        W28710  28.442  25.980   3.814
64987W        W28711   4.944  43.465  14.322
64988W        W28712  20.614  28.656  10.524
64989W        W28713  18.296  12.339   0.284
64990W        W28714  13.730  34.554   1.785
64991W        W28715   1.753  22.073   3.253
64992W        W28716  20.226   9.215  10.593
64993W        W28717   2.852  20.225  12.391
64994W        W28718   9.159  38.371   0.246
64995W        W28719  37.555  27.995   1.812
64996W        W28720  33.405   3.910   3.762
64997W        W28721   0.408  12.211  12.378
64998W        W28722  32.487  35.864   1.873
64999W        W28723   9.649   8.886  11.075
65000W        W28724  12.814  29.107  10.563
65001W        W28725  39.030  38.350   0.402
65002W        W28726  42.784  43.372   2.247
65003W        W28727  37.345  34.466  11.118
65004W        W28728  23.550  15.655   2.401
65005W        W28729  16.299   5.713  14.835
65006W        W28730  28.526  11.308  11.118
65007W        W28731  23.142  35.966   4.137
65008W        W28732  41.345  40.474  13.363
65009W        W28733   6.846  43.840   1.359
65010W        W28734  18.556  11.621  12.456
65011W        W28735  21.601   7.270  12.427
65012W        W28736   1.368   0.780  14.844
65013W        W28737  15.811  24.536  13.838
65014W        W28738  25.687  14.699  14.908
65015W        W28739  16.731   4.351   2.364
65016W        W28740  44.478  24.188   4.173
65017W        W28741  43.468  39.483  11.576
65018W        W28742   3.417  37.533   5.218
65019W        W28743  12.635  18.558  12.503
65020W        W28744   4.216   7.717   2.842
65021W        W28745  22.695  25.626  13.003
65022W        W28746  36.986  16.164  13.330
65023W        W28747  26.092  18.788  11.023
65024W        W28748  15.675  34.462   4.182
65025W        W28749  17.800  23.663  12.971
65026W        W28750   1.412  14.819   4.748
65027W        W28751  12.226  24.149   0.273
65028W        W28752   6.694  14.770  10.146
65029W        W28753  33.085  11.326   3.817
65030W        W28754  23.698  37.370  14.890
65031W        W28755  28.626  26.992   0.375
65032W        W28756  34.892  19.090   1.220
65033W        W28757  39.488   6.698   2.673
65034W        W28758  16.255  37.868  11.509
65035W        W28759  22.704  37.386   4.136
65036W        W28760  25.144  37.363   3.666
65037W        W28761   2.884  12.319   1.349
65038W        W28762  27.650  44.284  13.520
65039W        W28763  11.801  23.155  13.449
65040W        W28764  39.399  17.213   4.303
65041W        W28765  36.371   6.407  11.012
65042W        W28766  21.094  12.177  13.014
65043W        W28767   2.314  40.813   1.759
65044W        W28768   5.874   8.820   2.694
65045W        W28769  16.122  18.113   2.733
65046W        W28770  39.918  19.538  14.905
65047W        W28771  21.630   5.727  10.490
65048W        W28772  42.304  37.565   1.354
65049W        W28773   6.200  14.100  12.547
65050W        W28774  40.534  20.173  13.031
65051W        W28775  42.294  39.426   2.202
65052W        W28776  25.095  12.849  11.946
65053W        W28777  28.083  12.269  12.394
65054W        W28778  28.959  14.211   4.299
65055W        W28779   1.966   6.737  13.929
65056W        W28780  39.060  39.479  10.616
65057W        W28781  21.571  14.225  11.500
65058W        W28782  26.994  42.865  14.840
65059W        W28783  13.155  40.485   2.806
65060W        W28784   1.845  38.897  13.981
65061W        W28785  32.929  20.154  10.499
65062W        W28786  15.606  29.084   3.702
65063W        W28787  23.166  26.485   3.694
65064W        W28788  39.540  10.655  12.494
65065W        W28789  11.251  26.525   2.887
65066W        W28790   0.426   6.818  11.001
65067W        W28791  36.433  36.417   4.791
65068W        W28792  11.714  18.747   2.254
65069W        W28793  39.058   9.714   4.125
65070W        W28794   2.736  20.678  11.542
65071W        W28795  44.974   7.888  13.904
65072W        W28796  31.089  41.426   4.823
65073W        W28797  14.274   3.768   3.704
65074W        W28798  37.553   6.190  14.837
65075W        W28799  33.596  31.625   4.772
65076W        W28800   1.292  26.698   4.240
65077W        W28801  43.496  16.639  13.023
65078W        W28802  41.807   1.754  14.969
65079W        W28803   1.797   3.365   4.764
65080W        W28804  31.590  29.531   1.407
65081W        W28805  24.084  42.007   1.750
65082W        W28806  28.046  32.097  13.986
65083W        W28807  16.138  21.676   0.483
65084W        W28808  11.145  24.075   3.249
65085W        W28809  20.174  28.618  13.886
65086W        W28810  30.012  20.217   1.717
65087W        W28811  11.790  27.596  10.556
65088W        W28812   3.850  21.186  10.506
65089W        W28813  28.951  29.946   4.259
65090W        W28814  36.525  27.567   1.813
65091W        W28815  41.396  19.535  10.438
65092W        W28816  38.442  27.577   1.365
65093W        W28817  19.232   2.946   2.814
65094W        W28818   8.353   0.367  10.588
65095W        W28819  10.751   3.365   3.791
65096W        W28820  35.093  17.196  10.612
65097W        W28821  33.582  14.633   4.119
65098W        W28822  42.788  41.808  11.046
65099W        W28823  35.075   8.733  10.496
65100W        W28824  32.524  37.039  11.129
65101W        W28825  41.885  13.315   1.348
65102W        W28826  21.580   7.790  12.524
65103W        W28827  40.997  18.605   0.759
65104W        W28828  18.226  29.525   0.874
65105W        W28829  13.288  21.202   0.775
65106W        W28830  42.411  41.941   1.884
65107W        W28831  13.717  18.785   4.833
65108W        W28832   3.830  43.344  12.474
65109W        W28833   7.222  39.363  10.587
65110W        W28834  26.021  30.599  11.096
65111W        W28835  21.075  14.754   2.700
65112W        W28836  27.048  27.142  12.839
65113W        W28837  29.501  19.573   3.858
65114W        W28838  13.616  44.326  10.637
65115W        W28839  24.637  29.923   1.224
65116W        W28840  31.551  43.399   4.809
65117W        W28841   9.367  23.725   1.316
65118W        W28842  30.549  20.634  12.498
65119W        W28843  12.162  40.426   0.251
65120W        W28844  15.208  18.625   3.828
65121W        W28845  41.934  23.202  13.834
65122W        W28846  15.217  20.674  11.377
65123W        W28847  41.017  37.578   1.819
65124W        W28848   2.746   1.426  10.587
65125W        W28849  27.002  10.350   4.834
65126W        W28850  20.112  40.456  12.016
65127W        W28851  31.923   4.818   2.375
65128W        W28852  20.092  28.492   0.334
65129W        W28853   2.458  23.531  13.007
65130W        W28854  37.403  11.631   1.359
65131W        W28855  36.851  12.757   0.801
65132W        W28856  34.955   4.930   1.703
65133W        W28857  39.453  39.453   2.287
65134W        W28858   5.782   7.276  11.925
65135W        W28859  10.223  42.430   2.312
65136W        W28860  38.349  18.631   3.687
65137W        W28861  36.973  32.994  12.360
65138W        W28862   0.885  41.356   2.860
65139W        W28863   5.882  38.877   4.793
65140W        W28864   7.182  44.497  12.388
65141W        W28865   6.742  29.427  12.955
65142W        W28866  35.392  44.952  11.074
65143W        W28867   8.721  39.499   0.929
65144W        W28868  40.524   0.400  13.514
65145W        W28869  42.338  29.428   3.672
65146W        W28870  12.241   5.269  14.847
65147W        W28871   2.880  31.956   0.815
65148W        W28872  32.937  32.414  11.407
65149W        W28873  37.509  10.271  11.059
65150W        W28874   7.841  36.012  12.505
65151W        W28875  41.402  35.098   4.737
65152W        W28876   8.791   0.461   2.741
65153W        W28877  38.364  16.217  12.828
65154W        W28878  27.452  32.069   1.296
65155W        W28879  26.039  11.833   1.876
65156W        W28880  20.751  36.377  12.831
65157W        W28881  11.842  29.969   3.296
65158W        W28882  15.591   6.347   1.372
65159W        W28883   5.366  33.924   3.275
65160W        W28884   4.233  18.722   0.779
65161W        W28885  44.314   2.396  12.385
65162W        W28886  44.804   1.880   3.224
65163W        W28887  17.071  43.842   1.259
65164W        W28888  12.786  20.107  13.063
65165W        W28889  32.604  14.112   1.775
65166W        W28890   2.241  20.686   0.777
65167W        W28891  13.716   7.233  11.120
65168W        W28892   8.230  32.550  10.462
65169W        W28893  12.808   5.749  10.143
65170W        W28894  14.691   0.784  14.341
65171W        W28895  15.129  32.109  12.082
65172W        W28896  22.107  40.042   4.238
65173W        W28897  23.104  41.402  14.939
65174W        W28898  37.063   5.313   3.278
65175W        W28899   9.325  10.653   4.119
65176W        W28900  38.391  21.045   9.925
65177W        W28901   3.847  29.123   0.799
65178W        W28902  39.436   1.850  13.537
65179W        W28903  23.111  23.050   0.857
65180W        W28904  13.234   4.900   4.139
65181W        W28905  13.175  31.029  14.019
65182W        W28906   2.464   1.871   4.674
65183W        W28907  10.777  19.723   5.196
65184W        W28908  43.966  10.204   0.757
65185W        W28909  28.069  13.292  10.547
65186W        W28910   5.871  16.204  12.932
65187W        W28911  11.316  20.701  12.857
65188W        W28912   8.881  38.069   2.770
65189W        W28913  22.740  11.341   0.470
65190W        W28914  31.055  14.172   4.281
65191W        W28915   4.814  20.661   1.767
65192W        W28916  20.624  36.570   0.420
65193W        W28917  39.429  24.075  13.836
65194W        W28918   8.210  23.718  13.310
65195W        W28919  28.964  27.599   3.223
65196W        W28920  32.398  17.799   1.760
65197W        W28921  19.562  19.271  14.354
65198W        W28922  35.361  37.543   2.241
65199W        W28923  10.815  14.797  14.026
65200W        W28924  37.338  22.063   1.414
65201W        W28925  16.083  13.165   2.784
65202W        W28926  28.937  12.791   0.272
65203W        W28927  37.944  33.906   4.835
65204W        W28928  15.617  13.807  10.911
65205W        W28929   1.738  43.336  12.879
65206W        W28930  40.543  10.815   2.896
65207W        W28931  44.818  24.670  10.572
65208W        W28932   0.421  21.051   4.642
65209W        W28933  22.667  35.479  12.034
65210W        W28934  38.884  42.522   0.943
65211W        W28935  36.855   5.216   2.896
65212W        W28936  14.712  19.201  13.944
65213W        W28937   3.281  39.904   0.776
65214W        W28938  12.768  29.961  11.435
65215W        W28939  35.531  20.225   4.751
65216W        W28940   1.904  29.944  11.594
65217W        W28941  21.580  14.833  13.482
65218W        W28942  26.974  21.153  12.441
65219W        W28943   0.443  14.804  10.443
65220W        W28944   7.402  23.665   2.239
65221W        W28945   8.808  19.068  12.546
65222W        W28946   9.298  33.534  12.865
65223W        W28947  39.999  26.637  10.588
65224W        W28948   8.696  13.168   4.199
65225W        W28949  43.369  29.035   4.751
65226W        W28950  24.024   1.797   3.825
65227W        W28951   5.908  33.428  12.066
65228W        W28952  35.987  27.154   2.722
65229W        W28953   6.750  30.057  13.964
65230W        W28954  29.952   9.730   2.385
65231W        W28955  24.227  37.470   1.894
65232W        W28956  38.501   6.776   2.238
65233W        W28957  16.265   9.662  12.502
65234W        W28958   0.333  30.456  10.621
65235W        W28959  31.499  22.531  14.887
65236W        W28960  35.424  20.566   3.861
65237W        W28961  33.032  32.439   0.378
65238W        W28962  29.014  41.390   0.331
65239W        W28963  40.983  28.513  10.566
65240W        W28964  17.090   1.805  13.957
65241W        W28965  12.159  17.096   1.426
65242W        W28966   6.208  14.590  14.942
65243W        W28967  32.400  32.417   2.865
65244W        W28968   2.805  37.577   1.408
65245W        W28969  15.262  19.120   1.886
65246W        W28970   3.307  12.684   0.323
65247W        W28971  12.200   4.734   4.285
65248W        W28972   0.307   5.338  12.560
65249W        W28973  41.293  39.325   2.807
65250W        W28974  35.603   3.746  14.889
65251W        W28975  11.129   8.199   0.244
65252W        W28976  19.767  23.145  13.045
65253W        W28977  12.616  10.795   3.341
65254W        W28978  42.465  34.481   3.723
65255W        W28979  17.710  35.952   1.880
65256W        W28980  37.391   7.239  12.410
65257W        W28981  29.667  44.309   2.193
65258W        W28982  20.138  12.337  13.947
65259W        W28983  41.845   7.323   2.212
65260W        W28984  37.076  15.118   1.378
65261W        W28985  12.837   3.734  14.417
65262W        W28986   1.364  23.734   2.245
65263W        W28987  42.474   3.265  14.340
65264W        W28988  37.880   6.381  13.528
65265W        W28989  20.673   4.921   2.308
65266W        W28990  31.906   2.744   4.324
65267W        W28991  27.002  12.746  14.395
65268W        W28992  11.633  18.777  12.060
65269W        W28993  30.443  17.104  12.891
65270W        W28994  36.568  38.043   3.683
65271W        W28995  26.023  13.319   3.768
65272W        W28996  37.038  37.433   4.119
65273W        W28997  29.958  25.580  14.936
65274W        W28998  31.490  34.054  13.038
65275W        W28999  44.308   1.421   4.336
65276W        W29000  29.495  19.559  10.535
65277W        W29001   4.213  17.794  13.889
65278W        W29002  22.070  12.207  12.838
65279W        W29003   0.284  11.724   3.751
65280W        W29004  37.002   4.892   1.754
65281W        W29005  21.155  12.665  13.934
65282W        W29006  23.623   7.880   1.853
65283W        W29007  10.729  34.453   0.475
65284W        W29008  10.723  38.013   0.946
65285W        W29009  24.998  25.527   1.323
65286W        W29010   8.180  23.682   0.249
65287W        W29011   8.815  17.251   0.341
65288W        W29012  38.380  21.178   0.820
65289W        W29013  44.280   2.951  12.986
65290W        W29014  39.914  18.217   1.249
65291W        W29015  40.018  14.315   0.892
65292W        W29016  30.572  24.065  13.906
65293W        W29017  16.093  19.662   2.243
65294W        W29018  23.184   8.719   4.619
65295W        W29019  21.118  16.220  12.395
65296W        W29020  28.097  34.034   3.346
65297W        W29021   2.849  14.126   1.451
65298W        W29022  44.826  23.535  13.994
65299W        W29023  16.597   9.660   3.824
65300W        W29024  40.840  21.703   3.766
65301W        W29025   5.731   5.860  13.464
65302W        W29026   7.819  27.555   0.905
65303W        W29027  30.003  18.271  11.478
65304W        W29028   7.900  24.607   3.352
65305W        W29029  26.518   3.754  11.487
65306W        W29030   7.176   2.925  12.885
65307W        W29031  29.608  33.466   3.247
65308W        W29032  33.001  34.521  11.489
65309W        W29033  34.370  17.625  13.944
65310W        W29034   2.937  44.316  12.946
65311W        W29035  19.228  28.014   4.683
65312W        W29036  10.811  42.960  12.525
65313W        W29037  40.972  20.239   2.877
65314W        W29038  24.110  26.654   4.820
65315W        W29039  36.465  39.338   3.198
65316W        W29040  19.714  10.365  12.066
65317W        W29041  12.638  15.304  14.406
65318W        W29042  32.085  29.552  12.828
65319W        W29043   7.828  25.553   0.737
65320W        W29044   2.900  13.268   4.660
65321W        W29045  16.646  42.012   3.840
65322W        W29046  25.688  18.131  11.917
65323W        W29047  17.651  18.257   2.191
65324W        W29048  32.941  13.348   2.326
65325W        W29049  22.233  17.231   0.874
65326W        W29050  30.133   0.941   1.852
65327W        W29051  28.586  21.069  11.997
65328W        W29052  24.996   7.175  12.559
65329W        W29053  23.048  12.770   4.606
65330W        W29054   5.908  13.209   1.243
65331W        W29055  29.662  42.821  14.943
65332W        W29056  21.189  44.464   0.325
65333W        W29057  43.406  34.388   0.923
65334W        W29058  24.007   0.340  14.491
65335W        W29059  37.449  32.554   4.343
65336W        W29060   7.736   5.730  10.583
65337W        W29061  40.312   8.804   3.803
65338W        W29062  28.057  39.824  12.048
65339W        W29063  33.098  18.095   1.346
65340W        W29064  21.212  25.571   5.202
65341W        W29065  34.545   4.811   1.886
65342W        W29066  22.101  36.472  10.934
65343W        W29067   3.452  27.060  10.887
65344W        W29068  19.625   4.875  12.458
65345W        W29069  21.722   3.316  11.374
65346W        W29070  28.515  25.149   4.734
65347W        W29071  25.026  42.892  12.838
65348W        W29072  31.506  15.596  13.440
65349W        W29073  21.019  21.187  12.846
65350W        W29074  21.561  23.543  11.865
65351W        W29075  10.365  42.906  12.473
65352W        W29076  34.593  10.835  13.934
65353W        W29077  38.867  40.955  11.467
65354W        W29078  26.582  12.765  14.768
65355W        W29079  12.211  40.474   1.263
65356W        W29080  25.093  29.664   0.349
65357W        W29081   6.882  43.869   3.235
65358W        W29082  40.919   2.818  11.117
65359W        W29083  30.539  43.953   4.797
65360W        W29084  43.372   2.908  10.921
65361W        W29085  26.155  19.591  14.412
65362W        W29086  34.079  13.241   3.860
65363W        W29087   8.838   1.412  12.059
65364W        W29088  13.108  43.939  11.883
65365W        W29089  17.740  10.341  12.515
65366W        W29090   2.796  25.581   3.777
65367W        W29091  24.096   7.813  11.969
65368W        W29092  29.449  15.662  10.470
65369W        W29093  37.916  11.659   4.602
65370W        W29094  18.289  23.998  12.512
65371W        W29095   3.767  29.647  10.475
65372W        W29096  25.670   4.310  10.507
65373W        W29097  39.537  23.642   0.798
65374W        W29098  33.590  41.371   3.643
65375W        W29099  16.192   6.728   1.780
65376W        W29100  14.142  32.418  12.446
65377W        W29101  37.066   9.350   0.261
65378W        W29102  13.264  17.694   3.256
65379W        W29103  36.423  24.159  13.363
65380W        W29104  19.040   7.708  12.034
65381W        W29105  36.015  38.845   3.729
65382W        W29106  41.022  24.607  10.540
65383W        W29107  20.103  33.571  12.502
65384W        W29108  16.619  16.635   4.638
65385W        W29109  23.071  35.487   3.842
65386W        W29110  38.968  37.346   4.698
65387W        W29111  13.173  41.860  14.399
65388W        W29112  19.772  13.235  13.433
65389W        W29113   9.182  33.900   3.330
65390W        W29114  18.689  25.548   1.446
65391W        W29115   3.880  28.060   2.836
65392W        W29116  17.254   6.206   0.259
65393W        W29117  15.182  10.647  11.077
65394W        W29118  24.680  24.595   1.435
65395W        W29119  44.829  41.385  10.470
65396W        W29120  38.351  11.154  12.508
65397W        W29121  16.588  34.577  11.045
65398W        W29122  44.008   4.866   2.770
65399W        W29123  43.366  12.242   3.720
65400W        W29124  38.872  23.497   1.344
65401W        W29125  26.542  18.749  10.610
65402W        W29126  38.402  38.014  11.964
65403W        W29127  23.012  32.452   3.817
65404W        W29128   1.421  22.552  12.496
65405W        W29129  36.559  17.662   3.689
65406W        W29130  24.556  40.892  12.018
65407W        W29131  20.603   9.301  14.795
65408W        W29132  19.204  23.222   2.315
65409W        W29133   3.828  31.096   4.818
65410W        W29134  13.172   9.208  10.938
65411W        W29135  31.110  31.540  13.418
65412W        W29136  37.862  16.598  11.422
65413W        W29137  43.337  34.459   4.702
65414W        W29138  13.276  40.916  12.538
65415W        W29139   9.259  20.609   0.790
65416W        W29140  30.962  25.516   4.165
65417W        W29141  12.780   1.300  11.091
65418W        W29142  31.942  32.051  14.295
65419W        W29143  12.218  27.512   2.719
65420W        W29144  11.714   5.254   2.668
65421W        W29145  18.754  18.237   5.164
65422W        W29146  33.088  30.967   1.729
65423W        W29147  12.690  32.432   1.269
65424W        W29148  20.228  15.243  11.930
65425W        W29149  39.842   0.374  14.858
65426W        W29150  16.600  27.003   4.815
65427W        W29151  40.539  28.530   1.440
65428W        W29152   5.885  31.149  11.958
65429W        W29153  14.094  22.714  14.974
65430W        W29154   3.746   1.391  12.857
65431W        W29155  13.137  36.866   2.878
65432W        W29156  32.009  23.641  13.426
65433W        W29157  13.717  23.510   1.307
65434W        W29158  29.496  36.023  14.298
65435W        W29159  38.377   7.329   4.654
65436W        W29160  33.896  19.077  12.967
65437W        W29161  35.581  19.201  11.911
65438W        W29162  33.397   7.375   3.192
65439W        W29163  36.946  10.661  13.973
65440W        W29164  21.094  24.026   3.660
65441W        W29165  28.041  14.317   1.810
65442W        W29166  18.286  35.097   3.730
65443W        W29167  14.173  33.525   2.822
65444W        W29168  10.258  32.972  10.960
65445W        W29169  40.837  13.279  13.037
65446W        W29170   1.340  23.579  10.606
65447W        W29171  13.151   4.363   1.259
65448W        W29172   8.328  23.682   1.834
65449W        W29173   5.870   7.213   2.250
65450W        W29174  25.657   5.775   4.623
65451W        W29175  16.576   2.285  13.957
65452W        W29176  36.364   4.213   2.328
65453W        W29177  38.415  19.261  13.991
65454W        W29178   0.364  25.588   3.200
65455W        W29179  37.872  14.817  11.121
65456W        W29180  44.476   8.293  14.882
65457W        W29181  11.335  27.607  13.932
65458W        W29182  31.088  29.059   0.455
65459W        W29183  10.207  10.270   4.282
65460W        W29184  23.166  42.913   0.436
65461W        W29185  22.684  15.124   1.787
65462W        W29186  19.065  43.793   4.118
65463W        W29187   8.774  16.306   1.826
65464W        W29188   4.716  43.366   4.656
65465W        W29189  31.497  19.225   4.606
65466W        W29190   8.299  33.620   3.184
65467W        W29191  13.787  13.777   3.343
65468W        W29192  24.107  24.154  11.055
65469W        W29193  21.627   9.180   3.736
65470W        W29194  30.055  33.019  12.925
65471W        W29195  18.673  25.534  13.013
65472W        W29196  12.285   0.814  12.465
65473W        W29197  22.529   8.166   1.285
65474W        W29198  15.245  43.873  10.892
65475W        W29199  33.900  15.684  10.504
65476W        W29200   2.413  18.734  14.394
65477W        W29201  22.709  28.022  12.880
65478W        W29202  37.831  43.464   1.324
65479W        W29203   8.660  28.643  12.065
65480W        W29204  44.848  34.120   3.761
65481W        W29205  23.143  10.139  12.840
65482W        W29206  16.119  44.951  12.885
65483W        W29207   2.905  25.962  13.357
65484W        W29208  11.777  41.292  10.513
65485W        W29209  18.087  27.149  10.509
65486W        W29210  26.679  40.528   1.776
65487W        W29211  30.642   8.703   2.254
65488W        W29212  22.221   0.266   2.196
65489W        W29213  33.449  31.422  11.408
65490W        W29214  15.779  21.690  14.857
65491W        W29215  10.874  21.135   4.655
65492W        W29216  19.112   8.843  11.424
65493W        W29217  15.223  21.210  11.958
65494W        W29218  19.127  28.627  14.434
65495W        W29219  23.196  31.933  13.874
65496W        W29220  25.000  41.003   2.845
65497W        W29221  41.956  37.918   9.677
65498W        W29222   2.382  16.146   3.324
65499W        W29223  26.509   4.232  13.969
65500W        W29224  32.996  44.486  13.345
65501W        W29225  15.282  11.234  13.451
65502W        W29226  10.144  33.103  14.951
65503W        W29227  15.660   2.261  13.368
65504W        W29228  24.604   2.761  14.478
65505W        W29229  32.923  13.743  12.474
65506W        W29230  13.144  44.291  14.942
65507W        W29231  40.037   5.929  13.364
65508W        W29232   1.913   8.293  11.024
65509W        W29233  35.359  29.550   1.898
65510W        W29234  26.469   8.722  14.877
65511W        W29235  12.819   9.712  13.429
65512W        W29236   3.733   3.912   1.275
65513W        W29237  10.735  19.229   1.409
65514W        W29238  10.353  23.192  11.536
65515W        W29239  23.207   5.927  14.406
65516W        W29240   7.251   1.857  11.981
65517W        W29241  32.622  40.866  11.039
65518W        W29242  22.706  20.690   4.780
65519W        W29243  20.695   7.197   0.952
65520W        W29244  30.559  34.594  12.890
65521W        W29245   9.240   1.402  14.865
65522W        W29246  10.649   4.432   1.873
65523W        W29247  11.788  37.024  14.435
65524W        W29248  37.009  12.841  12.846
65525W        W29249   2.260   6.876   0.311
65526W        W29250  29.992  39.406   4.613
65527W        W29251  21.212   0.328  14.764
65528W        W29252   4.829  37.536  13.475
65529W        W29253   2.385  27.467   1.801
65530W        W29254  42.885   9.714  10.967
65531W        W29255   1.769   4.725   0.867
65532W        W29256  19.209   2.789  13.957
65533W        W29257  35.567  20.596   1.782
65534W        W29258  29.577   7.743   3.790
65535W        W29259   5.696  14.159  11.009
65536W        W29260  17.711  10.163  13.409
65537W        W29261  44.268  15.218   3.347
65538W        W29262  34.459  22.127  14.818
65539W        W29263  44.974  33.905   4.804
65540W        W29264  29.553  38.867   0.330
65541W        W29265   2.324  30.421   3.681
65542W        W29266   8.807  31.097   0.258
65543W        W29267  36.842  19.187  12.499
65544W        W29268  16.111  20.736  13.872
65545W        W29269  16.202  32.897   4.769
65546W        W29270  30.654   0.908  14.897
65547W        W29271  37.475  18.207   2.272
65548W        W29272  24.043   5.309   1.238
65549W        W29273  33.098   5.432  12.529
65550W        W29274  33.620  32.035   0.244
65551W        W29275  28.961  36.058  14.899
65552W        W29276  22.238  10.313  14.453
65553W        W29277  34.400  34.890  11.047
65554W        W29278  21.666  25.657   3.268
65555W        W29279  30.620  25.584   3.172
65556W        W29280   7.174   9.818  14.501
65557W        W29281  39.864  30.576   0.272
65558W        W29282   7.400  44.912   4.754
65559W        W29283   3.363  19.050  13.790
65560W        W29284  38.819   8.357   0.828
65561W        W29285  28.937  23.531   0.937
65562W        W29286  37.374  41.999  11.081
65563W        W29287   4.753   8.255  11.527
65564W        W29288   3.851  39.921   0.294
65565W        W29289  24.666  10.206  12.973
65566W        W29290  22.167  12.844  13.442
65567W        W29291  13.294   2.962   9.966
65568W        W29292   1.423   2.381  14.407
65569W        W29293   7.250  32.521  13.465
65570W        W29294   5.912  31.505  13.927
65571W        W29295  16.241  43.881  13.007
65572W        W29296  34.954  17.801   1.879
65573W        W29297  25.125  21.608  12.988
65574W        W29298   8.705  33.496   1.445
65575W        W29299  12.224  28.466  13.365
65576W        W29300  30.472  34.924   4.787
65577W        W29301  42.879  16.746   4.826
65578W        W29302  36.397  17.161  10.993
65579W        W29303  22.010  40.973   0.811
65580W        W29304  15.602  40.042   3.691
65581W        W29305  35.503  24.069   3.293
65582W        W29306  29.048  37.545  11.073
65583W        W29307  32.948  16.595  12.870
65584W        W29308   0.390  22.556  11.420
65585W        W29309   1.939  26.595   4.166
65586W        W29310  28.976  16.091   3.328
65587W        W29311  13.173  32.583  12.853
65588W        W29312  32.082  34.873  14.376
65589W        W29313  10.156  26.101  11.987
65590W        W29314   4.768  37.567   3.166
65591W        W29315  26.617  38.052   2.326
65592W        W29316  11.361  38.050  11.544
65593W        W29317  28.493  30.458   1.777
65594W        W29318  14.816  34.096  14.500
65595W        W29319  19.568  25.668   0.816
65596W        W29320  37.412  40.513  13.815
65597W        W29321   7.353  42.853   5.105
65598W        W29322  40.315  32.060   5.089
65599W        W29323  25.681  21.131  13.034
65600W        W29324  30.607  27.492  14.842
65601W        W29325  35.092  22.242  12.450
65602W        W29326  13.231  38.006  14.828
65603W        W29327   7.396  17.185  10.904
65604W        W29328  34.405  24.020   0.470
65605W        W29329  37.396  18.599  11.960
65606W        W29330  36.426   9.362   1.850
65607W        W29331  41.993  39.026  12.892
65608W        W29332  38.357  19.242  13.355
65609W        W29333  10.330  26.480  13.329
65610W        W29334  13.156  32.500  14.337
65611W        W29335  38.928  19.094   4.233
65612W        W29336  39.520  41.495   1.343
65613W        W29337   0.285  28.668  11.515
65614W        W29338   9.839  38.378  14.910
65615W        W29339   4.259  30.919  13.336
65616W        W29340  42.354  41.410  13.962
65617W        W29341  30.919  18.165   2.403
65618W        W29342  25.604  13.211  13.330
65619W        W29343  32.629  41.362  14.778
65620W        W29344  30.505  19.742   2.664
65621W        W29345   9.170  24.996   1.438
65622W        W29346  42.497  25.630  10.444
65623W        W29347   5.226   2.385  14.473
65624W        W29348  25.199  25.683   4.181
65625W        W29349  27.448  30.457   4.681
65626W        W29350  43.436  27.997  13.364
65627W        W29351  37.033  15.730  13.478
65628W        W29352  22.016  39.410   2.852
65629W        W29353  26.533   5.714   3.862
65630W        W29354  14.685  13.109  12.484
65631W        W29355  23.595  10.309  10.522
65632W        W29356  11.299  37.991  12.508
65633W        W29357   8.268  26.543  12.561
65634W        W29358  34.885  22.216   0.850
65635W        W29359  12.748  43.776  14.360
65636W        W29360  32.012  44.470   3.634
65637W        W29361   3.758   7.746   4.320
65638W        W29362   3.368  23.612   0.454
65639W        W29363  22.620  40.538   5.244
65640W        W29364  42.376   2.836  13.394
65641W        W29365  44.376  23.579  11.580
65642W        W29366   1.857  39.933  11.070
65643W        W29367  42.422  41.814   0.833
65644W        W29368  41.417  28.029   0.351
65645W        W29369  20.571  44.890  13.963
65646W        W29370  15.796   7.274  13.927
65647W        W29371  24.608  24.143   0.916
65648W        W29372  36.005  11.626   4.199
65649W        W29373  44.335  36.978   0.349
65650W        W29374  17.202  16.314  11.448
65651W        W29375  27.526  33.934   2.840
65652W        W29376  42.835  15.222  10.490
65653W        W29377   2.831  40.923  12.036
65654W        W29378   4.880  44.810  10.500
65655W        W29379  42.485  20.274   4.257
65656W        W29380  22.160  23.155   1.803
65657W        W29381   4.903   8.808   3.244
65658W        W29382  27.975  18.240  11.513
65659W        W29383   0.426  13.837  13.826
65660W        W29384  39.063  42.779  12.364
65661W        W29385  31.921  40.503  12.839
65662W        W29386  39.544  44.992   2.783
65663W        W29387  15.141  15.714  14.004
65664W        W29388   2.276  13.187   2.393
65665W        W29389  13.817  16.649  10.637
65666W        W29390  44.279  37.452  14.984
65667W        W29391  25.087  17.146  14.412
65668W        W29392  43.326  38.067   3.346
65669W        W29393   2.229  40.893   3.294
65670W        W29394  24.689  39.863   4.719
65671W        W29395  21.044  22.682   0.743
65672W        W29396  30.945   7.785  14.012
65673W        W29397  32.434  44.840  11.488
65674W        W29398   8.806  25.642  11.046
65675W        W29399  20.050   2.293   4.691
65676W        W29400  20.557  23.172   3.322
65677W        W29401  30.613   9.705  13.392
65678W        W29402  34.411  14.681   2.400
65679W        W29403   4.705  13.182   4.690
65680W        W29404  41.021  29.061  14.029
65681W        W29405  38.533  21.739   1.257
65682W        W29406  41.787  14.206   2.782
65683W        W29407  37.876  13.240  14.409
65684W        W29408  36.592  20.124  11.106
65685W        W29409  28.118  32.118  14.469
65686W        W29410  16.209  21.242  14.365
65687W        W29411  26.178  37.013   3.221
65688W        W29412  15.603  38.539  14.342
65689W        W29413  10.812  27.510  14.909
65690W        W29414  38.400  21.657   0.823
65691W        W29415  40.459  23.214  13.940
65692W        W29416  11.356  41.888  10.408
65693W        W29417  44.348  26.524  13.332
65694W        W29418  34.869  34.072   0.728
65695W        W29419  42.311  10.317  11.913
65696W        W29420  22.569  41.956   3.789
65697W        W29421  13.812  38.557   3.849
65698W        W29422  42.938   9.810  12.448
65699W        W29423  44.755  10.818   0.361
65700W        W29424   3.914  36.480  13.341
65701W        W29425  33.606  43.302  11.011
65702W        W29426   8.866  42.916   1.915
65703W        W29427  31.028  30.141   0.728
65704W        W29428  16.295  33.966  12.432
65705W        W29429   2.776  39.829   1.800
65706W        W29430  15.784  11.150  11.123
65707W        W29431   7.238  38.858  13.887
65708W        W29432  10.378   9.187  14.774
65709W        W29433  14.723  25.009  13.334
65710W        W29434  19.574  25.566  12.508
65711W        W29435  16.709  30.160  10.938
65712W        W29436  11.309  41.837  11.611
65713W        W29437   9.330   5.289  11.113
65714W        W29438  10.375  20.146   9.946
65715W        W29439  18.062  21.082   3.737
65716W        W29440  42.518  27.191   1.897
65717W        W29441  30.974  43.486  11.881
65718W        W29442  27.625   0.465  11.441
65719W        W29443  41.941  29.524  10.036
65720W        W29444   8.175  11.220   3.210
65721W        W29445  25.534   8.797  10.974
65722W        W29446  22.682  38.325  12.476
65723W        W29447  22.563   0.364   4.767
65724W        W29448  23.571   6.745  14.978
65725W        W29449  39.929  43.833  14.514
65726W        W29450  11.155  16.695   0.324
65727W        W29451  42.898  11.645  11.103
65728W        W29452   0.395  38.999   0.480
65729W        W29453  36.544  11.847   2.749
65730W        W29454  40.368  16.653   0.921
65731W        W29455  39.871   5.332  14.780
65732W        W29456  28.533  14.117   3.819
65733W        W29457   4.299   8.316   4.598
65734W        W29458  43.432  42.907   1.346
65735W        W29459  18.246  40.864   4.665
65736W        W29460  24.199  39.316  11.574
65737W        W29461  16.193  44.406   3.304
65738W        W29462  11.727  25.485   0.325
65739W        W29463  31.465  43.898  13.049
65740W        W29464  39.374  12.633  12.025
65741W        W29465  44.816  10.770   4.631
65742W        W29466  28.499  41.030  13.982
65743W        W29467  31.527  39.452  10.533
65744W        W29468  22.648   1.349  10.583
65745W        W29469   3.878  41.979  11.566
65746W        W29470  18.217  41.860  14.962
65747W        W29471  43.996   2.469  13.962
65748W        W29472   7.217  40.340  12.494
65749W        W29473  17.156  38.002  10.069
65750W        W29474  10.138   2.748   0.379
65751W        W29475  34.050   8.872  10.496
65752W        W29476  38.855  38.974  12.570
65753W        W29477  34.871  36.406  11.883
65754W        W29478  35.978  27.098   0.343
65755W        W29479  39.865  38.498  10.888
65756W        W29480  29.038  16.699  13.884
65757W        W29481   2.935  18.276  12.928
65758W        W29482  15.312  21.193  12.448
65759W        W29483  29.465  40.872  14.380
65760W        W29484   5.320  14.618  13.543
65761W        W29485  16.634  38.894  14.340
65762W        W29486  12.660  37.985  11.418
65763W        W29487  37.928  42.430   0.745
65764W        W29488  28.525  13.257   2.794
65765W        W29489   3.306  19.688   0.412
65766W        W29490  19.656   3.824  12.374
65767W        W29491  38.870  34.982  12.865
65768W        W29492  31.045  39.364  10.617
65769W        W29493   6.754   1.886  13.433
65770W        W29494  34.399  15.699   4.331
65771W        W29495  32.893  35.865  12.085
65772W        W29496   6.368  38.030  12.415
65773W        W29497  12.117  29.952   1.323
65774W        W29498  32.628  41.792   0.263
65775W        W29499  38.015  39.484   1.336
65776W        W29500  15.320   3.776   0.376
65777W        W29501  40.942  12.297   2.749
65778W        W29502  12.255  41.878   4.216
65779W        W29503  15.135  15.772   1.796
65780W        W29504  26.619   3.233  12.560
65781W        W29505  16.568  41.504  13.012
65782W        W29506  32.034  38.438  14.380
65783W        W29507   6.373  35.529  11.594
65784W        W29508  12.206  37.833  10.618
65785W        W29509  13.166  40.914  13.901
65786W        W29510  36.574  26.977   0.371
65787W        W29511   8.370  44.967   2.397
65788W        W29512  38.051  18.138   2.306
65789W        W29513  16.763  27.196  14.386
65790W        W29514  12.704  26.591  10.619
65791W        W29515  34.522   1.934   0.839
65792W        W29516  23.199  13.787  14.476
65793W        W29517  31.919  27.989   5.138
65794W        W29518  20.264  23.991   4.332
65795W        W29519  25.153  43.806   3.640
65796W        W29520   5.888  25.534  10.925
65797W        W29521  35.854  23.639   0.830
65798W        W29522  16.698   3.921   2.680
65799W        W29523  13.230  13.673  10.414
65800W        W29524   4.808  10.869  10.152
65801W        W29525  36.854   3.291  12.365
65802W        W29526   8.269   1.278   1.336
65803W        W29527  44.792  18.162   5.316
65804W        W29528  40.998   2.427   3.206
65805W        W29529  37.877  29.625  11.602
65806W        W29530   0.439  24.561   3.276
65807W        W29531  32.053  34.552   1.297
65808W        W29532  38.930   5.880  13.046
65809W        W29533  27.626  26.144   4.142
65810W        W29534  31.096  29.544  11.559
65811W        W29535  43.966  24.536   2.357
65812W        W29536  28.632  39.062  11.065
65813W        W29537  43.403  30.111   3.719
65814W        W29538  33.923  13.128  13.346
65815W        W29539  19.592  38.875  13.973
65816W        W29540  19.633  39.900   0.250
65817W        W29541  43.480   4.811   9.968
65818W        W29542  39.832   4.745   4.656
65819W        W29543  29.980   3.907   0.401
65820W        W29544  41.827  28.473   2.662
65821W        W29545  41.298  24.590  11.587
65822W        W29546  36.865  27.969   2.774
65823W        W29547   0.405  20.596  10.958
65824W        W29548  38.918  31.603  10.559
65825W        W29549  10.687  40.444  12.403
65826W        W29550  28.999  13.760  14.965
65827W        W29551  33.518  30.553   3.383
65828W        W29552  16.088  26.158   3.645
65829W        W29553  11.656  30.517  13.475
65830W        W29554  17.735  15.695  12.559
65831W        W29555  15.645  18.087  11.470
65832W        W29556   8.352  35.544   0.481
65833W        W29557  16.694  12.146  11.405
65834W        W29558  39.343   0.403   3.770
65835W        W29559  11.645  26.021   3.316
65836W        W29560  11.693  12.127  11.978
65837W        W29561  13.657  41.870  12.921
65838W        W29562   9.272   1.344  13.956
65839W        W29563  11.201  35.998   3.671
65840W        W29564  25.162   8.160   5.270
65841W        W29565  29.930  19.580   1.885
65842W        W29566  41.796  23.557  11.491
65843W        W29567  30.150  30.081  12.869
65844W        W29568   8.208   8.753  11.083
65845W        W29569  12.708  28.003   1.852
65846W        W29570   2.318  19.754  10.504
65847W        W29571  12.707  35.494   2.221
65848W        W29572  41.797  17.208   5.117
65849W        W29573  42.864  42.400  12.008
65850W        W29574  17.306  28.953   2.796
65851W        W29575  13.286  14.616   2.289
65852W        W29576   5.340  40.488  11.473
65853W        W29577  10.678  33.878   3.871
65854W        W29578  26.139  27.502   0.752
65855W        W29579  17.604   6.721  12.482
65856W        W29580  28.172  11.198  13.932
65857W        W29581  38.889  42.405   3.274
65858W        W29582  37.052  23.595   0.275
65859W        W29583  39.955  12.147  12.419
65860W        W29584  24.979  39.024   2.372
65861W        W29585  36.949   3.400   0.770
65862W        W29586  26.065  44.325   1.699
65863W        W29587  13.743  35.866   1.344
65864W        W29588   0.407  36.883  14.293
65865W        W29589  34.909  27.159   0.813
65866W        W29590  41.927  29.613   3.348
65867W        W29591  22.242   2.246   2.213
65868W        W29592  41.446   1.472   1.367
65869W        W29593   4.834  20.182  14.505
65870W        W29594  24.127  38.850  13.444
65871W        W29595   5.409  15.231  14.491
65872W        W29596  12.762  24.645   4.654
65873W        W29597  43.396  10.796  13.980
65874W        W29598  38.551  25.622   9.956
65875W        W29599  15.221  22.554   2.238
65876W        W29600  13.280  28.504   2.373
65877W        W29601  16.624  44.499  11.062
65878W        W29602  29.491  22.215  11.382
65879W        W29603  33.932  21.090   1.265
65880W        W29604  24.550  24.551   3.240
65881W        W29605  44.482  23.593  14.996
65882W        W29606  21.664  44.915   4.719
65883W        W29607   3.366  15.179  12.043
65884W        W29608  16.277   6.699   0.767
65885W        W29609  14.647   6.228   1.346
65886W        W29610  22.533  40.335   1.850
65887W        W29611  29.141  36.079   1.718
65888W        W29612  10.775  40.495  10.606
65889W        W29613  41.995  11.790   0.464
65890W        W29614   0.478  17.754   2.341
65891W        W29615  23.578  13.782  13.487
65892W        W29616  42.453   3.222  11.606
65893W        W29617  27.149   4.943  12.538
65894W        W29618  27.195  32.447   1.705
65895W        W29619  37.894  16.190   3.220
65896W        W29620   0.938  18.569  13.426
65897W        W29621  12.798  42.424  11.856
65898W        W29622  43.409  33.894   4.734
65899W        W29623  11.710   4.429   2.764
65900W        W29624  13.818   2.298   2.413
65901W        W29625  40.414   0.457   0.459
65902W        W29626   3.375   7.218  10.508
65903W        W29627   3.316  25.649   3.714
65904W        W29628  39.042   7.766  13.989
65905W        W29629  19.093  10.231   2.404
65906W        W29630  11.865  12.115  10.508
65907W        W29631   3.888   1.820  12.544
65908W        W29632   6.273  36.064  11.085
65909W        W29633  22.677   8.827  10.582
65910W        W29634  41.511  37.970   1.310
65911W        W29635  43.982  15.135   2.333
65912W        W29636  33.128  34.940   0.910
65913W        W29637  15.790  36.019  12.010
65914W        W29638  36.369  25.119  12.009
65915W        W29639  21.664  16.168  14.905
65916W        W29640   9.159  40.347   4.639
65917W        W29641   0.773  20.563   0.911
65918W        W29642   5.260  17.801   1.397
65919W        W29643  36.068  34.016  14.325
65920W        W29644  24.084  12.159   3.149
65921W        W29645   8.278  35.521   2.860
65922W        W29646  32.080  29.469  11.438
65923W        W29647  27.625   0.263   2.223
65924W        W29648  18.104  28.987   4.697
65925W        W29649  34.572  16.616  14.797
65926W        W29650   2.447  23.203  14.317
65927W        W29651  29.947  18.783  12.843
65928W        W29652  19.696  16.804   0.917
65929W        W29653  29.098  15.666   1.892
65930W        W29654   8.813  39.558   3.827
65931W        W29655  23.107  24.588  13.399
65932W        W29656  30.980  17.787   0.259
65933W        W29657  39.536  22.193  12.533
65934W        W29658   9.159  35.578   0.823
65935W        W29659  22.655   2.849  12.509
65936W        W29660  37.485   4.283  10.054
65937W        W29661   9.393  36.863  13.349
65938W        W29662  18.084   4.257   2.893
65939W        W29663  40.990  42.418  12.863
65940W        W29664  10.871   6.862  14.324
65941W        W29665  31.071  38.570  11.883
65942W        W29666  24.649  40.016   9.452
65943W        W29667  30.019  33.039  13.992
65944W        W29668  11.852  20.054   3.216
65945W        W29669  12.310  17.625   0.887
65946W        W29670  43.854   9.847   2.404
65947W        W29671   1.407   4.250   1.794
65948W        W29672  42.892  39.448   3.686
65949W        W29673   7.802  38.555  13.475
65950W        W29674  35.982  12.844   1.234
65951W        W29675  41.937  40.435   4.656
65952W        W29676  16.103  14.256  10.556
65953W        W29677  25.613  31.453  12.461
65954W        W29678  30.596  35.073   3.288
65955W        W29679   2.901  37.943  12.397
65956W        W29680  39.063  41.839   5.791
65957W        W29681  22.015  15.122  14.958
65958W        W29682  25.982  25.052   3.725
65959W        W29683  11.246   6.802  11.911
65960W        W29684   6.290   5.756   0.372
65961W        W29685  21.215  22.153  10.629
65962W        W29686  21.130  16.258  12.908
65963W        W29687   0.865  32.407   4.603
65964W        W29688  43.890  12.692  11.128
65965W        W29689  25.480  32.462  11.514
65966W        W29690   9.380  37.542   0.265
65967W        W29691  41.506  23.523  14.463
65968W        W29692  19.638  39.534  14.836
65969W        W29693  30.542  29.168   4.228
65970W        W29694   9.797  40.455  11.602
65971W        W29695  17.655  19.761   2.403
65972W        W29696  26.080  37.011   3.843
65973W        W29697  19.131  15.259  14.506
65974W        W29698  24.029  18.242  11.936
65975W        W29699  29.471   1.757  13.395
65976W        W29700   4.767  20.093  13.485
65977W        W29701  41.390  38.382   4.235
65978W        W29702   2.807  29.113  12.835
65979W        W29703  15.153   3.260   2.893
65980W        W29704   1.775  25.486  11.545
65981W        W29705   9.150   4.893   2.753
65982W        W29706  26.577  37.522   3.201
65983W        W29707  39.948  41.497   4.672
65984W        W29708  14.264   9.172   2.700
65985W        W29709  30.570  20.229   1.307
65986W        W29710  34.489  39.929  13.824
65987W        W29711  17.095  31.105  10.973
65988W        W29712  22.547  33.112   2.395
65989W        W29713  20.261  29.609  14.504
65990W        W29714   7.382  32.584   4.743
65991W        W29715  26.013   0.823  12.849
65992W        W29716  31.642  26.174   1.293
65993W        W29717   5.248  12.350   9.650
65994W        W29718  44.858  32.608   0.277
65995W        W29719  30.439  29.536   2.199
65996W        W29720   0.288  40.450  12.058
65997W        W29721  11.257  33.067  11.909
65998W        W29722  30.941  27.092  13.866
65999W        W29723  27.501  21.249   2.890
66000W        W29724  35.431  43.374  11.379
66001W        W29725   2.420  22.122   4.623
66002W        W29726  42.397  21.719  14.917
66003W        W29727   9.747  19.156  11.534
66004W        W29728  34.995   4.910  10.042
66005W        W29729  41.458  40.511  11.541
66006W        W29730   8.228   5.316  14.842
66007W        W29731  43.871   3.446  14.830
66008W        W29732  30.986   8.660  14.016
66009W        W29733  40.810  41.934   4.181
66010W        W29734  41.835  44.776   4.203
66011W        W29735   7.191   0.873   4.296
66012W        W29736  10.261   7.836  14.972
66013W        W29737  27.535  26.022   3.800
66014W        W29738  25.106   4.336  11.987
66015W        W29739  32.073  17.571  10.618
66016W        W29740   2.869  23.097  13.518
66017W        W29741  14.733  29.962   4.221
66018W        W29742  21.616  28.118   2.749
66019W        W29743  39.323  24.209  14.940
66020W        W29744  27.127  30.057   2.343
66021W        W29745  24.224   0.901  13.534
66022W        W29746   9.339  31.904  11.878
66023W        W29747   5.237   5.918  11.995
66024W        W29748  17.565  19.111   2.708
66025W        W29749  22.646  36.563  12.915
66026W        W29750  32.569  20.568   1.405
66027W        W29751  27.056   6.314  12.480
66028W        W29752  10.209   7.381  13.816
66029W        W29753   3.712  15.257   4.218
66030W        W29754  28.663  29.943   1.718
66031W        W29755  16.248  14.204  14.851
66032W        W29756  36.931  23.605  14.028
66033W        W29757   0.341   9.645  14.362
66034W        W29758  43.797   1.367   0.791
66035W        W29759  44.360  41.871   2.192
66036W        W29760   7.287   5.731  12.942
66037W        W29761   0.450  34.910   3.360
66038W        W29762  37.862  38.994  12.037
66039W        W29763  16.783  18.693   2.278
66040W        W29764  17.196  37.425   3.231
66041W        W29765  22.006  32.135  12.040
66042W        W29766  32.591  30.020  13.968
66043W        W29767  41.993   4.322  12.010
66044W        W29768  29.919   3.396  14.424
66045W        W29769  29.434  13.791   4.349
66046W        W29770  19.754   6.424  12.978
66047W        W29771   6.822  17.096   3.870
66048W        W29772  22.703  15.188   0.824
66049W        W29773  27.181  34.897   0.354
66050W        W29774   2.366  40.039   3.363
66051W        W29775  24.187  30.534  12.477
66052W        W29776  23.137  19.536   2.850
66053W        W29777  26.194  35.518   2.254
66054W        W29778  36.921  18.120   1.365
66055W        W29779  15.690   2.356   4.339
66056W        W29780  44.006  19.561  13.526
66057W        W29781  14.224  23.006   3.720
66058W        W29782   1.330  17.273   3.322
66059W        W29783  25.470  20.136  10.979
66060W        W29784  42.002   9.794   1.786
66061W        W29785  43.412   1.909   3.826
66062W        W29786  19.664  23.595  12.550
66063W        W29787   8.866  31.486   4.155
66064W        W29788  29.640  13.745   2.367
66065W        W29789  42.469  27.467   3.774
66066W        W29790   5.337   9.799   2.279
66067W        W29791  32.406  40.490   4.231
66068W        W29792   8.333  38.357   4.198
66069W        W29793  33.056  36.562  13.884
66070W        W29794  31.912  26.003  14.915
66071W        W29795  34.499  37.528  12.458
66072W        W29796  14.613  11.140   3.189
66073W        W29797   9.354   4.394   3.378
66074W        W29798   2.797  35.933   4.150
66075W        W29799   1.392  32.550   1.811
66076W        W29800   8.273  26.473  13.413
66077W        W29801  11.260  40.984  10.452
66078W        W29802  25.493   6.709   1.717
66079W        W29803  29.112  39.485  10.954
66080W        W29804  20.127  38.956   0.482
66081W        W29805  16.085   8.749   1.397
66082W        W29806   7.190  39.381   0.299
66083W        W29807  19.703  34.042   2.820
66084W        W29808  14.217  37.541   5.227
66085W        W29809   0.951  30.027  10.917
66086W        W29810  33.529  17.090   3.196
66087W        W29811  18.171  33.125   3.248
66088W        W29812  19.566  42.440  14.894
66089W        W29813  28.452  15.300  12.032
66090W        W29814  27.178  41.536  14.375
66091W        W29815   0.353  34.098   2.314
66092W        W29816   8.841   2.732   0.402
66093W        W29817  32.933   5.783   4.605
66094W        W29818   0.834  12.654  10.023
66095W        W29819   4.769  12.808   0.479
66096W        W29820   1.900   7.814   2.413
66097W        W29821  24.082  33.129  14.825
66098W        W29822  43.982  33.490  13.899
66099W        W29823  20.253   5.432   0.453
66100W        W29824  26.580  25.631  13.504
66101W        W29825  23.496  43.998  14.500
66102W        W29826  19.070   7.905   1.398
66103W        W29827  14.339  39.012  10.124
66104W        W29828  43.871  28.056   2.353
66105W        W29829  25.134  14.328   0.416
66106W        W29830  24.599  31.036  12.089
66107W        W29831  33.939  35.405  12.963
66108W        W29832  21.707   8.247  12.354
66109W        W29833  29.469  36.559   1.891
66110W        W29834  14.336   1.830   3.847
66111W        W29835  30.648  32.099   4.186
66112W        W29836  25.967  15.254  12.962
66113W        W29837  38.003  23.005  11.393
66114W        W29838  31.581   9.742   4.783
66115W        W29839  17.219   2.282   0.286
66116W        W29840  38.062  44.907  11.427
66117W        W29841  17.238  23.230   2.185
66118W        W29842  36.402  35.083  13.918
66119W        W29843   5.319  42.382  12.409
66120W        W29844   7.712  32.463  10.463
66121W        W29845  34.016  10.714   3.331
66122W        W29846  21.555  30.148   1.218
66123W        W29847  10.753  23.508  13.408
66124W        W29848   0.758  16.619  14.510
66125W        W29849  28.493  43.878  12.425
66126W        W29850  11.705  37.516  11.010
66127W        W29851  44.413  29.653   3.384
66128W        W29852  33.975  34.605  10.991
66129W        W29853  23.493   6.229  14.391
66130W        W29854  27.024  22.015  13.051
66131W        W29855  28.101  24.120  11.539
66132W        W29856   5.283  11.820  14.990
66133W        W29857  30.155   3.889  12.072
66134W        W29858  25.145   4.392  10.459
66135W        W29859   2.871  41.377   3.831
66136W        W29860  41.352  15.771   0.421
66137W        W29861  10.755  25.587  14.763
66138W        W29862  32.892  12.681  13.824
66139W        W29863  39.818  11.737  11.562
66140W        W29864  34.528  17.781   9.542
66141W        W29865  38.538  31.939   1.773
66142W        W29866   5.398   4.438   0.431
66143W        W29867  29.636  15.299  13.333
66144W        W29868  41.980   9.375   4.322
66145W        W29869  27.675  28.567  12.534
66146W        W29870  22.172   5.697  11.093
66147W        W29871   7.312  26.617   5.290
66148W        W29872  37.403   8.779  14.969
66149W        W29873  20.621  19.154   1.819
66150W        W29874  31.960  16.723  11.094
66151W        W29875  37.346  26.457   1.731
66152W        W29876   3.861  14.720   4.279
66153W        W29877   1.976  20.534  12.884
66154W        W29878  30.914   0.853   4.228
66155W        W29879  13.350  20.249   0.877
66156W        W29880  35.043  12.149   3.378
66157W        W29881  22.591  12.153  11.066
66158W        W29882  19.547  27.195   4.619
66159W        W29883  43.488  32.970   2.331
66160W        W29884  12.362  12.833   4.253
66161W        W29885  16.597  12.210  12.915
66162W        W29886  18.593  19.665   1.832
66163W        W29887  14.771   9.252   0.289
66164W        W29888  40.340  39.451  12.890
66165W        W29889  23.510   3.265  14.443
66166W        W29890  16.698  14.184   5.269
66167W        W29891  28.511  14.673  13.465
66168W        W29892   4.347  24.588  11.965
66169W        W29893  34.459  30.089  10.611
66170W        W29894  35.524  29.029  12.458
66171W        W29895  21.127   4.703   5.258
66172W        W29896  43.330  15.168   1.813
66173W        W29897  40.904  31.087   1.844
66174W        W29898  29.666  19.060   3.290
66175W        W29899  35.550  35.907  11.599
66176W        W29900  15.085   1.778   2.833
66177W        W29901  24.200  12.204  11.421
66178W        W29902  23.095  11.718   3.266
66179W        W29903   4.925   0.291  12.502
66180W        W29904   9.889  44.902   1.838
66181W        W29905  25.994  26.527   4.290
66182W        W29906  21.142  39.816   2.382
66183W        W29907  41.388  40.956  14.837
66184W        W29908  43.436   7.705   0.792
66185W        W29909  27.548  20.556  11.069
66186W        W29910  43.308  11.862   2.206
66187W        W29911  23.194  21.614   0.343
66188W        W29912   2.354   3.393   1.734
66189W        W29913   4.746   8.683  11.007
66190W        W29914  15.199  35.051  13.837
66191W        W29915  23.073  11.675   2.220
66192W        W29916  37.839  39.867  11.094
66193W        W29917   4.332  19.159  10.554
66194W        W29918  12.653  11.771  14.482
66195W        W29919   6.854  18.740   1.923
66196W        W29920  18.732  34.883   4.636
66197W        W29921  30.930   2.835   0.302
66198W        W29922  25.031  44.818  13.921
66199W        W29923  34.024  11.293  14.024
66200W        W29924  24.702  38.040  14.425
66201W        W29925  36.492  12.155   3.238
66202W        W29926   7.750   5.897   4.344
66203W        W29927  26.559   9.791   0.877
66204W        W29928  32.892  11.269  14.925
66205W        W29929  11.635   1.852  12.402
66206W        W29930  11.867  27.454  13.978
66207W        W29931  14.667   4.710   1.728
66208W        W29932   0.314   6.727   1.442
66209W        W29933  23.621  17.578  13.509
66210W        W29934  30.447  27.955   4.208
66211W        W29935  44.415  29.067  10.087
66212W        W29936  40.528  30.658   4.665
66213W        W29937  41.301  15.687  11.391
66214W        W29938   8.785  12.719   0.323
66215W        W29939  40.889  27.482   3.304
66216W        W29940  12.149  16.602   4.152
66217W        W29941   8.225  40.354   3.267
66218W        W29942  41.964  14.272  11.923
66219W        W29943  17.079   0.300  14.961
66220W        W29944  24.553  18.238   4.716
66221W        W29945  12.846  41.875   3.237
66222W        W29946  26.575  19.534  11.962
66223W        W29947  14.722   7.759  11.388
66224W        W29948  15.662  29.632  13.547
66225W        W29949  37.911  12.721   2.789
66226W        W29950   4.357  33.600   4.701
66227W        W29951   9.809  43.282   2.746
66228W        W29952  44.865  11.345   0.804
66229W        W29953   8.235  24.190  10.627
66230W        W29954  43.398   9.786  11.497
66231W        W29955   6.811  27.555   1.834
66232W        W29956  35.031  20.670   3.337
66233W        W29957  24.072  39.837   1.869
66234W        W29958  34.909  20.540   4.783
66235W        W29959  39.875  44.880   4.598
66236W        W29960  17.187  19.706  11.492
66237W        W29961  43.802  43.892  14.892
66238W        W29962  18.078   2.437   1.282
66239W        W29963   7.271  30.622  11.988
66240W        W29964  44.436  20.669   3.816
66241W        W29965  33.087  10.301  12.464
66242W        W29966  34.526  14.288  12.050
66243W        W29967  15.670  44.877  14.987
66244W        W29968   9.168  35.852   4.700
66245W        W29969  36.425  41.448  11.052
66246W        W29970   8.761  36.011   1.279
66247W        W29971   8.223  12.184  13.544
66248W        W29972  18.782  39.034   2.862
66249W        W29973  37.923  11.681  10.043
66250W        W29974  16.746  28.966  14.778
66251W        W29975  35.109   4.438   0.343
66252W        W29976  24.173  39.904  14.428
66253W        W29977  39.065   6.757  14.981
66254W        W29978   7.794  37.962   3.151
66255W        W29979  36.066  36.495  13.329
66256W        W29980  27.596  30.915  11.955
66257W        W29981  19.158   6.873   0.368
66258W        W29982  42.785  43.776  13.347
66259W        W29983   7.346  10.773  13.377
66260W        W29984  26.557  28.504   3.867
66261W        W29985  26.104  31.424   1.293
66262W        W29986   6.344  13.740  12.466
66263W        W29987  36.414  38.453   2.418
66264W        W29988  36.489  18.123  12.987
66265W        W29989  22.695  44.385   3.789
66266W        W29990  30.121   5.826  10.635
66267W        W29991  16.676   6.252  13.422
66268W        W29992  14.707  36.575  12.372
66269W        W29993  44.833  14.589  12.027
66270W        W29994   3.877   8.730   2.287
66271W        W29995  36.553  24.633   0.780
66272W        W29996   8.731  21.603   1.364
66273W        W29997  35.517  19.104  12.999
66274W        W29998   8.247  39.892   0.855
66275W        W29999  11.777  20.606   4.679
66276W        W30000  17.081  33.616  10.122
66277W        W30001  30.976  10.214  11.399
66278W        W30002  41.888  33.501  11.859
66279W        W30003  16.606   4.354   1.783
66280W        W30004  13.840  10.383   0.884
66281W        W30005  34.585  20.097  14.026
66282W        W30006  14.718  20.537   2.855
66283W        W30007  21.584  14.332  10.579
66284W        W30008   7.802  37.874  11.891
66285W        W30009  12.831  26.690   1.422
66286W        W30010  16.278  12.338   1.248
66287W        W30011   2.917   6.790   3.733
66288W        W30012  16.709  34.546  11.469
66289W        W30013  24.514  31.637   3.358
66290W        W30014  36.415  23.634   2.391
66291W        W30015   9.852  35.033   3.834
66292W        W30016  24.593  29.965  11.980
66293W        W30017  34.578   1.957   1.223
66294W        W30018  42.368  31.908  14.946
66295W        W30019   3.413  15.168   3.219
66296W        W30020   2.769  25.112   0.870
66297W        W30021  17.610   3.289   0.833
66298W        W30022   1.421  22.703   2.404
66299W        W30023  21.146  36.077  14.830
66300W        W30024  20.217  26.162   3.253
66301W        W30025  19.042   1.794  12.560
66302W        W30026  21.695  25.531   0.907
66303W        W30027   6.841  25.596   1.927
66304W        W30028   9.807  28.976   4.153
66305W        W30029  35.555   4.742  13.397
66306W        W30030  23.104  23.073  12.972
66307W        W30031   3.332  23.080   2.180
66308W        W30032  43.993  21.575  13.364
66309W        W30033  28.107  44.835  10.421
66310W        W30034   1.329  36.505   0.404
66311W        W30035  31.901  29.158  14.879
66312W        W30036  33.945  37.433  14.912
66313W        W30037  21.176  12.277   2.314
66314W        W30038   4.784  40.931  13.802
66315W        W30039  15.314   7.192   4.740
66316W        W30040  13.202  31.547   4.199
66317W        W30041  39.063  25.673   0.306
66318W        W30042   9.823  16.164   1.227
66319W        W30043   9.233  28.013   2.354
66320W        W30044  15.703  25.974   2.328
66321W        W30045  11.687  42.414  14.794
66322W        W30046  30.510  33.593   4.214
66323W        W30047   6.226  44.765   0.735
66324W        W30048  20.104  24.566  11.416
66325W        W30049  32.576  20.606   4.146
66326W        W30050  20.231  26.626   5.307
66327W        W30051  15.703   3.364  13.846
66328W        W30052  42.964  40.035   0.949
66329W        W30053  38.563   6.208  14.316
66330W        W30054  25.585  21.580  11.890
66331W        W30055  11.672  18.178  12.063
66332W        W30056  12.842  30.087   3.740
66333W        W30057  43.766  15.171  13.810
66334W        W30058  36.954   8.689  12.545
66335W        W30059   2.721  30.022  14.401
66336W        W30060  34.068  27.532   1.720
66337W        W30061   3.770  34.611   1.383
66338W        W30062  32.485  43.383   1.792
66339W        W30063   3.795  17.154   0.851
66340W        W30064  13.255   2.907  13.317
66341W        W30065  24.129  24.535   1.865
66342W        W30066  14.782  17.651  13.823
66343W        W30067  25.495  29.603  11.061
66344W        W30068  37.385   5.397   2.231
66345W        W30069   5.908  23.991  13.855
66346W        W30070  29.086  30.503   4.703
66347W        W30071  38.367   7.873  13.063
66348W        W30072  27.012  36.528  11.000
66349W        W30073  41.484  12.140  13.030
66350W        W30074  44.463  39.369  13.010
66351W        W30075  32.056  24.988   2.279
66352W        W30076  16.648  21.167  12.955
66353W        W30077  26.124  37.914  14.941
66354W        W30078  13.743   6.290   4.218
66355W        W30079  17.682  11.277  12.883
66356W        W30080  32.574  16.648  10.523
66357W        W30081  16.804  32.111  10.924
66358W        W30082  37.036   9.702  12.945
66359W        W30083  11.210   5.364  11.520
66360W        W30084  17.233  37.979  13.469
66361W        W30085  44.974  37.981   2.874
66362W        W30086   8.405   2.845   4.755
66363W        W30087   1.358  40.497  12.396
66364W        W30088  15.158   8.740   1.843
66365W        W30089  32.550   6.853  11.058
66366W        W30090  40.853  24.682   2.242
66367W        W30091  40.998   6.300   1.338
66368W        W30092  25.976  19.099  11.941
66369W        W30093   8.696  31.108   2.291
66370W        W30094   7.721   1.409  11.443
66371W        W30095  40.876  44.407   1.814
66372W        W30096  19.227  44.446   4.641
66373W        W30097  29.004   5.830   4.264
66374W        W30098  33.614   4.280   2.797
66375W        W30099   6.305  44.806   4.132
66376W        W30100  21.534  16.714   9.662
66377W        W30101   4.212  30.145  11.859
66378W        W30102  12.738   6.410  10.485
66379W        W30103  16.179  42.411   2.276
66380W        W30104  35.886  43.345  11.530
66381W        W30105   1.436  19.591   0.959
66382W        W30106  27.507  18.619  12.021
66383W        W30107  23.207  24.973  13.548
66384W        W30108   4.826   0.938  10.079
66385W        W30109  34.401  10.255  13.370
66386W        W30110  15.655  40.948  12.542
66387W        W30111  31.119   1.437  10.565
66388W        W30112  11.837  26.573  12.037
66389W        W30113  21.257  36.523   3.174
66390W        W30114  44.879  19.274   1.797
66391W        W30115  13.283  24.146   4.788
66392W        W30116  32.436   2.329   4.687
66393W        W30117   7.302  31.629   0.794
66394W        W30118  40.484   7.822   0.810
66395W        W30119   2.462  11.149  14.382
66396W        W30120  20.271  33.033  12.937
66397W        W30121  16.769  39.819  10.526
66398W        W30122  31.950  30.988  13.039
66399W        W30123  37.935  30.561  10.107
66400W        W30124   3.905  16.260  10.897
66401W        W30125  35.991  38.895  11.865
66402W        W30126   9.166   4.447  13.972
66403W        W30127   6.235  36.890  11.856
66404W        W30128  28.946  28.991  11.941
66405W        W30129  19.163   3.228  13.504
66406W        W30130  40.385  36.452   2.674
66407W        W30131  35.442   5.884  14.764
66408W        W30132  36.587   4.803   5.115
66409W        W30133  42.407  43.275   4.289
66410W        W30134  16.732  40.512   4.713
66411W        W30135  38.361  42.372  12.046
66412W        W30136  24.690  17.673  12.370
66413W        W30137  20.732  16.589  12.045
66414W        W30138   1.835  30.060  12.091
66415W        W30139  10.202  11.367  14.510
66416W        W30140  24.688   2.402  12.946
66417W        W30141  22.744  16.162  14.362
66418W        W30142  17.298  25.084  13.917
66419W        W30143   1.441  30.492  10.898
66420W        W30144  11.800  22.608   3.853
66421W        W30145   5.781  13.131  12.343
66422W        W30146  33.510  13.828  13.357
66423W        W30147  27.983  12.205   0.918
66424W        W30148   3.777   9.693   3.260
66425W        W30149  39.342  13.777   3.629
66426W        W30150   8.304  37.054   1.304
66427W        W30151  10.849   6.325  11.983
66428W        W30152  13.262  29.946   4.724
66429W        W30153  26.181  32.899   3.655
66430W        W30154  20.265  40.983   3.148
66431W        W30155   7.787  43.329  14.341
66432W        W30156   8.716   1.853  10.578
66433W        W30157  32.447  32.039   3.298
66434W        W30158  28.012  11.262  14.484
66435W        W30159  31.458   1.870   1.309
66436W        W30160  12.216  32.947  13.475
66437W        W30161  13.127  39.513   3.183
66438W        W30162   1.325  33.520  12.452
66439W        W30163  17.221  17.147   2.355
66440W        W30164  28.129   4.448   0.802
66441W        W30165  22.250  34.017  10.594
66442W        W30166  23.614  39.513  13.511
66443W        W30167  18.678  32.037   0.478
66444W        W30168  15.284  18.737   0.327
66445W        W30169  32.588   8.367   1.245
66446W        W30170  22.058   8.164  14.947
66447W        W30171  44.775  22.567   0.417
66448W        W30172  28.603   1.868   1.234
66449W        W30173  41.831  33.039  11.442
66450W        W30174  33.469  36.593   1.416
66451W        W30175   8.221  31.913   4.830
66452W        W30176  19.185  23.230  11.532
66453W        W30177   7.669  43.838  14.382
66454W        W30178   9.717  40.994   0.262
66455W        W30179  20.031  41.937  10.970
66456W        W30180  41.526   3.449  13.413
66457W        W30181   4.237  29.937   2.820
66458W        W30182  20.624   1.365   1.903
66459W        W30183   4.899  37.934   0.411
66460W        W30184  32.049   4.830   4.644
66461W        W30185  15.815   9.726  11.878
66462W        W30186   0.474  13.737   3.758
66463W        W30187  40.024  18.201  12.019
66464W        W30188   5.249  33.498  14.387
66465W        W30189  25.980   7.733  11.565
66466W        W30190   7.369   6.869   3.820
66467W        W30191  30.415   7.722   2.743
66468W        W30192  16.636  21.635   1.427
66469W        W30193  15.752   4.934   2.673
66470W        W30194  44.370  42.324   3.720
66471W        W30195   1.367  10.348  13.039
66472W        W30196   0.253  34.883  12.542
66473W        W30197  42.497  38.335   0.894
66474W        W30198  13.129  43.949   4.352
66475W        W30199  27.958   1.362   5.091
66476W        W30200  23.200  10.835  14.490
66477W        W30201  12.784  14.215  12.542
66478W        W30202  38.418  23.704   4.740
66479W        W30203  19.536  42.430   0.959
66480W        W30204  43.377  33.067   1.916
66481W        W30205  35.864  28.954  14.345
66482W        W30206   2.904  21.555   1.863
66483W        W30207  34.100  30.493   2.663
66484W        W30208  13.327  16.606   4.235
66485W        W30209  32.923   4.298  12.531
66486W        W30210  26.535  17.754  14.011
66487W        W30211  15.209  14.313  11.981
66488W        W30212   9.390  35.507  14.930
66489W        W30213   6.321   5.218   4.291
66490W        W30214  22.613  32.999   2.859
66491W        W30215  17.175  40.362   4.820
66492W        W30216  38.005  42.021  14.324
66493W        W30217   8.338   3.396   1.879
66494W        W30218  12.816  12.686  13.869
66495W        W30219  27.052   0.776   2.377
66496W        W30220   5.195   4.264   3.865
66497W        W30221   9.367   3.926   1.820
66498W        W30222  28.072  41.044   1.313
66499W        W30223  38.963  30.003   4.735
66500W        W30224  19.087  35.001  11.378
66501W        W30225   9.750  34.054  13.053
66502W        W30226  17.650  28.491   4.334
66503W        W30227  37.988   8.387  11.057
66504W        W30228  42.383  13.218   2.760
66505W        W30229   9.878  32.902  12.862
66506W        W30230  22.159  35.547   1.807
66507W        W30231  31.608  25.089  10.507
66508W        W30232  13.273   5.928  14.897
66509W        W30233  43.929  43.419  11.086
66510W        W30234   4.443  19.723  11.550
66511W        W30235   4.731  24.673   0.800
66512W        W30236  26.654   2.859   1.336
66513W        W30237  27.020  15.746   2.374
66514W        W30238  16.730  44.486  13.426
66515W        W30239  43.784  17.133   3.218
66516W        W30240  41.019  42.428  14.842
66517W        W30241  26.014  41.026   3.645
66518W        W30242   7.389  15.182   1.386
66519W        W30243   4.926  37.526   0.760
66520W        W30244  13.689  24.653   1.307
66521W        W30245  13.277  44.958   1.280
66522W        W30246   9.344  14.634  10.458
66523W        W30247   8.367  11.640  14.770
66524W        W30248  28.636  36.393   0.395
66525W        W30249  31.546  26.098  14.940
66526W        W30250  25.468   5.927  14.309
66527W        W30251  33.617  36.013   1.421
66528W        W30252  32.102  33.398  14.499
66529W        W30253  31.969  37.538  12.869
66530W        W30254  14.323   2.307   3.795
66531W        W30255  40.444   5.701  13.928
66532W        W30256  40.999  37.555   1.310
66533W        W30257  31.939   6.414  11.440
66534W        W30258  26.972  44.371  10.479
66535W        W30259  14.215   1.241   3.349
66536W        W30260  14.250  33.516  11.405
66537W        W30261  28.458  11.807  12.093
66538W        W30262  35.512   0.441  14.953
66539W        W30263  31.513   4.854   4.198
66540W        W30264  11.311  17.103  10.554
66541W        W30265   5.755  16.200   4.292
66542W        W30266  35.070   1.850  12.051
66543W        W30267  19.540  36.999  11.959
66544W        W30268  29.038  39.478   4.648
66545W        W30269  13.688  22.723  13.483
66546W        W30270  23.987  19.277  12.011
66547W        W30271  18.713   8.248   3.736
66548W        W30272  14.325  26.631   1.425
66549W        W30273  22.522   1.306  12.081
66550W        W30274   8.219  19.667  10.634
66551W        W30275   3.272  14.172  12.855
66552W        W30276  16.649   0.398   1.307
66553W        W30277   6.318  38.329   1.371
66554W        W30278  24.044  32.944   1.436
66555W        W30279   2.882  36.566  14.931
66556W        W30280   5.789  19.218   0.960
66557W        W30281  30.571  21.138  13.981
66558W        W30282  36.367  39.887  10.999
66559W        W30283  38.882  10.690   4.609
66560W        W30284  26.676  40.976   4.620
66561W        W30285   0.939  12.274   2.202
66562W        W30286  16.723   3.803   0.269
66563W        W30287   3.389  39.891   1.885
66564W        W30288  27.668  33.088  13.850
66565W        W30289  30.634  18.586   3.860
66566W        W30290   3.758  16.237  12.506
66567W        W30291   4.754  16.073   3.362
66568W        W30292  42.468  25.210  11.897
66569W        W30293  27.156  16.283  11.963
66570W        W30294  12.668  40.323   3.323
66571W        W30295  42.932  43.456  12.041
66572W        W30296  20.540  21.041   3.749
66573W        W30297  24.993  18.612  11.411
66574W        W30298  37.012  44.290  12.513
66575W        W30299  23.175  28.669  14.395
66576W        W30300  37.834  17.160  11.930
66577W        W30301  39.388   3.354  12.463
66578W        W30302  21.673  19.658   0.402
66579W        W30303  38.945  20.113  11.516
66580W        W30304  34.903   6.823   4.632
66581W        W30305  34.429  41.354  11.912
66582W        W30306  14.680  42.793  11.593
66583W        W30307  20.733   9.822   3.340
66584W        W30308  35.575  21.245  12.424
66585W        W30309   6.365  19.653   1.336
66586W        W30310  31.026  29.634   0.848
66587W        W30311  19.625  12.343   5.298
66588W        W30312  40.831   9.738  10.911
66589W        W30313  27.983  17.600   4.201
66590W        W30314   4.386   1.935   2.210
66591W        W30315  35.401  22.196   0.416
66592W        W30316  43.358  33.550   4.313
66593W        W30317  37.496  17.646  12.053
66594W        W30318  26.581  28.957   0.284
66595W        W30319  35.562  39.422   3.848
66596W        W30320  17.082  21.597  12.401
66597W        W30321  38.536  13.810  11.936
66598W        W30322  25.699  35.005  11.566
66599W        W30323  37.068   3.366   3.842
66600W        W30324  24.547  26.971   1.230
66601W        W30325  14.826  23.072  10.534
66602W        W30326   7.340  15.645   0.919
66603W        W30327  39.012  30.428   2.248
66604W        W30328  15.134  18.196  11.937
66605W        W30329   5.795  17.578  14.337
66606W        W30330  14.276  10.314  12.893
66607W        W30331  33.510  12.722   1.711
66608W        W30332   6.737  35.551   2.835
66609W        W30333  28.444   3.930  14.383
66610W        W30334  15.662  41.382  11.022
66611W        W30335   6.315   0.355  13.477
66612W        W30336  12.175  41.361  11.496
66613W        W30337   3.322  42.855  11.538
66614W        W30338  25.145  20.651   3.723
66615W        W30339  30.158  16.700  14.808
66616W        W30340  39.449   5.279  10.463
66617W        W30341  28.180   6.815   3.665
66618W        W30342   8.778  28.186  10.641
66619W        W30343  35.882   4.270  11.971
66620W        W30344  30.160  35.467   0.898
66621W        W30345  16.262  44.875  11.398
66622W        W30346  44.419  10.346   0.912
66623W        W30347  12.330  11.855  14.940
66624W        W30348  36.401  38.435   1.737
66625W        W30349  35.494   3.299  13.499
66626W        W30350  27.082  23.526   1.334
66627W        W30351   6.325   7.867  12.088
66628W        W30352  31.527  15.224  11.579
66629W        W30353  26.470  10.726  14.307
66630W        W30354  32.957  39.331   1.307
66631W        W30355  35.066  18.085  11.934
66632W        W30356  10.714  29.174   3.247
66633W        W30357  20.128  25.697  14.292
66634W        W30358  20.121  34.040  13.874
66635W        W30359   7.796  18.559  12.854
66636W        W30360  21.092  34.096   1.817
66637W        W30361   5.743  11.226  11.028
66638W        W30362   6.189   4.869  11.580
66639W        W30363   6.695  22.135   0.900
66640W        W30364  29.971  20.647  14.812
66641W        W30365  15.188  36.896   4.318
66642W        W30366  24.495  38.512   3.821
66643W        W30367  42.809   0.852   1.314
66644W        W30368  30.138  43.780  14.813
66645W        W30369  43.998  33.120   4.136
66646W        W30370   5.382  39.428  14.008
66647W        W30371  17.091  23.162  13.868
66648W        W30372   4.268  27.461  12.396
66649W        W30373  16.159  24.157   3.754
66650W        W30374  25.987  41.378  10.471
66651W        W30375  19.087  31.563   0.762
66652W        W30376  41.398   4.242  12.864
66653W        W30377  33.128  37.902   3.849
66654W        W30378  30.614  41.474   2.731
66655W        W30379  18.176  21.050   3.355
66656W        W30380  42.791  21.705   0.750
66657W        W30381  10.327  34.040  10.966
66658W        W30382  30.987   4.273  12.532
66659W        W30383  39.988  44.875  14.445
66660W        W30384  14.311  20.673  13.317
66661W        W30385  27.061   1.335   0.412
66662W        W30386   6.404  30.159  14.910
66663W        W30387  27.460  33.574  12.404
66664W        W30388   7.249  28.072  11.042
66665W        W30389   7.284  39.996  11.493
66666W        W30390  32.969   8.403  14.816
66667W        W30391   7.855  41.802  14.875
66668W        W30392  17.617  26.606   3.320
66669W        W30393   0.917   5.353  12.862
66670W        W30394  37.523   8.736  10.962
66671W        W30395  10.207   8.251  14.771
66672W        W30396  39.063   5.330   0.395
66673W        W30397  28.071   4.225  13.054
66674W        W30398  39.987  23.182  13.392
66675W        W30399  38.070  28.582   0.282
66676W        W30400  22.141  36.916   5.274
66677W        W30401  34.460  29.609   4.151
66678W        W30402  20.707  33.476  11.958
66679W        W30403  32.885  33.013  11.903
66680W        W30404   6.425  17.783   1.392
66681W        W30405  11.373  33.521   2.312
66682W        W30406  22.248  30.913  13.946
66683W        W30407   3.788  11.304  12.043
66684W        W30408  42.832   9.360   2.380
66685W        W30409  15.612  25.966  13.814
66686W        W30410  37.547  13.144  12.876
66687W        W30411  18.262   4.783  11.522
66688W        W30412  27.066  34.935   2.890
66689W        W30413  30.446  32.896  14.846
66690W        W30414  29.605   8.704  11.995
66691W        W30415  29.560  19.654  13.816
66692W        W30416  38.489  16.616  14.413
66693W        W30417  27.549  16.579  14.815
66694W        W30418   6.835  44.848   0.933
66695W        W30419  19.663  19.273   0.888
66696W        W30420   5.244  31.604   0.412
66697W        W30421   9.218  24.152   2.688
66698W        W30422  25.990  10.828  11.965
66699W        W30423  24.138  25.140  11.531
66700W        W30424  41.442  20.547   0.330
66701W        W30425  39.973   5.428   1.330
66702W        W30426  44.809  36.923  10.587
66703W        W30427  38.367  12.358  11.441
66704W        W30428  14.155  34.110   4.212
66705W        W30429  33.064   4.372   4.210
66706W        W30430  44.869  16.574   1.832
66707W        W30431  34.893  16.087   0.904
66708W        W30432  26.479   7.311  11.128
66709W        W30433  32.969  10.305   0.280
66710W        W30434  35.952  13.664   3.229
66711W        W30435  33.426  31.138  11.476
66712W        W30436   8.851  22.746   2.398
66713W        W30437  42.017  36.496   3.702
66714W        W30438  16.267  43.482  14.003
66715W        W30439  28.555  10.762  13.313
66716W        W30440  13.326   3.286   2.875
66717W        W30441  30.915  34.390   4.833
66718W        W30442   3.368  23.600  13.017
66719W        W30443  21.624  31.988   2.791
66720W        W30444  39.493  30.999   1.922
66721W        W30445  43.950  26.582  14.500
66722W        W30446  44.902   8.750   0.354
66723W        W30447  32.416  15.210   2.242
66724W        W30448  32.988  30.931  14.005
66725W        W30449   2.227   9.681   2.756
66726W        W30450  12.772  19.772  12.389
66727W        W30451  14.096  24.015   4.273
66728W        W30452  44.940  34.379  12.428
66729W        W30453   6.223   2.471   1.771
66730W        W30454  22.585  22.658   5.216
66731W        W30455  20.724  39.447  11.932
66732W        W30456  26.665   1.758   2.864
66733W        W30457  17.653  22.128  12.895
66734W        W30458  39.514  37.543  12.016
66735W        W30459  33.937  19.592  11.115
66736W        W30460  28.539   1.317   4.217
66737W        W30461  10.825  16.693  14.807
66738W        W30462  15.188  25.129   4.161
66739W        W30463  10.818  15.192   3.359
66740W        W30464  37.427  11.251  11.978
66741W        W30465  33.083  10.737   1.411
66742W        W30466  25.558  39.442   0.410
66743W        W30467  15.149  30.971   1.714
66744W        W30468  14.713  14.783  14.493
66745W        W30469  28.468  16.152  11.527
66746W        W30470  33.969   7.210   2.844
66747W        W30471  36.516  36.967  10.598
66748W        W30472  44.421  27.498  11.451
66749W        W30473   0.264  26.591  14.960
66750W        W30474  14.120   9.777  10.580
66751W        W30475  24.207  23.497   4.197
66752W        W30476  16.576  30.024   1.245
66753W        W30477  29.140  24.489  12.417
66754W        W30478  31.643  43.364   1.809
66755W        W30479  14.251  14.642  13.829
66756W        W30480   7.225  14.798   3.152
66757W        W30481  23.505  38.564   4.744
66758W        W30482  11.631  20.205   1.357
66759W        W30483  43.851  11.258  13.009
66760W        W30484  34.896  27.948   3.183
66761W        W30485  25.500  32.421   1.345
66762W        W30486  14.713  21.154   1.267
66763W        W30487   9.790  28.531  13.471
66764W        W30488  30.011  37.503  10.605
66765W        W30489  35.049  17.140   3.349
66766W        W30490  30.113  34.990  14.806
66767W        W30491   6.865   7.182   3.682
66768W        W30492  13.802  30.959  12.495
66769W        W30493   7.775  34.493  11.401
66770W        W30494   3.453  12.720  11.089
66771W        W30495  39.479  14.640   2.748
66772W        W30496  29.132  20.250  13.051
66773W        W30497  38.944   9.291  10.544
66774W        W30498  32.427  18.273  13.976
66775W        W30499  22.718  25.684  12.383
66776W        W30500  38.029  26.665  11.606
66777W        W30501   6.854  22.712  12.454
66778W        W30502  28.166  38.485   4.234
66779W        W30503  35.385  40.906   2.359
66780W        W30504  37.352  23.589  13.376
66781W        W30505  19.569  44.317  10.979
66782W        W30506   0.835   3.355   0.245
66783W        W30507   6.274   5.736  11.077
66784W        W30508  24.064   5.209  10.631
66785W        W30509  33.921  40.460  12.044
66786W        W30510  11.640   2.829  14.954
66787W        W30511  23.677  31.535   3.266
66788W        W30512  31.022  19.548  12.369
66789W        W30513  21.567  29.523   1.867
66790W        W30514   0.793  29.505  12.544
66791W        W30515  15.162  17.176  11.072
66792W        W30516   3.906  16.724   1.796
66793W        W30517  37.985  24.025  14.305
66794W        W30518  28.592  42.799  12.961
66795W        W30519  31.961   0.369  10.070
66796W        W30520  38.992  43.356   3.655
66797W        W30521  15.622  33.063   3.233
66798W        W30522   1.916  31.413   1.424
66799W        W30523  20.612  41.326  14.474
66800W        W30524  35.569   3.714  13.934
66801W        W30525  31.089  29.535   3.263
66802W        W30526  36.426  19.557   2.683
66803W        W30527  41.972  27.185  14.317
66804W        W30528   2.284  37.983   2.186
66805W        W30529  20.627   0.493   1.716
66806W        W30530  37.918  42.350  13.327
66807W        W30531   1.339   8.782   3.166
66808W        W30532  38.327  18.724   4.716
66809W        W30533   7.789  37.516  11.073
66810W        W30534  43.442  33.878   3.246
66811W        W30535  23.493  20.147   0.799
66812W        W30536  25.194  13.786  14.396
66813W        W30537   2.818  30.604   2.877
66814W        W30538  10.187  39.064  11.003
66815W        W30539  10.707  39.960  13.955
66816W        W30540  41.947   3.896   2.403
66817W        W30541   7.711  18.703  11.384
66818W        W30542  44.855  22.017   3.653
66819W        W30543  42.510  43.482  13.502
66820W        W30544  10.212  42.779   1.220
66821W        W30545  12.694   7.307   3.204
66822W        W30546  31.096  23.735   1.810
66823W        W30547  39.919  22.133   3.368
66824W        W30548  41.304  43.516   3.169
66825W        W30549  18.712  20.621  11.939
66826W        W30550  25.514  15.757  11.051
66827W        W30551  16.237  36.949   1.291
66828W        W30552  37.392  12.270   2.750
66829W        W30553  32.976   2.277  13.401
66830W        W30554   8.852  22.010  14.817
66831W        W30555  39.517  41.947  13.530
66832W        W30556  27.474   5.818  11.984
66833W        W30557   2.947  10.203   4.143
66834W        W30558  24.479   9.279  12.382
66835W        W30559  42.439  10.846   2.683
66836W        W30560   9.257  21.655  10.598
66837W        W30561   1.879  31.536   2.394
66838W        W30562  10.268  12.265  10.550
66839W        W30563   7.731  44.841  12.384
66840W        W30564   4.722   9.864   1.820
66841W        W30565  38.398  16.270  11.394
66842W        W30566  19.083  19.083  13.031
66843W        W30567  21.129  30.567   4.307
66844W        W30568  14.258  35.870   4.661
66845W        W30569   3.921  27.946   0.742
66846W        W30570  16.173   6.318   0.876
66847W        W30571  35.905  16.774  14.325
66848W        W30572   2.270  17.586  13.834
66849W        W30573  23.209  35.873   1.821
66850W        W30574  20.718  11.738   0.917
66851W        W30575  28.466  35.082  10.496
66852W        W30576  34.882  12.156   0.316
66853W        W30577  30.063  35.467  10.964
66854W        W30578  34.501  24.064  13.381
66855W        W30579   7.199  22.596  11.892
66856W        W30580   6.837  38.458  14.422
66857W        W30581  42.287   6.277  14.473
66858W        W30582  29.046  20.171   1.328
66859W        W30583   9.687  14.731  11.421
66860W        W30584  23.096   9.669   1.858
66861W        W30585   2.308  41.793   0.445
66862W        W30586  27.030  40.452  10.124
66863W        W30587  19.203   4.310  10.959
66864W        W30588  11.830  24.109  13.984
66865W        W30589  15.645  19.218  12.421
66866W        W30590   1.301  31.563  13.883
66867W        W30591  18.249  36.924   3.792
66868W        W30592  29.460  41.365  13.355
66869W        W30593   7.339   4.747  11.547
66870W        W30594  35.600  15.586  11.402
66871W        W30595   5.805  29.953   3.760
66872W        W30596  40.378  41.368   4.198
66873W        W30597   3.365   5.373   3.659
66874W        W30598  44.439   9.739  12.952
66875W        W30599  14.182   1.882   4.733
66876W        W30600  14.818  18.738  13.854
66877W        W30601  29.538   9.825   2.367
66878W        W30602  37.430  27.619   0.459
66879W        W30603  14.688   9.350  12.000
66880W        W30604  31.031  30.001  14.275
66881W        W30605   0.879  29.490  11.456
66882W        W30606   8.697  33.493  10.609
66883W        W30607  29.524  16.709   1.417
66884W        W30608  21.050   4.326  11.381
66885W        W30609  13.818  17.575  13.391
66886W        W30610  31.487  18.086  13.833
66887W        W30611  18.126   2.863   4.190
66888W        W30612  26.618  11.655   2.381
66889W        W30613  34.990  17.663   4.236
66890W        W30614  42.426  21.562   2.690
66891W        W30615  15.297  25.963   2.724
66892W        W30616  35.982  39.855  10.913
66893W        W30617  27.665   2.721   0.251
66894W        W30618  28.526  26.469   1.289
66895W        W30619  35.091  27.614  12.961
66896W        W30620  39.055  35.427   0.464
66897W        W30621   1.420  15.291   2.246
66898W        W30622  40.312  36.407  11.511
66899W        W30623   7.854  37.086  13.820
66900W        W30624  18.140  20.273  11.981
66901W        W30625  13.214   9.822  12.498
66902W        W30626  29.063  44.270  12.399
66903W        W30627   3.295   9.758   3.726
66904W        W30628  18.716  23.998   2.414
66905W        W30629  24.128  39.006   0.437
66906W        W30630   7.244  36.473   1.809
66907W        W30631  16.801   3.818   0.945
66908W        W30632   1.820  34.916   3.293
66909W        W30633  35.365   4.928  14.394
66910W        W30634  22.028  23.512  14.294
66911W        W30635  19.284  27.598  11.461
66912W        W30636  33.611  36.370  14.879
66913W        W30637  35.534   3.732   4.680
66914W        W30638   2.759  36.093  11.978
66915W        W30639  24.512  41.498   3.759
66916W        W30640   9.818  15.175  11.968
66917W        W30641  39.868   1.370  13.511
66918W        W30642   0.433   3.876   3.670
66919W        W30643   8.375  44.382   2.866
66920W        W30644  19.543  18.270   1.281
66921W        W30645  18.682  20.655   4.187
66922W        W30646  12.300  40.393  12.029
66923W        W30647  36.008  43.768  13.038
66924W        W30648  44.898  21.084   0.463
66925W        W30649  15.300  37.864  14.925
66926W        W30650  44.784  18.289  14.819
66927W        W30651  12.638  39.545  10.571
66928W        W30652   3.949  44.878  14.781
66929W        W30653  41.364   1.455  10.919
66930W        W30654  39.395  13.150  12.836
66931W        W30655  26.477  27.076  13.855
66932W        W30656  27.653   2.259  14.482
66933W        W30657  21.033  17.744   3.867
66934W        W30658  19.248  13.694   0.242
66935W        W30659  19.716  19.652   0.835
66936W        W30660  43.013  12.631   2.777
66937W        W30661  10.657   3.410   0.337
66938W        W30662  11.132  22.712   1.262
66939W        W30663   3.925  44.966   2.842
66940W        W30664   3.284  33.092   1.905
66941W        W30665  36.905  44.901  14.477
66942W        W30666   8.781  33.471  12.340
66943W        W30667  32.927  12.649   0.837
66944W        W30668  23.537  23.207   3.268
66945W        W30669  21.570  26.108  13.813
66946W        W30670  16.703  17.166   9.998
66947W        W30671  14.109  31.017   4.283
66948W        W30672  40.428   0.478   3.333
66949W        W30673  35.377  23.720  11.492
66950W        W30674  20.743   1.828   2.679
66951W        W30675  11.656  20.049  14.918
66952W        W30676  21.059  10.328  13.531
66953W        W30677  41.001  32.475   3.706
66954W        W30678   1.402  20.071  10.934
66955W        W30679   5.196  37.431   4.273
66956W        W30680  27.519  19.665   1.261
66957W        W30681  37.393  23.172   0.296
66958W        W30682  13.799  38.438  13.399
66959W        W30683  15.783   8.679  11.929
66960W        W30684  26.177   0.487  12.096
66961W        W30685  26.495  35.023   3.630
66962W        W30686  41.829   5.267   0.844
66963W        W30687  27.500  33.514  13.390
66964W        W30688  35.525  38.849  12.883
66965W        W30689  31.130  22.742   1.740
66966W        W30690  25.043  40.341  13.944
66967W        W30691  20.663  27.647   0.432
66968W        W30692   6.882   8.846   3.229
66969W        W30693   0.337   0.299  12.878
66970W        W30694  31.128  30.630   4.802
66971W        W30695  21.230  23.160  10.959
66972W        W30696   3.428  13.208  11.060
66973W        W30697  38.058  20.061   1.935
66974W        W30698  41.307  43.477   2.865
66975W        W30699  36.494  38.374   4.228
66976W        W30700  32.549  19.612  12.947
66977W        W30701   3.453  23.570   1.315
66978W        W30702  32.522   4.854   2.716
66979W        W30703  24.656  26.067   9.942
66980W        W30704  42.334  37.881  14.926
66981W        W30705  31.631  31.646  13.547
66982W        W30706   5.765  31.128   3.809
66983W        W30707  40.015  30.633   3.634
66984W        W30708  18.243  14.656  14.450
66985W        W30709   3.799   0.874  10.972
66986W        W30710  31.428  17.597  13.821
66987W        W30711   1.890   7.835   0.900
66988W        W30712  40.993  32.118   3.155
66989W        W30713  31.960  43.431   3.634
66990W        W30714  29.636   9.685  13.798
66991W        W30715  18.670  10.371   5.165
66992W        W30716  32.111  10.809   0.444
66993W        W30717  43.423  41.989  11.510
66994W        W30718  35.558  21.656   0.480
66995W        W30719   1.757   9.650   2.189
66996W        W30720  18.199  13.280  12.845
66997W        W30721  32.472  36.565   1.298
66998W        W30722  30.026  35.903   4.694
66999W        W30723   2.920  29.603   1.806
67000W        W30724  15.108  14.589  11.501
67001W        W30725   2.352  33.487  13.835
67002W        W30726  25.049  22.571  12.454
67003W        W30727  25.689  19.761   3.748
67004W        W30728  33.096  17.081  14.340
67005W        W30729   2.774  33.899  14.389
67006W        W30730  38.961  26.110  14.762
67007W        W30731  23.667  34.518   4.347
67008W        W30732  39.969  44.426   4.678
67009W        W30733   5.809  39.830  11.114
67010W        W30734  34.569  32.569   0.737
67011W        W30735   6.291   1.895   0.942
67012W        W30736  14.101  28.959  11.590
67013W        W30737  32.547  39.965   1.386
67014W        W30738  10.344  35.987  13.928
67015W        W30739  32.570   6.399   2.790
67016W        W30740   8.819  17.230   4.151
67017W        W30741  15.756  12.663   1.295
67018W        W30742  11.809  16.578  12.488
67019W        W30743  30.646  30.049  12.851
67020W        W30744  21.682  15.644  11.421
67021W        W30745   6.329  40.046  11.044
67022W        W30746   4.342  18.653  11.387
67023W        W30747  38.335  35.420  10.928
67024W        W30748  11.638  44.008  10.606
67025W        W30749  37.837  43.005  14.907
67026W        W30750  42.954  35.558  11.550
67027W        W30751  34.545  22.530  12.562
67028W        W30752  40.037  21.195  13.028
67029W        W30753  27.516  33.081  10.996
67030W        W30754   3.358   5.845  14.463
67031W        W30755  12.715  11.357   3.292
67032W        W30756  28.658  32.969   0.877
67033W        W30757  25.117  14.330   4.687
67034W        W30758  44.953  30.103   2.416
67035W        W30759  31.076   8.283  10.445
67036W        W30760  12.730  12.239   1.901
67037W        W30761  39.972   3.863  13.882
67038W        W30762  19.134  42.009  13.856
67039W        W30763  28.173  33.626   3.169
67040W        W30764   9.725  22.569   2.390
67041W        W30765   3.317   0.845  11.550
67042W        W30766  18.294  37.913   0.946
67043W        W30767  18.613  31.074  11.459
67044W        W30768  22.221  41.451   4.820
67045W        W30769   3.409  33.606   3.722
67046W        W30770   5.770  36.995  14.460
67047W        W30771  23.595  27.153   3.702
67048W        W30772  23.069  33.571  11.436
67049W        W30773  17.224  14.740  14.289
67050W        W30774  10.363   8.753   1.760
67051W        W30775  22.654  27.488   0.860
67052W        W30776   8.855  33.501  14.030
67053W        W30777  12.767   1.419  12.992
67054W        W30778  17.084  44.366  12.945
67055W        W30779  33.544  11.346   0.954
67056W        W30780   4.820  38.076   2.740
67057W        W30781   4.941  12.660  11.893
67058W        W30782  31.092   8.659  12.969
67059W        W30783  21.646  22.011   4.792
67060W        W30784  43.959   8.754   0.406
67061W        W30785  19.635  30.541   0.828
67062W        W30786  44.413  32.460  14.874
67063W        W30787  20.647   3.248   2.324
67064W        W30788  33.597  25.578   0.963
67065W        W30789  23.640  31.594   2.214
67066W        W30790  18.628  22.551  12.862
67067W        W30791  34.514  27.466  14.370
67068W        W30792   0.759   5.386  12.552
67069W        W30793  12.623  27.124  10.538
67070W        W30794  26.505  13.146  12.342
67071W        W30795   7.810  14.333  11.951
67072W        W30796  18.635  29.985   3.741
67073W        W30797  13.826  38.451  13.825
67074W        W30798  23.654  37.989  10.551
67075W        W30799  44.267  27.553   1.752
67076W        W30800  41.809  31.958   1.805
67077W        W30801   7.250  17.256  13.362
67078W        W30802   8.824  32.598   2.859
67079W        W30803  44.766  12.687  11.604
67080W        W30804  44.765  43.355   3.636
67081W        W30805  15.293  21.023   0.900
67082W        W30806  23.674  40.858  11.888
67083W        W30807  41.978   9.704   3.863
67084W        W30808  36.492  28.631  11.921
67085W        W30809  41.495  12.141  11.403
67086W        W30810   2.249  33.570   2.774
67087W        W30811  43.293  14.761  13.344
67088W        W30812  44.873  22.065   2.747
67089W        W30813  18.118  33.416  12.452
67090W        W30814  15.224   7.240   3.860
67091W        W30815  10.160  30.915   4.276
67092W        W30816  30.550  12.705  13.875
67093W        W30817   3.943  28.151   3.775
67094W        W30818  20.628  13.677  10.956
67095W        W30819   6.299  14.629   4.798
67096W        W30820  41.837  11.223  14.007
67097W        W30821  15.125  32.100  11.006
67098W        W30822   6.812   5.804  13.417
67099W        W30823  22.608  25.571  10.902
67100W        W30824  16.166  27.988   4.641
67101W        W30825  24.082  16.645  14.789
67102W        W30826  43.786  31.915  11.102
67103W        W30827   0.432  13.288  13.442
67104W        W30828  36.488   7.336   3.805
67105W        W30829  31.930   1.274   3.211
67106W        W30830  41.040  25.970  14.464
67107W        W30831   7.410  26.170   2.831
67108W        W30832  18.691  15.612  11.123
67109W        W30833  39.442  21.130  11.404
67110W        W30834  31.907  42.342  14.314
67111W        W30835   8.301  29.000  14.895
67112W        W30836  21.578   0.834  14.472
67113W        W30837  15.671  16.724  14.901
67114W        W30838  40.831   0.853   0.772
67115W        W30839  27.138  23.688  11.589
67116W        W30840  38.448  35.920  10.443
67117W        W30841  37.046  24.557   2.418
67118W        W30842   5.403  16.760   0.391
67119W        W30843  10.669  42.426   0.883
67120W        W30844   6.192  32.623  13.040
67121W        W30845  12.705   8.294   0.275
67122W        W30846  20.203  13.318  14.316
67123W        W30847  18.207   2.751  12.999
67124W        W30848  39.362  18.102  14.382
67125W        W30849   9.307   7.731   1.912
67126W        W30850  24.092  30.461   2.802
67127W        W30851  20.234   5.351   4.694
67128W        W30852  31.003  23.196  12.387
67129W        W30853  21.041  40.989  13.972
67130W        W30854   2.926   6.882   4.163
67131W        W30855  42.290  14.697  12.447
67132W        W30856  35.106  17.650   0.732
67133W        W30857  42.873   4.786   3.328
67134W        W30858   6.220  43.319   2.327
67135W        W30859  42.400   1.958   2.665
67136W        W30860  33.532  42.411  14.933
67137W        W30861  30.910   6.677   2.899
67138W        W30862  44.991  37.051  14.885
67139W        W30863  11.765   2.444   4.788
67140W        W30864  34.490  26.105  14.026
67141W        W30865   1.270  36.090   0.416
67142W        W30866  37.435  43.801   9.647
67143W        W30867  15.722  33.432  13.471
67144W        W30868  20.199  32.125   4.722
67145W        W30869  29.500   6.760   1.406
67146W        W30870   8.173  13.642  11.020
67147W        W30871  40.943   0.850   1.332
67148W        W30872  26.613  36.433   4.836
67149W        W30873  19.717  38.052  13.057
67150W        W30874  39.061  43.771   2.855
67151W        W30875  43.835  38.465  10.919
67152W        W30876  27.572   6.208   3.276
67153W        W30877  28.080  19.110  11.549
67154W        W30878  35.548   6.713  13.915
67155W        W30879   6.264  18.251   4.652
67156W        W30880  13.846  39.899  11.480
67157W        W30881  35.093  24.016   2.773
67158W        W30882  26.125  31.557   2.183
67159W        W30883  31.044  38.885   3.664
67160W        W30884   4.362  44.943   4.662
67161W        W30885  43.964   3.791   0.412
67162W        W30886  31.116  36.450   4.160
67163W        W30887   3.869  13.662   2.415
67164W        W30888  12.233  30.152   4.296
67165W        W30889  12.348  39.056   2.204
67166W        W30890  16.583   4.856   1.221
67167W        W30891   7.292  33.618  14.816
67168W        W30892   0.339  25.189   2.754
67169W        W30893  10.155  24.196  12.569
67170W        W30894  36.398  11.180   1.880
67171W        W30895  32.475  25.965   3.146
67172W        W30896   7.716  22.067  13.933
67173W        W30897   0.805   8.691  11.962
67174W        W30898  16.735  34.505   0.417
67175W        W30899  29.940  26.582  14.318
67176W        W30900  16.248  26.057   2.311
67177W        W30901  10.795  42.987  12.952
67178W        W30902  34.057   9.672  13.314
67179W        W30903  32.452  15.111  12.040
67180W        W30904  12.674   3.812  10.917
67181W        W30905  33.098  15.703   3.713
67182W        W30906  25.040  36.447  12.443
67183W        W30907  25.219   3.235  12.529
67184W        W30908  40.835  36.929  13.046
67185W        W30909  44.401  25.103  11.129
67186W        W30910   3.909   5.875  12.482
67187W        W30911  19.603   2.751   1.391
67188W        W30912   8.283  40.879  11.375
67189W        W30913  42.947  33.618   2.386
67190W        W30914  16.788  35.483  10.425
67191W        W30915  26.186  14.627  14.913
67192W        W30916  34.426  28.560   0.933
67193W        W30917  38.858   3.788   1.892
67194W        W30918  33.533  34.893  10.474
67195W        W30919  38.071  26.158   4.298
67196W        W30920  26.464   2.940  13.441
67197W        W30921  11.247  20.541   1.365
67198W        W30922   6.397  11.687  13.920
67199W        W30923  39.423  31.901  12.340
67200W        W30924  43.784  37.445  13.036
67201W        W30925  25.068   9.762  12.381
67202W        W30926  33.917  25.679   4.660
67203W        W30927   1.939  23.028   2.299
67204W        W30928   4.744  12.177   2.346
67205W        W30929  38.560  29.610  10.416
67206W        W30930  36.531  27.549  14.322
67207W        W30931  37.378   2.917  13.313
67208W        W30932  19.236   2.419   0.799
67209W        W30933  20.530  40.045  11.443
67210W        W30934   1.973   2.318   2.228
67211W        W30935  36.980  20.648   0.816
67212W        W30936  40.906  37.435   3.681
67213W        W30937  44.966  19.075  13.446
67214W        W30938  11.703   1.329   0.299
67215W        W30939  18.682   3.806  14.976
67216W        W30940  33.957  16.280  12.396
67217W        W30941  27.497  18.689   3.190
67218W        W30942  41.296   0.837  12.486
67219W        W30943  26.955  38.931  10.525
67220W        W30944  42.408  43.282  10.922
67221W        W30945  26.103  27.165  10.561
67222W        W30946  36.064  38.447  12.521
67223W        W30947  25.989  11.371  10.637
67224W        W30948  12.152  25.491   3.354
67225W        W30949  37.451  19.744   0.482
67226W        W30950  19.738  18.736  14.011
67227W        W30951   3.786  23.717  11.871
67228W        W30952  43.964   0.491  13.834
67229W        W30953  30.450  26.589  10.926
67230W        W30954  13.211  31.078   3.664
67231W        W30955   0.248  24.619   4.600
67232W        W30956   5.274  41.801   3.657
67233W        W30957  30.509  40.485   2.199
67234W        W30958  13.644  21.031  12.021
67235W        W30959  32.050  25.513  14.440
67236W        W30960  17.280   3.450   0.326
67237W        W30961  34.613  35.535   1.347
67238W        W30962  20.086   6.202   2.309
67239W        W30963  40.346  13.837  12.464
67240W        W30964  21.567   4.925   0.426
67241W        W30965  35.359  12.233   9.674
67242W        W30966   5.253   1.483   3.229
67243W        W30967  34.905  21.090   3.350
67244W        W30968  10.676  24.095   0.874
67245W        W30969   8.278  18.267  13.032
67246W        W30970   2.753  29.596   0.784
67247W        W30971  16.128  43.793  11.942
67248W        W30972  42.951  28.641  10.436
67249W        W30973   3.396  22.029   1.402
67250W        W30974  42.902  16.722   4.211
67251W        W30975   1.269   8.198   4.798
67252W        W30976   6.765  28.667   1.349
67253W        W30977  16.132  26.622   0.386
67254W        W30978  38.016   6.883   2.235
67255W        W30979  42.334   7.705  14.329
67256W        W30980   8.312  25.477   0.427
67257W        W30981  25.556  21.569  13.054
67258W        W30982  25.475  43.969   4.658
67259W        W30983   7.330  34.095   0.961
67260W        W30984   4.869  38.492  13.813
67261W        W30985  21.617   6.722   2.261
67262W        W30986  42.290  25.541   0.445
67263W        W30987  26.574  38.377  14.943
67264W        W30988  28.015  26.530   4.283
67265W        W30989  32.072  19.582  13.389
67266W        W30990  11.176  31.507   0.916
67267W        W30991  16.177  44.262  11.444
67268W        W30992   4.787  14.677  13.880
67269W        W30993  33.908   6.854  12.942
67270W        W30994  44.340  10.730   0.245
67271W        W30995  12.780  30.427   2.246
67272W        W30996  26.081   8.334   9.627
67273W        W30997  12.356  10.757  11.422
67274W        W30998  12.203  11.190   2.311
67275W        W30999   7.180  38.469   4.335
67276W        W31000  15.756  40.477   1.408
67277W        W31001  41.402  34.384  11.432
67278W        W31002  35.517   9.278  10.445
67279W        W31003   3.223  32.594   3.355
67280W        W31004  18.095  21.650  11.573
67281W        W31005   2.331   5.915  12.397
67282W        W31006  14.277  15.752   1.916
67283W        W31007   4.762   5.927   4.250
67284W        W31008   9.334  23.174  11.056
67285W        W31009  44.907  30.581   5.166
67286W        W31010   8.859  36.402   0.808
67287W        W31011   0.935  33.555   0.437
67288W        W31012  32.965  28.654   2.382
67289W        W31013  28.454  33.516  10.117
67290W        W31014  24.588  34.565  12.550
67291W        W31015   6.885  31.049  11.900
67292W        W31016  40.882  34.023  11.573
67293W        W31017  43.306  33.086  12.512
67294W        W31018  14.732  38.026   4.694
67295W        W31019  33.390  28.135  14.484
67296W        W31020   0.257  19.265   3.154
67297W        W31021  31.425  31.542  12.422
67298W        W31022   8.287   1.274  13.934
67299W        W31023  32.975  36.956  14.409
67300W        W31024  30.938   3.331  10.554
67301W        W31025  43.289   3.439   4.145
67302W        W31026  21.119  41.947   0.800
67303W        W31027  36.400   8.306   4.630
67304W        W31028  29.425   6.797  12.036
67305W        W31029  35.459  10.272  11.460
67306W        W31030  21.079   8.791   4.755
67307W        W31031  40.519  36.892   0.904
67308W        W31032  34.597   2.966  11.543
67309W        W31033  28.658  41.824   1.437
67310W        W31034   3.908  30.069  13.362
67311W        W31035  43.859  34.870  11.075
67312W        W31036   5.811  10.201  13.878
67313W        W31037  17.224  33.075  11.115
67314W        W31038   6.876  38.989   3.210
67315W        W31039   8.833  23.196  11.100
67316W        W31040  17.800  43.509   2.817
67317W        W31041  38.829  42.968  14.976
67318W        W31042  16.308  42.317   0.304
67319W        W31043  16.229  41.890  10.453
67320W        W31044   1.327  26.602  14.760
67321W        W31045  12.668  29.086  11.005
67322W        W31046   8.342   3.222  14.830
67323W        W31047  41.903  37.511   1.255
67324W        W31048   9.351  23.606  11.888
67325W        W31049  13.104  30.095  14.321
67326W        W31050  10.318  39.538   1.311
67327W        W31051   8.282  44.439   1.811
67328W        W31052   0.828  32.602   3.268
67329W        W31053   2.730  14.619  13.914
67330W        W31054  39.348  36.878   4.804
67331W        W31055  28.598   6.304   2.302
67332W        W31056  13.283  26.646   2.178
67333W        W31057  28.029  13.321   5.222
67334W        W31058  37.489  32.981  14.397
67335W        W31059  36.924  30.043  10.534
67336W        W31060   9.295  31.046   1.778
67337W        W31061  42.011  13.744  14.885
67338W        W31062   3.234  28.622   3.164
67339W        W31063   7.809  21.604  13.470
67340W        W31064  37.406   6.293  13.409
67341W        W31065  32.926  34.944   1.744
67342W        W31066   2.723   7.401  11.598
67343W        W31067  26.675  16.148   5.261
67344W        W31068  41.038  13.709  14.506
67345W        W31069  20.544  10.823  12.417
67346W        W31070  12.228  40.326  10.483
67347W        W31071  10.237  32.132   4.801
67348W        W31072  33.930   8.192   4.288
67349W        W31073  34.486  22.059  13.473
67350W        W31074   8.846  37.484   5.217
67351W        W31075  12.242   4.348   3.151
67352W        W31076  41.862  10.778  10.586
67353W        W31077  21.216  43.343  14.382
67354W        W31078  14.243   8.790  10.633
67355W        W31079  30.023  22.248  12.093
67356W        W31080   1.795  43.768   3.200
67357W        W31081  30.128  31.508  12.415
67358W        W31082  11.653  21.234  14.409
67359W        W31083  43.357  15.114   1.322
67360W        W31084  42.412  21.527  11.908
67361W        W31085  26.999   6.322   4.676
67362W        W31086  33.624  14.260  11.428
67363W        W31087  36.384   9.767   4.269
67364W        W31088  41.986  14.722   4.242
67365W        W31089  28.579   8.336   3.737
67366W        W31090  41.912  41.322  12.045
67367W        W31091  15.618  36.390  12.901
67368W        W31092  28.044   5.710  13.886
67369W        W31093  30.506  19.039  13.995
67370W        W31094  24.572  28.043   3.287
67371W        W31095  12.212  36.859   1.402
67372W        W31096  34.883  40.317   5.306
67373W        W31097  27.545   3.831   0.415
67374W        W31098  33.535  37.971   1.930
67375W        W31099   3.841  25.659  12.058
67376W        W31100  16.137   8.669   1.804
67377W        W31101  19.253  27.473  12.517
67378W        W31102  19.282  38.475  14.403
67379W        W31103  44.424  33.070   2.339
67380W        W31104  43.853  37.463   2.821
67381W        W31105  32.924  30.940   1.440
67382W        W31106  33.602  38.429   3.801
67383W        W31107  32.488  37.524   4.315
67384W        W31108   3.788   6.416   1.891
67385W        W31109  23.651  37.437  12.982
67386W        W31110   8.655  26.193   4.769
67387W        W31111  26.703   6.874   3.678
67388W        W31112  33.578  44.324   3.322
67389W        W31113  38.883  26.703  13.801
67390W        W31114  22.681  15.175   1.382
67391W        W31115  28.484  11.807  10.460
67392W        W31116  30.009   1.900   0.786
67393W        W31117  38.986  22.157  10.488
67394W        W31118  36.485  40.953   1.371
67395W        W31119  17.669  12.806   2.698
67396W        W31120  32.975  31.413   2.835
67397W        W31121   1.752  14.324   1.927
67398W        W31122  17.117  20.033   1.398
67399W        W31123  41.393  29.006   0.267
67400W        W31124  40.884  33.473   0.765
67401W        W31125  21.663  32.983  12.070
67402W        W31126  30.964  30.108  12.385
67403W        W31127  24.542  16.305  13.805
67404W        W31128  31.970  16.177  13.969
67405W        W31129  31.073  24.984   4.758
67406W        W31130  33.567   4.943  12.468
67407W        W31131  39.362   1.412   0.357
67408W        W31132  20.669  18.274  13.869
67409W        W31133  18.249  39.369  13.045
67410W        W31134  23.575  32.499   3.773
67411W        W31135   1.881  18.219  13.423
67412W        W31136  23.609  26.129   1.297
67413W        W31137   5.927  27.612  12.539
67414W        W31138  15.802  19.047  10.996
67415W        W31139   9.214  20.740   0.273
67416W        W31140  29.476  41.318  10.918
67417W        W31141  19.649  22.673  10.938
67418W        W31142  42.001  32.008  14.298
67419W        W31143  25.514  15.788  11.460
67420W        W31144  25.149   0.305  14.974
67421W        W31145   6.757   1.287  13.897
67422W        W31146  34.996   4.878  13.331
67423W        W31147  16.136  13.782   3.266
67424W        W31148  15.180  19.543   3.243
67425W        W31149  17.700   9.294  11.381
67426W        W31150  41.042  29.577  11.422
67427W        W31151  11.628   7.752  13.914
67428W        W31152  30.151   7.820  12.083
67429W        W31153   0.347  36.858  12.942
67430W        W31154  28.018  35.099  13.793
67431W        W31155  27.105  27.152  10.956
67432W        W31156  13.608  38.429   4.713
67433W        W31157   9.343  39.477  11.977
67434W        W31158  27.490  40.951  14.903
67435W        W31159  15.766  25.609   3.324
67436W        W31160  34.917  34.960   2.881
67437W        W31161  44.815   7.857  10.505
67438W        W31162  23.124   8.271  13.337
67439W        W31163  26.135  29.457   4.219
67440W        W31164   2.344  34.935  14.327
67441W        W31165  25.482  11.369  11.573
67442W        W31166  36.581  36.934  12.834
67443W        W31167  44.799  23.027   4.606
67444W        W31168  21.094   5.925   0.378
67445W        W31169   6.307   2.465  11.128
67446W        W31170  27.507  41.839  10.434
67447W        W31171  11.197  26.147  10.924
67448W        W31172  38.839  12.200  11.536
67449W        W31173  21.604  38.857  14.494
67450W        W31174  14.281  31.442  13.986
67451W        W31175  39.989  24.159   2.801
67452W        W31176  29.427  43.880  13.363
67453W        W31177  38.475  26.618  14.509
67454W        W31178  11.749  39.888  13.473
67455W        W31179   3.727  25.127   4.353
67456W        W31180  14.338  10.757  10.570
67457W        W31181  28.082   3.949  13.840
67458W        W31182   2.410  20.737   2.295
67459W        W31183  43.345   9.869   0.309
67460W        W31184  43.813  40.919  11.596
67461W        W31185  13.789  33.919  11.390
67462W        W31186  38.392   7.741  10.413
67463W        W31187  19.211  26.661  13.986
67464W        W31188   0.322  37.088   2.731
67465W        W31189   0.435   9.157   2.829
67466W        W31190   6.846  15.245  11.436
67467W        W31191  29.064  24.089   2.780
67468W        W31192  35.014  32.627  13.900
67469W        W31193  14.325  21.100  12.398
67470W        W31194   0.281  40.449  11.505
67471W        W31195  35.398  30.084   2.724
67472W        W31196  37.987  19.778   2.852
67473W        W31197  25.482  42.802   5.184
67474W        W31198   6.235  36.073  13.919
67475W        W31199   2.430  20.086  14.390
67476W        W31200  15.304  30.522   0.406
67477W        W31201  37.369   1.751   1.785
67478W        W31202  42.949   2.910   0.884
67479W        W31203  28.533  15.214   1.216
67480W        W31204  33.521  32.966   3.326
67481W        W31205  43.929  39.912   2.378
67482W        W31206  12.820   8.667   3.163
67483W        W31207  34.873  31.917  14.902
67484W        W31208   0.265   5.786   3.792
67485W        W31209   9.832  43.767   3.689
67486W        W31210  11.305  32.968   3.185
67487W        W31211  21.702   6.725  12.088
67488W        W31212  35.934  24.197  12.882
67489W        W31213   5.300  41.927   1.346
67490W        W31214  38.518  44.399  11.393
67491W        W31215   4.713  22.638   3.305
67492W        W31216  31.936  42.349  14.005
67493W        W31217  19.119  24.580   0.727
67494W        W31218  19.777  38.056  14.477
67495W        W31219  14.273   0.974   4.206
67496W        W31220  16.703   7.257  11.973
67497W        W31221  21.087  33.422   4.814
67498W        W31222  40.039  33.608  10.627
67499W        W31223  10.643   7.876  14.882
67500W        W31224  29.458  17.686  12.096
67501W        W31225  11.804  21.198   0.445
67502W        W31226   1.946  23.174  13.505
67503W        W31227  40.444  36.938   1.310
67504W        W31228  17.256  24.541  11.925
67505W        W31229  23.017  30.936  11.950
67506W        W31230  39.004  15.686   2.748
67507W        W31231  31.436  39.911   4.131
67508W        W31232  41.499  23.023   1.347
67509W        W31233  10.727  10.733   3.792
67510W        W31234  34.595  34.928  11.862
67511W        W31235  40.021  16.135  10.571
67512W        W31236  34.090  41.930   1.230
67513W        W31237  21.178  38.346  12.525
67514W        W31238  22.164  27.665  10.556
67515W        W31239  28.614   1.754  12.458
67516W        W31240  33.540   6.395   3.661
67517W        W31241  22.043  30.060   3.795
67518W        W31242  22.191  36.049   5.158
67519W        W31243  30.576  25.062   2.341
67520W        W31244   8.835  39.940  13.826
67521W        W31245  31.519   4.369   4.700
67522W        W31246  19.671   1.480  11.988
67523W        W31247  18.717   3.741   0.345
67524W        W31248  11.282  14.288  11.967
67525W        W31249  16.208  33.050  14.365
67526W        W31250  22.635  37.413   2.751
67527W        W31251  25.474  41.506  11.405
67528W        W31252  27.079  25.693   0.932
67529W        W31253  12.818  12.809  10.524
67530W        W31254  32.110   0.794   1.788
67531W        W31255  44.365  23.560   0.300
67532W        W31256  35.522  39.489   3.244
67533W        W31257  22.673   1.292   1.219
67534W        W31258   6.825  13.800  12.084
67535W        W31259  22.550  18.134  14.955
67536W        W31260   7.219  38.445   3.218
67537W        W31261  33.078  15.243  13.047
67538W        W31262  16.161  39.041   0.893
67539W        W31263  26.619  38.463   0.291
67540W        W31264  40.847  27.003   2.178
67541W        W31265  40.970  25.184   1.834
67542W        W31266  19.240  41.477  12.901
67543W        W31267  12.739  32.435   1.847
67544W        W31268  44.832  41.506  11.937
67545W        W31269   2.727  29.092  13.495
67546W        W31270  16.318  21.029  14.782
67547W        W31271  12.727  13.206  11.995
67548W        W31272   8.834  12.663  10.089
67549W        W31273  27.127  12.282   2.196
67550W        W31274  17.762  23.642  14.832
67551W        W31275   8.271  35.872  12.389
67552W        W31276   4.730  34.964  11.019
67553W        W31277  27.613  17.796   3.243
67554W        W31278  40.820  37.442  10.512
67555W        W31279  40.931  30.965  14.966
67556W        W31280  16.676  22.207  13.841
67557W        W31281  29.657   6.833  14.426
67558W        W31282  41.511  20.632   3.650
67559W        W31283  25.106  10.347  14.831
67560W        W31284  13.319  29.093  12.946
67561W        W31285  18.288  26.581  10.915
67562W        W31286   9.703   1.431   0.442
67563W        W31287  31.026   0.903   5.131
67564W        W31288   4.867   1.370  12.423
67565W        W31289  43.005  18.220  10.991
67566W        W31290  27.613  43.412  12.920
67567W        W31291  43.311  18.126   2.739
67568W        W31292  29.525  33.466   4.190
67569W        W31293  23.152  28.075   4.211
67570W        W31294  12.193  39.037  12.403
67571W        W31295  42.355  38.956  12.061
67572W        W31296   5.380  18.078  13.863
67573W        W31297   9.318   5.840   4.342
67574W        W31298   5.926  13.838   0.870
67575W        W31299  27.156  21.154  13.829
67576W        W31300  42.380  15.323   3.709
67577W        W31301  43.883  37.366  10.422
67578W        W31302   2.319  36.954   4.671
67579W        W31303   6.261  15.794   3.702
67580W        W31304  39.425  44.328   2.206
67581W        W31305  23.618  17.756  14.306
67582W        W31306  38.956   0.359   1.376
67583W        W31307  21.578   1.354  13.835
67584W        W31308  19.160  32.107  12.069
67585W        W31309  41.321   0.897   1.911
67586W        W31310   9.335   7.394   1.935
67587W        W31311  26.193  28.945  10.995
67588W        W31312  40.900  39.377   4.246
67589W        W31313  21.532  13.339   9.568
67590W        W31314  43.495  13.632  14.784
67591W        W31315  29.131   9.651   2.208
67592W        W31316  10.286   3.820  10.562
67593W        W31317  10.801  41.534   2.364
67594W        W31318  39.977  18.203  14.858
67595W        W31319  14.599  34.955   9.945
67596W        W31320   8.867   5.253   3.193
67597W        W31321  32.957  13.124  14.485
67598W        W31322   7.175  25.106  11.996
67599W        W31323  15.696  23.672   2.253
67600W        W31324  32.073  38.850  11.921
67601W        W31325  37.350  27.017  14.398
67602W        W31326  21.739  37.433  10.622
67603W        W31327  36.001  43.922   1.764
67604W        W31328  37.914   6.281  11.888
67605W        W31329  20.119  19.769   0.288
67606W        W31330  39.910   5.204  14.424
67607W        W31331  12.276  21.725   3.806
67608W        W31332  26.102   1.759  13.003
67609W        W31333  10.854  13.171   3.717
67610W        W31334  26.155  28.515  14.473
67611W        W31335  29.533  36.958   3.814
67612W        W31336  29.554  18.786  11.420
67613W        W31337   4.819  16.122  14.364
67614W        W31338  26.568  44.929   4.614
67615W        W31339  13.182  34.965   1.391
67616W        W31340  37.903  27.596   2.703
67617W        W31341   5.309  23.510   0.384
67618W        W31342  42.403   3.711   1.751
67619W        W31343   1.917  13.177   4.337
67620W        W31344  37.846  12.277  11.905
67621W        W31345  40.934  18.135   3.215
67622W        W31346  15.303   2.765  12.067
67623W        W31347  22.519  19.580   5.108
67624W        W31348  25.509  39.318   1.307
67625W        W31349   0.974  18.213   3.147
67626W        W31350  30.656  43.012   2.756
67627W        W31351  21.751  33.567  12.399
67628W        W31352   3.835  18.563  10.490
67629W        W31353  19.071  24.098   0.380
67630W        W31354  21.051  20.073  12.524
67631W        W31355  41.840  10.838   1.827
67632W        W31356  22.074  36.057  13.045
67633W        W31357  38.443  27.122  14.285
67634W        W31358  12.676  36.415  14.784
67635W        W31359  42.392  24.111  14.913
67636W        W31360  37.023  27.016  14.375
67637W        W31361  17.720  24.179  10.416
67638W        W31362   4.726  44.426  13.960
67639W        W31363  41.863  38.966  14.938
67640W        W31364  18.592  30.638   4.215
67641W        W31365   5.423  42.924   0.767
67642W        W31366  38.973  12.298  13.329
67643W        W31367   7.828  32.485  12.461
67644W        W31368  36.363  16.576  10.980
67645W        W31369  20.761  13.772   5.095
67646W        W31370  34.449  10.754   4.229
67647W        W31371  42.378  30.450  14.383
67648W        W31372  11.767  37.516   4.718
67649W        W31373  18.163  13.117  11.385
67650W        W31374  32.633  40.856   0.255
67651W        W31375  33.103  42.458  14.925
67652W        W31376  11.751   2.375   2.663
67653W        W31377  43.299  12.229  10.583
67654W        W31378   6.727   9.650   9.452
67655W        W31379  23.713   3.391   2.705
67656W        W31380  32.582  40.039  13.058
67657W        W31381  44.326  28.566  10.624
67658W        W31382  12.740  39.526   2.786
67659W        W31383  19.086   7.350  11.591
67660W        W31384  36.952   8.730   2.257
67661W        W31385  34.433  30.556  11.877
67662W        W31386   1.298  22.631  14.887
67663W        W31387   4.217   8.807   1.328
67664W        W31388  24.526   5.231   2.850
67665W        W31389   7.834  29.046   0.378
67666W        W31390   2.257  38.958  12.461
67667W        W31391  36.969   4.447   4.329
67668W        W31392  11.664  20.252  10.557
67669W        W31393   8.325  22.102  12.928
67670W        W31394  14.707  14.606  12.856
67671W        W31395  41.360  16.251   0.402
67672W        W31396   5.822  22.171   4.189
67673W        W31397  15.318  35.545   3.232
67674W        W31398  28.622  42.788   3.358
67675W        W31399   0.756  28.052  14.276
67676W        W31400   0.469  22.644  14.953
67677W        W31401  18.239  36.557  11.981
67678W        W31402   1.820  17.756  13.543
67679W        W31403   3.952  35.386   0.351
67680W        W31404  21.713  15.734  13.021
67681W        W31405  16.261  35.443   1.886
67682W        W31406  34.416  21.523   0.459
67683W        W31407  19.153  42.474   1.855
67684W        W31408  21.519  20.734   3.291
67685W        W31409  41.501  36.090  12.887
67686W        W31410  44.267   2.420  14.994
67687W        W31411  36.992   1.264  14.792
67688W        W31412  37.876  22.113   3.675
67689W        W31413   5.779  30.945  14.803
67690W        W31414  31.493  39.890  11.931
67691W        W31415  13.699  19.272  11.503
67692W        W31416  13.671   5.796   2.690
67693W        W31417  39.384   6.743   4.666
67694W        W31418  21.190  11.651  14.795
67695W        W31419   5.906  34.997   2.795
67696W        W31420   1.454  34.399   1.917
67697W        W31421  20.195  24.113  14.340
67698W        W31422   8.384  27.143  12.944
67699W        W31423  21.635   5.231  12.445
67700W        W31424  13.647  35.487  10.609
67701W        W31425  40.926   0.476  13.020
67702W        W31426  15.220  29.443   1.240
67703W        W31427  21.150   3.234  13.997
67704W        W31428  30.144  38.992   4.610
67705W        W31429  21.054  33.562  10.509
67706W        W31430  18.142  39.970   3.666
67707W        W31431  17.634   6.315  10.893
67708W        W31432   9.226  43.403  11.401
67709W        W31433  35.471  33.406   1.213
67710W        W31434  42.448   5.919   3.812
67711W        W31435   5.834  19.610   4.825
67712W        W31436  22.225  40.819   3.685
67713W        W31437  10.205  37.403  14.295
67714W        W31438  21.715  36.516  10.995
67715W        W31439  43.484  33.890   1.249
67716W        W31440  37.843  24.678   4.753
67717W        W31441  21.733  43.934   3.642
67718W        W31442  41.313  42.461   3.155
67719W        W31443  29.452   5.320  12.451
67720W        W31444  18.760  42.787  12.381
67721W        W31445  20.652  38.486   5.593
67722W        W31446  36.574  25.064  14.411
67723W        W31447  31.995  25.703   4.166
67724W        W31448  40.798  31.475  11.524
67725W        W31449  35.020  13.214  11.498
67726W        W31450  14.177  25.556   0.853
67727W        W31451  19.251  11.793   2.302
67728W        W31452   1.421  18.296   4.812
67729W        W31453  39.877   7.670  10.551
67730W        W31454  25.598  22.021   3.170
67731W        W31455  18.584  28.930  14.937
67732W        W31456  14.169  44.383  14.952
67733W        W31457  39.836  27.608   2.835
67734W        W31458  18.731  42.895   2.373
67735W        W31459  39.451  13.741  10.533
67736W        W31460  11.218  26.022  12.470
67737W        W31461   4.734  23.640   5.201
67738W        W31462  38.354  11.834  11.489
67739W        W31463  18.759   1.768   3.711
67740W        W31464  39.025  29.610   4.766
67741W        W31465   1.803  12.178  14.486
67742W        W31466   4.209   5.437  12.981
67743W        W31467  43.375  21.245   2.721
67744W        W31468  12.690  20.650   2.257
67745W        W31469  17.668  12.282   3.385
67746W        W31470  25.070  34.868  10.530
67747W        W31471   7.808   1.739  11.078
67748W        W31472  25.061  32.012  12.503
67749W        W31473  16.688  28.186  11.379
67750W        W31474  20.190  19.561   1.927
67751W        W31475  18.773  30.589   0.260
67752W        W31476   5.374  40.048  10.620
67753W        W31477  17.636   8.675   2.192
67754W        W31478  24.000  14.764   4.725
67755W        W31479  11.306  35.945  14.961
67756W        W31480   6.410  22.551  12.512
67757W        W31481  15.803  20.729  10.926
67758W        W31482   7.822   1.478  10.506
67759W        W31483  31.596  12.295   3.231
67760W        W31484  33.022  40.469   4.772
67761W        W31485   9.836  37.869   2.672
67762W        W31486  10.338  36.080   4.811
67763W        W31487  34.022  29.663  11.417
67764W        W31488  42.340  32.889  11.553
67765W        W31489  10.381  28.007   4.275
67766W        W31490  29.975  23.615   4.613
67767W        W31491  41.966  25.110   4.137
67768W        W31492   8.171   0.281   3.168
67769W        W31493  18.676  40.958  13.355
67770W        W31494  28.090  34.596   0.356
67771W        W31495  41.348  22.191   0.792
67772W        W31496   8.654   8.774   4.269
67773W        W31497   5.791   0.373  13.507
67774W        W31498  18.071  39.907   1.762
67775W        W31499  44.872   8.674   4.349
67776W        W31500  43.960  12.123  11.863
67777W        W31501  23.069  41.531   3.381
67778W        W31502   9.277  37.348  11.125
67779W        W31503  32.454  26.555  10.159
67780W        W31504   8.758  34.989  13.397
67781W        W31505  22.076  22.735  13.367
67782W        W31506  25.209   5.238  13.803
67783W        W31507  20.274  26.018   2.247
67784W        W31508  24.146  16.781  14.016
67785W        W31509  42.425  12.845  12.371
67786W        W31510  18.167  12.644  14.431
67787W        W31511   1.830  26.491   1.851
67788W        W31512  37.398  11.367  13.810
67789W        W31513  30.959  24.985  14.022
67790W        W31514  13.733  14.729  13.032
67791W        W31515  14.234  30.153  12.060
67792W        W31516  13.219  42.026  14.940
67793W        W31517  39.402  25.587  11.112
67794W        W31518  26.170   9.863   1.929
67795W        W31519  28.180  40.052   3.186
67796W        W31520  19.738   0.960  10.498
67797W        W31521  37.449  27.619   1.340
67798W        W31522  19.629  26.508   1.814
67799W        W31523   0.923  38.917   0.747
67800W        W31524  23.684   1.917   1.933
67801W        W31525  25.641  26.197   2.238
67802W        W31526   5.369  43.501   0.449
67803W        W31527  44.859  29.115   4.159
67804W        W31528  29.085   1.796   2.215
67805W        W31529  11.648  33.088   0.380
67806W        W31530   9.863  27.566  11.559
67807W        W31531  13.609  18.080  13.457
67808W        W31532  21.743   9.234   4.827
67809W        W31533   7.714  36.860   3.756
67810W        W31534  14.611   6.394   3.747
67811W        W31535  38.945  24.677  14.371
67812W        W31536  36.520  27.006   4.726
67813W        W31537   2.871   5.312   0.761
67814W        W31538  18.618  40.038  14.423
67815W        W31539  28.953  15.320   0.868
67816W        W31540   7.324  34.599  11.084
67817W        W31541   6.329   5.921  14.354
67818W        W31542   8.372  25.094  14.384
67819W        W31543  11.301   9.656   4.208
67820W        W31544  39.443  40.451   5.176
67821W        W31545  33.980   6.360   3.386
67822W        W31546  42.901  21.601  10.640
67823W        W31547  22.562  37.955   0.452
67824W        W31548  13.186  40.388  10.621
67825W        W31549  15.159  15.178  14.389
67826W        W31550  31.109   2.925  14.001
67827W        W31551  16.730  14.335  12.073
67828W        W31552  44.333  40.828   0.358
67829W        W31553  25.541  39.478  11.556
67830W        W31554  18.092  29.008   0.865
67831W        W31555  11.214   3.272   4.692
67832W        W31556  13.217  27.170   3.773
67833W        W31557   2.965  17.652   1.926
67834W        W31558   2.425  17.594   3.813
67835W        W31559  34.377  10.274  12.372
67836W        W31560  38.475  16.301   3.290
67837W        W31561  30.101  13.787   3.697
67838W        W31562  34.950  39.337   2.413
67839W        W31563   2.278  38.921  14.383
67840W        W31564  22.500  42.829   5.198
67841W        W31565  40.843  35.434  11.946
67842W        W31566   4.450   8.800   2.241
67843W        W31567   2.951  18.296  10.947
67844W        W31568   0.776  16.749  10.544
67845W        W31569  10.245   5.807  12.982
67846W        W31570   6.409  33.921   0.878
67847W        W31571  18.125   8.671   1.761
67848W        W31572  37.975  11.677   2.294
67849W        W31573   5.406   3.369   3.386
67850W        W31574  37.952  40.417   0.900
67851W        W31575  43.998  18.121  12.397
67852W        W31576  16.314  30.657  10.618
67853W        W31577  12.674   0.418   1.415
67854W        W31578  40.451   1.976   1.861
67855W        W31579  26.579  44.432  14.844
67856W        W31580  26.677  43.838  13.813
67857W        W31581  20.196  20.242  12.521
67858W        W31582  17.780   4.390   0.844
67859W        W31583  33.051  37.404   2.771
67860W        W31584  28.085  21.603   2.334
67861W        W31585  24.017  23.517   1.292
67862W        W31586  11.222  30.435   0.766
67863W        W31587   7.846  39.834   1.370
67864W        W31588  14.126  22.516   2.262
67865W        W31589  22.067   1.913   3.294
67866W        W31590  42.778  15.797   3.167
67867W        W31591  26.071  18.593  12.961
67868W        W31592  27.502  21.548  12.976
67869W        W31593  19.740   3.250   5.261
67870W        W31594  37.889  40.847   0.330
67871W        W31595  42.992  27.070   4.301
67872W        W31596  29.039   8.231  12.866
67873W        W31597  22.641  40.984  10.096
67874W        W31598  17.699  16.306   2.204
67875W        W31599  22.525  22.236  13.048
67876W        W31600  19.279  30.561   3.800
67877W        W31601  29.094  24.999   0.950
67878W        W31602  17.755  36.058   2.698
67879W        W31603  17.143  17.210  12.041
67880W        W31604   9.770  44.768  13.363
67881W        W31605  19.773   4.830  11.991
67882W        W31606  41.962  26.611   2.317
67883W        W31607  25.661   8.766   0.399
67884W        W31608  31.581  38.477  12.348
67885W        W31609   2.295  12.307  12.551
67886W        W31610  44.476  17.245   1.785
67887W        W31611  41.447  20.247  12.997
67888W        W31612   2.924  40.973  11.010
67889W        W31613  17.289  16.146  13.523
67890W        W31614  39.464  41.963   4.352
67891W        W31615   8.809  16.074  13.414
67892W        W31616  21.062   9.775  13.791
67893W        W31617  25.125  37.895   1.927
67894W        W31618  32.005  26.135  12.449
67895W        W31619   3.436  34.526  13.990
67896W        W31620  15.305  10.260   2.198
67897W        W31621   1.391  24.636  10.506
67898W        W31622  11.760  25.060  10.514
67899W        W31623  27.646  40.473  12.851
67900W        W31624  44.411  40.536   4.699
67901W        W31625  35.488  29.030  11.997
67902W        W31626   7.859   4.927   4.289
67903W        W31627  22.535  43.277   0.313
67904W        W31628  24.581  33.100   1.749
67905W        W31629   7.353   0.788   2.889
67906W        W31630  44.985  43.501  14.915
67907W        W31631  20.247  36.409   3.167
67908W        W31632   1.364  32.906  11.578
67909W        W31633  14.768  22.151   3.145
67910W        W31634  29.505  22.231   2.718
67911W        W31635  17.088  35.921  12.537
67912W        W31636  22.558  14.703  14.511
67913W        W31637  41.484   1.826  12.845
67914W        W31638  26.023  37.839   0.863
67915W        W31639   3.430  29.986   4.235
67916W        W31640  27.046   2.383   3.842
67917W        W31641  12.330  32.423  14.487
67918W        W31642  38.037   6.794  14.777
67919W        W31643  31.069  27.155  11.027
67920W        W31644  18.181  32.393  14.353
67921W        W31645  41.423   9.218  12.563
67922W        W31646  19.542  32.035   3.230
67923W        W31647  16.780  33.066   0.370
67924W        W31648  44.422  14.699   2.272
67925W        W31649  10.351  31.463   3.224
67926W        W31650  28.009  18.059  11.925
67927W        W31651  33.470   0.256  13.815
67928W        W31652  22.722   0.885   0.791
67929W        W31653   7.172   3.220   4.149
67930W        W31654  37.371  10.218  10.409
67931W        W31655  40.362  29.663  10.628
67932W        W31656   5.891  20.195   1.404
67933W        W31657   5.754   4.847  10.134
67934W        W31658   2.312  21.210  13.908
67935W        W31659  33.535  40.456   2.200
67936W        W31660   0.431  29.449   3.335
67937W        W31661   5.290  19.139   3.298
67938W        W31662  19.137  21.547   1.417
67939W        W31663  33.577  31.128   3.348
67940W        W31664   8.687  44.921  11.576
67941W        W31665   4.251  21.099   2.672
67942W        W31666  26.467  34.398   1.223
67943W        W31667   2.909  37.974   1.730
67944W        W31668   0.324  15.649   1.883
67945W        W31669  39.450  32.406   1.284
67946W        W31670  43.893  38.361   4.230
67947W        W31671  15.600  26.674  14.924
67948W        W31672  10.826   1.789  13.864
67949W        W31673  28.607  28.559   4.835
67950W        W31674  31.542  28.444   1.282
67951W        W31675  19.092  39.057  12.949
67952W        W31676   6.194  11.351  13.524
67953W        W31677  40.411  21.557  12.967
67954W        W31678  16.086  12.270  12.970
67955W        W31679  33.473  17.258  14.977
67956W        W31680  17.614  39.520  14.964
67957W        W31681  22.533  22.582   1.766
67958W        W31682  13.798  42.904  10.979
67959W        W31683  17.094   6.761   0.953
67960W        W31684   7.755  15.282   4.708
67961W        W31685  41.436  43.510   4.218
67962W        W31686  30.598  24.623   2.696
67963W        W31687  31.145   6.760   1.726
67964W        W31688  39.011  40.878   2.255
67965W        W31689  31.575  10.205  14.480
67966W        W31690  37.894  37.559  10.982
67967W        W31691   4.928  16.305  14.984
67968W        W31692  14.823  27.530  11.515
67969W        W31693  19.618  16.571   5.724
67970W        W31694  35.100  18.744   5.242
67971W        W31695  44.811  11.206  14.423
67972W        W31696  43.288  44.970   1.935
67973W        W31697   6.768  10.351  10.444
67974W        W31698   6.908  34.410   0.873
67975W        W31699  19.648   1.332   3.370
67976W        W31700   3.337   3.356   1.924
67977W        W31701   8.724  34.549  10.408
67978W        W31702   5.401  16.296  13.054
67979W        W31703   5.931   1.889   3.318
67980W        W31704  37.352  41.883  14.408
67981W        W31705  16.268   6.371  13.442
67982W        W31706  42.858  41.527   0.474
67983W        W31707  42.800   1.767  11.931
67984W        W31708  41.410  13.200   1.237
67985W        W31709  40.994   7.338   1.233
67986W        W31710  39.859  12.783   2.229
67987W        W31711   8.864  43.276  11.390
67988W        W31712  40.895  21.229   1.360
67989W        W31713  29.034  30.574   2.224
67990W        W31714  31.947  33.494  11.509
67991W        W31715  33.065  12.183   0.909
67992W        W31716  15.638  35.911   0.922
67993W        W31717  41.294  22.605  11.569
67994W        W31718   5.208  40.397  10.978
67995W        W31719  38.352  41.838  14.402
67996W        W31720  36.932  30.917   0.429
67997W        W31721  29.957  10.168  13.964
67998W        W31722  35.906  32.886   1.346
67999W        W31723  14.597   0.328   2.237
68000W        W31724  11.295   7.737   3.332
68001W        W31725  28.471  41.397   4.706
68002W        W31726  15.218   5.397   2.316
68003W        W31727   6.812  16.710  10.590
68004W        W31728  14.604   2.852  11.964
68005W        W31729  11.772  32.535  11.434
68006W        W31730  38.364  44.925   4.650
68007W        W31731  27.614  40.966   2.267
68008W        W31732  22.221  23.232  10.914
68009W        W31733   8.329   4.231   3.800
68010W        W31734  39.424  43.352  13.975
68011W        W31735  36.948  40.031  13.311
68012W        W31736   8.180  44.930  13.504
68013W        W31737  27.165  27.667  10.025
68014W        W31738   5.795  23.209   2.716
68015W        W31739  13.649  24.203  13.506
68016W        W31740  28.591  14.647  14.866
68017W        W31741  26.103  24.185   4.751
68018W        W31742   6.419  27.528   2.845
68019W        W31743  16.210  40.458   2.773
68020W        W31744  17.725  15.619   4.194
68021W        W31745  31.106  27.689   2.897
68022W        W31746  39.447  23.233  14.924
68023W        W31747   9.192  34.905   4.804
68024W        W31748   7.827  39.369  10.555
68025W        W31749  26.638  32.557  10.905
68026W        W31750  41.932  23.160   3.837
68027W        W31751  27.135  32.601  11.443
68028W        W31752  13.749  33.045   3.194
68029W        W31753   9.362  26.565   3.856
68030W        W31754  33.125  12.178   1.243
68031W        W31755  39.915   3.327   2.828
68032W        W31756  40.013  22.734  14.884
68033W        W31757  35.928  27.983  11.907
68034W        W31758  26.078  42.989  14.412
68035W        W31759  44.487   1.303   3.310
68036W        W31760  22.050  16.271  12.825
68037W        W31761  20.688   9.746  14.407
68038W        W31762  35.463  38.412  13.990
68039W        W31763  35.946   1.458  12.871
68040W        W31764  28.668  31.103  10.604
68041W        W31765   8.831  29.449   1.250
68042W        W31766   9.388  38.527  12.960
68043W        W31767  37.347   8.886   4.222
68044W        W31768  36.523  41.032  13.964
68045W        W31769  31.994  12.333   2.842
68046W        W31770  27.537  18.655  10.557
68047W        W31771  25.079  37.568   3.192
68048W        W31772   3.813  37.984   0.369
68049W        W31773  38.043  16.202  11.612
68050W        W31774  20.229  35.407   1.801
68051W        W31775  34.489  13.793  12.483
68052W        W31776  10.361  34.485   2.773
68053W        W31777  16.155  29.549   0.751
68054W        W31778  36.478   8.721   3.153
68055W        W31779   7.730  42.009   0.306
68056W        W31780  28.671  16.796  14.334
68057W        W31781  11.789  23.184  11.604
68058W        W31782  21.527  40.035   0.399
68059W        W31783  11.235  29.636   3.788
68060W        W31784   4.844  13.703   2.670
68061W        W31785   8.675   4.905  14.995
68062W        W31786  22.043  38.431  14.779
68063W        W31787  28.583  25.660   4.229
68064W        W31788  26.127  43.954  13.331
68065W        W31789  14.588  19.171  11.098
68066W        W31790  39.412  26.066   4.180
68067W        W31791  25.494   4.825  12.026
68068W        W31792  28.673  14.277  11.017
68069W        W31793   4.745  31.950  10.586
68070W        W31794  43.516   9.276   1.331
68071W        W31795  18.599  16.692   0.822
68072W        W31796  36.549  31.023   1.388
68073W        W31797   0.759  42.325  13.513
68074W        W31798  35.101  26.958  13.859
68075W        W31799  36.065  36.446  11.036
68076W        W31800  10.158  15.614  11.990
68077W        W31801  27.451   8.300   2.191
68078W        W31802  39.954  41.829  10.413
68079W        W31803  11.149  32.551   2.348
68080W        W31804  20.745   1.818  11.946
68081W        W31805  14.712  30.537  10.546
68082W        W31806   1.913  35.412  13.522
68083W        W31807  40.857  39.038   4.347
68084W        W31808  38.854  13.665  10.604
68085W        W31809  10.279  28.498   4.784
68086W        W31810  14.287  33.926  11.482
68087W        W31811  17.796   0.413   2.748
68088W        W31812   4.800  21.082  11.953
68089W        W31813   3.299  23.590   3.251
68090W        W31814  10.328  31.604   2.767
68091W        W31815  36.472  18.555   2.751
68092W        W31816  29.431   1.312  11.862
68093W        W31817  14.290  25.571  14.987
68094W        W31818  21.210   5.743  13.006
68095W        W31819  37.400   6.765  14.335
68096W        W31820   3.310   3.359   1.256
68097W        W31821  43.967  14.193   2.229
68098W        W31822  31.630  39.410  11.919
68099W        W31823  37.447   8.658  14.276
68100W        W31824  43.787  43.968   2.288
68101W        W31825  26.658   0.931   3.158
68102W        W31826  22.063  31.621  10.957
68103W        W31827  29.661  29.551   2.359
68104W        W31828  22.647  40.509  13.508
68105W        W31829  27.145  43.489   1.793
68106W        W31830   1.962  32.427  12.956
68107W        W31831   4.236  27.641  13.049
68108W        W31832   7.387  19.629  11.380
68109W        W31833  32.393  36.546  13.330
68110W        W31834  18.766  34.056   4.162
68111W        W31835  31.948   9.831   3.219
68112W        W31836  29.041   2.950   1.925
68113W        W31837  32.080  38.955   1.798
68114W        W31838   1.923  27.086  11.944
68115W        W31839  26.085  29.514  13.960
68116W        W31840  31.022  44.349  11.609
68117W        W31841  33.403  30.477  12.034
68118W        W31842  20.628  11.292  14.827
68119W        W31843  31.013  17.731  12.453
68120W        W31844  40.437  28.483   2.400
68121W        W31845  11.243  36.582   0.278
68122W        W31846   7.728  36.455  14.965
68123W        W31847  29.559  31.076  13.452
68124W        W31848  34.407  17.256  10.142
68125W        W31849  41.994  14.305   4.268
68126W        W31850  28.982   2.451   4.286
68127W        W31851  37.951   7.196   4.665
68128W        W31852  17.185  33.536   0.422
68129W        W31853  15.115   9.290   2.205
68130W        W31854  42.516  39.836   1.276
68131W        W31855  14.803  14.818   1.803
68132W        W31856  13.229  21.141  14.956
68133W        W31857  14.763  39.015  10.935
68134W        W31858  30.539  38.391   4.322
68135W        W31859  20.752  44.451   0.421
68136W        W31860   6.222  25.700   4.232
68137W        W31861  31.427  38.340  11.975
68138W        W31862  43.806  38.994   1.895
68139W        W31863  24.682  17.660   1.723
68140W        W31864  34.557   8.163  12.514
68141W        W31865   5.277  33.066  13.897
68142W        W31866  44.965  43.000  10.933
68143W        W31867  41.949   5.217   4.138
68144W        W31868  21.240  18.092   4.796
68145W        W31869  24.652  40.840   0.398
68146W        W31870  19.282   1.315  12.063
68147W        W31871  30.000  39.552   2.306
68148W        W31872  16.651   1.320  11.967
68149W        W31873  17.676  24.985   0.401
68150W        W31874  44.485  27.662   0.938
68151W        W31875  30.595  32.951  11.505
68152W        W31876  25.649   3.376   4.322
68153W        W31877  15.189  24.082  11.377
68154W        W31878  24.120  32.616   4.766
68155W        W31879  31.595  30.497   2.882
68156W        W31880  36.901  12.745  13.906
68157W        W31881  17.653  43.278   1.340
68158W        W31882  28.637  30.962  14.326
68159W        W31883  14.237  37.909  12.401
68160W        W31884  38.930  42.893  14.498
68161W        W31885  38.065  43.385  13.926
68162W        W31886  20.167   3.330  11.593
68163W        W31887   7.253  38.535  12.491
68164W        W31888  23.503   6.756  11.580
68165W        W31889  11.229   9.800   3.262
68166W        W31890  44.817  34.523   4.626
68167W        W31891   5.211   2.932  13.520
68168W        W31892  12.623  32.434  13.359
68169W        W31893  15.716  27.001  10.439
68170W        W31894  33.587  25.016   9.921
68171W        W31895  42.404   0.438  11.969
68172W        W31896  16.282   8.348   3.857
68173W        W31897  17.695  21.131  10.903
68174W        W31898  29.602   8.406   5.130
68175W        W31899  11.652  41.484  12.925
68176W        W31900   2.401  29.624  14.807
68177W        W31901  40.902  29.953  12.509
68178W        W31902  28.106   1.805  10.487
68179W        W31903  22.078  26.681  12.028
68180W        W31904  17.088   2.467   1.882
68181W        W31905  41.525  22.725   3.682
68182W        W31906  29.485   6.763  12.529
68183W        W31907  20.106  20.095   3.798
68184W        W31908  43.822  21.661   4.803
68185W        W31909  41.850  21.565   2.400
68186W        W31910  21.633  40.506   3.762
68187W        W31911   3.942  27.968   4.198
68188W        W31912  13.826  17.089   2.401
68189W        W31913  39.001  38.408   2.694
68190W        W31914  44.278   8.877  14.835
68191W        W31915  37.857  12.190   4.743
68192W        W31916   9.671  40.453   0.421
68193W        W31917  43.438  37.023  13.829
68194W        W31918  34.982  26.677   1.905
68195W        W31919  15.580  42.832   1.391
68196W        W31920   9.220  26.009  13.371
68197W        W31921  14.670  42.010   4.752
68198W        W31922   1.348  36.558   2.898
68199W        W31923   4.218  34.093   1.438
68200W        W31924  42.940  36.366  10.960
68201W        W31925  43.856   7.293   1.803
68202W        W31926   1.378  31.416   3.358
68203W        W31927  33.429  13.604   1.232
68204W        W31928  33.910  16.248   4.204
68205W        W31929  41.955  12.760  12.935
68206W        W31930  27.138   8.809  14.022
68207W        W31931  38.002   5.740   0.874
68208W        W31932  20.565  25.624  12.471
68209W        W31933  28.455  20.264   1.299
68210W        W31934  24.663  32.115  11.939
68211W        W31935   3.804  18.294  12.961
68212W        W31936  11.237  28.449   2.817
68213W        W31937  42.893  31.903   0.396
68214W        W31938  20.148  37.874  11.091
68215W        W31939  36.847   2.433   0.835
68216W        W31940  31.572  17.635   1.247
68217W        W31941   0.882  30.146  12.932
68218W        W31942  34.386   4.403  11.859
68219W        W31943   3.418  14.134  12.491
68220W        W31944  29.918   1.932  14.429
68221W        W31945   4.448  33.965   2.736
68222W        W31946  12.768  16.623  14.346
68223W        W31947  28.163   0.963   4.693
68224W        W31948  26.578  38.869   3.282
68225W        W31949  29.516  23.541   0.747
68226W        W31950  36.508   4.287   4.681
68227W        W31951  35.397  18.617  10.489
68228W        W31952  25.709   3.435   9.953
68229W        W31953  21.514  10.809   1.271
68230W        W31954  31.974  44.311   2.332
68231W        W31955  11.145  11.710   0.771
68232W        W31956  26.490   8.255   2.209
68233W        W31957  19.206  36.574  11.935
68234W        W31958  13.679  19.602   0.790
68235W        W31959  10.365  11.255   3.799
68236W        W31960   1.921   6.275   0.901
68237W        W31961  28.970  36.097  12.053
68238W        W31962  34.092  12.782   1.436
68239W        W31963   2.908  22.039   4.318
68240W        W31964   9.380  34.596  13.423
68241W        W31965   9.722  34.488  13.443
68242W        W31966  39.977  15.243   0.478
68243W        W31967  36.485  27.976  11.544
68244W        W31968   4.744  44.805  13.805
68245W        W31969  21.206  19.561   4.125
68246W        W31970  44.411   1.296  13.536
68247W        W31971  18.566  15.756  14.779
68248W        W31972  32.008  20.185  10.553
68249W        W31973  23.096   1.371   3.302
68250W        W31974  39.469  39.808   3.220
68251W        W31975  38.556  26.677   3.219
68252W        W31976  17.283  14.622   1.916
68253W        W31977  36.425  18.085   1.261
68254W        W31978  11.158  12.238  10.495
68255W        W31979  11.831  37.417   1.440
68256W        W31980  15.234   4.852   2.309
68257W        W31981  14.320  31.065   0.475
68258W        W31982  13.764   9.813   0.805
68259W        W31983  35.594  35.012   1.816
68260W        W31984  24.621  39.053  14.398
68261W        W31985   0.314  43.424   4.631
68262W        W31986  36.075  44.318   3.753
68263W        W31987  27.977  14.288   4.247
68264W        W31988  31.553  12.134   4.136
68265W        W31989  18.232  36.999  13.503
68266W        W31990   9.736  43.775   0.926
68267W        W31991  22.144  19.605   1.777
68268W        W31992   1.347  22.043   4.781
68269W        W31993   7.866   4.936   4.759
68270W        W31994   0.872  26.955   1.242
68271W        W31995  35.582   9.804   2.762
68272W        W31996  43.442  24.638   2.247
68273W        W31997  27.462  32.424  12.860
68274W        W31998  23.241   4.763  11.962
68275W        W31999  27.945  38.888   0.959
68276W        W32000  27.115  20.644   0.480
68277W        W32001  28.652  41.370   2.870
68278W        W32002  23.014  26.019  12.849
68279W        W32003  33.457  36.978  12.470
68280W        W32004  30.087  41.015  12.546
68281W        W32005  34.016  20.688  10.629
68282W        W32006   6.296  27.026   3.653
68283W        W32007  32.112  35.568   0.850
68284W        W32008  30.035  30.951   3.229
68285W        W32009  27.588   3.736  13.533
68286W        W32010   3.783  39.445   1.820
68287W        W32011  44.470  18.593   4.346
68288W        W32012  39.462  22.045   4.598
68289W        W32013  20.234  33.953  11.068
68290W        W32014  17.063  33.431  11.106
68291W        W32015  10.156   9.216   2.208
68292W        W32016  20.575  15.677  12.026
68293W        W32017   1.280   8.273  10.471
68294W        W32018  17.793  18.113   3.150
68295W        W32019  37.894   8.859   0.428
68296W        W32020   8.246  41.520   3.208
68297W        W32021  11.363   9.652   1.266
68298W        W32022  13.147  27.034   2.902
68299W        W32023  17.122   1.922  10.999
68300W        W32024  11.699  18.699   3.319
68301W        W32025  36.392  29.115  10.931
68302W        W32026  28.990  37.378   2.674
68303W        W32027  18.272   3.454  11.591
68304W        W32028  23.182  34.420   1.888
68305W        W32029  13.318  21.588  14.412
68306W        W32030  17.798  43.004   4.701
68307W        W32031   0.969  21.567  12.874
68308W        W32032   8.283  40.025   2.298
68309W        W32033   7.717  14.645   9.631
68310W        W32034  43.910  30.497  10.467
68311W        W32035  13.210  41.823  10.608
68312W        W32036  14.598  28.142  10.620
68313W        W32037  35.517  38.050   2.777
68314W        W32038  19.587  40.853  13.009
68315W        W32039  38.960  30.492   3.836
68316W        W32040   7.881  35.056   3.231
68317W        W32041  17.582   7.678  12.033
68318W        W32042  26.463   2.256  13.395
68319W        W32043  32.952  37.911   3.193
68320W        W32044  34.099  23.715  10.904
68321W        W32045  36.417  22.585  11.582
68322W        W32046  44.778  26.683  12.911
68323W        W32047  31.516  37.029   4.822
68324W        W32048  35.912  36.348   4.270
68325W        W32049   5.743   9.274   1.820
68326W        W32050  37.942  23.997  12.848
68327W        W32051  22.030  22.177  14.773
68328W        W32052   3.391  13.127  13.491
68329W        W32053   5.876  33.594   1.873
68330W        W32054  18.548  23.512   3.728
68331W        W32055  43.891  23.568   0.766
68332W        W32056   5.724  43.487  12.084
68333W        W32057  38.900  13.155  14.947
68334W        W32058  33.011  21.571  11.484
68335W        W32059  10.153  31.010  11.582
68336W        W32060  25.189   6.228  12.446
68337W        W32061  20.080  12.309  12.461
68338W        W32062   8.219  25.491   1.789
68339W        W32063  23.649  20.265  11.081
68340W        W32064  25.020  12.634  14.790
68341W        W32065  22.628  12.681   0.376
68342W        W32066  12.355  31.616  11.907
68343W        W32067  20.752  36.010  10.611
68344W        W32068  18.227   7.878  13.407
68345W        W32069  26.653  42.911  12.830
68346W        W32070  40.518  36.526  13.798
68347W        W32071  20.580  21.589   1.340
68348W        W32072  42.787  42.896  11.424
68349W        W32073  28.652  10.225   4.284
68350W        W32074  22.189  38.832   0.925
68351W        W32075  42.994  25.118  14.277
68352W        W32076  34.501  39.391   1.697
68353W        W32077  13.285   9.660   3.782
68354W        W32078  11.149  44.963  14.774
68355W        W32079  39.005  31.484  13.364
68356W        W32080  24.721  19.180  14.504
68357W        W32081  14.686   6.374  14.336
68358W        W32082  21.253  44.279  11.587
68359W        W32083  33.553  38.507  11.905
68360W        W32084   6.241   3.323  10.643
68361W        W32085   2.427  33.880  14.017
68362W        W32086  16.240  23.650   1.380
68363W        W32087  36.505  32.049   4.768
68364W        W32088  15.606  25.048  13.324
68365W        W32089  12.357   3.756  13.044
68366W        W32090  40.485  39.022   3.636
68367W        W32091   6.874  31.950  12.824
68368W        W32092  41.846  10.801  14.870
68369W        W32093  12.684  11.660  11.919
68370W        W32094  31.566  21.027   4.696
68371W        W32095  41.818   3.313  10.003
68372W        W32096  20.523  40.797   1.334
68373W        W32097  35.581  14.262  13.421
68374W        W32098  43.848  44.832   1.253
68375W        W32099  15.764   9.391  13.938
68376W        W32100  19.753  10.688   3.283
68377W        W32101  32.066  10.872  14.801
68378W        W32102   9.198  20.094   4.680
68379W        W32103  19.256  13.301   0.384
68380W        W32104   9.284  26.099   2.859
68381W        W32105  41.035  40.886   0.736
68382W        W32106   1.930  23.070  11.058
68383W        W32107  30.497  38.011  11.587
68384W        W32108   9.381   1.240   1.380
68385W        W32109  38.838   1.834   1.774
68386W        W32110  16.789  31.937   3.357
68387W        W32111  22.179  11.687   4.610
68388W        W32112  21.520  18.170  13.420
68389W        W32113  17.737  44.000  12.861
68390W        W32114   9.244  40.434  13.540
68391W        W32115  25.514  24.546   3.833
68392W        W32116  14.597  25.201   1.385
68393W        W32117  15.592  40.936   0.419
68394W        W32118  33.875  42.800   2.679
68395W        W32119  42.293  40.314  14.861
68396W        W32120   8.663  31.063   4.722
68397W        W32121  28.022  14.288  12.988
68398W        W32122  41.963  31.531   0.933
68399W        W32123  41.318  21.177  13.012
68400W        W32124   7.823  43.479   0.455
68401W        W32125  36.027  30.053   4.717
68402W        W32126  43.012  15.648   4.295
68403W        W32127  42.932  37.445  13.807
68404W        W32128  17.800   7.342   0.420
68405W        W32129  11.297   6.422   3.724
68406W        W32130  13.806  43.317   3.744
68407W        W32131  29.000  18.235   0.254
68408W        W32132  14.163  10.864  13.946
68409W        W32133  42.900  31.425   4.276
68410W        W32134  26.152  34.929  13.447
68411W        W32135  24.227   4.264   3.734
68412W        W32136  14.819  22.247  14.406
68413W        W32137  20.135  17.212  14.760
68414W        W32138  44.370  40.385   1.321
68415W        W32139  13.757   1.870   2.411
68416W        W32140  12.747  36.918   1.214
68417W        W32141  19.272   2.408   4.632
68418W        W32142   4.439  36.374  13.436
68419W        W32143   2.898   7.256  12.972
68420W        W32144   2.829   4.338  12.408
68421W        W32145  35.900   9.361  13.426
68422W        W32146  44.474  26.592  14.327
68423W        W32147  24.585  23.036  10.950
68424W        W32148  41.481   3.828   2.285
68425W        W32149  20.699   8.882  11.574
68426W        W32150  18.702  12.661   3.784
68427W        W32151   6.800  26.051   0.783
68428W        W32152  29.061  16.791  12.042
68429W        W32153   0.983   4.867  10.159
68430W        W32154  18.221   8.898   2.411
68431W        W32155  22.022   2.791   3.694
68432W        W32156  27.032  22.052  11.060
68433W        W32157  16.273  30.025   2.674
68434W        W32158  36.387  34.603  10.535
68435W        W32159  37.937  17.264  11.588
68436W        W32160  25.681  20.050  14.981
68437W        W32161  33.537  32.437   2.245
68438W        W32162  19.141  13.843   9.472
68439W        W32163  27.992  24.067  11.959
68440W        W32164  14.660   9.784  12.955
68441W        W32165  43.435  23.689  11.419
68442W        W32166   3.872   6.873  12.874
68443W        W32167  18.666  28.634  10.442
68444W        W32168  21.111  35.504  14.454
68445W        W32169  38.966  33.061   0.820
68446W        W32170  40.393  11.128   4.144
68447W        W32171  28.454  18.185  14.509
68448W        W32172   3.404  19.571  13.417
68449W        W32173  27.020   1.425  11.017
68450W        W32174  22.248  23.577  10.628
68451W        W32175  34.036  32.053  10.533
68452W        W32176  33.112   3.324  11.958
68453W        W32177  39.949  18.555   0.832
68454W        W32178  34.896  20.103   1.309
68455W        W32179  19.112  20.538   2.722
68456W        W32180   3.450   5.753   1.750
68457W        W32181  17.744  40.339   0.251
68458W        W32182  11.216   6.780  12.356
68459W        W32183  37.927  23.132  14.880
68460W        W32184  37.996  29.972  14.450
68461W        W32185  42.864   0.408  10.629
68462W        W32186  19.548  29.649  14.496
68463W        W32187  36.568  33.106   3.322
68464W        W32188  31.152  18.235  11.601
68465W        W32189  32.116   5.250  12.466
68466W        W32190  40.843   2.848   1.241
68467W        W32191  32.128  18.626  13.548
68468W        W32192  14.324   8.716   0.749
68469W        W32193  35.545   7.831   0.480
68470W        W32194   1.481   7.361   2.740
68471W        W32195   8.310  16.737  13.796
68472W        W32196  14.278  22.581  12.960
68473W        W32197   3.216  41.790   1.231
68474W        W32198  36.989  16.779  12.396
68475W        W32199  28.104  39.394  12.972
68476W        W32200  18.274  31.094  11.609
68477W        W32201  10.154  15.694   2.183
68478W        W32202   2.427  11.356   1.415
68479W        W32203  44.426  29.491  11.434
68480W        W32204  25.036  19.134   2.184
68481W        W32205  41.383  26.058   0.382
68482W        W32206  27.167   1.274   1.391
68483W        W32207  37.475  18.736   2.756
68484W        W32208  25.568  30.563  13.005
68485W        W32209  38.056  22.010  12.533
68486W        W32210  29.568  24.482  11.985
68487W        W32211   5.894  28.581  12.358
68488W        W32212  15.660   6.766   0.876
68489W        W32213   9.723  16.183  13.831
68490W        W32214   3.440  27.470  10.597
68491W        W32215  38.406  10.741  11.864
68492W        W32216  34.982  19.752   3.181
68493W        W32217  44.982  24.682   3.365
68494W        W32218  11.837  13.758   4.281
68495W        W32219   9.197  30.509  12.349
68496W        W32220  17.172  44.849   0.769
68497W        W32221  28.555  42.321  14.987
68498W        W32222  42.409  37.343   2.879
68499W        W32223  27.688  37.362  10.592
68500W        W32224   4.333  37.365  10.076
68501W        W32225   6.315  13.729   1.375
68502W        W32226  18.092  18.279   0.783
68503W        W32227  34.575  16.205  11.427
68504W        W32228  14.625   3.251  11.879
68505W        W32229  30.475  13.260   0.261
68506W        W32230  39.895  26.585   3.254
68507W        W32231  37.995  17.097  10.424
68508W        W32232   8.755  23.720   2.231
68509W        W32233  43.430   1.240   1.756
68510W        W32234  25.620   4.817   4.703
68511W        W32235   4.328  11.240  12.359
68512W        W32236  40.336  19.268  13.839
68513W        W32237  39.916  13.828  11.447
68514W        W32238  26.122   2.949   4.735
68515W        W32239  27.945  39.852   2.413
68516W        W32240  39.520  27.489   2.216
68517W        W32241  27.539  24.650  12.949
68518W        W32242   6.772  17.781  13.823
68519W        W32243  18.056  21.582   0.352
68520W        W32244  34.089  30.995  13.425
68521W        W32245  17.673  27.526   3.818
68522W        W32246  36.592  43.467   3.255
68523W        W32247   0.825  20.108   2.404
68524W        W32248  12.155   8.209   3.356
68525W        W32249  21.569  28.460   5.580
68526W        W32250  43.437   2.371   3.229
68527W        W32251  24.712   0.475   3.278
68528W        W32252  37.366  40.356  14.822
68529W        W32253  31.087   3.867   1.293
68530W        W32254  41.363   5.800   1.801
68531W        W32255  25.561  40.934   4.773
68532W        W32256   7.195   1.419  12.422
68533W        W32257  23.543   4.212  11.503
68534W        W32258  38.534  32.887  13.064
68535W        W32259  29.992  28.973   4.163
68536W        W32260  25.138  17.214  14.906
68537W        W32261  11.669  25.513  12.512
68538W        W32262  33.931  12.777  12.048
68539W        W32263  24.184  10.278   5.095
68540W        W32264   2.293  16.296   2.862
68541W        W32265  26.126  42.372  13.920
68542W        W32266  26.124  29.514   2.763
68543W        W32267  40.875   4.713  11.088
68544W        W32268  23.525  22.095   0.823
68545W        W32269   3.871   2.743   1.707
68546W        W32270   1.419  34.592   4.677
68547W        W32271  31.955  15.706  11.105
68548W        W32272  33.928   3.460  11.061
68549W        W32273   6.294  12.170  13.988
68550W        W32274  12.197   8.230  10.597
68551W        W32275  17.214  42.524   0.331
68552W        W32276  17.230   7.302  12.019
68553W        W32277  26.111  43.798   0.270
68554W        W32278  40.037  31.625   4.126
68555W        W32279  26.496   6.338  14.302
68556W        W32280   8.234  39.940  11.448
68557W        W32281   4.844   9.724  10.020
68558W        W32282   7.798  35.927   1.872
68559W        W32283   5.720   5.222  14.301
68560W        W32284   8.776  44.770  13.900
68561W        W32285  16.634  24.597  13.538
68562W        W32286   3.871   0.904  14.356
68563W        W32287   0.286  43.333  14.794
68564W        W32288   2.325  22.679   2.754
68565W        W32289  27.667  28.019   1.419
68566W        W32290   3.915   8.677   5.202
68567W        W32291   7.404  17.593   3.818
68568W        W32292  43.882  38.566  12.909
68569W        W32293   7.285  17.081  14.955
68570W        W32294  43.373   9.771   1.758
68571W        W32295  37.896   2.274   1.740
68572W        W32296  26.594  18.159   9.993
68573W        W32297   2.400  10.225  10.487
68574W        W32298  36.075  21.101  12.990
68575W        W32299   2.354  12.660  12.568
68576W        W32300  20.069   0.395  14.765
68577W        W32301   3.265  13.184   2.722
68578W        W32302  21.023  12.756   3.792
68579W        W32303  14.194   1.921  11.427
68580W        W32304  27.090  19.566  14.851
68581W        W32305  12.774  23.731  12.991
68582W        W32306  12.241  42.914  10.124
68583W        W32307  18.248   2.843  11.485
68584W        W32308  22.678  22.535  13.484
68585W        W32309   1.446  11.298  13.334
68586W        W32310   4.701  32.946   0.392
68587W        W32311  20.697  39.820  14.487
68588W        W32312  40.054  11.322   4.638
68589W        W32313   9.705  26.518  13.311
68590W        W32314  41.876  18.288  13.985
68591W        W32315   9.877  32.911  14.897
68592W        W32316  12.854   2.853   1.734
68593W        W32317  18.104  44.756   4.806
68594W        W32318  41.805   2.941  14.369
68595W        W32319  32.603  41.441  12.947
68596W        W32320  37.510  24.512  13.885
68597W        W32321   1.352   9.722  11.507
68598W        W32322  29.048   2.422   3.840
68599W        W32323  12.144  26.468   2.889
68600W        W32324  23.537  19.107  10.529
68601W        W32325  30.912   0.274   3.641
68602W        W32326  29.524  11.355   2.679
68603W        W32327  35.069   4.863   4.291
68604W        W32328  39.994   6.277  10.458
68605W        W32329  20.566  17.726  11.929
68606W        W32330   2.345  21.551  12.995
68607W        W32331  16.685  41.488  13.511
68608W        W32332  23.716  32.902   4.236
68609W        W32333  27.972   5.850   4.649
68610W        W32334  36.398   6.199   1.257
68611W        W32335  39.416  18.552   0.937
68612W        W32336  24.985  23.490   2.784
68613W        W32337   4.918  36.397  12.874
68614W        W32338  11.195  12.229  13.838
68615W        W32339  25.689   5.757   1.257
68616W        W32340  33.927   1.292   2.850
68617W        W32341  43.377  19.582  14.975
68618W        W32342  27.665  36.399  12.360
68619W        W32343   6.784  17.307  12.923
68620W        W32344  26.624  37.018   1.765
68621W        W32345  28.580  20.033   4.656
68622W        W32346  18.271  35.470   2.724
68623W        W32347   9.857  15.137   0.294
68624W        W32348  11.768  37.351  14.496
68625W        W32349  14.669  10.383   1.712
68626W        W32350  14.302  29.595  12.915
68627W        W32351  21.598   6.728   2.833
68628W        W32352  12.334  33.562   1.422
68629W        W32353  31.015  14.818  13.033
68630W        W32354  27.013  29.124   1.707
68631W        W32355  30.917   5.697   3.258
68632W        W32356   1.370  14.637   0.880
68633W        W32357  41.009   8.332   1.232
68634W        W32358  39.324  21.211  11.079
68635W        W32359   5.382  19.647  11.942
68636W        W32360  15.180  25.086   0.248
68637W        W32361  26.605  15.326   4.808
68638W        W32362  25.118  39.987   0.352
68639W        W32363  15.294  14.096  10.548
68640W        W32364  35.532  33.121   0.773
68641W        W32365  12.163  20.239  12.002
68642W        W32366  35.077   7.391   3.759
68643W        W32367   9.865   8.681   2.772
68644W        W32368  20.236  13.232   2.876
68645W        W32369  13.237  32.450   1.809
68646W        W32370  26.463  17.268  14.492
68647W        W32371  32.443  24.718  11.605
68648W        W32372   9.769  35.458  10.591
68649W        W32373   7.823   7.726  14.382
68650W        W32374   7.259  26.177  14.897
68651W        W32375  11.343  17.558  13.947
68652W        W32376  19.255   5.230   0.736
68653W        W32377  26.585   5.867  11.874
68654W        W32378  38.565   8.900  14.345
68655W        W32379   5.265  19.538   4.299
68656W        W32380  36.018  21.714  10.976
68657W        W32381  37.418  11.760   3.312
68658W        W32382  23.692  16.578  12.416
68659W        W32383   4.840  19.622   2.697
68660W        W32384  28.517   2.723   2.297
68661W        W32385  27.688  33.611   4.787
68662W        W32386  34.987  23.687  11.401
68663W        W32387   6.212  36.568   3.184
68664W        W32388  37.968  24.064  11.513
68665W        W32389  14.677   2.860   2.832
68666W        W32390  17.142  25.984  14.418
68667W        W32391  14.163  34.610   4.157
68668W        W32392  32.920  34.906  14.910
68669W        W32393  29.665  20.254  10.435
68670W        W32394  33.036   6.230  14.427
68671W        W32395  17.778   9.700  13.004
68672W        W32396   0.372  12.714  11.082
68673W        W32397  14.254  31.450   4.603
68674W        W32398   6.381  29.667  13.839
68675W        W32399  26.074   5.311  12.524
68676W        W32400  28.102   3.954  11.914
68677W        W32401   7.197  36.579  11.971
68678W        W32402  39.458  15.243   0.803
68679W        W32403  35.513  37.566  13.335
68680W        W32404  16.650  10.374  14.995
68681W        W32405  25.210  36.366   1.398
68682W        W32406  19.750  42.428  11.915
68683W        W32407   3.931  42.942   3.158
68684W        W32408  12.329  14.742  11.433
68685W        W32409   1.320  22.618   0.262
68686W        W32410  10.712  29.494  14.405
68687W        W32411  10.706  41.820  12.081
68688W        W32412  25.472  34.908   0.316
68689W        W32413   3.838   0.958  12.386
68690W        W32414  31.504  27.544  11.906
68691W        W32415  23.693  15.728  11.422
68692W        W32416  16.261  21.181   4.173
68693W        W32417  36.578   2.233  10.629
68694W        W32418  19.711  37.355  13.343
68695W        W32419  21.095  19.753  11.100
68696W        W32420  16.741  40.830   1.888
68697W        W32421   4.733  29.171   4.121
68698W        W32422  27.638   8.335   3.202
68699W        W32423  23.599   2.441  12.832
68700W        W32424  37.411  30.127  11.610
68701W        W32425  20.251  16.805  11.560
68702W        W32426  11.237   3.318  11.603
68703W        W32427  23.106  42.515  13.882
68704W        W32428  19.741  41.790  13.978
68705W        W32429  31.616  35.391   2.246
68706W        W32430  21.745  26.040  10.542
68707W        W32431  29.008  34.008  11.377
68708W        W32432  26.000   5.420  13.534
68709W        W32433  15.094   0.298   2.389
68710W        W32434  21.690  36.083   1.231
68711W        W32435  44.963  39.872  11.872
68712W        W32436   5.888  14.739  14.467
68713W        W32437   2.809  28.533   4.720
68714W        W32438  37.488   5.879  13.007
68715W        W32439  40.021   1.825   4.738
68716W        W32440  30.616  21.565  12.036
68717W        W32441  10.822  20.597  11.593
68718W        W32442  15.716  15.794  11.539
68719W        W32443  34.562  33.017   3.335
68720W        W32444  22.136  22.120  12.392
68721W        W32445   6.356   2.369   3.818
68722W        W32446   1.351  31.970  14.379
68723W        W32447  32.114  42.362   4.239
68724W        W32448  30.584  29.981   0.922
68725W        W32449   6.368  35.879  14.818
68726W        W32450  19.167  20.222  14.959
68727W        W32451  43.770  32.066  12.074
68728W        W32452   5.866  19.156  12.551
68729W        W32453   0.346  38.484  12.990
68730W        W32454  33.075  17.081  11.405
68731W        W32455  28.009  27.558   3.273
68732W        W32456  16.677  25.079   2.182
68733W        W32457  11.704   6.887   2.852
68734W        W32458   4.882  14.724   1.888
68735W        W32459  42.857  21.704  14.399
68736W        W32460  30.150  18.185   3.760
68737W        W32461  33.547  16.689   1.930
68738W        W32462   0.412  27.510  13.322
68739W        W32463  26.161  25.217  14.893
68740W        W32464  36.472   1.377  14.384
68741W        W32465  32.436  12.150  13.940
68742W        W32466   6.278   7.791  12.937
68743W        W32467   6.747  38.358  12.857
68744W        W32468   4.372  24.056   4.786
68745W        W32469   4.237   7.787  10.482
68746W        W32470  25.029  23.650   1.307
68747W        W32471   7.361  21.235  14.470
68748W        W32472  20.641  34.497  11.382
68749W        W32473  17.114  41.960  10.500
68750W        W32474  37.891   6.280  10.943
68751W        W32475   4.430  40.825  11.380
68752W        W32476  15.259  10.153  14.425
68753W        W32477  38.407   1.838   2.829
68754W        W32478  38.547  44.286  12.958
68755W        W32479  43.395   0.882  14.798
68756W        W32480   6.887  28.100  10.887
68757W        W32481  41.835  32.541  12.396
68758W        W32482  21.547   6.326   2.217
68759W        W32483  10.812  43.801   2.783
68760W        W32484   9.322  13.814   5.613
68761W        W32485   8.729   6.310   4.669
68762W        W32486  16.244  44.477  10.511
68763W        W32487  16.764  36.449   2.317
68764W        W32488  17.244  27.643  11.483
68765W        W32489   1.936  44.262   3.811
68766W        W32490  22.241  24.027  12.975
68767W        W32491  43.948   7.672   4.770
68768W        W32492  26.121  40.325  12.554
68769W        W32493  35.900  24.118   3.746
68770W        W32494  27.529   6.860   4.603
68771W        W32495  32.089  37.017  10.418
68772W        W32496  13.692   2.922   3.247
68773W        W32497  27.112  16.294   0.312
68774W        W32498  15.752   7.199  12.983
68775W        W32499  38.340  23.052  14.475
68776W        W32500  13.130  32.888   0.752
68777W        W32501  19.162  18.051  14.955
68778W        W32502  39.051  29.503   3.264
68779W        W32503  23.098   3.439  11.380
68780W        W32504   8.206  32.406  12.443
68781W        W32505  27.597   7.406   1.360
68782W        W32506  43.395  13.171   1.828
68783W        W32507  12.314  35.370   3.809
68784W        W32508  40.358   5.199  11.969
68785W        W32509  10.190  18.734  14.309
68786W        W32510  14.314  22.099  10.474
68787W        W32511  26.177  14.307  13.384
68788W        W32512  24.007  23.541  14.277
68789W        W32513  29.978  17.660   2.262
68790W        W32514  17.691  23.642   0.748
68791W        W32515  22.164  23.606  13.984
68792W        W32516   2.432  14.174  10.629
68793W        W32517  34.926   9.670   0.427
68794W        W32518  15.302  39.913   3.675
68795W        W32519  13.659  11.320   4.145
68796W        W32520   2.805  10.806   2.723
68797W        W32521   3.401   5.229   4.823
68798W        W32522   9.340  30.165   0.384
68799W        W32523  11.847  23.219   4.308
68800W        W32524  21.216  30.938   0.732
68801W        W32525  43.857   0.273   2.266
68802W        W32526  43.433  30.028  13.445
68803W        W32527  32.630   3.234   3.671
68804W        W32528  34.515   6.864   3.749
68805W        W32529  28.150  44.903   2.242
68806W        W32530  44.363   4.884  12.088
68807W        W32531   2.311  18.709  12.997
68808W        W32532   4.736   0.895   4.807
68809W        W32533  26.121  27.549  10.588
68810W        W32534  40.442  23.602   0.784
68811W        W32535  12.250  22.130  13.935
68812W        W32536  29.965   8.707   2.778
68813W        W32537   6.860  11.708  11.951
68814W        W32538  33.519  12.283  11.604
68815W        W32539   8.252  24.579  11.481
68816W        W32540   7.412  39.012  11.122
68817W        W32541  16.187  44.324   0.339
68818W        W32542  10.149  10.810  12.848
68819W        W32543   7.898  21.213  13.325
68820W        W32544   3.284   6.908   2.698
68821W        W32545   7.390  11.795  14.758
68822W        W32546  43.853  37.559   2.403
68823W        W32547  16.801  41.873  14.311
68824W        W32548  13.801   6.905   2.711
68825W        W32549   6.326   2.899   2.848
68826W        W32550   0.479  25.540   1.774
68827W        W32551  19.209  15.089   3.288
68828W        W32552  26.094  18.214  11.426
68829W        W32553   6.339   0.953  10.573
68830W        W32554   9.716  21.026  10.996
68831W        W32555   6.386  40.336  13.058
68832W        W32556  14.247  11.646   4.217
68833W        W32557  13.599  32.057  12.570
68834W        W32558  38.948  19.703  13.995
68835W        W32559   7.380   2.462   1.321
68836W        W32560  12.203   3.431   9.968
68837W        W32561  22.530   3.866  14.939
68838W        W32562  19.700  32.414   3.229
68839W        W32563  15.219   1.932   4.186
68840W        W32564  44.831  31.023   3.706
68841W        W32565  43.912  21.545   0.934
68842W        W32566  42.002  25.577   1.443
68843W        W32567  25.092  40.959   2.315
68844W        W32568  23.058  41.448  10.640
68845W        W32569   5.363  16.695  10.462
68846W        W32570  29.034  13.627  10.927
68847W        W32571  11.330  30.066  12.372
68848W        W32572   5.304   1.733   3.279
68849W        W32573   0.461  40.537  10.942
68850W        W32574  40.332   2.295  14.397
68851W        W32575  41.915  30.607  14.433
68852W        W32576  22.020  23.671   0.769
68853W        W32577  38.450  43.871   2.895
68854W        W32578  24.695  43.324   0.348
68855W        W32579  32.997  41.991   4.283
68856W        W32580   4.731  42.432   4.176
68857W        W32581   7.242  10.695   3.350
68858W        W32582  43.382  27.103   3.369
68859W        W32583  36.903  34.493   1.274
68860W        W32584   2.393  39.986   2.851
68861W        W32585  22.089  44.499  13.047
68862W        W32586   6.371  16.610   2.882
68863W        W32587  30.644  13.145   2.392
68864W        W32588  20.061  31.955  11.493
68865W        W32589  33.459  35.911   5.131
68866W        W32590  40.431  44.436   0.955
68867W        W32591   9.761  12.839   4.755
68868W        W32592  18.773  10.147  10.909
68869W        W32593  18.135  26.473   1.765
68870W        W32594   3.350  32.561   2.258
68871W        W32595   5.264  35.550   2.766
68872W        W32596  30.420  11.183  13.831
68873W        W32597  16.729  23.627  12.340
68874W        W32598   8.731  29.652   0.345
68875W        W32599  23.648   9.845  14.474
68876W        W32600   3.895   2.316  14.918
68877W        W32601  42.306  42.009   3.205
68878W        W32602  32.622   3.234   2.872
68879W        W32603  29.603  10.834   4.744
68880W        W32604  27.041   8.672   3.378
68881W        W32605  32.436   9.243  14.923
68882W        W32606   4.277  28.633  12.096
68883W        W32607  31.588  36.050  11.384
68884W        W32608  34.527  22.698   4.693
68885W        W32609  11.359   1.474   2.412
68886W        W32610  35.484  42.867  14.469
68887W        W32611  20.644  43.298   2.374
68888W        W32612   8.175  30.004   3.165
68889W        W32613  14.245  34.062  10.991
68890W        W32614   2.935  10.364   3.279
68891W        W32615   9.726  44.430  14.339
68892W        W32616  44.286   9.184  10.642
68893W        W32617   3.854  40.415   2.350
68894W        W32618   1.867  38.075   0.900
68895W        W32619  21.669  15.215   0.384
68896W        W32620  38.020  10.818   3.238
68897W        W32621  40.853  10.723  13.375
68898W        W32622  12.804   4.367  12.979
68899W        W32623  27.178  13.203  13.421
68900W        W32624  13.252  43.368   3.810
68901W        W32625  36.061  20.543  14.979
68902W        W32626  27.029  12.219   4.198
68903W        W32627  40.353   8.752   4.284
68904W        W32628  40.518  27.980  13.488
68905W        W32629  27.102   2.817  12.556
68906W        W32630   5.856  33.582  14.300
68907W        W32631  36.011  38.978  12.827
68908W        W32632  43.458  27.136   0.439
68909W        W32633   4.791  13.247  10.998
68910W        W32634   4.704  40.482  11.503
68911W        W32635  25.545   8.840   2.875
68912W        W32636  32.434  10.221  12.375
68913W        W32637  37.877   0.374   1.698
68914W        W32638  12.743  35.965   3.665
68915W        W32639  42.919  28.537   2.775
68916W        W32640  34.038  23.061   4.655
68917W        W32641  21.235  42.933   4.279
68918W        W32642  17.591  13.128  13.849
68919W        W32643   4.258  43.502   4.160
68920W        W32644  18.776  34.374   0.755
68921W        W32645  44.974  32.899   1.889
68922W        W32646   5.281  37.858  10.580
68923W        W32647  36.937  29.080   1.824
68924W        W32648  20.117  39.928   0.833
68925W        W32649   0.440   7.677   1.337
68926W        W32650   0.746  15.098   0.462
68927W        W32651  40.491  39.416  12.050
68928W        W32652   4.831  29.131  12.029
68929W        W32653  33.441  13.186  14.016
68930W        W32654  41.837  31.981   1.296
68931W        W32655  40.882   7.207   0.389
68932W        W32656  31.048  22.190  14.486
68933W        W32657  42.406  26.136  13.420
68934W        W32658  33.536   7.313   1.854
68935W        W32659  19.589  30.061  13.920
68936W        W32660  29.960   3.823  11.569
68937W        W32661   6.393   6.238   0.247
68938W        W32662  22.610  28.177  12.008
68939W        W32663  17.151   8.313  11.004
68940W        W32664  38.343  31.403   3.165
68941W        W32665  18.076   9.188  12.417
68942W        W32666  15.245  36.960   1.248
68943W        W32667   9.762  38.923   3.166
68944W        W32668  26.136  14.819  12.914
68945W        W32669  31.060   3.380   1.337
68946W        W32670  19.700  11.263  11.960
68947W        W32671  27.575  13.686   3.335
68948W        W32672  23.489  15.634  14.397
68949W        W32673  42.516  22.579   1.829
68950W        W32674  32.028  41.382   4.834
68951W        W32675  11.867  14.753   4.718
68952W        W32676  25.577   5.381   4.719
68953W        W32677   0.975  14.677  14.826
68954W        W32678  16.286   2.445  10.549
68955W        W32679   1.829  10.254   0.469
68956W        W32680  36.432  23.222   4.629
68957W        W32681  23.231  36.993   2.724
68958W        W32682  33.016  21.117   5.147
68959W        W32683   0.476  27.090   0.291
68960W        W32684  34.567   4.755  12.390
68961W        W32685  12.844  27.965   2.287
68962W        W32686  35.862  26.623  11.090
68963W        W32687  22.210  22.672  13.914
68964W        W32688  35.481  24.564  11.414
68965W        W32689  33.484  20.743   3.756
68966W        W32690  42.490  31.912   1.303
68967W        W32691  23.636  25.999  10.062
68968W        W32692  29.652  34.025  12.521
68969W        W32693  44.315  26.631   4.132
68970W        W32694  33.544   1.815  10.059
68971W        W32695  16.618  34.951   4.695
68972W        W32696  41.024  22.104   5.743
68973W        W32697  21.232  38.489  11.599
68974W        W32698  32.402  24.631  13.440
68975W        W32699   3.938  20.571  11.034
68976W        W32700  21.059  43.005  14.299
68977W        W32701  19.764   8.703  12.903
68978W        W32702   1.748   2.916   3.175
68979W        W32703  25.985  13.163  10.895
68980W        W32704  22.674   2.341  10.142
68981W        W32705  29.607  21.125   3.243
68982W        W32706  10.748  37.459   3.380
68983W        W32707  38.956  17.646  12.046
68984W        W32708  37.439  21.239   3.222
68985W        W32709  16.694  33.072   3.377
68986W        W32710   4.242  20.224   4.137
68987W        W32711   9.667  24.997  12.553
68988W        W32712  25.580  20.618   3.737
68989W        W32713  13.667  29.070  10.601
68990W        W32714   5.370   8.868   1.797
68991W        W32715  44.457  43.836  11.937
68992W        W32716   7.777  31.430   1.375
68993W        W32717  11.283  13.693   3.738
68994W        W32718  28.061  12.655  14.001
68995W        W32719  37.424  23.507   1.729
68996W        W32720   6.721   8.756   4.637
68997W        W32721  15.764   0.853  10.950
68998W        W32722  12.288   1.261  11.876
68999W        W32723  26.203  28.619  12.837
69000W        W32724  19.108   7.217   2.258
69001W        W32725  35.597  18.135  11.381
69002W        W32726  10.691  11.312   4.324
69003W        W32727  44.366  15.823  11.927
69004W        W32728  44.775  33.537  13.345
69005W        W32729  25.549  33.989   2.334
69006W        W32730  19.197   0.394  14.997
69007W        W32731   8.316  20.687   4.287
69008W        W32732  29.087  19.200  13.403
69009W        W32733  22.156  19.140  10.956
69010W        W32734  43.340   0.819   3.196
69011W        W32735   7.357  10.198  14.825
69012W        W32736  15.650  44.396   3.368
69013W        W32737  30.119  19.168  12.022
69014W        W32738  26.069  41.847   0.853
69015W        W32739  24.702  28.066  13.448
69016W        W32740  29.423   9.719   5.254
69017W        W32741  32.122  20.133  10.937
69018W        W32742  36.003  31.064  14.379
69019W        W32743  16.124  13.113  14.884
69020W        W32744  33.512  27.167  14.411
69021W        W32745  10.758   7.797  11.373
69022W        W32746  20.127   6.363  13.450
69023W        W32747  33.904  11.181  14.288
69024W        W32748  11.708  19.193  11.062
69025W        W32749  21.108  17.757  12.888
69026W        W32750   9.648  16.102   0.312
69027W        W32751  27.528  41.361   2.223
69028W        W32752  10.755  33.392   3.851
69029W        W32753  13.138  24.611  13.446
69030W        W32754  22.019  41.527   3.865
69031W        W32755   2.268  14.110  12.969
69032W        W32756  33.014  29.431   4.296
69033W        W32757  13.812  23.135  14.022
69034W        W32758   2.386   3.908  13.862
69035W        W32759  23.133   3.240  12.031
69036W        W32760  10.367  30.453  11.463
69037W        W32761  27.495  42.979  11.035
69038W        W32762  15.682  10.795   4.737
69039W        W32763  14.290  14.772   3.243
69040W        W32764   8.735  35.004  11.117
69041W        W32765   5.396  19.052  14.888
69042W        W32766  25.168   0.356   3.851
69043W        W32767  31.601  41.455  14.926
69044W        W32768   4.328  26.954   1.699
69045W        W32769  11.801  32.135   0.752
69046W        W32770  43.992  41.853  13.032
69047W        W32771  19.582  18.158   1.728
69048W        W32772  17.577  26.494  12.483
69049W        W32773  18.180  25.973  12.405
69050W        W32774  14.161  22.152  13.947
69051W        W32775  20.056  39.557   1.799
69052W        W32776   1.843  21.059   3.324
69053W        W32777  43.365  26.990  12.890
69054W        W32778  16.642  41.942  13.312
69055W        W32779  34.429   8.200  10.478
69056W        W32780  44.417  29.557   2.734
69057W        W32781  28.022  32.110  10.083
69058W        W32782  38.960  38.858  11.973
69059W        W32783  31.565  25.973   2.290
69060W        W32784  10.781   2.743   0.254
69061W        W32785  16.182  30.135   1.329
69062W        W32786  36.869   8.232   3.774
69063W        W32787  44.259  21.239  13.987
69064W        W32788  38.387  21.130   1.864
69065W        W32789  32.005   8.670   3.315
69066W        W32790  43.863  36.904  11.914
69067W        W32791  43.322  38.954  10.123
69068W        W32792  43.866  21.726  12.535
69069W        W32793  10.158   2.782   4.235
69070W        W32794   1.458  33.875   2.294
69071W        W32795   4.437  25.548   0.922
69072W        W32796  17.139  14.779  10.957
69073W        W32797  40.363  39.472   4.187
69074W        W32798  44.345   6.218  14.837
69075W        W32799  25.482  25.013   0.827
69076W        W32800  44.423  34.036  14.377
69077W        W32801  34.515  25.119   1.912
69078W        W32802  24.541  11.751  12.421
69079W        W32803   2.817  32.037  14.350
69080W        W32804  17.586  28.604  11.946
69081W        W32805  11.710  31.922   4.322
69082W        W32806  19.207  15.807  14.299
69083W        W32807  30.547  37.452  11.941
69084W        W32808  13.760  23.490   2.723
69085W        W32809  17.194  14.725   9.476
69086W        W32810  34.610   8.307   0.394
69087W        W32811   0.981   8.900   4.782
69088W        W32812  38.374   1.862   0.468
69089W        W32813  26.550  42.335   4.687
69090W        W32814  41.852  43.890  11.869
69091W        W32815   9.318  21.045  10.439
69092W        W32816   8.322  30.941  14.819
69093W        W32817  43.916  15.743  12.932
69094W        W32818  36.564   2.394  12.921
69095W        W32819  30.109  12.630  11.006
69096W        W32820  11.702   5.239   0.905
69097W        W32821  32.426  29.098  10.593
69098W        W32822  19.056   4.915  14.936
69099W        W32823   0.373  12.844  13.517
69100W        W32824  37.920   6.199   0.853
69101W        W32825   6.413  42.961  14.822
69102W        W32826  35.394  21.047  11.019
69103W        W32827  44.973   6.237   3.663
69104W        W32828   4.234   8.168  13.062
69105W        W32829  33.114  26.677   3.211
69106W        W32830   3.793  30.111   0.346
69107W        W32831  12.616  20.745   2.708
69108W        W32832   5.305  27.643   3.819
69109W        W32833   1.466  39.403  12.032
69110W        W32834  41.025   0.444  12.078
69111W        W32835   5.439  33.540   4.318
69112W        W32836  18.081   4.822   0.402
69113W        W32837  18.207  34.915  12.516
69114W        W32838   5.712  24.080  10.621
69115W        W32839  27.004  20.582   3.692
69116W        W32840  18.774   7.805   1.799
69117W        W32841   6.273  18.144  13.530
69118W        W32842  13.832  32.967  13.809
69119W        W32843  17.133  38.561  10.146
69120W        W32844   2.352  16.119   3.667
69121W        W32845   8.194  39.442   3.768
69122W        W32846  38.962  30.489   0.819
69123W        W32847   4.712  15.247   4.305
69124W        W32848  40.528   3.947  10.544
69125W        W32849   7.746  24.036   0.277
69126W        W32850  30.062   0.456  10.936
69127W        W32851  33.427  30.474   5.234
69128W        W32852  18.209  26.029   4.348
69129W        W32853  18.087  12.233  13.889
69130W        W32854  12.673  42.969   2.830
69131W        W32855  16.110  12.702  13.392
69132W        W32856  43.882  19.227   3.315
69133W        W32857  34.523  33.605  11.957
69134W        W32858  14.657  39.551   0.801
69135W        W32859  40.424  31.969   1.788
69136W        W32860   5.383  36.947  14.932
69137W        W32861   2.310  13.106   0.260
69138W        W32862   7.288   4.731  14.423
69139W        W32863  44.894  28.138   4.764
69140W        W32864  17.215   2.935   4.643
69141W        W32865  29.553  14.706  14.364
69142W        W32866   1.252  21.040   3.215
69143W        W32867   9.812   1.744  14.902
69144W        W32868   6.193  29.127  12.362
69145W        W32869  16.664   7.712   0.920
69146W        W32870   3.409  26.672   1.324
69147W        W32871  22.059  24.020   4.184
69148W        W32872  28.949  26.027  12.903
69149W        W32873  25.077   9.375   2.852
69150W        W32874  30.490  23.643  12.378
69151W        W32875  23.600  23.214   0.381
69152W        W32876   1.902  18.148  14.782
69153W        W32877  14.637  12.319   1.373
69154W        W32878  15.748  36.862  11.406
69155W        W32879   0.285  44.934   2.306
69156W        W32880  24.618  14.803   0.831
69157W        W32881  42.472  34.916   9.571
69158W        W32882   9.287   1.313   4.179
69159W        W32883  13.788  27.689   2.688
69160W        W32884   0.987  22.046  11.552
69161W        W32885  41.355  21.221  11.421
69162W        W32886  14.225  27.528  12.912
69163W        W32887  21.553  39.023  11.867
69164W        W32888  27.988  39.394   2.718
69165W        W32889  24.985  18.767   0.409
69166W        W32890  24.152  30.499  11.891
69167W        W32891  26.076   9.714   5.222
69168W        W32892  10.165  15.198   1.320
69169W        W32893   4.701  29.655  10.603
69170W        W32894  10.143  27.136   0.447
69171W        W32895  19.605  32.601   4.155
69172W        W32896  17.199   7.282  12.522
69173W        W32897  10.282   2.817  14.843
69174W        W32898  14.128  17.616  10.422
69175W        W32899  26.687  31.473  11.038
69176W        W32900  17.227   0.822   2.795
69177W        W32901   3.839  16.128   3.695
69178W        W32902  43.884  24.538   0.813
69179W        W32903  20.571   5.885   3.265
69180W        W32904   9.760   7.294  11.023
69181W        W32905   6.710  14.718  11.059
69182W        W32906  16.602  30.423  14.281
69183W        W32907  27.471  44.425  14.422
69184W        W32908   7.181  31.148   2.901
69185W        W32909  35.862  11.343  11.098
69186W        W32910   7.261  25.579  11.866
69187W        W32911  31.638   8.729   4.276
69188W        W32912  14.096   7.904  14.022
69189W        W32913  44.756   4.218  11.068
69190W        W32914  27.993  44.789   3.197
69191W        W32915   4.341  22.024  13.426
69192W        W32916  36.468   3.855  10.431
69193W        W32917  23.702  32.073   2.803
69194W        W32918  31.422  33.428  13.963
69195W        W32919  18.743  27.473   1.698
69196W        W32920  32.015   1.761   4.218
69197W        W32921  22.037  33.060  12.898
69198W        W32922  24.655  44.385  11.004
69199W        W32923  18.582  12.151   9.623
69200W        W32924  22.584  22.199  14.449
69201W        W32925  35.573  29.933  14.409
69202W        W32926  13.759   5.875  14.950
69203W        W32927  41.803  43.441   3.662
69204W        W32928  25.042  22.546   1.917
69205W        W32929  32.624  17.261   3.785
69206W        W32930  29.114  39.957  13.492
69207W        W32931  42.491  14.138   3.376
69208W        W32932  26.105  24.504   0.320
69209W        W32933  44.793  39.849   1.885
69210W        W32934  40.054   2.924   4.258
69211W        W32935  42.461  44.977   3.749
69212W        W32936  42.996  27.675  11.474
69213W        W32937  21.724  37.405  11.386
69214W        W32938  44.430  14.780  12.503
69215W        W32939   5.783   3.341   0.381
69216W        W32940   3.923  40.407   1.759
69217W        W32941  32.005   8.700   1.418
69218W        W32942  18.140  29.493   3.743
69219W        W32943  10.749   8.720   2.262
69220W        W32944   5.806  12.351  10.987
69221W        W32945  20.219  24.601   1.868
69222W        W32946  28.677  11.809   0.379
69223W        W32947  26.532  26.092  10.571
69224W        W32948  23.162  26.096   2.300
69225W        W32949  35.918  26.163   0.308
69226W        W32950  22.081  14.323  14.005
69227W        W32951   7.251  13.640   5.100
69228W        W32952  18.213  29.497  11.397
69229W        W32953  27.107   9.724  11.502
69230W        W32954  18.098   2.767   3.644
69231W        W32955  13.676  41.980   4.223
69232W        W32956   1.756   5.772  14.840
69233W        W32957  31.025  42.007  13.398
69234W        W32958  27.143   1.293   4.128
69235W        W32959  15.220  30.971   4.172
69236W        W32960   8.160  14.154   0.340
69237W        W32961  19.280  14.118  11.084
69238W        W32962  21.062  40.024   1.880
69239W        W32963  34.385   8.683   1.722
69240W        W32964  22.142  37.010   3.721
69241W        W32965  40.893  39.533  11.520
69242W        W32966  19.716  12.823   2.230
69243W        W32967  37.982  43.353  10.981
69244W        W32968  22.657  12.281  12.935
69245W        W32969  17.766  28.511   4.789
69246W        W32970  11.815  24.030   2.252
69247W        W32971   9.325  32.905   2.812
69248W        W32972  24.701  37.400  12.964
69249W        W32973  25.488   6.343   1.817
69250W        W32974   6.866   2.248   0.354
69251W        W32975   0.372  39.383   3.843
69252W        W32976  33.394   7.723   1.223
69253W        W32977  20.719  13.725  13.883
69254W        W32978  24.651  25.170   0.467
69255W        W32979  43.782  20.563  14.407
69256W        W32980   3.339  39.357   0.751
69257W        W32981  32.627  15.751   9.985
69258W        W32982   9.695  24.486  14.851
69259W        W32983  14.621   2.814  12.427
69260W        W32984  43.994  33.995  13.936
69261W        W32985   0.271   0.828   3.680
69262W        W32986  23.204  35.037  13.370
69263W        W32987   7.281   8.224  12.937
69264W        W32988  34.579  25.039   2.759
69265W        W32989  32.495  11.804  13.860
69266W        W32990  17.306   3.877  10.474
69267W        W32991  30.609  21.686   4.210
69268W        W32992  20.150   1.306   2.678
69269W        W32993  32.513   2.278  13.307
69270W        W32994   4.334  36.999   0.316
69271W        W32995  41.443  24.172  11.022
69272W        W32996   2.776   7.679   0.905
69273W        W32997  16.159  35.455  11.464
69274W        W32998  18.631  37.071  10.471
69275W        W32999  15.103  29.595  11.607
69276W        W33000  30.635   5.830  12.437
69277W        W33001  39.044  41.449   0.269
69278W        W33002   3.713   9.379   4.626
69279W        W33003  29.161  30.144   2.346
69280W        W33004  42.828   6.215   1.840
69281W        W33005   4.373  32.412   4.672
69282W        W33006  34.425  27.183  14.833
69283W        W33007   4.288  21.677   4.656
69284W        W33008  20.704  27.011   3.241
69285W        W33009  11.325  28.554  10.512
69286W        W33010  30.960  33.517   4.263
69287W        W33011  41.466   5.779  12.858
69288W        W33012  10.633  15.670   4.235
69289W        W33013  25.049  25.480  14.407
69290W        W33014  37.404   1.840  10.151
69291W        W33015  37.524  39.913   0.836
69292W        W33016  19.270  30.161  12.953
69293W        W33017  15.662  43.816   1.760
69294W        W33018  37.339  14.788   4.680
69295W        W33019  34.594  28.013  13.373
69296W        W33020  24.596  20.589   1.929
69297W        W33021  40.832  18.783  10.600
69298W        W33022  43.390  14.251   2.273
69299W        W33023  25.201  20.249   4.785
69300W        W33024  22.197   6.404  14.919
69301W        W33025  38.048  29.509   1.432
69302W        W33026   1.365  36.866  12.890
69303W        W33027  15.794  30.615  12.848
69304W        W33028   4.369  16.692   1.809
69305W        W33029  20.194  39.905   1.740
69306W        W33030  28.039  19.043   0.801
69307W        W33031  34.118   8.738  12.898
69308W        W33032  25.175  35.051  13.949
69309W        W33033  36.562  27.617   2.252
69310W        W33034   3.278  22.995   4.315
69311W        W33035  42.801   0.304  12.481
69312W        W33036  24.179   5.391   2.813
69313W        W33037  12.855  16.743   1.899
69314W        W33038  38.894   7.710   3.205
69315W        W33039   1.459  31.423  14.848
69316W        W33040  32.455  10.285  10.534
69317W        W33041   8.296   7.210  14.483
69318W        W33042   1.450   0.291   2.747
69319W        W33043  41.904   0.485   4.128
69320W        W33044  39.014  12.255  13.062
69321W        W33045   5.401  28.010   0.819
69322W        W33046  12.689   1.804  14.794
69323W        W33047  27.972  36.355  10.508
69324W        W33048  13.151  39.004  11.603
69325W        W33049  30.643  24.711  11.887
69326W        W33050  10.146  31.462   4.726
69327W        W33051   4.336   7.339   3.263
69328W        W33052   7.729  34.978   4.716
69329W        W33053  39.894  10.695   3.249
69330W        W33054  14.628  43.320   2.783
69331W        W33055   3.755   3.220  14.289
69332W        W33056  27.509  25.555  11.995
69333W        W33057  25.528  10.361  10.891
69334W        W33058  31.020  21.682  14.427
69335W        W33059  30.439   1.933  11.985
69336W        W33060  22.220   4.793   0.437
69337W        W33061  13.720   7.355  12.933
69338W        W33062  21.191   0.898   0.479
69339W        W33063  13.620  42.937   0.807
69340W        W33064  33.430   3.955   4.813
69341W        W33065  34.573  23.513  11.583
69342W        W33066  18.676  13.663  10.517
69343W        W33067  26.995  12.207  13.010
69344W        W33068  23.009   9.812   4.663
69345W        W33069  10.689  19.752   4.172
69346W        W33070   1.953  27.546  11.559
69347W        W33071  36.580   4.939   2.687
69348W        W33072  11.637   1.965   3.184
69349W        W33073  24.697  17.563   4.259
69350W        W33074  33.450  37.934  13.041
69351W        W33075  41.523  43.305  10.952
69352W        W33076  15.113   1.879  12.340
69353W        W33077  18.277  19.595  11.901
69354W        W33078  29.653  30.964   2.817
69355W        W33079  34.928   9.697  12.524
69356W        W33080  35.473  33.501  13.464
69357W        W33081  14.674  39.993  11.484
69358W        W33082  28.501   4.718  12.075
69359W        W33083  25.141  43.834   2.835
69360W        W33084  38.994   0.750  11.003
69361W        W33085  37.981  19.228   4.605
69362W        W33086  33.032  22.509   1.706
69363W        W33087   1.371   5.768   1.433
69364W        W33088   6.387  18.182   2.330
69365W        W33089   0.772  43.937   3.154
69366W        W33090  44.874  23.188   0.446
69367W        W33091  38.557   5.791   1.435
69368W        W33092  28.558  25.041  11.945
69369W        W33093  40.853  26.692  11.608
69370W        W33094  10.336  22.515  13.008
69371W        W33095  20.754  19.199  10.544
69372W        W33096  19.043  36.065  11.085
69373W        W33097   3.379  15.747   4.632
69374W        W33098  38.532   3.253   3.160
69375W        W33099  44.344  15.797  12.481
69376W        W33100  28.929  23.625  14.022
69377W        W33101  39.832  13.183  14.281
69378W        W33102   3.843   3.892  11.048
69379W        W33103  21.622  17.107  12.459
69380W        W33104  41.863  38.409   4.639
69381W        W33105   3.331   9.164   0.307
69382W        W33106  40.378  26.464   4.617
69383W        W33107  24.181  36.888   1.409
69384W        W33108   3.309  25.085  10.580
69385W        W33109  15.812   4.731   1.770
69386W        W33110  41.431  26.459   1.857
69387W        W33111   6.824   6.363   1.292
69388W        W33112  13.174   2.402   2.382
69389W        W33113  21.181  34.471  12.479
69390W        W33114  25.672  35.364   4.204
69391W        W33115  39.027  42.414   3.795
69392W        W33116  12.162  30.990   2.708
69393W        W33117  11.349  33.095  12.924
69394W        W33118  33.544  44.793   3.693
69395W        W33119  16.189  24.528   2.728
69396W        W33120  16.743  22.652  14.914
69397W        W33121  43.948  16.223  14.827
69398W        W33122  16.275  10.146  11.372
69399W        W33123  27.667  30.491   0.443
69400W        W33124  27.136   1.869  12.578
69401W        W33125  43.427  26.618  11.113
69402W        W33126  35.992  36.033   2.186
69403W        W33127  30.517  26.998   3.683
69404W        W33128  18.210   4.368  12.532
69405W        W33129  28.473  36.004  14.427
69406W        W33130  34.869   2.428  13.062
69407W        W33131  29.663  22.021  14.383
69408W        W33132  36.365  17.217   4.124
69409W        W33133  43.477   2.757   1.845
69410W        W33134  38.341   0.870  13.473
69411W        W33135  24.693  42.834   4.352
69412W        W33136  21.082  22.504  10.485
69413W        W33137   3.337  32.008  13.972
69414W        W33138  24.136  24.160   0.251
69415W        W33139  11.228  31.417  14.416
69416W        W33140  17.159  14.224   5.249
69417W        W33141  11.173   5.832  11.545
69418W        W33142  15.763   7.802   2.373
69419W        W33143   0.293  14.640  12.492
69420W        W33144  33.128  43.465  10.441
69421W        W33145  20.712  38.069  12.958
69422W        W33146  32.941  15.589   1.763
69423W        W33147  24.602   3.947  10.921
69424W        W33148  10.270   7.725   2.812
69425W        W33149  36.502  30.043   0.372
69426W        W33150  15.602  26.592   3.352
69427W        W33151  26.594  44.351   3.216
69428W        W33152  38.339  26.640  13.345
69429W        W33153  18.136  34.019  13.432
69430W        W33154  35.081  14.775   4.285
69431W        W33155  12.321  13.247  14.356
69432W        W33156  36.388  27.011  12.423
69433W        W33157   3.941  37.970  10.479
69434W        W33158  33.563   6.726   1.749
69435W        W33159  41.438  24.605  14.315
69436W        W33160  44.457  32.132   3.384
69437W        W33161  17.742  10.286   1.289
69438W        W33162  18.154  21.713  10.980
69439W        W33163  42.992  43.004   3.284
69440W        W33164  20.563  42.503   1.280
69441W        W33165  26.536   6.313   0.302
69442W        W33166  28.978  36.924  10.947
69443W        W33167  32.446  18.123  10.405
69444W        W33168  23.190  15.215  10.641
69445W        W33169  28.100   4.818  12.995
69446W        W33170  43.834   7.360   3.213
69447W        W33171   2.470   2.307  14.490
69448W        W33172  41.509  15.639   4.668
69449W        W33173  38.957  28.017  10.415
69450W        W33174  12.778  38.875   4.210
69451W        W33175   4.425   4.822   4.333
69452W        W33176  11.337  18.134   4.308
69453W        W33177  13.767  12.158   4.777
69454W        W33178  43.435   7.207  14.889
69455W        W33179  20.255   1.866   1.718
69456W        W33180  33.423  13.247   5.194
69457W        W33181   6.268  10.156  12.988
69458W        W33182  18.116  19.055   4.277
69459W        W33183  33.440  41.863  12.469
69460W        W33184  37.365   5.419  13.934
69461W        W33185  13.189  32.041  11.091
69462W        W33186  12.129   3.913  14.009
69463W        W33187  13.656  10.676  11.081
69464W        W33188  16.103  25.197  11.954
69465W        W33189  12.830  10.780  14.878
69466W        W33190  26.600  43.861   3.154
69467W        W33191  20.264  40.987  12.483
69468W        W33192  32.997  30.013   2.375
69469W        W33193  28.665   3.404  11.593
69470W        W33194   1.839  42.386  12.422
69471W        W33195  41.835  21.244  10.137
69472W        W33196  13.247  43.340  11.421
69473W        W33197   7.801  29.630  14.387
69474W        W33198   3.884  23.049   2.399
69475W        W33199  28.012  42.411  13.463
69476W        W33200  26.955  11.313  14.391
69477W        W33201  11.822  10.819  10.893
69478W        W33202  29.122  43.336  13.025
69479W        W33203  44.480  23.092  10.626
69480W        W33204   2.939  16.792   4.608
69481W        W33205  31.898   7.259   1.815
69482W        W33206   2.907   6.753   1.841
69483W        W33207  37.386  17.199  13.917
69484W        W33208  28.094  18.637   4.674
69485W        W33209  12.766  15.274   3.221
69486W        W33210  36.513  33.599  11.924
69487W        W33211  41.528  23.631  12.493
69488W        W33212  40.544  24.110  14.483
69489W        W33213  44.934  17.656  11.100
69490W        W33214  24.073   3.390   3.296
69491W        W33215   9.244   9.662   4.274
69492W        W33216  22.133  22.696  12.827
69493W        W33217  33.101   9.239   4.750
69494W        W33218   0.832  19.084  10.408
69495W        W33219  42.804  32.944  11.063
69496W        W33220   3.353  16.148   4.640
69497W        W33221   2.259  31.558   3.753
69498W        W33222  14.700   1.404   4.289
69499W        W33223   1.272  43.781   3.194
69500W        W33224  18.647  30.016   4.776
69501W        W33225  10.317   6.677   2.394
69502W        W33226  21.521   4.897  13.488
69503W        W33227  12.781  12.156   0.279
69504W        W33228  35.950  38.354   4.657
69505W        W33229  30.581  22.688   4.207
69506W        W33230   1.281  37.489  10.983
69507W        W33231  25.043   1.767  12.550
69508W        W33232  37.350  32.412   1.244
69509W        W33233  25.982   5.371   2.751
69510W        W33234   6.858  44.862  10.639
69511W        W33235  25.065  32.032  13.001
69512W        W33236   6.677   9.314  12.341
69513W        W33237   0.831  32.998  10.918
69514W        W33238  18.255   9.359  10.645
69515W        W33239  10.382  38.470   3.221
69516W        W33240  11.347   0.915  13.800
69517W        W33241  39.976  21.172  10.573
69518W        W33242  29.496  17.114   5.287
69519W        W33243  32.140  37.846   0.407
69520W        W33244  32.139  39.375  14.804
69521W        W33245   6.910  24.579   1.743
69522W        W33246  44.295  12.216   4.721
69523W        W33247   7.336   8.312   0.338
69524W        W33248   3.843  44.798   3.634
69525W        W33249  38.434   8.723  12.364
69526W        W33250  11.297   3.286   0.477
69527W        W33251  28.997  39.454  14.286
69528W        W33252  25.040  15.286   2.345
69529W        W33253  20.643  39.968   4.802
69530W        W33254  26.010  13.697   4.197
69531W        W33255  28.141  22.222  12.374
69532W        W33256  36.045  42.884  10.950
69533W        W33257  10.705  18.574   2.828
69534W        W33258  29.521  38.449   2.208
69535W        W33259   2.727  24.993   2.711
69536W        W33260  33.419  30.619  10.106
69537W        W33261  31.617  28.583   2.767
69538W        W33262  18.188  19.670   3.311
69539W        W33263   7.861  31.563   3.706
69540W        W33264   1.482  17.715  10.634
69541W        W33265  33.394   6.686  11.981
69542W        W33266  43.892  32.986  14.349
69543W        W33267  39.423   1.376  12.438
69544W        W33268  31.089  28.510  12.457
69545W        W33269  14.692  32.586  10.959
69546W        W33270  43.352   3.718   1.840
69547W        W33271  24.668  38.878   3.662
69548W        W33272   3.724   9.276  13.035
69549W        W33273  15.309  12.306  13.863
69550W        W33274   7.766  40.387   5.152
69551W        W33275   1.937  29.067   0.301
69552W        W33276  12.827  27.644  10.970
69553W        W33277  32.142  30.578  14.425
69554W        W33278  25.150  29.091  13.353
69555W        W33279  23.032  12.239  12.888
69556W        W33280  30.486  23.671  12.951
69557W        W33281   7.696   4.725   5.295
69558W        W33282  37.037  39.318   0.247
69559W        W33283   9.808  27.628   4.220
69560W        W33284  20.649   3.733   4.281
69561W        W33285  44.978  26.196  14.507
69562W        W33286  15.293   0.946  10.413
69563W        W33287  15.798  15.126   2.372
69564W        W33288  21.136  40.006  13.052
69565W        W33289  30.455  39.417  10.634
69566W        W33290  22.156  35.024   4.194
69567W        W33291  36.063   5.926   0.308
69568W        W33292   4.782  31.922  11.912
69569W        W33293  26.065   2.238  13.366
69570W        W33294  23.661  19.610  12.503
69571W        W33295  12.297  17.666  13.900
69572W        W33296  16.080  14.319   1.442
69573W        W33297   8.213  22.631   3.706
69574W        W33298  44.494  27.459  11.942
69575W        W33299  14.233  33.408   4.340
69576W        W33300  38.964  12.348   2.285
69577W        W33301  42.794  29.027  14.986
69578W        W33302   1.969  21.033  13.516
69579W        W33303  25.622  25.487   0.263
69580W        W33304  13.635  36.346  14.886
69581W        W33305  29.120  30.982   2.810
69582W        W33306  42.928  17.700   2.678
69583W        W33307  13.805   2.262  13.394
69584W        W33308   7.908   4.932  12.984
69585W        W33309  17.073   5.908   9.525
69586W        W33310   4.765  18.605  12.936
69587W        W33311  36.435  16.714  10.617
69588W        W33312  28.040   8.217   2.391
69589W        W33313  14.264   2.865   4.273
69590W        W33314  20.563  22.730  12.866
69591W        W33315  25.572  41.311   0.812
69592W        W33316  12.710   5.783   3.851
69593W        W33317  10.373  34.572  10.587
69594W        W33318   8.177  20.264   3.173
69595W        W33319  43.931  30.587   0.446
69596W        W33320  25.023  23.117   4.747
69597W        W33321  38.889  32.571   3.295
69598W        W33322   0.937  36.390   3.355
69599W        W33323   0.944   0.363  13.059
69600W        W33324  19.262   5.355   4.252
69601W        W33325   0.819  20.135  13.493
69602W        W33326  28.617   4.331  11.106
69603W        W33327  40.946  17.780   4.599
69604W        W33328  28.583  38.352   0.409
69605W        W33329  17.164  13.816   1.916
69606W        W33330  28.029  20.135   1.234
69607W        W33331  43.442  21.197   2.184
69608W        W33332  28.963  40.343   3.319
69609W        W33333  24.034   9.344   4.799
69610W        W33334  16.251   3.828  11.421
69611W        W33335  29.993  39.384  14.772
69612W        W33336  34.490  21.535  13.970
69613W        W33337  23.507  42.411   1.841
69614W        W33338  19.214  25.559  13.335
69615W        W33339  12.360  39.864  13.997
69616W        W33340  20.266  42.944  13.868
69617W        W33341  25.983   6.213  14.379
69618W        W33342  31.049  15.658   0.820
69619W        W33343   0.943   4.231   4.618
69620W        W33344  18.746  38.850  11.061
69621W        W33345  43.903  41.025   4.230
69622W        W33346  43.278  11.168   1.416
69623W        W33347  10.743  43.966   3.301
69624W        W33348  44.450  32.501  14.317
69625W        W33349  27.611   9.368   2.412
69626W        W33350  12.332  38.863   3.231
69627W        W33351  24.188  25.144   9.934
69628W        W33352  43.971  14.163   2.868
69629W        W33353  32.041  29.989  12.908
69630W        W33354  18.639  13.631  11.493
69631W        W33355  22.612  13.672  13.529
69632W        W33356   3.256  25.157   3.171
69633W        W33357   2.247  18.287   3.164
69634W        W33358  25.072  17.582   2.309
69635W        W33359  39.498  38.464  12.439
69636W        W33360  14.661  10.283  12.402
69637W        W33361  16.248  34.892  13.796
69638W        W33362  43.446  27.577   4.622
69639W        W33363  15.246  16.667   0.793
69640W        W33364  24.586  19.255   2.858
69641W        W33365  28.464  39.809  14.811
69642W        W33366   2.860  26.677  14.840
69643W        W33367  21.226  31.523   4.773
69644W        W33368  30.440   8.383   1.360
69645W        W33369  20.688  18.689  14.899
69646W        W33370  25.613  31.132  12.363
69647W        W33371   9.153  27.680  10.925
69648W        W33372  31.616   2.939   3.232
69649W        W33373  30.954  38.483   1.405
69650W        W33374  31.096  34.555  13.328
69651W        W33375  37.892  36.406  13.839
69652W        W33376  40.901   1.952  11.069
69653W        W33377  14.262  44.400   1.304
69654W        W33378  40.820  22.610  10.521
69655W        W33379  41.025  33.503   1.245
69656W        W33380  32.570   3.774  14.418
69657W        W33381  42.868   4.799   3.833
69658W        W33382  38.917  43.379   1.865
69659W        W33383  29.098  36.436   0.243
69660W        W33384   9.313  12.763  10.967
69661W        W33385  38.381  17.134  11.888
69662W        W33386   3.734  24.985   2.845
69663W        W33387   7.900   8.258   0.332
69664W        W33388   2.877  31.997  10.904
69665W        W33389  30.963  25.638  11.044
69666W        W33390  44.974   7.203   0.450
69667W        W33391  18.277  18.746  10.509
69668W        W33392  31.096  38.340  14.817
69669W        W33393  31.456  42.939  13.547
69670W        W33394   8.197   8.379  14.329
69671W        W33395  18.618  34.531   1.279
69672W        W33396  39.469  39.414  12.056
69673W        W33397  21.591  36.492   4.633
69674W        W33398   7.720  17.790  14.963
69675W        W33399  35.995  14.615  11.058
69676W        W33400  23.527  41.832   1.806
69677W        W33401  40.804   0.917   3.289
69678W        W33402   3.761  33.047  12.493
69679W        W33403  35.498   3.768   4.157
69680W        W33404  39.438  30.958   0.363
69681W        W33405   2.330  34.434  14.320
69682W        W33406  20.095   8.378   4.277
69683W        W33407  16.219  28.149   2.751
69684W        W33408  29.637  25.563  14.311
69685W        W33409  34.040  20.233  12.394
69686W        W33410  20.182  17.285  13.505
69687W        W33411  44.982  20.673   1.706
69688W        W33412  42.473  30.928   1.882
69689W        W33413  28.084  42.792   5.265
69690W        W33414  27.192  24.488   2.680
69691W        W33415  31.565  20.235   4.800
69692W        W33416   6.291  22.594  13.842
69693W        W33417  31.513  42.426  13.840
69694W        W33418  18.696  20.209   1.876
69695W        W33419  41.948  31.518  12.435
69696W        W33420  13.316  22.210   3.792
69697W        W33421  22.535  18.280   1.793
69698W        W33422  15.147  44.339   1.442
69699W        W33423  12.652  18.090   0.944
69700W        W33424   6.852  34.050  11.954
69701W        W33425  42.344   8.766  13.010
69702W        W33426  43.793   5.364   3.700
69703W        W33427  10.842  28.570  11.947
69704W        W33428  42.811   8.187  14.369
69705W        W33429   3.308   9.229   3.851
69706W        W33430  24.523  30.969  14.498
69707W        W33431  16.170  25.052   4.680
69708W        W33432  24.591  11.266   3.763
69709W        W33433  13.671   3.342  12.428
69710W        W33434  24.606  31.075  10.475
69711W        W33435  34.553  40.359  14.461
69712W        W33436  28.612  24.713   2.337
69713W        W33437  32.090   3.735   0.273
69714W        W33438  32.578  28.473  11.873
69715W        W33439  26.204  42.784  10.562
69716W        W33440  39.029  25.984   0.965
69717W        W33441  39.451  44.272  13.051
69718W        W33442   7.296  39.418   3.822
69719W        W33443   9.670  26.676   4.323
69720W        W33444  16.669  29.033  13.365
69721W        W33445  34.564  13.129  14.360
69722W        W33446  23.627  10.363   3.209
69723W        W33447  42.013  43.959  13.322
69724W        W33448  41.977  40.927  12.077
69725W        W33449   6.224  25.090  10.158
69726W        W33450  17.198  13.799   0.354
69727W        W33451  22.087  16.274  10.987
69728W        W33452  19.251  35.406  10.462
69729W        W33453  29.978   2.912   4.130
69730W        W33454  40.898  34.408   4.209
69731W        W33455  20.605   3.740   3.367
69732W        W33456  39.976  21.223   4.239
69733W        W33457  19.763  29.026   3.211
69734W        W33458   6.746  11.348  11.571
69735W        W33459  38.418  13.251  11.985
69736W        W33460  30.648  24.649  14.851
69737W        W33461   0.817  14.231   1.306
69738W        W33462  28.094  28.437  14.853
69739W        W33463   5.295   9.653  13.455
69740W        W33464  39.974  40.880   2.291
69741W        W33465  37.556   3.418   3.189
69742W        W33466  12.850  41.381  11.981
69743W        W33467  17.633   0.331  13.498
69744W        W33468  43.503  38.489  11.515
69745W        W33469  27.596  43.293  13.532
69746W        W33470  15.806  22.071   2.727
69747W        W33471  39.960  15.264  11.946
69748W        W33472  17.118  40.310  11.034
69749W        W33473   4.924  43.856  10.422
69750W        W33474  12.322  34.956  14.008
69751W        W33475  38.927  28.564   3.700
69752W        W33476  24.142  41.966   5.123
69753W        W33477  24.481  24.188   1.742
69754W        W33478   0.970  26.488   1.375
69755W        W33479   2.254  20.101   4.649
69756W        W33480   6.867   2.831  14.326
69757W        W33481  29.519  28.084   1.357
69758W        W33482  36.874  41.979   2.672
69759W        W33483   8.224  27.979  12.387
69760W        W33484  38.434  31.534  14.380
69761W        W33485  16.250  18.757   2.403
69762W        W33486  13.663  37.474  14.478
69763W        W33487  12.665  17.099  11.985
69764W        W33488  38.002  28.136  12.340
69765W        W33489  12.319  17.179   4.784
69766W        W33490  16.781   9.274   3.831
69767W        W33491  43.326  25.614  10.459
69768W        W33492  40.452  33.969   5.317
69769W        W33493  34.512   3.265   0.933
69770W        W33494   1.366  20.126  13.903
69771W        W33495  11.694   5.873   3.214
69772W        W33496   6.914  11.194   4.247
69773W        W33497   3.813  11.147   1.882
69774W        W33498   4.304   6.791  11.559
69775W        W33499  36.500  12.299  13.499
69776W        W33500  11.691  27.137  11.079
69777W        W33501  23.070   2.920  14.510
69778W        W33502   4.916  29.634   0.826
69779W        W33503  36.404  18.177   0.326
69780W        W33504  41.343   4.805  14.513
69781W        W33505  11.156  13.685  12.866
69782W        W33506   1.331   2.254   2.877
69783W        W33507  27.507  37.388   3.832
69784W        W33508   1.926   6.894   4.664
69785W        W33509   1.853   1.890  10.424
69786W        W33510  44.386  26.182  12.091
69787W        W33511   9.230   2.829   4.786
69788W        W33512  44.951   5.730   3.682
69789W        W33513  15.220  10.291   2.679
69790W        W33514  44.357  35.371   0.256
69791W        W33515   2.344  33.026   1.789
69792W        W33516  22.641  11.649  11.519
69793W        W33517  11.669  39.422  10.951
69794W        W33518  21.594   2.226  10.586
69795W        W33519  18.608  28.042  11.473
69796W        W33520  22.664  30.165  10.643
69797W        W33521  13.628  21.668   1.210
69798W        W33522  23.624  13.182   4.311
69799W        W33523  35.455  39.922  14.493
69800W        W33524  22.217  11.759  13.500
69801W        W33525   6.276  22.540  11.113
69802W        W33526   1.466  25.470   0.945
69803W        W33527  29.482   6.345   5.244
69804W        W33528  16.626  16.749  13.465
69805W        W33529  35.853   4.242   1.240
69806W        W33530   0.913  26.069  14.803
69807W        W33531  37.872  26.630   1.429
69808W        W33532  44.408  26.644  10.492
69809W        W33533   7.810   9.293  12.552
69810W        W33534  41.515  21.714  13.496
69811W        W33535   4.409  19.100  13.929
69812W        W33536  24.538  15.786   0.368
69813W        W33537   7.396  17.667   1.706
69814W        W33538  39.839   1.265  11.494
69815W        W33539  29.527   2.923   0.460
69816W        W33540  15.586  15.143   3.149
69817W        W33541   7.804   1.862   1.419
69818W        W33542   1.339  13.808  14.949
69819W        W33543  31.028  39.343   1.289
69820W        W33544   9.885  28.008  14.412
69821W        W33545  17.116   4.863   5.094
69822W        W33546   3.915  39.473  14.014
69823W        W33547  28.164  32.025   4.818
69824W        W33548  13.173  21.716  10.609
69825W        W33549  36.357  43.279   1.256
69826W        W33550  20.058  18.547   2.267
69827W        W33551  27.654  38.994  12.403
69828W        W33552   7.292  26.141  10.888
69829W        W33553  36.856  30.981  10.526
69830W        W33554  16.228   1.804  14.795
69831W        W33555   5.251   0.464  13.893
69832W        W33556  28.150  16.621  11.446
69833W        W33557   2.896   3.851   1.391
69834W        W33558  20.032   4.769  11.581
69835W        W33559  26.121  26.980   0.727
69836W        W33560  32.979  40.336  14.992
69837W        W33561   1.284  13.111   1.452
69838W        W33562  34.904  40.055  13.035
69839W        W33563  23.017  25.697  14.464
69840W        W33564  21.254  26.196  11.981
69841W        W33565  11.147  23.654   2.359
69842W        W33566  38.932  14.201   9.978
69843W        W33567   2.930   4.770   4.330
69844W        W33568   2.788  38.014  10.925
69845W        W33569  29.933  24.551   3.728
69846W        W33570  30.567  22.632   2.342
69847W        W33571   2.758  24.525  14.354
69848W        W33572  16.263  14.684  11.945
69849W        W33573  24.519  14.598  12.439
69850W        W33574  42.325  15.214  14.003
69851W        W33575  30.055  18.233  12.023
69852W        W33576  42.959  21.657   1.387
69853W        W33577   2.791   4.303  11.026
69854W        W33578  21.572  43.497   4.208
69855W        W33579  31.088  28.435   4.766
69856W        W33580   3.229  36.848   0.378
69857W        W33581   3.376  42.945  11.895
69858W        W33582  25.035  24.001   2.702
69859W        W33583  18.775  19.556   2.878
69860W        W33584   2.935   6.251  10.581
69861W        W33585  37.356   5.339  12.417
69862W        W33586   7.897  23.532  12.857
69863W        W33587   2.787  37.920  14.797
69864W        W33588  35.453  28.647   4.808
69865W        W33589  19.189   6.848  12.935
69866W        W33590  18.084   8.798  14.846
69867W        W33591  38.045  43.356  14.849
69868W        W33592  15.244  29.175   1.262
69869W        W33593  19.752   1.864   0.959
69870W        W33594  28.476   5.927   4.694
69871W        W33595  23.159  13.284  11.908
69872W        W33596  26.188  29.492   5.746
69873W        W33597   5.917   5.284  11.553
69874W        W33598  31.896   0.358   4.223
69875W        W33599  42.855  44.427   4.698
69876W        W33600  35.073  25.549   4.185
69877W        W33601  13.732  10.687   0.876
69878W        W33602  40.316  14.650   2.758
69879W        W33603  41.794  40.836   1.927
69880W        W33604  21.756  36.400   0.481
69881W        W33605  34.564  18.680  10.491
69882W        W33606  38.450  19.702  12.049
69883W        W33607  38.059  23.594  13.029
69884W        W33608  29.173  36.369  10.622
69885W        W33609  41.907   5.388  11.434
69886W        W33610  23.537  31.919   0.320
69887W        W33611  37.845  21.556   0.857
69888W        W33612  30.953  43.774  14.333
69889W        W33613  26.478   0.870  10.483
69890W        W33614  42.516  30.059   0.917
69891W        W33615   2.924  37.078  12.510
69892W        W33616  33.038  26.561  10.593
69893W        W33617  31.481  20.526  13.506
69894W        W33618  18.592  39.432   4.130
69895W        W33619  38.882   8.229  14.452
69896W        W33620  19.179  32.508  11.040
69897W        W33621   8.746  14.723   2.233
69898W        W33622  36.520  11.645  14.949
69899W        W33623  28.170   6.919   4.160
69900W        W33624  12.218   5.847  11.051
69901W        W33625  32.469  13.175  10.994
69902W        W33626  27.595  40.052  12.024
69903W        W33627  33.617  34.407   1.893
69904W        W33628  23.152  20.272   4.694
69905W        W33629  34.473   0.357   4.673
69906W        W33630  18.772   1.844  14.917
69907W        W33631   9.885  15.234   0.935
69908W        W33632   2.341   4.867   1.284
69909W        W33633  24.014  42.920   0.894
69910W        W33634  19.076  37.032   4.204
69911W        W33635  37.004   2.844   3.674
69912W        W33636  12.721  42.801  12.511
69913W        W33637  41.419  11.189  10.984
69914W        W33638   4.808   4.705   2.715
69915W        W33639  22.511  31.104   0.264
69916W        W33640  39.360   3.379   1.381
69917W        W33641  40.041   5.829  14.932
69918W        W33642   6.302  30.069   2.714
69919W        W33643  28.601  14.100  12.980
69920W        W33644  22.717  33.584  10.418
69921W        W33645  32.901  42.850   5.110
69922W        W33646  41.354  26.001   0.941
69923W        W33647  36.029  34.065   2.778
69924W        W33648   9.373   9.350   2.762
69925W        W33649  23.520   1.463  13.877
69926W        W33650  17.692  27.515   2.717
69927W        W33651  36.871  23.637   3.324
69928W        W33652  12.263  21.145  11.933
69929W        W33653  30.078  39.559   1.827
69930W        W33654  16.181  26.053   4.313
69931W        W33655   0.935  13.170   1.750
69932W        W33656   2.914  19.137  12.578
69933W        W33657  37.980  39.939  14.796
69934W        W33658  28.519   9.653   1.273
69935W        W33659  39.368  38.964   4.218
69936W        W33660   8.298   7.288   4.197
69937W        W33661  23.555  28.473  11.576
69938W        W33662  38.477  44.439   1.791
69939W        W33663   3.956  30.538  10.021
69940W        W33664  44.891  35.365  11.051
69941W        W33665  34.872   5.250   3.234
69942W        W33666  44.001  25.558   0.289
69943W        W33667   5.828  26.048  12.455
69944W        W33668  30.060  32.920   0.320
69945W        W33669  25.679  31.031   3.693
69946W        W33670  17.571  12.233   1.336
69947W        W33671  25.186  35.930  14.977
69948W        W33672  14.113  20.204   1.751
69949W        W33673  44.383   4.297  14.377
69950W        W33674  12.202  30.582   1.350
69951W        W33675  24.189  33.083  13.968
69952W        W33676   2.957  32.080   4.271
69953W        W33677  25.481  28.650   3.373
69954W        W33678  40.048  19.124   1.784
69955W        W33679   5.221   3.282  14.001
69956W        W33680   3.232  24.230  14.776
69957W        W33681  19.077  40.394   3.815
69958W        W33682  41.363  20.233  12.472
69959W        W33683  30.972   6.403  12.997
69960W        W33684  42.878  30.156   0.370
69961W        W33685  13.196  20.162   1.880
69962W        W33686  23.037  23.537   3.309
69963W        W33687  23.506  23.115  12.940
69964W        W33688   3.758  14.142  13.944
69965W        W33689  20.175  30.070   1.276
69966W        W33690  20.144  15.781  12.832
69967W        W33691  38.871  21.175   0.906
69968W        W33692  20.079  18.631   1.314
69969W        W33693  39.932  34.389  12.510
69970W        W33694   6.796  10.740   3.702
69971W        W33695  38.013  20.652   1.879
69972W        W33696  20.584   9.242  11.940
69973W        W33697  17.202   6.684  13.008
69974W        W33698   0.279   8.323  12.075
69975W        W33699   0.316   1.929  10.553
69976W        W33700  17.090  38.521  11.589
69977W        W33701  27.491   0.293  13.965
69978W        W33702  39.967   8.682   4.623
69979W        W33703  16.150   6.256  11.573
69980W        W33704   5.737  28.494   1.288
69981W        W33705  11.368   7.905   4.754
69982W        W33706  15.721  24.633   2.272
69983W        W33707  26.523   2.312   4.136
69984W        W33708  15.275  25.592   2.796
69985W        W33709   9.821  13.219  10.978
69986W        W33710  16.691   1.831   0.914
69987W        W33711   4.778  19.614  13.039
69988W        W33712  44.449   1.467   1.409
69989W        W33713  17.215   6.228   4.283
69990W        W33714  29.045  37.942   0.767
69991W        W33715  39.360  33.529  12.408
69992W        W33716  44.796  36.460   0.316
69993W        W33717  28.615  11.202   2.344
69994W        W33718  27.586  36.394  11.610
69995W        W33719  36.573   4.402   1.836
69996W        W33720  44.820  14.275   1.398
69997W        W33721  17.596  13.293   3.839
69998W        W33722  26.175  41.518  10.961
69999W        W33723  29.029  32.046   2.326
70000W        W33724   8.163  33.577  14.973
70001W        W33725  11.632   1.801  11.864
70002W        W33726   9.724  40.330  12.877
70003W        W33727  39.444  44.968  10.946
70004W        W33728   7.374  36.350   1.385
70005W        W33729   8.370  38.374  11.089
70006W        W33730   2.794  40.826   3.864
70007W        W33731  39.956  28.537  14.785
70008W        W33732   7.785   8.872   2.235
70009W        W33733  16.738  10.311  13.943
70010W        W33734  36.888   8.822  13.477
70011W        W33735  32.520  43.371  12.989
70012W        W33736  41.328  36.887   2.250
70013W        W33737   7.843  43.489  11.874
70014W        W33738  11.157  10.822   2.247
70015W        W33739  43.895  39.511   0.430
70016W        W33740  38.539  34.044   0.794
70017W        W33741  35.526  39.882  11.994
70018W        W33742  18.553  35.445  13.473
70019W        W33743  22.181  18.637  14.490
70020W        W33744  16.112  22.183  12.003
70021W        W33745  15.207   4.905   4.353
70022W        W33746  14.238  40.031   0.369
70023W        W33747  42.975   4.786  10.577
70024W        W33748  11.277  32.960   2.398
70025W        W33749  33.449  19.724  13.499
70026W        W33750  33.459  24.571   1.233
70027W        W33751  43.386   9.781   2.330
70028W        W33752  36.443  41.802  12.845
70029W        W33753  36.573  40.334   1.305
70030W        W33754  42.304  44.998  14.936
70031W        W33755  19.100   8.162  11.523
70032W        W33756  34.551  43.007   0.368
70033W        W33757   4.240  38.000  13.793
70034W        W33758  15.324  12.732  10.481
70035W        W33759  36.473   3.849  13.846
70036W        W33760  26.495  15.159   0.388
70037W        W33761  25.073  21.519  14.965
70038W        W33762  30.448  43.456  10.918
70039W        W33763   8.355  15.260   3.796
70040W        W33764  33.617  11.778   1.243
70041W        W33765  41.374  33.928   9.986
70042W        W33766  29.021  18.674   2.191
70043W        W33767  21.666  11.745   2.307
70044W        W33768  10.855  21.049  14.953
70045W        W33769  33.615   8.318  11.074
70046W        W33770   0.347  26.516   0.824
70047W        W33771  15.210  25.969  14.328
70048W        W33772  21.548  34.901  14.470
70049W        W33773  15.154   6.876  13.469
70050W        W33774  17.141  32.997   2.797
70051W        W33775   0.303  30.118  14.986
70052W        W33776  36.943   0.431   0.950
70053W        W33777  36.016  16.795   4.639
70054W        W33778  10.663  29.172  12.558
70055W        W33779  34.001   0.308  12.496
70056W        W33780   8.175  12.238  12.561
70057W        W33781   0.866   8.673  12.843
70058W        W33782   3.778   7.172  13.348
70059W        W33783  24.035  38.376   3.630
70060W        W33784  37.407  21.652  13.382
70061W        W33785  14.196  38.350   4.135
70062W        W33786  44.835  40.826   0.769
70063W        W33787  42.933  27.027   4.835
70064W        W33788   6.214  21.099   5.095
70065W        W33789   3.233  24.106  11.976
70066W        W33790  29.547  12.690   2.262
70067W        W33791  24.214  22.181  14.940
70068W        W33792  20.142  12.732   1.817
70069W        W33793  32.902  40.848  11.082
70070W        W33794  28.010  28.951   0.295
70071W        W33795  30.120   0.430  11.956
70072W        W33796  18.737  27.146   2.872
70073W        W33797  26.079   4.778  14.325
70074W        W33798  15.214  30.950   2.856
70075W        W33799  22.592  21.615   1.872
70076W        W33800  42.892  25.583   3.221
70077W        W33801  22.010   1.916   0.475
70078W        W33802  16.244  35.002   3.238
70079W        W33803  18.656   5.399  10.474
70080W        W33804  33.422  25.576  10.892
70081W        W33805  20.260  43.994  14.768
70082W        W33806  12.217   1.731  13.465
70083W        W33807   1.452  42.527   0.791
70084W        W33808   2.764  33.512  14.347
70085W        W33809   8.160  13.666   2.895
70086W        W33810  21.191   9.245   4.199
70087W        W33811  15.652   6.308   4.767
70088W        W33812   4.835  10.309   2.247
70089W        W33813  18.755  32.104  12.092
70090W        W33814   3.325  22.070   4.811
70091W        W33815  34.076   3.254  11.585
70092W        W33816   9.817  41.885   0.476
70093W        W33817   1.457  13.111  14.937
70094W        W33818  14.791   0.945  13.973
70095W        W33819  17.074  19.245  12.051
70096W        W33820  29.970  27.001  11.584
70097W        W33821  12.293  28.029  12.504
70098W        W33822  10.711   0.271   1.448
70099W        W33823  13.210  13.346  14.493
70100W        W33824  21.119  36.491  11.514
70101W        W33825   0.821   2.446  14.789
70102W        W33826  25.170  16.800   0.813
70103W        W33827  44.261  11.720  13.831
70104W        W33828  37.375   8.176   3.251
70105W        W33829  31.597  13.329   4.152
70106W        W33830  10.812   2.291   2.380
70107W        W33831  13.326  24.499   2.758
70108W        W33832  37.830  31.617   4.835
70109W        W33833   4.319  28.570  13.328
70110W        W33834  44.448  26.059  11.094
70111W        W33835  44.442  43.958  10.059
70112W        W33836  27.045  27.964  11.547
70113W        W33837  34.523  21.695  13.436
70114W        W33838   8.281  43.876  13.355
70115W        W33839  41.875  32.582   3.771
70116W        W33840  15.107   2.962   4.135
70117W        W33841  37.080   0.424   1.386
70118W        W33842  43.014   6.714  13.896
70119W        W33843   0.795  15.766   9.978
70120W        W33844  38.365  39.428  14.910
70121W        W33845  16.676   7.347  12.908
70122W        W33846  38.487   2.261  11.430
70123W        W33847   8.889  20.114   0.870
70124W        W33848  14.682  15.219  11.920
70125W        W33849   6.850  10.178   0.729
70126W        W33850   9.819   6.210  13.453
70127W        W33851  31.051  13.842   9.929
70128W        W33852  27.035   3.383  13.797
70129W        W33853  44.919  18.199   4.191
70130W        W33854  34.489  32.061   2.902
70131W        W33855  32.590   3.711  10.920
70132W        W33856   1.277  23.050  10.606
70133W        W33857  41.031  28.644  14.843
70134W        W33858  19.730  41.893  12.575
70135W        W33859   6.724  28.998   2.663
70136W        W33860  27.578  12.339   4.650
70137W        W33861   5.247   5.688  10.897
70138W        W33862   9.384  10.205   1.412
70139W        W33863  34.903   0.955   0.896
70140W        W33864  22.042  16.690   3.340
70141W        W33865  13.772  25.968  14.291
70142W        W33866  31.607  12.263   3.773
70143W        W33867  24.039  17.148   3.714
70144W        W33868  38.488   5.433  11.403
70145W        W33869  26.486  17.146   2.368
70146W        W33870  10.851  18.615  11.869
70147W        W33871  36.574  38.069  12.477
70148W        W33872  35.562   5.852   0.368
70149W        W33873  38.831  27.556  14.871
70150W        W33874  20.714  39.383   0.932
70151W        W33875  31.577  23.709   1.353
70152W        W33876  34.561  33.925  11.554
70153W        W33877   3.426  31.562  14.388
70154W        W33878  39.341  40.388   3.773
70155W        W33879  34.577  39.995  13.004
70156W        W33880  27.191   7.353   9.653
70157W        W33881  10.264  43.834   0.392
70158W        W33882  34.560  26.693  13.458
70159W        W33883  16.222  20.223   4.613
70160W        W33884   5.437   9.386   2.867
70161W        W33885   4.372  22.721  14.331
70162W        W33886  34.904   5.399  11.393
70163W        W33887  39.821  27.669   0.262
70164W        W33888  17.579  30.998   2.256
70165W        W33889  22.699  24.072  14.475
70166W        W33890   2.825  43.887   4.706
70167W        W33891  37.470  10.869  11.516
70168W        W33892  17.130   1.320  10.965
70169W        W33893  13.115  20.524  11.536
70170W        W33894  40.497  14.246   1.391
70171W        W33895  44.753  35.472   0.765
70172W        W33896  10.764  39.534  14.321
70173W        W33897  21.037  36.017   1.211
70174W        W33898  26.581  31.920   3.189
70175W        W33899   7.844  22.055  14.964
70176W        W33900   3.366  26.078   0.308
70177W        W33901  10.739  39.497   4.750
70178W        W33902  40.530  38.045  11.114
70179W        W33903  15.122  31.615  10.526
70180W        W33904  32.441  43.767  14.847
70181W        W33905  17.302  29.509   1.820
70182W        W33906   3.444   2.324  12.418
70183W        W33907  10.663  38.072  12.466
70184W        W33908  13.307  39.808  13.024
70185W        W33909   2.363  44.959  12.528
70186W        W33910  19.653  16.776  10.537
70187W        W33911  16.685  14.168  11.381
70188W        W33912   8.727  25.025   3.294
70189W        W33913  40.325  31.468   2.178
70190W        W33914  27.010  24.686   1.927
70191W        W33915  18.727  17.306   1.839
70192W        W33916  32.933  39.506   1.932
70193W        W33917  10.341  19.147  10.423
70194W        W33918  38.481  33.938  14.444
70195W        W33919  38.969  16.171   9.985
70196W        W33920  10.670  32.946  10.934
70197W        W33921  22.038   6.832  11.052
70198W        W33922  38.401  34.079  13.370
70199W        W33923  31.597  43.938  10.465
70200W        W33924   0.931  13.156  11.964
70201W        W33925  25.138  12.349   4.184
70202W        W33926  41.812  16.165  14.338
70203W        W33927  33.057  21.102  10.090
70204W        W33928  32.500   2.759  13.525
70205W        W33929  18.165  40.983   2.673
70206W        W33930  40.905  12.681  14.806
70207W        W33931  24.600   5.329   0.809
70208W        W33932   1.881  19.543   3.680
70209W        W33933  35.029  43.410  14.988
70210W        W33934  13.265  37.550   3.294
70211W        W33935   5.772  30.050  13.870
70212W        W33936   6.749  21.676  13.467
70213W        W33937  44.837  11.801  11.511
70214W        W33938  37.022  15.631   2.805
70215W        W33939  19.740   2.453  10.610
70216W        W33940   5.898  36.063   3.362
70217W        W33941  33.581  18.181   4.834
70218W        W33942  21.581  35.879   3.635
70219W        W33943  33.508  24.009  13.358
70220W        W33944  29.148  35.911  12.392
70221W        W33945  19.745  16.254  12.072
70222W        W33946  40.047  10.879   3.866
70223W        W33947  10.297  41.310   0.352
70224W        W33948  30.634  21.060   1.858
70225W        W33949  36.475  37.467   4.696
70226W        W33950  44.827  39.356   3.751
70227W        W33951  36.009  10.366   1.911
70228W        W33952  21.713  19.111   1.354
70229W        W33953  38.014  16.093   3.817
70230W        W33954  14.832   6.416   0.441
70231W        W33955  30.907  16.089  12.918
70232W        W33956  25.498  19.559   0.923
70233W        W33957  21.203  44.963   3.763
70234W        W33958  12.146  12.673  11.538
70235W        W33959  16.255  24.208   2.789
70236W        W33960  24.562  39.516  11.891
70237W        W33961  30.590   6.271   1.433
70238W        W33962  36.064  20.645   1.298
70239W        W33963  38.876  37.479   4.305
70240W        W33964  40.832  14.292   3.255
70241W        W33965   1.884  42.500   0.779
70242W        W33966  20.263  24.040   2.888
70243W        W33967   1.412   6.761  12.865
70244W        W33968   8.812  16.583   4.720
70245W        W33969  21.621  37.075  14.970
70246W        W33970  27.952  16.214   2.722
70247W        W33971  15.622  32.030   5.259
70248W        W33972  33.041  36.984  12.439
70249W        W33973  42.918   1.815  14.802
70250W        W33974  11.710  30.008   2.797
70251W        W33975  23.024  37.440   4.318
70252W        W33976   1.429  20.683  11.559
70253W        W33977  16.766  10.351   1.752
70254W        W33978  38.883  35.574  11.602
70255W        W33979  42.808  35.866  12.042
70256W        W33980   9.207  20.067  10.891
70257W        W33981  26.644  14.260   4.800
70258W        W33982   1.738  18.766   2.225
70259W        W33983  39.868  38.856  10.450
70260W        W33984  11.740  35.499   1.925
70261W        W33985   9.857  20.742   1.331
70262W        W33986  14.797  19.621   0.768
70263W        W33987   8.846  33.441   1.722
70264W        W33988   7.706   3.448   0.759
70265W        W33989   0.889  35.902   2.198
70266W        W33990  43.302   2.733  14.807
70267W        W33991  28.543  14.298   1.826
70268W        W33992  42.317  28.123  14.787
70269W        W33993  27.151  12.202  11.937
70270W        W33994   6.272  21.632  14.841
70271W        W33995  21.677  26.553   0.796
70272W        W33996  32.937  24.062  11.900
70273W        W33997  20.763  32.960   2.711
70274W        W33998  15.196  11.157  10.466
70275W        W33999   9.715  34.059   4.827
70276W        W34000  13.838  31.617   4.231
70277W        W34001  25.031   6.241   4.299
70278W        W34002  23.190  14.606  10.505
70279W        W34003  14.704  18.087   4.819
70280W        W34004  40.808  18.197   3.788
70281W        W34005  38.825  37.031  13.928
70282W        W34006  43.495  13.236   1.418
70283W        W34007  40.479  29.175   1.841
70284W        W34008  19.546  17.669  10.552
70285W        W34009  15.195  38.471  11.075
70286W        W34010  10.642  19.099   2.678
70287W        W34011  10.320  33.624  11.538
70288W        W34012   6.858  18.630  13.477
70289W        W34013  26.550  21.733  14.391
70290W        W34014   9.807  12.255  11.023
70291W        W34015   3.859  40.315   3.315
70292W        W34016   6.745  24.153  13.938
70293W        W34017  18.651  26.628   3.249
70294W        W34018  23.062  32.433   3.148
70295W        W34019  22.601   0.473   1.879
70296W        W34020  24.121  33.525   2.263
70297W        W34021  25.678  38.859  10.508
70298W        W34022  22.015  21.715  14.300
70299W        W34023  18.062  36.934   3.280
70300W        W34024  30.043  36.508  13.972
70301W        W34025  16.283  35.383   0.731
70302W        W34026  28.607  31.543  10.417
70303W        W34027  30.618   7.868   0.353
70304W        W34028  42.844  29.052   2.300
70305W        W34029  25.125  30.086   2.211
70306W        W34030   2.939  17.738   0.428
70307W        W34031  15.713   1.929  13.942
70308W        W34032   6.768  27.020   1.214
70309W        W34033  23.038  20.248   1.748
70310W        W34034  38.956  25.707   9.937
70311W        W34035   8.378  28.074   4.650
70312W        W34036  16.136  22.605   4.796
70313W        W34037  35.506  37.067  13.542
70314W        W34038  42.302  21.105   1.269
70315W        W34039  28.467   1.962  12.006
70316W        W34040  10.705  32.958  14.300
70317W        W34041  25.507  24.114  11.454
70318W        W34042  41.503  31.939  14.869
70319W        W34043  28.569  19.620  11.042
70320W        W34044  43.383   7.368  13.018
70321W        W34045  33.047   6.700  14.288
70322W        W34046  18.664   2.395  13.802
70323W        W34047  28.458   2.462   4.799
70324W        W34048  13.216   1.446  11.442
70325W        W34049  31.557  24.006  10.526
70326W        W34050  17.077  14.327   3.831
70327W        W34051  18.244  40.899   2.321
70328W        W34052   5.425  17.253  12.452
70329W        W34053  34.473   8.181  11.594
70330W        W34054  18.267  15.622   3.694
70331W        W34055  39.062   7.901  14.506
70332W        W34056   0.869   4.920   4.765
70333W        W34057   9.359  36.081   3.677
70334W        W34058  40.814  40.924   1.795
70335W        W34059  41.363  37.087  11.000
70336W        W34060  38.475  42.919  11.434
70337W        W34061  14.751  18.763  12.859
70338W        W34062  29.488  30.092   0.408
70339W        W34063  14.165  21.070   0.806
70340W        W34064  12.710   0.458  14.483
70341W        W34065  25.519  21.598   4.683
70342W        W34066  18.267  27.579   2.818
70343W        W34067  42.834  25.113   4.203
70344W        W34068  43.894   3.712  10.948
70345W        W34069  22.588   2.424  12.988
70346W        W34070  11.227  19.269  10.573
70347W        W34071  44.925   2.321   3.384
70348W        W34072  35.945  18.629  13.814
70349W        W34073  32.114  34.956   2.178
70350W        W34074   6.758  31.075  10.898
70351W        W34075  32.539  31.599   4.624
70352W        W34076  16.591  32.610  14.823
70353W        W34077  34.451  43.485  11.395
70354W        W34078   3.768  37.357  14.766
70355W        W34079  23.053  16.779  14.496
70356W        W34080  14.661  44.272  13.951
70357W        W34081  39.968   3.882   0.893
70358W        W34082   9.648  32.908   4.724
70359W        W34083  17.250  29.462   3.635
70360W        W34084  38.565  40.359   1.238
70361W        W34085  32.512   3.882  13.942
70362W        W34086   7.333   9.330  12.048
70363W        W34087  39.367  28.092   1.863
70364W        W34088   0.828  35.901  10.462
70365W        W34089  32.089   4.710  12.953
70366W        W34090  28.610  40.337   0.436
70367W        W34091  39.963  41.884   4.138
70368W        W34092  18.130  39.905  13.438
70369W        W34093  33.413   1.733   5.309
70370W        W34094  26.119  32.118   1.220
70371W        W34095  13.824  41.527  13.056
70372W        W34096  24.677  23.568  14.314
70373W        W34097   7.741  41.833  13.926
70374W        W34098   1.758  28.132   2.192
70375W        W34099  26.202   2.235  11.911
70376W        W34100  43.364  18.688   4.630
70377W        W34101  11.239  12.805   0.465
70378W        W34102   3.332  14.638   0.393
70379W        W34103   9.182  13.329   2.202
70380W        W34104   1.379  40.432  14.402
70381W        W34105  34.959  36.854   2.419
70382W        W34106   9.231   3.732  12.351
70383W        W34107   2.781  25.681  12.436
70384W        W34108  19.059  10.653   4.795
70385W        W34109  39.391  29.637   1.788
70386W        W34110  43.311  39.402   0.786
70387W        W34111  18.168  17.294   2.693
70388W        W34112  27.562  23.073   1.223
70389W        W34113  25.124  11.330  11.388
70390W        W34114  15.314  35.986   1.711
70391W        W34115   0.355  34.437  13.421
70392W        W34116  43.975  15.282   0.889
70393W        W34117  18.594  24.047  11.011
70394W        W34118   1.739  23.549  13.489
70395W        W34119   1.399  23.654   0.481
70396W        W34120   5.357   3.227   0.910
70397W        W34121   8.747   8.261  12.454
70398W        W34122  11.267   6.198  14.764
70399W        W34123   4.908  16.157  11.013
70400W        W34124  29.471  26.612  13.817
70401W        W34125   4.424  38.025   4.311
70402W        W34126   4.349  22.103   3.279
70403W        W34127  14.219   3.288   0.398
70404W        W34128   0.434  38.033   0.414
70405W        W34129   1.916  34.441   2.776
70406W        W34130  22.158  21.027   0.459
70407W        W34131  23.016  20.207  11.944
70408W        W34132  23.097  42.923   4.599
70409W        W34133  25.181  14.607  12.973
70410W        W34134  12.751  32.416  12.079
70411W        W34135  26.035  30.140  13.821
70412W        W34136  20.268  34.589   2.255
70413W        W34137  42.936  35.009   2.763
70414W        W34138  13.636  26.550  10.996
70415W        W34139  22.113  10.733   4.736
70416W        W34140  11.188  40.044   4.656
70417W        W34141  31.048  27.194   3.658
70418W        W34142  37.980  24.623  14.893
70419W        W34143  22.560  35.999   0.737
70420W        W34144  29.097  41.915   1.833
70421W        W34145   4.228  44.875  13.878
70422W        W34146   5.898  26.098   0.280
70423W        W34147  41.794  15.302  12.068
70424W        W34148  28.076   5.720   2.210
70425W        W34149  11.313  37.525   2.878
70426W        W34150  32.087  24.512  14.458
70427W        W34151  25.713  42.444   1.785
70428W        W34152  21.132  23.232   3.687
70429W        W34153  30.558  16.234   4.757
70430W        W34154  23.647  33.908   4.829
70431W        W34155  17.207   3.946   3.351
70432W        W34156   8.881   4.868  14.450
70433W        W34157  24.122  36.088   3.344
70434W        W34158  28.963  40.546   4.663
70435W        W34159  38.926   1.951   2.241
70436W        W34160  36.969  21.150  14.380
70437W        W34161  15.667  28.940   0.274
70438W        W34162  35.532  31.148   0.799
70439W        W34163  13.311  30.414   3.816
70440W        W34164  41.439  44.859  12.383
70441W        W34165  40.548  27.028   3.323
70442W        W34166  17.124  44.351  10.098
70443W        W34167  33.423  36.919  11.411
70444W        W34168  40.005  41.787   0.447
70445W        W34169  14.612  35.937  13.840
70446W        W34170  43.440  27.174  10.610
70447W        W34171  35.471  13.655  13.883
70448W        W34172  24.562  36.427  14.849
70449W        W34173  17.797  27.171  11.000
70450W        W34174  35.562  28.516  12.532
70451W        W34175  31.441  39.398   3.650
70452W        W34176  22.702  20.262  12.359
70453W        W34177   4.805  31.594  11.438
70454W        W34178  13.208  35.447  11.467
70455W        W34179  41.029  27.475  12.482
70456W        W34180  10.641  38.960   9.970
70457W        W34181  12.247  10.317  12.970
70458W        W34182  25.177   6.881   1.443
70459W        W34183   2.287  20.238   2.758
70460W        W34184  37.565   5.758   3.810
70461W        W34185  37.040  10.237   0.825
70462W        W34186  40.046   9.668   2.687
70463W        W34187   6.240  28.602   3.190
70464W        W34188  19.627  31.141   4.617
70465W        W34189  28.123   1.922   3.235
70466W        W34190   6.351   2.824   3.690
70467W        W34191  43.889  12.362   0.819
70468W        W34192  43.336  17.560  11.386
70469W        W34193  20.188  19.113   3.798
70470W        W34194  26.577  19.652  10.406
70471W        W34195  38.344  28.064  14.478
70472W        W34196  34.966  41.300   2.770
70473W        W34197   6.785  35.964   4.128
70474W        W34198  39.372   5.769  12.521
70475W        W34199  24.128  39.408  13.064
70476W        W34200  13.803  31.896   3.197
70477W        W34201  24.616  30.607   1.404
70478W        W34202  28.076   8.184  14.393
70479W        W34203  10.839  16.687  12.344
70480W        W34204  27.590  16.288  13.820
70481W        W34205  29.032   5.358   2.382
70482W        W34206   5.761  37.082   3.727
70483W        W34207  36.489   6.373  14.788
70484W        W34208  26.640   4.720   0.842
70485W        W34209   3.307  39.368  13.929
70486W        W34210  35.931  13.655  10.904
70487W        W34211  13.734   2.793   0.782
70488W        W34212  31.146   3.364   1.882
70489W        W34213  33.025  36.540   2.394
70490W        W34214  29.020  41.470   3.803
70491W        W34215  30.023   2.444  13.501
70492W        W34216  32.090  28.524  12.053
70493W        W34217   3.833  26.540   0.345
70494W        W34218   9.706  38.075  12.520
70495W        W34219  14.699  33.913  13.977
70496W        W34220  13.756   1.890  14.287
70497W        W34221   6.236  19.284   0.429
70498W        W34222  34.376   4.403  11.018
70499W        W34223  13.763   4.782  13.857
70500W        W34224   3.224  23.019  11.055
70501W        W34225  34.583  10.237   3.260
70502W        W34226  24.718  21.031   4.751
70503W        W34227  38.842  21.229   3.698
70504W        W34228  10.361  24.080   2.900
70505W        W34229   3.876   8.736  10.041
70506W        W34230  39.452  23.072   2.272
70507W        W34231  27.008  32.093   0.844
70508W        W34232  24.607   3.444  12.831
70509W        W34233  29.152  29.051  10.635
70510W        W34234  13.618  12.844   4.739
70511W        W34235  29.125  29.967  13.973
70512W        W34236  38.442  40.429   0.902
70513W        W34237  26.116   7.783   1.259
70514W        W34238  41.351  25.217   5.214
70515W        W34239  23.492   5.853  11.010
70516W        W34240  12.332  14.673   0.810
70517W        W34241  12.823  12.740   3.729
70518W        W34242  41.961  38.884   3.808
70519W        W34243  33.391  34.492  13.043
70520W        W34244  39.387  12.641   0.246
70521W        W34245  35.536   4.737  14.760
70522W        W34246  41.894  32.564  13.488
70523W        W34247  28.582   7.274   3.381
70524W        W34248  34.054  35.396  14.280
70525W        W34249  35.463  39.369  13.479
70526W        W34250  11.733   3.844  10.956
70527W        W34251  13.787   1.769   3.857
70528W        W34252   4.347  32.394  13.456
70529W        W34253  12.644  32.621  11.605
70530W        W34254   0.823  19.202  11.454
70531W        W34255  26.663   0.912  14.312
70532W        W34256  20.619  42.508  12.067
70533W        W34257  16.164  39.971  12.059
70534W        W34258  27.639  44.984   0.288
70535W        W34259  15.824  17.658   3.230
70536W        W34260  18.089  14.094   1.217
70537W        W34261  24.685   4.794  11.013
70538W        W34262   7.295  10.143  14.030
70539W        W34263  23.101  33.050  14.400
70540W        W34264   2.816  36.381  11.925
70541W        W34265  43.335  43.309  14.789
70542W        W34266  26.617  35.438   2.843
70543W        W34267  23.135  42.898   2.669
70544W        W34268  34.993  12.777  14.908
70545W        W34269  25.102  23.010  10.446
70546W        W34270  22.670   0.257  13.850
70547W        W34271  38.392  41.837  12.523
70548W        W34272  27.452  23.114   3.748
70549W        W34273  19.279  40.910  12.053
70550W        W34274  41.891  35.922   0.392
70551W        W34275   4.759   9.356  12.484
70552W        W34276  44.487  31.416  13.830
70553W        W34277  14.652  10.713  11.990
70554W        W34278  42.865   2.753   1.736
70555W        W34279  29.479  41.845   1.749
70556W        W34280  24.179  26.096   5.123
70557W        W34281   0.337   8.354   0.847
70558W        W34282  16.699  37.516  14.280
70559W        W34283  43.342   1.858   0.901
70560W        W34284  13.812  42.411   3.348
70561W        W34285  35.580  40.904  14.312
70562W        W34286  12.837   8.824   0.374
70563W        W34287  26.207   9.728  12.576
70564W        W34288  17.588  29.483   2.872
70565W        W34289  34.390   3.891  12.860
70566W        W34290   0.365  25.146  14.510
70567W        W34291  10.261   2.385  13.044
70568W        W34292  16.145  39.490   3.822
70569W        W34293   0.960  28.552   1.884
70570W        W34294   1.831  40.471   0.794
70571W        W34295   0.284   7.311   1.266
70572W        W34296  11.695   3.732  14.799
70573W        W34297  11.219  32.909  14.446
70574W        W34298   6.902  37.499   3.862
70575W        W34299  12.655  19.223  12.402
70576W        W34300   1.735  20.594   1.789
70577W        W34301   3.456  33.484  13.428
70578W        W34302  25.492  12.214  12.381
70579W        W34303  15.645  32.401  13.997
70580W        W34304  19.780  35.089   1.402
70581W        W34305   0.937   9.308  13.913
70582W        W34306   6.276  11.135   4.320
70583W        W34307  33.000  24.526   2.774
70584W        W34308  16.310  43.874   2.737
70585W        W34309  38.329   2.383   0.329
70586W        W34310   0.279   1.305   1.338
70587W        W34311  35.556  21.732   0.917
70588W        W34312  39.384   4.768  13.383
70589W        W34313  27.648  39.942  12.856
70590W        W34314   4.430   6.726   0.962
70591W        W34315  39.424  25.212   0.339
70592W        W34316  18.243  22.020   1.730
70593W        W34317   2.242  34.464   2.720
70594W        W34318  34.032  23.707   0.730
70595W        W34319  30.603  34.062   2.302
70596W        W34320  21.627  40.312   4.795
70597W        W34321   5.700  20.261  10.474
70598W        W34322   3.864  27.101   2.675
70599W        W34323  28.475  32.911  14.885
70600W        W34324   0.759   0.765   5.308
70601W        W34325   9.370  10.744   2.769
70602W        W34326  20.123  44.339  12.964
70603W        W34327  39.345  36.990  10.626
70604W        W34328   1.330   1.956  13.851
70605W        W34329   1.945  16.168  10.968
70606W        W34330  23.684  28.051   0.775
70607W        W34331   7.692  44.870  13.937
70608W        W34332  23.015  42.788   1.778
70609W        W34333  24.220   6.422   1.733
70610W        W34334  30.103  29.520  11.052
70611W        W34335  33.941  15.785  14.327
70612W        W34336  16.173  16.131   0.947
70613W        W34337   2.903   1.848  12.840
70614W        W34338  36.366  35.974  14.787
70615W        W34339  29.980   1.905   2.257
70616W        W34340  30.144  15.096   2.690
70617W        W34341  31.642  33.626  13.407
70618W        W34342   3.725  40.852  13.870
70619W        W34343  11.643  14.159   4.195
70620W        W34344   8.292  32.022  12.038
70621W        W34345   7.826  24.706  13.844
70622W        W34346  32.528  24.981   1.247
70623W        W34347   2.239  38.426   0.395
70624W        W34348   8.829  17.593  14.498
70625W        W34349   6.312  26.612   2.824
70626W        W34350  33.588   1.909  14.821
70627W        W34351  23.600  36.358   2.822
70628W        W34352  30.437   6.698   1.919
70629W        W34353  11.623  10.857   4.282
70630W        W34354  24.515  32.938  11.589
70631W        W34355  41.516  14.597   2.378
70632W        W34356  14.096  16.807  11.039
70633W        W34357  20.549  34.403   4.254
70634W        W34358  35.940  17.779  12.555
70635W        W34359  20.552   1.890   0.935
70636W        W34360  33.106  24.150  13.527
70637W        W34361  40.545  28.002  12.341
70638W        W34362   6.892   2.324   1.810
70639W        W34363  40.866  22.685   2.191
70640W        W34364  22.166   3.950  11.009
70641W        W34365  15.636  28.060  14.410
70642W        W34366  15.325   3.219  11.992
70643W        W34367  36.414  10.656  13.997
70644W        W34368  27.150  21.152   4.825
70645W        W34369   9.186  21.611  12.519
70646W        W34370  16.811  28.006  12.014
70647W        W34371  30.074  11.310   2.670
70648W        W34372  13.126  22.114   4.148
70649W        W34373  38.959   6.799   0.390
70650W        W34374  29.141   0.392  12.433
70651W        W34375  27.167  12.202   0.346
70652W        W34376  15.701  40.882   0.928
70653W        W34377   9.193  41.403   4.249
70654W        W34378  27.593   2.838  12.352
70655W        W34379  40.378  26.175  14.772
70656W        W34380   5.773  25.993   3.374
70657W        W34381  27.595  31.019   1.278
70658W        W34382  23.002  13.181   3.652
70659W        W34383  20.768  43.807  12.024
70660W        W34384  39.967  21.065   2.262
70661W        W34385  32.633  24.162  13.852
70662W        W34386   1.337  36.542   4.652
70663W        W34387  21.070  43.934   0.449
70664W        W34388  12.622  19.559   2.773
70665W        W34389  33.012  19.232   1.876
70666W        W34390  21.687  18.760   3.314
70667W        W34391  29.949  42.319   0.968
70668W        W34392  33.448  19.754   1.819
70669W        W34393   3.410  35.562   0.315
70670W        W34394  30.047  29.545   4.287
70671W        W34395  15.320  22.116  11.552
70672W        W34396   8.781   2.457   5.307
70673W        W34397  44.994  35.370  12.397
70674W        W34398  16.165  38.822  14.858
70675W        W34399   6.723  19.279   1.818
70676W        W34400  34.105  15.645  13.855
70677W        W34401  11.238  19.588  11.922
70678W        W34402  32.139  41.935  12.984
70679W        W34403  16.287  42.468   1.694
70680W        W34404  33.530  33.060   1.930
70681W        W34405  39.393  27.619  11.500
70682W        W34406  17.724  15.602   2.690
70683W        W34407   9.672   4.372  14.328
70684W        W34408   6.791  28.020   1.764
70685W        W34409  20.100  26.514   3.351
70686W        W34410  17.742  19.595  11.466
70687W        W34411  30.911  40.457  11.044
70688W        W34412  31.020  21.117  11.118
70689W        W34413  13.817  39.901   0.762
70690W        W34414  38.832   3.272  12.884
70691W        W34415  21.546  33.919  10.900
70692W        W34416  34.899  18.566   4.824
70693W        W34417  37.975   9.847  12.877
70694W        W34418   0.840  27.510   1.882
70695W        W34419  13.171  22.706   0.815
70696W        W34420  24.143  44.915  12.578
70697W        W34421  19.758  29.141  10.930
70698W        W34422  29.451  15.245   4.266
70699W        W34423   8.889  30.630  14.898
70700W        W34424  42.849  23.612   1.724
70701W        W34425   2.455  17.726  10.542
70702W        W34426  10.229  10.142  14.440
70703W        W34427   9.340   7.250   3.780
70704W        W34428  25.068  22.068   2.257
70705W        W34429  16.598  38.060  12.430
70706W        W34430  14.728  27.142   1.219
70707W        W34431   2.882  27.542  14.978
70708W        W34432  29.129   0.911  13.879
70709W        W34433  21.144   4.339   4.251
70710W        W34434  41.380  22.153   9.990
70711W        W34435   0.775  42.304   1.245
70712W        W34436   0.930  30.579  10.888
70713W        W34437   0.264  38.327  14.892
70714W        W34438  22.245  16.305  12.519
70715W        W34439  11.776  17.583   4.815
70716W        W34440  21.185   2.393   0.400
70717W        W34441   4.236   2.756  10.436
70718W        W34442   6.711  19.747   0.742
70719W        W34443   9.744  11.163  12.016
70720W        W34444   3.373  30.063   1.717
70721W        W34445  15.709  13.617  13.467
70722W        W34446  17.105  16.587  13.525
70723W        W34447  37.081  32.637   3.290
70724W        W34448  41.460  28.150  11.918
70725W        W34449   1.886  34.544   2.209
70726W        W34450   9.160  14.808   3.764
70727W        W34451   6.829  13.668  12.998
70728W        W34452  39.549  38.495   1.857
70729W        W34453  23.724   2.442  10.562
70730W        W34454  25.117  12.142   0.739
70731W        W34455  29.485  18.190  13.034
70732W        W34456  25.192   1.913   0.311
70733W        W34457  30.962   1.239   0.309
70734W        W34458  30.419  11.350   0.275
70735W        W34459  21.689  11.751   4.758
70736W        W34460   9.747  25.629  14.509
70737W        W34461   8.691   0.932   0.303
70738W        W34462   4.700   7.406   3.831
70739W        W34463  11.164   8.277  12.935
70740W        W34464   1.736  10.707   2.844
70741W        W34465  37.369  20.756   0.317
70742W        W34466   9.746  20.567  14.895
70743W        W34467  33.876  36.972  14.858
70744W        W34468  17.089  13.603   3.742
70745W        W34469   1.784   2.383  14.857
70746W        W34470  32.522  38.075  11.545
70747W        W34471  14.806   0.922  10.154
70748W        W34472   8.736  25.635   1.317
70749W        W34473  11.771  39.835   9.948
70750W        W34474  24.046  38.927  13.899
70751W        W34475  23.186  27.689   2.842
70752W        W34476  25.983   2.728   2.395
70753W        W34477  29.630   7.794  10.441
70754W        W34478  13.289   8.688  11.042
70755W        W34479   5.242  28.678   3.712
70756W        W34480  22.056   7.691  10.518
70757W        W34481   1.963   0.319  11.505
70758W        W34482  34.967  28.457  10.557
70759W        W34483  31.623  21.614   4.655
70760W        W34484   6.801  14.692  11.374
70761W        W34485  36.437  34.561   1.719
70762W        W34486  25.597  38.350  14.009
70763W        W34487  25.640  35.876  14.947
70764W        W34488   7.700  23.521   4.275
70765W        W34489  15.280  11.259   0.871
70766W        W34490  25.985  11.771  13.349
70767W        W34491  35.960  17.124   3.334
70768W        W34492  11.323  38.019  14.446
70769W        W34493  32.515   4.709   4.176
70770W        W34494  30.021  10.343  14.320
70771W        W34495  43.369  16.129  12.907
70772W        W34496   4.213  14.241   3.263
70773W        W34497  44.861  40.328  10.448
70774W        W34498  13.605  22.058  13.517
70775W        W34499  21.246  38.021   0.879
70776W        W34500  26.589  24.129   2.886
70777W        W34501  28.138   3.407   2.880
70778W        W34502  38.075  18.171   4.716
70779W        W34503   5.687  13.215  14.510
70780W        W34504  26.659   1.789   4.806
70781W        W34505  42.012   3.301  14.369
70782W        W34506  25.637  43.849  13.427
70783W        W34507  44.405  30.557   2.391
70784W        W34508  26.469  29.039  11.048
70785W        W34509  30.971  26.572  13.855
70786W        W34510  20.601  37.834   2.722
70787W        W34511  44.372   5.214  10.959
70788W        W34512  12.325  10.773   2.818
70789W        W34513  31.099  32.087   5.118
70790W        W34514   7.282  42.343   4.779
70791W        W34515   9.834  17.707   2.890
70792W        W34516   6.344  32.053  13.056
70793W        W34517  41.880  41.380   3.207
70794W        W34518  38.904   3.371  13.849
70795W        W34519   9.322  12.295   4.726
70796W        W34520  29.517  27.686  11.521
70797W        W34521   3.334  27.491   2.742
70798W        W34522  11.353  37.067  14.838
70799W        W34523  36.521  15.777   2.351
70800W        W34524  11.743  39.342   0.318
70801W        W34525  30.639  36.435  11.918
70802W        W34526  14.721  17.139  12.900
70803W        W34527   4.388  38.942   1.264
70804W        W34528  44.794  26.478   2.829
70805W        W34529  32.425   9.331   4.675
70806W        W34530   8.214   4.245  13.355
70807W        W34531   6.825  15.737  14.461
70808W        W34532   8.239   4.807   1.243
70809W        W34533  31.487  16.183  14.300
70810W        W34534  16.689  19.657   1.238
70811W        W34535  21.552  21.565  14.463
70812W        W34536  29.572  33.027   1.409
70813W        W34537  31.048  16.795   1.861
70814W        W34538   2.362   3.760   2.241
70815W        W34539   8.188  18.726   4.174
70816W        W34540   1.423  18.102   3.783
70817W        W34541   9.175  24.579   2.413
70818W        W34542   4.439  31.923  10.967
70819W        W34543  28.604   5.358  12.563
70820W        W34544  41.882   1.968  12.895
70821W        W34545  44.415  44.830  14.290
70822W        W34546  21.599  24.186  13.432
70823W        W34547  12.215  27.579  13.896
70824W        W34548  41.846  32.442   0.795
70825W        W34549  22.624  21.541  14.313
70826W        W34550  40.820  31.008   2.336
70827W        W34551  36.427   3.848  12.444
70828W        W34552  31.937  44.776  10.518
70829W        W34553  15.087  19.619  11.966
70830W        W34554  13.675  12.784  13.377
70831W        W34555  28.971  44.354   4.780
70832W        W34556   1.311   3.331   0.919
70833W        W34557   7.828  33.976  13.954
70834W        W34558  42.367   0.777  11.883
70835W        W34559  12.822  25.657   1.745
70836W        W34560  42.927  34.418   0.324
70837W        W34561  31.938   2.470   3.277
70838W        W34562  35.445   7.246  12.405
70839W        W34563  44.789  12.689   0.409
70840W        W34564   4.282   3.922   3.299
70841W        W34565  43.372  41.417   2.316
70842W        W34566  26.598   7.261  12.521
70843W        W34567   7.400  37.983   0.937
70844W        W34568  22.162  34.381   1.880
70845W        W34569   8.759  20.530   2.840
70846W        W34570  14.331  31.061  14.807
70847W        W34571  41.440   8.374   3.635
70848W        W34572  12.191  38.908   0.399
70849W        W34573  44.984   0.933   3.724
70850W        W34574  43.274  32.098   1.847
70851W        W34575  23.684  21.642  10.951
70852W        W34576  29.085  43.330   4.737
70853W        W34577  44.920  40.479   4.212
70854W        W34578  42.368  40.332   3.251
70855W        W34579  13.227   4.263   5.098
70856W        W34580   6.761  26.474   2.212
70857W        W34581  22.054  11.329  13.063
70858W        W34582   5.716  26.091  11.967
70859W        W34583   7.362  11.732   0.348
70860W        W34584  16.222  21.613   0.928
70861W        W34585  43.996  10.735  10.555
70862W        W34586  28.180   6.409  12.406
70863W        W34587  22.158  36.570  12.477
70864W        W34588  38.341  33.510  12.921
70865W        W34589  11.705  19.553  14.510
70866W        W34590  44.805  22.015  13.899
70867W        W34591   1.375  25.163  14.285
70868W        W34592   6.280  37.845   1.815
70869W        W34593  35.560  18.638   2.870
70870W        W34594  40.491  12.177  13.008
70871W        W34595  17.191  36.565  13.034
70872W        W34596  11.335  28.540   3.205
70873W        W34597  11.306   4.867   1.906
70874W        W34598  30.958  43.830  13.997
70875W        W34599  22.666  41.369   2.187
70876W        W34600  43.870  34.042   0.305
70877W        W34601  35.992  15.319   5.180
70878W        W34602   3.311  26.661  12.473
70879W        W34603  26.006  28.033  10.131
70880W        W34604  17.143  38.052   4.186
70881W        W34605  21.542   7.227   3.350
70882W        W34606  36.098  10.182   3.867
70883W        W34607  22.728  19.619   2.899
70884W        W34608  19.727  23.614  14.461
70885W        W34609  36.066  44.865   2.697
70886W        W34610  19.186  28.658   2.328
70887W        W34611  31.916   4.297   4.334
70888W        W34612  44.417  19.281   3.155
70889W        W34613  29.435  17.193   1.252
70890W        W34614  21.102  30.472   3.850
70891W        W34615   9.771   1.745  10.417
70892W        W34616  40.811  15.675   4.788
70893W        W34617   3.258  21.246   3.780
70894W        W34618   9.291  28.977   5.300
70895W        W34619   6.419  25.011  14.925
70896W        W34620  27.069  13.209   4.350
70897W        W34621   3.712  25.577   2.899
70898W        W34622  23.135  40.823  13.439
70899W        W34623  36.435   0.324  13.057
70900W        W34624  30.929  18.278   4.160
70901W        W34625  19.090  44.975   1.792
70902W        W34626   7.851   3.854  12.937
70903W        W34627   7.362  43.937  13.936
70904W        W34628  21.686   6.228  12.876
70905W        W34629  18.553  11.313   3.693
70906W        W34630  14.137  22.601   0.959
70907W        W34631  35.867  44.403   4.308
70908W        W34632  41.838  19.064  13.444
70909W        W34633  35.583  40.337   2.209
70910W        W34634  13.314  28.087   3.809
70911W        W34635   8.373  14.591   5.150
70912W        W34636  32.990  36.574   4.209
70913W        W34637   2.381  31.466   4.285
70914W        W34638  38.067  35.893   1.370
70915W        W34639  33.481  33.406  14.848
70916W        W34640  32.138  10.244  14.306
70917W        W34641  27.063  30.014  13.359
70918W        W34642  44.281   5.823   1.694
70919W        W34643  41.994  29.042  10.518
70920W        W34644  30.950  13.316   0.802
70921W        W34645  28.977  30.488   1.254
70922W        W34646  27.194   3.326   1.391
70923W        W34647  32.912   8.715   1.353
70924W        W34648   5.420  29.066   4.209
70925W        W34649   2.732  41.818   4.685
70926W        W34650  23.136  27.466  11.860
70927W        W34651  21.605   1.838   4.837
70928W        W34652  30.923  10.269   0.283
70929W        W34653  38.555  42.832   0.310
70930W        W34654  15.286  25.653  12.501
70931W        W34655  17.278  36.915   4.754
70932W        W34656   2.744  26.677  10.139
70933W        W34657   3.835  34.539  12.572
70934W        W34658  35.918  22.583   4.832
70935W        W34659  14.310  27.570   2.379
70936W        W34660  36.898  33.018   0.334
70937W        W34661   9.275  15.110  13.542
70938W        W34662  36.489  36.002  11.419
70939W        W34663  24.006  40.376  12.930
70940W        W34664  29.067  43.416  11.967
70941W        W34665  34.929  31.969  13.919
70942W        W34666  17.557  12.816  10.556
70943W        W34667   8.395  33.992  13.524
70944W        W34668  40.911  30.928   0.314
70945W        W34669  13.287  19.151   3.824
70946W        W34670   9.889  33.112   0.405
70947W        W34671  37.363  14.636  14.897
70948W        W34672  21.727  12.267  10.493
70949W        W34673   1.471  22.093   3.319
70950W        W34674  21.159  21.034   2.348
70951W        W34675  27.149  27.974   0.264
70952W        W34676  17.169  11.760   3.277
70953W        W34677  36.466  41.458   3.696
70954W        W34678  30.613   1.346  10.521
70955W        W34679  33.046  12.298   0.404
70956W        W34680  23.653  35.887   4.237
70957W        W34681  19.652   2.303   2.237
70958W        W34682  22.650  30.417   1.876
70959W        W34683  17.233  21.094  10.950
70960W        W34684  28.092  43.787  12.539
70961W        W34685   3.355  26.133   4.763
70962W        W34686  35.957  25.978   3.725
70963W        W34687  31.545   2.264  11.610
70964W        W34688   6.302   2.308  14.413
70965W        W34689  16.315   9.267  13.397
70966W        W34690  30.437  21.100   2.852
70967W        W34691  14.658  33.437   4.225
70968W        W34692   1.767  20.706  11.115
70969W        W34693  32.390  10.238  11.003
70970W        W34694  38.422  30.157   1.747
70971W        W34695  14.693  31.112  11.536
70972W        W34696  19.124   5.403  13.959
70973W        W34697   3.934  34.057   4.261
70974W        W34698  11.783  44.325   0.843
70975W        W34699   3.857  13.748  11.426
70976W        W34700  26.696   3.773   3.756
70977W        W34701  21.599  43.017   2.752
70978W        W34702  43.780   3.774   0.926
70979W        W34703   6.363  38.885   1.905
70980W        W34704  15.175  39.452   4.783
70981W        W34705  23.014  37.007   4.729
70982W        W34706  18.608  13.241  14.847
70983W        W34707  23.151  21.198   2.865
70984W        W34708  43.012  28.655  11.605
70985W        W34709  29.119  40.903   1.754
70986W        W34710  18.627   9.824   1.862
70987W        W34711  17.109  36.480  10.593
70988W        W34712   6.692  32.509   2.703
70989W        W34713  27.484  30.452  11.459
70990W        W34714   6.391  27.174   2.239
70991W        W34715   1.359  12.225   4.665
70992W        W34716  41.022  36.551  14.323
70993W        W34717  37.373   2.231   0.292
70994W        W34718  34.053  24.983   2.334
70995W        W34719  41.993  16.782  14.031
70996W        W34720  22.084  39.841   2.250
70997W        W34721  28.442  19.097  13.016
70998W        W34722  40.838  29.077   0.470
70999W        W34723   3.315  18.110   1.844
71000W        W34724  32.044  29.622  13.363
71001W        W34725  25.106  31.908  10.601
71002W        W34726  24.525  35.398  12.448
71003W        W34727  32.957  38.439  12.835
71004W        W34728  38.383  38.926  14.309
71005W        W34729   3.407  12.205   0.307
71006W        W34730  25.194  34.406   2.352
71007W        W34731  12.734  12.194   0.773
71008W        W34732  20.094  32.902   3.662
71009W        W34733  30.463   3.234   3.787
71010W        W34734  39.353   3.955   1.379
71011W        W34735  30.480   2.439   1.271
71012W        W34736  30.628  37.428  12.929
71013W        W34737  22.235  41.992  12.995
71014W        W34738  13.795  40.518  14.282
71015W        W34739   4.911   4.746   4.759
71016W        W34740   9.757  34.937   1.713
71017W        W34741  32.917   3.893   2.822
71018W        W34742  43.321  40.027   0.264
71019W        W34743  29.147  12.665  11.901
71020W        W34744  30.010  14.203   4.224
71021W        W34745  14.653  10.650  14.943
71022W        W34746  11.839  31.095   1.796
71023W        W34747  40.309   7.690  12.030
71024W        W34748  27.013  18.702   4.158
71025W        W34749  28.013  24.591  13.939
71026W        W34750  38.355  29.010   2.345
71027W        W34751  20.645  31.992   1.339
71028W        W34752  13.297  19.105  10.636
71029W        W34753  29.442  22.112  14.995
71030W        W34754  37.428  28.153  12.869
71031W        W34755  37.986  18.726   4.173
71032W        W34756  31.121  41.473  13.392
71033W        W34757  31.530   6.795  12.419
71034W        W34758  12.769  33.531   9.989
71035W        W34759  38.867  43.964  12.020
71036W        W34760  43.939  25.118   3.266
71037W        W34761  28.140  29.536   4.612
71038W        W34762   9.308  38.567  14.939
71039W        W34763  42.442  12.744  13.501
71040W        W34764  21.171  24.092  11.049
71041W        W34765   2.878  30.655  11.888
71042W        W34766   3.876  18.625   1.857
71043W        W34767  23.148  32.087  14.826
71044W        W34768  32.603  11.839  11.558
71045W        W34769  28.602  37.924  11.439
71046W        W34770  16.742   3.321   4.634
71047W        W34771  17.714  36.032  11.554
71048W        W34772  24.504  14.795   3.733
71049W        W34773  33.999  36.351   4.627
71050W        W34774  42.992   1.395   3.771
71051W        W34775   1.776  28.015  11.024
71052W        W34776  39.015  37.922  13.536
71053W        W34777  29.533  31.074  14.818
71054W        W34778   4.355  38.436  14.767
71055W        W34779   3.887  23.047   1.231
71056W        W34780  41.977  24.168   0.881
71057W        W34781  24.683  15.748   0.791
71058W        W34782  21.548  12.187  12.470
71059W        W34783  32.941  23.158   0.386
71060W        W34784  39.835   4.875  11.484
71061W        W34785  16.677  41.028   3.244
71062W        W34786  35.597  38.336  11.494
71063W        W34787  22.094   7.670  14.511
71064W        W34788  22.141  22.710   1.791
71065W        W34789  43.285  36.434   4.262
71066W        W34790   2.891  43.984   4.294
71067W        W34791   3.778  15.769   3.330
71068W        W34792  29.110  18.176  13.928
71069W        W34793  14.146   2.904  12.943
71070W        W34794   0.422  37.949   1.398
71071W        W34795  24.002  33.482   0.347
71072W        W34796  12.213   9.176   0.735
71073W        W34797  41.384  43.281   5.293
71074W        W34798  16.308   3.771   3.289
71075W        W34799   0.774  10.805  12.985
71076W        W34800  22.130  39.492  12.961
71077W        W34801  22.222  32.093  10.104
71078W        W34802  32.925  25.997   1.340
71079W        W34803   5.298  24.974   4.222
71080W        W34804  38.845   7.293  11.392
71081W        W34805  37.044   0.376   2.249
71082W        W34806   1.356  32.985   3.344
71083W        W34807   7.240  33.431   2.793
71084W        W34808  42.453  30.073  11.022
71085W        W34809  21.742  40.541   5.265
71086W        W34810  14.599  39.018   4.780
71087W        W34811  13.621  43.448   0.334
71088W        W34812  32.905  30.500  11.488
71089W        W34813  24.593  28.180   9.497
71090W        W34814  30.502  20.070  13.833
71091W        W34815  29.043   6.804   0.324
71092W        W34816  37.379  14.748  10.582
71093W        W34817  21.149  24.081  12.949
71094W        W34818   8.682  21.132  10.545
71095W        W34819  38.057  30.489  12.492
71096W        W34820  22.191  26.698   4.696
71097W        W34821  13.813  32.036   4.248
71098W        W34822  17.728  16.772   2.894
71099W        W34823   4.750  18.155   2.671
71100W        W34824   1.945   2.236  11.875
71101W        W34825  19.212   1.290   3.209
71102W        W34826  20.608  11.843  12.431
71103W        W34827  20.196  37.513   4.702
71104W        W34828   6.311  37.046   3.218
71105W        W34829  28.541  27.588  14.482
71106W        W34830  18.623  18.757  11.944
71107W        W34831   1.425  44.322  14.809
71108W        W34832   2.323  31.571  12.386
71109W        W34833   9.244   3.292  12.081
71110W        W34834   2.820  42.379   1.796
71111W        W34835  43.856  36.409  13.984
71112W        W34836  43.990  22.141  14.998
71113W        W34837  24.711  20.201   1.215
71114W        W34838  43.947  26.590  10.550
71115W        W34839   3.818   4.421   2.352
71116W        W34840  18.746  26.104  10.549
71117W        W34841  40.397  41.968  12.987
71118W        W34842  13.831  15.101   1.816
71119W        W34843  17.154   4.793  14.842
71120W        W34844  22.065  39.492   4.143
71121W        W34845   1.384  10.744   0.916
71122W        W34846  20.046  43.969  13.442
71123W        W34847  16.276  20.144   3.319
71124W        W34848  12.674  12.332  13.363
71125W        W34849   6.908  33.561  12.930
71126W        W34850   2.859   3.932   4.641
71127W        W34851  17.666   9.862  14.385
71128W        W34852  12.838  41.822   1.426
71129W        W34853  41.359   3.419   1.883
71130W        W34854  27.497  44.472  11.532
71131W        W34855   1.738  24.663  12.534
71132W        W34856   5.311  12.316  13.491
71133W        W34857  12.170  41.834  13.496
71134W        W34858  14.740   4.289  14.289
71135W        W34859  41.512   2.897   2.723
71136W        W34860   1.421  37.352   2.740
71137W        W34861  13.233  16.211   4.736
71138W        W34862  17.637  38.495  12.490
71139W        W34863   3.280   3.947   0.853
71140W        W34864  27.630  11.320  11.093
71141W        W34865  23.070  37.550   3.192
71142W        W34866   9.762  22.054   1.718
71143W        W34867  37.376   1.974  12.439
71144W        W34868   3.285   8.360  11.959
71145W        W34869  36.943  26.105   2.369
71146W        W34870   4.431  25.591  14.400
71147W        W34871  42.929  20.708  12.516
71148W        W34872  24.102   5.385   0.460
71149W        W34873  18.783  22.098   3.263
71150W        W34874  10.734  28.947  11.541
71151W        W34875  32.035  26.565   0.247
71152W        W34876  28.578   9.261   1.781
71153W        W34877  24.672   3.784   3.267
71154W        W34878  37.455  22.236  10.154
71155W        W34879  16.567  30.479   1.239
71156W        W34880  32.472  33.520  12.405
71157W        W34881   2.373  20.218   2.270
71158W        W34882  21.624  43.498   0.798
71159W        W34883  17.155  42.415   4.692
71160W        W34884  41.346   3.342  14.511
71161W        W34885   6.801   9.848  11.863
71162W        W34886  37.477  34.922  13.023
71163W        W34887  27.645  42.343   4.627
71164W        W34888  42.346  28.638  13.820
71165W        W34889   2.809  41.358  10.548
71166W        W34890   2.293  14.252   0.911
71167W        W34891  27.122  28.164   2.301
71168W        W34892  29.986  43.801   2.848
71169W        W34893   1.737  21.649  11.468
71170W        W34894  42.500  24.106  12.507
71171W        W34895  41.027  13.768   0.954
71172W        W34896  28.563  27.588   3.630
71173W        W34897  44.339  15.617  14.968
71174W        W34898  43.821  43.937  12.528
71175W        W34899  23.546   3.461   4.744
71176W        W34900  33.084   9.734  11.489
71177W        W34901  37.541  14.683   3.654
71178W        W34902  11.279  34.564  13.309
71179W        W34903  19.116   6.280   0.424
71180W        W34904  10.320   0.393   1.712
71181W        W34905  33.988  12.315   3.270
71182W        W34906  40.336   5.919  14.989
71183W        W34907   3.331  26.124  13.036
71184W        W34908   7.771  24.489  11.071
71185W        W34909  16.264   7.745  14.515
71186W        W34910  26.177  43.447  12.966
71187W        W34911  27.584  26.498   1.822
71188W        W34912   3.328  32.510  11.481
71189W        W34913  32.941   4.780  10.941
71190W        W34914  32.544   6.413   0.762
71191W        W34915  34.052  20.032   4.310
71192W        W34916  43.837  44.808   4.177
71193W        W34917  13.164   9.654  10.571
71194W        W34918  10.321  24.230  11.867
71195W        W34919   6.200  42.984  11.951
71196W        W34920  24.165  27.089   5.572
71197W        W34921  14.761  40.847   3.257
71198W        W34922  42.881  23.702   0.430
71199W        W34923  28.148  44.361  14.826
71200W        W34924  17.752  42.895   2.346
71201W        W34925  23.209  38.469  14.799
71202W        W34926  17.274  42.512  10.460
71203W        W34927  22.672  27.055  14.305
71204W        W34928  37.479  30.439  11.378
71205W        W34929  33.978   4.437  10.413
71206W        W34930  28.436  38.900   4.700
71207W        W34931  36.066  28.609   1.369
71208W        W34932   5.710   4.736  11.604
71209W        W34933  21.581   1.819  14.496
71210W        W34934  26.969  34.479   0.765
71211W        W34935  17.284  17.179   1.333
71212W        W34936  33.468  32.608   0.257
71213W        W34937  19.632  35.598   4.619
71214W        W34938  18.196  37.434  10.608
71215W        W34939   4.873  30.146  12.413
71216W        W34940  26.580  42.362   2.712
71217W        W34941  23.502  32.045   4.143
71218W        W34942  13.622  18.545   0.761
71219W        W34943  36.096  16.101   9.927
71220W        W34944  38.020  20.716  11.405
71221W        W34945  24.596  31.038   5.590
71222W        W34946  12.658  14.151   4.660
71223W        W34947  29.545  27.942   5.313
71224W        W34948  23.088  30.061   0.770
71225W        W34949  13.736  40.320   2.768
71226W        W34950  33.428   4.719  13.437
71227W        W34951  34.555  35.958  14.386
71228W        W34952  39.846   7.684  14.799
71229W        W34953  23.092  33.110   2.783
71230W        W34954   4.944  34.445   4.188
71231W        W34955   2.758  37.985   0.909
71232W        W34956  40.942  29.532   2.821
71233W        W34957   2.346  15.086  10.892
71234W        W34958   6.720  16.635  12.855
71235W        W34959  40.309   8.209   1.790
71236W        W34960  13.720  14.328  14.880
71237W        W34961   9.845  30.128   0.385
71238W        W34962  11.199  22.686  12.367
71239W        W34963   6.855  13.195  14.879
71240W        W34964  25.172  36.448  11.371
71241W        W34965  38.076  27.493   2.336
71242W        W34966  19.210  36.021   3.161
71243W        W34967  39.480   7.768  14.289
71244W        W34968  17.768  23.195  14.799
71245W        W34969  27.970  33.547   1.899
71246W        W34970  24.613   2.384   0.936
71247W        W34971  12.258  44.805   3.730
71248W        W34972  10.706  42.527   1.896
71249W        W34973  23.562  17.100  10.503
71250W        W34974  14.309  37.933   0.365
71251W        W34975  11.847  24.600  14.331
71252W        W34976  21.709  18.613  13.477
71253W        W34977  36.897   3.339  13.313
71254W        W34978  21.147  25.649   3.856
71255W        W34979  36.030  44.836   1.719
71256W        W34980  43.765  11.144  14.290
71257W        W34981  38.022   7.337  12.403
71258W        W34982   7.834  41.391  14.993
71259W        W34983  20.587  35.421   4.761
71260W        W34984  32.440  21.251   0.283
71261W        W34985  34.565   2.450   2.253
71262W        W34986  42.971  34.984  12.077
71263W        W34987  11.300   1.763   3.341
71264W        W34988  17.583  39.818   4.122
71265W        W34989   8.175  29.557   1.235
71266W        W34990  40.802  40.369   3.653
71267W        W34991  20.590  23.241   1.432
71268W        W34992  21.732  12.706   0.927
71269W        W34993  39.876  10.729   0.394
71270W        W34994  44.969  12.834   3.318
71271W        W34995   7.193  22.044  13.440
71272W        W34996  38.941  19.046   4.679
71273W        W34997  29.593  42.291   4.272
71274W        W34998  33.386  38.860   4.332
71275W        W34999  38.405  41.470  11.012
71276W        W35000  15.218   5.418   3.285
71277W        W35001  28.019  38.565   2.837
71278W        W35002  10.151  14.160  10.553
71279W        W35003   7.257   3.288   1.324
71280W        W35004  29.664  39.455  10.536
71281W        W35005  44.486  36.883   9.564
71282W        W35006  19.639  32.929   0.845
71283W        W35007  41.410  16.720   1.274
71284W        W35008  42.879  43.872  12.577
71285W        W35009  17.644  39.425  12.434
71286W        W35010  11.853  26.566   3.807
71287W        W35011  43.766  32.893  13.389
71288W        W35012  24.117  32.092   4.278
71289W        W35013  31.092   2.382   0.889
71290W        W35014   0.297  39.551   2.871
71291W        W35015  40.852   5.228   3.689
71292W        W35016  35.045  28.178  14.420
71293W        W35017  34.522  42.524   0.821
71294W        W35018  36.430  20.271   4.627
71295W        W35019  30.440  34.091   3.672
71296W        W35020  30.992  12.329   0.366
71297W        W35021  16.663  19.239  10.427
71298W        W35022  39.513  21.160  12.827
71299W        W35023  26.498  13.636  10.644
71300W        W35024   5.888   0.952  10.988
71301W        W35025   1.962   4.253  10.484
71302W        W35026  30.455  11.685  13.526
71303W        W35027   9.275  20.250   3.829
71304W        W35028  43.939  36.425  12.380
71305W        W35029  25.073   3.389   2.804
71306W        W35030  31.447  15.289  10.946
71307W        W35031  34.018  44.876   2.869
71308W        W35032  16.626   0.317   4.795
71309W        W35033  19.239   4.828  11.046
71310W        W35034   4.375   2.760   3.346
71311W        W35035   7.250  21.754   1.710
71312W        W35036  24.554  19.735   1.822
71313W        W35037  10.822  44.974   0.446
71314W        W35038  26.643  12.228  13.837
71315W        W35039  39.903  34.023   2.383
71316W        W35040  31.046  10.729  13.391
71317W        W35041  28.942  44.853  13.053
71318W        W35042  44.924  23.722  11.586
71319W        W35043  10.763  13.126   2.864
71320W        W35044  25.158  38.868  11.467
71321W        W35045  39.341  22.021   2.335
71322W        W35046  35.521  28.963   1.740
71323W        W35047  32.075   0.406  11.526
71324W        W35048  38.571  24.700   1.306
71325W        W35049   0.807   9.343  12.965
71326W        W35050   5.690   8.168   1.323
71327W        W35051  14.250  26.179   4.612
71328W        W35052  10.333  16.742   3.381
71329W        W35053  40.024  13.810   2.804
71330W        W35054  23.520  28.540  13.846
71331W        W35055  11.131  26.017  14.419
71332W        W35056  35.955   8.789  10.450
71333W        W35057  25.506  34.414  12.844
71334W        W35058  28.662  19.146   1.232
71335W        W35059   5.223  38.918   0.317
71336W        W35060  16.655  25.527   1.445
71337W        W35061   8.400   9.759  13.986
71338W        W35062  41.853  44.833  12.380
71339W        W35063   7.269  43.371   0.800
71340W        W35064  44.450  16.167  10.955
71341W        W35065  15.782  13.722  13.979
71342W        W35066  43.376   4.365   4.266
71343W        W35067  26.169   8.693   2.875
71344W        W35068  22.251   7.343   0.395
71345W        W35069  23.201  28.128  12.971
71346W        W35070  21.615  32.630   1.707
71347W        W35071  15.136   8.369   4.680
71348W        W35072  25.520  26.066   2.853
71349W        W35073   0.815  11.823   1.258
71350W        W35074  38.396  44.265   4.601
71351W        W35075   0.835  41.906  14.934
71352W        W35076  38.564   3.897  13.345
71353W        W35077  17.618  24.123   3.334
71354W        W35078  44.289   1.955  10.449
71355W        W35079  40.419  39.978   0.311
71356W        W35080  11.268   8.818  13.054
71357W        W35081  31.008   2.285   2.703
71358W        W35082   4.443  13.677  13.933
71359W        W35083  26.689   1.326  11.526
71360W        W35084  41.826  43.334  11.084
71361W        W35085  33.964  29.022   2.764
71362W        W35086   7.840  12.774  11.505
71363W        W35087   6.404  17.180  11.092
71364W        W35088  39.053  40.829   4.636
71365W        W35089  12.827  10.259   2.689
71366W        W35090  27.157  22.250   3.721
71367W        W35091  11.817  28.445  13.862
71368W        W35092  36.006  26.105   0.749
71369W        W35093  39.040  43.966  14.978
71370W        W35094  32.107  20.132  13.465
71371W        W35095  16.089  20.753   0.903
71372W        W35096  33.567  24.106  11.907
71373W        W35097  10.364  21.085   1.814
71374W        W35098  19.723   0.771  12.570
71375W        W35099   6.366  17.627   4.123
71376W        W35100  35.923  17.144  14.821
71377W        W35101  19.245   1.893   2.217
71378W        W35102  13.135   3.311  12.839
71379W        W35103   9.700  22.219   0.376
71380W        W35104   4.231   6.217  13.846
71381W        W35105   1.777  28.102  14.007
71382W        W35106  18.183  27.595   3.174
71383W        W35107   9.170  11.209   2.796
71384W        W35108  25.082  12.664  10.520
71385W        W35109   6.891  22.665   4.159
71386W        W35110  11.794  22.558   5.319
71387W        W35111   4.413  44.937  11.932
71388W        W35112  25.183  38.447  14.354
71389W        W35113  37.345  12.674  10.112
71390W        W35114  27.187  14.693  12.359
71391W        W35115  32.968  44.807   2.193
71392W        W35116   9.305  33.538  12.018
71393W        W35117  31.091  18.105   5.225
71394W        W35118   7.891  11.368   1.393
71395W        W35119  42.349  43.305   3.152
71396W        W35120   7.739  31.916   0.321
71397W        W35121  13.306  13.631  12.022
71398W        W35122  18.184  40.313   4.651
71399W        W35123  37.386  31.456   3.687
71400W        W35124  14.748  38.364  11.951
71401W        W35125  13.313   0.877   1.928
71402W        W35126  23.571  20.564  13.912
71403W        W35127  44.467  22.136   2.679
71404W        W35128   2.768  43.304   4.756
71405W        W35129  43.950  35.554   0.912
71406W        W35130   6.881  32.629  11.409
71407W        W35131  12.312  34.963  13.456
71408W        W35132  29.544   5.816   4.148
71409W        W35133  42.876  14.642  14.477
71410W        W35134  26.142  36.466   1.293
71411W        W35135  44.346  43.876  12.461
71412W        W35136  34.452  29.435  12.925
71413W        W35137  12.656  22.675  11.983
71414W        W35138  34.044  30.460  11.970
71415W        W35139  43.452   8.357   1.309
71416W        W35140  12.615  31.472   0.330
71417W        W35141  40.949   3.759  14.336
71418W        W35142  24.589   1.451  14.359
71419W        W35143  23.632  18.088  12.439
71420W        W35144  16.224  10.375   4.821
71421W        W35145  27.518  39.916  13.332
71422W        W35146  27.557  42.420   0.349
71423W        W35147  17.287  21.708   3.659
71424W        W35148  17.634   6.717   4.177
71425W        W35149  13.715  29.090  13.471
71426W        W35150  29.442  31.634   4.707
71427W        W35151  44.471  36.872  11.439
71428W        W35152  20.742  35.048   0.478
71429W        W35153  15.323  30.431  14.883
71430W        W35154   3.444  19.251  14.796
71431W        W35155   0.912  17.203  10.430
71432W        W35156  39.012  32.414   3.682
71433W        W35157  42.843  27.587   4.208
71434W        W35158   5.330   9.707   4.294
71435W        W35159  40.831  19.597   2.284
71436W        W35160  41.017   9.690   1.758
71437W        W35161  16.731  39.061   1.793
71438W        W35162  31.408  19.658  10.919
71439W        W35163  18.681  35.065  13.347
71440W        W35164   4.415  19.720  13.413
71441W        W35165  40.435  39.353   1.309
71442W        W35166  40.806  37.337   5.283
71443W        W35167  19.703  23.121  14.825
71444W        W35168  33.961  16.741   2.313
71445W        W35169  25.631  22.696  14.454
71446W        W35170  30.085  23.524  12.995
71447W        W35171  30.470   3.407   9.998
71448W        W35172  37.017   9.672   1.298
71449W        W35173  24.643   4.328  11.907
71450W        W35174  41.824  43.772  12.895
71451W        W35175  44.488  16.262  13.977
71452W        W35176  29.109  34.035   4.235
71453W        W35177  14.261  12.654  11.482
71454W        W35178  31.636  36.865  14.846
71455W        W35179   6.217  14.706  10.967
71456W        W35180  11.743   0.870   3.871
71457W        W35181  39.013  15.253  11.551
71458W        W35182  36.072  14.810  11.922
71459W        W35183   0.939  20.602  14.483
71460W        W35184  29.476  17.149  13.491
71461W        W35185  22.029  40.449   5.764
71462W        W35186  38.855  10.869   2.282
71463W        W35187  29.989  34.878  11.885
71464W        W35188   3.770  37.970   0.771
71465W        W35189   2.752  36.589  14.404
71466W        W35190  19.627  22.082  10.617
71467W        W35191  44.896  16.204  10.631
71468W        W35192  25.489  17.709   3.659
71469W        W35193   0.926   6.272   4.249
71470W        W35194  27.492   9.653   4.671
71471W        W35195  20.116  12.668  10.512
71472W        W35196   0.827  33.041   4.216
71473W        W35197  37.965  36.843   0.476
71474W        W35198  20.698  31.108   3.809
71475W        W35199  16.807  12.681  14.510
71476W        W35200   0.314   3.266   0.399
71477W        W35201  32.102  38.878   3.379
71478W        W35202  36.578  27.143  10.441
71479W        W35203  24.624  11.137  13.430
71480W        W35204  10.146  33.096   0.280
71481W        W35205  44.389  13.235  11.012
71482W        W35206   4.240   2.345  14.514
71483W        W35207   9.390  25.665  10.976
71484W        W35208  33.121   3.737  12.036
71485W        W35209  21.592   0.918  13.375
71486W        W35210  16.713  38.393  13.474
71487W        W35211  38.887   5.386   2.889
71488W        W35212  44.375   4.749  14.278
71489W        W35213  28.968  41.804   1.364
71490W        W35214  13.195  28.452  13.056
71491W        W35215  36.547  35.978   2.369
71492W        W35216  11.259   7.807  11.073
71493W        W35217  39.925  14.294  13.496
71494W        W35218  18.600   3.875   0.888
71495W        W35219  12.129  43.966  14.444
71496W        W35220  23.033   9.747   0.910
71497W        W35221  17.646  30.513  12.849
71498W        W35222  10.203  42.801  13.007
71499W        W35223   0.877   6.829  13.975
71500W        W35224  34.572  24.683   0.294
71501W        W35225  27.518   9.834   3.340
71502W        W35226   6.727  30.042   1.239
71503W        W35227  18.731  26.202   0.749
71504W        W35228   6.210   9.292  10.907
71505W        W35229  26.694  28.535  11.904
71506W        W35230  23.100   0.353   2.896
71507W        W35231  39.968  24.165  12.873
71508W        W35232  43.838  32.434  14.316
71509W        W35233  17.663  43.771   2.713
71510W        W35234  16.105   7.336   2.883
71511W        W35235  19.277  39.524  11.985
71512W        W35236  44.974  42.946  13.834
71513W        W35237   6.902   3.765  12.385
71514W        W35238  19.131  26.958   0.921
71515W        W35239   3.282  15.727   2.824
71516W        W35240  30.942  10.230   3.264
71517W        W35241  16.770  38.328  12.434
71518W        W35242  39.883  40.961   2.832
71519W        W35243  23.541  40.916  13.864
71520W        W35244  21.122  22.640  11.891
71521W        W35245  30.544  40.420  12.007
71522W        W35246   3.260  26.510  13.937
71523W        W35247  34.038  23.622   0.274
71524W        W35248  32.077  29.585  14.920
71525W        W35249  40.952  12.126  11.979
71526W        W35250  42.375   1.392  10.891
71527W        W35251   5.728  25.626  11.870
71528W        W35252  28.436  22.206  12.426
71529W        W35253  40.419   4.330   3.764
71530W        W35254  14.592  12.295   3.276
71531W        W35255  13.172  35.434  14.865
71532W        W35256  27.543  32.396  11.887
71533W        W35257   8.229  34.999  10.492
71534W        W35258  11.851  15.660   0.849
71535W        W35259  38.846  32.934   2.351
71536W        W35260   8.682   0.272  12.580
71537W        W35261  39.927   0.967  11.486
71538W        W35262  12.751   9.239  11.106
71539W        W35263  19.769   4.331   3.663
71540W        W35264  14.285   5.838  14.997
71541W        W35265   2.457  34.419  11.541
71542W        W35266   2.456  30.992   4.729
71543W        W35267  17.211   6.269   1.863
71544W        W35268  10.827  41.378   0.297
71545W        W35269  32.982  25.634  12.571
71546W        W35270  31.467  43.315  13.341
71547W        W35271  44.871  28.011   3.718
71548W        W35272  28.009  42.412  14.799
71549W        W35273  29.949  40.892   2.334
71550W        W35274  32.572   6.789  12.390
71551W        W35275  40.850  40.512   4.606
71552W        W35276   2.269  23.096   1.825
71553W        W35277   0.895  16.663  12.345
71554W        W35278  28.585  24.189   2.315
71555W        W35279  26.585  37.013  12.069
71556W        W35280  27.022  33.089  10.478
71557W        W35281  40.006  21.042   0.383
71558W        W35282  22.656  25.211  10.629
71559W        W35283   1.736  21.098   1.226
71560W        W35284  11.212  26.169   0.786
71561W        W35285  33.597  19.598  14.818
71562W        W35286  27.023   3.434   4.269
71563W        W35287  11.724  40.440   3.823
71564W        W35288  27.020  28.023   2.856
71565W        W35289   1.876  21.251  14.840
71566W        W35290  11.623  12.629  13.981
71567W        W35291  23.208  44.856   3.747
71568W        W35292  21.066  17.574   1.233
71569W        W35293  10.358  39.955   3.343
71570W        W35294  40.375   3.882   0.779
71571W        W35295  23.170  41.872   1.860
71572W        W35296   3.771  13.286   2.797
71573W        W35297  19.119  22.536   1.775
71574W        W35298  42.832   9.720   0.271
71575W        W35299  28.003  22.743  10.624
71576W        W35300  25.634  43.348   3.277
71577W        W35301  18.296  30.980   3.262
71578W        W35302  11.790  22.658   0.859
71579W        W35303  24.199   5.808  13.316
71580W        W35304  41.808  43.378   2.826
71581W        W35305  28.637  15.743  10.508
71582W        W35306  38.398  26.535   9.970
71583W        W35307   3.409  29.133  12.086
71584W        W35308  44.297  12.157  13.452
71585W        W35309  23.058  12.128  10.974
71586W        W35310   4.806  23.033   2.406
71587W        W35311  31.440  37.441   1.860
71588W        W35312  19.537  10.720  12.931
71589W        W35313   0.331  21.572  13.879
71590W        W35314  31.984  10.292  12.366
71591W        W35315   9.186   2.290   4.622
71592W        W35316  17.607  20.230  13.037
71593W        W35317  34.458  22.510  13.445
71594W        W35318   5.305  19.580   2.792
71595W        W35319   2.773   2.864  11.097
71596W        W35320   2.265  22.098  10.538
71597W        W35321  42.000   5.356  14.290
71598W        W35322  32.913  28.975  12.436
71599W        W35323  40.824  21.572  10.961
71600W        W35324  23.205  38.448  11.555
71601W        W35325  21.095  25.972   4.279
71602W        W35326  33.459   3.245   2.218
71603W        W35327  44.441  36.975   0.937
71604W        W35328  15.284  16.305   4.713
71605W        W35329   3.389  34.934   5.224
71606W        W35330   2.818  27.188   0.358
71607W        W35331  19.588  40.904  12.568
71608W        W35332  29.623  28.615  14.497
71609W        W35333  10.380  43.859   1.841
71610W        W35334  43.294  25.003  11.553
71611W        W35335  30.563   7.344  14.422
71612W        W35336  32.888  19.269  13.521
71613W        W35337  26.647  31.057   0.935
71614W        W35338  36.997  41.923  12.084
71615W        W35339   4.293  26.617  13.422
71616W        W35340  38.378  13.343   4.203
71617W        W35341  24.721  13.299  11.373
71618W        W35342  28.106  14.136   5.158
71619W        W35343  13.769   3.783  13.799
71620W        W35344  37.912   5.346   2.715
71621W        W35345  31.408   9.696  14.765
71622W        W35346   0.897  24.675   3.188
71623W        W35347  35.436   6.871   3.193
71624W        W35348  31.077  11.861  12.889
71625W        W35349  29.125  11.798   3.680
71626W        W35350  35.005   3.741  13.953
71627W        W35351  31.586  33.482   1.373
71628W        W35352  18.702  44.890   3.338
71629W        W35353  28.541  26.495  13.031
71630W        W35354   3.226   0.972   2.797
71631W        W35355   1.463  10.180   3.155
71632W        W35356   1.266  41.430   1.920
71633W        W35357  11.222  33.902  13.538
71634W        W35358  35.036  24.018  13.474
71635W        W35359   3.890  29.115   0.472
71636W        W35360  19.196  40.302  12.390
71637W        W35361  10.345  18.626   4.296
71638W        W35362  37.031  39.464  10.520
71639W        W35363  24.108   7.218  10.945
71640W        W35364  33.587  33.938   0.297
71641W        W35365  11.339  15.230   0.348
71642W        W35366  12.294  20.572  11.574
71643W        W35367  28.109   2.874   3.291
71644W        W35368  23.533   8.171  14.981
71645W        W35369  44.979  26.503   3.282
71646W        W35370  32.443  21.208  13.477
71647W        W35371  20.593  14.826   2.758
71648W        W35372  35.024   6.396  11.859
71649W        W35373  12.352   4.348   2.399
71650W        W35374  37.070  24.496  10.538
71651W        W35375  25.989  38.923  14.341
71652W        W35376  20.030  18.626   4.677
71653W        W35377  28.943   4.345   4.174
71654W        W35378   8.303  14.604   5.567
71655W        W35379  38.986  23.121  10.034
71656W        W35380  21.561  23.239  11.867
71657W        W35381  32.496  22.677   2.816
71658W        W35382  14.742  18.207  13.390
71659W        W35383  12.657  15.139   0.347
71660W        W35384  20.635  44.888  14.460
71661W        W35385  29.589  42.921  13.476
71662W        W35386  13.313  32.583   2.328
71663W        W35387  14.164  16.609  10.512
71664W        W35388   4.343   5.218   4.723
71665W        W35389  19.125  41.985   0.732
71666W        W35390  17.555  28.931  12.365
71667W        W35391  36.538  37.071  14.939
71668W        W35392  34.003  22.566   4.276
71669W        W35393  20.627  37.036   4.323
71670W        W35394  25.200  26.534   1.857
71671W        W35395   9.156  18.115   4.608
71672W        W35396  20.178  44.921   2.184
71673W        W35397   0.885   7.274  12.477
71674W        W35398   4.847   5.303  12.061
71675W        W35399  30.021  18.235  10.527
71676W        W35400  30.019  14.734   3.209
71677W        W35401   7.810  11.265  14.470
71678W        W35402   0.872   5.253   1.857
71679W        W35403  19.720   3.370  13.393
71680W        W35404  13.236  31.072   1.752
71681W        W35405  25.658  18.192  11.575
71682W        W35406   2.341  33.041  14.435
71683W        W35407  13.638  11.303   0.863
71684W        W35408  22.708  14.617  11.384
71685W        W35409  10.370  11.755   0.846
71686W        W35410   6.795  18.166  14.015
71687W        W35411   3.230  25.604   5.148
71688W        W35412  16.262   5.204   1.365
71689W        W35413   2.237  11.660   2.856
71690W        W35414   6.778   2.376  14.779
71691W        W35415  17.741  34.921  11.590
71692W        W35416  30.156  32.053  12.897
71693W        W35417  10.305   2.917  13.413
71694W        W35418  44.271  31.540  12.013
71695W        W35419   1.299  29.444  14.813
71696W        W35420  26.109  13.212  12.537
71697W        W35421  18.787  20.263   2.284
71698W        W35422  39.529  39.524  10.623
71699W        W35423  34.561  27.616   4.786
71700W        W35424   1.868  26.028  14.979
71701W        W35425  17.277  18.563  13.848
71702W        W35426   3.926  44.414   1.298
71703W        W35427   5.823  32.897  12.510
71704W        W35428  23.564  31.097  12.376
71705W        W35429  13.169  27.525  14.972
71706W        W35430  44.899   3.367   0.853
71707W        W35431  18.549   7.880   1.340
71708W        W35432  15.308   8.832   4.620
71709W        W35433  35.487   1.806  14.439
71710W        W35434  19.162  13.113   2.866
71711W        W35435   6.345  42.506   1.719
71712W        W35436   7.811  29.485  10.522
71713W        W35437  43.838  41.991  11.465
71714W        W35438  32.569  35.895   2.845
71715W        W35439  31.070  41.368   3.154
71716W        W35440  35.527  24.066  13.333
71717W        W35441  31.640  34.048   4.836
71718W        W35442  14.291   7.833  11.107
71719W        W35443  41.481   1.308  10.621
71720W        W35444  31.509  22.620  12.393
71721W        W35445   9.809  26.484   2.190
71722W        W35446  21.659  13.768   4.172
71723W        W35447   5.336  30.114  12.496
71724W        W35448  23.573   5.932  13.381
71725W        W35449   1.934   0.900  13.543
71726W        W35450   8.857   6.403  11.122
71727W        W35451  36.988  19.637   3.186
71728W        W35452  36.391  17.658   4.672
71729W        W35453  36.461   8.676   4.805
71730W        W35454  36.019  12.641   5.212
71731W        W35455  33.619  38.924  14.477
71732W        W35456  33.596  39.338   0.468
71733W        W35457   5.308  11.816  14.310
71734W        W35458   5.326  12.836  14.933
71735W        W35459  33.130  23.578   4.156
71736W        W35460  20.524   5.206   3.232
71737W        W35461  32.886  16.671  14.411
71738W        W35462  19.553  21.587   3.760
71739W        W35463   3.923  36.387  10.984
71740W        W35464  17.272   2.801   0.838
71741W        W35465  43.920  26.030  11.914
71742W        W35466  36.058  17.565   4.276
71743W        W35467  37.058  42.818  10.112
71744W        W35468  44.785   7.391  10.423
71745W        W35469  33.028  38.990  14.863
71746W        W35470   6.233   6.279   5.264
71747W        W35471  24.080   6.318   2.395
71748W        W35472  14.819  27.995   0.964
71749W        W35473  31.454  14.642  11.862
71750W        W35474  31.579  27.140   3.266
71751W        W35475   9.363  11.365   9.612
71752W        W35476  37.046  29.932   0.434
71753W        W35477   3.317   4.862  11.939
71754W        W35478  42.371  42.526  13.478
71755W        W35479  20.666  21.661  13.982
71756W        W35480  42.420  40.891  11.475
71757W        W35481  39.854  33.537  13.542
71758W        W35482  39.434   6.248   3.861
71759W        W35483   9.316   7.694  12.019
71760W        W35484  29.494   1.298   4.282
71761W        W35485  21.590   6.358  14.368
71762W        W35486  43.916  31.021   0.457
71763W        W35487  41.821  41.923   5.295
71764W        W35488   9.877  22.626   0.457
71765W        W35489  19.096  33.891  11.084
71766W        W35490  24.526   0.946   0.363
71767W        W35491  12.305   2.746   1.714
71768W        W35492  10.665   5.323   4.760
71769W        W35493  26.517  28.184   0.313
71770W        W35494  36.521  30.953  12.908
71771W        W35495  43.001  22.694  14.940
71772W        W35496  12.172  34.882   3.229
71773W        W35497  40.343  18.244   4.760
71774W        W35498  36.522   3.355  10.052
71775W        W35499  44.006  12.820   2.388
71776W        W35500  32.456  41.943   4.133
71777W        W35501  28.635   7.681   4.760
71778W        W35502   0.262   1.797   0.895
71779W        W35503  39.998  18.558  11.595
71780W        W35504  37.480  31.040  10.927
71781W        W35505   6.912   5.715   1.839
71782W        W35506  19.078   1.436   1.343
71783W        W35507   5.701  37.582   1.758
71784W        W35508   2.729  40.335  13.457
71785W        W35509  14.197  32.071   5.153
71786W        W35510  16.091  41.408   4.770
71787W        W35511  11.346  10.190  10.495
71788W        W35512   1.735   5.311   0.872
71789W        W35513  21.573   4.891  11.093
71790W        W35514  27.577  18.221  13.879
71791W        W35515  11.158  11.737   2.668
71792W        W35516  43.914   8.687   3.303
71793W        W35517  31.445  19.198   2.298
71794W        W35518   1.394  35.017  11.436
71795W        W35519  37.882  25.041   1.776
71796W        W35520   7.717   9.670   0.336
71797W        W35521  44.397  42.858  11.545
71798W        W35522   8.237  38.448   3.843
71799W        W35523  30.489  14.721   1.309
71800W        W35524  19.105  21.749  12.357
71801W        W35525   2.870  32.630  10.504
71802W        W35526  28.533  35.468   0.964
71803W        W35527  35.894  27.571   3.374
71804W        W35528   1.766  17.796   1.895
71805W        W35529  16.737  30.138  14.936
71806W        W35530  24.021   0.470  13.966
71807W        W35531   5.298   7.251  14.922
71808W        W35532  44.890   0.756   1.435
71809W        W35533   1.947   7.903   3.247
71810W        W35534  39.464   9.272  13.061
71811W        W35535  12.644  18.687   1.369
71812W        W35536   9.886  14.317  10.988
71813W        W35537   3.928  17.234   2.216
71814W        W35538  37.979   2.320  12.096
71815W        W35539   1.475  36.964  12.425
71816W        W35540   9.801   5.854  12.095
71817W        W35541   1.438   4.945   0.251
71818W        W35542   6.377  43.903   4.251
71819W        W35543  30.065   4.403   1.241
71820W        W35544  39.391  11.245   0.285
71821W        W35545  10.639  36.958   3.830
71822W        W35546  43.404  35.550   1.397
71823W        W35547  28.133  15.818  12.376
71824W        W35548  41.492  20.707  13.406
71825W        W35549  11.149  11.266  13.994
71826W        W35550  30.471   7.257   1.883
71827W        W35551  11.363  19.631  10.432
71828W        W35552  40.012  20.532  11.861
71829W        W35553  30.617  27.628   3.278
71830W        W35554  20.042   7.906  11.410
71831W        W35555  12.167  19.189  11.409
71832W        W35556  42.283  10.218  12.412
71833W        W35557   2.742  14.706   1.262
71834W        W35558  24.710   6.335   2.285
71835W        W35559  23.163   0.918  11.098
71836W        W35560   3.748  24.219  14.973
71837W        W35561   6.411  16.192   1.917
71838W        W35562  19.236  30.106   2.365
71839W        W35563  21.564  41.351   9.942
71840W        W35564  40.303  27.560  14.852
71841W        W35565  36.436  10.237   0.863
71842W        W35566  42.454  37.352   0.297
71843W        W35567  32.568  27.579  10.439
71844W        W35568  16.168  14.270  14.434
71845W        W35569  24.484  14.300   1.241
71846W        W35570  11.371  39.399  12.860
71847W        W35571  36.900   0.953  12.470
71848W        W35572  39.363  22.515  11.542
71849W        W35573  17.703  10.217   2.789
71850W        W35574  13.279   8.738   2.244
71851W        W35575  18.095  26.995  14.365
71852W        W35576  14.143   4.734   1.392
71853W        W35577  37.383  21.148   4.730
71854W        W35578  36.463  25.690   3.739
71855W        W35579  22.079   4.829   1.394
71856W        W35580   1.380  15.120  11.040
71857W        W35581   1.386   7.756  13.961
71858W        W35582  37.910  10.811  14.894
71859W        W35583  30.634  32.969   4.766
71860W        W35584  34.520  22.525  12.825
71861W        W35585  41.902  34.108   2.723
71862W        W35586  33.395  16.111   5.215
71863W        W35587  29.567   8.765   0.880
71864W        W35588  43.308  19.708   3.146
71865W        W35589   5.335  32.053  11.416
71866W        W35590  34.439  20.254  10.898
71867W        W35591  11.686  33.429   2.337
71868W        W35592  10.279  40.425   4.628
71869W        W35593  29.597  19.064  14.346
71870W        W35594   5.349  10.172  12.463
71871W        W35595  40.803  37.886   5.169
71872W        W35596  44.344   2.444   4.707
71873W        W35597  10.148   5.853   2.200
71874W        W35598  33.537  25.000  12.923
71875W        W35599  24.590  11.653  13.034
71876W        W35600  26.588  14.248   2.392
71877W        W35601  43.791  26.078  11.449
71878W        W35602  13.823  21.550  12.371
71879W        W35603   3.429  12.798  12.447
71880W        W35604  32.600  25.579  14.857
71881W        W35605  25.100  12.790  14.320
71882W        W35606  41.985  41.356   4.613
71883W        W35607   7.757  32.138   3.273
71884W        W35608  16.651  38.881   0.308
71885W        W35609   3.400  20.152   2.278
71886W        W35610   5.315  39.957  10.919
71887W        W35611  41.503  40.884   1.929
71888W        W35612  39.435  16.594   1.402
71889W        W35613  42.790  29.042  13.869
71890W        W35614   9.747  40.549   1.323
71891W        W35615  32.100  10.755   4.204
71892W        W35616  31.976  10.261  13.325
71893W        W35617  31.076  26.475  13.034
71894W        W35618  40.049  20.578   3.776
71895W        W35619  30.934  21.514   2.736
71896W        W35620  43.012  32.470  11.880
71897W        W35621   0.820  23.146  13.979
71898W        W35622  44.993  33.590  11.933
71899W        W35623  35.989   2.231   4.279
71900W        W35624  17.597  17.081  13.061
71901W        W35625  43.920  24.613   4.219
71902W        W35626  27.484  26.549   3.802
71903W        W35627  42.428   6.283   2.238
71904W        W35628  10.872  40.985   1.260
71905W        W35629  40.871   5.220  13.380
71906W        W35630  25.669  34.893  14.286
71907W        W35631   3.936   6.370   2.304
71908W        W35632   9.811  30.916   0.801
71909W        W35633  40.398   6.224  12.886
71910W        W35634  29.466  14.291  13.883
71911W        W35635  38.411  14.275   1.789
71912W        W35636  23.062   7.824  14.997
71913W        W35637  27.074   4.745  11.879
71914W        W35638  35.011  21.539   3.752
71915W        W35639  13.697   4.932  12.872
71916W        W35640   5.211  39.871  13.522
71917W        W35641  42.790  17.651  11.971
71918W        W35642   4.870  16.767  14.975
71919W        W35643  34.030   9.239  11.953
71920W        W35644  16.131   3.365  10.486
71921W        W35645  27.037  43.979   4.250
71922W        W35646  12.726   3.385   4.182
71923W        W35647   0.435   8.314   4.225
71924W        W35648  25.679  15.631  10.510
71925W        W35649  25.207   6.720   2.219
71926W        W35650  30.117   0.389   1.421
71927W        W35651   2.269   0.450  14.401
71928W        W35652  24.688   3.422   0.823
71929W        W35653  34.008  22.647  10.970
71930W        W35654  26.564  43.319   1.807
71931W        W35655  28.094  22.623   4.144
71932W        W35656  14.111   1.252   4.168
71933W        W35657  23.697  32.420  11.376
71934W        W35658  19.705   4.808   2.279
71935W        W35659  42.363  16.129  12.009
71936W        W35660  27.642   3.874  12.451
71937W        W35661  44.365  22.556   3.699
71938W        W35662  43.859  27.007   1.746
71939W        W35663  35.573  24.024   1.412
71940W        W35664  13.611  16.159  14.510
71941W        W35665  11.330  19.266   1.857
71942W        W35666  24.644  38.544  13.979
71943W        W35667  28.956  32.072  12.846
71944W        W35668  22.152  26.093  12.857
71945W        W35669  10.224  20.562  11.409
71946W        W35670  34.598   9.333  11.938
71947W        W35671  22.219  39.491   1.779
71948W        W35672   7.841  11.623  10.119
71949W        W35673   0.836  21.692   4.303
71950W        W35674   3.784  32.481  11.471
71951W        W35675   5.196  22.597  12.490
71952W        W35676   0.905  12.669  14.763
71953W        W35677  21.598  19.176   3.333
71954W        W35678  18.634  43.770  10.918
71955W        W35679   5.416  23.029   0.434
71956W        W35680  26.483  32.391  12.932
71957W        W35681  23.617  42.511  14.794
71958W        W35682  29.076  21.240   4.814
71959W        W35683  25.070  13.750   3.640
71960W        W35684  22.015  12.180  11.900
71961W        W35685  16.222  28.541  13.934
71962W        W35686  29.974  10.228  12.940
71963W        W35687  29.666   4.872   1.722
71964W        W35688  37.064   6.802   0.454
71965W        W35689  12.827  15.776   4.220
71966W        W35690  33.980  29.156   0.950
71967W        W35691  23.130  44.308  12.537
71968W        W35692   1.448   4.238  13.064
71969W        W35693  44.437  33.585   0.907
71970W        W35694  42.415  17.298   0.740
71971W        W35695  17.763   1.912  12.520
71972W        W35696  27.153  32.559  14.468
71973W        W35697  37.039  40.502  10.931
71974W        W35698   5.834  26.094  14.811
71975W        W35699  44.835  29.455   1.885
71976W        W35700  35.988  28.513  12.339
71977W        W35701   6.811  41.499  13.844
71978W        W35702  25.546  22.217  13.370
71979W        W35703  34.005  34.984  13.925
71980W        W35704  41.033  37.041  13.822
71981W        W35705  26.061   7.718  13.502
71982W        W35706  12.297  26.037   3.813
71983W        W35707  17.308  23.183  11.033
71984W        W35708  36.908  44.851  11.537
71985W        W35709  37.853  27.963   0.822
71986W        W35710  17.176  26.695  11.893
71987W        W35711  32.954   2.770   4.764
71988W        W35712   2.422  16.266  13.976
71989W        W35713  13.655  22.675   1.759
71990W        W35714  32.074  36.492  13.372
71991W        W35715  39.997  42.417  11.129
71992W        W35716  31.618   6.857  14.986
71993W        W35717   0.871  41.962   3.788
71994W        W35718  34.502  10.352  14.772
71995W        W35719  15.642   6.428   3.156
71996W        W35720   8.364  30.593  13.365
71997W        W35721  28.036  12.739   3.325
71998W        W35722  26.025   1.452   0.377
71999W        W35723  21.101  42.027   0.401
72000W        W35724  32.948  11.841   2.809
72001W        W35725  14.277  13.651  11.884
72002W        W35726  32.611   9.755  12.029
72003W        W35727  27.038  41.854   3.867
72004W        W35728  12.119  32.445  10.524
72005W        W35729  39.957  38.464   4.320
72006W        W35730  32.988   8.327  10.426
72007W        W35731  44.263  11.743   1.281
72008W        W35732  30.145   9.188   4.643
72009W        W35733  38.340  30.933   0.805
72010W        W35734  14.188  22.744   2.757
72011W        W35735  44.276  16.269   1.757
72012W        W35736   4.708  24.991   3.856
72013W        W35737   1.347  40.308  12.826
72014W        W35738  22.530  43.299   9.981
72015W        W35739  31.152  30.439   1.808
72016W        W35740   6.900   9.746  13.052
72017W        W35741  31.449  17.240  12.514
72018W        W35742  25.517  12.120   1.406
72019W        W35743   9.674   8.707  13.382
72020W        W35744  38.342  15.702   9.981
72021W        W35745  23.723  38.947   1.875
72022W        W35746  19.057  44.393  10.537
72023W        W35747   1.294  10.785   2.744
72024W        W35748  20.559  33.419   2.765
72025W        W35749   7.396  27.059  13.013
72026W        W35750  11.323  36.935   3.725
72027W        W35751   4.796  32.445   3.721
72028W        W35752  14.753  36.884   0.840
72029W        W35753  28.473  28.059   4.817
72030W        W35754   5.792   6.348  13.823
72031W        W35755   4.342  31.929   0.878
72032W        W35756  11.222  43.438  12.911
72033W        W35757   0.801  17.267  11.873
72034W        W35758  19.675  24.574   4.775
72035W        W35759   9.854  33.995  11.487
72036W        W35760  27.046  33.131  13.034
72037W        W35761  11.670  28.051   3.750
72038W        W35762  32.547  14.656  11.950
72039W        W35763  26.497   7.741   1.246
72040W        W35764  42.807  22.691  11.512
72041W        W35765  22.107  10.747  13.825
72042W        W35766   8.763  26.528  10.454
72043W        W35767  41.430   9.732   3.688
72044W        W35768   1.837  44.328  11.905
72045W        W35769  41.835  41.312  12.847
72046W        W35770  29.072  36.077   3.257
72047W        W35771  16.791  40.939   4.837
72048W        W35772  42.994   4.275   1.252
72049W        W35773  43.801  37.456  13.948
72050W        W35774  27.948  22.592   1.378
72051W        W35775   2.317   6.868  12.854
72052W        W35776  29.631  15.594   0.743
72053W        W35777  42.302  25.123  10.587
72054W        W35778  21.632   9.686  10.631
72055W        W35779   9.340  15.183  10.919
72056W        W35780  44.969  30.624  12.907
72057W        W35781  25.651  42.868  13.540
72058W        W35782  24.061  28.099  14.476
72059W        W35783   3.826  22.137  13.845
72060W        W35784  14.171  22.639   1.846
72061W        W35785  21.165  30.654  10.095
72062W        W35786   7.803   8.404   1.239
72063W        W35787  30.635  31.589   3.700
72064W        W35788  27.966  23.178   3.853
72065W        W35789  44.364  41.946   3.779
72066W        W35790  16.758   1.891   0.320
72067W        W35791   8.889  43.895   4.721
72068W        W35792  19.634  22.661  12.943
72069W        W35793  12.183  27.499   3.669
72070W        W35794  16.118   0.454  10.917
72071W        W35795   3.360  38.561   2.812
72072W        W35796   5.724  19.159   2.211
72073W        W35797  18.562  16.805  10.456
72074W        W35798  34.915   3.391  12.522
72075W        W35799  26.976  17.683  14.498
72076W        W35800  29.538   4.810  10.542
72077W        W35801   5.791   0.762  13.464
72078W        W35802  26.660  24.636  10.484
72079W        W35803  17.153  14.216   3.240
72080W        W35804  43.439  11.716   4.172
72081W        W35805  12.241  21.633  13.817
72082W        W35806  21.546  15.784  14.762
72083W        W35807  28.184  37.387  14.782
72084W        W35808  29.084  34.552  14.770
72085W        W35809  17.594  15.776   5.249
72086W        W35810   6.219  11.727  12.853
72087W        W35811  38.010  27.573  11.962
72088W        W35812  14.685  24.531   2.329
72089W        W35813  19.677   6.383   2.267
72090W        W35814  11.770   2.277  11.067
72091W        W35815  22.500  13.776   1.885
72092W        W35816  42.289   3.240   4.714
72093W        W35817  24.657  14.218   1.756
72094W        W35818   4.758  34.873  10.594
72095W        W35819  31.091  25.201   1.815
72096W        W35820  42.506  21.608  13.017
72097W        W35821  26.020  18.200   1.905
72098W        W35822  40.305  35.934   2.842
72099W        W35823  13.748  26.573  14.997
72100W        W35824  44.300  30.975  12.059
72101W        W35825  44.807  30.060  10.450
72102W        W35826  13.795  16.648   1.885
72103W        W35827  39.513  11.833   2.192
72104W        W35828  25.207  18.286   3.863
72105W        W35829  29.604   8.258  14.874
72106W        W35830  20.719  17.069   0.336
72107W        W35831  15.596  41.017  12.029
72108W        W35832  32.134  31.640  13.508
72109W        W35833  41.818  41.800  13.539
72110W        W35834  16.749  32.513   2.194
72111W        W35835  35.069  37.834  14.884
72112W        W35836  37.545  36.998  11.502
72113W        W35837  22.581   5.265   0.379
72114W        W35838  10.872   2.934   1.275
72115W        W35839  27.041  30.565   4.220
72116W        W35840  12.611  36.577   4.319
72117W        W35841  41.442   8.862  12.049
72118W        W35842  21.684  44.864  10.431
72119W        W35843  35.546  26.512   2.850
72120W        W35844  34.600  19.236  13.973
72121W        W35845  44.497  37.049   5.627
72122W        W35846   1.353  28.963   3.331
72123W        W35847  22.552  38.474  14.002
72124W        W35848   3.804  40.394  13.480
72125W        W35849  32.909  19.144  10.447
72126W        W35850  17.731  33.962  13.806
72127W        W35851  16.221   1.432   1.753
72128W        W35852  30.659  18.168  12.015
72129W        W35853  21.054   8.370   0.893
72130W        W35854   9.762   3.397   2.708
72131W        W35855  27.596  39.505  12.478
72132W        W35856  35.374  25.152  14.416
72133W        W35857  16.604  12.129  12.469
72134W        W35858  12.330   8.694   0.881
72135W        W35859  19.644   7.889   2.695
72136W        W35860  14.735  16.660  10.427
72137W        W35861   6.369  44.809  11.550
72138W        W35862   4.887  29.017   2.245
72139W        W35863  25.038  10.169   0.892
72140W        W35864   3.763  26.657   2.778
72141W        W35865  24.706  25.098  13.986
72142W        W35866  39.046  12.844   1.750
72143W        W35867  39.973  42.899   3.634
72144W        W35868  40.044  29.596   1.894
72145W        W35869  37.063  21.182   0.792
72146W        W35870  25.614   3.763  13.944
72147W        W35871  23.053   3.738  11.982
72148W        W35872  29.620  32.579  11.513
72149W        W35873  21.224   3.365   4.799
72150W        W35874   9.764   9.778  13.034
72151W        W35875  34.060  27.678  13.526
72152W        W35876  35.445  32.027   2.699
72153W        W35877  20.743   4.224   3.377
72154W        W35878   2.421   8.306  11.504
72155W        W35879  20.261  10.818   3.314
72156W        W35880  13.722  26.954  14.787
72157W        W35881  15.248  32.393   3.333
72158W        W35882  24.521  33.588  12.935
72159W        W35883  17.240  27.051   1.224
72160W        W35884   4.293  25.992  11.048
72161W        W35885  15.145  21.185  14.275
72162W        W35886   3.735  26.191  12.436
72163W        W35887  21.565  35.508  14.941
72164W        W35888   6.717  16.624   3.632
72165W        W35889  17.731  24.132  14.465
72166W        W35890   7.409  28.153  14.001
72167W        W35891  13.680   8.726  13.012
72168W        W35892  25.119  39.847  12.844
72169W        W35893   0.939  26.461  10.541
72170W        W35894   9.292  30.554   4.782
72171W        W35895  30.428   4.322  12.429
72172W        W35896  42.958  10.372  12.425
72173W        W35897  17.251   0.949  10.642
72174W        W35898  36.932  37.428  12.502
72175W        W35899  17.227   4.337   3.655
72176W        W35900  34.510   5.354   3.153
72177W        W35901  16.228  14.671  14.804
72178W        W35902  28.514  14.762   0.427
72179W        W35903  13.675   7.226  13.335
72180W        W35904   1.787  10.811  11.438
72181W        W35905   7.724  17.277   1.898
72182W        W35906  20.075  36.957   3.766
72183W        W35907  37.951  26.083  14.502
72184W        W35908   7.875  38.997   1.877
72185W        W35909   0.748  17.671  12.061
72186W        W35910  30.452  32.893   1.703
72187W        W35911  15.139   4.401   0.899
72188W        W35912   0.295  37.993   1.801
72189W        W35913  11.216  17.746   2.212
72190W        W35914  19.261  12.188   2.703
72191W        W35915  13.248  31.061  12.054
72192W        W35916  20.600  22.129  13.802
72193W        W35917  24.705   4.385   3.635
72194W        W35918  15.308  17.217  13.971
72195W        W35919  14.759  35.009  14.292
72196W        W35920  35.968  44.493  11.911
72197W        W35921  16.304  23.546   3.862
72198W        W35922   5.322  42.508   2.710
72199W        W35923  29.045  27.063   1.796
72200W        W35924   8.892   5.780  14.434
72201W        W35925  34.377   0.759   0.856
72202W        W35926  33.396  14.717   1.419
72203W        W35927  26.134   1.879   0.877
72204W        W35928  40.402  33.410  13.462
72205W        W35929  24.020  26.171  10.572
72206W        W35930  14.326  35.930  13.463
72207W        W35931  23.009  13.319  12.907
72208W        W35932  16.201  25.080   2.377
72209W        W35933  39.986   6.297   0.929
72210W        W35934  12.813  17.705  14.283
72211W        W35935   2.352  36.011  11.501
72212W        W35936  40.019  33.969  13.523
72213W        W35937  44.949  13.711  13.345
72214W        W35938  38.449  29.099   1.774
72215W        W35939   2.941   2.913  13.965
72216W        W35940  15.815  33.561   3.336
72217W        W35941  11.209   0.352  14.811
72218W        W35942  43.772  20.044   2.198
72219W        W35943  12.754  40.354  13.999
72220W        W35944   8.212  26.467   1.702
72221W        W35945  16.179  23.157  13.501
72222W        W35946  14.304   2.909  11.407
72223W        W35947   4.788  28.048  14.356
72224W        W35948   2.874   5.764  12.021
72225W        W35949   1.905  20.703   3.841
72226W        W35950  37.932   6.829   0.846
72227W        W35951  18.656  33.102   1.920
72228W        W35952  24.018  38.975   2.276
72229W        W35953  41.826  38.498  12.917
72230W        W35954  28.985   2.759  10.949
72231W        W35955  24.686  19.745  13.484
72232W        W35956  19.148  11.782  12.898
72233W        W35957   1.372  15.789  14.493
72234W        W35958  26.526  21.705   1.770
72235W        W35959  13.721  34.543  10.919
72236W        W35960  20.215  15.199  12.489
72237W        W35961  10.267   5.226   3.697
72238W        W35962  35.577  44.917  14.862
72239W        W35963  21.513   8.230  12.834
72240W        W35964  40.830   4.744   0.451
72241W        W35965  37.856   2.262   2.768
72242W        W35966  20.678  40.010   0.769
72243W        W35967  23.079   3.241   2.839
72244W        W35968  23.526  42.024   3.860
72245W        W35969  14.769  18.784   2.889
72246W        W35970   2.726   4.299   4.782
72247W        W35971  40.807  39.502   1.874
72248W        W35972  22.562  14.812  12.421
72249W        W35973  19.605  17.125   1.878
72250W        W35974  29.927  43.354  14.438
72251W        W35975  26.552  17.072   0.965
72252W        W35976  31.051  39.498   3.226
72253W        W35977  26.701  13.650  12.956
72254W        W35978  38.426   6.729   0.288
72255W        W35979  14.310  15.588  14.468
72256W        W35980   7.331   7.864   1.893
72257W        W35981   7.376   1.475   3.273
72258W        W35982  24.596  38.496  14.852
72259W        W35983  10.807  21.218  13.854
72260W        W35984  27.519  27.965   0.283
72261W        W35985  44.271  43.803  10.997
72262W        W35986   1.421  12.360  14.999
72263W        W35987  19.262   7.687  12.982
72264W        W35988  33.507  43.916  11.378
72265W        W35989   7.396  27.574   3.170
72266W        W35990  12.825  44.768  12.843
72267W        W35991  39.860  13.206   0.867
72268W        W35992   5.225  21.518   2.313
72269W        W35993  42.971  14.315  11.546
72270W        W35994  26.173  27.602   4.696
72271W        W35995  11.193  21.200  14.387
72272W        W35996  16.689   6.341  10.595
72273W        W35997   3.792  17.165   1.701
72274W        W35998  28.016  24.593   4.228
72275W        W35999   6.787  43.923  14.351
72276W        W36000   5.240  28.020  14.391
72277W        W36001   1.443  29.595   0.373
72278W        W36002   5.364  40.437  13.548
72279W        W36003  38.334  13.807   3.676
72280W        W36004  22.579  30.429  13.038
72281W        W36005  15.299  44.804   3.365
72282W        W36006  39.896  10.666   1.862
72283W        W36007  10.686   6.881  12.969
72284W        W36008  15.306  18.623  11.540
72285W        W36009  36.884  19.201  11.911
72286W        W36010  14.177  41.508  12.089
72287W        W36011  25.494  24.977  11.376
72288W        W36012  39.318   7.717  13.040
72289W        W36013   0.442  39.917   0.857
72290W        W36014  28.097   2.766  12.579
72291W        W36015   6.858   5.322   0.900
72292W        W36016  42.333  23.124   2.666
72293W        W36017  33.626  10.714  12.854
72294W        W36018  43.402   0.487   2.294
72295W        W36019  20.157  12.234  14.426
72296W        W36020  31.476  14.239   3.197
72297W        W36021   7.784  14.743   0.412
72298W        W36022  27.539   1.967  11.413
72299W        W36023  12.184  15.223  14.771
72300W        W36024  37.539  30.473  10.474
72301W        W36025  29.512   6.750  10.618
72302W        W36026   1.914   0.775   1.795
72303W        W36027  12.299   3.438  10.545
72304W        W36028  26.688   6.843   0.471
72305W        W36029  43.327  12.349  14.800
72306W        W36030  25.028  34.987   0.310
72307W        W36031  44.943   2.890   2.358
72308W        W36032  22.092  12.148  14.458
72309W        W36033  16.607  30.993   2.668
72310W        W36034  28.098  18.139  13.963
72311W        W36035  28.652  11.199   1.754
72312W        W36036  26.155   3.840  13.489
72313W        W36037  35.431  13.646   3.646
72314W        W36038  29.986  38.934   0.255
72315W        W36039  12.234  20.544  12.046
72316W        W36040   4.720  11.706   0.484
72317W        W36041  36.863  32.408  11.872
72318W        W36042  33.487   7.717   0.477
72319W        W36043  13.701  16.619   1.424
72320W        W36044  29.662  34.060   0.247
72321W        W36045  17.282   0.373  10.543
72322W        W36046  26.047  38.497   0.912
72323W        W36047  11.691  28.615  12.929
72324W        W36048  10.259  42.783  10.524
72325W        W36049  10.747  41.459  14.813
72326W        W36050  21.108  26.032  14.401
72327W        W36051   9.688  11.200  13.818
72328W        W36052  32.449   2.888  12.838
72329W        W36053  20.099   1.454  10.962
72330W        W36054   9.313  30.035   3.790
72331W        W36055  19.252   7.407  12.852
72332W        W36056  35.601  37.872  14.894
72333W        W36057  10.302   8.172  14.421
72334W        W36058   0.789  16.100   4.329
72335W        W36059   5.787   3.363   3.174
72336W        W36060   3.895  26.048  14.993
72337W        W36061   4.774  32.559   5.147
72338W        W36062  24.060   8.802   3.789
72339W        W36063  27.646  14.254  14.276
72340W        W36064   1.816  37.984   3.163
72341W        W36065  37.923  42.802   2.415
72342W        W36066  34.582  28.077   2.299
72343W        W36067   8.840  31.011  13.064
72344W        W36068  12.223  38.468  11.968
72345W        W36069  29.483   4.448  12.032
72346W        W36070  26.035  20.528  12.552
72347W        W36071  14.178   5.866   3.369
72348W        W36072  33.533  39.905  11.447
72349W        W36073  16.106  25.163  11.007
72350W        W36074  38.905  19.191   1.896
72351W        W36075  32.973  15.244   1.901
72352W        W36076  23.592  38.394   4.166
72353W        W36077   9.834  38.535   4.775
72354W        W36078  13.603  13.214  11.927
72355W        W36079  14.314  11.213   3.302
72356W        W36080   4.391  36.037   2.804
72357W        W36081  23.206  25.985   1.315
72358W        W36082  28.011  15.271  13.325
72359W        W36083   4.244  22.163  12.949
72360W        W36084  36.555  37.029   1.416
72361W        W36085  31.569  20.222  13.033
72362W        W36086  38.939  41.474   9.936
72363W        W36087  20.660  25.046  11.981
72364W        W36088  12.673  26.678   0.878
72365W        W36089  10.172  17.648   3.145
72366W        W36090  33.122   3.750  13.485
72367W        W36091  18.227  27.941  11.885
72368W        W36092  33.945  38.959  10.894
72369W        W36093  44.327  18.786  10.629
72370W        W36094   4.865  14.146  13.491
72371W        W36095  25.578  29.566   2.262
72372W        W36096  26.501  12.325   4.729
72373W        W36097  44.456  21.614  11.977
72374W        W36098  28.160   6.300  13.822
72375W        W36099   0.925  35.589  10.542
72376W        W36100  18.586   1.271  10.934
72377W        W36101  36.916  38.916  10.584
72378W        W36102  39.913   5.872   2.263
72379W        W36103  14.290   9.216  10.490
72380W        W36104  21.542  28.526  12.407
72381W        W36105  33.878  43.812  11.605
72382W        W36106  13.791  23.009   3.757
72383W        W36107  35.396   9.344  10.962
72384W        W36108  42.427  19.771   4.251
72385W        W36109   4.218  19.612   3.377
72386W        W36110  38.471   7.213  11.554
72387W        W36111   7.284  30.569  12.363
72388W        W36112   0.487   0.437  11.561
72389W        W36113  31.623   2.366   4.808
72390W        W36114   4.869  32.910  10.494
72391W        W36115  33.956  16.174   3.202
72392W        W36116   5.932   3.399  12.361
72393W        W36117  43.873   8.749   2.368
72394W        W36118   5.359  31.913   4.276
72395W        W36119  44.932  36.857  12.871
72396W        W36120  18.752  41.336   0.356
72397W        W36121  21.515  18.167  12.423
72398W        W36122  27.983   0.371  10.104
72399W        W36123  25.091  22.583   2.865
72400W        W36124  32.140  38.836  13.440
72401W        W36125  39.528  43.951  13.059
72402W        W36126   4.708  27.485   5.164
72403W        W36127   4.848  15.662   0.842
72404W        W36128  40.369  12.673  14.994
72405W        W36129  33.077  25.526   2.186
72406W        W36130  29.511  26.023   2.827
72407W        W36131  12.778  30.136  10.415
72408W        W36132  18.782  32.488  12.539
72409W        W36133   8.332  16.772  14.860
72410W        W36134   3.807  17.594  11.385
72411W        W36135  31.539  28.565  11.990
72412W        W36136  37.524  35.588  13.008
72413W        W36137   2.413  24.513  14.319
72414W        W36138  19.543  28.138  14.345
72415W        W36139  10.270  21.579  10.961
72416W        W36140   1.389  31.117  14.278
72417W        W36141  44.981  43.283   2.188
72418W        W36142  25.534  23.221  12.027
72419W        W36143  29.523  42.340   2.763
72420W        W36144  26.155  28.637  11.874
72421W        W36145  10.866  25.619   0.774
72422W        W36146   9.182  13.690  12.565
72423W        W36147   4.219  41.868   0.747
72424W        W36148  35.890  32.583   3.685
72425W        W36149  19.563  34.371  12.883
72426W        W36150  33.601  25.589   0.311
72427W        W36151  10.354  32.534   3.784
72428W        W36152  21.249  21.127  12.495
72429W        W36153  38.899  20.238   0.936
72430W        W36154   1.239  15.211  14.286
72431W        W36155  16.683  16.116  10.155
72432W        W36156  24.102  28.135   0.395
72433W        W36157  19.155   0.254   4.662
72434W        W36158  20.092  32.004   1.391
72435W        W36159  14.661  21.151  13.843
72436W        W36160  13.328  38.898  11.048
72437W        W36161  34.554  44.853  12.947
72438W        W36162   0.964  33.602   4.664
72439W        W36163  31.059  42.384   4.782
72440W        W36164   2.229   7.369  10.093
72441W        W36165  35.495   5.882  10.947
72442W        W36166  35.514  17.267  14.373
72443W        W36167   1.807  35.541  14.279
72444W        W36168  19.697  27.622   0.780
72445W        W36169  10.874  22.513   1.853
72446W        W36170   2.287  37.011   0.482
72447W        W36171  44.990  31.064   2.361
72448W        W36172   5.916  20.223   0.439
72449W        W36173   3.864  21.534  10.506
72450W        W36174   2.785  40.041  14.877
72451W        W36175   9.669  33.412   3.244
72452W        W36176  11.724  30.612   4.665
72453W        W36177  12.758  26.631   4.335
72454W        W36178  32.509  29.934   3.637
72455W        W36179   8.852  42.965  13.339
72456W        W36180  18.565   2.781   0.457
72457W        W36181   8.219  17.790   0.810
72458W        W36182   4.389  20.734  10.553
72459W        W36183  39.842   3.364  11.924
72460W        W36184   0.836   8.267   1.789
72461W        W36185   5.786   5.734  10.468
72462W        W36186  20.108  44.484  11.516
72463W        W36187  40.529  27.013  11.561
72464W        W36188  23.083   7.292   3.284
72465W        W36189  41.965  41.858  12.346
72466W        W36190  19.268  16.807  11.040
72467W        W36191  27.644  18.601  13.485
72468W        W36192  44.835   5.263   3.741
72469W        W36193  43.884  17.141  10.547
72470W        W36194   2.272  21.670  14.398
72471W        W36195  33.021  35.552   3.774
72472W        W36196   8.264  34.411   4.317
72473W        W36197  31.643   3.281   3.808
72474W        W36198   9.186  18.160  14.283
72475W        W36199  21.755  20.193   4.289
72476W        W36200  38.839  23.572   0.877
72477W        W36201  35.536  38.868   2.360
72478W        W36202  23.081  28.577   1.915
72479W        W36203   6.243   7.894   2.696
72480W        W36204  20.692  11.721   2.342
72481W        W36205  11.703  22.709   1.841
72482W        W36206  12.697  30.009  13.320
72483W        W36207  28.162  30.606   4.670
72484W        W36208  35.874  42.406   4.219
72485W        W36209   4.424  11.343   4.153
72486W        W36210   9.385  21.183  12.884
72487W        W36211  41.928  13.755  14.507
72488W        W36212   6.296   2.280  12.458
72489W        W36213  24.637   5.896  12.521
72490W        W36214  32.499   9.381  12.844
72491W        W36215  17.761  33.953   0.902
72492W        W36216  25.635  31.568   1.873
72493W        W36217  11.280  13.780   4.161
72494W        W36218  35.917  35.956   1.872
72495W        W36219  16.771  18.243  13.900
72496W        W36220  28.164  21.058  13.498
72497W        W36221  43.772  27.118  14.793
72498W        W36222   8.779  41.868   0.839
72499W        W36223  19.569  43.503   4.744
72500W        W36224  36.058  27.455   2.676
72501W        W36225   2.289   8.737  13.831
72502W        W36226  25.637   3.370  10.466
72503W        W36227  27.582  35.360   4.813
72504W        W36228  16.763  21.618   0.387
72505W        W36229  20.681  13.783  13.478
72506W        W36230  24.051  30.561   3.744
72507W        W36231  15.184  19.675  10.978
72508W        W36232  34.536  25.969   3.752
72509W        W36233   3.806  26.090   4.156
72510W        W36234   1.915  11.327  11.430
72511W        W36235  44.358  27.192   0.274
72512W        W36236   5.401  15.287  10.451
72513W        W36237   8.895  14.666  10.496
72514W        W36238  31.966  16.240   3.271
72515W        W36239  30.559  14.747   4.354
72516W        W36240  26.194  36.509   0.320
72517W        W36241   7.809  26.680  13.464
72518W        W36242  27.049  43.972   3.218
72519W        W36243   5.742  19.155  13.007
72520W        W36244  43.893  31.916  11.419
72521W        W36245  34.426   8.183  13.016
72522W        W36246   5.420  31.138   0.780
72523W        W36247  16.244  41.384  12.872
72524W        W36248  31.930  17.663   4.743
72525W        W36249  18.673   2.891  10.971
72526W        W36250  27.647  36.553  14.871
72527W        W36251  11.177  38.949   3.836
72528W        W36252  19.269  22.541  13.526
72529W        W36253  42.896   3.907   3.321
72530W        W36254  43.470  39.892   4.308
72531W        W36255  42.791   9.203   5.114
72532W        W36256  31.938  39.316  12.396
72533W        W36257  44.789  13.194   4.254
72534W        W36258  44.427  20.117   0.957
72535W        W36259  43.404  11.825   3.290
72536W        W36260  39.539   9.644  11.526
72537W        W36261   8.383   7.762  14.945
72538W        W36262   8.792  37.975  12.863
72539W        W36263  13.110  33.589  14.323
72540W        W36264  17.636  11.804  13.918
72541W        W36265   6.307  27.598  11.955
72542W        W36266   5.265   2.419   3.274
72543W        W36267  40.314   2.957  14.029
72544W        W36268   7.220   8.348   0.855
72545W        W36269   6.862  37.490  12.049
72546W        W36270  21.660  10.666   1.909
72547W        W36271   7.840   0.286   4.735
72548W        W36272  43.289  31.557   2.720
72549W        W36273  37.513  35.039  10.507
72550W        W36274  31.417  42.285   4.237
72551W        W36275   0.874   0.487   0.823
72552W        W36276   7.710  27.140   2.413
72553W        W36277  19.722  41.449   2.247
72554W        W36278  25.535  19.079  13.536
72555W        W36279  41.295   2.784  12.829
72556W        W36280  22.070  23.610   1.860
72557W        W36281  35.889  44.944   1.382
72558W        W36282  39.055  19.585   1.759
72559W        W36283  30.150  14.719  13.989
72560W        W36284  18.558  36.581   3.774
72561W        W36285  22.600  27.087  13.954
72562W        W36286  17.171   7.667   3.166
72563W        W36287  40.011  44.476  13.850
72564W        W36288  18.576  18.050   4.626
72565W        W36289   0.280   0.777   1.730
72566W        W36290  28.057   0.839  11.119
72567W        W36291  17.087   1.356  12.451
72568W        W36292  30.491  29.606   4.218
72569W        W36293  12.822  10.193   1.323
72570W        W36294  36.533  12.754  10.922
72571W        W36295  29.533  35.071   1.919
72572W        W36296  22.696   5.358   3.634
72573W        W36297  15.781  20.086   1.393
72574W        W36298  20.059   6.318  14.311
72575W        W36299  24.638  12.634  14.402
72576W        W36300  20.213  10.652   4.125
72577W        W36301  29.086   7.836  11.962
72578W        W36302  34.023  36.943   1.372
72579W        W36303   3.335   3.857   2.848
72580W        W36304  31.515  29.434  14.430
72581W        W36305  39.840  13.198   1.346
72582W        W36306  12.714  19.199  14.292
72583W        W36307  14.187   0.440  10.630
72584W        W36308   9.330   8.873   2.869
72585W        W36309  19.648  32.904  13.368
72586W        W36310  10.739   7.838   2.411
72587W        W36311  43.316  22.544  14.931
72588W        W36312  10.171  44.299   5.173
72589W        W36313  10.724   5.915   2.713
72590W        W36314  28.516  28.669  11.541
72591W        W36315  35.518   5.269   2.666
72592W        W36316  21.094  22.509   2.255
72593W        W36317  38.420  36.431   0.866
72594W        W36318   3.434  28.447   4.351
72595W        W36319  19.543   3.350   0.883
72596W        W36320  15.774  13.654  12.434
72597W        W36321  33.587   9.307   3.870
72598W        W36322  28.021  24.123   2.679
72599W        W36323  13.791  32.563  11.569
72600W        W36324  36.944  42.930   3.736
72601W        W36325   6.749   4.730  12.901
72602W        W36326  20.642   2.452   0.427
72603W        W36327   8.795  32.571   2.304
72604W        W36328   7.763  33.950   4.189
72605W        W36329   9.339  30.129  11.590
72606W        W36330  13.764  11.831  14.006
72607W        W36331  30.461  21.059   0.474
72608W        W36332  24.118   5.219  13.373
72609W        W36333  23.633  34.479  14.769
72610W        W36334  27.596  43.949  11.994
72611W        W36335  37.957  34.438  13.378
72612W        W36336  10.776  32.934   4.194
72613W        W36337  37.933  33.587  10.119
72614W        W36338  12.788  15.171  12.493
72615W        W36339  39.394  26.698  13.451
72616W        W36340  13.822  42.374  13.955
72617W        W36341  22.019  38.500   4.681
72618W        W36342  11.329  10.695   3.211
72619W        W36343  13.188  30.620   4.160
72620W        W36344   7.186  39.523   1.235
72621W        W36345  22.624  17.133   1.704
72622W        W36346  13.122   2.747   3.858
72623W        W36347   5.884  24.649   1.302
72624W        W36348  31.506  24.218  11.122
72625W        W36349   1.315  21.117   1.400
72626W        W36350  38.382  28.461   1.400
72627W        W36351   8.175  31.490   2.330
72628W        W36352  20.200  19.231   1.755
72629W        W36353  43.319  12.355   1.277
72630W        W36354  29.956  30.551  13.926
72631W        W36355   9.740  31.002  11.551
72632W        W36356  10.747  11.776   3.727
72633W        W36357  10.200   1.471  14.817
72634W        W36358  13.125  30.069   3.228
72635W        W36359  43.896  12.718   4.115
72636W        W36360  20.715  37.365  14.790
72637W        W36361  35.906  34.559   3.358
72638W        W36362   8.761   2.412  12.486
72639W        W36363  10.263  33.571   0.440
72640W        W36364  16.672  25.060  10.888
72641W        W36365  34.109  29.554  11.870
72642W        W36366   0.250   4.396  12.465
72643W        W36367  12.619   3.942   3.817
72644W        W36368  20.092  26.677   3.792
72645W        W36369   3.329  11.271   3.640
72646W        W36370   1.256  35.548  11.872
72647W        W36371  10.139  12.738   2.346
72648W        W36372  28.045   2.338  13.051
72649W        W36373   0.845  31.072   2.249
72650W        W36374  28.080  11.836  12.377
72651W        W36375  31.600  33.095   1.934
72652W        W36376  30.984  22.639  11.040
72653W        W36377  31.024  21.552  13.035
72654W        W36378  43.781   1.434   3.247
72655W        W36379  33.552  24.165  12.436
72656W        W36380  36.902  11.326   3.376
72657W        W36381   7.296   9.876  11.576
72658W        W36382   6.336  37.371   1.328
72659W        W36383  36.496   0.907   2.279
72660W        W36384  44.008   2.261  14.765
72661W        W36385  16.777   4.867   0.863
72662W        W36386  43.478   7.179   3.731
72663W        W36387  18.609  18.175  14.945
72664W        W36388  24.494  42.440   3.230
72665W        W36389  20.535  24.647   4.733
72666W        W36390   6.767   0.875   1.333
72667W        W36391   9.740  43.463   0.457
72668W        W36392  32.523  25.711  11.582
72669W        W36393   1.837  22.642   3.172
72670W        W36394  16.093   2.417   0.361
72671W        W36395   8.296  18.562   0.735
72672W        W36396  12.762  41.304   4.231
72673W        W36397  43.917  42.327  13.799
72674W        W36398  38.561  40.363  12.398
72675W        W36399  21.118  10.368  14.355
72676W        W36400  12.351  33.032   3.174
72677W        W36401   9.746  41.380   0.780
72678W        W36402  41.401   2.420  14.306
72679W        W36403  38.896  28.515  14.023
72680W        W36404  35.902  31.968  11.575
72681W        W36405   6.876  11.745   0.278
72682W        W36406   5.811   4.865  12.956
72683W        W36407  21.590  13.265   1.841
72684W        W36408  17.145   9.764  12.851
72685W        W36409  22.657  32.966  12.550
72686W        W36410   5.329   8.718   0.329
72687W        W36411   3.808   2.854  12.823
72688W        W36412  20.624  32.579   4.703
72689W        W36413  13.266  10.789  13.321
72690W        W36414  44.963  26.483  12.539
72691W        W36415   7.899   9.847  14.289
72692W        W36416  32.482  14.133  11.027
72693W        W36417  26.007   6.855   0.248
72694W        W36418  34.962  21.528  12.999
72695W        W36419  25.039   0.306   0.376
72696W        W36420   7.233   5.903  13.317
72697W        W36421  37.918  27.976   3.768
72698W        W36422   8.712  34.006   2.255
72699W        W36423  43.880  26.178   2.317
72700W        W36424   1.802  26.962   0.395
72701W        W36425  35.989  13.304  12.495
72702W        W36426  11.186  21.514   3.841
72703W        W36427  12.148  22.065  14.983
72704W        W36428   0.835  37.515   0.281
72705W        W36429   0.854  34.108  12.557
72706W        W36430  37.896  44.486   0.907
72707W        W36431  34.588  30.597   0.803
72708W        W36432  13.204  20.676   3.235
72709W        W36433  44.482  34.006   9.589
72710W        W36434  16.212   9.223   3.373
72711W        W36435  11.317  34.870  13.454
72712W        W36436  34.611  32.962  14.883
72713W        W36437  23.038  13.821   2.748
72714W        W36438  42.424  12.121   1.364
72715W        W36439   2.791  12.351   4.275
72716W        W36440  35.998  31.898  11.883
72717W        W36441  37.944   5.315  11.423
72718W        W36442  20.653  29.010  11.013
72719W        W36443  26.630  11.628  12.541
72720W        W36444  33.458  12.618  12.446
72721W        W36445  16.120   5.195   2.295
72722W        W36446   2.881  32.627   2.738
72723W        W36447  35.393  26.039  11.606
72724W        W36448  36.872  10.743  14.876
72725W        W36449   8.201  40.997  12.930
72726W        W36450   7.281   4.892  13.997
72727W        W36451  40.879  20.223   1.834
72728W        W36452  21.185  42.882   2.299
72729W        W36453   3.382  19.054   3.157
72730W        W36454  18.660  31.533  11.035
72731W        W36455  26.488  38.865  12.442
72732W        W36456  35.457  12.333   4.788
72733W        W36457  25.007   3.920  12.443
72734W        W36458  31.408  29.136  12.961
72735W        W36459   8.842  15.578   4.753
72736W        W36460   7.312  22.070  11.108
72737W        W36461   6.849   6.770   2.223
72738W        W36462  43.487  15.727  14.876
72739W        W36463   6.808  20.683   1.780
72740W        W36464   2.729  29.615  13.446
72741W        W36465  15.272  38.958  13.866
72742W        W36466  17.093  27.541  13.392
72743W        W36467  43.399   4.417  13.317
72744W        W36468   8.697  41.433   2.187
72745W        W36469  42.363  37.942  11.982
72746W        W36470  19.259  37.569  12.400
72747W        W36471   8.899  14.181   1.233
72748W        W36472  41.441  10.666  14.307
72749W        W36473  18.129  13.726   2.251
72750W        W36474  26.087  22.642  14.999
72751W        W36475  28.150  39.899   2.804
72752W        W36476  12.168  15.311  12.398
72753W        W36477  14.312  26.504  10.047
72754W        W36478  20.123  21.240   0.880
72755W        W36479   6.679  41.438  10.555
72756W        W36480  10.689  22.020   4.600
72757W        W36481   2.776  40.821   4.627
72758W        W36482  38.854  29.019   3.228
72759W        W36483  35.373  21.517   3.742
72760W        W36484  20.055  25.064   3.795
72761W        W36485  30.422   0.945   1.716
72762W        W36486  39.013  33.073   1.439
72763W        W36487  10.253  23.170  11.865
72764W        W36488  26.195   4.824  11.460
72765W        W36489   8.254  14.164  12.562
72766W        W36490  29.995  44.331  10.565
72767W        W36491   5.785  12.673   1.449
72768W        W36492  12.193  39.855  13.538
72769W        W36493  22.236  39.400   3.273
72770W        W36494   7.303  43.442  12.901
72771W        W36495  25.975  40.481   4.701
72772W        W36496  13.710   7.267  14.351
72773W        W36497  35.458  38.976  13.468
72774W        W36498   9.820  34.977  14.790
72775W        W36499  35.979  25.686   2.793
72776W        W36500   0.936  33.454  14.992
72777W        W36501  36.446   7.278  14.497
72778W        W36502  36.094  36.457   1.327
72779W        W36503  32.555  18.689   1.370
72780W        W36504  42.820  27.160   3.823
72781W        W36505   7.300   1.416  11.597
72782W        W36506  36.575  20.646   1.699
72783W        W36507  44.371  32.911  13.931
72784W        W36508  25.640  37.522  11.477
72785W        W36509  36.566  26.535   3.255
72786W        W36510  43.310  26.081  10.926
72787W        W36511   8.235   5.704   1.226
72788W        W36512  32.048  33.541  10.965
72789W        W36513   8.664  12.734   3.278
72790W        W36514  35.389  38.374  10.912
72791W        W36515  14.817  12.830  14.905
72792W        W36516  15.742   8.760   0.785
72793W        W36517  33.117  10.862   4.154
72794W        W36518  20.158  36.903   3.175
72795W        W36519  44.893  39.921   3.181
72796W        W36520   7.185  24.989   4.809
72797W        W36521  35.064  32.952   3.735
72798W        W36522  22.623  30.534  11.479
72799W        W36523  34.980  37.462   3.671
72800W        W36524  19.078  40.400   9.669
72801W        W36525  35.020  34.555  13.032
72802W        W36526   3.885   4.739  12.989
72803W        W36527  40.435  41.788  11.022
72804W        W36528   8.881  33.392  11.445
72805W        W36529  30.039  26.085   0.355
72806W        W36530  37.875  23.096   1.820
72807W        W36531  35.956  14.748   2.340
72808W        W36532   3.461  15.755  13.007
72809W        W36533  15.668  24.492  10.609
72810W        W36534  43.378  23.654  12.863
72811W        W36535  10.684   3.302  13.535
72812W        W36536  17.075  33.385  10.424
72813W        W36537  14.690  15.646  13.038
72814W        W36538  24.525  39.371   3.280
72815W        W36539  24.716  42.417  11.057
72816W        W36540  15.777  29.073  14.480
72817W        W36541  11.831  20.098  11.039
72818W        W36542   8.217  32.974   1.920
72819W        W36543  25.649   6.233  14.342
72820W        W36544   9.178  42.443  11.037
72821W        W36545   9.323   1.296   0.846
72822W        W36546  37.850  40.983   2.701
72823W        W36547  35.060   8.217   2.205
72824W        W36548  15.272  10.716  13.795
72825W        W36549  39.500  35.549  11.127
72826W        W36550  31.955  32.963   4.329
72827W        W36551  29.143  33.615  12.449
72828W        W36552  10.181  12.780   0.957
72829W        W36553  15.710  20.045  13.503
72830W        W36554  29.659  41.023   3.704
72831W        W36555  17.751   9.297   0.362
72832W        W36556   8.740   3.831  13.973
72833W        W36557  11.243  32.011   3.297
72834W        W36558  28.969  25.586   1.220
72835W        W36559  25.160   3.228  10.455
72836W        W36560  26.519  44.484  11.063
72837W        W36561  34.615  18.195   2.217
72838W        W36562  24.618   5.357   4.167
72839W        W36563  12.140   0.885   1.420
72840W        W36564  44.394   9.181   4.751
72841W        W36565  40.530  12.143  12.567
72842W        W36566  28.599  23.216   4.350
72843W        W36567  24.142  42.521  13.470
72844W        W36568  25.690   8.191   3.769
72845W        W36569  15.314  30.908  10.612
72846W        W36570  38.940  16.072  13.352
72847W        W36571  21.661  28.152   2.243
72848W        W36572  39.824  18.723   4.258
72849W        W36573  41.325  14.664  13.057
72850W        W36574  14.730   2.790   2.207
72851W        W36575  36.543  22.075   2.287
72852W        W36576  25.523  17.110   2.708
72853W        W36577   9.777   3.290  13.948
72854W        W36578  17.198   1.272   4.734
72855W        W36579  35.053  32.138   2.739
72856W        W36580  17.685  16.176   4.257
72857W        W36581  32.515  38.563   4.776
72858W        W36582   1.789  28.025  11.380
72859W        W36583  11.143   1.459  14.976
72860W        W36584  41.304  22.721  14.406
72861W        W36585  35.899  44.290  13.442
72862W        W36586   6.381   6.822   4.123
72863W        W36587  39.383  26.175  14.456
72864W        W36588   6.734  23.107  14.823
72865W        W36589  42.848  11.206   0.892
72866W        W36590  33.548   1.931  11.601
72867W        W36591  14.182  17.766  11.107
72868W        W36592  17.577   3.765   3.305
72869W        W36593  27.166  40.857  11.885
72870W        W36594  22.151  17.703  11.454
72871W        W36595  44.491  23.098   2.891
72872W        W36596  27.510   0.422   4.217
72873W        W36597  39.906  30.503  11.090
72874W        W36598  14.822  44.773  14.480
72875W        W36599  35.991  35.866  12.888
72876W        W36600  39.859  36.856  11.935
72877W        W36601  37.947  24.644   1.271
72878W        W36602  29.630   8.717  14.289
72879W        W36603  17.185  38.467   4.193
72880W        W36604   8.196  24.083   0.460
72881W        W36605  22.634  29.443   5.742
72882W        W36606  40.841  37.946   4.250
72883W        W36607  30.446  22.669  10.567
72884W        W36608   4.379  23.120  13.458
72885W        W36609  36.378  31.132   1.866
72886W        W36610  20.200   7.833   0.760
72887W        W36611  39.871  19.265  12.843
72888W        W36612   1.829  37.410  11.408
72889W        W36613  17.781  39.366  10.560
72890W        W36614   1.960  28.567   4.268
72891W        W36615  13.169  41.952  13.545
72892W        W36616  26.111  36.041   0.420
72893W        W36617  10.174  30.596   3.169
72894W        W36618  35.421  25.073   1.338
72895W        W36619  19.546   5.237  14.392
72896W        W36620   2.430  23.120   3.383
72897W        W36621  21.237  21.751   4.215
72898W        W36622  22.565  34.109   1.398
72899W        W36623   3.267   3.297  13.795
72900W        W36624  25.493  35.537  12.546
72901W        W36625  35.089   0.969   2.377
72902W        W36626  24.605  18.662  12.517
72903W        W36627  41.451   1.844  12.073
72904W        W36628   3.907  29.589  11.006
72905W        W36629  19.644  15.622  14.339
72906W        W36630  14.761  42.472  14.482
72907W        W36631  18.076   6.395  11.913
72908W        W36632  21.685  41.845  10.895
72909W        W36633  25.605  43.317   0.813
72910W        W36634  28.095  26.700   3.814
72911W        W36635  21.631  10.831  14.910
72912W        W36636  14.698  43.968   4.320
72913W        W36637  22.539   3.924   4.135
72914W        W36638  22.662  22.550   3.348
72915W        W36639  38.453  20.046   3.298
72916W        W36640  23.652  15.783   4.719
72917W        W36641  15.667  23.152  10.960
72918W        W36642  29.455  14.204   0.794
72919W        W36643  24.129   2.408  10.444
72920W        W36644  31.039  32.940  12.469
72921W        W36645  28.661   3.270   1.766
72922W        W36646  17.631  36.378  10.541
72923W        W36647  20.578  20.056  11.857
72924W        W36648  30.452   5.431  14.311
72925W        W36649  16.246   7.220   4.115
72926W        W36650  34.430  13.671   0.376
72927W        W36651   3.762   6.777   1.912
72928W        W36652  19.260  17.679   0.373
72929W        W36653  32.514  35.532   0.753
72930W        W36654  22.118  16.764   1.332
72931W        W36655  12.762  14.819  14.906
72932W        W36656  14.750  35.060   4.702
72933W        W36657  36.435  34.007   1.889
72934W        W36658  26.542  14.682  12.998
72935W        W36659  31.616  35.967   2.415
72936W        W36660  27.501  38.372  12.971
72937W        W36661  21.676  22.113  13.978
72938W        W36662   8.702  31.992  13.029
72939W        W36663   9.153  22.636   3.331
72940W        W36664  18.105  44.313  13.342
72941W        W36665   3.352  22.068   3.659
72942W        W36666  40.850  33.610   3.192
72943W        W36667  35.536  32.469  13.546
72944W        W36668  42.408  33.874   3.806
72945W        W36669  21.582  11.338   3.296
72946W        W36670  39.987  11.313   0.910
72947W        W36671  37.358  43.799   1.383
72948W        W36672  42.999   9.662   1.703
72949W        W36673  23.533   5.405  11.123
72950W        W36674  29.627   3.434  13.451
72951W        W36675  28.435   2.813   0.943
72952W        W36676  26.085  32.619  12.524
72953W        W36677  43.779  17.726  11.449
72954W        W36678  17.742  16.194  14.986
72955W        W36679  33.981  22.204  12.979
72956W        W36680  22.524  37.387  13.510
72957W        W36681  25.023   3.326   3.823
72958W        W36682   1.849   3.720  11.039
72959W        W36683   2.844  25.084  10.550
72960W        W36684   2.880  43.986   0.801
72961W        W36685  29.577  13.628   1.747
72962W        W36686  29.977  27.487   4.697
72963W        W36687  42.029  27.128   0.928
72964W        W36688  14.146  20.598   4.783
72965W        W36689  13.260  22.608   1.374
72966W        W36690  36.363  24.047  14.856
72967W        W36691   2.450  13.807  10.570
72968W        W36692  29.604  40.547   2.667
72969W        W36693  41.944  37.990  10.456
72970W        W36694  10.658   7.315  13.330
72971W        W36695   0.817   9.676  14.513
72972W        W36696   5.278  43.919  14.337
72973W        W36697  34.380  25.068   1.413
72974W        W36698  12.270  23.024   0.867
72975W        W36699  33.598   5.875   0.299
72976W        W36700  21.692   3.369  10.926
72977W        W36701  11.241  23.118  11.569
72978W        W36702  43.373  39.476  13.040
72979W        W36703  25.524  36.925  14.929
72980W        W36704  18.247  32.553  13.314
72981W        W36705  10.157  38.039  13.967
72982W        W36706  26.035  37.406   4.153
72983W        W36707  22.215   6.296   1.335
72984W        W36708  19.254   8.369  12.348
72985W        W36709  38.554   5.761  11.107
72986W        W36710  10.379  15.163   4.163
72987W        W36711  38.921  21.535  10.014
72988W        W36712   7.854  32.103  12.391
72989W        W36713  24.068   8.348  12.434
72990W        W36714  18.272  30.020   2.232
72991W        W36715  35.099  13.109   3.697
72992W        W36716   6.685  29.620  11.409
72993W        W36717  44.346  24.663  11.066
72994W        W36718  24.608  13.239  13.037
72995W        W36719  43.817  11.705   0.929
72996W        W36720   1.313  41.342  11.015
72997W        W36721  40.309  31.538  14.279
72998W        W36722   3.399   1.785  11.472
72999W        W36723  24.533  43.993  12.070
73000W        W36724  30.424  20.096   3.253
73001W        W36725   4.317   8.773   1.814
73002W        W36726  35.601  22.651   4.734
73003W        W36727  41.034  42.815   1.228
73004W        W36728  14.307   8.780  13.454
73005W        W36729  15.691  42.954   1.818
73006W        W36730  13.830  37.402   0.775
73007W        W36731   9.835  33.018   1.708
73008W        W36732  30.163  40.475   4.606
73009W        W36733  14.319  35.484  14.971
73010W        W36734   6.856  20.094   1.316
73011W        W36735  40.904  26.047   2.701
73012W        W36736  22.009  32.463   0.846
73013W        W36737  27.580  28.072  13.432
73014W        W36738  35.871  22.081  14.990
73015W        W36739   3.895  12.670  14.510
73016W        W36740  32.478  24.534  14.460
73017W        W36741  40.397  29.632  14.340
73018W        W36742  38.549  38.452   4.271
73019W        W36743  23.664  41.026   4.314
73020W        W36744  24.016  31.610   1.849
73021W        W36745  24.197   1.901   4.759
73022W        W36746  32.944  15.183   0.318
73023W        W36747   2.749  17.136   3.307
73024W        W36748   2.783   6.832   2.810
73025W        W36749  12.637  27.039   4.133
73026W        W36750   4.269   8.812  14.500
73027W        W36751  39.342   5.435   1.906
73028W        W36752  37.524   6.828  13.365
73029W        W36753  11.819  17.305   3.383
73030W        W36754  40.841  14.635  11.859
73031W        W36755  27.171  38.341   4.702
73032W        W36756  16.250  32.004   1.310
73033W        W36757  33.080  34.506  12.009
73034W        W36758  18.770   6.835  12.056
73035W        W36759  34.603  36.396   2.813
73036W        W36760  14.757  30.974   4.198
73037W        W36761  42.971  43.992   2.744
73038W        W36762  37.518   7.756  14.855
73039W        W36763   8.709   8.297  13.882
73040W        W36764   2.864  33.054  13.044
73041W        W36765   5.785  15.604  11.077
73042W        W36766  17.686  34.492  12.067
73043W        W36767  37.846  25.078   2.763
73044W        W36768  20.582  14.158   3.148
73045W        W36769  41.889  42.987   1.855
73046W        W36770  39.466  36.918  13.881
73047W        W36771  41.466  30.498  12.466
73048W        W36772  38.837  12.676   4.660
73049W        W36773   6.920  22.079  11.563
73050W        W36774  34.442   7.207   2.246
73051W        W36775  13.765  39.431  11.011
73052W        W36776  14.682  35.981   3.699
73053W        W36777  26.693  19.579   2.315
73054W        W36778  30.977  12.673  14.971
73055W        W36779  15.578  41.330   4.805
73056W        W36780  16.300  29.534  14.485
73057W        W36781  40.856  29.632   1.421
73058W        W36782   7.197  10.326  10.534
73059W        W36783   6.699  44.922   2.207
73060W        W36784   9.391  17.131  12.045
73061W        W36785  41.300  28.593   0.393
73062W        W36786  17.744  22.578  12.374
73063W        W36787  44.845  18.211   2.262
73064W        W36788  28.112   0.274   4.288
73065W        W36789  24.000   8.265   0.900
73066W        W36790  16.744  27.561   0.433
73067W        W36791  32.964  24.041   1.706
73068W        W36792  44.475  29.544  10.645
73069W        W36793   6.320  15.256   0.793
73070W        W36794   0.782  26.462   0.376
73071W        W36795  31.635  15.625   4.279
73072W        W36796  32.018  43.395  10.435
73073W        W36797   6.356   0.307  13.039
73074W        W36798  14.125  39.022   1.697
73075W        W36799  31.896   8.358   3.793
73076W        W36800  14.135  34.599  10.500
73077W        W36801  35.464  25.710  11.603
73078W        W36802  32.898   7.361  14.303
73079W        W36803  16.214   0.484   0.316
73080W        W36804  28.636  13.710  10.630
73081W        W36805   2.458  21.079   5.100
73082W        W36806  22.028  28.022  14.810
73083W        W36807   3.288  42.300   3.675
73084W        W36808   3.824  22.067   2.360
73085W        W36809   3.357  18.282  11.012
73086W        W36810  42.922  15.772   0.435
73087W        W36811  38.346  11.838   3.698
73088W        W36812  24.529  10.261   0.851
73089W        W36813  31.145   2.382  13.919
73090W        W36814  25.699  44.404  12.057
73091W        W36815   7.891  41.935  13.536
73092W        W36816  40.434   5.331   1.705
73093W        W36817  38.372  36.450  14.394
73094W        W36818   4.788  43.918   2.382
73095W        W36819  15.691  43.807  12.570
73096W        W36820  27.164  15.298  13.322
73097W        W36821  27.007  24.674  10.545
73098W        W36822  26.702  42.833  11.966
73099W        W36823  24.693  18.714   0.957
73100W        W36824  28.443  35.082  13.381
73101W        W36825  32.591  16.142   3.318
73102W        W36826  41.366  20.212  14.789
73103W        W36827  18.200  32.009  13.481
73104W        W36828  44.478   9.730   1.804
73105W        W36829  17.140  26.651   1.410
73106W        W36830   2.941  29.496  12.866
73107W        W36831  16.090  29.057   1.339
73108W        W36832  19.599  38.560   0.268
73109W        W36833   5.918  38.051  12.393
73110W        W36834  34.494  44.464  13.889
73111W        W36835  28.569  17.092   2.323
73112W        W36836  17.584  18.148   1.712
73113W        W36837  14.661  43.389   4.836
73114W        W36838  28.466   7.337   0.375
73115W        W36839  26.591  20.226   1.220
73116W        W36840  14.294  37.958   3.704
73117W        W36841  30.154   6.428  13.380
73118W        W36842  22.737  25.476   3.723
73119W        W36843  18.629  33.492  13.407
73120W        W36844   6.247  39.353  13.943
73121W        W36845  42.807  42.446   1.872
73122W        W36846  20.570  35.900   3.284
73123W        W36847   6.367  35.907   4.135
73124W        W36848   1.265   7.267   1.806
73125W        W36849  31.617  10.676  12.092
73126W        W36850  24.615  18.634   4.147
73127W        W36851  19.092  11.848   4.729
73128W        W36852   1.268  31.544  12.409
73129W        W36853  34.971  40.395  11.541
73130W        W36854  16.710  30.121  12.383
73131W        W36855  39.883  35.966   0.902
73132W        W36856  12.306   8.236  11.455
73133W        W36857   1.885  34.409   3.657
73134W        W36858  29.068  41.795   3.318
73135W        W36859  32.990  30.149   4.651
73136W        W36860  22.182  34.600   3.209
73137W        W36861   4.232  42.474   3.211
73138W        W36862  19.124  21.588   4.704
73139W        W36863   3.345  18.070  11.476
73140W        W36864  17.662   0.850   2.408
73141W        W36865  27.088   2.230  14.310
73142W        W36866  17.791  24.493   2.258
73143W        W36867   8.804   3.918   1.407
73144W        W36868   9.197  33.526   4.215
73145W        W36869   6.719  34.376   2.778
73146W        W36870  21.043  14.134   3.352
73147W        W36871  10.350  31.585  13.330
73148W        W36872  16.705  35.887   0.829
73149W        W36873  13.691  19.733  11.035
73150W        W36874  21.686  40.489   1.419
73151W        W36875   2.322  22.006  14.021
73152W        W36876  42.841   9.713  13.935
73153W        W36877   8.831   7.179   1.717
73154W        W36878  36.359  12.253   0.318
73155W        W36879  23.731  13.180  13.973
73156W        W36880  39.063  44.469   2.186
73157W        W36881  15.766   3.285   3.245
73158W        W36882   1.754  19.084   1.705
73159W        W36883  24.094   1.271  13.064
73160W        W36884  18.053  41.979  12.881
73161W        W36885   4.355   7.324   0.288
73162W        W36886  30.978  31.994  14.768
73163W        W36887  25.084  35.604   1.875
73164W        W36888  35.450  14.720  11.975
73165W        W36889  18.736   5.276  14.854
73166W        W36890   5.747  42.814  10.509
73167W        W36891   6.417  42.942  14.010
73168W        W36892   4.829  31.419  13.455
73169W        W36893   1.843   5.886  14.303
73170W        W36894  43.972  38.852   4.167
73171W        W36895  14.676  39.827  13.317
73172W        W36896  37.382  31.525  14.456
73173W        W36897  31.489  15.290  11.949
73174W        W36898  28.145   6.749   4.598
73175W        W36899  40.035  23.569  14.373
73176W        W36900  33.988  17.661  12.074
73177W        W36901  17.064  33.983  13.810
73178W        W36902  24.593  37.965  13.030
73179W        W36903  37.028   3.394  13.879
73180W        W36904  18.640  19.099   3.355
73181W        W36905  17.698  22.614  10.966
73182W        W36906  40.870   1.895   3.639
73183W        W36907  33.001  29.016  13.968
73184W        W36908  42.331   9.866   1.779
73185W        W36909  33.580  35.859   4.288
73186W        W36910   8.383  29.467  12.339
73187W        W36911  43.355  20.687  14.923
73188W        W36912  41.483  22.095   0.299
73189W        W36913  34.110  40.020   2.673
73190W        W36914  30.927  28.478   4.287
73191W        W36915  15.274  42.960  12.570
73192W        W36916  41.017   4.348   0.248
73193W        W36917  14.252  39.910   4.738
73194W        W36918   0.816  13.260   5.290
73195W        W36919  22.028  40.549  10.994
73196W        W36920  12.219  23.997  10.939
73197W        W36921  21.057  16.664  11.464
73198W        W36922  24.566  23.151   0.417
73199W        W36923  20.724  15.663   1.805
73200W        W36924   6.371  43.282   3.801
73201W        W36925  40.511  31.505  14.986
73202W        W36926  19.665  37.368   4.270
73203W        W36927  32.053  44.774  13.490
73204W        W36928  15.317  39.539  11.888
73205W        W36929  13.251  34.431   0.249
73206W        W36930  26.098  16.671   0.317
73207W        W36931   9.869   4.352  12.051
73208W        W36932  27.061  10.205   9.943
73209W        W36933  16.311  22.680   3.302
73210W        W36934  29.173  36.940  11.893
73211W        W36935  38.856  10.196  10.426
73212W        W36936  10.764  24.493   3.367
73213W        W36937  21.127   2.365  10.916
73214W        W36938  35.900   7.731  12.951
73215W        W36939  21.753  33.889  12.480
73216W        W36940  19.590   3.751   0.757
73217W        W36941   0.800   8.385  13.311
73218W        W36942  30.621  35.052  14.445
73219W        W36943  21.693  43.292  13.016
73220W        W36944  19.684  19.716  13.416
73221W        W36945   6.357  31.635   3.803
73222W        W36946  29.011  29.100  12.428
73223W        W36947  18.710  16.102  14.925
73224W        W36948   6.221   4.780   9.969
73225W        W36949   8.846  33.018  13.043
73226W        W36950  16.150  21.523  10.464
73227W        W36951  34.490   7.906   2.858
73228W        W36952  30.605  30.525   1.233
73229W        W36953  44.928  18.261  10.461
73230W        W36954  35.551  21.695   4.341
73231W        W36955  16.143  18.623  14.015
73232W        W36956  12.798   7.828  11.005
73233W        W36957  15.802  27.999   4.799
73234W        W36958  30.561  26.584   3.203
73235W        W36959  44.970  17.094   0.310
73236W        W36960  22.534   2.744  10.499
73237W        W36961  23.522  24.661   1.742
73238W        W36962  34.083  35.407   4.793
73239W        W36963  23.210  21.729   2.880
73240W        W36964  44.369   8.785   2.729
73241W        W36965   5.751   6.737  14.942
73242W        W36966  26.664   4.851   3.378
73243W        W36967  29.438   9.312  11.491
73244W        W36968  25.123  36.024   1.380
73245W        W36969  15.819  40.054   1.847
73246W        W36970  26.587  22.530  13.459
73247W        W36971  19.173   7.789  10.998
73248W        W36972   2.791   8.763  10.421
73249W        W36973  21.717  30.558  14.933
73250W        W36974  26.126  39.063  14.774
73251W        W36975  10.235  19.184  13.319
73252W        W36976  17.254  42.967  14.313
73253W        W36977  39.409   9.163   4.713
73254W        W36978   5.253  17.659   1.808
73255W        W36979   6.694  39.881   4.667
73256W        W36980  19.186   5.721   2.783
73257W        W36981  44.983  28.089  14.000
73258W        W36982  14.324  33.564   1.272
73259W        W36983  10.634  44.841  13.001
73260W        W36984  29.491  43.483   0.281
73261W        W36985  37.387  19.759   2.896
73262W        W36986  30.518   5.819   0.256
73263W        W36987  26.007   8.758   4.161
73264W        W36988  29.037   6.815  11.903
73265W        W36989  37.919  44.437  13.043
73266W        W36990  36.963  35.410   2.285
73267W        W36991  19.680  21.195   1.362
73268W        W36992  13.176   6.370  12.531
73269W        W36993  22.526  23.494   2.679
73270W        W36994  42.307   1.290   3.220
73271W        W36995  30.079  33.041   4.825
73272W        W36996  10.788  35.566  14.027
73273W        W36997  26.583   2.801  14.800
73274W        W36998  38.326  40.827   0.309
73275W        W36999  20.535   3.462  13.964
73276W        W37000   4.918  37.901  10.891
73277W        W37001  26.664   9.686  13.979
73278W        W37002   1.338  25.148   1.716
73279W        W37003  31.581  43.425   4.216
73280W        W37004   3.753  12.758   0.769
73281W        W37005  21.257  31.005   0.405
73282W        W37006  44.309  29.956  12.423
73283W        W37007  37.928  24.075   4.191
73284W        W37008  23.563  37.530   3.215
73285W        W37009  18.654  12.836   1.707
73286W        W37010  21.047  30.624  12.046
73287W        W37011   5.215  36.076   1.910
73288W        W37012  40.463  38.571  11.855
73289W        W37013  10.306  22.189   1.711
73290W        W37014  26.072  15.219   0.732
73291W        W37015  20.162  38.387  10.538
73292W        W37016  25.021  13.179   4.335
73293W        W37017  15.198   6.237  11.529
73294W        W37018  17.751  23.193   4.326
73295W        W37019  27.175  33.591   1.407
73296W        W37020  11.801  23.034   3.725
73297W        W37021  20.253  22.009  14.919
73298W        W37022  23.561  24.979  12.984
73299W        W37023  17.558  34.942  14.009
73300W        W37024  10.140  42.978  11.946
73301W        W37025   2.266  42.999  10.416
73302W        W37026  25.044   8.759   9.988
73303W        W37027  34.971  15.601  10.957
73304W        W37028  17.594  15.188   0.463
73305W        W37029  40.339  17.172  13.832
73306W        W37030  29.978  17.734   2.703
73307W        W37031   7.894  25.700   4.629
73308W        W37032  38.353  25.672   2.404
73309W        W37033  43.402  20.544  13.526
73310W        W37034  12.624  40.540   1.710
73311W        W37035  36.420  19.059   4.641
73312W        W37036  26.653  12.705   4.638
73313W        W37037  33.381  43.908   3.363
73314W        W37038  39.315  40.044   0.804
73315W        W37039  41.309  38.035  14.977
73316W        W37040  15.232   8.301  13.354
73317W        W37041  11.691  41.850   4.231
73318W        W37042  43.401   6.920   3.670
73319W        W37043   3.434  30.147  12.852
73320W        W37044   0.927  18.055  10.449
73321W        W37045   2.366   3.281   2.293
73322W        W37046   0.415  12.682  11.920
73323W        W37047  36.068  27.558   1.286
73324W        W37048   1.459  39.057  12.421
73325W        W37049  43.891   1.433   1.442
73326W        W37050  30.047   2.400  10.550
73327W        W37051   7.218  13.689   4.188
73328W        W37052   3.859  20.690  12.365
73329W        W37053   6.831  29.563   0.280
73330W        W37054   7.722  24.717   2.700
73331W        W37055  20.628  38.560  13.020
73332W        W37056  43.404  29.562  13.314
73333W        W37057  26.512   7.884  13.463
73334W        W37058  29.586  17.105   3.185
73335W        W37059  24.182  30.129  13.983
73336W        W37060   7.863   5.248  12.420
73337W        W37061  13.732  21.646  12.006
73338W        W37062  26.625   1.784  10.502
73339W        W37063  37.908   5.708   1.743
73340W        W37064  30.003  21.098   2.318
73341W        W37065  10.735  25.153  11.594
73342W        W37066  10.799  17.625  14.383
73343W        W37067  20.111  26.533   2.830
73344W        W37068   2.795   6.722  12.025
73345W        W37069  39.811  21.055  12.537
73346W        W37070  41.385  41.836   3.205
73347W        W37071  36.874   0.439   4.205
73348W        W37072   6.268  24.131  14.359
73349W        W37073  10.285  29.430  12.958
73350W        W37074   3.353   5.710  14.772
73351W        W37075  39.537  25.187  11.565
73352W        W37076  43.939  23.621   0.419
73353W        W37077  31.136  42.286  14.886
73354W        W37078   3.423  34.918   0.259
73355W        W37079   0.314  36.398   0.783
73356W        W37080  31.131  39.456  13.846
73357W        W37081   8.173   1.414   0.800
73358W        W37082  42.511  16.758   2.732
73359W        W37083  14.226   8.342   3.257
73360W        W37084   2.842  24.633  13.975
73361W        W37085  21.714  10.810  11.428
73362W        W37086  12.804   5.388   1.449
73363W        W37087  43.929  20.147  13.512
73364W        W37088  43.773  42.515   3.245
73365W        W37089  41.498   0.488   2.700
73366W        W37090  37.400  38.908  10.976
73367W        W37091  34.039  41.349  11.382
73368W        W37092  24.645  33.584   4.318
73369W        W37093  34.925  30.080   0.452
73370W        W37094  30.486  12.795   3.870
73371W        W37095  22.556   7.713   2.225
73372W        W37096  15.192   7.201  13.495
73373W        W37097  25.022  39.316   2.394
73374W        W37098  39.536   5.276   3.805
73375W        W37099  15.617  29.001   9.978
73376W        W37100   2.282  20.644   1.808
73377W        W37101  37.488  37.906  10.501
73378W        W37102  20.162  19.537   5.206
73379W        W37103   4.283   8.379  12.440
73380W        W37104  24.092  13.175   4.313
73381W        W37105  35.863  13.609   2.800
73382W        W37106  26.505  37.875   3.287
73383W        W37107   9.174  38.069   2.805
73384W        W37108  25.619  16.646   0.455
73385W        W37109  36.561  41.485   2.362
73386W        W37110  44.465  44.490   3.742
73387W        W37111  29.555  33.927  10.495
73388W        W37112  15.774   7.752   0.325
73389W        W37113  10.341  26.132  12.376
73390W        W37114  30.497  25.074   0.478
73391W        W37115  44.958  13.216  13.351
73392W        W37116  13.618  25.636   1.386
73393W        W37117  40.970  41.958   2.360
73394W        W37118  23.573  21.744   1.342
73395W        W37119  21.220   7.381   4.687
73396W        W37120  22.540  33.084   1.836
73397W        W37121  35.520  28.642   2.870
73398W        W37122  33.061  31.553   1.894
73399W        W37123  24.680  20.684   4.185
73400W        W37124  22.608  27.657  12.883
73401W        W37125  11.698  21.621  11.417
73402W        W37126  33.436  37.492  13.492
73403W        W37127  44.336   9.223   1.216
73404W        W37128  15.145  44.364  13.937
73405W        W37129   3.869  27.188  13.531
73406W        W37130  12.647  22.146  13.907
73407W        W37131  28.950  16.717  12.892
73408W        W37132  11.259  28.679   3.786
73409W        W37133   3.915  44.774  11.393
73410W        W37134  12.761  22.742  12.351
73411W        W37135  19.135  38.454  10.471
73412W        W37136  18.719   0.461  10.092
73413W        W37137  35.402   5.324   0.890
73414W        W37138  40.352  38.998   1.345
73415W        W37139   5.788   2.307  11.548
73416W        W37140  38.466  23.542  12.532
73417W        W37141  27.171  32.117  13.038
73418W        W37142  20.712  31.581  10.997
73419W        W37143  14.232  44.764  12.060
73420W        W37144   5.287  29.486   2.718
73421W        W37145  25.099  14.654   4.164
73422W        W37146  21.115   9.188  13.462
73423W        W37147   1.455   4.720  11.956
73424W        W37148   0.428   0.963   2.202
73425W        W37149   7.333   7.776  11.383
73426W        W37150  16.574  31.041  13.548
73427W        W37151   3.930  12.775   4.674
73428W        W37152   7.857  25.978   4.169
73429W        W37153  21.169  28.988  14.893
73430W        W37154  43.886  27.090   0.798
73431W        W37155  10.357  39.393   3.782
73432W        W37156  22.026  16.246   3.772
73433W        W37157  24.184  33.012  11.870
73434W        W37158   6.329  30.651  10.989
73435W        W37159  18.247  12.286   0.893
73436W        W37160   3.709  40.402   0.751
73437W        W37161  40.974   4.944  14.877
73438W        W37162  26.577  16.181   4.774
73439W        W37163  40.387   8.192  11.525
73440W        W37164  36.361  38.461   0.396
73441W        W37165  13.130  11.337  13.956
73442W        W37166  33.588  13.754  13.838
73443W        W37167  34.037  28.525   2.823
73444W        W37168  21.647   3.935   0.806
73445W        W37169  37.403  31.930   1.398
73446W        W37170  34.084  35.601   0.962
73447W        W37171  37.055   8.395   4.256
73448W        W37172  35.445  21.127   0.356
73449W        W37173  27.007  25.027   5.312
73450W        W37174  36.566  18.700  13.366
73451W        W37175  34.605  21.264  11.472
73452W        W37176   7.901   8.305  14.432
73453W        W37177  40.927   6.689  14.964
73454W        W37178  33.509  28.557  11.389
73455W        W37179  14.194   8.206  10.994
73456W        W37180   3.953  35.468  11.499
73457W        W37181  38.895  20.541  11.126
73458W        W37182  31.919  14.239  10.609
73459W        W37183  43.878  23.491   2.819
73460W        W37184  18.174  17.597   0.840
73461W        W37185  12.163  38.514  12.513
73462W        W37186  30.047  12.723  12.095
73463W        W37187  15.107   7.277   9.537
73464W        W37188  16.269   8.281   1.448
73465W        W37189  15.112  25.673  11.918
73466W        W37190  15.183  17.068   4.343
73467W        W37191   6.759  15.294   2.712
73468W        W37192  24.689  44.771  11.548
73469W        W37193   8.829  16.236   1.285
73470W        W37194   2.779   2.941   4.744
73471W        W37195  33.876  36.038   1.302
73472W        W37196   2.939  11.177   4.254
73473W        W37197  20.554   5.400   2.776
73474W        W37198  25.524  34.035   0.453
73475W        W37199  17.650  42.444   4.298
73476W        W37200  39.482  39.352   1.869
73477W        W37201  15.141  37.463   2.266
73478W        W37202  23.137  18.634  11.946
73479W        W37203  29.131  10.867   0.754
73480W        W37204  37.456  12.341  14.003
73481W        W37205  32.594  36.501   2.299
73482W        W37206  21.163   1.264   2.766
73483W        W37207  24.137  15.236  13.793
73484W        W37208  41.823  19.142  11.609
73485W        W37209   5.743   7.378   0.466
73486W        W37210  39.336   1.302  10.520
73487W        W37211  10.642  36.088  14.422
73488W        W37212  22.586  36.857   3.295
73489W        W37213   0.378  15.674  12.497
73490W        W37214  34.044  35.034   1.361
73491W        W37215   6.222   7.361   0.427
73492W        W37216  15.635  14.810  11.042
73493W        W37217  22.686  34.498   2.781
73494W        W37218  36.904  17.156   0.848
73495W        W37219  15.208  22.018  14.874
73496W        W37220   4.359   6.217  11.480
73497W        W37221  33.406  14.139  12.439
73498W        W37222  25.060  19.186   1.733
73499W        W37223  31.948  44.292   1.741
73500W        W37224   2.246  44.923  11.526
73501W        W37225  34.474   7.777  13.009
73502W        W37226  13.793   8.348   2.689
73503W        W37227  31.627  11.155  13.910
73504W        W37228  39.852  33.572  12.923
73505W        W37229  42.470  30.466   2.233
73506W        W37230  31.519  33.130  11.877
73507W        W37231   5.282  44.940   0.425
73508W        W37232  20.201  42.812  11.875
73509W        W37233   5.286   2.959  14.025
73510W        W37234  28.600  13.691  13.436
73511W        W37235  13.191   9.319   1.449
73512W        W37236  17.699  39.929  13.530
73513W        W37237  36.592   1.359  10.424
73514W        W37238  35.981  21.720   3.322
73515W        W37239  44.421  30.044   0.761
73516W        W37240  44.829  25.523  14.936
73517W        W37241  16.295  40.490   2.289
73518W        W37242  34.401   4.387   2.336
73519W        W37243  27.012   2.401  12.558
73520W        W37244  23.167  30.543  14.011
73521W        W37245  13.268   6.870   2.283
73522W        W37246   8.879  35.412   2.758
73523W        W37247  12.339  44.305   4.639
73524W        W37248  31.407  25.040  12.008
73525W        W37249  10.276   0.953   1.712
73526W        W37250   7.183  40.412   2.401
73527W        W37251  19.615  26.573  12.886
73528W        W37252  13.803  31.038   2.805
73529W        W37253  25.532  19.234  14.864
73530W        W37254  17.590   9.176  14.441
73531W        W37255  16.285  22.590  12.997
73532W        W37256   2.795  25.635   2.305
73533W        W37257  39.485  24.059   9.973
73534W        W37258  14.749  15.719  10.022
73535W        W37259  40.438  44.917   1.306
73536W        W37260  29.962   2.777   0.410
73537W        W37261  17.086  37.511  14.305
73538W        W37262   0.810  39.916  13.336
73539W        W37263  11.860  31.433   1.928
73540W        W37264  37.395  29.042  10.892
73541W        W37265  17.700  33.955  10.985
73542W        W37266  41.476  16.123  11.881
73543W        W37267   9.753  29.446   0.792
73544W        W37268   6.334  13.345   3.656
73545W        W37269   3.858  24.182  12.409
73546W        W37270   1.468  11.307   4.770
73547W        W37271  20.550  18.682   2.830
73548W        W37272  13.136  38.063   0.867
73549W        W37273  31.450  15.707   1.734
73550W        W37274  31.092  17.104   4.656
73551W        W37275  33.407   1.896   2.329
73552W        W37276  37.035  34.071   0.324
73553W        W37277   6.390  42.349   0.313
73554W        W37278  37.870  30.621   5.186
73555W        W37279  19.588  28.550   4.697
73556W        W37280  34.115  13.205  14.498
73557W        W37281  44.806  27.026  10.543
73558W        W37282  41.843  13.690   0.274
73559W        W37283  10.874   9.273  13.920
73560W        W37284  27.489  40.438   4.752
73561W        W37285  42.479   4.315  13.894
73562W        W37286  21.659  21.713   4.664
73563W        W37287  16.568  36.479  12.372
73564W        W37288  12.311  10.339  13.976
73565W        W37289  41.483   8.249  10.898
73566W        W37290   0.984  21.225   3.332
73567W        W37291  41.043  15.589   0.891
73568W        W37292  12.833  26.672   2.336
73569W        W37293  30.975  19.535   3.297
73570W        W37294  23.531  37.949  12.933
73571W        W37295  29.056  33.493  14.855
73572W        W37296  10.171  19.753  14.794
73573W        W37297  18.661   3.853  14.437
73574W        W37298  26.653  34.464  10.909
73575W        W37299  32.069  19.169   0.807
73576W        W37300  17.226   1.385  10.437
73577W        W37301   0.285  13.340   3.197
73578W        W37302  35.380  43.302   4.801
73579W        W37303  39.970   8.900   3.387
73580W        W37304  40.514  22.068  12.851
73581W        W37305  10.155  27.495   2.667
73582W        W37306  27.190  40.007   2.738
73583W        W37307  23.493  43.443   3.348
73584W        W37308  10.679  33.067  13.937
73585W        W37309  16.273  27.604   1.781
73586W        W37310  38.475  35.999  13.542
73587W        W37311  24.108  29.508  10.495
73588W        W37312  31.052  16.299   0.260
73589W        W37313  39.947   2.823  14.859
73590W        W37314  35.385   4.401   1.367
73591W        W37315  13.264  12.197  11.390
73592W        W37316   7.311  27.012  13.454
73593W        W37317  11.753   7.722  11.078
73594W        W37318  39.464   9.283   1.747
73595W        W37319  11.765  25.670  12.831
73596W        W37320  34.948  30.419   3.276
73597W        W37321  32.919  39.833  11.075
73598W        W37322   7.343  10.850  11.402
73599W        W37323  14.157  39.552  13.943
73600W        W37324  14.691  16.702  13.486
73601W        W37325  13.153  10.766   0.791
73602W        W37326  18.193  40.329   2.673
73603W        W37327  27.665  20.151   3.274
73604W        W37328  17.194  27.641  14.831
73605W        W37329  13.335  36.429  11.031
73606W        W37330  35.865  10.140  13.367
73607W        W37331  10.179  37.045  11.572
73608W        W37332   8.829  38.444   2.875
73609W        W37333  33.898  33.120   1.243
73610W        W37334  11.339   4.356   3.222
73611W        W37335  26.514  26.148  12.974
73612W        W37336   2.363  19.680  11.544
73613W        W37337  14.105   5.746   0.271
73614W        W37338  20.231   1.443   4.618
73615W        W37339  13.344   6.800  11.023
73616W        W37340  29.941   2.470  14.988
73617W        W37341  30.458   4.735   2.892
73618W        W37342  35.960  21.182   1.383
73619W        W37343  43.412  31.489  12.893
73620W        W37344  31.962  41.371  10.048
73621W        W37345  35.955  21.545  13.839
73622W        W37346  28.935  16.149  12.391
73623W        W37347  24.671  43.361   4.821
73624W        W37348  24.143  44.964   1.423
73625W        W37349  28.610  12.722   3.725
73626W        W37350  14.725  29.554  11.980
73627W        W37351  23.533  41.876  12.847
73628W        W37352   9.192  10.263  11.383
73629W        W37353  15.710  11.201   4.835
73630W        W37354  23.189   9.670  13.489
73631W        W37355   1.853  38.883   2.685
73632W        W37356  24.554  25.139  12.375
73633W        W37357   9.171  11.845   1.838
73634W        W37358  21.194  34.076  14.940
73635W        W37359  44.993   3.254   2.204
73636W        W37360  20.604  29.031  13.458
73637W        W37361   6.241  11.187   2.342
73638W        W37362  22.234  23.200  12.086
73639W        W37363  14.833  21.176  14.328
73640W        W37364  31.460  18.250   2.219
73641W        W37365  15.247  25.682  13.951
73642W        W37366  31.621  24.685  10.914
73643W        W37367   9.338   9.376   0.866
73644W        W37368   2.856   9.856   1.871
73645W        W37369  42.365  40.859   9.502
73646W        W37370  31.511   5.329  14.438
73647W        W37371   6.817  39.386   2.703
73648W        W37372  10.865  44.311  10.917
73649W        W37373  39.488  36.527   2.723
73650W        W37374  24.075  19.632  11.408
73651W        W37375  24.564  10.228  10.148
73652W        W37376  43.797   5.420   0.474
73653W        W37377  17.695  11.300   2.408
73654W        W37378  41.797   9.830   4.247
73655W        W37379  32.905  35.567  11.517
73656W        W37380  40.870  33.620   3.639
73657W        W37381  22.712  18.675  11.568
73658W        W37382  31.551  34.054   0.416
73659W        W37383  22.605   6.789  14.889
73660W        W37384  35.043   8.736   5.149
73661W        W37385  18.178  17.159   0.394
73662W        W37386  37.539  25.606  10.629
73663W        W37387   2.344  42.839   3.757
73664W        W37388  37.469  17.685  12.924
73665W        W37389  26.628  31.124   2.410
73666W        W37390  17.756  27.571   0.315
73667W        W37391  38.474  14.167   0.893
73668W        W37392  32.065  40.383   0.417
73669W        W37393  30.089   6.423  11.945
73670W        W37394  38.036  31.980   1.857
73671W        W37395  11.633  22.602   4.222
73672W        W37396  20.743   3.377  13.010
73673W        W37397  31.485   1.889  13.013
73674W        W37398  40.921  28.097  14.970
73675W        W37399  31.954  14.627  12.941
73676W        W37400   7.255  26.004  12.942
73677W        W37401  41.473  21.113   4.189
73678W        W37402  12.156  28.473   1.450
73679W        W37403  19.674  32.551  12.960
73680W        W37404  22.616  43.298   2.810
73681W        W37405   0.262  33.434   2.319
73682W        W37406  21.084  29.486   4.280
73683W        W37407  44.433  29.527   3.860
73684W        W37408  43.512   2.363   0.457
73685W        W37409   9.225  12.804  13.342
73686W        W37410  31.905  20.167  11.375
73687W        W37411  34.963  32.588   0.473
73688W        W37412   5.927  14.146  12.414
73689W        W37413  10.375  42.024  11.907
73690W        W37414  32.892  31.627   0.370
73691W        W37415  13.320  19.655  11.405
73692W        W37416  38.405  42.325   2.213
73693W        W37417  31.147  33.956  13.428
73694W        W37418   4.375   4.802   0.301
73695W        W37419   7.900  33.550  14.384
73696W        W37420  26.601  32.578   1.445
73697W        W37421  35.977  37.846   4.598
73698W        W37422  14.275   1.237  12.432
73699W        W37423  43.974  28.627   3.832
73700W        W37424  41.019   6.768   1.811
73701W        W37425  19.058  14.148  12.853
73702W        W37426  13.618  11.760   2.357
73703W        W37427  21.054   7.674   3.302
73704W        W37428  36.429  26.061  10.615
73705W        W37429  37.934  35.943   2.187
73706W        W37430  21.066  28.620  11.526
73707W        W37431   0.330  17.232   2.684
73708W        W37432  15.741  23.594  12.888
73709W        W37433   9.237   6.318   2.884
73710W        W37434  15.200  12.178  14.422
73711W        W37435  31.930  17.177   3.645
73712W        W37436  39.948  15.326   4.682
73713W        W37437  21.719  30.658   2.265
73714W        W37438  44.760  24.097   2.212
73715W        W37439  32.560   0.310   3.772
73716W        W37440  26.663   1.341   4.118
73717W        W37441  14.215  38.890  13.404
73718W        W37442  43.445  30.651  12.082
73719W        W37443  23.617  17.564  11.591
73720W        W37444  28.653  23.001   0.373
73721W        W37445  32.053   1.886  12.342
73722W        W37446  26.051   6.422  10.419
73723W        W37447  13.748  37.441  14.000
73724W        W37448  37.085  23.513   3.696
73725W        W37449   5.859  40.815  12.563
73726W        W37450  31.412   1.450   0.740
73727W        W37451   4.803   5.232   3.371
73728W        W37452   9.850  13.645   3.770
73729W        W37453  17.716  10.714  12.970
73730W        W37454  20.169  20.188  14.504
73731W        W37455  33.890   7.416  11.072
73732W        W37456  31.995  15.320   0.956
73733W        W37457  24.005  17.685   4.317
73734W        W37458  31.633   2.939   1.398
73735W        W37459  17.640  42.951  14.907
73736W        W37460  30.110  16.215   4.622
73737W        W37461  19.604  31.481   1.278
73738W        W37462   5.251   9.698  12.895
73739W        W37463  16.141   0.795   0.901
73740W        W37464  20.241  31.983  14.491
73741W        W37465  23.215  33.906  13.354
73742W        W37466   0.882   7.225   5.083
73743W        W37467  12.794  39.558  11.887
73744W        W37468  40.811   5.877   3.311
73745W        W37469   5.704  10.332  13.350
73746W        W37470  42.379  39.027  13.931
73747W        W37471  38.027  17.280  13.007
73748W        W37472  38.331  26.168   1.804
73749W        W37473  42.308  35.457  14.512
73750W        W37474  40.836  23.591  14.469
73751W        W37475  18.196  31.143  14.896
73752W        W37476  23.526  39.428   3.732
73753W        W37477  26.701  44.325   0.291
73754W        W37478   8.844   7.834  13.448
73755W        W37479  11.267  25.164  11.449
73756W        W37480  16.787  40.027  12.080
73757W        W37481  31.014  22.058   3.775
73758W        W37482   2.276  22.123  13.528
73759W        W37483  33.479  40.028  13.495
73760W        W37484  14.278   9.663  12.028
73761W        W37485  35.095  40.897   4.253
73762W        W37486  27.131  29.667   0.368
73763W        W37487  43.909  35.083  14.952
73764W        W37488  20.680   6.413   0.280
73765W        W37489  11.778  25.590   1.218
73766W        W37490  18.210  12.639   1.299
73767W        W37491  40.445  10.838   3.378
73768W        W37492  15.191  44.884   1.226
73769W        W37493  16.647   8.864   3.330
73770W        W37494  15.723  17.160   1.396
73771W        W37495  20.199  35.437   2.198
73772W        W37496   5.770  30.616   1.813
73773W        W37497  43.347  22.084  10.517
73774W        W37498  25.587  44.833  11.546
73775W        W37499  44.963  37.021   4.613
73776W        W37500  17.653  30.140  13.415
73777W        W37501  14.624   0.989   4.675
73778W        W37502  32.589  19.644   3.287
73779W        W37503  41.519  12.647  11.059
73780W        W37504  38.383  37.851  14.368
73781W        W37505  42.815  11.225  13.539
73782W        W37506  12.617  44.837  13.842
73783W        W37507  37.549  18.260  11.876
73784W        W37508  34.423  17.265   2.324
73785W        W37509  12.317  40.026  11.918
73786W        W37510  40.974  24.979  11.014
73787W        W37511  41.990  24.564   3.328
73788W        W37512  34.604  11.184   2.236
73789W        W37513  31.623  44.336  11.489
73790W        W37514  12.295   1.923  12.379
73791W        W37515   5.417  29.656   4.305
73792W        W37516  41.828  36.987  11.538
73793W        W37517  39.829   4.340   2.885
73794W        W37518   7.819  30.635  11.550
73795W        W37519  42.295  33.545  12.934
73796W        W37520  13.323  16.674  14.016
73797W        W37521   7.344   6.312  11.384
73798W        W37522  15.236  25.602   4.648
73799W        W37523  32.468   4.204   1.412
73800W        W37524  12.139   5.831  13.443
73801W        W37525   8.713   9.730   3.169
73802W        W37526  28.037   8.700  12.341
73803W        W37527  36.864  35.908  10.637
73804W        W37528  35.498   6.706   4.190
73805W        W37529   1.892  16.224   4.354
73806W        W37530  23.562   2.853   2.820
73807W        W37531  33.401   7.749   3.271
73808W        W37532  36.904  38.489   1.746
73809W        W37533   5.929   9.863  10.421
73810W        W37534  43.347  21.643   0.861
73811W        W37535  37.344  17.743   1.266
73812W        W37536  35.515  43.957  14.417
73813W        W37537  24.723  26.048   3.270
73814W        W37538  34.945  37.878   0.914
73815W        W37539  22.234  19.613  12.480
73816W        W37540  24.576  19.194  12.910
73817W        W37541  41.808  33.116  13.866
73818W        W37542   3.285  41.929   1.917
73819W        W37543  35.007  41.416   0.747
73820W        W37544   9.709  37.868  12.039
73821W        W37545  35.594  30.579  13.865
73822W        W37546   1.846   1.957   3.696
73823W        W37547  38.047   4.795   4.246
73824W        W37548  28.020  27.106  14.855
73825W        W37549  30.520  16.638   4.296
73826W        W37550  31.111  32.888   0.937
73827W        W37551  28.515  32.425  13.387
73828W        W37552  35.954  35.970  11.057
73829W        W37553  23.542  25.631   1.714
73830W        W37554  41.043  19.622  13.853
73831W        W37555  10.753   3.417   3.320
73832W        W37556  20.734  33.552   0.322
73833W        W37557   2.426  14.759   2.209
73834W        W37558  10.324  43.904   4.733
73835W        W37559  25.164  10.841   4.644
73836W        W37560  12.669  38.062  13.013
73837W        W37561  35.531  28.582   4.241
73838W        W37562  23.203  35.364   4.603
73839W        W37563  17.718   2.398   4.738
73840W        W37564  31.646  36.880   1.885
73841W        W37565  24.089   4.911   2.742
73842W        W37566  16.276  33.027  12.837
73843W        W37567  35.965  31.504  11.932
73844W        W37568  23.012   6.706   4.815
73845W        W37569  35.509   5.351  13.060
73846W        W37570  21.236  40.959   3.809
73847W        W37571  31.904  35.010  11.041
73848W        W37572  41.937  40.507   3.375
73849W        W37573   6.817  30.519  10.998
73850W        W37574  11.220  22.146  13.914
73851W        W37575   0.753  34.016   3.694
73852W        W37576   8.674  22.109  11.483
73853W        W37577  18.211   7.245   4.216
73854W        W37578  38.510  21.674  13.895
73855W        W37579  41.404  36.410  12.514
73856W        W37580   6.845  30.425   4.310
73857W        W37581   3.784  26.674   0.762
73858W        W37582  43.786   4.274   1.214
73859W        W37583  28.140  28.070   3.640
73860W        W37584   0.807   4.354  10.580
73861W        W37585  17.166   5.318   3.821
73862W        W37586  23.498  35.961  13.064
73863W        W37587  11.683  40.532   0.329
73864W        W37588  40.309  22.685   1.286
73865W        W37589  25.594  17.610  10.638
73866W        W37590  30.585  12.808  13.029
73867W        W37591  38.450  13.713  13.851
73868W        W37592  35.088  13.299   4.285
73869W        W37593  13.248  41.961   0.802
73870W        W37594  39.006  35.995   2.859
73871W        W37595  11.176   0.961   1.255
73872W        W37596   3.937  30.484   3.270
73873W        W37597  32.109  23.199  12.392
73874W        W37598  10.723  25.628   2.257
73875W        W37599  37.420  10.300  12.880
73876W        W37600   8.743  34.454   0.819
73877W        W37601  44.839  15.800   1.769
73878W        W37602  42.417  22.627   1.406
73879W        W37603  38.480  38.380   2.376
73880W        W37604   6.800  10.340   0.406
73881W        W37605  41.463  24.589  13.364
73882W        W37606  42.355  15.589   1.255
73883W        W37607  33.380  43.439   3.333
73884W        W37608  35.871  23.061   0.917
73885W        W37609   9.246   9.701   2.893
73886W        W37610  11.239  35.478   2.706
73887W        W37611  23.197  29.486  12.405
73888W        W37612   5.725   4.296   2.755
73889W        W37613  28.529  25.670  10.644
73890W        W37614  17.763  22.152  11.402
73891W        W37615  44.434  22.568  12.511
73892W        W37616  14.592  13.622   2.714
73893W        W37617  41.373  42.311  14.506
73894W        W37618  11.725  18.056  12.541
73895W        W37619  19.674  18.244   2.242
73896W        W37620  34.052  20.681   3.321
73897W        W37621  34.074  36.089   0.286
73898W        W37622   5.704  41.509   0.891
73899W        W37623  11.296  16.235  14.811
73900W        W37624   3.753  39.456   2.189
73901W        W37625  22.618  19.068   2.881
73902W        W37626   4.778  38.525  14.839
73903W        W37627  24.221  12.628   1.804
73904W        W37628   4.334  44.444   4.304
73905W        W37629  12.694  28.465  14.882
73906W        W37630  38.015  12.686  11.971
73907W        W37631   5.704   6.879   2.366
73908W        W37632  23.641  37.459  11.515
73909W        W37633  19.053   8.328   1.777
73910W        W37634  18.247  44.999  14.280
73911W        W37635   2.836  13.244  14.957
73912W        W37636  41.848  27.950   1.833
73913W        W37637   4.252  13.306  13.432
73914W        W37638  39.016   9.379   4.320
73915W        W37639  36.580  39.065  10.020
73916W        W37640  30.988   8.299   4.610
73917W        W37641   7.305  44.950  14.794
73918W        W37642  32.954  17.083   5.131
73919W        W37643  33.597  13.728   3.829
73920W        W37644  11.334  37.917   3.728
73921W        W37645  38.838  36.910   1.731
73922W        W37646   1.908  35.373   0.321
73923W        W37647  10.876  17.186  11.574
73924W        W37648  14.795   5.906   0.328
73925W        W37649  16.581   8.340  12.515
73926W        W37650  27.047  15.199   4.831
73927W        W37651   3.230   0.805  13.361
73928W        W37652  10.723   1.764   0.272
73929W        W37653   4.303  22.562  10.470
73930W        W37654  30.040  13.299   2.279
73931W        W37655   1.944  13.762  11.449
73932W        W37656  22.691  38.484   1.889
73933W        W37657  10.803  29.489   4.650
73934W        W37658  11.770   7.398   1.296
73935W        W37659  17.711  28.935   3.638
73936W        W37660  27.944  19.745   2.301
73937W        W37661   1.443  26.974   2.241
73938W        W37662  17.718  10.193  11.123
73939W        W37663  35.036  40.475   0.387
73940W        W37664   2.462  25.165  10.099
73941W        W37665  30.985  31.018   1.302
73942W        W37666   7.338   1.919   4.272
73943W        W37667  21.530  31.980   3.220
73944W        W37668  29.506  14.684  12.926
73945W        W37669   4.284  43.404  13.309
73946W        W37670  44.271  16.578  14.771
73947W        W37671  20.228  23.220  11.470
73948W        W37672  27.122  31.918   2.267
73949W        W37673  26.004  35.421   0.902
73950W        W37674  27.155  15.644  11.554
73951W        W37675  17.141  37.344  12.478
73952W        W37676  28.566  10.761   1.429
73953W        W37677  30.970   5.758  10.442
73954W        W37678  21.045   7.367   0.899
73955W        W37679  14.719  13.304  11.875
73956W        W37680  32.539  36.004   0.907
73957W        W37681  19.756  39.477   4.123
73958W        W37682  10.342  33.617  13.507
73959W        W37683  17.116  35.596  14.482
73960W        W37684   8.749  14.105  10.893
73961W        W37685  37.952  35.914   1.754
73962W        W37686  33.101  33.980   2.408
73963W        W37687  35.970   9.783   4.815
73964W        W37688  22.196  13.663   9.606
73965W        W37689  11.853  19.730   4.210
73966W        W37690  24.012   4.718   4.192
73967W        W37691  17.589   3.278  12.372
73968W        W37692  26.072  29.538  12.044
73969W        W37693  37.469  27.005  10.605
73970W        W37694  16.637  13.723   5.293
73971W        W37695  17.082   6.798   2.405
73972W        W37696  22.998  13.680   3.159
73973W        W37697  27.958  13.294   1.245
73974W        W37698  13.716   2.459  10.620
73975W        W37699  29.997   6.316   1.789
73976W        W37700  20.171  40.445  12.966
73977W        W37701  14.272  18.671   3.367
73978W        W37702   5.811  28.631   1.867
73979W        W37703  20.106  13.319   3.277
73980W        W37704  25.585  13.134  14.844
73981W        W37705   3.409   3.287   2.257
73982W        W37706  14.180  18.618  10.416
73983W        W37707  28.184  23.724   2.884
73984W        W37708  43.418  30.024   0.433
73985W        W37709  25.129  29.437   1.227
73986W        W37710   3.440  14.685   1.728
73987W        W37711  42.485  35.559   2.834
73988W        W37712  10.863  35.978   4.206
73989W        W37713  23.610  18.651   2.337
73990W        W37714  25.641  24.710  11.598
73991W        W37715   3.262  27.120  13.974
73992W        W37716   0.933  27.472   0.454
73993W        W37717  26.613  39.903   3.815
73994W        W37718  27.499   1.862  12.884
73995W        W37719  41.828  24.542   4.353
73996W        W37720  32.090  27.683   2.294
73997W        W37721  25.511  21.705   3.260
73998W        W37722  36.503   6.828   4.674
73999W        W37723  29.445   4.308   2.367
74000W        W37724  37.003  32.619  13.484
74001W        W37725  15.598  44.872   5.239
74002W        W37726  38.392  10.674  10.910
74003W        W37727  43.320   8.211   4.341
74004W        W37728  20.116  30.629  14.787
74005W        W37729  40.486  36.923   4.634
74006W        W37730  13.651  12.331  14.981
74007W        W37731   3.367   9.150  14.777
74008W        W37732  33.455  41.340   0.875
74009W        W37733   7.888  21.744   2.803
74010W        W37734  23.529  36.447  12.340
74011W        W37735   4.365  41.890  13.015
74012W        W37736   7.878  24.053  14.289
74013W        W37737  33.992  41.419  14.362
74014W        W37738  18.120   0.827  12.028
74015W        W37739  37.375  39.505  14.302
74016W        W37740  36.379  38.485  11.403
74017W        W37741   1.315   1.873   4.638
74018W        W37742   3.430  11.742  11.124
74019W        W37743  31.062  40.943  11.972
74020W        W37744  27.988  17.686  10.959
74021W        W37745  28.945  28.652   3.709
74022W        W37746  31.464  36.942  13.400
74023W        W37747   6.860  27.517  13.948
74024W        W37748  30.024  15.816   2.329
74025W        W37749  24.639   1.888  12.554
74026W        W37750  37.882  37.883  10.635
74027W        W37751   8.876   0.267   4.778
74028W        W37752  27.093  12.338   3.332
74029W        W37753   4.783  36.350  14.765
74030W        W37754  34.450  26.192  10.462
74031W        W37755  13.253  22.127   0.266
74032W        W37756  26.507  41.814   0.881
74033W        W37757   9.179  14.782   3.322
74034W        W37758  32.920  31.024  11.039
74035W        W37759  42.526   1.920  14.484
74036W        W37760  24.087  19.754  14.963
74037W        W37761   4.234  44.853   1.399
74038W        W37762  16.092  27.077   2.379
74039W        W37763  14.211  39.439  11.510
74040W        W37764  24.140  19.149  14.772
74041W        W37765  37.458  43.819  13.029
74042W        W37766  37.558  19.235   2.734
74043W        W37767   3.947  19.173   4.221
74044W        W37768  12.718  19.266  14.771
74045W        W37769  20.547  28.467   0.382
74046W        W37770  32.566  33.950   1.341
74047W        W37771  14.110  37.846   2.221
74048W        W37772   1.395   9.335  12.923
74049W        W37773  12.296   4.867   3.787
74050W        W37774   9.731  16.764   0.456
74051W        W37775  27.970  24.999   0.904
74052W        W37776  26.006   4.881  13.431
74053W        W37777   5.351  19.178   3.637
74054W        W37778  14.168  41.902  11.933
74055W        W37779  29.920   8.212   5.219
74056W        W37780  42.518  42.497  11.892
74057W        W37781  24.641  16.619   0.767
74058W        W37782  39.378  40.839  11.526
74059W        W37783  38.462  33.037   2.819
74060W        W37784  36.842  33.583  11.490
74061W        W37785  16.181  13.274  10.443
74062W        W37786  18.182  27.964   3.750
74063W        W37787  32.495  30.493   4.715
74064W        W37788  42.852  37.967   2.847
74065W        W37789  21.065  13.748   3.154
74066W        W37790  21.255   5.726  12.046
74067W        W37791  18.735  13.186   4.276
74068W        W37792  14.279  32.906   4.673
74069W        W37793  37.882  13.837  12.890
74070W        W37794  35.566  44.284   0.388
74071W        W37795   8.699  23.010   4.775
74072W        W37796  19.715  26.466   0.820
74073W        W37797  17.305  33.999   2.210
74074W        W37798   1.875  15.666  12.965
74075W        W37799  20.745  42.913   3.315
74076W        W37800  10.171   5.258  14.957
74077W        W37801   2.470   0.433   3.284
74078W        W37802   6.919  21.192  12.972
74079W        W37803  33.582  15.716   1.365
74080W        W37804   2.765  21.258   3.290
74081W        W37805  41.445  44.408   4.692
74082W        W37806  17.751  27.500  12.352
74083W        W37807  25.063  21.048  12.555
74084W        W37808  36.495   7.903   0.936
74085W        W37809  18.146  18.545  10.907
74086W        W37810  37.019   9.732   3.637
74087W        W37811  24.497  15.808   4.155
74088W        W37812  41.324   5.359  13.971
74089W        W37813  26.097  10.719   3.677
74090W        W37814   9.187  34.606  14.997
74091W        W37815  28.573  11.209  13.381
74092W        W37816  24.667  44.330   0.356
74093W        W37817   9.828   0.930   2.699
74094W        W37818   2.256   0.453  14.876
74095W        W37819   4.212  14.633  13.419
74096W        W37820  27.135  40.985  10.611
74097W        W37821  33.108   0.251   0.859
74098W        W37822  22.178  17.563   2.757
74099W        W37823  44.370  43.398  11.611
74100W        W37824  19.686   8.247   4.237
74101W        W37825  15.134   8.893  13.453
74102W        W37826   1.941  34.882   0.824
74103W        W37827  41.432  26.675  13.466
74104W        W37828  16.690   0.423  10.942
74105W        W37829  26.456   6.741  11.095
74106W        W37830  25.149   6.319  14.484
74107W        W37831  36.001  21.171  13.917
74108W        W37832  33.623  28.049   2.256
74109W        W37833  24.015   8.787   5.204
74110W        W37834  44.463  35.410  14.805
74111W        W37835  44.906  23.617  10.479
74112W        W37836   8.770  27.009   3.866
74113W        W37837  26.660  28.150  13.485
74114W        W37838  43.274  18.148   0.955
74115W        W37839  12.681  38.902   0.400
74116W        W37840   1.400  12.813   0.340
74117W        W37841   3.360  38.831   5.188
74118W        W37842  11.770  43.811   2.218
74119W        W37843   6.856  36.085  13.792
74120W        W37844  42.822  43.875   3.238
74121W        W37845  43.866  27.512   3.367
74122W        W37846  33.917  41.887   1.820
74123W        W37847  31.001  23.647   3.239
74124W        W37848  30.151  21.192   4.698
74125W        W37849  33.607  18.064   5.304
74126W        W37850  16.812  35.941   4.292
74127W        W37851  18.055  42.344   3.651
74128W        W37852  13.111  33.955  11.117
74129W        W37853  39.958  26.605   3.774
74130W        W37854  11.829  28.118  12.374
74131W        W37855  19.080   0.769  11.471
74132W        W37856  22.146  34.417   2.774
74133W        W37857  28.570  11.745  14.360
74134W        W37858  10.690   5.279  14.811
74135W        W37859  14.129  17.088   2.734
74136W        W37860  42.961  20.126  11.024
74137W        W37861  28.056  11.278   2.266
74138W        W37862  44.837  32.404  10.585
74139W        W37863   8.775  19.664  11.997
74140W        W37864  18.613  14.229  14.996
74141W        W37865  15.327  44.367  12.390
74142W        W37866  10.664  41.027  11.375
74143W        W37867  41.956  20.270   3.677
74144W        W37868  20.628  10.363  12.831
74145W        W37869  19.722  31.919   2.860
74146W        W37870  44.330  35.585  13.023
74147W        W37871   3.719  29.943   3.251
74148W        W37872  10.762  28.444  14.510
74149W        W37873  33.415  10.159  12.080
74150W        W37874  12.211  26.600  10.989
74151W        W37875  31.505  44.995   3.647
74152W        W37876  28.975  34.571   2.326
74153W        W37877  37.075   1.913  11.864
74154W        W37878   0.800  18.191  11.598
74155W        W37879   7.826  33.098   3.871
74156W        W37880  35.519  14.825  11.560
74157W        W37881  19.688   7.229   4.258
74158W        W37882  11.188  26.700   4.799
74159W        W37883   9.722  22.113   0.845
74160W        W37884  30.960  41.828   1.227
74161W        W37885  40.477  37.372   3.203
74162W        W37886   2.230  14.612  11.941
74163W        W37887  22.146  25.059  14.813
74164W        W37888   6.419  10.664  12.000
74165W        W37889  36.936  43.810  14.394
74166W        W37890  40.520  12.170  13.855
74167W        W37891  32.614   5.794  10.999
74168W        W37892  18.553  19.084   2.222
74169W        W37893   7.376  37.879   0.270
74170W        W37894  24.498   9.869   0.407
74171W        W37895  17.212  30.913   4.344
74172W        W37896  16.213   6.697  11.445
74173W        W37897   3.401  15.616   2.217
74174W        W37898  34.867  16.588   3.251
74175W        W37899   7.373  30.086  12.930
74176W        W37900  32.127  11.646   5.308
74177W        W37901  33.487  14.680   3.265
74178W        W37902  10.810  30.082   1.223
74179W        W37903   3.830   7.800  12.505
74180W        W37904  19.548  38.956  12.551
74181W        W37905  42.453  20.543   3.774
74182W        W37906  39.553  31.095  12.847
74183W        W37907  16.172  21.703  13.496
74184W        W37908   5.917  40.935  13.854
74185W        W37909   9.762  14.182   1.364
74186W        W37910   4.849  32.467  10.582
74187W        W37911  32.576  19.687   3.770
74188W        W37912  35.510   0.971   0.395
74189W        W37913  15.227  28.495  14.026
74190W        W37914  29.958  24.497   4.695
74191W        W37915   3.256  30.459   3.224
74192W        W37916  35.107  33.451   2.745
74193W        W37917  21.028   3.860  13.429
74194W        W37918  15.115  27.161  10.958
74195W        W37919   6.368   0.348  10.617
74196W        W37920  36.860  42.827  12.527
74197W        W37921  41.935  11.811   1.223
74198W        W37922  14.708  13.205  14.813
74199W        W37923  42.840   9.205   1.810
74200W        W37924  26.016  24.523  11.475
74201W        W37925  19.605  29.523  12.057
74202W        W37926  27.650  11.210   4.829
74203W        W37927  35.382  24.050   4.121
74204W        W37928  35.442  29.599   0.893
74205W        W37929  30.550   9.805   3.758
74206W        W37930  37.012  20.112   3.298
74207W        W37931  31.442  26.659   4.638
74208W        W37932  11.742  13.738   1.216
74209W        W37933  30.451  11.261  13.464
74210W        W37934  38.953  39.952   3.666
74211W        W37935  24.152   8.349  14.450
74212W        W37936  10.646  43.874   0.825
74213W        W37937   8.774  27.187  13.859
74214W        W37938  27.549  20.644  14.514
74215W        W37939  11.789  23.717   1.869
74216W        W37940  32.418  20.219   4.342
74217W        W37941  31.109  39.554   1.784
74218W        W37942   1.293  33.486  10.932
74219W        W37943   9.863  29.524   3.652
74220W        W37944  30.424  12.341  14.875
74221W        W37945   0.409  23.082   0.245
74222W        W37946  34.450  11.682  12.022
74223W        W37947   6.284  37.513  10.508
74224W        W37948  26.085   9.770  14.363
74225W        W37949  24.990   2.415   1.934
74226W        W37950  26.478  18.579   1.227
74227W        W37951  13.146  38.032  13.821
74228W        W37952  20.556  38.384   2.794
74229W        W37953  30.960  10.816  10.435
74230W        W37954  40.908  44.771   0.744
74231W        W37955  14.616   3.362   9.940
74232W        W37956   3.804   0.464   2.349
74233W        W37957  32.573  12.321  12.990
74234W        W37958  24.678   7.251   2.797
74235W        W37959  12.628  44.387  12.097
74236W        W37960  27.540  16.284   1.832
74237W        W37961  22.084  40.512   4.705
74238W        W37962  24.639  31.087  10.136
74239W        W37963  30.570  30.146   1.926
74240W        W37964  22.715  11.287  10.481
74241W        W37965   4.788  37.447  10.050
74242W        W37966  14.114  20.126  13.009
74243W        W37967  11.259  28.092  12.436
74244W        W37968  22.541  22.694   4.734
74245W        W37969  19.270  33.897  10.632
74246W        W37970  11.734   5.269  10.905
74247W        W37971  43.876   7.728  12.354
74248W        W37972  18.279  29.931   0.726
74249W        W37973  34.417   8.767   3.198
74250W        W37974   9.842  32.937   3.317
74251W        W37975  43.769  34.094  12.351
74252W        W37976  27.190  37.934   3.268
74253W        W37977  28.936  12.807  13.794
74254W        W37978  25.999   0.919   3.228
74255W        W37979  12.166  20.200   4.196
74256W        W37980  14.747   6.727   3.758
74257W        W37981  25.532   6.826   4.670
74258W        W37982  40.903   5.806   4.653
74259W        W37983  33.597  24.038  10.459
74260W        W37984  37.894  25.963   1.717
74261W        W37985  31.108  31.606  14.811
74262W        W37986  21.142  16.606  14.789
74263W        W37987   4.763  15.195   2.351
74264W        W37988   0.791  37.991  12.972
74265W        W37989   4.364  27.086  13.536
74266W        W37990  13.284  36.383   2.697
74267W        W37991  31.619  34.999   1.778
74268W        W37992   6.297  21.141   3.356
74269W        W37993  10.840  37.450  14.899
74270W        W37994  20.541  31.050  13.792
74271W        W37995  42.792   6.379   4.760
74272W        W37996  16.157   7.803   4.268
74273W        W37997  17.656  22.533  14.286
74274W        W37998  15.763  21.162  11.011
74275W        W37999  30.465  20.638   2.192
74276W        W38000  32.487  40.804   3.173
74277W        W38001  34.497  32.960  12.560
74278W        W38002  14.604   3.261   3.156
74279W        W38003  10.349  23.536  14.762
74280W        W38004   1.450  32.060   3.374
74281W        W38005  16.602   9.800   0.353
74282W        W38006  17.123  31.132   3.270
74283W        W38007  28.960  19.561  10.498
74284W        W38008  37.976  35.007  12.089
74285W        W38009   4.833  18.637   0.775
74286W        W38010  37.990  34.091  13.836
74287W        W38011  14.809   6.780   0.901
74288W        W38012  35.414  28.019  13.498
74289W        W38013  43.932  13.703  14.778
74290W        W38014  44.961  29.550   0.481
74291W        W38015  37.907  20.591   4.301
74292W        W38016  19.588   7.258   2.376
74293W        W38017  29.145  22.731  12.989
74294W        W38018  20.049  11.780  10.593
74295W        W38019   6.738  22.720   2.357
74296W        W38020  11.658  39.516   2.289
74297W        W38021  34.572  35.601  12.081
74298W        W38022  39.962  31.573   3.846
74299W        W38023  33.125  11.347  10.966
74300W        W38024  26.154   3.392   2.697
74301W        W38025  32.527  41.392  11.539
74302W        W38026   2.869   5.264   1.277
74303W        W38027   0.825  12.688  11.911
74304W        W38028   5.897   3.341   2.814
74305W        W38029  15.151  38.003   1.765
74306W        W38030   6.271  35.877   3.219
74307W        W38031  31.567  13.192   0.341
74308W        W38032  12.324  40.930  11.444
74309W        W38033  14.263  22.165  10.140
74310W        W38034  18.569  43.317   0.826
74311W        W38035   0.300  29.100  14.844
74312W        W38036  43.931  24.671  14.490
74313W        W38037   1.360   0.766   2.856
74314W        W38038   2.877   8.258  14.427
74315W        W38039  18.623  43.946   3.314
74316W        W38040  42.932  13.716   3.301
74317W        W38041  12.131  24.031   3.850
74318W        W38042   0.840   9.316  14.913
74319W        W38043  41.818  36.579   1.322
74320W        W38044  42.893  26.183  12.479
74321W        W38045  30.479  21.108  12.841
74322W        W38046  43.359  15.112   0.332
74323W        W38047  40.883   6.280  14.906
74324W        W38048   1.759  25.679  14.398
74325W        W38049  40.919  34.969   0.301
74326W        W38050  43.796   3.887   1.895
74327W        W38051  17.602  24.111   0.834
74328W        W38052  42.453  17.148   2.205
74329W        W38053   0.345  34.424   1.282
74330W        W38054  27.142  22.705  12.470
74331W        W38055  11.329   9.171  13.017
74332W        W38056   9.698  15.718  12.875
74333W        W38057   1.421  15.784  12.439
74334W        W38058  43.921  42.022   2.202
74335W        W38059   1.403  19.238   0.820
74336W        W38060  14.243  25.678   1.450
74337W        W38061  44.335  25.093  10.560
74338W        W38062   6.774  37.835  14.987
74339W        W38063  12.736   2.462  14.032
74340W        W38064  13.269   4.222  14.824
74341W        W38065  23.693  42.816   2.318
74342W        W38066  39.534  22.656   4.827
74343W        W38067  31.008  36.391   3.336
74344W        W38068  21.542  14.793  12.407
74345W        W38069  14.688  31.925   4.810
74346W        W38070  17.592  14.332   1.227
74347W        W38071  29.031  22.701   2.875
74348W        W38072  17.666  23.217   4.618
74349W        W38073  29.605  35.088   2.229
74350W        W38074   7.884  28.101   1.766
74351W        W38075   3.831   4.759   2.264
74352W        W38076  11.856  42.880  11.939
74353W        W38077  43.488   3.903   2.386
74354W        W38078  36.933  22.096  11.569
74355W        W38079   4.912  29.598  12.988
74356W        W38080  25.101  33.880   2.278
74357W        W38081  36.352  40.873  14.887
74358W        W38082  12.314  21.705   1.296
74359W        W38083  24.117  39.858  13.004
74360W        W38084   1.932  20.233   4.800
74361W        W38085   7.410   6.232   1.914
74362W        W38086  17.588  27.106  14.020
74363W        W38087  20.153  18.160   5.246
74364W        W38088  15.141  12.793   1.360
74365W        W38089  22.667   2.257   2.335
74366W        W38090  16.677  17.742   0.300
74367W        W38091  41.398  31.964   2.279
74368W        W38092  35.063  32.427   4.635
74369W        W38093  39.378  11.220  12.994
74370W        W38094  42.461  12.650  13.861
74371W        W38095  27.949  37.359   5.298
74372W        W38096  37.869  24.138  11.058
74373W        W38097  23.124   7.747  12.352
74374W        W38098  17.691  16.261   2.789
74375W        W38099  38.559   1.392  12.895
74376W        W38100  26.197  24.609   1.903
74377W        W38101  30.983  30.074   4.348
74378W        W38102   5.381   0.288   4.739
74379W        W38103  39.381  42.868  12.917
74380W        W38104  42.363  43.433   5.696
74381W        W38105   8.754  31.075  13.390
74382W        W38106  15.799  35.920   2.257
74383W        W38107  42.872   5.882   4.235
74384W        W38108   3.239  16.755  14.289
74385W        W38109  19.140  31.966  13.054
74386W        W38110   5.892  20.643  13.519
74387W        W38111  38.514   1.795   0.894
74388W        W38112  29.524   1.769   4.733
74389W        W38113  35.884  19.090  12.554
74390W        W38114  28.020  20.653   2.713
74391W        W38115  15.693  20.523   5.140
74392W        W38116   3.214   6.344   0.767
74393W        W38117  12.361  24.505  14.334
74394W        W38118   6.805  41.470  11.055
74395W        W38119  16.197   1.866   5.297
74396W        W38120  30.149  19.674  14.380
74397W        W38121  18.190  41.835  13.967
74398W        W38122  40.932  37.457  14.021
74399W        W38123  16.291   5.687  13.541
74400W        W38124   1.879  41.532  13.040
74401W        W38125  21.190  21.148  14.002
74402W        W38126  42.001  42.012   4.716
74403W        W38127  43.970   7.694   4.240
74404W        W38128  10.163  10.292   3.664
74405W        W38129  30.483  32.455  12.512
74406W        W38130  31.071  22.181  11.606
74407W        W38131  41.440   4.816   4.705
74408W        W38132  22.053   2.860   0.893
74409W        W38133  33.048  27.171   3.196
74410W        W38134  15.745  21.216   0.779
74411W        W38135  29.493   6.805  13.322
74412W        W38136  39.946  29.635   0.479
74413W        W38137  22.579  26.519  12.497
74414W        W38138   9.285  11.808   2.410
74415W        W38139  39.898  40.361   0.772
74416W        W38140  43.939  34.884  14.408
74417W        W38141   2.230  36.098   4.698
74418W        W38142   2.391  26.956   2.815
74419W        W38143   2.258  42.509  13.834
74420W        W38144  28.657   8.287  13.463
74421W        W38145   7.341  22.600   3.207
74422W        W38146  25.050  39.463  13.476
74423W        W38147   2.906  24.103   3.664
74424W        W38148  26.626  34.441  13.045
74425W        W38149  44.333  25.696  11.927
74426W        W38150  38.886  20.269  14.952
74427W        W38151  29.618  16.217  11.070
74428W        W38152  20.065  21.537  13.966
74429W        W38153  40.826  27.634   0.911
74430W        W38154  15.130  40.048  10.932
74431W        W38155  36.440  19.703   5.298
74432W        W38156  14.768  15.181  11.082
74433W        W38157  25.018  29.591   3.153
74434W        W38158  36.057  24.517   3.788
74435W        W38159  26.691   6.282   4.681
74436W        W38160  21.061  13.275  12.854
74437W        W38161   2.416  13.184  11.569
74438W        W38162   3.920  36.454   1.792
74439W        W38163  17.555  44.291  14.864
74440W        W38164  34.103  16.211  12.043
74441W        W38165  31.097  29.551  14.453
74442W        W38166  37.965   5.903  12.050
74443W        W38167  13.623  25.973   4.794
74444W        W38168  28.469   1.427   3.367
74445W        W38169   2.798  17.689   2.713
74446W        W38170   6.877  39.355   3.167
74447W        W38171   2.332  20.670  13.858
74448W        W38172   7.871   2.367  12.028
74449W        W38173   0.936   3.791   4.638
74450W        W38174  26.612   8.394  11.030
74451W        W38175  10.696  23.147   2.277
74452W        W38176   8.900  32.435  13.973
74453W        W38177  15.696  21.660  12.861
74454W        W38178  39.928  33.027   4.147
74455W        W38179  40.438  34.912   2.270
74456W        W38180  15.087   2.815  11.569
74457W        W38181  39.520  37.083   3.665
74458W        W38182  16.577  32.928  11.598
74459W        W38183   6.705  44.346  13.958
74460W        W38184  17.587  37.085  10.563
74461W        W38185  33.558   5.836  12.835
74462W        W38186  21.532  12.190   4.621
74463W        W38187  18.276   1.735   0.867
74464W        W38188  41.807  12.149   3.730
74465W        W38189  12.173   6.285   1.227
74466W        W38190   7.284   1.843   3.650
74467W        W38191  13.769  25.976   1.780
74468W        W38192   2.318  24.097   2.385
74469W        W38193  25.107   7.796  12.385
74470W        W38194  13.787  44.002   0.804
74471W        W38195  20.148  14.130   2.776
74472W        W38196  44.388  40.388  12.939
74473W        W38197  24.621  15.791  14.870
74474W        W38198  37.885  43.878  14.316
74475W        W38199  29.991  23.581  11.979
74476W        W38200   0.885  25.196  11.941
74477W        W38201  20.699  16.599  11.382
74478W        W38202  16.695   9.766  10.425
74479W        W38203  14.098  14.328   1.736
74480W        W38204  43.440   7.401  13.869
74481W        W38205  33.561  24.076  13.911
74482W        W38206  10.871   4.833  10.995
74483W        W38207  38.007   6.907  13.438
74484W        W38208  39.553   9.691  14.018
74485W        W38209  31.520  12.643   2.321
74486W        W38210  33.037  12.852   1.388
74487W        W38211  44.961  26.120   0.359
74488W        W38212  14.153  14.260  12.835
74489W        W38213  17.618  24.511   1.343
74490W        W38214  24.096  13.745   2.380
74491W        W38215  38.045   7.187   0.879
74492W        W38216   0.782  41.467   5.089
74493W        W38217  24.479  33.491  10.101
74494W        W38218  35.983  44.852  12.920
74495W        W38219  39.438  39.042  12.469
74496W        W38220  36.469   6.769  14.898
74497W        W38221  18.650   3.911   3.644
74498W        W38222  20.088   3.294   1.774
74499W        W38223  10.384  36.009   4.216
74500W        W38224  15.215   3.953   5.262
74501W        W38225   9.350  13.739   4.127
74502W        W38226   8.372  16.104  13.885
74503W        W38227  11.668  15.806   1.844
74504W        W38228  17.306  11.286  13.897
74505W        W38229  12.332  34.569   0.258
74506W        W38230  22.633  33.876  14.354
74507W        W38231  14.790   5.860  11.886
74508W        W38232  41.464  18.749   4.701
74509W        W38233  34.423  44.356   9.998
74510W        W38234  34.369  44.977  11.087
74511W        W38235  17.712  40.455   1.901
74512W        W38236  34.018  15.088   1.248
74513W        W38237   9.253  29.540  14.884
74514W        W38238   3.216   7.785  14.977
74515W        W38239  36.085  33.551  13.482
74516W        W38240   0.918  36.890   2.266
74517W        W38241  32.432   7.910  14.325
74518W        W38242  43.466  44.313  11.550
74519W        W38243  43.821  34.918   4.719
74520W        W38244  34.107  20.046   1.909
74521W        W38245  26.953  24.595   3.189
74522W        W38246  16.094  17.187   4.349
74523W        W38247   4.320   0.330  11.478
74524W        W38248  35.093  38.562   3.237
74525W        W38249  33.568  37.081   3.375
74526W        W38250   5.380   4.722  14.859
74527W        W38251  31.027  33.589   0.934
74528W        W38252  26.558  27.667  13.956
74529W        W38253  12.773  39.547   3.858
74530W        W38254   6.267  25.104  11.551
74531W        W38255  37.951  32.984  12.365
74532W        W38256  43.360  42.489   0.752
74533W        W38257  12.630  28.572   1.231
74534W        W38258  25.139  25.207   0.962
74535W        W38259   1.250  33.993   4.222
74536W        W38260  44.001  28.063   0.808
74537W        W38261  35.587  27.953   3.647
74538W        W38262   7.185   6.739   2.898
74539W        W38263  28.993  22.534   4.657
74540W        W38264  36.389  41.992   3.342
74541W        W38265  26.561  44.989  11.390
74542W        W38266  27.121  12.220  14.987
74543W        W38267  11.862  11.835  11.564
74544W        W38268  10.267  10.175  13.342
74545W        W38269   5.200  22.598  14.370
74546W        W38270   6.423  21.513   1.874
74547W        W38271   6.815  15.085   2.221
74548W        W38272  18.272  10.201   0.872
74549W        W38273  13.689   8.884   4.324
74550W        W38274  27.148  12.825   2.723
74551W        W38275  33.128  37.471   3.720
74552W        W38276  34.564  12.726  14.863
74553W        W38277  10.666  13.286  14.511
74554W        W38278  14.812   2.397  12.846
74555W        W38279  11.164  44.863   1.377
74556W        W38280  21.554  24.060   2.366
74557W        W38281   4.320  30.559   4.332
74558W        W38282   1.256  23.071  13.416
74559W        W38283   1.353  34.465  13.024
74560W        W38284  38.826  20.266  13.509
74561W        W38285  40.435  12.275   2.251
74562W        W38286  11.833  39.888  12.964
74563W        W38287  42.824  20.600   0.326
74564W        W38288   9.820  34.086  10.424
74565W        W38289  25.635  24.644  14.469
74566W        W38290  30.971  25.595   3.822
74567W        W38291  17.629  25.175  13.395
74568W        W38292  18.615   7.409   0.814
74569W        W38293  27.142  14.681  14.339
74570W        W38294   4.884  34.021  13.915
74571W        W38295   5.370  37.427   0.967
74572W        W38296  13.301   0.453   0.741
74573W        W38297  21.701  23.988  11.580
74574W        W38298  43.463  27.159  14.345
74575W        W38299  28.546  31.595   3.266
74576W        W38300  15.313   9.804  13.542
74577W        W38301  24.982   7.865  13.521
74578W        W38302  29.628  43.929   4.137
74579W        W38303   2.230  15.264  13.530
74580W        W38304  16.607  24.714   3.664
74581W        W38305  15.115  28.565  14.397
74582W        W38306  14.736   9.709   3.198
74583W        W38307  11.820  27.062  12.061
74584W        W38308  23.520  41.420   2.214
74585W        W38309  36.407  42.460   4.798
74586W        W38310  15.187  23.149  10.623
74587W        W38311   6.862  17.790   0.782
74588W        W38312  29.593  19.113   3.737
74589W        W38313  42.945  25.965   3.853
74590W        W38314  13.351   7.755   5.248
74591W        W38315  40.020  32.899  11.597
74592W        W38316  42.988  12.235  14.311
74593W        W38317  37.014   1.324  14.351
74594W        W38318  19.544  14.736  14.369
74595W        W38319  12.784  20.072  13.337
74596W        W38320  41.521  18.572  11.490
74597W        W38321  33.614  20.655  13.954
74598W        W38322  13.772  38.362   0.877
74599W        W38323  38.451   7.897   3.265
74600W        W38324  15.318  20.064   0.428
74601W        W38325   2.422   4.245  13.986
74602W        W38326  26.646  39.810  12.415
74603W        W38327  37.934   3.938  10.448
74604W        W38328   4.700  28.116  13.831
74605W        W38329  33.044   6.240  14.884
74606W        W38330   5.908  12.718   5.120
74607W        W38331  44.858  21.242   0.898
74608W        W38332  11.687  44.889   4.812
74609W        W38333  10.280  19.116  14.879
74610W        W38334  24.717  20.547   4.618
74611W        W38335  14.105  29.654  14.428
74612W        W38336  12.671  16.205   4.747
74613W        W38337  43.514  10.651   0.341
74614W        W38338  38.512  11.161   1.733
74615W        W38339  24.978  38.906   3.163
74616W        W38340   9.289   1.240   3.225
74617W        W38341  28.991  38.935  10.921
74618W        W38342   7.354   7.250  12.478
74619W        W38343  19.158  32.136   1.356
74620W        W38344   6.792  32.983  14.446
74621W        W38345  10.744   9.205  14.290
74622W        W38346  30.126   6.394   0.903
74623W        W38347   2.350  39.467   1.362
74624W        W38348  36.964   1.371   4.683
74625W        W38349  16.100  25.626   4.726
74626W        W38350  34.010  32.523   4.264
74627W        W38351  39.359  15.734   0.423
74628W        W38352  32.926  36.006  10.591
74629W        W38353  22.022  10.865   0.383
74630W        W38354  34.075  31.152   3.863
74631W        W38355  25.665  34.021  12.980
74632W        W38356  27.135  37.001  11.912
74633W        W38357   2.731  37.003   3.787
74634W        W38358  35.452  42.450   0.340
74635W        W38359  33.036  39.982  10.610
74636W        W38360   1.783  21.740  12.351
74637W        W38361  32.912  28.534   0.738
74638W        W38362  30.009  37.907  14.418
74639W        W38363  24.986  43.279   0.832
74640W        W38364  37.852  28.042  10.989
74641W        W38365  28.658  41.432   2.404
74642W        W38366  16.282   7.252  14.389
74643W        W38367  28.972   7.882   0.865
74644W        W38368  24.226  15.326   1.927
74645W        W38369  35.525   5.850   1.370
74646W        W38370   4.775   4.415   5.115
74647W        W38371  36.450  19.278  13.795
74648W        W38372  13.679  32.580   3.645
74649W        W38373   2.827   2.329  10.512
74650W        W38374   6.692  18.283  12.402
74651W        W38375   7.403  15.263  11.869
74652W        W38376  32.556  39.373   2.207
74653W        W38377  40.813   5.698   3.803
74654W        W38378  30.579  19.252   0.891
74655W        W38379  35.964  17.149  13.544
74656W        W38380  36.369   0.824   2.667
74657W        W38381   9.733   4.703   4.245
74658W        W38382  43.465  24.620   3.290
74659W        W38383  41.999   2.823  13.989
74660W        W38384  40.462  22.248   4.687
74661W        W38385   1.353   7.769   0.871
74662W        W38386  44.492  33.024   0.745
74663W        W38387  28.960  10.168   0.459
74664W        W38388  12.243  38.878   3.864
74665W        W38389   6.717  34.589   3.772
74666W        W38390  39.450  19.129   3.255
74667W        W38391  17.071  27.094   0.360
74668W        W38392  24.041  44.351  11.527
74669W        W38393  44.755  35.398   2.732
74670W        W38394  20.605  35.483   1.874
74671W        W38395  29.604  40.848   2.673
74672W        W38396  42.506  29.104   4.306
74673W        W38397  20.063  19.090  11.080
74674W        W38398  20.633  32.557  12.960
74675W        W38399  13.253   2.237  11.585
74676W        W38400  41.536  32.488   4.215
74677W        W38401   1.928   2.328  12.553
74678W        W38402   2.770  44.351   3.335
74679W        W38403  37.438  32.141   3.263
74680W        W38404   3.751   9.797  10.585
74681W        W38405  25.176   9.363  14.476
74682W        W38406  25.472  37.537  10.592
74683W        W38407  32.509   5.235  11.981
74684W        W38408  14.306  16.233  13.989
74685W        W38409  38.471   4.733   0.835
74686W        W38410  33.519  16.661  13.310
74687W        W38411   4.771   4.207   3.782
74688W        W38412  36.066  10.362   1.221
74689W        W38413  13.167  26.159   1.906
74690W        W38414  38.356  20.532  13.924
74691W        W38415  36.951  21.073   1.323
74692W        W38416  15.803  28.066   4.323
74693W        W38417  17.674  42.973  12.826
74694W        W38418   8.399  36.495  10.907
74695W        W38419  26.481  19.739  14.287
74696W        W38420   4.755   3.236  14.972
74697W        W38421  34.948  32.886   2.402
74698W        W38422   4.869  43.811  12.564
74699W        W38423  17.677  12.301  14.922
74700W        W38424  25.977  38.543   4.717
74701W        W38425  25.018  32.582  14.824
74702W        W38426  29.460  18.668   4.229
74703W        W38427  41.514  42.383   3.843
74704W        W38428  37.495  22.137   4.175
74705W        W38429   6.770  15.765  14.786
74706W        W38430  28.942  19.189   0.809
74707W        W38431  43.954  16.090   4.778
74708W        W38432   4.315  33.976  14.464
74709W        W38433  42.971  21.686  14.984
74710W        W38434  16.649   3.897   1.844
74711W        W38435  11.794  17.150  14.410
74712W        W38436  28.956  30.430  12.852
74713W        W38437  14.297   2.247   2.205
74714W        W38438  18.136  26.005  11.112
74715W        W38439   0.855  28.462  13.856
74716W        W38440  43.425  14.741   1.711
74717W        W38441   1.337  39.065   4.659
74718W        W38442   6.874   2.894  13.050
74719W        W38443   8.313  43.276   4.784
74720W        W38444  28.078  13.314   2.758
74721W        W38445  15.182  41.995  11.122
74722W        W38446  30.564  37.874   2.834
74723W        W38447  15.317   8.253  14.464
74724W        W38448   5.211  19.188  13.476
74725W        W38449  15.803  40.880   1.295
74726W        W38450  29.002   3.449   4.320
74727W        W38451  40.539  11.720  12.868
74728W        W38452  24.989  24.128   0.452
74729W        W38453   5.253  44.382   3.849
74730W        W38454  29.121  19.759   4.158
74731W        W38455   8.742   2.247   2.195
74732W        W38456  30.444   6.836  12.476
74733W        W38457  39.029   8.227  12.483
74734W        W38458  14.624   4.316  11.093
74735W        W38459  12.289  24.067   4.331
74736W        W38460  29.485  35.492   2.762
74737W        W38461  25.178   8.664   3.768
74738W        W38462  28.649  12.777   4.317
74739W        W38463  17.107  15.293   1.832
74740W        W38464  10.376  16.135  11.056
74741W        W38465  12.714  13.263   3.318
74742W        W38466  27.072  44.485  13.853
74743W        W38467   9.327  27.613   2.191
74744W        W38468  23.535   0.803  12.471
74745W        W38469   9.237  29.544   4.299
74746W        W38470  23.059   6.703   2.678
74747W        W38471   1.783   5.433   4.623
74748W        W38472   8.755  11.792  11.604
74749W        W38473  19.721  17.604  13.051
74750W        W38474   8.806  40.538   5.130
74751W        W38475   1.362  20.262   4.667
74752W        W38476  21.678  13.635   5.191
74753W        W38477  40.385  41.822  13.411
74754W        W38478  38.837  41.325   4.307
74755W        W38479  13.315  41.347   4.710
74756W        W38480  31.036  28.675   2.356
74757W        W38481   3.246  22.554   3.161
74758W        W38482  37.050   4.434  14.284
74759W        W38483  21.142   4.360  13.493
74760W        W38484  27.093   0.754  13.331
74761W        W38485  38.057  36.923   1.791
74762W        W38486  36.901  38.505  12.560
74763W        W38487  31.534  31.910   3.747
74764W        W38488  12.126  14.216   1.301
74765W        W38489   3.912   3.834   2.375
74766W        W38490  35.436  29.075   0.328
74767W        W38491  42.873  26.555  13.531
74768W        W38492  11.650  13.210   3.756
74769W        W38493  11.163  44.389   1.806
74770W        W38494   7.895  35.964  12.982
74771W        W38495  28.957  13.790   3.261
74772W        W38496  21.191   4.726  14.759
74773W        W38497  29.091  13.823   2.289
74774W        W38498  16.664  13.178   0.766
74775W        W38499   7.399  21.587  13.347
74776W        W38500  13.140  32.457   4.632
74777W        W38501  19.178  17.665   4.660
74778W        W38502   0.481  34.865  11.991
74779W        W38503  40.478  36.878  12.388
74780W        W38504  42.027  25.581   5.635
74781W        W38505  23.133   6.903   2.235
74782W        W38506  39.823  16.079   3.692
74783W        W38507  34.529  27.151  12.920
74784W        W38508  26.100  26.104   2.713
74785W        W38509  24.222  32.001   1.402
74786W        W38510   0.912  35.905   2.718
74787W        W38511  23.993  26.019   9.501
74788W        W38512   4.706  13.603   3.343
74789W        W38513  11.714  15.187   0.283
74790W        W38514  16.635  40.939  14.860
74791W        W38515  32.933  19.767   4.761
74792W        W38516  40.375   1.939  13.991
74793W        W38517  12.775  18.724  12.083
74794W        W38518   2.877  22.086   0.805
74795W        W38519  20.726  28.173   4.639
74796W        W38520  35.101  36.059   0.397
74797W        W38521  27.516  26.201   0.302
74798W        W38522   7.303  25.200  14.328
74799W        W38523  31.918   4.704   5.201
74800W        W38524  25.517   6.873  13.519
74801W        W38525  16.576  44.469  14.328
74802W        W38526   0.759  24.499  14.439
74803W        W38527  42.449  39.544  13.476
74804W        W38528  12.642  23.591   0.841
74805W        W38529  37.447  12.179  14.998
74806W        W38530  30.969   9.775  12.368
74807W        W38531   5.808  25.013   4.301
74808W        W38532  34.428  29.447  11.589
74809W        W38533   2.397  27.661  12.078
74810W        W38534   8.391  27.659   0.403
74811W        W38535   0.341  11.666  10.908
74812W        W38536  43.429  33.542   0.401
74813W        W38537  40.502  35.101  11.967
74814W        W38538  28.958  38.017   1.726
74815W        W38539  13.700   9.866  11.949
74816W        W38540  17.151   6.825  13.405
74817W        W38541  21.525  28.490  11.003
74818W        W38542  19.182  28.946   1.394
74819W        W38543  41.328  17.139  11.030
74820W        W38544  29.999  23.688  11.093
74821W        W38545  27.054  20.696  14.882
74822W        W38546  10.169   2.838   1.859
74823W        W38547  20.584  20.170  11.413
74824W        W38548  28.667  28.505  10.585
74825W        W38549  37.543  41.418  13.536
74826W        W38550  41.002   5.330  14.383
74827W        W38551  29.460   2.268   1.711
74828W        W38552  35.570  18.682  11.033
74829W        W38553  31.974  11.660   2.673
74830W        W38554  12.615   1.915   2.711
74831W        W38555   3.285  29.653   1.292
74832W        W38556   3.787  34.906   1.396
74833W        W38557  37.979  21.602  12.377
74834W        W38558  34.603  23.576  14.880
74835W        W38559   4.347   9.249   2.676
74836W        W38560  31.510   7.825   2.822
74837W        W38561  37.403  25.079  13.951
74838W        W38562  39.336  33.438  13.539
74839W        W38563  34.509  19.630  13.912
74840W        W38564  32.004  19.768   3.709
74841W        W38565  38.000  20.747  10.621
74842W        W38566   1.768  26.986   1.791
74843W        W38567  39.535   8.807   2.282
74844W        W38568  43.338  43.399   9.579
74845W        W38569   0.851  39.321  10.901
74846W        W38570  30.162  19.704  12.519
74847W        W38571  19.042  12.771  14.005
74848W        W38572  29.959  31.438  14.820
74849W        W38573  22.643  16.745   3.229
74850W        W38574   2.939  16.772   2.258
74851W        W38575  25.681  31.404  14.900
74852W        W38576  14.770  18.082  10.628
74853W        W38577  19.114  31.903  11.045
74854W        W38578  32.636   0.322  14.976
74855W        W38579  26.123  35.473  13.448
74856W        W38580   5.358   0.819  11.127
74857W        W38581  17.294  28.934  12.400
74858W        W38582  30.074  43.479   4.321
74859W        W38583  24.507  41.865   2.343
74860W        W38584  16.158   1.778  12.032
74861W        W38585  21.514  12.641  13.419
74862W        W38586  27.032  28.508   2.391
74863W        W38587  24.546  39.058  12.997
74864W        W38588  30.599  35.871   1.267
74865W        W38589   1.894  24.058  10.927
74866W        W38590  39.371   4.222  10.450
74867W        W38591  32.973  29.567   3.847
74868W        W38592  34.011  27.061   0.772
74869W        W38593  43.789  29.146   1.223
74870W        W38594   4.770  13.806   3.663
74871W        W38595  36.877  14.118  13.378
74872W        W38596  40.022  31.581  12.560
74873W        W38597  16.711   1.377   3.674
74874W        W38598  42.896  24.663  14.796
74875W        W38599  38.489   9.370   4.821
74876W        W38600  40.494  16.666  14.898
74877W        W38601   6.737  16.159  12.514
74878W        W38602  18.771  24.127   0.369
74879W        W38603  27.974  30.645  12.440
74880W        W38604  15.144  20.151   3.829
74881W        W38605  33.910  10.266  13.437
74882W        W38606  43.275  29.601  14.397
74883W        W38607  38.958  12.246  10.506
74884W        W38608  19.063  26.992  13.471
74885W        W38609  29.047  35.993  11.535
74886W        W38610  20.254  29.929   4.637
74887W        W38611  18.664  40.035  13.489
74888W        W38612  43.408  19.207   3.241
74889W        W38613  42.328  16.714  14.961
74890W        W38614  33.923   2.471   2.280
74891W        W38615   1.322  11.635  12.567
74892W        W38616  40.502  42.384   0.292
74893W        W38617  11.313   7.702  11.575
74894W        W38618  39.513  24.582  11.104
74895W        W38619  44.002  42.476  14.458
74896W        W38620  23.091   0.249  13.434
74897W        W38621   9.391  14.713  12.508
74898W        W38622   9.689  21.599   0.859
74899W        W38623   6.785  31.122  13.984
74900W        W38624  27.175   3.226  10.923
74901W        W38625   1.325  13.147  14.354
74902W        W38626  10.720  40.838   0.433
74903W        W38627  42.941  33.602  12.498
74904W        W38628  21.161  12.626  13.418
74905W        W38629   0.488  26.157   0.364
74906W        W38630  19.183  16.090  11.039
74907W        W38631  32.479   4.281   2.413
74908W        W38632  25.619   4.917  14.320
74909W        W38633  37.558  21.685   1.330
74910W        W38634  39.485  10.169  14.287
74911W        W38635  34.523  39.972  11.973
74912W        W38636  43.271  13.824  11.026
74913W        W38637  13.105  33.551   4.675
74914W        W38638  41.896  13.694   0.835
74915W        W38639  28.070  32.529  14.494
74916W        W38640   0.427  32.511  10.622
74917W        W38641   4.882  22.599   4.225
74918W        W38642  23.515  44.925   1.823
74919W        W38643  31.086  21.239   2.782
74920W        W38644  20.098  36.373   0.898
74921W        W38645  30.980  12.749  11.390
74922W        W38646   5.927  28.452   2.811
74923W        W38647  31.605  18.220  14.986
74924W        W38648   3.305  12.307  14.394
74925W        W38649  22.101  18.174   1.695
74926W        W38650  31.135   9.166  13.343
74927W        W38651  40.949  34.426  13.437
74928W        W38652  28.669  34.883   1.410
74929W        W38653  27.583  37.552  11.889
74930W        W38654  11.632  19.163   1.904
74931W        W38655   5.267  12.317   0.324
74932W        W38656  36.948  25.106   0.393
74933W        W38657  42.428  44.294   9.970
74934W        W38658  31.080  12.152  12.437
74935W        W38659  17.078   9.301   2.300
74936W        W38660  15.665  30.443   2.692
74937W        W38661  10.137  34.020  14.399
74938W        W38662  22.679  10.689   3.815
74939W        W38663   6.724  11.668   2.253
74940W        W38664  21.642   3.236   0.860
74941W        W38665  37.947   3.277  12.995
74942W        W38666   9.212  25.015  10.639
74943W        W38667  23.565  31.059  14.029
74944W        W38668  41.446  29.584  12.838
74945W        W38669  21.054  31.404  10.533
74946W        W38670  11.716  34.934  10.068
74947W        W38671  42.441  18.750   4.729
74948W        W38672  16.238  11.622   3.795
74949W        W38673  33.971   2.776  14.878
74950W        W38674  44.997   2.303  10.584
74951W        W38675  27.024  28.452   0.250
74952W        W38676  28.011  25.059   1.795
74953W        W38677  42.827  14.118  14.032
74954W        W38678  18.175  16.751  11.527
74955W        W38679  40.454  14.247   0.788
74956W        W38680   9.256  33.623  13.512
74957W        W38681   1.797  11.341   0.389
74958W        W38682   0.318  41.306   0.328
74959W        W38683   7.359   6.274   1.286
74960W        W38684  36.009   4.835   0.478
74961W        W38685   6.906  32.943   3.868
74962W        W38686  26.053  20.044   4.301
74963W        W38687  29.003   8.816  12.348
74964W        W38688  16.258  38.870   3.651
74965W        W38689  25.082  43.798   2.197
74966W        W38690   0.352  13.210  14.841
74967W        W38691  20.581   2.412  14.957
74968W        W38692  30.431  36.943   1.865
74969W        W38693  42.977   8.722   2.662
74970W        W38694  44.467  28.546  11.407
74971W        W38695  39.933  41.819   9.580
74972W        W38696   9.294  19.677  12.447
74973W        W38697  17.758  16.180  10.618
74974W        W38698  12.319   9.657  11.449
74975W        W38699  20.568  36.024  13.059
74976W        W38700  18.616  39.051   1.307
74977W        W38701   5.250  28.605  14.328
74978W        W38702  29.972  19.193  14.846
74979W        W38703  16.237  37.433  14.303
74980W        W38704  16.259  35.495   1.255
74981W        W38705  31.981  32.499   4.631
74982W        W38706  36.452  25.712  12.497
74983W        W38707  33.931  24.982   4.682
74984W        W38708  12.701  12.230   2.340
74985W        W38709   6.819  12.782  14.461
74986W        W38710  34.569   0.492   4.321
74987W        W38711  26.695  23.157  10.998
74988W        W38712   4.286  34.937  14.432
74989W        W38713   7.874  16.119  14.994
74990W        W38714  32.029  20.582   2.188
74991W        W38715  44.767   6.829  10.497
74992W        W38716  20.089   5.775  10.151
74993W        W38717  31.045   8.376   1.824
74994W        W38718   6.849  25.157  13.471
74995W        W38719   0.368  34.877  13.989
74996W        W38720  24.976   4.429  11.493
74997W        W38721  31.027  35.079   2.245
74998W        W38722  23.191  40.437  14.909
74999W        W38723  34.541  21.646  12.827
75000W        W38724  38.002  17.784  14.433
75001W        W38725  25.616  38.465   0.245
75002W        W38726  40.304  11.189  11.997
75003W        W38727  23.667  15.300  11.114
75004W        W38728  42.324   0.300   4.127
75005W        W38729  25.571   1.306   1.309
75006W        W38730  23.146   5.340   1.333
75007W        W38731   3.920  31.554   3.182
75008W        W38732  42.025  13.351  13.878
75009W        W38733  14.814  17.306   4.222
75010W        W38734  26.492  36.474  13.059
75011W        W38735  31.930  41.296   2.897
75012W        W38736  26.081   0.452   0.917
75013W        W38737   2.394  25.117   3.788
75014W        W38738  15.713  21.603  11.094
75015W        W38739  27.178  24.147  10.517
75016W        W38740  40.310   1.962   0.454
75017W        W38741  22.514  16.208  10.957
75018W        W38742   0.928  35.883   1.714
75019W        W38743  30.017   0.457  13.999
75020W        W38744  16.228  21.577   2.264
75021W        W38745  33.043  36.496   0.474
75022W        W38746   1.852  25.486   1.909
75023W        W38747  42.936  39.848   4.676
75024W        W38748   9.331  30.564  10.911
75025W        W38749   8.317  13.234  14.011
75026W        W38750  41.991  22.051  14.762
75027W        W38751  19.093  39.820   4.673
75028W        W38752  22.082  28.628   3.826
75029W        W38753  15.659  31.630   0.894
75030W        W38754  18.225  40.825   1.808
75031W        W38755  32.633  15.718   2.765
75032W        W38756  35.425  15.807   0.247
75033W        W38757  26.532   2.856   2.178
75034W        W38758   7.890  44.005   1.276
75035W        W38759  34.869  10.233   4.784
75036W        W38760  29.074  40.852  13.437
75037W        W38761  36.477  24.021   0.900
75038W        W38762   6.297   6.217   4.199
75039W        W38763  14.800   5.269   0.848
75040W        W38764  22.693  12.148   3.367
75041W        W38765  32.505   0.816   3.241
75042W        W38766  11.850  16.789   1.381
75043W        W38767   5.804  25.071  14.891
75044W        W38768  38.570  19.701  14.996
75045W        W38769   6.907   7.691   0.767
75046W        W38770  27.482  14.775  12.568
75047W        W38771  38.022  38.427  14.276
75048W        W38772  11.766  19.665   2.336
75049W        W38773  41.359  11.259   3.359
75050W        W38774   9.278  11.195   3.847
75051W        W38775  24.702  12.271   2.331
75052W        W38776  26.175   6.354  12.955
75053W        W38777   3.321  10.282   3.386
75054W        W38778  25.680  44.872  12.974
75055W        W38779  18.605  44.759  13.531
75056W        W38780  22.139  23.238  13.797
75057W        W38781  19.610   1.378   4.757
75058W        W38782  18.116   1.884  14.483
75059W        W38783  44.993  39.002  12.414
75060W        W38784  15.717  14.153   0.840
75061W        W38785  12.645  14.670   2.781
75062W        W38786   9.224  15.649   9.963
75063W        W38787  24.158   6.746   0.857
75064W        W38788  21.666  41.447   3.822
75065W        W38789  34.916  12.165   9.525
75066W        W38790  36.076   1.435   0.429
75067W        W38791  12.618  43.409  14.399
75068W        W38792   4.751  34.413   4.620
75069W        W38793  19.142  36.937   3.357
75070W        W38794   4.442  14.629  14.418
75071W        W38795  13.828  43.884   3.869
75072W        W38796  40.497  44.921   5.279
75073W        W38797   8.785  34.453   3.361
75074W        W38798  21.557  42.359  11.903
75075W        W38799  12.844  37.023   0.964
75076W        W38800  30.004   5.903  14.894
75077W        W38801  31.636  14.695  12.572
75078W        W38802  15.680   3.378  13.470
75079W        W38803  39.911  37.365   4.684
75080W        W38804   4.225  32.630   3.652
75081W        W38805  26.586  34.014   1.837
75082W        W38806   1.456  13.127  13.963
75083W        W38807  28.566  24.608  10.578
75084W        W38808  19.277  41.427   3.865
75085W        W38809  15.789  23.636   4.605
75086W        W38810   0.884  31.442   3.212
75087W        W38811  16.289   8.216   4.192
75088W        W38812  15.649  25.544  11.006
75089W        W38813  30.595  10.311   4.120
75090W        W38814   3.942  16.748  14.502
75091W        W38815  40.463  15.697  12.453
75092W        W38816  23.576  25.479  14.989
75093W        W38817  25.653  38.554  12.529
75094W        W38818  35.928  32.476   4.302
75095W        W38819  25.149  21.731   4.760
75096W        W38820   0.462  43.804  14.413
75097W        W38821   6.330  12.165  13.483
75098W        W38822  40.409  19.569  13.813
75099W        W38823  42.991  25.681  12.456
75100W        W38824  30.940  43.998   3.269
75101W        W38825  21.131  13.128  13.839
75102W        W38826  44.951   9.868   0.244
75103W        W38827  27.056   0.476  11.493
75104W        W38828  43.272  21.731   1.308
75105W        W38829  35.861   9.748  12.425
75106W        W38830  42.861   5.296   0.341
75107W        W38831  41.881  19.568  11.080
75108W        W38832   0.860  29.479   1.451
75109W        W38833  39.010  39.060  14.278
75110W        W38834   0.867   7.308  14.935
75111W        W38835  23.673  32.508  12.061
75112W        W38836  37.894  32.079   4.751
75113W        W38837   4.814   5.885   1.349
75114W        W38838  35.478  26.518   2.331
75115W        W38839  21.025  16.719  13.548
75116W        W38840  39.530  23.732  13.932
75117W        W38841  15.091   5.241  11.392
75118W        W38842  17.760   4.727  14.863
75119W        W38843  23.231   4.898  13.996
75120W        W38844  35.909  23.234  10.895
75121W        W38845  22.600  27.483   4.714
75122W        W38846  20.717   0.301   4.700
75123W        W38847  26.150   8.845  14.319
75124W        W38848  29.027  37.927  11.562
75125W        W38849  12.674   6.238   4.131
75126W        W38850  38.369  28.532  12.060
75127W        W38851  37.528  28.541  11.442
75128W        W38852   0.308  26.951   4.349
75129W        W38853  15.120  29.106   3.814
75130W        W38854  18.737  28.453  13.835
75131W        W38855   2.287  38.836   4.750
75132W        W38856   0.386  20.565   0.774
75133W        W38857  39.397  12.258  13.972
75134W        W38858  22.682   1.977  11.877
75135W        W38859  20.104  12.796   2.754
75136W        W38860  44.822  28.629   2.355
75137W        W38861   2.321  17.680  14.289
75138W        W38862   1.392  13.631   0.892
75139W        W38863   4.389  33.397   3.665
75140W        W38864  39.000  23.049  13.410
75141W        W38865  22.724  43.436   4.354
75142W        W38866  29.003  23.159   3.749
75143W        W38867  44.275   2.236  10.509
75144W        W38868  33.050  38.536   2.704
75145W        W38869  41.464  25.472  11.423
75146W        W38870  22.234  10.723  10.440
75147W        W38871  27.964  20.157  10.606
75148W        W38872  36.392   2.291  14.828
75149W        W38873   1.298  12.283   1.434
75150W        W38874  25.608   6.182   3.208
75151W        W38875  30.515   4.272  13.411
75152W        W38876  31.433   7.392   0.263
75153W        W38877  12.674  31.149   3.380
75154W        W38878  38.892   9.787   4.616
75155W        W38879  35.979   8.890   0.303
75156W        W38880  33.432  39.458  11.500
75157W        W38881  16.181  35.083   0.899
75158W        W38882  16.782  33.400  13.437
75159W        W38883  32.522  23.546   2.729
75160W        W38884  12.732  42.354   1.356
75161W        W38885  19.743   2.907   0.839
75162W        W38886  37.510   5.876   0.828
75163W        W38887  36.996   3.936  11.448
75164W        W38888   6.378  27.524  10.910
75165W        W38889  28.654  31.907   1.364
75166W        W38890   3.265  43.347  11.110
75167W        W38891  35.884  19.130  13.806
75168W        W38892  38.916  36.401  11.058
75169W        W38893  27.074  22.169  14.824
75170W        W38894  15.112   9.363   0.932
75171W        W38895   3.432  17.590  13.995
75172W        W38896  12.255  39.408  10.944
75173W        W38897  12.229  15.761  10.624
75174W        W38898  14.134   4.915   0.737
75175W        W38899  38.853  39.879   2.712
75176W        W38900  31.061  31.481  12.453
75177W        W38901  26.620  25.653   4.176
75178W        W38902  31.946  12.637   1.325
75179W        W38903  44.889   0.278  14.855
75180W        W38904  12.689  30.603  11.495
75181W        W38905  18.592  21.195  12.849
75182W        W38906  41.334   6.765   4.807
75183W        W38907  34.533  31.918   1.723
75184W        W38908  35.394  18.643  14.422
75185W        W38909  23.035  21.062   3.653
75186W        W38910  26.086  43.467  11.955
75187W        W38911   5.243  16.249   0.730
75188W        W38912  15.603  34.058  12.342
75189W        W38913  26.181   2.944  11.900
75190W        W38914  30.116  24.499  12.030
75191W        W38915  35.449  40.316  14.433
75192W        W38916  18.606  42.888  11.582
75193W        W38917  29.981  35.991   1.356
75194W        W38918  44.984  14.094   2.368
75195W        W38919  22.067  27.606   5.089
75196W        W38920   3.725  21.607  13.514
75197W        W38921  36.971  27.141   4.743
75198W        W38922  25.175  19.566  10.540
75199W        W38923  35.912   8.375   4.650
75200W        W38924  21.223  19.256  10.922
75201W        W38925  25.150   9.226   9.947
75202W        W38926  13.265  42.962  10.906
75203W        W38927   7.672   1.835   2.859
75204W        W38928  18.157  43.496  10.546
75205W        W38929  23.724  10.338  11.973
75206W        W38930  37.998  15.286  12.996
75207W        W38931  44.445  28.544  13.926
75208W        W38932  37.917  41.494   0.375
75209W        W38933  25.594  28.537   4.344
75210W        W38934  31.073  44.402   2.242
75211W        W38935  39.516  41.957   3.780
75212W        W38936  35.904  25.543  12.438
75213W        W38937  12.226   5.745  14.850
75214W        W38938  40.946   8.236   3.272
75215W        W38939  21.035  39.944   0.362
75216W        W38940  18.604   1.242  11.983
75217W        W38941  15.726  21.060  13.951
75218W        W38942  34.537   6.264  10.995
75219W        W38943  31.133  36.877  14.516
75220W        W38944  17.768   3.953  14.864
75221W        W38945  36.351   1.851  13.978
75222W        W38946  31.458  20.106  14.345
75223W        W38947  42.838  43.422   0.276
75224W        W38948  23.557  25.146   1.330
75225W        W38949  40.417  20.618  14.443
75226W        W38950  12.633  13.275  13.396
75227W        W38951  26.662   1.418  10.467
75228W        W38952  22.694  22.097   3.677
75229W        W38953   2.933  23.696   4.167
75230W        W38954  39.332  22.612  12.919
75231W        W38955  11.200   1.284   3.754
75232W        W38956  22.100  30.509   0.370
75233W        W38957   4.417   3.850  10.497
75234W        W38958  21.253  13.343   0.914
75235W        W38959   3.881  43.393  11.858
75236W        W38960  30.600  39.484   1.788
75237W        W38961   0.321  24.079  12.388
75238W        W38962  12.298  33.041   0.799
75239W        W38963  34.031  22.100  14.851
75240W        W38964  24.145  29.448  14.895
75241W        W38965  32.585  40.336   4.748
75242W        W38966  20.176  40.857   0.768
75243W        W38967  41.042   2.264   4.835
75244W        W38968   7.789  21.751  14.976
75245W        W38969  19.265   4.846   3.718
75246W        W38970   2.739  15.304  14.938
75247W        W38971  42.809  27.643  14.944
75248W        W38972  39.913  14.748  14.960
75249W        W38973   7.252  14.123   2.328
75250W        W38974  27.183  32.022  12.551
75251W        W38975  35.090  20.152   3.794
75252W        W38976  39.953  25.031   4.751
75253W        W38977  27.493   8.392   2.775
75254W        W38978  40.880  39.536  13.961
75255W        W38979  40.380  22.653   3.805
75256W        W38980  37.039  20.087   2.677
75257W        W38981  31.998  40.032  14.012
75258W        W38982   8.777  42.024  10.943
75259W        W38983  13.308  18.750   0.448
75260W        W38984  22.046  42.323  10.552
75261W        W38985  38.552   3.880   0.809
75262W        W38986  15.264  15.603   0.875
75263W        W38987  26.151  40.855  12.975
75264W        W38988  17.715   5.281  11.875
75265W        W38989  30.471  19.763   1.790
75266W        W38990  22.538  37.571   3.762
75267W        W38991  24.670  39.410  14.865
75268W        W38992  39.943  36.461  12.055
75269W        W38993  42.967  36.013  13.897
75270W        W38994  36.577  32.999  13.532
75271W        W38995   0.473  12.287   2.663
75272W        W38996  38.954  25.692  11.942
75273W        W38997  15.792  44.877   0.860
75274W        W38998   2.388  36.486   0.775
75275W        W38999  39.370  40.800  12.537
75276W        W39000  31.437  24.975  14.797
75277W        W39001  14.751  44.401   0.369
75278W        W39002   3.915  18.643  12.081
75279W        W39003   1.797   0.796  13.992
75280W        W39004  26.688   3.354  11.947
75281W        W39005  14.095  19.253   3.357
75282W        W39006   8.802  19.200   2.303
75283W        W39007  39.048  33.915  14.908
75284W        W39008   9.208  21.609   3.660
75285W        W39009  37.948  28.021  14.015
75286W        W39010  38.501  38.401   0.400
75287W        W39011   1.316   9.861   1.352
75288W        W39012  31.442  24.193   0.474
75289W        W39013  22.522   0.824   1.337
75290W        W39014  14.769  40.430  13.895
75291W        W39015  20.205  11.251  13.004
75292W        W39016  21.675  23.203   2.691
75293W        W39017  23.552   1.253  12.846
75294W        W39018  19.636   9.297   4.142
75295W        W39019  22.250  23.640  13.526
75296W        W39020  41.438  13.633   2.781
75297W        W39021  14.218  15.669   0.777
75298W        W39022   3.358  12.835   3.376
75299W        W39023  42.508  10.671   3.360
75300W        W39024   5.419  37.834   4.740
75301W        W39025  32.471  11.254  14.996
75302W        W39026  24.488  38.477   1.809
75303W        W39027   2.966  44.444  13.965
75304W        W39028  44.839  34.992   0.469
75305W        W39029  19.042  12.351   3.635
75306W        W39030   6.896  17.681   2.206
75307W        W39031  16.272  29.049  12.923
75308W        W39032  24.123  30.101   5.781
75309W        W39033  25.476  25.526   1.326
75310W        W39034  21.556  31.040   4.638
75311W        W39035  36.879  13.780   5.587
75312W        W39036  34.106  28.600   2.228
75313W        W39037  34.023  21.543   3.150
75314W        W39038  24.115  11.662  14.984
75315W        W39039  33.607  16.230   9.948
75316W        W39040   0.746   1.826   4.201
75317W        W39041  44.990  38.963   3.869
75318W        W39042  17.620  30.414  14.874
75319W        W39043  20.629  35.360  12.879
75320W        W39044  35.489  43.887  13.370
75321W        W39045  12.183  23.215  11.982
75322W        W39046  44.340  40.484  13.917
75323W        W39047  12.697  32.419   2.881
75324W        W39048  33.546   8.385   0.345
75325W        W39049  28.960  16.142   3.675
75326W        W39050   2.409   2.729  13.898
75327W        W39051  28.107  26.041  10.440
75328W        W39052  21.523  11.732   0.364
75329W        W39053  18.168  28.953   0.282
75330W        W39054  23.105   0.309  13.987
75331W        W39055   0.309  38.889   3.315
75332W        W39056   6.869  20.103   3.283
75333W        W39057  40.486  34.032  10.143
75334W        W39058  44.912  34.022   0.728
75335W        W39059  19.232  38.515   9.498
75336W        W39060   1.292  21.099  10.033
75337W        W39061  16.188  15.666   2.780
75338W        W39062  33.079  36.374  11.612
75339W        W39063  39.552   1.443  14.280
75340W        W39064  30.416   8.269   3.720
75341W        W39065   8.667  20.067  11.112
75342W        W39066  43.848  20.715   3.278
75343W        W39067  31.125  26.482   9.933
75344W        W39068  18.676  26.638   1.377
75345W        W39069   8.703  39.948   1.414
75346W        W39070  42.391  11.175   0.275
75347W        W39071   2.379  42.458   2.335
75348W        W39072   7.290  44.782   3.209
75349W        W39073   8.844  36.099  10.428
75350W        W39074  31.606  23.711  13.940
75351W        W39075  19.630  26.577  12.386
75352W        W39076  18.051  11.837  10.555
75353W        W39077  17.693   6.885   1.212
75354W        W39078  38.895  22.666   1.246
75355W        W39079  39.492  29.457  14.892
75356W        W39080   6.406  28.547   1.830
75357W        W39081  31.069  42.807   0.273
75358W        W39082  21.536  37.452  13.924
75359W        W39083   5.250  36.857   4.244
75360W        W39084  32.446  32.593  14.973
75361W        W39085   0.913   6.353  12.543
75362W        W39086  23.065  40.476  12.860
75363W        W39087  11.843   7.191  14.498
75364W        W39088  32.443   2.250   1.414
75365W        W39089  38.077   1.332  11.980
75366W        W39090  11.773   4.260   1.320
75367W        W39091   2.378   1.839   3.377
75368W        W39092  15.729  23.711  14.894
75369W        W39093  41.416  36.899   5.801
75370W        W39094  36.047  30.498   3.738
75371W        W39095   6.413  21.658   4.791
75372W        W39096  34.106  11.295  13.418
75373W        W39097   0.960   3.390  10.493
75374W        W39098   8.175  26.976  11.110
75375W        W39099  25.624  31.113   1.265
75376W        W39100  41.464  32.456   1.705
75377W        W39101  16.082  32.620   0.788
75378W        W39102   8.892  30.924   1.288
75379W        W39103   7.892   6.840  14.412
75380W        W39104   0.342  12.215  14.288
75381W        W39105  24.155  38.362   0.853
75382W        W39106  22.653   7.417  13.537
75383W        W39107  29.960  37.013  10.454
75384W        W39108  34.416  33.956  13.325
75385W        W39109  35.499  35.882   0.336
75386W        W39110   8.188   0.377  11.885
75387W        W39111  39.436   4.334  13.522
75388W        W39112  10.749   3.737  13.811
75389W        W39113  38.947  35.508   0.966
75390W        W39114  23.183   8.264   3.695
75391W        W39115  44.346  39.019  13.008
75392W        W39116  17.184  28.115   3.720
75393W        W39117  27.941   6.793  14.014
75394W        W39118  23.077   7.713   3.204
75395W        W39119  40.947  20.261   4.603
75396W        W39120   5.745   8.882   2.318
75397W        W39121  14.165   7.213  13.871
75398W        W39122  30.976  10.847   1.717
75399W        W39123  12.321  15.216   3.203
75400W        W39124  42.991  44.397   2.248
75401W        W39125  36.473  11.837   3.668
75402W        W39126  30.045  42.817  14.320
75403W        W39127  43.511  10.758   2.800
75404W        W39128  27.492  21.194  10.998
75405W        W39129  18.709  36.551   2.861
75406W        W39130  38.361  30.991  10.930
75407W        W39131  37.448   0.445   4.319
75408W        W39132   9.360  34.560  11.008
75409W        W39133  11.256   0.464   0.873
75410W        W39134  42.952  10.665   0.732
75411W        W39135   6.252  13.662  13.920
75412W        W39136  17.799   1.293  13.368
75413W        W39137  21.756  21.707  13.960
75414W        W39138  38.914  22.178   2.331
75415W        W39139  36.588   8.296  14.336
75416W        W39140  41.333  30.103  10.911
75417W        W39141  22.034   9.198  13.404
75418W        W39142  34.540  28.455  10.417
75419W        W39143  33.042  39.029   0.245
75420W        W39144   9.702   8.363  12.862
75421W        W39145  42.791  12.251  11.963
75422W        W39146  32.078  35.955   1.706
75423W        W39147  37.079  33.579   0.336
75424W        W39148  23.687  31.557  10.544
75425W        W39149  16.318  24.091   3.153
75426W        W39150  26.975  42.884  11.041
75427W        W39151   7.679  13.776   2.305
75428W        W39152  35.107  21.555   1.294
75429W        W39153  11.265  14.787  13.475
75430W        W39154  30.983  20.555   3.814
75431W        W39155  42.954  21.710   3.258
75432W        W39156  30.561  40.458  11.053
75433W        W39157  17.574   4.265   4.244
75434W        W39158  40.000  40.942  12.901
75435W        W39159   7.338  29.050  11.567
75436W        W39160   8.661  12.177  11.043
75437W        W39161  34.863  29.051  13.454
75438W        W39162  30.597   6.266  11.068
75439W        W39163  12.130  44.803   4.835
75440W        W39164  35.496  17.094  11.592
75441W        W39165   3.789  36.358  14.428
75442W        W39166  33.389  40.422  11.571
75443W        W39167  39.449  32.597   1.734
75444W        W39168  40.001  44.858  10.157
75445W        W39169  12.706  34.463   2.870
75446W        W39170  39.845  23.129   2.278
75447W        W39171  33.592  40.823  13.877
75448W        W39172   5.862  30.415  12.903
75449W        W39173  20.129  11.337  13.870
75450W        W39174  17.100  32.113   4.191
75451W        W39175  42.843  32.006   2.364
75452W        W39176  44.343  21.736  13.987
75453W        W39177  41.471  40.426  11.985
75454W        W39178  32.933   3.343  12.363
75455W        W39179  11.739  15.587  12.024
75456W        W39180  32.481  19.070   4.209
75457W        W39181  18.257   4.415  12.831
75458W        W39182  35.603   7.818   0.876
75459W        W39183  43.373   3.350  14.389
75460W        W39184  26.066  21.569  13.864
75461W        W39185  23.493  33.102  14.295
75462W        W39186  26.022   3.273   4.787
75463W        W39187  38.381  20.754   0.838
75464W        W39188  11.647  24.979   5.315
75465W        W39189   1.787  25.475   1.346
75466W        W39190   8.815  42.806  12.352
75467W        W39191  39.912  25.205  14.336
75468W        W39192  14.145  43.430   3.682
75469W        W39193  22.687  30.450  10.078
75470W        W39194  37.989  31.628  13.908
75471W        W39195  19.178  31.127  13.024
75472W        W39196  13.302   6.424  13.031
75473W        W39197  23.156  43.364  11.610
75474W        W39198  30.960   2.763  12.452
75475W        W39199  21.577  21.755  14.813
75476W        W39200  11.725  34.457  11.378
75477W        W39201  21.137  37.411  14.025
75478W        W39202  26.670  19.163  14.831
75479W        W39203  20.622  32.531  14.510
75480W        W39204  16.579  44.902  13.826
75481W        W39205  35.962   8.360  12.510
75482W        W39206  14.661  26.683   0.881
75483W        W39207  12.832  28.945   1.372
75484W        W39208  22.162  15.226   0.456
75485W        W39209  42.777  17.120   1.711
75486W        W39210  11.630  37.943  13.383
75487W        W39211  28.084  12.338  12.019
75488W        W39212  33.897   3.798   3.200
75489W        W39213  27.020  25.621   2.299
75490W        W39214  21.229  39.965  14.844
75491W        W39215  20.546  21.025   0.410
75492W        W39216  27.612  35.981   1.267
75493W        W39217  16.784  22.092   4.268
75494W        W39218  18.726  44.974  10.428
75495W        W39219   5.736  16.231   0.957
75496W        W39220  31.545   4.734  11.591
75497W        W39221   8.318   8.294   4.335
75498W        W39222  20.692  16.072  12.076
75499W        W39223   2.834  16.234  14.819
75500W        W39224   6.254  28.086  13.960
75501W        W39225   2.786  32.633  13.323
75502W        W39226  34.567  12.234   1.404
75503W        W39227   4.844  34.511   1.898
75504W        W39228  42.331  32.958  12.452
75505W        W39229  21.074   5.734   1.253
75506W        W39230  16.203  11.625   2.408
75507W        W39231  28.646  30.101   0.267
75508W        W39232  20.242   7.828  12.566
75509W        W39233  21.183  31.572   3.203
75510W        W39234   0.437   9.242  14.766
75511W        W39235  36.964  29.022  12.526
75512W        W39236  20.032   5.804  10.951
75513W        W39237   4.296  41.950  10.598
75514W        W39238  29.576   1.929  10.516
75515W        W39239   2.369  30.542  13.030
75516W        W39240  36.559   6.875   3.328
75517W        W39241  22.722  37.542  10.066
75518W        W39242   9.201  18.652  13.947
75519W        W39243  34.401  27.667   2.365
75520W        W39244  41.989  30.077   2.212
75521W        W39245  32.532  11.165   0.871
75522W        W39246  19.107  25.614  12.412
75523W        W39247  30.026  40.912   4.785
75524W        W39248  21.145   1.448  12.372
75525W        W39249   1.361   8.267   0.476
75526W        W39250  43.402  30.136  10.550
75527W        W39251   7.778  41.384  12.038
75528W        W39252  44.910  11.641   3.661
75529W        W39253  25.991  26.669   2.195
75530W        W39254   7.184  12.257  10.022
75531W        W39255  43.973  44.278  13.946
75532W        W39256   0.885  20.613   0.433
75533W        W39257   8.791  19.657  11.415
75534W        W39258  14.259  17.077  12.566
75535W        W39259  18.564  34.398   2.728
75536W        W39260   6.204  41.329  14.502
75537W        W39261  43.009  15.205   3.823
75538W        W39262  11.792  33.073   2.729
75539W        W39263  34.591   2.964   1.918
75540W        W39264   6.428  39.898   1.284
75541W        W39265  28.990  37.500  13.968
75542W        W39266  42.357  30.121  13.414
75543W        W39267  18.703   4.303  11.591
75544W        W39268  24.159   1.369   3.269
75545W        W39269  26.170  33.465  11.955
75546W        W39270  36.590  18.738  14.504
75547W        W39271   4.438  13.765   1.863
75548W        W39272  32.608   9.153   0.389
75549W        W39273  31.988  38.887  13.815
75550W        W39274  11.634  21.735   0.903
75551W        W39275  19.614  12.764   1.210
75552W        W39276  17.281   6.839   2.715
75553W        W39277  10.164   0.891  13.867
75554W        W39278  30.140  44.776   2.812
75555W        W39279  21.597  29.173  13.484
75556W        W39280  22.111  23.061  14.363
75557W        W39281   2.337   1.304  14.430
75558W        W39282  34.943  44.995  12.561
75559W        W39283  16.172  14.610   0.855
75560W        W39284   5.723  44.347   0.274
75561W        W39285   8.363  25.657  12.023
75562W        W39286  25.065  43.803   0.923
75563W        W39287  20.183  27.527  11.074
75564W        W39288   3.816  27.549   0.268
75565W        W39289  27.158  36.408  11.984
75566W        W39290  20.078  19.757  12.527
75567W        W39291  38.034  32.106   3.342
75568W        W39292  42.906  36.551  12.950
75569W        W39293  20.651  30.610   2.393
75570W        W39294  29.644  36.859   0.818
75571W        W39295  24.078   6.751  14.010
75572W        W39296  13.844  41.040   0.406
75573W        W39297   2.918   5.784   0.822
75574W        W39298  22.744  34.598  14.406
75575W        W39299  41.516   4.262   3.723
75576W        W39300  16.207  38.018  10.964
75577W        W39301  25.602  22.557  14.831
75578W        W39302   7.255  41.799   2.286
75579W        W39303   8.895   6.339   5.150
75580W        W39304  31.971   7.842   4.715
75581W        W39305  43.338  25.967   3.808
75582W        W39306   0.763  21.698   2.770
75583W        W39307  27.066  12.648   4.746
75584W        W39308  24.668  17.225   3.256
75585W        W39309   7.243  39.485   4.248
75586W        W39310  16.203  23.007   4.159
75587W        W39311   0.854  19.262   1.360
75588W        W39312  24.524   1.300  10.571
75589W        W39313  36.556  23.527  11.478
75590W        W39314   7.803  21.121   0.302
75591W        W39315  43.894  41.422   0.269
75592W        W39316  25.964   1.870  13.469
75593W        W39317  15.665   8.190   2.799
75594W        W39318  39.463  26.132  12.420
75595W        W39319  21.158   5.859  10.532
75596W        W39320  10.316  26.108  14.298
75597W        W39321  24.524  14.619   2.666
75598W        W39322   5.289  24.541   3.245
75599W        W39323  35.357  27.519  13.859
75600W        W39324  19.727  23.217  11.875
75601W        W39325  18.686  18.252  12.352
75602W        W39326   8.302  10.775  11.941
75603W        W39327  25.475  31.580   1.246
75604W        W39328  38.917   3.830  10.568
75605W        W39329  40.893  34.049   5.724
75606W        W39330   5.425  29.929   2.332
75607W        W39331  25.560  31.630  10.966
75608W        W39332  27.650  24.173  12.889
75609W        W39333  26.086  13.240   2.888
75610W        W39334   8.402   8.262   0.463
75611W        W39335  41.388  18.128   0.423
75612W        W39336   4.896  22.690  11.948
75613W        W39337  17.171  38.494  14.428
75614W        W39338  26.036   5.248   4.801
75615W        W39339   1.917  30.610   3.276
75616W        W39340  19.101  32.398   2.804
75617W        W39341   3.941  37.967   1.813
75618W        W39342  41.878  30.119   1.437
75619W        W39343  27.476  24.134  11.436
75620W        W39344  42.831  12.205  10.889
75621W        W39345  35.961  15.142   1.255
75622W        W39346  21.066   5.374   4.185
75623W        W39347  33.887   0.898  12.429
75624W        W39348  32.928  21.564  13.804
75625W        W39349  14.191  24.200  11.475
75626W        W39350  31.039  22.626  13.954
75627W        W39351  27.081  11.350   4.604
75628W        W39352   4.223  27.998  10.579
75629W        W39353  42.358  21.636   0.261
75630W        W39354  34.518  26.524   1.383
75631W        W39355   2.823  34.084  13.032
75632W        W39356  23.640  29.969  13.024
75633W        W39357   7.186  30.962   0.385
75634W        W39358  36.552  23.090   0.443
75635W        W39359   6.262  34.404  13.871
75636W        W39360   7.389  22.744   2.219
75637W        W39361  22.039  34.902  14.916
75638W        W39362  44.921  17.707  11.607
75639W        W39363  42.309  22.076  11.970
75640W        W39364  16.168  17.203   3.779
75641W        W39365  33.102  34.107   4.742
75642W        W39366  20.234  15.189  14.349
75643W        W39367  18.626  34.527  10.471
75644W        W39368   8.715  32.580  10.515
75645W        W39369  32.137  33.468  11.955
75646W        W39370  36.000  24.668   2.353
75647W        W39371   8.237  10.287   9.964
75648W        W39372  38.391  10.812   2.751
75649W        W39373  26.074  28.132   3.192
75650W        W39374  25.051  29.577  14.431
75651W        W39375  34.372  28.614  11.554
75652W        W39376   0.768  43.907  12.839
75653W        W39377   3.899   2.281  12.468
75654W        W39378  36.005  22.547  11.489
75655W        W39379   1.358  35.075   1.808
75656W        W39380  24.593  17.088  13.034
75657W        W39381  23.989  11.249  13.861
75658W        W39382  41.350  23.623  14.032
75659W        W39383  19.073   0.433   3.853
75660W        W39384  33.513   8.273  12.358
75661W        W39385   3.736  42.953  13.429
75662W        W39386   8.874   8.381   1.902
75663W        W39387  34.066  25.141   0.350
75664W        W39388   2.945  19.277   2.201
75665W        W39389  39.408  31.459  14.885
75666W        W39390  15.295  34.426  13.444
75667W        W39391  17.577  37.480  14.987
75668W        W39392  21.084  33.474  14.361
75669W        W39393   1.348  10.708  12.861
75670W        W39394  40.329  34.930   3.792
75671W        W39395  44.375  28.166   0.365
75672W        W39396   8.754  30.630   0.950
75673W        W39397  27.054  41.531  13.335
75674W        W39398  36.095  15.113   1.926
75675W        W39399   2.420  13.791   0.768
75676W        W39400  20.548  15.732  14.974
75677W        W39401   9.264   6.373   0.868
75678W        W39402  25.993  25.679   0.968
75679W        W39403  11.769   3.899  13.439
75680W        W39404  30.431   8.395   3.361
75681W        W39405   9.316  20.161   1.852
75682W        W39406  28.609   0.421  12.869
75683W        W39407  15.679  44.966   0.386
75684W        W39408   9.263  39.522  11.551
75685W        W39409  29.564  35.990  12.402
75686W        W39410  32.621   5.225   2.816
75687W        W39411  15.132  22.029   4.304
75688W        W39412   8.313  35.021  12.951
75689W        W39413  19.741  34.000   2.337
75690W        W39414  39.911   1.861  11.936
75691W        W39415  22.010  21.133  12.482
75692W        W39416  21.673  35.932  12.025
75693W        W39417  15.655  27.171  12.408
75694W        W39418  44.959  42.372   3.747
75695W        W39419  17.126  21.113   3.657
75696W        W39420  36.939   1.483   0.438
75697W        W39421  29.570  30.091   4.261
75698W        W39422  30.996  29.665   2.669
75699W        W39423   7.190   9.845   0.939
75700W        W39424  14.133  39.527  10.474
75701W        W39425   0.449  21.532   3.771
75702W        W39426   1.849   9.234   4.641
75703W        W39427   3.438   9.198  13.056
75704W        W39428   3.854  29.520  13.845
75705W        W39429  15.625   2.867  14.861
75706W        W39430  36.527  26.614  13.399
75707W        W39431  34.008  43.975  10.620
75708W        W39432   3.763  20.626   4.342
75709W        W39433   5.262   4.851   0.377
75710W        W39434  10.209  20.660   2.259
75711W        W39435  32.532  25.075   2.671
75712W        W39436  29.919   1.395  12.510
75713W        W39437  13.727   3.716   3.867
75714W        W39438   2.826  30.076   4.173
75715W        W39439  10.851  27.449   3.651
75716W        W39440   7.297  14.275  10.441
75717W        W39441  41.406  14.307   4.325
75718W        W39442  31.440  20.095  13.426
75719W        W39443  43.791  24.564  11.916
75720W        W39444  20.601  42.302  11.502
75721W        W39445  39.326  25.129  10.900
75722W        W39446  40.044  30.102  11.541
75723W        W39447  41.789  15.187   2.330
75724W        W39448  10.643  38.358  10.494
75725W        W39449  29.129  37.441  12.936
75726W        W39450  25.705  30.035   1.269
75727W        W39451  32.951  29.662   0.245
75728W        W39452  12.826  23.653   1.435
75729W        W39453   9.783  29.467   1.400
75730W        W39454   9.275  37.972  13.022
75731W        W39455   6.253   3.923   3.247
75732W        W39456   7.749   8.389   2.877
75733W        W39457   6.308  26.587   4.708
75734W        W39458  44.907  40.335  12.556
75735W        W39459  32.952  40.963  11.498
75736W        W39460  33.484  27.126  12.385
75737W        W39461  43.289  19.114   4.195
75738W        W39462   0.931   1.969   0.346
75739W        W39463  27.172  40.441  14.847
75740W        W39464  10.331  40.997   3.232
75741W        W39465  11.351  28.505  12.516
75742W        W39466  12.181  31.594  13.380
75743W        W39467  34.579  21.231   3.381
75744W        W39468  34.040  41.423  10.617
75745W        W39469  22.202   9.350  12.088
75746W        W39470   7.728  31.007  14.810
75747W        W39471  38.330  20.032  10.525
75748W        W39472  15.185  23.685   1.801
75749W        W39473  10.252  11.140  10.114
75750W        W39474   4.376   9.879   4.230
75751W        W39475  14.721  31.010  14.328
75752W        W39476  33.911  23.601   3.656
75753W        W39477   2.869  33.040  10.910
75754W        W39478  20.075  17.198   4.696
75755W        W39479  28.668   8.700  13.407
75756W        W39480  12.228  10.384   1.880
75757W        W39481  29.030   1.867  10.961
75758W        W39482  44.310  15.581   5.199
75759W        W39483  24.651  25.535  12.536
75760W        W39484   4.855  32.113  11.578
75761W        W39485  20.543  34.554  14.298
75762W        W39486   8.372  33.906   4.676
75763W        W39487  30.633   3.434  11.912
75764W        W39488  13.726  29.455  12.482
75765W        W39489  19.653  32.404  14.512
75766W        W39490  33.079  20.145   2.742
75767W        W39491  17.584  31.476  10.940
75768W        W39492  16.229  28.156  13.947
75769W        W39493  12.130  18.133  13.831
75770W        W39494  39.438  21.728   3.759
75771W        W39495  27.024  29.918   4.146
75772W        W39496  22.025  43.783   1.834
75773W        W39497  27.577  36.390  13.895
75774W        W39498  38.949  21.590   0.743
75775W        W39499  30.965  40.976  10.455
75776W        W39500   5.694   6.253  13.468
75777W        W39501  30.528  25.193  13.971
75778W        W39502  11.626  33.581  12.832
75779W        W39503  16.210  42.429  10.991
75780W        W39504  39.938   0.444  12.963
75781W        W39505   8.723  40.546  13.006
75782W        W39506   5.884  21.145  10.531
75783W        W39507   8.749  35.599   0.297
75784W        W39508  33.121  44.326  10.947
75785W        W39509  32.106  35.053  10.457
75786W        W39510  37.867   6.237  14.371
75787W        W39511   6.227  28.944   4.668
75788W        W39512   4.236  17.793  11.989
75789W        W39513  23.191   1.845   1.276
75790W        W39514  30.580  30.515  10.525
75791W        W39515   8.666  30.650  13.852
75792W        W39516  37.445  25.176  10.542
75793W        W39517  13.798   4.229   0.446
75794W        W39518  40.424   7.205   3.771
75795W        W39519  41.402  28.128   0.961
75796W        W39520  30.569   6.222  12.095
75797W        W39521  12.733  31.503  13.824
75798W        W39522   2.789  22.035   1.312
75799W        W39523  12.701  38.458  10.573
75800W        W39524  39.951  11.757   0.873
75801W        W39525  29.956  37.835  10.444
75802W        W39526   5.341  18.717  12.078
75803W        W39527  38.405  19.163  14.383
75804W        W39528   9.878  24.677  13.983
75805W        W39529   5.265  14.806  12.093
75806W        W39530  11.256  23.694   2.692
75807W        W39531  38.357  41.796   4.823
75808W        W39532  25.498  31.566  11.584
75809W        W39533  11.145  18.159   3.728
75810W        W39534  11.702  23.593  14.442
75811W        W39535  38.871  24.079   1.374
75812W        W39536  41.852   1.245   4.171
75813W        W39537  14.620  14.594  11.449
75814W        W39538   9.875  36.857  11.896
75815W        W39539   1.343  10.858   4.213
75816W        W39540  10.771  17.155   2.896
75817W        W39541  13.136  41.292   0.792
75818W        W39542  38.366  32.471  12.560
75819W        W39543  17.713  24.483  13.983
75820W        W39544   0.379  20.067   1.449
75821W        W39545  28.444  38.848   0.903
75822W        W39546  28.481  16.619   4.612
75823W        W39547  28.156  29.555  10.495
75824W        W39548   9.710  10.862   3.258
75825W        W39549   5.736  24.581   2.224
75826W        W39550  24.995  37.911   4.195
75827W        W39551   5.723  35.997  12.468
75828W        W39552   1.878   8.711   2.886
75829W        W39553  37.398  41.351  11.922
75830W        W39554  30.022   2.412  14.392
75831W        W39555  16.701  11.324   3.807
75832W        W39556  39.553  30.002  11.447
75833W        W39557  37.440   3.222   4.228
75834W        W39558   0.956  26.176  10.426
75835W        W39559  17.269  37.489  14.949
75836W        W39560   7.680   7.887   3.349
75837W        W39561  40.845  10.661  14.445
75838W        W39562  10.825  39.865   3.719
75839W        W39563   8.688  35.963  12.060
75840W        W39564  37.418  37.337   3.814
75841W        W39565   4.354  33.893   3.229
75842W        W39566  43.335  15.817   4.750
75843W        W39567   9.200  35.561  12.441
75844W        W39568  17.286  27.460   4.251
75845W        W39569  16.799   7.247   0.260
75846W        W39570  43.468  34.368   0.426
75847W        W39571   4.835  23.166   3.680
75848W        W39572  27.588  14.715   1.741
75849W        W39573   6.855  29.951  13.333
75850W        W39574   9.675   3.272  10.645
75851W        W39575   1.358  28.461   1.408
75852W        W39576  22.182  33.893   3.376
75853W        W39577  17.790  14.738  12.400
75854W        W39578  23.222  11.824   3.689
75855W        W39579  29.015  44.494   0.850
75856W        W39580  34.396  20.143   3.235
75857W        W39581   8.333  33.615  13.374
75858W        W39582  41.352  34.383  13.474
75859W        W39583  12.122   2.762   2.727
75860W        W39584  31.422   1.968   3.775
75861W        W39585  33.081   9.741  10.574
75862W        W39586  14.641  25.156   1.736
75863W        W39587  25.664   7.824  14.979
75864W        W39588  30.431  11.669  14.305
75865W        W39589  39.031  43.407  13.371
75866W        W39590  20.757  39.441  14.853
75867W        W39591  28.005  26.585  12.052
75868W        W39592  37.839   1.787   1.827
75869W        W39593  27.573   9.209  13.495
75870W        W39594  40.851  14.633   0.310
75871W        W39595  10.297  17.656  12.494
75872W        W39596   0.342  41.399   4.181
75873W        W39597  21.054  11.787   4.262
75874W        W39598  27.108   0.969  12.079
75875W        W39599  34.967  35.417   4.197
75876W        W39600  37.523  39.882  11.083
75877W        W39601  44.336   2.388   0.267
75878W        W39602   9.660  20.080  10.425
75879W        W39603  38.007  30.992  13.456
75880W        W39604   2.458   9.374  13.425
75881W        W39605   7.317  27.069   1.357
75882W        W39606  28.531  32.034  10.984
75883W        W39607  37.076  35.382  10.606
75884W        W39608  21.740  29.621   1.213
75885W        W39609   8.281   8.295   1.212
75886W        W39610  24.114  15.786   2.838
75887W        W39611  10.273  18.257  10.634
75888W        W39612   2.367  40.893   0.850
75889W        W39613  24.571  26.677  13.064
75890W        W39614   0.967  30.599   2.277
75891W        W39615  30.976  13.299   1.708
75892W        W39616  34.404   7.872   1.797
75893W        W39617  38.827  29.466  12.865
75894W        W39618  31.103  40.964  13.010
75895W        W39619   2.848  14.159   2.714
75896W        W39620  36.418   6.842  11.381
75897W        W39621  11.210   2.241   2.766
75898W        W39622  33.893  39.944  11.925
75899W        W39623  44.775  32.923   2.415
75900W        W39624  26.957  39.022   4.250
75901W        W39625   9.292  42.807   3.765
75902W        W39626   0.949  22.027   2.852
75903W        W39627  33.933  30.571   4.689
75904W        W39628  12.752  17.247  11.031
75905W        W39629  31.604  44.773   4.325
75906W        W39630   0.363  27.581   1.234
75907W        W39631  23.564  26.980  11.922
75908W        W39632   2.242  19.692  12.523
75909W        W39633  42.802   8.318   4.339
75910W        W39634   2.901  26.495   0.733
75911W        W39635   2.925  15.601   3.336
75912W        W39636  30.030   8.378   9.544
75913W        W39637  42.776  37.428  10.565
75914W        W39638  14.762  37.372  11.058
75915W        W39639  41.818  44.426   3.270
75916W        W39640   8.812  28.465  12.875
75917W        W39641   3.461  17.745  13.396
75918W        W39642   2.378  10.736   2.884
75919W        W39643  27.960  14.138  14.347
75920W        W39644  26.105  33.624   0.333
75921W        W39645  12.636  40.952   4.218
75922W        W39646  36.569  41.948   0.406
75923W        W39647  24.203  33.493   2.747
75924W        W39648  42.427   9.207   2.880
75925W        W39649   5.905  22.169  14.413
75926W        W39650  44.926  44.364  12.940
75927W        W39651  11.300  35.604  11.431
75928W        W39652  24.018  39.924  14.841
75929W        W39653   6.893  39.369  13.918
75930W        W39654  18.764  17.069   4.827
75931W        W39655  24.518  27.188  11.003
75932W        W39656  28.652   7.417  13.919
75933W        W39657  37.358   9.341  12.006
75934W        W39658  18.062   0.431   0.870
75935W        W39659  19.145  20.086   2.323
75936W        W39660  23.736  12.819  13.423
75937W        W39661  17.094  20.590   3.298
75938W        W39662  22.045  20.573   1.858
75939W        W39663   0.275  12.265   2.279
75940W        W39664   3.714  44.935   1.452
75941W        W39665  34.384  31.049   4.176
75942W        W39666  23.570  42.004   4.606
75943W        W39667  22.063  27.085   2.223
75944W        W39668  41.358   0.374  10.612
75945W        W39669  16.111  26.195  12.019
75946W        W39670  44.960  31.438   2.352
75947W        W39671  43.865  25.629   1.366
75948W        W39672  20.589  22.216   1.827
75949W        W39673   2.950  27.532   3.650
75950W        W39674  33.439  38.448  14.979
75951W        W39675  36.866  18.782   4.689
75952W        W39676   8.318   7.343   4.782
75953W        W39677  17.604   4.324   3.725
75954W        W39678  42.873  41.824   1.358
75955W        W39679  38.850   8.181  11.397
75956W        W39680  35.030   6.411   1.750
75957W        W39681   0.313  14.649   3.296
75958W        W39682   6.748  42.959   1.755
75959W        W39683   6.355  39.509   1.247
75960W        W39684  23.039  23.209   0.398
75961W        W39685  20.231  25.601   2.368
75962W        W39686   5.874  20.099  12.379
75963W        W39687  29.965  30.494  11.033
75964W        W39688  37.003  41.452   4.115
75965W        W39689   9.245  17.078  10.451
75966W        W39690  27.621   5.263  14.995
75967W        W39691  27.509  21.748  12.393
75968W        W39692   6.849  12.327   2.261
75969W        W39693   7.312  14.812  14.445
75970W        W39694  26.156  17.276  13.446
75971W        W39695  24.016  36.975   3.281
75972W        W39696  20.197  13.697  13.524
75973W        W39697   7.335  19.566   0.810
75974W        W39698  35.914  15.607   1.365
75975W        W39699   0.758  11.359  12.399
75976W        W39700  35.070  24.172  10.928
75977W        W39701   1.780  34.994  13.050
75978W        W39702   7.692  27.190  14.767
75979W        W39703  25.545  43.923  10.560
75980W        W39704  30.539  38.495   3.758
75981W        W39705  26.493   0.865  13.863
75982W        W39706  37.981  17.251  14.965
75983W        W39707  19.189   5.251  11.410
75984W        W39708   7.878  25.063  10.954
75985W        W39709  33.109  40.452  13.892
75986W        W39710  19.271  33.426   2.279
75987W        W39711  12.135  34.595  14.996
75988W        W39712  18.276  24.106  12.034
75989W        W39713  42.467  44.948   0.429
75990W        W39714  15.237  32.577   2.232
75991W        W39715  14.833  33.448   0.303
75992W        W39716  44.429   7.792  14.361
75993W        W39717  21.617  37.565   1.862
75994W        W39718  13.692  26.965   0.932
75995W        W39719  10.734  44.305   1.725
75996W        W39720  27.070   6.277  11.466
75997W        W39721  38.510  23.609  10.617
75998W        W39722  39.475  26.484   1.260
75999W        W39723   5.848   9.727  11.920
76000W        W39724  33.616  37.962  13.350
76001W        W39725  33.074  40.925  12.074
76002W        W39726  33.421  14.665  14.995
76003W        W39727  38.340   5.370   0.360
76004W        W39728   8.871  32.614  11.952
76005W        W39729  41.384   8.388   0.349
76006W        W39730  19.600  17.621   4.339
76007W        W39731   4.862  35.083   2.764
76008W        W39732   1.835  28.082  13.420
76009W        W39733  27.605  34.597   3.777
76010W        W39734  22.078   7.176   1.702
76011W        W39735  28.152  43.003  10.581
76012W        W39736  41.954   4.336  10.902
76013W        W39737  39.833  27.100   2.321
76014W        W39738  34.519  15.168  12.369
76015W        W39739   7.687  26.582   2.376
76016W        W39740  13.300   5.231   2.779
76017W        W39741  30.657  31.953  11.415
76018W        W39742  27.587   1.361   4.322
76019W        W39743  36.901  38.352  11.424
76020W        W39744  20.204  10.151   2.212
76021W        W39745  44.501   5.433   0.333
76022W        W39746  14.264  23.022  12.358
76023W        W39747  34.080  13.611  13.798
76024W        W39748  37.354  27.598  11.919
76025W        W39749  10.359  17.143   9.931
76026W        W39750   9.306  23.629   3.201
76027W        W39751  21.081  37.915   4.620
76028W        W39752  24.692   2.441  12.571
76029W        W39753  28.011  13.104   4.204
76030W        W39754   1.447  24.508   4.744
76031W        W39755  41.411  12.125  12.426
76032W        W39756  11.734   5.326  14.874
76033W        W39757  25.710  32.601   1.779
76034W        W39758  22.609  34.512  11.897
76035W        W39759  13.781  44.850   0.390
76036W        W39760   0.836  32.513   2.665
76037W        W39761  37.069  19.128   4.758
76038W        W39762  25.194   9.383  13.958
76039W        W39763  29.481  12.259  11.382
76040W        W39764  20.213  30.507   0.387
76041W        W39765  30.433   0.365   3.781
76042W        W39766  28.630  19.099   0.340
76043W        W39767   1.415  40.512  10.929
76044W        W39768   9.863  14.276   1.875
76045W        W39769  18.113  20.029   0.405
76046W        W39770  41.370  33.539   3.683
76047W        W39771   5.735  12.348  13.795
76048W        W39772  13.832  32.517  14.836
76049W        W39773  35.048  40.030  14.859
76050W        W39774  31.072   7.876  11.578
76051W        W39775  35.544  26.075   3.709
76052W        W39776  42.354   7.702  10.417
76053W        W39777   8.667  27.618   1.291
76054W        W39778  27.139   4.891   2.705
76055W        W39779   7.320  37.052   2.756
76056W        W39780  19.713   8.694   2.390
76057W        W39781  16.166  34.498  14.437
76058W        W39782  43.410   7.240  13.524
76059W        W39783  38.534  14.103   2.327
76060W        W39784   3.281  14.815   3.647
76061W        W39785   8.739  30.532   4.210
76062W        W39786  32.107  34.522  13.840
76063W        W39787  24.665  13.262  14.861
76064W        W39788  44.987  16.611   3.792
76065W        W39789   8.662  33.977  13.866
76066W        W39790  25.999   4.243   0.926
76067W        W39791  25.019  20.541  14.787
76068W        W39792  11.671  14.184  13.818
76069W        W39793   0.801  33.000   1.316
76070W        W39794  19.672  17.686   4.598
76071W        W39795  31.921  39.000  10.505
76072W        W39796  23.011  35.984  11.009
76073W        W39797  18.234  20.714   0.820
76074W        W39798  10.743   9.777   0.827
76075W        W39799   0.782  32.921  13.953
76076W        W39800  25.564  25.079   5.137
76077W        W39801   4.348   6.738  10.420
76078W        W39802  35.014  28.996   1.921
76079W        W39803  41.373   9.359   2.347
76080W        W39804  31.985  15.164  11.029
76081W        W39805  36.027   8.700   4.772
76082W        W39806  17.245   0.813  11.879
76083W        W39807  40.540  39.367  13.921
76084W        W39808  40.939  25.075  14.453
76085W        W39809  36.093   9.366   2.246
76086W        W39810  23.101  13.192  14.789
76087W        W39811  10.382  32.398  14.914
76088W        W39812   6.222  14.630  12.521
76089W        W39813   7.212  40.305  13.955
76090W        W39814  35.470  44.327  14.484
76091W        W39815  16.199  44.349   1.333
76092W        W39816  23.562  15.264   2.203
76093W        W39817  39.050  23.617   3.372
76094W        W39818  20.264  11.248   3.672
76095W        W39819  15.588  33.089   1.417
76096W        W39820   6.702  30.580   1.812
76097W        W39821   5.278  28.984  12.069
76098W        W39822  25.586  34.909   4.167
76099W        W39823   3.273  30.996   1.449
76100W        W39824  43.510  14.094  12.485
76101W        W39825  28.931   6.395  12.870
76102W        W39826   3.265  10.761   0.827
76103W        W39827  21.045  43.973   1.267
76104W        W39828  26.515  29.923   0.778
76105W        W39829   5.347   1.848  14.010
76106W        W39830   8.725  41.991  14.896
76107W        W39831  40.431  13.120   4.603
76108W        W39832  30.134   8.879   4.776
76109W        W39833  31.413   6.222   3.189
76110W        W39834  28.546  10.808  14.285
76111W        W39835   1.397  22.208   0.849
76112W        W39836  25.630   0.473   0.468
76113W        W39837  31.556  27.575   2.372
76114W        W39838  44.277  25.650  11.387
76115W        W39839  34.498  23.611  13.481
76116W        W39840   0.475  20.174   0.411
76117W        W39841   3.326  21.017   2.790
76118W        W39842   9.780  39.981  14.369
76119W        W39843  14.159  16.106  11.977
76120W        W39844  23.626  18.788  13.878
76121W        W39845  14.275  43.460   1.435
76122W        W39846  18.657  42.962   3.323
76123W        W39847  39.426  35.576   1.307
76124W        W39848   9.271  20.215   4.215
76125W        W39849  12.618   8.772   1.807
76126W        W39850  20.176   2.801  12.967
76127W        W39851  38.003  42.864   0.353
76128W        W39852  24.599   1.382   4.352
76129W        W39853  28.027  17.273   4.619
76130W        W39854  14.651   8.263   5.246
76131W        W39855  14.743  42.791  11.127
76132W        W39856  26.489  43.911   1.826
76133W        W39857  18.296   7.222   3.322
76134W        W39858  42.797  35.076   0.375
76135W        W39859  39.901  30.135  11.060
76136W        W39860  15.135  29.072  13.533
76137W        W39861  20.718  21.216   2.747
76138W        W39862   6.364   5.340   2.204
76139W        W39863  14.135   6.836   2.182
76140W        W39864  28.956   4.911   0.318
76141W        W39865  41.533   8.862  11.557
76142W        W39866  19.731  25.695   1.761
76143W        W39867   6.385  43.006   4.145
76144W        W39868   8.327  14.658  10.907
76145W        W39869  25.147  12.331  14.502
76146W        W39870   1.424  33.059  11.013
76147W        W39871  22.189  26.007  11.869
76148W        W39872   4.280  11.701   1.296
76149W        W39873  40.970  21.652   4.197
76150W        W39874   0.430  43.933   4.235
76151W        W39875   4.710  40.028   1.229
76152W        W39876  42.846   9.652   0.771
76153W        W39877  25.518  33.128   2.889
76154W        W39878   8.790   4.701  10.511
76155W        W39879  43.489  18.133  12.032
76156W        W39880  29.981  44.844   0.443
76157W        W39881  14.282  44.466   0.885
76158W        W39882  41.900   2.235  13.015
76159W        W39883  30.533   0.250   2.360
76160W        W39884  17.704  33.491   4.186
76161W        W39885  19.559   3.734  12.021
76162W        W39886  28.585  24.678  13.475
76163W        W39887  28.047  15.188  10.427
76164W        W39888   5.736  28.113  14.285
76165W        W39889  43.366  29.599   2.194
76166W        W39890   4.757  34.519  10.609
76167W        W39891  35.584  14.781  13.998
76168W        W39892  41.937  22.067  10.078
76169W        W39893  38.062  44.822  13.905
76170W        W39894   3.800   0.859  13.953
76171W        W39895  36.440  12.750   4.269
76172W        W39896  24.095  42.840   5.195
76173W        W39897  43.982  29.975  11.072
76174W        W39898  11.278  36.956  10.542
76175W        W39899   2.859  39.417   3.248
76176W        W39900  28.158  43.324   1.273
76177W        W39901  26.550  13.294  14.786
76178W        W39902  29.072  39.361   3.863
76179W        W39903   8.838  39.846   3.162
76180W        W39904   9.217  25.193  10.964
76181W        W39905   9.258  14.274  10.628
76182W        W39906  19.642  40.808  14.394
76183W        W39907  11.219  34.493   3.225
76184W        W39908  27.124  12.713   3.387
76185W        W39909  11.317  35.930   0.326
76186W        W39910   5.819  13.349  11.452
76187W        W39911  14.698  19.708  12.344
76188W        W39912   8.747  28.461   3.673
76189W        W39913  27.989  31.131   0.332
76190W        W39914  12.743   4.430   4.201
76191W        W39915  23.222   2.418   1.278
76192W        W39916  42.898   4.278   4.672
76193W        W39917  44.905  30.087   1.367
76194W        W39918  24.210   3.910  14.481
76195W        W39919  42.523   0.787   4.640
76196W        W39920  43.787   3.867  13.020
76197W        W39921   1.939   9.884  14.450
76198W        W39922  15.328  16.227   0.369
76199W        W39923  22.014  40.038   3.233
76200W        W39924  28.619   0.459  11.564
76201W        W39925   9.345   6.733   3.319
76202W        W39926  29.933  27.165  12.530
76203W        W39927  44.312  41.395  10.601
76204W        W39928  16.615  20.538  12.992
76205W        W39929   5.425  44.829   1.219
76206W        W39930  40.328  10.838  14.768
76207W        W39931  16.203  20.052  12.421
76208W        W39932  30.924  39.376   2.870
76209W        W39933  42.026  41.021  10.892
76210W        W39934  41.351  18.624  12.878
76211W        W39935  17.108  25.965  12.876
76212W        W39936  12.681   7.802  11.379
76213W        W39937   8.898  23.663  14.891
76214W        W39938  13.670  29.028  12.397
76215W        W39939  26.983  20.256  13.516
76216W        W39940   6.406  12.772  14.018
76217W        W39941  16.235   8.792  13.371
76218W        W39942   4.849  19.057  12.970
76219W        W39943  35.100   0.491  10.431
76220W        W39944  38.513   2.443  12.423
76221W        W39945   8.810  30.922   4.117
76222W        W39946   8.757  41.349  10.492
76223W        W39947   4.833  19.667   3.867
76224W        W39948   6.316  24.513   1.427
76225W        W39949  22.223  30.077   2.365
76226W        W39950  10.843  13.284   3.187
76227W        W39951  19.157  31.993  14.842
76228W        W39952  14.290  43.899  12.864
76229W        W39953  35.064   8.353   3.186
76230W        W39954   2.955  39.352  11.517
76231W        W39955   3.224  17.783   2.183
76232W        W39956  41.379  34.876  11.406
76233W        W39957  13.274  44.814   2.721
76234W        W39958  43.874  31.063  13.519
76235W        W39959  11.139  20.197   1.355
76236W        W39960  28.643  21.064   2.764
76237W        W39961  19.774  32.548  13.924
76238W        W39962  18.126   7.377  12.561
76239W        W39963  26.478  15.774   4.214
76240W        W39964  34.866  30.493   1.842
76241W        W39965  27.972   8.754  13.323
76242W        W39966   8.746   0.799  11.500
76243W        W39967  11.160   8.715  14.923
76244W        W39968  14.718  11.843  14.893
76245W        W39969   1.281  39.471   0.826
76246W        W39970  35.462  36.023   3.815
76247W        W39971  43.277  27.101  13.880
76248W        W39972  33.393  21.574  10.639
76249W        W39973  20.179  42.936   1.759
76250W        W39974   3.948  21.083  11.506
76251W        W39975   4.310   0.441   2.726
76252W        W39976  32.887   1.468   2.370
76253W        W39977  36.941  22.023  14.513
76254W        W39978   7.178  14.260   2.665
76255W        W39979  43.987  21.577  12.958
76256W        W39980  12.653  22.228  12.891
76257W        W39981   8.816   3.308   0.253
76258W        W39982  39.473  34.871   1.282
76259W        W39983  17.272  41.430  14.336
76260W        W39984  31.088  13.632   1.908
76261W        W39985  29.027   6.245   4.297
76262W        W39986  15.694  27.624   2.693
76263W        W39987   5.276  14.812   3.230
76264W        W39988  26.528  40.905   4.252
76265W        W39989  32.411  38.331  11.016
76266W        W39990   1.392  24.044   4.253
76267W        W39991  21.077   9.384  11.914
76268W        W39992  18.713   5.803  13.533
76269W        W39993  23.004  10.851   0.752
76270W        W39994   6.415  23.086  12.908
76271W        W39995  29.527   1.368   0.811
76272W        W39996  27.499  40.470  13.548
76273W        W39997   3.908  15.139  14.774
76274W        W39998   2.858  32.985  11.593
76275W        W39999  32.428  39.336  12.476
76276W        W40000  15.329  40.823   0.319
76277W        W40001  11.818  31.951  12.454
76278W        W40002  17.224  43.418  11.969
76279W        W40003   0.964  29.668   4.201
76280W        W40004  15.254  41.403   1.346
76281W        W40005   4.835  44.333  14.326
76282W        W40006   2.948  30.104   4.634
76283W        W40007  20.576  36.479   4.205
76284W        W40008  11.661  31.419  12.378
76285W        W40009  38.863  24.703  14.807
76286W        W40010  26.052  27.673   0.311
76287W        W40011  43.435  25.147  10.039
76288W        W40012  31.585  23.492   0.755
76289W        W40013   4.264  25.051  11.855
76290W        W40014   7.362  29.050  14.332
76291W        W40015  39.509  17.726   0.907
76292W        W40016  31.101  40.993   1.404
76293W        W40017  40.498  14.096  11.076
76294W        W40018   3.358  18.672  11.105
76295W        W40019   8.791  30.648  11.076
76296W        W40020   9.283  32.110  13.435
76297W        W40021  22.248  43.996  13.399
76298W        W40022  32.463  40.436  10.939
76299W        W40023   2.430  34.412  14.940
76300W        W40024  20.699   0.934  10.451
76301W        W40025  42.443  19.668   1.357
76302W        W40026  44.996  31.138  13.497
76303W        W40027   4.249   4.714  10.441
76304W        W40028  37.848  23.556  11.545
76305W        W40029  12.219  36.431   4.176
76306W        W40030  35.972  33.945   2.194
76307W        W40031  37.408  28.073  10.935
76308W        W40032   5.706  10.788  11.596
76309W        W40033  39.360  33.005   4.806
76310W        W40034  44.989   9.281   1.783
76311W        W40035  33.084  41.923  14.893
76312W        W40036  29.102  19.714   0.476
76313W        W40037   3.789  31.496   0.423
76314W        W40038  19.178  26.697  11.084
76315W        W40039  39.007  35.593   3.649
76316W        W40040  14.150   8.663   2.708
76317W        W40041  40.334  25.071   4.299
76318W        W40042   1.287  29.987  11.996
76319W        W40043   2.967  11.164  13.799
76320W        W40044  31.601  31.911  10.121
76321W        W40045   0.809  27.061  14.489
76322W        W40046   7.788   0.391   0.356
76323W        W40047  15.643   6.378   0.290
76324W        W40048  21.538  44.455   1.805
76325W        W40049  32.552  24.482  13.987
76326W        W40050  40.499   8.186   3.838
76327W        W40051   4.205  19.604  14.024
76328W        W40052  26.956  26.487  12.580
76329W        W40053  14.767  42.326   2.686
76330W        W40054   9.150  26.528  11.931
76331W        W40055  35.566   8.330  11.382
76332W        W40056  32.097  34.121  12.949
76333W        W40057   5.758   2.431  10.645
76334W        W40058  37.457  14.748   1.297
76335W        W40059  26.674  13.670  14.881
76336W        W40060   6.247  19.192  11.027
76337W        W40061  42.930  42.280   0.726
76338W        W40062  42.891  11.319   0.250
76339W        W40063  26.545  31.116  10.416
76340W        W40064  36.526  28.958  13.374
76341W        W40065  39.005  28.010  11.100
76342W        W40066  15.307  28.661   4.279
76343W        W40067  40.866  27.525   1.367
76344W        W40068  40.000  20.569   4.157
76345W        W40069   7.193   1.337  12.852
76346W        W40070   5.279  30.428  10.436
76347W        W40071  29.663   0.970   3.680
76348W        W40072  15.213  10.381  14.811
76349W        W40073  35.979  38.058  12.997
76350W        W40074  24.673  23.093  10.470
76351W        W40075  13.199  30.591  12.564
76352W        W40076  36.886  34.008  13.933
76353W        W40077  44.342   0.871   0.948
76354W        W40078   4.850  25.151   1.791
76355W        W40079   4.944  19.189   0.402
76356W        W40080  10.641  19.245   3.655
76357W        W40081  10.829   6.777   2.744
76358W        W40082   9.318  29.083   4.350
76359W        W40083  11.855  14.635  10.422
76360W        W40084   1.285  42.336  12.469
76361W        W40085  22.028  15.761   5.150
76362W        W40086  29.603  19.115  13.538
76363W        W40087  42.904  14.120   3.819
76364W        W40088  40.428   9.301  11.930
76365W        W40089  23.000  27.041   1.260
76366W        W40090  28.655  10.216  13.952
76367W        W40091   0.754  27.952  11.437
76368W        W40092  34.997  40.380  13.809
76369W        W40093  33.888  39.930  13.409
76370W        W40094  44.820  12.763   1.734
76371W        W40095  29.440  25.482   1.309
76372W        W40096  22.638   7.171  11.477
76373W        W40097  19.108  13.235   1.238
76374W        W40098  17.779  16.715  11.958
76375W        W40099  23.176  16.690  13.473
76376W        W40100  23.554  36.868   1.335
76377W        W40101  23.102   0.304   4.166
76378W        W40102  14.173   6.891   0.414
76379W        W40103  12.820  33.419   1.377
76380W        W40104   4.700   3.931  12.011
76381W        W40105  30.571  22.566   3.175
76382W        W40106  29.493  23.507   5.221
76383W        W40107   8.279  25.078  11.561
76384W        W40108  11.722  15.128   2.185
76385W        W40109   7.208  12.316   3.342
76386W        W40110  15.763  28.668   0.299
76387W        W40111  40.865  27.079  10.538
76388W        W40112   9.683  33.464  13.462
76389W        W40113   6.894  39.977   3.636
76390W        W40114  15.197  11.281  14.873
76391W        W40115   3.711   6.848   2.292
76392W        W40116  32.468   1.775   4.126
76393W        W40117  34.586   9.180  12.989
76394W        W40118  38.510  21.600  14.398
76395W        W40119  20.697   4.729   2.816
76396W        W40120  29.514  32.060  14.393
76397W        W40121  24.199  11.781  13.385
76398W        W40122  25.182   2.848  11.986
76399W        W40123  28.150  32.126  11.546
76400W        W40124  40.829  20.088  13.495
76401W        W40125   3.774  12.724  11.023
76402W        W40126  22.218  43.859  11.068
76403W        W40127  44.487  23.543   3.341
76404W        W40128  37.438  12.256   4.166
76405W        W40129  41.815  31.546  10.894
76406W        W40130  42.506  44.324   2.886
76407W        W40131   5.869  31.512   0.909
76408W        W40132  41.016  35.966  13.811
76409W        W40133  14.730   9.196   1.759
76410W        W40134  22.097  19.095  11.544
76411W        W40135  15.772  10.207  11.420
76412W        W40136  25.506  11.273  14.405
76413W        W40137   8.830  34.029   0.345
76414W        W40138  43.846  25.037  14.329
76415W        W40139  31.427  22.250   0.731
76416W        W40140  36.913  13.193   2.252
76417W        W40141  12.719   2.958   4.346
76418W        W40142  18.746  42.816   3.804
76419W        W40143  40.469   8.251   0.360
76420W        W40144   9.372  24.541   4.597
76421W        W40145  15.292   7.202   5.151
76422W        W40146  40.421   9.732   2.379
76423W        W40147  40.540   7.325   1.698
76424W        W40148  39.883  33.476   3.698
76425W        W40149  39.552   8.853  12.528
76426W        W40150   5.312  25.128   1.846
76427W        W40151  40.412  37.964  11.417
76428W        W40152  38.937   3.265  11.055
76429W        W40153  12.731   3.802   0.799
76430W        W40154  20.166  39.981   2.408
76431W        W40155  14.649  38.401  12.444
76432W        W40156  43.775  30.066   1.450
76433W        W40157  24.572  31.609   4.819
76434W        W40158  29.013  32.962  14.403
76435W        W40159  10.742  35.491   2.692
76436W        W40160  39.446  26.048   2.856
76437W        W40161   6.855   0.879   0.958
76438W        W40162  35.014  43.942  12.347
76439W        W40163  21.639  25.584  12.565
76440W        W40164  38.981  16.676  12.881
76441W        W40165  17.285  22.636  13.892
76442W        W40166   3.790  19.220   4.689
76443W        W40167  10.305  16.253   4.630
76444W        W40168  31.487   1.820   1.736
76445W        W40169   5.331  32.433   3.258
76446W        W40170  19.611  10.291  13.475
76447W        W40171  23.045  41.837   2.204
76448W        W40172   2.247  33.555   3.733
76449W        W40173  31.623  34.952   0.329
76450W        W40174  44.487  34.105  13.421
76451W        W40175  35.089  17.779  11.095
76452W        W40176  14.236  10.806  10.992
76453W        W40177   0.253  25.696  14.447
76454W        W40178  43.993  36.499  13.326
76455W        W40179  19.075   4.325   4.235
76456W        W40180  40.541  28.115  11.417
76457W        W40181   9.226  40.869  14.390
76458W        W40182   1.307  31.467   0.880
76459W        W40183  26.629  44.279   1.839
76460W        W40184  11.862   5.906   1.377
76461W        W40185   5.697  43.507   4.705
76462W        W40186  25.581  21.530   2.899
76463W        W40187  12.702  35.916   3.332
76464W        W40188  25.652  26.565   9.960
76465W        W40189  36.374  35.958   3.784
76466W        W40190  27.493  20.256  11.056
76467W        W40191  44.986  10.142  12.420
76468W        W40192  24.667  20.564  13.942
76469W        W40193   1.274  10.209   1.873
76470W        W40194  14.313  18.569   3.781
76471W        W40195   1.948  27.981  11.979
76472W        W40196   6.395  28.952   2.803
76473W        W40197  42.813  43.928  11.077
76474W        W40198  42.405  43.995  11.472
76475W        W40199  35.373  22.060   2.402
76476W        W40200  30.623  42.512   1.767
76477W        W40201  29.984  30.944   1.893
76478W        W40202  14.271  34.989  14.487
76479W        W40203  12.648  19.589   0.727
76480W        W40204  20.600  17.748   4.802
76481W        W40205  26.967  19.778  12.067
76482W        W40206  28.511  33.951  11.980
76483W        W40207  32.094   9.378  12.927
76484W        W40208  40.899  27.579   2.685
76485W        W40209  40.985  19.158   2.243
76486W        W40210  16.579  10.148   3.700
76487W        W40211  32.053   2.756   0.820
76488W        W40212  27.192   2.296  13.819
76489W        W40213  31.424  15.113  14.477
76490W        W40214  34.907  36.508   2.303
76491W        W40215  26.040  20.128  14.277
76492W        W40216  28.653   9.826   3.265
76493W        W40217  19.254  41.919   1.807
76494W        W40218   6.902   6.349  14.847
76495W        W40219  17.632  15.243  11.530
76496W        W40220   7.214   8.838  13.951
76497W        W40221  16.170  37.990  10.590
76498W        W40222  43.982  36.539  13.032
76499W        W40223   3.243  37.382   3.775
76500W        W40224  29.522  12.737  10.895
76501W        W40225  30.022  42.423   4.241
76502W        W40226  41.321  42.919   1.800
76503W        W40227   1.444  44.261  10.044
76504W        W40228  31.416  11.267  10.622
76505W        W40229   3.441  41.497   3.747
76506W        W40230  17.586   0.265  10.446
76507W        W40231  14.619   4.740   5.137
76508W        W40232  34.968   8.338  14.936
76509W        W40233  30.467  34.888   1.741
76510W        W40234   3.789  39.902   1.361
76511W        W40235   8.324  17.677  11.858
76512W        W40236  15.261  42.305   0.362
76513W        W40237  34.489   9.719   1.873
76514W        W40238  19.259  33.074  14.386
76515W        W40239  42.383  18.748   4.224
76516W        W40240  44.996  44.470  13.815
76517W        W40241  23.702  14.775   4.769
76518W        W40242   9.807  28.032  13.467
76519W        W40243  44.300  37.447  14.371
76520W        W40244   8.654   5.375   4.664
76521W        W40245  38.353  19.203   0.779
76522W        W40246   7.669  39.851  10.470
76523W        W40247   7.773  22.223   1.790
76524W        W40248  29.442  25.653  13.955
76525W        W40249  21.076  38.382  14.287
76526W        W40250  44.293  28.538   2.264
76527W        W40251   3.456  18.203   3.255
76528W        W40252   6.286  40.968  11.519
76529W        W40253  26.098  33.929   4.722
76530W        W40254  39.928  25.490  14.494
76531W        W40255  13.266  23.713  13.418
76532W        W40256  30.116  36.488   4.798
76533W        W40257  28.483  42.914  11.488
76534W        W40258  35.023  24.199  14.884
76535W        W40259  25.702  24.709   4.225
76536W        W40260   9.655  32.481   2.339
76537W        W40261  22.741  42.001   0.897
76538W        W40262  29.134  19.074  12.438
76539W        W40263  25.086  10.347   3.197
76540W        W40264  24.152  43.968  11.998
76541W        W40265  23.074  27.050  12.508
76542W        W40266  14.147   9.390  12.993
76543W        W40267  22.118   1.826   1.900
76544W        W40268  11.162  28.556  14.028
76545W        W40269  22.163   8.758  11.056
76546W        W40270  28.982  24.198   3.275
76547W        W40271  30.486  26.478   0.889
76548W        W40272  34.369  12.255   5.120
76549W        W40273  29.604  29.488  13.984
76550W        W40274  12.616  23.519   1.856
76551W        W40275  11.358   2.448   0.919
76552W        W40276  32.934  28.101  13.824
76553W        W40277  18.660  30.089  13.342
76554W        W40278  13.182  41.474   3.274
76555W        W40279  29.986  41.019  14.803
76556W        W40280  29.517  25.483   4.839
76557W        W40281  34.537  37.524  11.043
76558W        W40282  20.713  19.247   0.887
76559W        W40283   5.715   8.386   2.857
76560W        W40284   2.950  21.250   3.689
76561W        W40285  35.468  28.479   0.398
76562W        W40286   8.258  15.626  14.914
76563W        W40287  41.897  33.897  13.889
76564W        W40288  20.569  32.113  14.810
76565W        W40289  12.693  43.921   4.623
76566W        W40290  31.580   0.255  13.798
76567W        W40291   3.446  36.587  13.962
76568W        W40292   1.409  28.503   2.812
76569W        W40293  10.659  21.189   3.781
76570W        W40294  12.797  28.569   4.799
76571W        W40295  25.645  24.183  11.048
76572W        W40296  15.142  14.711   1.281
76573W        W40297  19.259   8.821  14.404
76574W        W40298  44.878  35.050  13.832
76575W        W40299  30.159  34.441  13.546
76576W        W40300  32.052  36.993  10.934
76577W        W40301  10.202  31.135  14.306
76578W        W40302  36.439  39.334   4.255
76579W        W40303  35.592  15.815  13.803
76580W        W40304  10.142  20.715  12.420
76581W        W40305  14.591  28.475   0.948
76582W        W40306   4.389  11.713  11.101
76583W        W40307   3.298   5.300  13.315
76584W        W40308  34.471  16.098   1.828
76585W        W40309   1.927  15.732   3.372
76586W        W40310  39.965  40.017  11.384
76587W        W40311  27.036  20.742   4.290
76588W        W40312  28.597  31.494  10.995
76589W        W40313  12.144   4.366  14.494
76590W        W40314  12.636  26.572  10.938
76591W        W40315   1.909   3.331   2.762
76592W        W40316  10.248  26.970  13.511
76593W        W40317  19.269  18.218  13.412
76594W        W40318  12.147  27.680   2.317
76595W        W40319  24.679  38.539   4.159
76596W        W40320  27.115   8.221  13.984
76597W        W40321  25.610   2.777  12.862
76598W        W40322  21.130  26.684  10.430
76599W        W40323  16.693  29.596   0.407
76600W        W40324  34.484  24.171   4.275
76601W        W40325  44.814  29.639   0.804
76602W        W40326  11.810   6.281   2.720
76603W        W40327  20.696  18.221  14.953
76604W        W40328   1.743  41.930  12.397
76605W        W40329  22.166  22.617  11.083
76606W        W40330   9.227  32.112  12.532
76607W        W40331  44.820  38.028  13.359
76608W        W40332  37.582  15.098   9.983
76609W        W40333  14.804   5.924  10.510
76610W        W40334   3.912  30.920  11.101
76611W        W40335  17.155  12.346  12.389
76612W        W40336  22.012  44.940   3.798
76613W        W40337  21.115  29.534  13.337
76614W        W40338  34.067  13.215   3.230
76615W        W40339  22.139  27.056   3.320
76616W        W40340  11.772  13.774  12.958
76617W        W40341  14.736  29.959  12.494
76618W        W40342  39.910  21.691  11.879
76619W        W40343  39.904  14.231   1.847
76620W        W40344  36.583   4.266   0.895
76621W        W40345  32.043  25.977   4.753
76622W        W40346  13.706  23.076   0.373
76623W        W40347  37.340  26.167  12.875
76624W        W40348  12.116  42.866  13.811
76625W        W40349   1.400   4.389  12.045
76626W        W40350  35.441  24.559  14.008
76627W        W40351   2.867  19.190  11.483
76628W        W40352  24.001   7.751   2.672
76629W        W40353  15.616  40.347   2.266
76630W        W40354  23.026   6.393   1.889
76631W        W40355  22.684  17.196  14.872
76632W        W40356  21.164   7.748   5.118
76633W        W40357  25.484  31.977  11.084
76634W        W40358  38.409  15.667   3.842
76635W        W40359  13.298  21.602  10.994
76636W        W40360  32.984  24.160  12.877
76637W        W40361  12.323  37.887   3.679
76638W        W40362  19.179  13.830  13.329
76639W        W40363   2.294   7.711   4.149
76640W        W40364   3.361   7.682   1.447
76641W        W40365   7.282   7.721  10.605
76642W        W40366  37.028  42.397  14.478
76643W        W40367  29.101  36.916  11.541
76644W        W40368  14.169  21.182   3.750
76645W        W40369  34.433  39.357   0.294
76646W        W40370   2.422  44.311  13.544
76647W        W40371  37.522  36.431  10.953
76648W        W40372   3.787  25.186   5.162
76649W        W40373  39.060  28.437  10.148
76650W        W40374  19.095  34.447  14.325
76651W        W40375  35.589  41.020  14.968
76652W        W40376  30.134  35.883   0.348
76653W        W40377  28.941  10.848  10.900
76654W        W40378   5.813  39.327  12.973
76655W        W40379  32.061  16.197  12.039
76656W        W40380   4.763  37.040  11.471
76657W        W40381   2.882   0.264   0.763
76658W        W40382  22.708  19.253   0.966
76659W        W40383  19.640   9.201   5.161
76660W        W40384  35.857  11.758   4.773
76661W        W40385   3.793  26.025   0.431
76662W        W40386   7.210  14.267   0.376
76663W        W40387  30.013   0.859   4.152
76664W        W40388  20.763  18.205  11.403
76665W        W40389  40.460   2.886  10.999
76666W        W40390  19.097   5.743  12.016
76667W        W40391  12.264   4.834   5.246
76668W        W40392  25.978   9.872  11.984
76669W        W40393  18.708  28.619   2.374
76670W        W40394   4.313  16.215  12.421
76671W        W40395   2.930  43.784   1.905
76672W        W40396   3.936  19.647   1.236
76673W        W40397  12.721  38.044  13.536
76674W        W40398  40.335  44.488   1.286
76675W        W40399  25.569  31.438   2.392
76676W        W40400   5.322   1.735   5.116
76677W        W40401   3.303  12.251   2.221
76678W        W40402  22.581   4.265   0.790
76679W        W40403  32.082  32.954  11.981
76680W        W40404  35.425   3.738  12.004
76681W        W40405  42.929  20.544   3.171
76682W        W40406  42.341  26.028  12.493
76683W        W40407  25.084   2.809   3.340
76684W        W40408  24.133  20.098  14.022
76685W        W40409  38.870  13.166   4.140
76686W        W40410  39.337  43.306   0.835
76687W        W40411   8.696  36.347   4.134
76688W        W40412  29.537  17.583  13.479
76689W        W40413  24.537   9.885  13.335
76690W        W40414  22.511  11.311  14.856
76691W        W40415  25.137   9.708  14.345
76692W        W40416   3.764  32.534  14.912
76693W        W40417  39.851   7.251   0.445
76694W        W40418  29.142  25.177  11.044
76695W        W40419   4.370  42.302  13.948
76696W        W40420  12.135  41.042  12.357
76697W        W40421  38.458  34.059   1.323
76698W        W40422  28.995  21.528  12.002
76699W        W40423  29.987  19.154  13.887
76700W        W40424   7.810  20.565   4.346
76701W        W40425  34.016  33.543   4.263
76702W        W40426  20.045   7.259   0.388
76703W        W40427  18.684   4.364  12.925
76704W        W40428   7.274  23.507   4.306
76705W        W40429  44.805   8.254  11.027
76706W        W40430  26.480  22.552  14.985
76707W        W40431  11.294   5.693  10.966
76708W        W40432  19.053  38.373   3.314
76709W        W40433  10.851  24.509   0.337
76710W        W40434  11.183  38.003   1.817
76711W        W40435   4.835  23.492   3.179
76712W        W40436  29.002  21.223  14.467
76713W        W40437  31.469  23.498  11.888
76714W        W40438   3.303  20.100  10.506
76715W        W40439  23.576  21.101  12.574
76716W        W40440  40.403  10.876  10.577
76717W        W40441  37.835   5.427   3.285
76718W        W40442   3.836  35.365   0.944
76719W        W40443   2.392  10.217   4.269
76720W        W40444  32.024  30.162   4.212
76721W        W40445  10.168  42.385   1.302
76722W        W40446  36.020  39.350  12.071
76723W        W40447  29.966   1.296  14.418
76724W        W40448  22.127  17.731   1.277
76725W        W40449  44.483   6.678   0.962
76726W        W40450   7.330   3.902  12.499
76727W        W40451   7.368  29.548  14.872
76728W        W40452   2.833   4.333  13.459
76729W        W40453  11.359  22.647  11.390
76730W        W40454  28.663   3.442   2.892
76731W        W40455  15.716  43.805   2.700
76732W        W40456  32.958  26.466  13.015
76733W        W40457   3.238  39.957   2.330
76734W        W40458  36.941  22.189   0.901
76735W        W40459  17.782  30.465   0.910
76736W        W40460  20.545   2.737  13.936
76737W        W40461  33.600  14.264  13.533
76738W        W40462   7.310  31.924  13.913
76739W        W40463  37.833  21.133   0.403
76740W        W40464  21.651  43.996  10.901
76741W        W40465   5.324  13.627  10.986
76742W        W40466  15.312   7.261   1.413
76743W        W40467  27.080   5.332  13.513
76744W        W40468   7.811  12.634   3.841
76745W        W40469  19.662  10.366   2.362
76746W        W40470   4.291  41.017   1.306
76747W        W40471   3.453  21.148  11.927
76748W        W40472  41.426   7.865   0.732
76749W        W40473  17.077  14.293   2.372
76750W        W40474   4.283   0.363   0.407
76751W        W40475   8.764  34.492  13.508
76752W        W40476  41.304  25.210  12.080
76753W        W40477   5.233  30.143   1.263
76754W        W40478  17.617  33.917  12.051
76755W        W40479  18.594  28.075   2.703
76756W        W40480  38.335  29.020  11.084
76757W        W40481  12.736  22.224  10.997
76758W        W40482  14.163   7.730  14.912
76759W        W40483   0.859  18.704   4.683
76760W        W40484  17.205  11.752  12.463
76761W        W40485  28.633  37.363   5.120
76762W        W40486  29.607  39.956  14.763
76763W        W40487  14.207   6.824  13.855
76764W        W40488  35.532   8.762  10.031
76765W        W40489  31.954  37.871   1.226
76766W        W40490  26.468  44.450  13.374
76767W        W40491  30.131  34.051   1.266
76768W        W40492  37.023  31.926   1.320
76769W        W40493  38.443  22.744   3.856
76770W        W40494   1.811  18.625  13.932
76771W        W40495   6.346   1.857   4.326
76772W        W40496  35.579  30.552  10.617
76773W        W40497  14.809  24.092  13.429
76774W        W40498  38.936   0.878  11.577
76775W        W40499  44.866  25.582   4.753
76776W        W40500  38.568   6.399  11.892
76777W        W40501  12.283  35.954   4.307
76778W        W40502  44.384  20.207   3.855
76779W        W40503  22.052  43.415  11.947
76780W        W40504  23.643  34.012  14.029
76781W        W40505  29.004  13.661   4.647
76782W        W40506  23.637  20.527   3.365
76783W        W40507  23.028  26.485  12.395
76784W        W40508  35.373   1.392  14.880
76785W        W40509  22.707  18.199   1.429
76786W        W40510   5.360  37.983  13.360
76787W        W40511  42.933  25.516  14.443
76788W        W40512  42.805  22.076   5.225
76789W        W40513  14.340  15.328   0.958
76790W        W40514  18.774  18.680   3.850
76791W        W40515  40.500  14.748  12.919
76792W        W40516  26.664  30.583   0.419
76793W        W40517  33.120  17.220  12.047
76794W        W40518   8.372   9.332   4.142
76795W        W40519  24.133   6.688   3.234
76796W        W40520  21.134   1.828   1.409
76797W        W40521  13.627  20.589   4.615
76798W        W40522   8.895  35.003  14.997
76799W        W40523  15.152  30.079   0.318
76800W        W40524  44.496   4.293   3.645
76801W        W40525   8.707  36.488   3.681
76802W        W40526  15.089  31.526   1.265
76803W        W40527  16.144  13.839   4.676
76804W        W40528   6.898  20.267  13.818
76805W        W40529   8.753  20.676  13.971
76806W        W40530  10.738  27.579  11.546
76807W        W40531  12.812  29.080  13.007
76808W        W40532   1.335   8.748   1.376
76809W        W40533  38.884  26.602   4.235
76810W        W40534  38.413  25.665   1.369
76811W        W40535  24.009   3.340  14.885
76812W        W40536  11.369  33.442  10.533
76813W        W40537  24.060  35.974   2.233
76814W        W40538  17.684  43.876   4.635
76815W        W40539  39.388  39.343  11.500
76816W        W40540  24.010  32.508   9.438
76817W        W40541  26.063  20.595  12.847
76818W        W40542  11.344  39.410  11.050
76819W        W40543   9.749  15.096  14.330
76820W        W40544  44.994  34.892   2.253
76821W        W40545  30.024  30.572  14.858
76822W        W40546   1.399  28.509  14.964
76823W        W40547   4.242  33.028  11.063
76824W        W40548  28.068  37.993  14.510
76825W        W40549  27.453  28.061   3.172
76826W        W40550  20.251  35.032   0.440
76827W        W40551  23.639   2.770   4.150
76828W        W40552  32.409  30.548  12.548
76829W        W40553   2.316  12.265  13.395
76830W        W40554  12.728  17.230   4.812
76831W        W40555   9.881   3.337   3.187
76832W        W40556   1.912  11.652   2.897
76833W        W40557   7.815  32.047   4.251
76834W        W40558  30.074  19.166   1.219
76835W        W40559  37.042   5.401  14.814
76836W        W40560  18.784  27.591  12.955
76837W        W40561  12.126   1.749  10.441
76838W        W40562  24.157  21.035  10.058
76839W        W40563  34.901  23.225  14.022
76840W        W40564  15.638  39.452   4.172
76841W        W40565  22.658  34.978  13.538
76842W        W40566  38.859   0.475   5.276
76843W        W40567  30.556   6.898  11.573
76844W        W40568  24.146  20.034  12.413
76845W        W40569  26.952  24.556   4.754
76846W        W40570  31.529  24.034  12.478
76847W        W40571   4.863  26.144  10.994
76848W        W40572  33.541  42.779   2.318
76849W        W40573  15.278   5.260   1.777
76850W        W40574  31.411  41.478   2.231
76851W        W40575  19.107  43.825  11.922
76852W        W40576  42.825  20.611  11.567
76853W        W40577  15.201  43.279  13.307
76854W        W40578  13.785   7.856   4.207
76855W        W40579  21.556  29.140   4.747
76856W        W40580  30.524  22.139  14.963
76857W        W40581  10.776   3.249   1.764
76858W        W40582   1.975   2.321  14.434
76859W        W40583   1.938  19.770  10.549
76860W        W40584  43.818  36.359  14.394
76861W        W40585  32.991  13.336   0.878
76862W        W40586   5.347  14.261   1.427
76863W        W40587  36.046   9.773   0.949
76864W        W40588  22.593  40.526   0.259
76865W        W40589  32.906  13.729  13.846
76866W        W40590  11.755   5.755   0.763
76867W        W40591  42.301  26.696   3.352
76868W        W40592  19.068  44.269  14.280
76869W        W40593  14.150   4.426   1.894
76870W        W40594  18.544  41.993  13.897
76871W        W40595  22.677  22.590   2.269
76872W        W40596  28.169  17.576   0.737
76873W        W40597   3.899  23.660  10.448
76874W        W40598  43.308  39.830   1.366
76875W        W40599   7.815  27.605   2.414
76876W        W40600   4.244  11.651  12.007
76877W        W40601  25.989   2.463  11.569
76878W        W40602  18.083   7.778   4.746
76879W        W40603  16.166  21.716   1.363
76880W        W40604  20.708   2.317  14.398
76881W        W40605  33.563  39.859   3.681
76882W        W40606  18.146  18.654  12.995
76883W        W40607  17.762  31.124   1.377
76884W        W40608  23.510  26.105  14.827
76885W        W40609  30.159   4.905  12.865
76886W        W40610  14.193  34.900   2.269
76887W        W40611  13.830  25.711   0.404
76888W        W40612  38.516  21.224  11.496
76889W        W40613   4.740  19.129   0.746
76890W        W40614  28.475  33.544   4.199
76891W        W40615  38.334  25.533   1.779
76892W        W40616  13.737  41.360  14.280
76893W        W40617  30.582  23.580  12.038
76894W        W40618  34.978  12.630  13.427
76895W        W40619  20.599  13.276   0.306
76896W        W40620  18.619  41.487  13.432
76897W        W40621   7.831  24.973   0.782
76898W        W40622   6.824   5.416  13.409
76899W        W40623  36.027  32.896   0.258
76900W        W40624   4.421  19.745  10.965
76901W        W40625   8.339  24.063   4.252
76902W        W40626  16.635  41.416   1.906
76903W        W40627  13.764   9.293  13.345
76904W        W40628  12.221  38.049  10.929
76905W        W40629  17.270  34.919   2.326
76906W        W40630  33.505   4.312  12.383
76907W        W40631  36.552  10.198   1.377
76908W        W40632   3.292  16.120  12.397
76909W        W40633   5.342  19.744   5.191
76910W        W40634  40.980  22.707   2.838
76911W        W40635  35.036  25.980  14.318
76912W        W40636  18.593  34.434  12.971
76913W        W40637  36.969  35.425   0.460
76914W        W40638   0.276  33.881   4.737
76915W        W40639  32.998  10.371   2.315
76916W        W40640   3.428  14.301   3.150
76917W        W40641  39.947  16.599   1.342
76918W        W40642   9.250   6.780  11.048
76919W        W40643  15.232  32.917  10.986
76920W        W40644  32.054   4.911   1.277
76921W        W40645  11.338  29.493   1.737
76922W        W40646  17.636  18.738  10.937
76923W        W40647  16.246   2.414  12.886
76924W        W40648  37.566   8.322  14.009
76925W        W40649   6.407  43.808   1.928
76926W        W40650  16.611   0.447   0.916
76927W        W40651  26.098  20.243   4.610
76928W        W40652   3.270  35.999   0.262
76929W        W40653   2.446  17.721  12.378
76930W        W40654   1.759  28.671   3.220
76931W        W40655  35.367  14.788   2.857
76932W        W40656  30.067   3.875   1.298
76933W        W40657  16.593  43.300  11.391
76934W        W40658  40.870  27.024   1.217
76935W        W40659  14.320   2.256   2.799
76936W        W40660  39.977  22.633   5.738
76937W        W40661  18.202  36.907   4.129
76938W        W40662  42.898  35.549   0.746
76939W        W40663  43.952  28.988  13.863
76940W        W40664  31.070  13.784   4.195
76941W        W40665   7.342  43.786  13.315
76942W        W40666  20.747  42.505  10.449
76943W        W40667   2.931  14.640  11.090
76944W        W40668  30.488   6.350   4.205
76945W        W40669   9.182  41.940   2.748
76946W        W40670  42.941  37.976   4.199
76947W        W40671  36.408  29.088   4.231
76948W        W40672  27.539  44.468   0.280
76949W        W40673   8.287  25.576   3.258
76950W        W40674  20.211  34.573  12.860
76951W        W40675  41.798  24.640  12.433
76952W        W40676  27.145   9.334  11.105
76953W        W40677   4.431   2.441  11.471
76954W        W40678  36.467  11.349  10.411
76955W        W40679  29.593  33.009   0.272
76956W        W40680  30.143  44.442   1.400
76957W        W40681  22.029  32.634  13.064
76958W        W40682  38.036   0.349   0.957
76959W        W40683  19.155  33.958  12.985
76960W        W40684  36.355  29.453   3.162
76961W        W40685   3.246   7.812   0.837
76962W        W40686  22.618  13.323   4.667
76963W        W40687  32.911  31.567  13.463
76964W        W40688   6.862  22.158  10.566
76965W        W40689   2.247  35.519   0.391
76966W        W40690  44.904   7.684   4.684
76967W        W40691  41.041   7.215  14.395
76968W        W40692   8.272   2.416  10.613
76969W        W40693  24.051  30.557   2.363
76970W        W40694  33.505  37.994   4.736
76971W        W40695  44.465  14.174   2.667
76972W        W40696   0.845  34.012  14.866
76973W        W40697  28.107   8.696   3.287
76974W        W40698  39.942   7.240   4.837
76975W        W40699  31.497  37.519  12.894
76976W        W40700  34.533  32.027  12.406
76977W        W40701  36.493   1.853  10.551
76978W        W40702  25.545  35.468  14.803
76979W        W40703  41.424  26.041   9.936
76980W        W40704  39.522   2.363   1.421
76981W        W40705  36.965  33.972  12.953
76982W        W40706  43.332  31.978   3.378
76983W        W40707  15.800  35.490   4.676
76984W        W40708  42.378   5.766   1.219
76985W        W40709  24.062  33.557  10.645
76986W        W40710  24.069  25.028   1.406
76987W        W40711  33.901  31.065  13.012
76988W        W40712  44.332  24.622  13.364
76989W        W40713  44.894  18.167   3.728
76990W        W40714   1.367  32.000   0.381
76991W        W40715  25.534  12.306   0.831
76992W        W40716  14.323   1.328  14.446
76993W        W40717  21.137  14.601  14.426
76994W        W40718  42.302  34.430   0.418
76995W        W40719  13.195  40.519  14.945
76996W        W40720  22.642  13.668   2.869
76997W        W40721  44.295  18.254  10.028
76998W        W40722  15.607  17.142   2.268
76999W        W40723  30.427  41.466  11.467
77000W        W40724  28.488   2.320   2.309
77001W        W40725  33.494  40.915   4.724
77002W        W40726  25.662  16.697  14.448
77003W        W40727  30.548  40.933  14.028
77004W        W40728  17.117  22.203  13.045
77005W        W40729  13.673  14.796  14.413
77006W        W40730  38.388   4.753   2.279
77007W        W40731  44.956  24.172  10.569
77008W        W40732  20.576  22.102   2.670
77009W        W40733  11.686  44.419  10.526
77010W        W40734  13.700  34.946   4.163
77011W        W40735  42.999  31.922   5.302
77012W        W40736   6.380  40.389   3.687
77013W        W40737   4.342  28.947  12.441
77014W        W40738  31.012  28.024  12.905
77015W        W40739  29.622   8.280   0.746
77016W        W40740  39.439  42.289   0.792
77017W        W40741  15.688  15.125  12.046
77018W        W40742  35.372  21.731   2.244
77019W        W40743  14.703   3.788  13.891
77020W        W40744  39.433   2.926   1.299
77021W        W40745   0.372  41.476   1.921
77022W        W40746  25.628  10.253  14.506
77023W        W40747   9.332  20.595  12.536
77024W        W40748  16.753  39.343   3.766
77025W        W40749   1.385  40.416  11.912
77026W        W40750   7.841  39.418   3.355
77027W        W40751  40.932  14.218   1.923
77028W        W40752  39.888  38.446   2.797
77029W        W40753   9.854   7.706  10.457
77030W        W40754  25.185   4.933  10.133
77031W        W40755  30.537  13.831  14.426
77032W        W40756  38.843   7.268   0.958
77033W        W40757  24.494   8.239  14.010
77034W        W40758  34.933   6.744  14.953
77035W        W40759  25.487  24.552   0.479
77036W        W40760  30.014  27.144   2.358
77037W        W40761  33.120  10.867   1.781
77038W        W40762   0.281  20.749  12.361
77039W        W40763  40.031  24.109   3.322
77040W        W40764  35.908  30.444  11.924
77041W        W40765  36.950  41.969  10.618
77042W        W40766  23.082   4.862  10.548
77043W        W40767   3.229  31.144   2.805
77044W        W40768  20.106  35.026  13.939
77045W        W40769   9.205   4.867  14.391
77046W        W40770  26.551   3.441  11.440
77047W        W40771  36.460   0.443   3.816
77048W        W40772  44.435  15.237   5.207
77049W        W40773  22.041  14.166   2.321
77050W        W40774   3.311  42.288   4.214
77051W        W40775  22.204   8.338   3.213
77052W        W40776  35.094  21.263   3.728
77053W        W40777   1.966  42.868   2.808
77054W        W40778  14.664  11.726   2.868
77055W        W40779  11.808   3.775  12.031
77056W        W40780   4.786  41.805  12.344
77057W        W40781  13.213  18.288   4.294
77058W        W40782  38.052  36.558  13.466
77059W        W40783  31.411  35.046  14.498
77060W        W40784  22.637  44.304   3.280
77061W        W40785  38.531  41.972  13.815
77062W        W40786  23.596  19.568  11.060
77063W        W40787  41.493  21.037  13.973
77064W        W40788   9.325  36.892  12.538
77065W        W40789   3.316   0.874  14.784
77066W        W40790   3.343   1.750   0.796
77067W        W40791  42.013  28.053   0.454
77068W        W40792   4.807  14.214   2.874
77069W        W40793   3.426  40.026  11.559
77070W        W40794  19.751  21.096  10.590
77071W        W40795  35.076   7.410   9.944
77072W        W40796   0.294  24.592   0.300
77073W        W40797  36.500  32.566  14.278
77074W        W40798  13.741  42.420   4.287
77075W        W40799  36.566  33.420  14.829
77076W        W40800   1.321  16.293   3.764
77077W        W40801   0.852  17.165   0.277
77078W        W40802  10.284  31.069  14.861
77079W        W40803  28.674  27.669  11.020
77080W        W40804  18.655  19.252  11.608
77081W        W40805  39.920  21.136   3.188
77082W        W40806  38.884  12.686  12.064
77083W        W40807  37.504  20.110  11.036
77084W        W40808   0.899  40.502  14.507
77085W        W40809  20.709  39.880   3.867
77086W        W40810  42.827  32.952   1.283
77087W        W40811  31.967  10.740  11.111
77088W        W40812   0.474   5.409   1.832
77089W        W40813   7.789  11.216  13.375
77090W        W40814  25.139  31.422   0.964
77091W        W40815  19.195  29.964  10.555
77092W        W40816  44.756  36.877  14.006
77093W        W40817  42.932  40.838  13.519
77094W        W40818  24.975  17.292   3.780
77095W        W40819  30.551  14.210   1.344
77096W        W40820  39.948   1.944  14.965
77097W        W40821  42.880  25.708  14.952
77098W        W40822  34.599  22.134  12.495
77099W        W40823  29.559  12.747  11.860
77100W        W40824  19.147  40.393  10.500
77101W        W40825   0.928  31.624   1.744
77102W        W40826  32.457  35.371   0.355
77103W        W40827   2.395   5.206   4.258
77104W        W40828   2.435  18.705  13.477
77105W        W40829  43.490   8.766   3.636
77106W        W40830  42.987  19.538  14.360
77107W        W40831  11.678  21.114  11.526
77108W        W40832  17.667  10.769  13.946
77109W        W40833   9.156  42.492  10.541
77110W        W40834  42.310   6.418   1.917
77111W        W40835  43.866  43.470  12.501
77112W        W40836   3.784  19.674  10.613
77113W        W40837   3.360   1.939   3.199
77114W        W40838  39.994  18.566  10.627
77115W        W40839  37.958   9.238   4.608
77116W        W40840   4.245  30.583  12.546
77117W        W40841  11.243  15.818  12.890
77118W        W40842   0.812  40.404  13.814
77119W        W40843  43.942  15.781  10.606
77120W        W40844  21.120  32.549  11.526
77121W        W40845  22.057  30.983  11.060
77122W        W40846  39.888  41.390   0.375
77123W        W40847  42.887   4.900  13.025
77124W        W40848  36.413  11.792   0.813
77125W        W40849  23.733  24.195  14.883
77126W        W40850  38.044  33.399  10.553
77127W        W40851   8.775  10.750   0.925
77128W        W40852  44.370  14.748   0.358
77129W        W40853  23.528  40.477  14.336
77130W        W40854  33.068  26.145   4.227
77131W        W40855  39.060   9.267  14.351
77132W        W40856  25.533  33.613   2.288
77133W        W40857  35.444  17.620  13.847
77134W        W40858  29.928  44.393   4.160
77135W        W40859   9.879  26.562  12.006
77136W        W40860   4.750  33.964   4.204
77137W        W40861  27.494  24.503  10.419
77138W        W40862  16.713  28.485  10.539
77139W        W40863   6.421  41.328  13.365
77140W        W40864  29.588  37.945  13.364
77141W        W40865  15.598  44.307   4.321
77142W        W40866  29.617  42.329   2.385
77143W        W40867  30.994  20.637   0.360
77144W        W40868  26.656  30.499  13.915
77145W        W40869  23.583  25.100  14.483
77146W        W40870  16.655  23.136  11.886
77147W        W40871  19.636  13.795   0.318
77148W        W40872  11.818  15.088   0.779
77149W        W40873  18.730  31.957  14.001
77150W        W40874   5.751  14.761  14.920
77151W        W40875   1.814  10.242   0.752
77152W        W40876  36.362  20.176   0.283
77153W        W40877   3.765   5.436   1.891
77154W        W40878  40.411   6.798   0.455
77155W        W40879  21.036  14.096   3.713
77156W        W40880  38.854   3.316  10.158
77157W        W40881   6.873  41.964  12.851
77158W        W40882  42.832  14.306  14.838
77159W        W40883   7.761  30.626   1.285
77160W        W40884   9.248  23.510   2.345
77161W        W40885  40.540   0.483  11.470
77162W        W40886  16.249  11.666   2.864
77163W        W40887   4.395  44.491   3.273
77164W        W40888  32.944   7.357   4.146
77165W        W40889   6.724   4.436   2.757
77166W        W40890  19.134   8.316   4.622
77167W        W40891  32.998  41.516  12.564
77168W        W40892  12.662  35.510  14.311
77169W        W40893  42.950  20.079  12.842
77170W        W40894  19.051  44.496   1.281
77171W        W40895  12.619  11.293   4.661
77172W        W40896  19.592  42.287  10.941
77173W        W40897  19.076   7.237   3.258
77174W        W40898  11.221  25.143  10.415
77175W        W40899   7.377  22.646   1.860
77176W        W40900   0.941  41.427   4.614
77177W        W40901   7.667  33.570   1.852
77178W        W40902  40.524  11.669  13.406
77179W        W40903  19.143  28.670   1.780
77180W        W40904  13.631  41.934  13.813
77181W        W40905  16.135  32.136   1.723
77182W        W40906   6.312  21.224   1.359
77183W        W40907  14.754  29.465   4.636
77184W        W40908  22.744  42.506  11.491
77185W        W40909  21.602  14.686  12.827
77186W        W40910   3.244  14.179   1.705
77187W        W40911  12.178   2.449  13.861
77188W        W40912  34.089  32.066   4.264
77189W        W40913  18.188  36.855  14.961
77190W        W40914  39.965  41.306  11.927
77191W        W40915   7.246   5.826   4.655
77192W        W40916  24.141  11.761  11.865
77193W        W40917   2.811  38.561  11.122
77194W        W40918  26.535  32.504   4.790
77195W        W40919  29.428  36.025   2.384
77196W        W40920   7.317  27.070  13.926
77197W        W40921  17.186   2.748  11.483
77198W        W40922  37.432   1.467  10.892
77199W        W40923   4.381  32.569  10.496
77200W        W40924  14.145   2.878  12.566
77201W        W40925  18.656  26.648   0.424
77202W        W40926  25.643  17.299   1.877
77203W        W40927   0.384  26.025  13.879
77204W        W40928  18.566  35.373   1.791
77205W        W40929  17.800  13.638  10.482
77206W        W40930  33.418   1.265   1.448
77207W        W40931  41.885  12.274   4.667
77208W        W40932  32.420  34.936  11.030
77209W        W40933  44.992  24.524   4.754
77210W        W40934  30.991  19.743  12.018
77211W        W40935  31.572  16.585  12.865
77212W        W40936  35.365  26.152   0.250
77213W        W40937   7.701  36.925   4.644
77214W        W40938  10.350  35.999  10.483
77215W        W40939  41.433  16.087  13.802
77216W        W40940  19.754  30.592   3.351
77217W        W40941   2.472  13.338  11.095
77218W        W40942  35.494  25.154   3.856
77219W        W40943  26.131  26.601  13.882
77220W        W40944  22.089  24.687  11.067
77221W        W40945  18.100   9.713   4.241
77222W        W40946  14.282  38.008  13.537
77223W        W40947  33.416  41.443  14.832
77224W        W40948  15.255   5.210   1.396
77225W        W40949  41.854  34.086  11.084
77226W        W40950   3.732  32.926  11.106
77227W        W40951  23.190   2.773  12.411
77228W        W40952  13.740  15.099  13.401
77229W        W40953   8.350   2.343  14.011
77230W        W40954   3.370  36.400  14.276
77231W        W40955   2.359  36.581  13.854
77232W        W40956  18.061  42.522   3.204
77233W        W40957  44.828  26.642  11.547
77234W        W40958  32.422   6.893   3.350
77235W        W40959   2.933  38.059  10.454
77236W        W40960  21.090  17.297  12.425
77237W        W40961  10.759   7.281   4.338
77238W        W40962  42.969  23.219  12.394
77239W        W40963  26.016  12.731  11.579
77240W        W40964  21.203  37.431   4.255
77241W        W40965  40.462  22.122   3.159
77242W        W40966  38.025  18.242   4.340
77243W        W40967   1.746  12.722  11.925
77244W        W40968  19.263  23.144  12.015
77245W        W40969  30.060   9.816   0.281
77246W        W40970  11.724  23.185  12.393
77247W        W40971   5.354  43.429  13.354
77248W        W40972  13.808  16.587   0.305
77249W        W40973  15.673  31.061   2.817
77250W        W40974  14.135   2.275  10.436
77251W        W40975  23.999  26.155   0.727
77252W        W40976   2.338   1.832   2.730
77253W        W40977  43.353   3.354  13.061
77254W        W40978  12.744  26.508  14.446
77255W        W40979  22.667  19.079   4.172
77256W        W40980  40.408  21.121   2.865
77257W        W40981  32.465  19.642  11.545
77258W        W40982  20.533  42.286   0.349
77259W        W40983  32.132  40.313   3.764
77260W        W40984  38.842   6.289  12.093
77261W        W40985   0.944  31.969   3.741
77262W        W40986  33.601   8.176  13.912
77263W        W40987  16.684  23.736   0.809
77264W        W40988  27.019  29.583  13.365
77265W        W40989  19.075  28.985  12.903
77266W        W40990  16.128   8.228  11.410
77267W        W40991   7.853  22.629  13.791
77268W        W40992  31.135  20.171   4.216
77269W        W40993  18.661  12.169  14.874
77270W        W40994  40.466   8.796  13.862
77271W        W40995  33.901  40.419   4.230
77272W        W40996  27.086  16.181  13.392
77273W        W40997   3.746  32.933   4.801
77274W        W40998  30.622  38.961   1.316
77275W        W40999  11.155  26.495  14.284
77276W        W41000   4.305  26.060  11.461
77277W        W41001  35.893  40.391   0.860
77278W        W41002   4.366  37.338   1.913
77279W        W41003   4.855  40.039  14.305
77280W        W41004  23.654  14.136   3.656
77281W        W41005  28.499  35.538  11.921
77282W        W41006   3.344   1.300   4.123
77283W        W41007  31.082  10.297   2.780
77284W        W41008  41.835  25.625   2.413
77285W        W41009  31.620  44.834   0.818
77286W        W41010  44.484  36.014  12.966
77287W        W41011  18.128  16.242  10.981
77288W        W41012  38.375  37.010  11.924
77289W        W41013  29.977  31.472   4.331
77290W        W41014  23.510  26.624   0.847
77291W        W41015  43.925  12.209  14.934
77292W        W41016  12.186  15.616   3.169
77293W        W41017  40.948  26.525  14.274
77294W        W41018  27.106  23.643   2.234
77295W        W41019  33.949  41.922  12.362
77296W        W41020  30.609  20.152   1.847
77297W        W41021  26.603  22.659   4.726
77298W        W41022  13.773  17.728  11.518
77299W        W41023  11.661  23.581  12.845
77300W        W41024  40.039  23.148  12.516
77301W        W41025   8.279   3.341   1.289
77302W        W41026  43.979   9.879   0.257
77303W        W41027  25.561  44.787  13.446
77304W        W41028  23.078   5.338   2.673
77305W        W41029  37.016  10.247   2.263
77306W        W41030  28.158   4.355  14.801
77307W        W41031   6.293  14.822   3.351
77308W        W41032  17.714  22.037   1.863
77309W        W41033  18.126   0.911   2.841
77310W        W41034  23.705  40.463  10.952
77311W        W41035  12.283  34.876  10.953
77312W        W41036  24.081  20.656   2.265
77313W        W41037  14.657  15.296   4.730
77314W        W41038   4.414  17.673   3.694
77315W        W41039  37.942  39.917  11.427
77316W        W41040  44.436   0.473   2.301
77317W        W41041   3.915  43.874   0.837
77318W        W41042  21.090   8.706  13.883
77319W        W41043  33.483  43.469  14.773
77320W        W41044  31.536   6.709   4.318
77321W        W41045  14.803  28.132   4.274
77322W        W41046  22.223  39.824  11.074
77323W        W41047   0.937  13.199  12.527
77324W        W41048  17.258  11.865   1.220
77325W        W41049   4.380  35.088   1.790
77326W        W41050  20.183  37.065  14.392
77327W        W41051  18.676   3.225   0.859
77328W        W41052  15.756  12.152  12.505
77329W        W41053  37.999   8.240  14.351
77330W        W41054  10.636  23.550   5.185
77331W        W41055   0.439  10.685   2.402
77332W        W41056   2.427  13.640   1.874
77333W        W41057  24.495  36.455  13.541
77334W        W41058  26.695  14.297  13.037
77335W        W41059  16.193  44.369  11.066
77336W        W41060   9.391   6.903   2.794
77337W        W41061   0.359  19.226  11.592
77338W        W41062  43.923   1.428  13.385
77339W        W41063   6.258  28.151   2.318
77340W        W41064   4.370  12.665   4.216
77341W        W41065  24.204  18.195  14.765
77342W        W41066   3.749  26.549   2.352
77343W        W41067  25.518  32.014   2.689
77344W        W41068  10.196  20.660  13.938
77345W        W41069  44.926  38.429   1.340
77346W        W41070  42.346  10.693   0.317
77347W        W41071  30.486  35.467   0.963
77348W        W41072   2.739   7.700  11.856
77349W        W41073  36.431  29.646  11.864
77350W        W41074  13.827  20.154  13.318
77351W        W41075   4.807   9.663   3.228
77352W        W41076  40.911  41.016   1.300
77353W        W41077  12.696  28.116   0.337
77354W        W41078  12.211  44.285   0.344
77355W        W41079  38.555  35.550  12.830
77356W        W41080  34.953  11.212   2.389
77357W        W41081  40.460  19.280  14.425
77358W        W41082  25.681  17.218  13.471
77359W        W41083  21.183  26.996   0.268
77360W        W41084  31.971  35.527  10.904
77361W        W41085  10.797  23.071  13.032
77362W        W41086  44.379  37.455  10.988
77363W        W41087  42.024  35.926  12.460
77364W        W41088  24.617  43.798  13.399
77365W        W41089   4.349   5.695  12.994
77366W        W41090  44.400  35.499   2.317
77367W        W41091  29.922  44.302  14.930
77368W        W41092   6.191   8.884   1.901
77369W        W41093  20.274   5.841   0.290
77370W        W41094  37.834  25.647   4.637
77371W        W41095   5.294  35.891  10.491
77372W        W41096  23.587  27.147   4.324
77373W        W41097  44.851  42.477   0.869
77374W        W41098  22.171  19.670  11.056
77375W        W41099  31.147  40.327  13.816
77376W        W41100   5.743  29.547  12.074
77377W        W41101  11.769  32.073  11.406
77378W        W41102   7.834  21.565   4.229
77379W        W41103  41.439  24.096  12.901
77380W        W41104  29.142  18.179   0.819
77381W        W41105  26.677  37.427  12.060
77382W        W41106  43.774  43.822  12.887
77383W        W41107   6.182  27.112  14.813
77384W        W41108  36.974  29.574   2.347
77385W        W41109  20.105   9.729   1.733
77386W        W41110   0.787  21.644  13.314
77387W        W41111  25.595   7.811  12.965
77388W        W41112  10.638  18.050  12.834
77389W        W41113  30.106  20.598  11.012
77390W        W41114   7.842   1.759   4.241
77391W        W41115  43.948  40.919   3.308
77392W        W41116  32.622  35.046  12.431
77393W        W41117   7.905  34.468  14.348
77394W        W41118   1.963   1.250  13.964
77395W        W41119  32.403  11.695   3.807
77396W        W41120  14.694  22.196  14.870
77397W        W41121  35.008  28.144  10.612
77398W        W41122  29.651  33.538  14.797
77399W        W41123  14.750  29.918   2.245
77400W        W41124  34.539  40.937  10.937
77401W        W41125  13.228   0.755  11.484
77402W        W41126  28.533  43.921  11.016
77403W        W41127   4.393  40.883  12.998
77404W        W41128   1.322  30.432   3.852
77405W        W41129  30.083  44.448  13.836
77406W        W41130  32.103  21.537   2.731
77407W        W41131  11.241  33.417  14.787
77408W        W41132  23.045   5.708   3.835
77409W        W41133  39.993  40.450  10.914
77410W        W41134  38.415  40.412   0.331
77411W        W41135  32.401  29.030  14.438
77412W        W41136  41.456  24.021   1.364
77413W        W41137  22.176  39.847   2.897
77414W        W41138  36.446  39.041  13.915
77415W        W41139  17.604  19.659  10.473
77416W        W41140   5.798  12.692   3.333
77417W        W41141  41.808   6.686   3.639
77418W        W41142  43.949  20.238   0.450
77419W        W41143  34.869   0.490   2.788
77420W        W41144  41.537  33.951  14.291
77421W        W41145  18.094  21.083   0.416
77422W        W41146  14.754   6.805   4.635
77423W        W41147  16.175  36.000   0.383
77424W        W41148   8.841  37.401   2.357
77425W        W41149   5.231  24.522  10.632
77426W        W41150  22.658  27.147   4.332
77427W        W41151  38.925  17.781   1.403
77428W        W41152  15.088   1.810  12.854
77429W        W41153  19.728  32.079   5.281
77430W        W41154  32.632  12.611   0.286
77431W        W41155  44.983  35.937  10.035
77432W        W41156  18.667   7.229  11.522
77433W        W41157   4.345  21.240  11.580
77434W        W41158  29.992  28.929   3.231
77435W        W41159  11.241  10.337  12.909
77436W        W41160  25.128  21.021  11.491
77437W        W41161  31.509  20.170   3.301
77438W        W41162   6.400  18.592  13.032
77439W        W41163  26.466   8.398   3.833
77440W        W41164  29.632  21.150   2.281
77441W        W41165  15.754  35.408   1.784
77442W        W41166  14.603  44.365   3.209
77443W        W41167  33.123  17.197  11.076
77444W        W41168  28.569  19.231  13.832
77445W        W41169  15.307  29.101   0.483
77446W        W41170  22.013  21.215   3.835
77447W        W41171  35.930  37.475   0.339
77448W        W41172  35.022   6.836   4.203
77449W        W41173   2.805  26.981  13.485
77450W        W41174  36.492   7.309  12.874
77451W        W41175  27.558   6.199   4.332
77452W        W41176  15.208  31.516   2.836
77453W        W41177   4.377  10.736  11.025
77454W        W41178  42.370  12.851   2.273
77455W        W41179  14.258  35.874   3.284
77456W        W41180  32.493  38.018   0.735
77457W        W41181  44.386  17.692  13.479
77458W        W41182  25.117  31.133  14.340
77459W        W41183   8.781  28.525   0.385
77460W        W41184  44.775  15.185  13.043
77461W        W41185   8.334   2.954   4.188
77462W        W41186  15.735  15.134   0.891
77463W        W41187   5.917  43.892  14.463
77464W        W41188  31.017  39.381  14.484
77465W        W41189  12.249   8.305  11.117
77466W        W41190  40.984  10.229   4.699
77467W        W41191  16.726  12.142   2.881
77468W        W41192  23.146  10.372  14.988
77469W        W41193  44.263  15.141  14.015
77470W        W41194  18.664  24.555  14.982
77471W        W41195   8.280  26.038  13.908
77472W        W41196   2.355  28.032   0.270
77473W        W41197   9.824   0.863   0.401
77474W        W41198  32.121  36.371   2.828
77475W        W41199  22.110  35.943  11.127
77476W        W41200  18.619   5.828  10.447
77477W        W41201  38.341   0.809   3.774
77478W        W41202  18.690  19.772  12.058
77479W        W41203  10.845  39.831   2.785
77480W        W41204  42.852  16.583  11.397
77481W        W41205  25.047  18.130  13.418
77482W        W41206  40.496   2.402  13.967
77483W        W41207   5.713  18.129  14.030
77484W        W41208  19.767  15.094  13.946
77485W        W41209  32.019  14.295   4.815
77486W        W41210   2.328  25.580   3.665
77487W        W41211  20.154  27.138  10.463
77488W        W41212   0.839  20.226  14.818
77489W        W41213  27.685  27.522   2.662
77490W        W41214  29.609  37.372  13.507
77491W        W41215   0.775  19.600  14.392
77492W        W41216  17.153   3.867  11.492
77493W        W41217  12.742  28.959  14.446
77494W        W41218  34.922  43.946   0.319
77495W        W41219  10.247  36.505   2.267
77496W        W41220  14.740  32.404  11.558
77497W        W41221  42.340  35.086   3.359
77498W        W41222   7.767   1.923   3.332
77499W        W41223  39.994  35.009   2.801
77500W        W41224  30.626  41.848  10.933
77501W        W41225  17.638  15.089  14.332
77502W        W41226  37.424  33.901  14.967
77503W        W41227  17.678  44.873  11.927
77504W        W41228  37.906   7.834  11.874
77505W        W41229  33.032  26.053  13.532
77506W        W41230  22.170   3.949  12.927
77507W        W41231   5.412  27.653   0.872
77508W        W41232  36.410  35.359  14.927
77509W        W41233  19.223   4.844   1.857
77510W        W41234  44.002  41.947   3.669
77511W        W41235  43.451  32.581   2.340
77512W        W41236  22.015  37.842   4.760
77513W        W41237  20.228  20.064   2.198
77514W        W41238  19.193  14.183   4.602
77515W        W41239  29.564  11.772   4.736
77516W        W41240   3.809   8.889  10.896
77517W        W41241   7.346  42.817  12.571
77518W        W41242  16.316   8.657  13.815
77519W        W41243  36.561  12.777  12.044
77520W        W41244  19.228  40.312   2.662
77521W        W41245  40.901  33.401  13.511
77522W        W41246  18.756  20.119  12.916
77523W        W41247  31.425  34.379  11.429
77524W        W41248  26.118  21.058  14.010
77525W        W41249  19.240  36.416   0.314
77526W        W41250  24.189  21.110   2.415
77527W        W41251  21.133  34.518   3.210
77528W        W41252  40.441  24.651  12.903
77529W        W41253  10.153  31.568   3.682
77530W        W41254  26.684  21.036   4.262
77531W        W41255  17.217  41.909   0.484
77532W        W41256  36.478  32.591   0.301
77533W        W41257   0.489  41.964  14.345
77534W        W41258  32.128  18.584   3.383
77535W        W41259  19.100  21.190  12.388
77536W        W41260  32.567  37.538  10.427
77537W        W41261  13.163  38.912   1.395
77538W        W41262  40.977  36.494  13.817
77539W        W41263  39.453  20.576  14.355
77540W        W41264  26.208  19.065  12.575
77541W        W41265  29.107   2.237   2.749
77542W        W41266  26.629  26.592  14.933
77543W        W41267  10.292  30.128  11.531
77544W        W41268   4.231  22.632  11.961
77545W        W41269   2.229   6.293   0.743
77546W        W41270  41.863  16.703   3.769
77547W        W41271  41.807  12.817  11.060
77548W        W41272  33.387   3.851  12.947
77549W        W41273  39.964  28.606   0.370
77550W        W41274  41.027  44.339  12.003
77551W        W41275  30.126  36.022   2.362
77552W        W41276  33.016  32.959  11.476
77553W        W41277  14.243  24.119   5.145
77554W        W41278  22.711  20.746  13.414
77555W        W41279  17.307  24.633  10.959
77556W        W41280  11.173  14.714   3.347
77557W        W41281   6.415  19.238   4.638
77558W        W41282  25.062   4.353   4.619
77559W        W41283  43.773  16.218  13.469
77560W        W41284   3.832  19.570   2.667
77561W        W41285   9.200  13.675   5.152
77562W        W41286  44.280   8.295  11.095
77563W        W41287  12.171  38.025   1.217
77564W        W41288   4.218  32.043  11.929
77565W        W41289  38.420  41.864   5.280
77566W        W41290  29.145  43.471   2.198
77567W        W41291  21.158  11.322  14.485
77568W        W41292   8.284  10.277   1.801
77569W        W41293  40.509   7.285  12.033
77570W        W41294  20.613  22.668  12.525
77571W        W41295  10.649  27.571  12.979
77572W        W41296  37.998  39.459   3.629
77573W        W41297  18.253   3.712   3.281
77574W        W41298  37.909   3.872  14.937
77575W        W41299  15.123  24.069  13.518
77576W        W41300  30.139  17.665  10.594
77577W        W41301  18.552  34.864  12.429
77578W        W41302   2.931  26.683  10.463
77579W        W41303  20.060  42.480  12.398
77580W        W41304  24.545   3.329   3.145
77581W        W41305   6.385  14.784  14.390
77582W        W41306  16.190  40.903  13.421
77583W        W41307  42.785   0.253  12.069
77584W        W41308  39.956   0.488   3.692
77585W        W41309  20.680   8.794   2.342
77586W        W41310  42.884  44.788  14.786
77587W        W41311   9.170  11.146  13.519
77588W        W41312  38.423   3.899  11.585
77589W        W41313  27.683  20.655  12.989
77590W        W41314  13.820   0.455  13.404
77591W        W41315  38.881  32.011  11.580
77592W        W41316  18.175   6.786   0.814
77593W        W41317  16.094  35.402  13.047
77594W        W41318  13.247  34.940  14.317
77595W        W41319  23.097  27.093  10.948
77596W        W41320  14.684   1.887  13.989
77597W        W41321  15.800   1.307   3.304
77598W        W41322  20.034  32.047   3.670
77599W        W41323  13.105  37.347  14.987
77600W        W41324   7.835   1.329   2.878
77601W        W41325  35.076  37.869  13.311
77602W        W41326  18.212  23.096  13.027
77603W        W41327  17.099  29.985  12.048
77604W        W41328  31.585  39.921   4.749
77605W        W41329  11.721  37.078   3.804
77606W        W41330  41.326  42.952   2.733
77607W        W41331  25.098  42.839   4.292
77608W        W41332  43.980   8.839   1.238
77609W        W41333  39.852  23.511  13.400
77610W        W41334  18.606   3.952  12.457
77611W        W41335  38.884   0.925  13.811
77612W        W41336  32.486  38.538  11.889
77613W        W41337   8.397   5.931   3.384
77614W        W41338  16.780  12.732  13.886
77615W        W41339  15.763  20.612   4.806
77616W        W41340  19.065  19.235   1.745
77617W        W41341  41.809  29.131   1.400
77618W        W41342  43.013  16.290  14.361
77619W        W41343  16.094   5.693  12.538
77620W        W41344   1.441  36.564   3.244
77621W        W41345  36.982  14.149  11.060
77622W        W41346  16.789   6.731  10.918
77623W        W41347  33.572  27.505  14.993
77624W        W41348  42.003  33.063  10.079
77625W        W41349  37.416  10.847   3.854
77626W        W41350  37.425  37.925   4.231
77627W        W41351   7.261  42.963   2.751
77628W        W41352  10.772   2.252  11.932
77629W        W41353  36.475  42.353  13.836
77630W        W41354   1.374  29.604   3.207
77631W        W41355  21.188   9.283   3.296
77632W        W41356  16.288   2.284   1.345
77633W        W41357  15.104  41.378  14.781
77634W        W41358  24.698   5.781  12.956
77635W        W41359  13.265   5.764   2.801
77636W        W41360   5.756   6.691  13.466
77637W        W41361  35.366   2.461   4.808
77638W        W41362  33.955  35.454  10.516
77639W        W41363  29.443  18.136  14.774
77640W        W41364   5.823  32.114  10.132
77641W        W41365  15.085   1.473   2.816
77642W        W41366  29.575  25.119   0.799
77643W        W41367  30.546  40.832   2.768
77644W        W41368  10.233  34.079   3.661
77645W        W41369   6.711   1.907   1.306
77646W        W41370   4.916  11.653   3.669
77647W        W41371  22.510  20.755  12.385
77648W        W41372  21.039  37.501   2.329
77649W        W41373   4.864   3.774  11.012
77650W        W41374  32.003  14.109  12.962
77651W        W41375  17.651  19.112   1.935
77652W        W41376  26.140   4.431   0.378
77653W        W41377   7.230  22.713   3.788
77654W        W41378  22.117  37.042  10.904
77655W        W41379  44.321  36.567   1.350
77656W        W41380  42.869  22.032   3.635
77657W        W41381  13.296   3.454   1.413
77658W        W41382   1.925  24.205   1.301
77659W        W41383   1.828  43.309   3.834
77660W        W41384  29.512  23.718  13.470
77661W        W41385   5.424  10.868   0.369
77662W        W41386  38.408  22.996   1.210
77663W        W41387  21.091  16.094  14.447
77664W        W41388  11.671  26.952  12.433
77665W        W41389   7.183  19.125   1.838
77666W        W41390  19.619  35.993   4.776
77667W        W41391  12.235  44.798   1.372
77668W        W41392   5.898  44.394  14.858
77669W        W41393  12.840  39.876  11.506
77670W        W41394  40.894   0.453   5.126
77671W        W41395  13.751  36.080  12.070
77672W        W41396  11.634  41.393   1.835
77673W        W41397  15.773  23.061   4.274
77674W        W41398  25.161  39.041  13.408
77675W        W41399  22.077  29.032   3.687
77676W        W41400   7.201  11.859   3.377
77677W        W41401  23.502  10.344   2.362
77678W        W41402  40.927   3.255  11.416
77679W        W41403   2.268  10.824  14.863
77680W        W41404  16.299  31.912   0.908
77681W        W41405  38.979  18.279   5.167
77682W        W41406  21.650  43.500  12.054
77683W        W41407  22.227   9.787  11.529
77684W        W41408  16.249  23.169   0.918
77685W        W41409  11.319  39.055  12.087
77686W        W41410   8.365  11.652  13.854
77687W        W41411  10.355  34.446  14.808
77688W        W41412  12.682  41.524  11.495
77689W        W41413  20.583  28.000   4.349
77690W        W41414  26.203  17.755  12.430
77691W        W41415  14.818  33.962   2.360
77692W        W41416  39.517   9.342   3.288
77693W        W41417  27.586  21.731   4.709
77694W        W41418  21.612  12.793  12.517
77695W        W41419  33.069  29.170  13.403
77696W        W41420   2.360  24.599  12.020
77697W        W41421  40.930  42.429  12.475
77698W        W41422  15.787  18.690  14.975
77699W        W41423   7.742  11.841   0.291
77700W        W41424  17.061  43.953   2.840
77701W        W41425  33.997  33.929   0.740
77702W        W41426  20.156   3.449  12.563
77703W        W41427   9.825  10.777  11.495
77704W        W41428   0.793  33.069  12.565
77705W        W41429  20.079  37.359  11.084
77706W        W41430  28.973  25.156   4.343
77707W        W41431  43.984  44.301  11.074
77708W        W41432  18.671  16.196  13.458
77709W        W41433  17.798  24.571   4.606
77710W        W41434  23.032  22.144  12.047
77711W        W41435  17.283  27.647   3.311
77712W        W41436  36.432  23.216  14.934
77713W        W41437  37.844  14.200   4.335
77714W        W41438  18.761  13.333  12.086
77715W        W41439  12.845  39.985   2.371
77716W        W41440   7.780  17.165   3.660
77717W        W41441  11.657  38.420  11.095
77718W        W41442   6.335  26.021  12.014
77719W        W41443   6.202  30.936   3.361
77720W        W41444  29.628  29.012  12.043
77721W        W41445  24.077  44.344   0.879
77722W        W41446  13.170   6.422   4.134
77723W        W41447  28.472  41.438  12.415
77724W        W41448  14.797  37.063  12.945
77725W        W41449  28.550  44.993  12.930
77726W        W41450   5.757  26.970  10.629
77727W        W41451   0.337  35.871   4.209
77728W        W41452   3.241  43.487  11.479
77729W        W41453  35.101  17.723   3.212
77730W        W41454  14.798  27.628   4.171
77731W        W41455  19.176  37.924   1.833
77732W        W41456   9.785  16.727   2.364
77733W        W41457   6.785   8.860  14.450
77734W        W41458  36.919  29.173   2.815
77735W        W41459  44.504   3.951  11.386
77736W        W41460  42.843  26.623  13.060
77737W        W41461   3.320  35.449   2.364
77738W        W41462  33.965   6.792  13.421
77739W        W41463   7.832  25.057  13.866
77740W        W41464  11.860   7.824  10.588
77741W        W41465  35.075  19.555  11.524
77742W        W41466  40.419  14.781   0.354
77743W        W41467  16.619  15.111   2.419
77744W        W41468  27.616   3.286   1.812
77745W        W41469  32.916  27.091   2.231
77746W        W41470  25.195   7.278  11.900
77747W        W41471  40.013  12.771  13.970
77748W        W41472  10.140  41.397  10.155
77749W        W41473  38.436  30.000   0.740
77750W        W41474  35.556  42.998   0.440
77751W        W41475   1.973   6.343   3.282
77752W        W41476   8.236   5.735  11.861
77753W        W41477  26.995  36.944  13.449
77754W        W41478  13.209  44.857  10.629
77755W        W41479  38.839   9.308   3.173
77756W        W41480  32.455  30.918   0.410
77757W        W41481  14.721  10.369   3.193
77758W        W41482   2.239  32.931  11.112
77759W        W41483  12.698  12.324  12.990
77760W        W41484   5.694   8.724   3.705
77761W        W41485  42.918  35.603  12.442
77762W        W41486  11.246  35.398  12.958
77763W        W41487  22.998  27.682   0.327
77764W        W41488   6.334  33.975  13.391
77765W        W41489  35.465  32.392   0.956
77766W        W41490  34.029  21.191  14.026
77767W        W41491  27.114   6.332   2.772
77768W        W41492  23.996  11.754   9.929
77769W        W41493   1.844  37.550  12.082
77770W        W41494  42.910  42.297  11.411
77771W        W41495  36.434  29.055   0.355
77772W        W41496  25.100  17.280  13.870
77773W        W41497  43.791  38.008   1.344
77774W        W41498  14.783   2.380   4.298
77775W        W41499  27.189  34.561  11.982
77776W        W41500  24.189  41.358   2.872
77777W        W41501   6.821  10.183  12.390
77778W        W41502  29.111  14.655   1.339
77779W        W41503  42.981   3.312   3.824
77780W        W41504  26.656  31.475   4.732
77781W        W41505  24.099  15.146   3.850
77782W        W41506  29.570   3.389   4.273
77783W        W41507  25.197   5.759   1.786
77784W        W41508  36.932  39.549   4.191
77785W        W41509   2.734  13.835   2.733
77786W        W41510  20.766  13.129  14.780
77787W        W41511  22.039  10.633  14.443
77788W        W41512  33.612  34.020  14.813
77789W        W41513   8.676  28.961   4.131
77790W        W41514  42.002   4.912  11.586
77791W        W41515  42.860  41.011  14.803
77792W        W41516   6.685  11.647   1.404
77793W        W41517   6.423  36.944   3.828
77794W        W41518  33.020  18.127   3.658
77795W        W41519  33.111  14.642   3.203
77796W        W41520  37.008  30.963  14.980
77797W        W41521  41.864  29.116  13.983
77798W        W41522  16.100   5.405   2.850
77799W        W41523  33.452  34.564   4.686
77800W        W41524   7.369  16.308  13.547
77801W        W41525  16.746  42.869   3.802
77802W        W41526  36.990   2.961   4.262
77803W        W41527  28.494   0.785  14.891
77804W        W41528  19.148  11.664  13.493
77805W        W41529  37.343   9.276   3.705
77806W        W41530  34.083   6.760   0.293
77807W        W41531  20.257   6.197   4.699
77808W        W41532  22.041  42.000   2.775
77809W        W41533   6.693  25.198  10.974
77810W        W41534  24.595  21.167   2.886
77811W        W41535  35.575  12.171  11.995
77812W        W41536  40.833   4.232   3.640
77813W        W41537  44.484  28.930   2.246
77814W        W41538  35.852   3.809   2.322
77815W        W41539  33.026  29.922  12.881
77816W        W41540  12.186  32.495   0.924
77817W        W41541  14.662   8.748   2.406
77818W        W41542   9.694  17.642  12.857
77819W        W41543  10.199  10.707   2.768
77820W        W41544  10.358   5.362   4.739
77821W        W41545   7.779  10.316   9.463
77822W        W41546  42.784  24.077   1.218
77823W        W41547  25.169  28.989   2.350
77824W        W41548  36.370  11.717   0.416
77825W        W41549  24.071  17.759  10.941
77826W        W41550  15.091  38.980  14.341
77827W        W41551  18.226  42.903   0.752
77828W        W41552  39.893  22.009   3.837
77829W        W41553  16.601  37.013   0.909
77830W        W41554  43.351  22.197   3.682
77831W        W41555  37.374  19.187  13.841
77832W        W41556  29.978  44.390  11.561
77833W        W41557  27.485  20.218  12.940
77834W        W41558  16.172   3.740   1.904
77835W        W41559  42.974  39.852  11.959
77836W        W41560  35.552   7.689  13.805
77837W        W41561  37.453  28.566  14.308
77838W        W41562   2.270  12.716   0.938
77839W        W41563  10.676  30.074   4.153
77840W        W41564  32.531  36.555   1.763
77841W        W41565  38.002   4.214   4.681
77842W        W41566  20.179  44.903  13.450
77843W        W41567  21.190   4.235   1.792
77844W        W41568  31.569   0.826  14.843
77845W        W41569   5.761  27.158   2.313
77846W        W41570  32.046  12.848  11.025
77847W        W41571  30.547  38.963  11.054
77848W        W41572  38.357  42.348   2.825
77849W        W41573  16.169   3.442   1.342
77850W        W41574   6.847   8.754   3.692
77851W        W41575  28.042   5.894  14.460
77852W        W41576  27.047   0.812   0.772
77853W        W41577  11.691   6.254   0.929
77854W        W41578  17.296  23.069  11.495
77855W        W41579  24.231  24.024  14.032
77856W        W41580  21.231  42.500   1.440
77857W        W41581  21.595  18.081   0.301
77858W        W41582  29.629  15.642   1.334
77859W        W41583  16.176  29.928  14.827
77860W        W41584  23.536  21.254  11.503
77861W        W41585  17.178   4.706   1.715
77862W        W41586   1.312  42.519  12.830
77863W        W41587   1.454   5.284  10.938
77864W        W41588  35.999  42.426   0.920
77865W        W41589  39.005  34.522   3.858
77866W        W41590  25.501   1.836   0.820
77867W        W41591  14.811  23.187   0.797
77868W        W41592  37.965  34.464   1.292
77869W        W41593  15.325   7.885  10.028
77870W        W41594  20.215  27.457  12.861
77871W        W41595  10.649  18.582   1.875
77872W        W41596  23.553  25.079   2.701
77873W        W41597   3.331  15.308  14.977
77874W        W41598  22.576  42.949  10.532
77875W        W41599  37.545  15.200  13.881
77876W        W41600  25.613  32.123   0.370
77877W        W41601  18.592  26.973  13.347
77878W        W41602  30.141  44.330   4.693
77879W        W41603   0.931  44.789  12.447
77880W        W41604  37.439  10.291   2.872
77881W        W41605  17.615   4.914  11.504
77882W        W41606  43.439  12.674  12.868
77883W        W41607   0.875  38.822   0.243
77884W        W41608  35.410  19.666   2.766
77885W        W41609  25.553   6.204  13.514
77886W        W41610  34.912   2.823  11.470
77887W        W41611  21.736  22.154   1.321
77888W        W41612   6.402  10.331  14.333
77889W        W41613  44.482  43.423  12.986
77890W        W41614  23.649  25.128   1.773
77891W        W41615  23.705  12.203  14.866
77892W        W41616  16.671  13.751   2.348
77893W        W41617  27.500  35.071   1.772
77894W        W41618   1.368  32.938   1.829
77895W        W41619  32.996  12.807   4.223
77896W        W41620  19.673  11.338   0.411
77897W        W41621  26.208  40.808  10.932
77898W        W41622  14.289  23.509   0.813
77899W        W41623  30.088  10.848   2.276
77900W        W41624  12.267  44.264  11.065
77901W        W41625  44.811  10.239  13.917
77902W        W41626  42.298  33.062   4.160
77903W        W41627  27.676  39.814   2.902
77904W        W41628  25.497  36.982  12.862
77905W        W41629  39.520  20.096  14.025
77906W        W41630  21.646   9.878   0.885
77907W        W41631  25.684  22.598  12.982
77908W        W41632  10.711  12.173  14.499
77909W        W41633  26.139  13.842  14.360
77910W        W41634   1.941  43.417   1.339
77911W        W41635  31.021  42.926   1.722
77912W        W41636  21.164  32.583  10.944
77913W        W41637  14.284  26.698  14.453
77914W        W41638  34.953  40.513   2.229
77915W        W41639  34.903  28.051   1.283
77916W        W41640  17.664  20.263   1.439
77917W        W41641   2.762  13.631  14.924
77918W        W41642  40.412  33.626  12.453
77919W        W41643  10.872  27.004   2.196
77920W        W41644   1.238  26.067  12.992
77921W        W41645   3.816  37.358  13.940
77922W        W41646   5.207   2.298  13.546
77923W        W41647  26.685   6.713   4.688
77924W        W41648  42.375  27.075  12.880
77925W        W41649  14.645  23.040  14.386
77926W        W41650  25.060  43.922   3.336
77927W        W41651  10.261  37.035   4.189
77928W        W41652  15.328  29.114  12.395
77929W        W41653  25.558  15.760   4.773
77930W        W41654  16.230  22.598   1.226
77931W        W41655  22.212  19.712  12.826
77932W        W41656  36.442   8.311  13.874
77933W        W41657   6.336  37.345   4.264
77934W        W41658  27.053  35.555   1.885
77935W        W41659  15.187  12.779   2.357
77936W        W41660  25.186  32.542  11.537
77937W        W41661   9.378  38.902   4.772
77938W        W41662  35.906  21.160  11.088
77939W        W41663  24.215  37.445  10.579
77940W        W41664  26.012   6.858   2.737
77941W        W41665  23.613  11.335   1.766
77942W        W41666   4.424   8.340   0.274
77943W        W41667   3.369   2.300  14.799
77944W        W41668  44.814  41.876  13.001
77945W        W41669   8.748   2.795  14.784
77946W        W41670  22.506  24.565  10.421
77947W        W41671   0.260  29.116   2.179
77948W        W41672  18.705  27.185   3.831
77949W        W41673  31.545  27.945   3.374
77950W        W41674   7.761  30.097   1.717
77951W        W41675  36.475   7.372   4.704
77952W        W41676   8.186  28.943  13.418
77953W        W41677  39.347  41.371  12.499
77954W        W41678  44.361  21.065  13.001
77955W        W41679   6.831   5.345   4.352
77956W        W41680  15.635   8.674  13.801
77957W        W41681  42.406  28.631   1.434
77958W        W41682  22.055  20.225   2.663
77959W        W41683  27.688  35.538   2.324
77960W        W41684  10.146   8.745  13.017
77961W        W41685   9.882   9.328  10.976
77962W        W41686  41.904   4.343  14.909
77963W        W41687   1.960  20.201  14.451
77964W        W41688  19.769  13.221  14.499
77965W        W41689   0.798  13.618   3.224
77966W        W41690  28.095  31.013   0.789
77967W        W41691  32.616  39.328  11.432
77968W        W41692  30.968  16.606  14.452
77969W        W41693  24.217  14.103   4.737
77970W        W41694  23.151  19.165  11.983
77971W        W41695  27.577  32.399  11.041
77972W        W41696   2.227  43.506   3.174
77973W        W41697  15.666  35.598  10.526
77974W        W41698  29.955  39.834   0.354
77975W        W41699   3.877  39.406  12.937
77976W        W41700   8.843  12.742  10.407
77977W        W41701  41.851  29.482  12.566
77978W        W41702  15.679  27.668  13.897
77979W        W41703  20.592   7.355  11.888
77980W        W41704  19.201  17.727  13.046
77981W        W41705  28.178   3.774  11.101
77982W        W41706   3.783   9.781   4.292
77983W        W41707  18.226  18.741   1.243
77984W        W41708  19.175  10.798  10.611
77985W        W41709  32.559  29.987   2.296
77986W        W41710   4.844  38.862  12.902
77987W        W41711  41.022  26.974  12.990
77988W        W41712  30.944  38.515  13.423
77989W        W41713  40.365  38.877   0.932
77990W        W41714  26.015  20.715   1.755
77991W        W41715   8.294  28.506  14.990
77992W        W41716  33.087  32.462   2.806
77993W        W41717  44.501   1.840   2.854
77994W        W41718  29.170  19.533  11.049
77995W        W41719  16.572  24.190  13.968
77996W        W41720   4.422   6.380   0.754
77997W        W41721  39.374  19.533   0.920
77998W        W41722  41.358  10.852  11.915
77999W        W41723  40.350  37.855  14.464
78000W        W41724  12.696  24.645   0.873
78001W        W41725  41.372  37.035   1.729
78002W        W41726  39.842  13.788   4.276
78003W        W41727  28.650  38.404  14.300
78004W        W41728  11.763  40.802  11.105
78005W        W41729   7.396  12.719   5.107
78006W        W41730  34.073  35.941   0.928
78007W        W41731  41.378  42.373   0.281
78008W        W41732  43.376   7.372   1.386
78009W        W41733   4.722  25.702  14.981
78010W        W41734  30.922  21.697   3.690
78011W        W41735  40.804  28.182  14.478
78012W        W41736  19.237  33.446  11.106
78013W        W41737  33.481   5.337   0.311
78014W        W41738  38.867  12.281   3.382
78015W        W41739  21.631  10.750   2.237
78016W        W41740   2.896   7.362  10.532
78017W        W41741   6.381  28.097  12.476
78018W        W41742  24.221  40.967  12.505
78019W        W41743   1.396   3.864   0.944
78020W        W41744  32.086  36.474  10.542
78021W        W41745  39.021  11.347   4.633
78022W        W41746  13.291  35.557   3.371
78023W        W41747  29.545  13.720  11.599
78024W        W41748  23.591  28.003  12.343
78025W        W41749  19.193  28.025   1.762
78026W        W41750   8.774   7.855   5.150
78027W        W41751   0.345  19.777   1.924
78028W        W41752  39.820  32.409  13.811
78029W        W41753  41.523  36.422   3.707
78030W        W41754  26.543   6.744  13.347
78031W        W41755  40.862   7.903  13.352
78032W        W41756  35.483  21.696   1.870
78033W        W41757  14.668  41.029  14.031
78034W        W41758   4.771  38.486  13.381
78035W        W41759  24.617  18.558   0.400
78036W        W41760  19.059  24.704   3.369
78037W        W41761  34.480  24.016   1.211
78038W        W41762  30.948  21.234   1.356
78039W        W41763  21.199  31.453  14.978
78040W        W41764   5.772   4.246   3.314
78041W        W41765  15.822  30.542  11.455
78042W        W41766  36.921  36.853  14.767
78043W        W41767   3.452  27.479  10.937
78044W        W41768  15.641  34.509   4.680
78045W        W41769   2.907  33.603  13.795
78046W        W41770  39.385  19.619  13.378
78047W        W41771   3.950   4.432   1.295
78048W        W41772   3.835   4.934  10.506
78049W        W41773   4.715  32.607   1.904
78050W        W41774  12.796  35.570   4.263
78051W        W41775  18.618  26.965  11.539
78052W        W41776  26.486  32.596  14.990
78053W        W41777  39.040  44.755   4.608
78054W        W41778  26.524   7.715   4.316
78055W        W41779   3.432  26.050   1.733
78056W        W41780  28.028  36.569  13.051
78057W        W41781  40.908  41.869  13.855
78058W        W41782  34.497  44.987  10.521
78059W        W41783   3.830  36.060   2.760
78060W        W41784   8.230   0.866  13.381
78061W        W41785  34.944  42.346   4.217
78062W        W41786   7.779  19.643  14.402
78063W        W41787  17.158  24.493  12.894
78064W        W41788  38.555   4.941  14.476
78065W        W41789  34.964  18.710  11.002
78066W        W41790  31.600  27.040  12.892
78067W        W41791  16.288  37.400   5.181
78068W        W41792   5.737  19.581   1.934
78069W        W41793  18.654   6.829  12.346
78070W        W41794  23.497   6.680   2.394
78071W        W41795  13.194  41.303   0.436
78072W        W41796  38.068  16.261  12.094
78073W        W41797  19.202  14.790  12.340
78074W        W41798  34.497  24.121   0.805
78075W        W41799  20.046   7.183  13.479
78076W        W41800  16.120  11.855  13.940
78077W        W41801  37.886  20.555   1.304
78078W        W41802   4.902  16.164  13.892
78079W        W41803  14.216  32.007   4.193
78080W        W41804  11.354  42.809   2.293
78081W        W41805   9.291  21.047  14.337
78082W        W41806  28.598  14.229  10.594
78083W        W41807  33.101  23.989  13.854
78084W        W41808  23.219  12.662   3.748
78085W        W41809  38.558  25.143  14.801
78086W        W41810  19.596   4.251  14.967
78087W        W41811  11.643  13.140   2.282
78088W        W41812  12.654  20.121   2.312
78089W        W41813  30.419   1.355   4.710
78090W        W41814  30.469  14.123   4.321
78091W        W41815   1.337  10.757   1.265
78092W        W41816  31.911  36.569   2.267
78093W        W41817  17.271   5.719   4.774
78094W        W41818  22.141   8.197   0.361
78095W        W41819   0.817   0.250  12.088
78096W        W41820  44.902   6.913   2.867
78097W        W41821  16.213  41.020   1.831
78098W        W41822  31.109  24.144   3.240
78099W        W41823  24.219   7.184   3.820
78100W        W41824   6.213  23.125   0.879
78101W        W41825  40.545   8.900   1.373
78102W        W41826  36.875  41.353  12.437
78103W        W41827   7.777   5.758   1.360
78104W        W41828   3.244  26.025  12.519
78105W        W41829  40.402  21.545   2.181
78106W        W41830  28.969   8.832  11.055
78107W        W41831  25.599  12.346   0.414
78108W        W41832  25.714  42.385  14.380
78109W        W41833  41.797  42.906   5.658
78110W        W41834  38.897  30.101   1.706
78111W        W41835  43.892  30.120   2.823
78112W        W41836  16.741   9.835  12.947
78113W        W41837  41.457  41.404  13.473
78114W        W41838  18.705   9.210  10.615
78115W        W41839  32.984  33.601   3.149
78116W        W41840   4.373  21.067  11.865
78117W        W41841  22.169   4.904   2.388
78118W        W41842  25.681  15.698  12.424
78119W        W41843  33.506  14.722   3.850
78120W        W41844  16.192  17.795   3.745
78121W        W41845  16.708  26.668  13.839
78122W        W41846  23.734   8.707   0.905
78123W        W41847  30.466  28.531   1.299
78124W        W41848   0.491  17.576   3.866
78125W        W41849  43.502  40.386   0.748
78126W        W41850  24.576  31.965   1.366
78127W        W41851  44.806  40.390   0.324
78128W        W41852  16.569   4.702  14.030
78129W        W41853  39.038  42.858   2.800
78130W        W41854   8.775  44.772   1.377
78131W        W41855   4.379  41.852   2.212
78132W        W41856   1.851   2.313   0.943
78133W        W41857  19.768   6.228  13.321
78134W        W41858  12.764  43.322   3.205
78135W        W41859  10.348  33.071   3.689
78136W        W41860  28.072   8.751   0.755
78137W        W41861  39.483  11.148  11.985
78138W        W41862  10.206  18.251  14.364
78139W        W41863  42.783   3.896  12.093
78140W        W41864  32.019  18.685   4.273
78141W        W41865  19.748  43.852  11.481
78142W        W41866  41.502  39.540  12.889
78143W        W41867  29.133  27.031   4.755
78144W        W41868  44.489  37.450   1.428
78145W        W41869  43.358  41.973  11.070
78146W        W41870  25.105  17.697   4.838
78147W        W41871  28.940  42.346   3.830
78148W        W41872  26.148  22.708  14.342
78149W        W41873  36.561   9.775  10.974
78150W        W41874  23.213  29.133   2.359
78151W        W41875   8.365   3.301   3.164
78152W        W41876  37.049  12.613  12.504
78153W        W41877  37.480  32.492  10.919
78154W        W41878  34.035   4.704   0.753
78155W        W41879   7.873  27.617   3.173
78156W        W41880  31.997   6.703   2.242
78157W        W41881  38.968  25.117  13.499
78158W        W41882  42.403  28.015   3.318
78159W        W41883  21.029  33.615  13.900
78160W        W41884  35.024  14.767  12.453
78161W        W41885  44.436  17.273  14.842
78162W        W41886  18.172   6.767  13.055
78163W        W41887  25.967   9.167  11.525
78164W        W41888  34.419  20.143  12.891
78165W        W41889   1.840  39.021   0.844
78166W        W41890  17.644  30.996  14.895
78167W        W41891  25.539  32.059   3.202
78168W        W41892  10.241  13.839  12.461
78169W        W41893   6.392  16.235   0.903
78170W        W41894   0.467   7.237   0.474
78171W        W41895  26.581  18.732   3.227
78172W        W41896  14.140  44.314  13.457
78173W        W41897  15.589  24.592   1.237
78174W        W41898  15.621  36.852  13.312
78175W        W41899  26.637  38.841   9.996
78176W        W41900   8.759  42.903  11.890
78177W        W41901  24.679  32.561  14.871
78178W        W41902  43.941  42.400   4.341
78179W        W41903  17.731   6.923  13.447
78180W        W41904  23.705  19.150   2.330
78181W        W41905   3.330  17.279   4.799
78182W        W41906  16.183  17.074   0.392
78183W        W41907  24.609   5.873  14.790
78184W        W41908  42.912   0.276  13.975
78185W        W41909  37.339   4.204   4.277
78186W        W41910   7.835  10.644  14.380
78187W        W41911  14.799   6.703   5.160
78188W        W41912   0.348  16.186  10.531
78189W        W41913  39.028  29.028   1.374
78190W        W41914  38.069  27.457   3.285
78191W        W41915  42.367   9.839   3.846
78192W        W41916  16.646   7.763   9.493
78193W        W41917  28.941  17.583   3.780
78194W        W41918  12.203  34.089   0.278
78195W        W41919   1.474  33.085  12.919
78196W        W41920  23.551  40.355  11.864
78197W        W41921   6.224   7.382  13.433
78198W        W41922   1.769  22.508   3.843
78199W        W41923  38.864  18.195  13.484
78200W        W41924  37.074  28.062   3.788
78201W        W41925  10.365  26.172  10.423
78202W        W41926  31.530  38.349  12.905
78203W        W41927  32.558  21.143  14.763
78204W        W41928  27.455  29.576   0.899
78205W        W41929  34.554  18.572  13.927
78206W        W41930  11.188  21.697  14.906
78207W        W41931  21.646  24.697   1.348
78208W        W41932  12.257   5.246  11.945
78209W        W41933   7.304  44.823  12.409
78210W        W41934  44.973   3.810   2.370
78211W        W41935  12.809  39.558  14.464
78212W        W41936  13.691  19.657  14.767
78213W        W41937  39.533  29.014  11.124
78214W        W41938  17.140   4.419  13.886
78215W        W41939   6.759  15.824   0.286
78216W        W41940  35.585   8.700   4.730
78217W        W41941  29.471  39.534   4.816
78218W        W41942   5.208  18.720  13.040
78219W        W41943  11.679  35.866  13.483
78220W        W41944  26.954  44.404   4.174
78221W        W41945  22.180  21.232   3.226
78222W        W41946  14.718   3.923  11.123
78223W        W41947   4.385   1.953  14.498
78224W        W41948  21.674   9.381  13.545
78225W        W41949  26.173   7.785   3.724
78226W        W41950  43.850  35.887   0.772
78227W        W41951  20.552  17.171   1.703
78228W        W41952  39.970  12.682  10.951
78229W        W41953  19.129   4.280  13.451
78230W        W41954   3.292  27.573   0.916
78231W        W41955   7.670  42.487  10.569
78232W        W41956  10.176  40.837  14.438
78233W        W41957  40.874   6.374   3.253
78234W        W41958  36.422  42.017  11.918
78235W        W41959   0.379   5.862   0.850
78236W        W41960  17.575  43.419  14.761
78237W        W41961  42.309  15.736  13.010
78238W        W41962  34.891  32.418   3.633
78239W        W41963  30.441  23.186  10.530
78240W        W41964  23.169  30.994  14.404
78241W        W41965  24.178  27.642  12.517
78242W        W41966  24.085  13.179  13.869
78243W        W41967   6.747   3.454  12.912
78244W        W41968  14.788  34.102  14.911
78245W        W41969  26.142   9.184   1.258
78246W        W41970  12.794  12.325  12.478
78247W        W41971  15.144  36.022  11.959
78248W        W41972  12.210   5.790  13.825
78249W        W41973  26.548   0.759   0.871
78250W        W41974  38.352   3.730   1.296
78251W        W41975  31.965  40.358   4.777
78252W        W41976  33.586  12.645   5.321
78253W        W41977   0.919  29.064  13.815
78254W        W41978  10.253   7.699   4.120
78255W        W41979   7.772   5.409   3.387
78256W        W41980   0.873  10.359   0.280
78257W        W41981  32.091  37.908   5.123
78258W        W41982  36.483  43.379   4.190
78259W        W41983  27.009  33.006   0.956
78260W        W41984  27.668  22.251  12.050
78261W        W41985  25.547  20.145   1.694
78262W        W41986  43.335  13.109  10.519
78263W        W41987   0.462  39.940  13.392
78264W        W41988  24.521  32.459  10.969
78265W        W41989   9.248  18.092   2.193
78266W        W41990   9.370   5.220   4.275
78267W        W41991  26.577   9.330   1.846
78268W        W41992  23.527  19.703  14.032
78269W        W41993  43.337   6.312  10.598
78270W        W41994  13.268  38.014  10.504
78271W        W41995  34.388  18.719   0.916
78272W        W41996  33.549  39.851   0.726
78273W        W41997   5.205  26.985   2.331
78274W        W41998   8.338  37.489   4.711
78275W        W41999  38.874  34.106   1.726
78276W        W42000  43.828  15.230   1.445
78277W        W42001  36.848  27.553   3.293
78278W        W42002  19.267  20.274  13.017
78279W        W42003  28.957  18.190   2.731
78280W        W42004  29.619   3.897   0.853
78281W        W42005  21.059  44.459  11.108
78282W        W42006  32.459   3.762   0.325
78283W        W42007  23.093  33.487   2.374
78284W        W42008  13.644   1.368   1.404
78285W        W42009  37.901  13.279  11.939
78286W        W42010  44.845  21.115  10.968
78287W        W42011   2.320   3.285  13.407
78288W        W42012  31.964  35.360  13.063
78289W        W42013  30.022  24.150   4.718
78290W        W42014  36.938  33.084  14.027
78291W        W42015  27.144  26.028   4.273
78292W        W42016   5.282   3.275  14.281
78293W        W42017  15.279   7.769  12.398
78294W        W42018  21.068  27.478  13.856
78295W        W42019  11.267  37.837  14.800
78296W        W42020  22.175  34.117   1.268
78297W        W42021   8.370  23.609   1.378
78298W        W42022   9.395  27.653  14.493
78299W        W42023  16.668  39.903   1.727
78300W        W42024  32.132   3.376   3.683
78301W        W42025  28.949  15.323   1.901
78302W        W42026  42.011  18.057  14.353
78303W        W42027  38.941  44.436   1.307
78304W        W42028  26.586  34.419  13.339
78305W        W42029  21.735  20.205   3.157
78306W        W42030  39.426   3.891   2.203
78307W        W42031   5.244   8.841   3.191
78308W        W42032  44.968  27.994  10.034
78309W        W42033   5.753  25.604   3.385
78310W        W42034   7.403  12.215  14.855
78311W        W42035  10.351   6.272  12.853
78312W        W42036  29.017  37.408   4.215
78313W        W42037  27.056  13.639   2.286
78314W        W42038  26.472  25.510  14.973
78315W        W42039  40.398  12.345   3.224
78316W        W42040  15.273  26.093   4.696
78317W        W42041   9.796  10.198   2.745
78318W        W42042  14.754  20.143  11.442
78319W        W42043  24.030  18.053  10.117
78320W        W42044  37.933   1.274   1.437
78321W        W42045  20.211  17.295   9.470
78322W        W42046  28.531  27.488   3.229
78323W        W42047  24.702   1.243   2.319
78324W        W42048   9.244   2.752  13.941
78325W        W42049   9.172  24.531   4.344
78326W        W42050  39.938  10.224  12.070
78327W        W42051  42.947  26.036  14.934
78328W        W42052   6.360   0.426  11.069
78329W        W42053  34.040  28.027   3.847
78330W        W42054  41.907  21.740  13.954
78331W        W42055  30.123  44.778  11.861
78332W        W42056  17.738  31.571   2.238
78333W        W42057  24.650  38.358  10.068
78334W        W42058  37.546  21.545   4.820
78335W        W42059  23.669  34.559  13.007
78336W        W42060  22.620  42.498   4.226
78337W        W42061   7.411  28.105  12.447
78338W        W42062   6.800  34.531   2.339
78339W        W42063  28.125  44.356   1.771
78340W        W42064  26.028  39.939  14.283
78341W        W42065  27.979  13.304  12.447
78342W        W42066  28.056  29.151   0.913
78343W        W42067  17.738  11.165  11.398
78344W        W42068  15.730  16.770  12.490
78345W        W42069  37.402  28.114   5.105
78346W        W42070  40.913  43.421  11.938
78347W        W42071  37.911  38.060   1.728
78348W        W42072  10.836  20.051   0.295
78349W        W42073  18.601  12.210   3.777
78350W        W42074  44.268  17.166  11.500
78351W        W42075  13.806  10.798  10.618
78352W        W42076   1.281  10.781   0.398
78353W        W42077  13.622  15.676   4.237
78354W        W42078  30.461  24.556   4.819
78355W        W42079   3.347   5.358  10.600
78356W        W42080  10.831  23.577  11.032
78357W        W42081  10.153   5.826   1.276
78358W        W42082  17.197  40.306  14.424
78359W        W42083  40.890  26.972  12.000
78360W        W42084  19.752  42.828  11.888
78361W        W42085  12.766   6.809   1.754
78362W        W42086  36.887  29.503  13.031
78363W        W42087  18.705  31.480   1.745
78364W        W42088  38.058   1.841  13.029
78365W        W42089  12.188  20.623  13.830
78366W        W42090   5.905  10.380   2.705
78367W        W42091  34.910  40.050   0.929
78368W        W42092   7.887   6.861   0.894
78369W        W42093   0.931  44.387  10.091
78370W        W42094   4.901  40.052   4.688
78371W        W42095  41.855   3.941  10.474
78372W        W42096  21.736  25.043  11.012
78373W        W42097  37.504  10.642  14.301
78374W        W42098  11.218   5.292  12.034
78375W        W42099  35.498  22.603  12.005
78376W        W42100  29.159  20.550  13.029
78377W        W42101  31.441  19.578  13.977
78378W        W42102  28.652  42.821  11.050
78379W        W42103   6.918  42.333  13.992
78380W        W42104  15.721  35.977   9.942
78381W        W42105  36.001  31.455   1.345
78382W        W42106  25.703   3.223  12.419
78383W        W42107   6.408   6.864  13.377
78384W        W42108  25.639  19.116  11.389
78385W        W42109   5.274  26.111  11.079
78386W        W42110  22.246   7.911  13.382
78387W        W42111  18.653  38.339  14.870
78388W        W42112  30.025  27.477   1.248
78389W        W42113  14.273  31.030  10.910
78390W        W42114  41.469  36.882   0.823
78391W        W42115  40.947  27.524  11.009
78392W        W42116  21.182  33.386  11.544
78393W        W42117   3.404  10.142   1.718
78394W        W42118  19.141  11.323  14.892
78395W        W42119  11.671  15.604  12.882
78396W        W42120  25.612   7.225  10.548
78397W        W42121  32.493  23.685  10.560
78398W        W42122   7.675   7.361  11.566
78399W        W42123  34.069  13.623   3.735
78400W        W42124  10.329  39.000   0.818
78401W        W42125  30.082  30.419  13.423
78402W        W42126  22.505  27.481   4.291
78403W        W42127   3.435  34.117  12.856
78404W        W42128  28.453   3.821   0.272
78405W        W42129   1.409   8.795   0.292
78406W        W42130   4.304  22.728  14.834
78407W        W42131   9.387  11.222   0.787
78408W        W42132  43.838  26.541   0.396
78409W        W42133  28.464  11.792  12.470
78410W        W42134  16.742  37.383  12.930
78411W        W42135   9.246  19.637   1.361
78412W        W42136  31.934   7.773   2.394
78413W        W42137  24.981  16.107   0.272
78414W        W42138   7.742  27.649   4.335
78415W        W42139  31.027  30.513   5.174
78416W        W42140  36.522   7.415  12.374
78417W        W42141   3.400  36.917   2.834
78418W        W42142  42.339  12.282  13.997
78419W        W42143   5.834  25.555   1.259
78420W        W42144   2.871  26.609   3.163
78421W        W42145  18.690  28.620   1.421
78422W        W42146  42.982  29.525   5.191
78423W        W42147   9.151  44.502  14.763
78424W        W42148  13.717  19.058   2.826
78425W        W42149   3.822  43.845  14.001
78426W        W42150  20.267  41.979   0.791
78427W        W42151  44.330  13.269  13.854
78428W        W42152   9.237  15.686   5.260
78429W        W42153  41.967   8.786   2.902
78430W        W42154  23.151  33.574   1.301
78431W        W42155  19.286  30.549   1.319
78432W        W42156   8.736  20.644  14.845
78433W        W42157   4.700  34.461   1.346
78434W        W42158   0.894  43.000   3.185
78435W        W42159  27.166  30.047   9.636
78436W        W42160  37.493  14.668  11.014
78437W        W42161  34.119  24.174   2.236
78438W        W42162  34.560   2.347   0.465
78439W        W42163  27.675  10.148   1.742
78440W        W42164  40.334  16.158  10.600
78441W        W42165   3.428  27.477  14.392
78442W        W42166  33.440  39.029  12.455
78443W        W42167  24.005  40.414   4.347
78444W        W42168  37.870  19.053  13.911
78445W        W42169  25.481  43.921  14.378
78446W        W42170   2.930  33.560   1.782
78447W        W42171  11.258  11.178  11.087
78448W        W42172  27.487  41.940  13.053
78449W        W42173  18.211  42.338  12.996
78450W        W42174  40.897  38.945   1.705
78451W        W42175   2.341   9.778  14.988
78452W        W42176  18.085  27.126  11.906
78453W        W42177  29.110   3.869   2.707
78454W        W42178  32.431   5.808   3.148
78455W        W42179  29.957   9.171   0.293
78456W        W42180  35.521  35.023   4.225
78457W        W42181  23.628  36.876   0.416
78458W        W42182  29.605   9.216   4.219
78459W        W42183  16.212   4.831  14.483
78460W        W42184  38.931  23.144  10.942
78461W        W42185  26.595  23.136   2.709
78462W        W42186   3.346  15.084   2.234
78463W        W42187  33.909  22.589  12.548
78464W        W42188  14.136  17.643   4.641
78465W        W42189   3.451  24.544  14.416
78466W        W42190  16.223  24.190  11.515
78467W        W42191  23.491  17.713   4.728
78468W        W42192   9.828  16.583  13.954
78469W        W42193  39.915   4.828   3.849
78470W        W42194  17.117  13.733  10.636
78471W        W42195  19.768  44.822   3.674
78472W        W42196  12.121  41.478  13.374
78473W        W42197  30.525  16.240  11.003
78474W        W42198  37.082  21.562   0.374
78475W        W42199  39.519  44.370  13.362
78476W        W42200  20.652   7.261  11.437
78477W        W42201  33.093  28.140   2.216
78478W        W42202  20.220   3.946  10.520
78479W        W42203  30.919   4.398   2.811
78480W        W42204   3.826  21.577   1.306
78481W        W42205  38.837  40.476   4.755
78482W        W42206   4.400  44.986  10.475
78483W        W42207  38.363  26.027   0.312
78484W        W42208  13.118   7.879  10.149
78485W        W42209  37.051  28.982  10.404
78486W        W42210  42.931  31.550   3.746
78487W        W42211  18.787  25.480  11.894
78488W        W42212  19.683  37.468  11.424
78489W        W42213  30.080  17.254  14.894
78490W        W42214   4.220  30.425  10.452
78491W        W42215  26.553  18.146  11.067
78492W        W42216  41.974  21.633  12.833
78493W        W42217  42.798  18.695  13.481
78494W        W42218  30.586  41.813  11.872
78495W        W42219  38.427  30.060  13.037
78496W        W42220  33.506  42.372  14.316
78497W        W42221  34.924  40.826   0.937
78498W        W42222  36.909  31.612  14.366
78499W        W42223  15.602  19.114  13.849
78500W        W42224  13.141   3.719   1.806
78501W        W42225  22.746  41.936   0.298
78502W        W42226  21.683  15.085   2.296
78503W        W42227  23.733  30.100  14.849
78504W        W42228   6.266  42.283   9.939
78505W        W42229  27.036  23.594   0.356
78506W        W42230  30.923  17.148   2.407
78507W        W42231  17.243  17.173  10.464
78508W        W42232  29.521  10.214  10.421
78509W        W42233  32.983  36.022   2.339
78510W        W42234  22.704  18.549  14.812
78511W        W42235  34.389  12.757   4.263
78512W        W42236  36.537   6.356  10.629
78513W        W42237  13.147  35.979   1.225
78514W        W42238  27.487   2.330  14.880
78515W        W42239  29.111  29.596  11.521
78516W        W42240  22.056  15.625   4.687
78517W        W42241  31.587   4.715   1.321
78518W        W42242   5.427   7.375  14.405
78519W        W42243   6.736  37.573  14.367
78520W        W42244  14.228   7.890   4.117
78521W        W42245   5.824  34.482   1.707
78522W        W42246  16.221   9.855  14.864
78523W        W42247  42.854  10.266  13.797
78524W        W42248  13.758  35.548  11.605
78525W        W42249  14.690  32.990  13.307
78526W        W42250  41.409   2.795  13.901
78527W        W42251  34.578  43.356   0.322
78528W        W42252   9.813  22.998  10.429
78529W        W42253  26.052  39.425   1.812
78530W        W42254  39.431   5.405   1.366
78531W        W42255  24.008  23.551   0.251
78532W        W42256  16.228  28.553  13.518
78533W        W42257   2.420  23.141   2.221
78534W        W42258  24.656  19.219   0.348
78535W        W42259  44.891  37.391   3.654
78536W        W42260  29.602  33.111  13.897
78537W        W42261   8.265  36.025   0.294
78538W        W42262  20.522  41.851   1.380
78539W        W42263  21.734   6.908  12.481
78540W        W42264  22.519  37.890  10.574
78541W        W42265  22.527  27.128  10.959
78542W        W42266  16.166  31.028  11.052
78543W        W42267  15.191  26.104  11.514
78544W        W42268  25.679  24.677  13.317
78545W        W42269  14.121  44.851   4.212
78546W        W42270  23.996  15.112   3.327
78547W        W42271  41.824  16.089   2.736
78548W        W42272  35.389  42.988  11.976
78549W        W42273  25.630  23.036  12.870
78550W        W42274  32.084  31.124   3.819
78551W        W42275  25.073  37.971   2.895
78552W        W42276  15.134  40.978  13.833
78553W        W42277  13.344  31.405   2.714
78554W        W42278   5.411  23.534  14.470
78555W        W42279  43.813  36.075  13.957
78556W        W42280  12.291  39.879  12.995
78557W        W42281   8.259  18.215   2.263
78558W        W42282  17.115   8.262   1.909
78559W        W42283  36.539  32.556   4.740
78560W        W42284  10.302  16.090  13.911
78561W        W42285  13.692  36.863   0.459
78562W        W42286  13.214  33.481   1.889
78563W        W42287   1.879  29.930  10.641
78564W        W42288  13.164   5.868   4.274
78565W        W42289  23.066  14.623  14.500
78566W        W42290  36.564  10.870  13.474
78567W        W42291  40.538  24.625  10.567
78568W        W42292  15.286  30.530   1.211
78569W        W42293  34.564   6.902  13.356
78570W        W42294  29.131  13.714   0.961
78571W        W42295  37.582  29.048  11.856
78572W        W42296   4.241  30.939   1.902
78573W        W42297  39.479  34.955  11.111
78574W        W42298  21.655   9.149   1.382
78575W        W42299  25.685  37.372  14.316
78576W        W42300  32.907  31.472  12.529
78577W        W42301  31.569   3.321  11.899
78578W        W42302  19.540  42.435  11.559
78579W        W42303  38.500  36.424  11.439
78580W        W42304  17.196   7.902   0.863
78581W        W42305  31.637  26.202   2.792
78582W        W42306  37.850  11.680   3.766
78583W        W42307  44.753  15.203   0.764
78584W        W42308  32.978  33.462  14.781
78585W        W42309  13.309  20.722  13.469
78586W        W42310  36.526   3.930  12.985
78587W        W42311  16.696  27.551   0.938
78588W        W42312   6.378  32.107   2.769
78589W        W42313  40.501  18.215  12.853
78590W        W42314  13.237  43.512  13.887
78591W        W42315   3.841  25.522   0.904
78592W        W42316  11.235  13.697  13.512
78593W        W42317  26.010  19.266   1.245
78594W        W42318   1.973  35.043   4.296
78595W        W42319  33.084  24.709   1.229
78596W        W42320  12.223  32.085   2.293
78597W        W42321  18.158  29.661  11.892
78598W        W42322  19.642  36.566  10.427
78599W        W42323   4.904  12.811   3.846
78600W        W42324  25.536  37.904   2.366
78601W        W42325   3.941  20.147   1.219
78602W        W42326  25.696  41.516   0.311
78603W        W42327  43.770   7.670  10.907
78604W        W42328   8.739  24.215   4.349
78605W        W42329  24.148  36.992  12.967
78606W        W42330  10.229  30.088   3.713
78607W        W42331  33.002  28.445  12.565
78608W        W42332  21.731  15.223   4.626
78609W        W42333  24.498   8.836  12.070
78610W        W42334  23.106  37.960   4.654
78611W        W42335  16.695  18.290  10.972
78612W        W42336  22.646  20.042   2.821
78613W        W42337  15.145  16.270  13.471
78614W        W42338  32.490  12.656  10.591
78615W        W42339   6.188  25.527  13.413
78616W        W42340  44.321   9.242   2.190
78617W        W42341  37.427  35.588  13.347
78618W        W42342  25.034  42.872   0.910
78619W        W42343   6.292  24.554   3.276
78620W        W42344  15.760  38.563   3.693
78621W        W42345  23.637  18.670   1.265
78622W        W42346   9.834  43.777   3.195
78623W        W42347  22.546  13.789  14.790
78624W        W42348  42.525  27.482  11.405
78625W        W42349  26.608  19.085  10.456
78626W        W42350  13.130  36.401  14.898
78627W        W42351   9.367  43.837  10.450
78628W        W42352  37.359  26.522   4.813
78629W        W42353   8.704  44.503  11.061
78630W        W42354   6.829  35.377   4.693
78631W        W42355   5.934  20.761   4.764
78632W        W42356  10.174  41.299   2.394
78633W        W42357  17.134  33.549   2.261
78634W        W42358   4.841  32.412  10.962
78635W        W42359  27.980  23.156  13.367
78636W        W42360  27.154   5.295   4.268
78637W        W42361  15.719   6.819   2.687
78638W        W42362  29.148  23.088  13.509
78639W        W42363  27.945  28.088  10.491
78640W        W42364   7.752   8.396   3.862
78641W        W42365  10.189  21.036  13.345
78642W        W42366  36.348  12.350   0.951
78643W        W42367   2.866  20.244  13.386
78644W        W42368  41.522   0.815  13.836
78645W        W42369  11.286   7.700   1.340
78646W        W42370  43.389  31.104   3.218
78647W        W42371  14.627   4.791  13.439
78648W        W42372   4.361  12.791   3.864
78649W        W42373  10.860  34.452  13.408
78650W        W42374  27.078  39.846  12.575
78651W        W42375   6.202   0.873  13.370
78652W        W42376   3.739  32.557   0.287
78653W        W42377   8.393   7.278  12.827
78654W        W42378  19.778  43.452   4.256
78655W        W42379   5.250  35.914  13.521
78656W        W42380  24.571  28.076  14.830
78657W        W42381  14.834  23.636  13.008
78658W        W42382   2.401  18.135   4.331
78659W        W42383  22.250   3.931  14.373
78660W        W42384  28.171  10.242   4.237
78661W        W42385  16.075   2.750  10.937
78662W        W42386  14.605  26.186  13.463
78663W        W42387  22.074  27.532  13.017
78664W        W42388  17.748  23.634  13.977
78665W        W42389  22.018  15.745  11.448
78666W        W42390  35.390  14.616   0.814
78667W        W42391  13.785  30.120   0.301
78668W        W42392  38.467  23.561   2.202
78669W        W42393  36.087  29.142   1.801
78670W        W42394  13.285  38.475  14.342
78671W        W42395  20.269   7.734  13.006
78672W        W42396  11.132  32.520   1.770
78673W        W42397  22.186   4.726  12.837
78674W        W42398  38.967  18.734   2.698
78675W        W42399  28.938  39.939   3.337
78676W        W42400  20.089  12.793   5.258
78677W        W42401  38.343  22.179  14.439
78678W        W42402  10.298  27.165   3.665
78679W        W42403   0.813  33.620   3.705
78680W        W42404  35.971  43.951  11.100
78681W        W42405  33.979  30.530   1.313
78682W        W42406  25.627   3.709  13.412
78683W        W42407  39.938  27.584  13.929
78684W        W42408  17.200   1.870  13.381
78685W        W42409   6.396   2.244  14.961
78686W        W42410  36.013   2.439   0.310
78687W        W42411  11.692   1.897   3.790
78688W        W42412  25.195  27.460  12.962
78689W        W42413  12.852  12.127   1.349
78690W        W42414   2.856  13.166  12.468
78691W        W42415  15.620  27.027   4.139
78692W        W42416  24.218  30.970  11.067
78693W        W42417   6.892  14.705   4.178
78694W        W42418  28.112  24.621  13.344
78695W        W42419  10.854  23.003  14.297
78696W        W42420  14.746  35.564  12.903
78697W        W42421  20.177  32.480   0.871
78698W        W42422  38.410  40.946  10.540
78699W        W42423  43.493  21.109  13.393
78700W        W42424  33.035  40.528   3.639
78701W        W42425  21.751  20.160   2.387
78702W        W42426   4.940   8.890   3.830
78703W        W42427  31.483   5.916   4.344
78704W        W42428  29.130  18.689  12.964
78705W        W42429  32.101  43.274  14.877
78706W        W42430  34.518  44.297   4.816
78707W        W42431  15.285   7.241  11.530
78708W        W42432  38.937   1.279   3.219
78709W        W42433  42.302  13.809  10.933
78710W        W42434  17.672  33.043   3.328
78711W        W42435  12.194  17.184  13.385
78712W        W42436  14.708  44.263  14.953
78713W        W42437  41.455  42.467  11.548
78714W        W42438  12.792  15.689  11.465
78715W        W42439  42.525   7.812   4.836
78716W        W42440  37.501  28.669   4.800
78717W        W42441  44.391  41.009   4.805
78718W        W42442  32.929  28.936   3.329
78719W        W42443  44.859  44.414   0.932
78720W        W42444   8.834  29.543  11.095
78721W        W42445  23.095  38.386  14.410
78722W        W42446  24.014  32.549   4.149
78723W        W42447   3.398  25.077   4.623
78724W        W42448   8.188   1.286   3.791
78725W        W42449   1.745   0.262  14.854
78726W        W42450   0.490  40.004   3.309
78727W        W42451  18.236   5.432   1.798
78728W        W42452  11.140  29.438   0.298
78729W        W42453  10.231  35.364   2.280
78730W        W42454   8.322  22.572  13.865
78731W        W42455   9.871  31.099   4.621
78732W        W42456  15.325  35.582  13.440
78733W        W42457  13.131  32.940  12.393
78734W        W42458  27.089   3.454   2.246
78735W        W42459  35.454  11.247  12.515
78736W        W42460  39.396  18.151  13.815
78737W        W42461  36.999  15.686   0.460
78738W        W42462   5.880  43.395  10.532
78739W        W42463  35.937  27.037  14.279
78740W        W42464   8.214   6.815  10.505
78741W        W42465  24.147  22.158   0.462
78742W        W42466   7.218   6.318  13.472
78743W        W42467  40.971  30.039   4.781
78744W        W42468   8.311  12.147   1.866
78745W        W42469  31.072  44.318  10.407
78746W        W42470  22.059   8.249   1.896
78747W        W42471  32.999   1.281  14.402
78748W        W42472  28.534  10.800   0.247
78749W        W42473   6.912   1.441  14.307
78750W        W42474  36.938  11.826  12.862
78751W        W42475  23.028  27.642   3.303
78752W        W42476  33.069  34.978   4.759
78753W        W42477  14.262  14.123   2.742
78754W        W42478  25.482  36.441   2.714
78755W        W42479  42.373   8.693  11.867
78756W        W42480  15.732  44.409  12.897
78757W        W42481  35.396  21.065  13.426
78758W        W42482  36.430   9.690  13.912
78759W        W42483  17.703  34.863   0.855
78760W        W42484  10.767   7.888  10.529
78761W        W42485  21.203   6.315   4.779
78762W        W42486  31.014   3.742   0.750
78763W        W42487   9.700  44.500   4.820
78764W        W42488  42.475  13.183   0.810
78765W        W42489  44.401  32.123  13.513
78766W        W42490   4.386   2.832  11.012
78767W        W42491  38.554  31.914  13.406
78768W        W42492   5.313  24.055   1.364
78769W        W42493   9.649   6.326   3.715
78770W        W42494  13.612   0.936  12.926
78771W        W42495  34.025  22.023   4.752
78772W        W42496  39.346  21.258   1.381
78773W        W42497  16.305  24.056   0.403
78774W        W42498  33.562   5.897   2.743
78775W        W42499  25.557   8.828   2.183
78776W        W42500  12.737  41.310   0.952
78777W        W42501   1.374  42.885   3.273
78778W        W42502  27.108  13.239  13.037
78779W        W42503  34.397  10.275   5.180
78780W        W42504   7.708  34.606   3.380
78781W        W42505  30.647  26.683  10.577
78782W        W42506   7.387  10.822  10.561
78783W        W42507  19.535  20.132  13.489
78784W        W42508  13.160  14.794   2.753
78785W        W42509   2.322  36.520  10.554
78786W        W42510  14.215  40.484  10.526
78787W        W42511  31.417  36.070   4.321
78788W        W42512  37.963  12.256  11.409
78789W        W42513   6.849  32.902   3.327
78790W        W42514  39.348  20.534  12.958
78791W        W42515  37.344  37.055   4.253
78792W        W42516  22.501  28.147  13.316
78793W        W42517  12.704  18.774  14.985
78794W        W42518  17.757   4.875   2.263
78795W        W42519   4.361  28.004   3.762
78796W        W42520  10.221  29.022  11.458
78797W        W42521  43.354   5.337  11.021
78798W        W42522  32.528  20.619   0.481
78799W        W42523  44.895  43.784  11.425
78800W        W42524  12.633  43.994  13.791
78801W        W42525  31.084  30.082  13.032
78802W        W42526   1.436  26.460   0.249
78803W        W42527  15.176  10.350  12.499
78804W        W42528  42.413   0.865   4.188
78805W        W42529  44.340   9.700  11.378
78806W        W42530  29.425  25.498   3.330
78807W        W42531  11.370  38.412  12.364
78808W        W42532  43.841  24.503   4.692
78809W        W42533  28.644  30.954   4.631
78810W        W42534  35.926  30.438  12.359
78811W        W42535  38.371  43.407  10.610
78812W        W42536   4.887  36.401   2.409
78813W        W42537  27.634  36.048   2.360
78814W        W42538  40.328  22.619   1.880
78815W        W42539  18.760  37.368   3.254
78816W        W42540  43.853  44.357  11.497
78817W        W42541  36.013  39.933  10.405
78818W        W42542  10.835  34.442   3.669
78819W        W42543  30.104  40.429  14.891
78820W        W42544  23.230  38.007   1.819
78821W        W42545  15.581  26.684  12.909
78822W        W42546  20.198  17.762   5.139
78823W        W42547   9.781  16.623  14.851
78824W        W42548  13.656  37.508   3.835
78825W        W42549  31.463  19.264  14.831
78826W        W42550   1.264  37.960  12.848
78827W        W42551  28.972  22.142   3.847
78828W        W42552  20.743  25.050  11.087
78829W        W42553   0.471  20.685   4.641
78830W        W42554  27.468   3.338  12.958
78831W        W42555  21.198  28.490  11.940
78832W        W42556   0.922  37.868  11.878
78833W        W42557  16.143  39.038  11.083
78834W        W42558  30.052   6.324   1.222
78835W        W42559  17.260  22.096  11.057
78836W        W42560  19.611  33.384  10.421
78837W        W42561  21.170  15.090  10.910
78838W        W42562  15.114   2.947   0.925
78839W        W42563  20.137  20.218   1.252
78840W        W42564   5.349  25.975   2.711
78841W        W42565   7.264  12.242   5.615
78842W        W42566  15.118  17.130   0.265
78843W        W42567  35.878   1.769   4.783
78844W        W42568  39.375  29.097  13.543
78845W        W42569   1.301   9.374  11.555
78846W        W42570  14.770  16.595  11.590
78847W        W42571  18.606  24.596   4.332
78848W        W42572  28.634  29.052   2.836
78849W        W42573  37.370  24.057   3.747
78850W        W42574  38.820  19.240   3.752
78851W        W42575  27.984  12.333  12.956
78852W        W42576   9.290  42.367   4.261
78853W        W42577  19.274   9.845  12.581
78854W        W42578   9.297   7.816   3.661
78855W        W42579  10.686  39.921  12.064
78856W        W42580  19.601  18.205  13.361
78857W        W42581   3.403  23.666   4.333
78858W        W42582  28.667  12.191   4.787
78859W        W42583  40.412  24.004   1.382
78860W        W42584  29.464  18.748   1.899
78861W        W42585  40.834   7.689  11.602
78862W        W42586  41.484  25.162  12.457
78863W        W42587  14.181  37.048  11.056
78864W        W42588   3.264   5.199  12.428
78865W        W42589  36.492  15.695  14.846
78866W        W42590  14.322  42.512   1.436
78867W        W42591  13.197  42.358   0.350
78868W        W42592  21.020   4.254   2.675
78869W        W42593   6.781  38.072  10.597
78870W        W42594  34.509  17.597   2.199
78871W        W42595  12.164  16.172   1.765
78872W        W42596  23.095   7.382  10.592
78873W        W42597  17.155  30.448  13.051
78874W        W42598   6.862  37.018  13.044
78875W        W42599  25.673  17.276  14.306
78876W        W42600  34.612  27.168  14.326
78877W        W42601   4.769   8.678  10.542
78878W        W42602   4.288  33.580   1.727
78879W        W42603  39.054   0.341   2.748
78880W        W42604  14.133  18.092   2.781
78881W        W42605   5.218  24.630   1.729
78882W        W42606  20.159  16.276   5.216
78883W        W42607  23.724   2.427   1.235
78884W        W42608  14.236  43.435  11.924
78885W        W42609  41.521   7.240  12.035
78886W        W42610  23.217  18.095  14.769
78887W        W42611  14.326  41.906  14.915
78888W        W42612  11.844  16.221   2.241
78889W        W42613  36.881  36.032  13.939
78890W        W42614  34.594  20.584   0.735
78891W        W42615  23.120  21.062   0.927
78892W        W42616  12.808  20.562  14.295
78893W        W42617  32.907  34.468  13.505
78894W        W42618  39.518  12.788  13.423
78895W        W42619  13.281  42.385  10.466
78896W        W42620  30.057  39.468  11.598
78897W        W42621  31.052  27.681   3.362
78898W        W42622  30.483   2.754   0.329
78899W        W42623  22.245  22.637   0.336
78900W        W42624   1.343  12.726  13.861
78901W        W42625   3.876   3.411  10.409
78902W        W42626   5.792   2.378  10.995
78903W        W42627  30.534   8.304   0.729
78904W        W42628  37.991  29.615  11.046
78905W        W42629  34.488  43.375  11.921
78906W        W42630  31.529  17.626  13.460
78907W        W42631   8.694  40.817  12.069
78908W        W42632  43.995  32.547   3.167
78909W        W42633  19.109  40.052   4.206
78910W        W42634   7.888  15.749   3.215
78911W        W42635   8.697  21.693   1.923
78912W        W42636  22.103  27.471  13.931
78913W        W42637  40.831  22.232  13.012
78914W        W42638  28.650   2.795   3.834
78915W        W42639   3.840  21.060   0.838
78916W        W42640   8.305   4.798  14.289
78917W        W42641  33.887   4.930  12.830
78918W        W42642   8.764  10.730  14.885
78919W        W42643   1.442   6.219   1.834
78920W        W42644  42.416  14.293   1.318
78921W        W42645   6.684  40.902  11.042
78922W        W42646  30.639  35.902  13.377
78923W        W42647  10.219  27.681   3.171
78924W        W42648   4.719   9.300   0.780
78925W        W42649  26.619  16.188  13.528
78926W        W42650  39.824  22.597  11.858
78927W        W42651  38.504  28.096   0.482
78928W        W42652  20.221  27.149   1.283
78929W        W42653  40.999  19.758  12.069
78930W        W42654  38.883   7.348  12.006
78931W        W42655  21.577  42.939   0.943
78932W        W42656   2.233  25.102   1.418
78933W        W42657  24.494  25.114   1.898
78934W        W42658  43.325  17.799   2.283
78935W        W42659  39.918  24.208  13.321
78936W        W42660  10.703  22.077   3.295
78937W        W42661  32.479  19.263   1.747
78938W        W42662  20.748   9.201  13.940
78939W        W42663  17.170  36.904   3.829
78940W        W42664   3.372  19.255  11.975
78941W        W42665  14.829   5.843   4.222
78942W        W42666  13.826  42.014  13.391
78943W        W42667   5.808  21.040  12.952
78944W        W42668  31.565   0.280   2.364
78945W        W42669  30.658  25.148  14.499
78946W        W42670  34.951  32.885  12.913
78947W        W42671  13.173  42.371  11.994
78948W        W42672  43.823  10.826  11.532
78949W        W42673  22.173  41.516  14.301
78950W        W42674   1.881   8.671   0.893
78951W        W42675  31.912  19.696  10.609
78952W        W42676  13.240  25.996  13.899
78953W        W42677  40.998  23.588  11.914
78954W        W42678   3.926  21.542   4.721
78955W        W42679  31.420  42.850   3.646
78956W        W42680  32.528  36.057   4.610
78957W        W42681  25.514  16.112   0.966
78958W        W42682  14.129  16.710   2.249
78959W        W42683  29.571  16.240  13.497
78960W        W42684  14.109   7.783   1.872
78961W        W42685  40.919  14.271   4.766
78962W        W42686  26.666   9.837   2.786
78963W        W42687  29.427  25.591   0.933
78964W        W42688  35.867  22.636   3.823
78965W        W42689  22.251  23.989  13.402
78966W        W42690  22.065   5.743  11.396
78967W        W42691  32.554  28.440   3.259
78968W        W42692  31.514  14.783   9.608
78969W        W42693  30.146  34.483   1.836
78970W        W42694  43.454  41.917   3.240
78971W        W42695  38.949   4.311  12.380
78972W        W42696  30.469  22.227   4.598
78973W        W42697  36.501  19.647   1.421
78974W        W42698  38.488  31.415  13.324
78975W        W42699  11.639   7.181   3.782
78976W        W42700  15.626  44.313  11.086
78977W        W42701  19.573  40.445   3.656
78978W        W42702  22.618  43.952  10.499
78979W        W42703  44.776   8.782   1.339
78980W        W42704   4.384  13.233   2.318
78981W        W42705  19.259  34.552   2.762
78982W        W42706  18.629  36.971   3.656
78983W        W42707  11.717  10.179   0.313
78984W        W42708  36.588   8.684   0.345
78985W        W42709  42.967  18.675  10.911
78986W        W42710  43.439  21.702  14.890
78987W        W42711  21.076  22.218  13.457
78988W        W42712   7.301  15.674   1.310
78989W        W42713  12.241  23.187   2.207
78990W        W42714  38.427  37.501  13.403
78991W        W42715  34.117  24.976  10.437
78992W        W42716  11.236  12.784  10.889
78993W        W42717  43.297  23.180  10.404
78994W        W42718  10.795  28.615  14.796
78995W        W42719  16.715   1.924  14.987
78996W        W42720  13.778  17.600   0.270
78997W        W42721  11.191  43.481   3.670
78998W        W42722  35.458  17.133   3.274
78999W        W42723  41.499   0.438  11.014
79000W        W42724   5.377  42.312  10.960
79001W        W42725   8.387  41.864   3.359
79002W        W42726   8.789  44.972   1.899
79003W        W42727   2.828  23.685   3.350
79004W        W42728  10.793  29.012  12.919
79005W        W42729   7.734  15.174  11.111
79006W        W42730   8.261   5.397   2.348
79007W        W42731  37.372   2.753  12.020
79008W        W42732  37.840  36.364   0.356
79009W        W42733   5.816  10.151  14.999
79010W        W42734  42.376  26.527  12.090
79011W        W42735   9.216   4.892  13.528
79012W        W42736  41.861   9.316  14.337
79013W        W42737   9.694  23.655   1.714
79014W        W42738  11.694  33.941  11.904
79015W        W42739  27.628  42.918  11.604
79016W        W42740  39.968  36.349   0.245
79017W        W42741   2.319  44.816   0.824
79018W        W42742  25.655   8.385   3.273
79019W        W42743  44.330  17.109   3.304
79020W        W42744  40.818  44.475  11.021
79021W        W42745  25.072  31.116   0.366
79022W        W42746  10.853  29.647   0.802
79023W        W42747  14.196   7.268   5.188
79024W        W42748   8.229  34.103   2.295
79025W        W42749  20.593  15.604  13.879
79026W        W42750  12.753  13.220  12.987
79027W        W42751  22.646  27.692  13.941
79028W        W42752  25.581  11.210  13.411
79029W        W42753  10.746  18.234   1.235
79030W        W42754  36.547   4.208  11.420
79031W        W42755  11.820  10.367   2.232
79032W        W42756   3.371  10.282   0.286
79033W        W42757  23.036  24.557   0.938
79034W        W42758  20.185  37.029   0.882
79035W        W42759  17.661   3.797   0.311
79036W        W42760  38.064  29.066  10.490
79037W        W42761  27.591  17.725  12.497
79038W        W42762  24.485   2.852  13.017
79039W        W42763  40.500  37.558  13.876
79040W        W42764  30.625  18.080   3.699
79041W        W42765  30.946  35.991   2.257
79042W        W42766   7.263  12.722  12.031
79043W        W42767  10.791   8.295  10.585
79044W        W42768  39.338  38.841   1.772
79045W        W42769   7.795  38.441   4.758
79046W        W42770  29.918  32.464  10.988
79047W        W42771  42.929  27.689   1.888
79048W        W42772  23.579  16.616   2.724
79049W        W42773  34.042  41.946  13.812
79050W        W42774   0.486  28.161   2.284
79051W        W42775  16.661  38.878  10.443
79052W        W42776  11.777  19.720   2.843
79053W        W42777  13.331  37.994  12.443
79054W        W42778  18.151  33.892   0.758
79055W        W42779  21.017  10.282  12.570
79056W        W42780  15.618   3.821  12.357
79057W        W42781  14.814  22.567   3.300
79058W        W42782  40.335   3.300   1.819
79059W        W42783   7.708  42.863  14.956
79060W        W42784  34.900  12.730   0.726
79061W        W42785  15.283   1.367   1.819
79062W        W42786   0.962   3.889   2.287
79063W        W42787  20.655  15.648  11.576
79064W        W42788  30.455   0.791   3.223
79065W        W42789  11.187  11.358   2.883
79066W        W42790  43.447  28.439  12.504
79067W        W42791   0.884  39.932  10.562
79068W        W42792   4.330  24.111   1.821
79069W        W42793  32.077  40.425   1.275
79070W        W42794   1.821  42.963  12.494
79071W        W42795   8.856  15.696   0.726
79072W        W42796  20.111  23.500   3.170
79073W        W42797   4.243  12.670   0.826
79074W        W42798   1.877   1.334   1.446
79075W        W42799  18.574  10.224  13.048
79076W        W42800  25.193   1.378   4.128
79077W        W42801   5.916  22.128   2.837
79078W        W42802  17.781   8.349   2.734
79079W        W42803  28.071   1.886  10.097
79080W        W42804  11.264   0.815  14.981
79081W        W42805  42.470  20.144  13.350
79082W        W42806  35.594   1.799   0.424
79083W        W42807  41.538  27.123  14.467
79084W        W42808  43.812  44.996  10.627
79085W        W42809  24.615   6.359  10.906
79086W        W42810  40.934  25.032   5.787
79087W        W42811  28.138  13.614  13.967
79088W        W42812  28.637  40.824   3.768
79089W        W42813  22.218   6.694  12.558
79090W        W42814  12.633   2.772  12.560
79091W        W42815  26.054  17.110   0.843
79092W        W42816  28.582  42.374  10.928
79093W        W42817  10.270  24.987  13.885
79094W        W42818  16.708  44.972   0.344
79095W        W42819  35.853  27.974  13.016
79096W        W42820  27.588  10.153   2.778
79097W        W42821  11.798  41.492  12.007
79098W        W42822  24.607   9.644   4.254
79099W        W42823  20.147  14.624  13.930
79100W        W42824  18.701  42.902  14.031
79101W        W42825   6.684   1.364  11.480
79102W        W42826  31.923  28.077   4.165
79103W        W42827   6.315  40.362   2.275
79104W        W42828  42.384  31.972   2.366
79105W        W42829  21.599   7.398   0.811
79106W        W42830   2.734   9.657   2.316
79107W        W42831   1.853   5.910  10.451
79108W        W42832  21.037  43.492   0.813
79109W        W42833  24.615  35.522   2.362
79110W        W42834  19.151  43.294  11.037
79111W        W42835  36.935   9.207   3.742
79112W        W42836  29.627  27.682  12.966
79113W        W42837  43.856  35.089  12.429
79114W        W42838  16.700  31.441  13.897
79115W        W42839  35.430  34.036  12.363
79116W        W42840  14.676  39.971  12.540
79117W        W42841  44.933  20.535  14.275
79118W        W42842  26.551  14.221  12.060
79119W        W42843  21.736  25.037   2.833
79120W        W42844  14.824  35.521  11.915
79121W        W42845  39.376   3.710  12.985
79122W        W42846  24.025  13.175   1.743
79123W        W42847  37.512  26.490  12.078
79124W        W42848  38.020  27.590  11.516
79125W        W42849   9.149  34.567   2.228
79126W        W42850  44.478  26.125   0.781
79127W        W42851   7.814  37.954   0.270
79128W        W42852  26.103  10.748   4.601
79129W        W42853  34.093  14.128  10.483
79130W        W42854  43.995  16.690   3.249
79131W        W42855   3.331  28.579  10.628
79132W        W42856  29.151  27.045   4.137
79133W        W42857  10.742  41.334   4.688
79134W        W42858  36.967   5.805  10.980
79135W        W42859  11.721  10.722   1.810
79136W        W42860   0.475  37.864   2.184
79137W        W42861  21.088   4.874   0.853
79138W        W42862  36.030  22.641  13.978
79139W        W42863  16.576  15.135  11.899
79140W        W42864  36.350   0.836   1.909
79141W        W42865  37.547  20.241   0.869
79142W        W42866  43.391  38.517   1.340
79143W        W42867  13.781  29.474   1.245
79144W        W42868  33.108   0.834  14.837
79145W        W42869  10.745  29.579   2.363
79146W        W42870   5.846  39.359  14.388
79147W        W42871   3.284   5.296   1.837
79148W        W42872  23.121  14.316   4.663
79149W        W42873   0.894   1.442  12.543
79150W        W42874  25.194   8.300  12.899
79151W        W42875  24.092   4.285   0.271
79152W        W42876   9.672  18.636   4.294
79153W        W42877  44.834   3.920   4.212
79154W        W42878   0.265  34.502   0.305
79155W        W42879  40.984  40.416   1.889
79156W        W42880  13.600   3.329  14.772
79157W        W42881  20.672  30.917  10.500
79158W        W42882  44.992   5.386   1.874
79159W        W42883  44.376  19.256   2.890
79160W        W42884  39.413  34.047   4.326
79161W        W42885  33.884   2.320  13.016
79162W        W42886  40.931  13.679   1.362
79163W        W42887  22.551  23.520   4.169
79164W        W42888  34.525  17.644  11.442
79165W        W42889  38.048  15.705  11.599
79166W        W42890  16.128  31.642  12.433
79167W        W42891  36.017  12.685  11.035
79168W        W42892  43.346  37.041  14.973
79169W        W42893  12.633  29.606   4.272
79170W        W42894   5.301  21.058   4.348
79171W        W42895  44.381   4.426  12.909
79172W        W42896  43.331  13.663   0.890
79173W        W42897  13.830  14.619   3.657
79174W        W42898  12.290   7.892  11.103
79175W        W42899  11.177   0.286  11.114
79176W        W42900  29.060  44.796  13.814
79177W        W42901  11.649  34.999   1.758
79178W        W42902  42.344   1.975   2.186
79179W        W42903  34.380   7.188  14.482
79180W        W42904  31.512  36.437  10.585
79181W        W42905  17.155   9.763   1.442
79182W        W42906   4.774  30.643   2.413
79183W        W42907  38.388  39.872  13.981
79184W        W42908  44.277  18.779  12.565
79185W        W42909  43.778  43.847  13.459
79186W        W42910  44.321   9.161  12.952
79187W        W42911  16.772  27.669  13.016
79188W        W42912  15.719  14.194   3.708
79189W        W42913  10.301  29.079   3.209
79190W        W42914  12.298  44.815  14.500
79191W        W42915   5.890  23.086  14.014
79192W        W42916  20.560  16.127   4.244
79193W        W42917  40.445  19.160   2.353
79194W        W42918  41.958  32.997  14.434
79195W        W42919  10.871   5.896  12.989
79196W        W42920  36.553  22.647  11.054
79197W        W42921  40.389   8.732  14.446
79198W        W42922  14.678  41.928   3.772
79199W        W42923  37.925  39.453  11.466
79200W        W42924  35.385  43.308   1.834
79201W        W42925  35.994  36.422  11.575
79202W        W42926  23.193  16.667  12.968
79203W        W42927  22.635  44.847  12.341
79204W        W42928  25.712   9.760  14.026
79205W        W42929   1.879  44.389   0.941
79206W        W42930  26.550  10.229  14.295
79207W        W42931  30.573  21.727   1.451
79208W        W42932  30.038  13.741   4.238
79209W        W42933  34.078  19.656  12.506
79210W        W42934   7.827  13.329   2.698
79211W        W42935  14.319  35.391  11.372
79212W        W42936  16.608  15.615   1.720
79213W        W42937   7.805  29.560  13.312
79214W        W42938  22.630   0.319   3.781
79215W        W42939   7.340   5.340  12.450
79216W        W42940   8.764  31.106  11.518
79217W        W42941  27.611   1.426   2.256
79218W        W42942   3.394   9.192  12.498
79219W        W42943  15.668  38.568  10.460
79220W        W42944  41.408  15.296   0.806
79221W        W42945  19.751  28.109  14.759
79222W        W42946  32.965  35.056   0.482
79223W        W42947  30.568  10.874   2.778
79224W        W42948  43.782  29.496   2.870
79225W        W42949  43.309  29.649   1.697
79226W        W42950  42.813  11.798   3.280
79227W        W42951  22.189  33.616  12.914
79228W        W42952  12.233  28.631  11.026
79229W        W42953  28.577  10.374  12.404
79230W        W42954  31.585  16.798  12.439
79231W        W42955  41.904  23.701  14.967
79232W        W42956  18.549   2.271   1.930
79233W        W42957  31.981  36.554  14.996
79234W        W42958  29.434  11.769   0.887
79235W        W42959  35.497  16.648  10.462
79236W        W42960  28.123  40.879   2.727
79237W        W42961  41.959  31.964   2.843
79238W        W42962  42.308  41.966  14.015
79239W        W42963  15.799  14.267   4.348
79240W        W42964  25.537  19.183  13.944
79241W        W42965  34.006   5.745   1.834
79242W        W42966  25.624   8.319  13.983
79243W        W42967  39.016  24.589   1.401
79244W        W42968  30.457  40.005  11.548
79245W        W42969  23.667   2.966   2.200
79246W        W42970  31.599  36.511  13.945
79247W        W42971  28.952  22.104   0.756
79248W        W42972  28.118  30.076   2.668
79249W        W42973  30.961  38.887   1.236
79250W        W42974  14.167   1.297  11.406
79251W        W42975  38.971   6.701   4.714
79252W        W42976   6.824  17.138   0.425
79253W        W42977  25.591   4.406   1.279
79254W        W42978  39.940   6.321  12.849
79255W        W42979  18.595  18.214   3.779
79256W        W42980  13.657  44.920   1.344
79257W        W42981  41.394   2.386   5.261
79258W        W42982   2.831  25.663   0.952
79259W        W42983   5.854  21.526  10.594
79260W        W42984  40.926  44.011   5.322
79261W        W42985  39.056  11.753  12.031
79262W        W42986   2.940  27.488  11.993
79263W        W42987  15.736  44.887  12.977
79264W        W42988   4.430  27.997   1.409
79265W        W42989  31.035  35.909   0.936
79266W        W42990  41.914   8.831   0.791
79267W        W42991  27.484   4.243  13.540
79268W        W42992  42.001  11.286  11.547
79269W        W42993  24.068  23.000   1.400
79270W        W42994  42.928  20.729   1.755
79271W        W42995  11.788  41.821   4.814
79272W        W42996  22.582  27.957   2.334
79273W        W42997  13.142  16.811   3.811
79274W        W42998   5.293  19.553   3.820
79275W        W42999  21.116   9.226   2.791
79276W        W43000  10.725  25.627   1.747
79277W        W43001   4.924  27.085  14.811
79278W        W43002  31.058  39.398  12.003
79279W        W43003  37.363  23.711   3.329
79280W        W43004  24.489  17.097  11.038
79281W        W43005  19.199   4.397  12.886
79282W        W43006  31.536  23.668   2.233
79283W        W43007  37.898  13.286   4.800
79284W        W43008  29.165  27.501  13.480
79285W        W43009  18.618  34.000   2.383
79286W        W43010  44.338   2.779  14.377
79287W        W43011  43.782  35.082  14.007
79288W        W43012  21.745  22.583  10.957
79289W        W43013   6.217  24.128  13.412
79290W        W43014   5.787   7.264  13.426
79291W        W43015  25.636  41.892   4.759
79292W        W43016  21.551  34.474  13.026
79293W        W43017  36.003  20.213   0.777
79294W        W43018  39.988  12.322   4.249
79295W        W43019   8.692  36.451  11.483
79296W        W43020  31.404  31.538   3.263
79297W        W43021   6.301  11.764  12.420
79298W        W43022  36.029  26.067   2.662
79299W        W43023  11.737   8.683   3.746
79300W        W43024  21.742  40.370   1.797
79301W        W43025  29.086   0.316   0.953
79302W        W43026   5.350  13.192   4.231
79303W        W43027   8.715  18.566   0.871
79304W        W43028  29.562  41.410  10.058
79305W        W43029   6.736   2.743  13.978
79306W        W43030  40.050  24.226  10.065
79307W        W43031  29.584  43.491   2.316
79308W        W43032  33.050  42.498   0.795
79309W        W43033  31.003   4.784   2.319
79310W        W43034  13.638  43.358   4.227
79311W        W43035  33.610  38.455  10.460
79312W        W43036  35.377  36.450   3.370
79313W        W43037  11.622   9.391   0.815
79314W        W43038  29.059  44.361  10.425
79315W        W43039  11.210   6.803   1.220
79316W        W43040  25.608  11.353   0.831
79317W        W43041   1.274  45.000   2.890
79318W        W43042   1.977  12.824   4.174
79319W        W43043  26.047  15.646   3.333
79320W        W43044  24.700   7.186   0.882
79321W        W43045  25.962  30.659  12.561
79322W        W43046  28.084  32.931   1.817
79323W        W43047  24.638  21.619   0.795
79324W        W43048  25.156  23.726   3.842
79325W        W43049  38.962  35.901  10.525
79326W        W43050   4.255  12.818   2.730
79327W        W43051   1.736  11.665  10.932
79328W        W43052  21.065  33.040   3.306
79329W        W43053  33.497   6.361  14.327
79330W        W43054  25.100   0.381  13.482
79331W        W43055  34.415  12.340  14.936
79332W        W43056   4.379  27.052   3.195
79333W        W43057   4.699  28.171  12.383
79334W        W43058   9.304  23.143   4.128
79335W        W43059  28.540  39.535   1.918
79336W        W43060  13.331  28.455  12.477
79337W        W43061  39.519  16.722  14.981
79338W        W43062  26.461  35.458  14.355
79339W        W43063  28.491  30.648   4.623
79340W        W43064  15.611  43.831  10.440
79341W        W43065  17.201  23.510   2.405
79342W        W43066  21.683  41.533  11.885
79343W        W43067   5.262   1.460   4.660
79344W        W43068   0.356  15.799  14.018
79345W        W43069  27.460   1.915   2.383
79346W        W43070  12.157  16.219   3.181
79347W        W43071  34.040  30.529  14.317
79348W        W43072  38.503   7.891   0.418
79349W        W43073  18.100  27.999  11.453
79350W        W43074  14.681  34.050   3.334
79351W        W43075  23.535  28.669   1.238
79352W        W43076  22.634  11.804  13.924
79353W        W43077   5.234  29.039   2.310
79354W        W43078   3.744  23.142  11.550
79355W        W43079  16.629  25.689  12.507
79356W        W43080   1.818  23.623  12.455
79357W        W43081  37.565   5.253   2.815
79358W        W43082  21.589  32.543   0.275
79359W        W43083  27.469  17.235   4.621
79360W        W43084  32.570  32.955  12.360
79361W        W43085  19.149  24.191  12.828
79362W        W43086  30.593  33.964   3.243
79363W        W43087  17.300   9.308  11.921
79364W        W43088   1.291  30.123  10.974
79365W        W43089  22.652  28.102  14.424
79366W        W43090  11.714  40.310   5.301
79367W        W43091   8.714  11.352   3.718
79368W        W43092  31.469   0.762  11.535
79369W        W43093  12.202  40.942   1.764
79370W        W43094   2.417  42.865   3.348
79371W        W43095  10.200  22.631  12.003
79372W        W43096  19.118  26.065  10.555
79373W        W43097  25.175  37.970   2.257
79374W        W43098  25.077  27.493   1.240
79375W        W43099  39.390  37.540   0.363
79376W        W43100  26.121  43.362   1.412
79377W        W43101  44.964   6.823  13.312
79378W        W43102  12.327  19.777   4.193
79379W        W43103   5.803  24.680   4.198
79380W        W43104  14.134  15.794   3.373
79381W        W43105  12.351  25.469   0.437
79382W        W43106  26.179  31.637   3.233
79383W        W43107  43.373  22.238   4.134
79384W        W43108  32.972  18.630  13.057
79385W        W43109   4.366  14.785  14.888
79386W        W43110  23.532  20.727  13.407
79387W        W43111  12.239  18.569   0.838
79388W        W43112  22.171  24.100   1.883
79389W        W43113  18.790  33.981  13.995
79390W        W43114  44.962  26.525  10.049
79391W        W43115  38.551  12.204  12.344
79392W        W43116  40.973  22.053  11.086
79393W        W43117  35.482  30.929   4.125
79394W        W43118  21.663  22.202   3.723
79395W        W43119  11.336  26.513  13.354
79396W        W43120  37.527  42.855   3.306
79397W        W43121  28.123  40.924  13.939
79398W        W43122  24.176  30.564  12.939
79399W        W43123  15.125  36.902  14.322
79400W        W43124   7.212  25.621  13.439
79401W        W43125  30.910  23.086  13.045
79402W        W43126   8.753  37.957   3.775
79403W        W43127   5.878  38.862  11.022
79404W        W43128   3.749  42.877   3.835
79405W        W43129  10.861  42.968   1.842
79406W        W43130   1.740  27.480   3.304
79407W        W43131  35.467  16.810  13.383
79408W        W43132  25.638  16.652   2.253
79409W        W43133  40.031  34.420   0.908
79410W        W43134  31.134  21.052   0.861
79411W        W43135  30.649  19.629  14.997
79412W        W43136   5.730   8.290  14.983
79413W        W43137  13.805  24.197   4.299
79414W        W43138  39.008  43.950  10.902
79415W        W43139  31.950  36.455   1.416
79416W        W43140  30.971   6.183   4.704
79417W        W43141  14.232  40.382  12.569
79418W        W43142  43.339   6.186   0.788
79419W        W43143  26.650  40.503   2.239
79420W        W43144  24.551  31.614  13.462
79421W        W43145  13.679  43.487   4.793
79422W        W43146   2.896   6.854  12.841
79423W        W43147  35.904  16.707  11.104
79424W        W43148  17.122  40.947  11.529
79425W        W43149   6.805  32.537   1.341
79426W        W43150  33.008  26.195  11.016
79427W        W43151  40.807  30.978   4.655
79428W        W43152  10.749  17.220  10.548
79429W        W43153  14.761  11.352  10.459
79430W        W43154  19.541   9.650  11.527
79431W        W43155  34.082  20.217  10.621
79432W        W43156  27.519  13.758  13.933
79433W        W43157  36.510  10.181  14.457
79434W        W43158  27.557  36.861  12.857
79435W        W43159  11.754  32.454  10.427
79436W        W43160  41.977   1.921  10.454
79437W        W43161   6.389  15.633   4.166
79438W        W43162  18.678  19.234  14.858
79439W        W43163  27.095  11.680   0.371
79440W        W43164   4.438  16.730  11.091
79441W        W43165   0.418  34.522   4.813
79442W        W43166  19.561  22.995  10.567
79443W        W43167  33.555  20.533  12.970
79444W        W43168   3.218  36.964  12.952
79445W        W43169   4.941  18.125   4.751
79446W        W43170  20.148  15.730  12.519
79447W        W43171  34.975   9.316   3.222
79448W        W43172  13.645  32.399   0.318
79449W        W43173  39.047  36.567   0.341
79450W        W43174  43.845   3.219   3.716
79451W        W43175  34.969  36.851   0.796
79452W        W43176  12.787  14.666  13.956
79453W        W43177   5.805  44.964   4.655
79454W        W43178  25.159  11.632   3.701
79455W        W43179  36.549   0.794  14.877
79456W        W43180   8.787  12.188   4.726
79457W        W43181  26.598  17.665  10.917
79458W        W43182  24.584  29.506   1.732
79459W        W43183   9.236  30.437   1.697
79460W        W43184  14.267  15.610  11.501
79461W        W43185  11.752  12.635   0.331
79462W        W43186  34.532  12.188   3.781
79463W        W43187  27.622  21.602   1.341
79464W        W43188  16.088  13.187  13.954
79465W        W43189  39.859  23.213  14.002
79466W        W43190  17.145  43.009   0.766
79467W        W43191  36.854  13.125  11.610
79468W        W43192  33.471   8.763  10.923
79469W        W43193  18.554  21.177  12.417
79470W        W43194   4.779  40.497   3.670
79471W        W43195  16.682   3.836   3.736
79472W        W43196   7.413  17.097   2.374
79473W        W43197  12.779  34.426  12.381
79474W        W43198  25.147  43.440  11.550
79475W        W43199  23.736  11.334   2.255
79476W        W43200  18.707  11.623   4.695
79477W        W43201  36.071  13.603  13.455
79478W        W43202  38.879   5.274   1.813
79479W        W43203  11.793  32.123  12.850
79480W        W43204   4.837  36.377   3.655
79481W        W43205   3.848  35.533  13.508
79482W        W43206  12.857  28.663  11.059
79483W        W43207  14.706  26.620   0.465
79484W        W43208  19.154   8.726   4.792
79485W        W43209  29.015   1.338  12.452
79486W        W43210   0.357  36.950   0.349
79487W        W43211   5.202  38.362   1.396
79488W        W43212  39.935  44.003  13.380
79489W        W43213  32.008  22.574  11.446
79490W        W43214  41.855  43.810   0.943
79491W        W43215  21.147  12.851   0.951
79492W        W43216  41.468  34.389  12.996
79493W        W43217   1.770  41.837   4.319
79494W        W43218   4.447   0.949  10.518
79495W        W43219  17.145   3.368   4.330
79496W        W43220   6.367  27.556   4.122
79497W        W43221  13.143  35.046   2.897
79498W        W43222  25.593  44.779  14.766
79499W        W43223  28.069  11.746  11.938
79500W        W43224  33.932  16.611  14.419
79501W        W43225   1.939   8.776  14.383
79502W        W43226   0.772  27.032  12.347
79503W        W43227   4.215  26.616   3.216
79504W        W43228  34.018   8.676   0.387
79505W        W43229  34.553  38.369   2.351
79506W        W43230  32.965  42.475   2.220
79507W        W43231   6.785  15.658   2.668
79508W        W43232  44.999   3.405  13.909
79509W        W43233  17.753  39.349   4.287
79510W        W43234  44.872  15.591  10.019
79511W        W43235  25.618   9.213   1.840
79512W        W43236   1.453  29.447  12.980
79513W        W43237   8.730  13.808  10.503
79514W        W43238  25.108   1.277  12.445
79515W        W43239   8.794  25.120   4.786
79516W        W43240  33.124  25.079   0.259
79517W        W43241  43.459  15.789  10.590
79518W        W43242   1.802  12.624   0.911
79519W        W43243  40.042  25.996   1.738
79520W        W43244   5.784   1.349  10.639
79521W        W43245  24.189  15.777  10.939
79522W        W43246  32.085  11.212  10.529
79523W        W43247  40.962  39.020   1.284
79524W        W43248  10.666  25.206   3.281
79525W        W43249  44.799   7.406   2.246
79526W        W43250  13.770  21.613   0.465
79527W        W43251  35.935  29.448   3.287
79528W        W43252  29.459  25.134  14.376
79529W        W43253   7.406  41.922   3.630
79530W        W43254  30.559  15.088  10.939
79531W        W43255  22.015  38.561  13.329
79532W        W43256   5.898  44.943   3.790
79533W        W43257  35.923  36.927   0.426
79534W        W43258   3.865  43.351  13.929
79535W        W43259  23.102  41.877   1.356
79536W        W43260  27.609  12.760   3.311
79537W        W43261  22.036  31.444   9.649
79538W        W43262  30.062  33.548   2.364
79539W        W43263   0.453  35.078   2.202
79540W        W43264  19.104  33.901  12.476
79541W        W43265  31.008  37.913   2.419
79542W        W43266  12.124  35.101   1.446
79543W        W43267  22.143  27.573  12.073
79544W        W43268  23.093   9.307  12.456
79545W        W43269  17.135  41.041   0.965
79546W        W43270  21.235   4.767   2.359
79547W        W43271  32.526  28.141   3.165
79548W        W43272  30.038  30.481   2.278
79549W        W43273   4.282  30.442   1.241
79550W        W43274   3.244   6.813   3.229
79551W        W43275  11.262  36.033   4.808
79552W        W43276   2.306   6.705  10.997
79553W        W43277  10.326  35.542   9.939
79554W        W43278   0.910  20.712   2.400
79555W        W43279   2.900   6.277  14.941
79556W        W43280  39.831  30.504   4.693
79557W        W43281   9.207  13.842  14.902
79558W        W43282  26.654   9.352   3.216
79559W        W43283   6.767   6.382   0.331
79560W        W43284  14.669   9.682   4.182
79561W        W43285  15.148  42.029  14.939
79562W        W43286  40.048  30.999  10.514
79563W        W43287  37.385  33.464  12.361
79564W        W43288  32.133   2.727  14.943
79565W        W43289  43.383  21.120  12.000
79566W        W43290  10.283   9.743   1.852
79567W        W43291  40.824  20.742   2.264
79568W        W43292  43.874   7.897   0.247
79569W        W43293  40.947  22.736   1.745
79570W        W43294  16.746  20.210   2.810
79571W        W43295  28.628  33.085   1.370
79572W        W43296  34.512  18.093   4.128
79573W        W43297  20.577  23.020  13.037
79574W        W43298  14.194  21.755  11.107
79575W        W43299   7.769  44.912   0.847
79576W        W43300  38.432  21.713  14.769
79577W        W43301   4.223   6.857   0.441
79578W        W43302  21.119  30.468  10.966
79579W        W43303  41.979  26.023   4.692
79580W        W43304   3.905  14.283  13.437
79581W        W43305  16.763  29.136  14.387
79582W        W43306  11.732  36.941  11.097
79583W        W43307  21.721   0.776  11.988
79584W        W43308  26.620   2.311  12.012
79585W        W43309   6.827  31.580   2.394
79586W        W43310  36.541   3.731   3.212
79587W        W43311  32.977  33.904   1.315
79588W        W43312   2.417  37.911  11.538
79589W        W43313  38.076  25.054   3.213
79590W        W43314  28.042  21.643  10.572
79591W        W43315  20.754   3.837  11.914
79592W        W43316  15.198  41.425  12.860
79593W        W43317   9.676  30.065   1.406
79594W        W43318  26.070  30.542   3.290
79595W        W43319   7.702   9.201   0.360
79596W        W43320  21.017  39.044  13.539
79597W        W43321  42.481  30.019   2.828
79598W        W43322  25.628   2.836  11.885
79599W        W43323  18.283  25.966  11.392
79600W        W43324  10.682  28.599  10.925
79601W        W43325   3.751  16.310  13.876
79602W        W43326  44.990  15.657   0.400
79603W        W43327  17.645  27.034  12.475
79604W        W43328   7.754  34.961  12.498
79605W        W43329  43.915  26.526   3.287
79606W        W43330  28.494   5.712   0.407
79607W        W43331  30.073  44.853  10.427
79608W        W43332  17.646  20.079   3.641
79609W        W43333  22.708   8.325  14.389
79610W        W43334  39.397  21.515  13.835
79611W        W43335  21.159  42.353  12.047
79612W        W43336  40.968  35.957  14.943
79613W        W43337  37.527  15.209   3.380
79614W        W43338  44.004  34.111  10.955
79615W        W43339  38.056  43.310   0.836
79616W        W43340  17.663  27.180  11.554
79617W        W43341  38.970   8.812   1.696
79618W        W43342  12.200  34.878  12.496
79619W        W43343  30.029  15.683   0.322
79620W        W43344   7.905  35.596  12.879
79621W        W43345   2.291  18.062   0.358
79622W        W43346   4.442  11.178   2.691
79623W        W43347  17.773  14.745  12.956
79624W        W43348  21.672   8.398   0.254
79625W        W43349   7.366  18.084   0.316
79626W        W43350  34.460   4.385   1.729
79627W        W43351  25.481  34.521  13.505
79628W        W43352   3.883  21.595  12.560
79629W        W43353   3.281  19.627  14.941
79630W        W43354  32.457  15.686   1.343
79631W        W43355   2.470  15.759   0.264
79632W        W43356  17.781  30.503   1.254
79633W        W43357   2.947  40.427   2.795
79634W        W43358  29.502  38.062   2.244
79635W        W43359  16.138   0.804   4.166
79636W        W43360   5.329  26.618   2.700
79637W        W43361   9.782  24.082   0.326
79638W        W43362  33.478  14.133   2.311
79639W        W43363  11.683  24.203  13.320
79640W        W43364  20.100  43.345   1.921
79641W        W43365   3.337  10.738  10.601
79642W        W43366  25.218  23.691  13.354
79643W        W43367  40.501  34.519  12.953
79644W        W43368  28.072  27.523   2.221
79645W        W43369  20.544  35.886   4.277
79646W        W43370  24.210  20.627   0.866
79647W        W43371  42.386  27.061  14.869
79648W        W43372   8.785   4.802   4.261
79649W        W43373  20.709  30.154   2.779
79650W        W43374   2.428  26.682   2.829
79651W        W43375  41.492  20.232   4.262
79652W        W43376  39.386  29.023   0.317
79653W        W43377  40.448  30.087  13.844
79654W        W43378  38.374  27.449   0.292
79655W        W43379  23.036  11.259  11.476
79656W        W43380  19.716  14.827  11.589
79657W        W43381  11.356  18.575   2.727
79658W        W43382  14.721   2.929  14.948
79659W        W43383  31.083  32.039  13.897
79660W        W43384   6.415  31.626  14.027
79661W        W43385  33.561   3.285   0.773
79662W        W43386  34.585  10.139   2.767
79663W        W43387   6.287  44.473  10.606
79664W        W43388  40.835  21.589  10.491
79665W        W43389  34.525  32.932  10.970
79666W        W43390  35.979  32.107   0.461
79667W        W43391  15.629  11.800   4.164
79668W        W43392  20.195   2.891   4.803
79669W        W43393  44.806   4.772  14.468
79670W        W43394  42.348  38.552  11.403
79671W        W43395  40.873   8.884   1.713
79672W        W43396  42.496   9.851  14.436
79673W        W43397  32.899  35.965  13.331
79674W        W43398  39.524  38.849   3.682
79675W        W43399  33.575   5.388  12.064
79676W        W43400  16.196  28.580   1.743
79677W        W43401  42.430   9.722   1.302
79678W        W43402   4.808   8.310  11.027
79679W        W43403  22.509  29.531  14.883
79680W        W43404  24.214  27.077   1.771
79681W        W43405  27.679  18.053   2.813
79682W        W43406  16.192   2.728  12.389
79683W        W43407  27.979   4.848  13.373
79684W        W43408  12.210  18.651  12.573
79685W        W43409  29.469  41.966  14.440
79686W        W43410  31.078  26.528   2.279
79687W        W43411  27.036   4.396  12.892
79688W        W43412  31.415  18.741  10.551
79689W        W43413  37.067   5.811   4.145
79690W        W43414  25.495   7.185   4.256
79691W        W43415  43.969  30.072  13.338
79692W        W43416  28.488  18.057   2.818
79693W        W43417   9.371  26.986   0.926
79694W        W43418  25.078  44.275  11.078
79695W        W43419  22.191   9.370   4.676
79696W        W43420  25.575  14.658  11.575
79697W        W43421   9.301   0.751   2.286
79698W        W43422   1.420   7.417   0.344
79699W        W43423   2.399  23.509   4.714
79700W        W43424   3.289  18.598   4.246
79701W        W43425  35.079  15.822   3.752
79702W        W43426  12.239  33.045   1.300
79703W        W43427   0.812  28.457  11.085
79704W        W43428  16.600   4.425   5.110
79705W        W43429   3.879  25.177  12.570
79706W        W43430  21.655  16.720   1.338
79707W        W43431  20.109  32.535   3.193
79708W        W43432   7.220  25.135  12.876
79709W        W43433  11.156  39.896  11.488
79710W        W43434  15.782  34.515   9.984
79711W        W43435   9.208  39.392  12.360
79712W        W43436  34.058  18.093  11.030
79713W        W43437  19.179  35.908   3.794
79714W        W43438   9.738   5.354  14.322
79715W        W43439  33.961  24.725   3.687
79716W        W43440  30.462  21.261   2.387
79717W        W43441   8.318  20.536  11.586
79718W        W43442  14.310  26.608   1.769
79719W        W43443  29.524   0.271   0.807
79720W        W43444  11.288  17.674  11.422
79721W        W43445  10.315  35.376  11.558
79722W        W43446   2.367  31.573  11.500
79723W        W43447  28.628   3.817  13.516
79724W        W43448  13.204  11.230   3.276
79725W        W43449  28.455  10.816   3.804
79726W        W43450  28.052  43.485  14.904
79727W        W43451  30.066  27.947  10.979
79728W        W43452   9.228   8.228   0.473
79729W        W43453  15.201  33.915   2.756
79730W        W43454   1.963  17.300   3.360
79731W        W43455  38.951  35.365  12.344
79732W        W43456   6.371  14.286   2.310
79733W        W43457   4.405  35.542   4.226
79734W        W43458  38.551  36.493   4.639
79735W        W43459  37.005   5.357  10.516
79736W        W43460  15.183  34.923   3.382
79737W        W43461  15.169  15.670   2.672
79738W        W43462   7.334  17.623  12.861
79739W        W43463  26.588  25.634   2.228
79740W        W43464  35.385  31.059   3.204
79741W        W43465  21.118  34.510   2.803
79742W        W43466  34.585  36.054   2.399
79743W        W43467  17.704  42.013  13.399
79744W        W43468  35.063  10.222  14.454
79745W        W43469  41.023  15.165   1.368
79746W        W43470   5.911   1.290  12.421
79747W        W43471  22.680   1.972   3.347
79748W        W43472  11.769  37.358  12.067
79749W        W43473   2.931   3.411  12.348
79750W        W43474  13.188  38.513   1.878
79751W        W43475  27.960  43.401  12.038
79752W        W43476   2.916  38.886  14.485
79753W        W43477  37.505  27.464  10.136
79754W        W43478  31.518  32.539  10.940
79755W        W43479  24.034  16.676  13.037
79756W        W43480  42.793  30.930  10.622
79757W        W43481  14.659  20.271   0.312
79758W        W43482   5.785  15.592  14.839
79759W        W43483  29.498  43.810   2.771
79760W        W43484  25.091   9.869   4.307
79761W        W43485  12.659  30.060   2.418
79762W        W43486  26.585  40.527   2.804
79763W        W43487  44.337  42.782  10.415
79764W        W43488  43.305  22.722   4.701
79765W        W43489  12.620  22.127   3.318
79766W        W43490  27.973   3.713   1.437
79767W        W43491   9.875   1.340   0.963
79768W        W43492  34.918  22.046  13.062
79769W        W43493  27.541  42.915  12.074
79770W        W43494   2.751  28.931   3.163
79771W        W43495  43.300  36.577   5.164
79772W        W43496   7.173  28.574   4.652
79773W        W43497  20.525  44.757   4.324
79774W        W43498  30.656  27.026  14.920
79775W        W43499  15.135  32.042  11.574
79776W        W43500  30.455  34.514   0.921
79777W        W43501  40.040  36.089  14.448
79778W        W43502  32.109  41.859  11.985
79779W        W43503  38.391  43.814   1.843
79780W        W43504  18.263  14.807   3.843
79781W        W43505  20.667   3.862   2.368
79782W        W43506   7.417  24.534   0.432
79783W        W43507  13.235  36.414  10.623
79784W        W43508  26.660  42.966   3.329
79785W        W43509  27.965  29.427  14.408
79786W        W43510  18.090   2.945   2.700
79787W        W43511  42.354  31.072   2.355
79788W        W43512  31.004   0.800   2.714
79789W        W43513  25.001   5.768  13.000
79790W        W43514  33.962  26.459   3.794
79791W        W43515  27.109  11.844  13.980
79792W        W43516  10.298   0.490   3.758
79793W        W43517  26.198  40.324   2.342
79794W        W43518  24.684   5.213   4.776
79795W        W43519   8.867  40.395   3.290
79796W        W43520  32.927  37.971   0.901
79797W        W43521  21.623  15.810   2.687
79798W        W43522  10.688  33.022  11.500
79799W        W43523   6.290  12.833   0.386
79800W        W43524  27.565  35.055   4.599
79801W        W43525  29.573  17.090  10.071
79802W        W43526  21.579  21.102   2.858
79803W        W43527  36.421  26.499  13.895
79804W        W43528  21.627  44.502  13.455
79805W        W43529  31.509  39.541   4.820
79806W        W43530  26.661  33.602   2.376
79807W        W43531  26.598  25.548  11.520
79808W        W43532  30.922  24.697  13.791
79809W        W43533  32.951  20.032  14.903
79810W        W43534  22.008  12.647   4.263
79811W        W43535  30.443  28.085   1.350
79812W        W43536  20.263   1.735   4.753
79813W        W43537  39.434  24.014   1.348
79814W        W43538  32.467  39.915   3.157
79815W        W43539  10.252  22.204   2.399
79816W        W43540  35.006  39.025  14.442
79817W        W43541  34.022  11.699  14.514
79818W        W43542  27.984  41.873  10.428
79819W        W43543   7.190  18.645  14.966
79820W        W43544  21.543  25.169   0.463
79821W        W43545   7.311  35.975  13.028
79822W        W43546  15.737   3.811  10.542
79823W        W43547  15.763   3.936   1.711
79824W        W43548  41.311  14.141  13.028
79825W        W43549  34.421   6.266  12.020
79826W        W43550   1.922   7.672  12.012
79827W        W43551  36.992   1.402   2.340
79828W        W43552   1.790   9.165  11.864
79829W        W43553  33.037   3.386   0.375
79830W        W43554  44.918  33.953   9.533
79831W        W43555  38.926  38.069  11.046
79832W        W43556   7.801  22.616   9.940
79833W        W43557  44.819  35.003  12.369
79834W        W43558  43.792  41.522  13.449
79835W        W43559  18.785  28.528   2.811
79836W        W43560   8.661  11.806  12.579
79837W        W43561  42.485  10.671   4.699
79838W        W43562   8.773   1.877  11.903
79839W        W43563  12.312   2.924  11.082
79840W        W43564   3.381  36.951  12.378
79841W        W43565  36.349  28.615   1.733
79842W        W43566  18.555  36.489   4.634
79843W        W43567  22.673  14.690   3.271
79844W        W43568  27.080  33.958   0.883
79845W        W43569  44.278  16.719   3.851
79846W        W43570  40.990  35.916  10.962
79847W        W43571  34.015  28.492  11.457
79848W        W43572   9.826  22.058  14.940
79849W        W43573  13.829  29.543   2.829
79850W        W43574  44.421  27.608   2.210
79851W        W43575  37.504  34.549   1.428
79852W        W43576   9.391  20.685  13.805
79853W        W43577   5.707   5.828   0.964
79854W        W43578   7.892   0.808  14.802
79855W        W43579  29.086  18.263  12.931
79856W        W43580  13.793  40.317   0.415
79857W        W43581  17.573  41.355   2.394
79858W        W43582  27.139  25.160  10.589
79859W        W43583  42.464  18.125   4.599
79860W        W43584   3.298  35.496   2.667
79861W        W43585   0.778  35.065   4.269
79862W        W43586  40.321  35.555  11.127
79863W        W43587  22.585   4.310  11.125
79864W        W43588  19.663  39.911  10.960
79865W        W43589  31.013  17.174  10.567
79866W        W43590  32.491  17.745  12.472
79867W        W43591  12.846  37.500   1.799
79868W        W43592  38.892  21.747  14.883
79869W        W43593  19.534  19.109  13.896
79870W        W43594  37.902  15.221  12.495
79871W        W43595   5.793  30.918  13.354
79872W        W43596   5.773   8.662  13.033
79873W        W43597  44.319   4.742   2.323
79874W        W43598  14.118  17.227   4.164
79875W        W43599   7.314  20.569   0.792
79876W        W43600  34.926  26.535   0.246
79877W        W43601  39.484   1.443  13.834
79878W        W43602  25.055  11.769  13.362
79879W        W43603   5.931  25.974   1.359
79880W        W43604   9.660  27.681   0.468
79881W        W43605  24.530  30.030   2.403
79882W        W43606   6.419  12.746  13.510
79883W        W43607  23.004  20.674   2.200
79884W        W43608  28.038  23.514  14.410
79885W        W43609   4.242  37.366   1.245
79886W        W43610  39.559  33.996   4.759
79887W        W43611   7.277  11.682  12.919
79888W        W43612  17.231   0.789   3.748
79889W        W43613  13.150  10.711   0.343
79890W        W43614  28.963  24.671   1.427
79891W        W43615  26.606   2.375  12.915
79892W        W43616  36.352   6.851  10.622
79893W        W43617   5.856  37.517  14.455
79894W        W43618  20.263  30.544   5.129
79895W        W43619  39.922  36.454  14.819
79896W        W43620   1.449  33.016  14.323
79897W        W43621  26.498  28.930  10.042
79898W        W43622  32.900   8.845   1.719
79899W        W43623  29.923  31.036  12.341
79900W        W43624  18.734   5.777  11.561
79901W        W43625  18.132  39.871  11.113
79902W        W43626  17.238  41.334  10.524
79903W        W43627  44.379  33.080  14.912
79904W        W43628  19.536  38.497   2.825
79905W        W43629  33.978  27.647  12.451
79906W        W43630  18.766   9.833  12.086
79907W        W43631   5.202  44.830   0.768
79908W        W43632  21.588   8.789  10.501
79909W        W43633  11.329  39.866   3.747
79910W        W43634  17.213  28.447   1.257
79911W        W43635  16.249  32.490  10.567
79912W        W43636  36.586   1.959   2.767
79913W        W43637  42.789  15.261   0.908
79914W        W43638   1.746  28.552   0.454
79915W        W43639  25.639  17.678  12.388
79916W        W43640  13.266   7.681   4.778
79917W        W43641  44.845  30.066   4.672
79918W        W43642  41.461  41.871   9.551
79919W        W43643  35.368   7.401   4.728
79920W        W43644  35.460  44.970  12.419
79921W        W43645  39.420  33.898  12.997
79922W        W43646  37.914  39.519  12.998
79923W        W43647   3.265  41.343  12.446
79924W        W43648  21.756  36.449   1.322
79925W        W43649  31.557  10.682   1.291
79926W        W43650  34.955  42.808  13.455
79927W        W43651  13.173  17.281  10.580
79928W        W43652  33.008  31.901   2.864
79929W        W43653  22.221  34.591   2.192
79930W        W43654  31.506   4.812  11.030
79931W        W43655  32.411  18.621   0.412
79932W        W43656  27.992  27.070   2.842
79933W        W43657   1.469  16.800   0.918
79934W        W43658  41.400  29.569  14.997
79935W        W43659  13.187  26.163  11.455
79936W        W43660  17.245  27.045  12.454
79937W        W43661  39.548  42.336  12.849
79938W        W43662  44.003  18.092   1.283
79939W        W43663  16.674  12.663   4.706
79940W        W43664  29.474   9.220  14.003
79941W        W43665  11.206   0.298   2.894
79942W        W43666  27.624  11.636   4.217
79943W        W43667  22.741  24.197  13.836
79944W        W43668   2.823  25.690   0.260
79945W        W43669  23.713  28.525  12.046
79946W        W43670   4.853  35.055  14.926
79947W        W43671  32.447  16.114  14.333
79948W        W43672  17.068  23.494  10.629
79949W        W43673  44.769   8.698  11.537
79950W        W43674  23.148   2.961  11.936
79951W        W43675  24.676  35.574  11.096
79952W        W43676  25.007   0.251   2.337
79953W        W43677  11.748  20.661   1.710
79954W        W43678  21.559   1.841   2.361
79955W        W43679  38.503   4.781  11.438
79956W        W43680  36.469   3.258  10.404
79957W        W43681  10.656  30.501  11.015
79958W        W43682  17.769   0.910  10.943
79959W        W43683  29.490   0.446   4.262
79960W        W43684  29.459  14.609   2.847
79961W        W43685  30.539   6.799  10.576
79962W        W43686  28.443  37.473   4.649
79963W        W43687  10.794  24.502  11.125
79964W        W43688   9.753   6.343   1.787
79965W        W43689   7.231   3.731   1.433
79966W        W43690  29.926  21.719  14.447
79967W        W43691  29.919  33.587  10.980
79968W        W43692   9.665  15.657   0.403
79969W        W43693  39.335  14.770   3.780
79970W        W43694   2.470   7.329   2.324
79971W        W43695  43.949   9.697   4.345
79972W        W43696   3.240  20.262   1.704
79973W        W43697   9.877  19.124   2.849
79974W        W43698  29.150  20.691   3.248
79975W        W43699   6.340  33.542   3.662
79976W        W43700  31.548   5.297   2.265
79977W        W43701  10.742  22.046  13.329
79978W        W43702  10.227  32.138   3.812
79979W        W43703  20.182   2.437  14.877
79980W        W43704  26.703   5.223   3.330
79981W        W43705  29.576   8.237  12.928
79982W        W43706  33.523  15.790   3.812
79983W        W43707  12.654   4.393   4.780
79984W        W43708  37.883  30.002   0.366
79985W        W43709  11.671  41.845  11.063
79986W        W43710  34.906  11.248  14.025
79987W        W43711  36.373  38.422   3.366
79988W        W43712  42.887  29.433  13.517
79989W        W43713  34.072  16.101   0.361
79990W        W43714  32.007  26.552  12.493
79991W        W43715  32.967  28.061  12.992
79992W        W43716  43.424  24.691   4.638
79993W        W43717  19.253  10.330   4.657
79994W        W43718  43.281  25.145   0.471
79995W        W43719   0.805  26.007  11.097
79996W        W43720  13.754  36.506   0.364
79997W        W43721  18.078  17.220  11.416
79998W        W43722   5.371  37.833   2.673
79999W        W43723   1.294   9.355  10.484
80000W        W43724  12.325  41.353   4.303
80001W        W43725   0.435  24.055   4.232
80002W        W43726   8.753  36.062  11.604
80003W        W43727  39.962  24.661  14.768
80004W        W43728  28.452  39.558  14.935
80005W        W43729  30.641   7.205  10.636
80006W        W43730  40.963  31.506   4.183
80007W        W43731  14.131  24.557  11.982
80008W        W43732   6.367   8.858   2.801
80009W        W43733  27.511  21.552   3.190
80010W        W43734  11.744  40.877   1.713
80011W        W43735  17.737  22.038  10.953
80012W        W43736  13.137  35.464  13.321
80013W        W43737  29.966  13.757  14.015
80014W        W43738  33.065  37.343  10.503
80015W        W43739   7.794  28.634   2.851
80016W        W43740  36.913  40.463   1.266
80017W        W43741  16.248  26.098  12.396
80018W        W43742  26.067  29.123   0.839
80019W        W43743  10.209  29.663   4.149
80020W        W43744   4.219   6.204  13.440
80021W        W43745  16.102   4.932   1.407
80022W        W43746  37.932   5.796  13.395
80023W        W43747  33.978  16.248   4.602
80024W        W43748  43.328  27.972   9.927
80025W        W43749  34.460   5.284   2.350
80026W        W43750  23.522   2.249   0.955
80027W        W43751  19.594   9.240   2.307
80028W        W43752   1.250  39.987  10.641
80029W        W43753   8.845  12.259  14.761
80030W        W43754  13.323  23.512  12.988
80031W        W43755  30.607  43.905  12.446
80032W        W43756  34.106  37.410  13.454
80033W        W43757  36.516  37.443   1.253
80034W        W43758   1.337   0.458   4.764
80035W        W43759  43.291  44.879   2.812
80036W        W43760  22.674  11.207   2.379
80037W        W43761  10.167   7.750   5.284
80038W        W43762  44.840  34.413  10.075
80039W        W43763  31.069  27.535  13.995
80040W        W43764  10.737  36.919   3.245
80041W        W43765  42.781   0.308  14.859
80042W        W43766  24.147  20.161  14.507
80043W        W43767  35.022  21.580   4.183
80044W        W43768   9.747  16.700  10.533
80045W        W43769  43.008  25.674   3.633
80046W        W43770   3.867  26.572   1.845
80047W        W43771  29.427  26.038   3.819
80048W        W43772   4.760   8.673  13.355
80049W        W43773  35.515  44.276  11.124
80050W        W43774  30.071  28.940  12.053
80051W        W43775  32.098  31.409  13.805
80052W        W43776   2.884  40.815  13.308
80053W        W43777   9.299  35.454   1.229
80054W        W43778  35.974  13.280   1.413
80055W        W43779  25.602  44.858   3.804
80056W        W43780  15.762  37.973   0.914
80057W        W43781  13.227   1.945   4.754
80058W        W43782   3.265  19.042  14.306
80059W        W43783   3.419  19.054   1.317
80060W        W43784  23.656  20.665  10.979
80061W        W43785  30.017   4.448   3.645
80062W        W43786  36.845  40.501   3.320
80063W        W43787  34.098  22.235  11.018
80064W        W43788  43.897  24.169  10.492
80065W        W43789  25.695  11.317   1.886
80066W        W43790  40.906  32.907   3.314
80067W        W43791  32.399  28.987   0.932
80068W        W43792  28.582  39.413  11.389
80069W        W43793  34.590  22.633  11.079
80070W        W43794  35.864  12.649   1.900
80071W        W43795   7.893  29.481   3.802
80072W        W43796  44.782  14.673   0.735
80073W        W43797  19.570  12.162  10.950
80074W        W43798  18.550  30.082  11.565
80075W        W43799  30.433   4.422   1.767
80076W        W43800   2.295  23.655   1.335
80077W        W43801  23.540  42.013  14.300
80078W        W43802  39.335  29.451   2.272
80079W        W43803  24.034   1.940  12.881
80080W        W43804   8.399  34.112   0.414
80081W        W43805  37.935  39.367   4.300
80082W        W43806  30.582  19.663   4.241
80083W        W43807  19.658  39.877  13.478
80084W        W43808  32.083   3.930   1.766
80085W        W43809   9.742  36.512   1.766
80086W        W43810   7.722  44.461   1.834
80087W        W43811  15.300   3.872  13.536
80088W        W43812  41.900  10.155  11.387
80089W        W43813  18.159  18.707  14.010
80090W        W43814   8.871  44.426  10.504
80091W        W43815  14.280  26.118  11.908
80092W        W43816  27.629  24.079  14.502
80093W        W43817  11.206  19.694   2.339
80094W        W43818  28.635  12.839   1.862
80095W        W43819  17.117  31.480  11.377
80096W        W43820  34.989  18.570   3.354
80097W        W43821  15.695  42.388  11.017
80098W        W43822  32.455  38.824   1.780
80099W        W43823  17.559  25.170   0.905
80100W        W43824  13.146   1.406  11.077
80101W        W43825  26.998  41.970   1.383
80102W        W43826  15.675  10.751  13.940
80103W        W43827  21.587  44.311  14.369
80104W        W43828  35.379  36.075  10.617
80105W        W43829  14.153   2.330  14.354
80106W        W43830   8.202   8.367  13.815
80107W        W43831  32.606  33.004   1.912
80108W        W43832  39.904  43.004   2.864
80109W        W43833   9.824  29.577  11.901
80110W        W43834  16.812  40.531   2.876
80111W        W43835  40.313  11.862   0.854
80112W        W43836   8.268  23.510   4.230
80113W        W43837   1.341   7.176  10.551
80114W        W43838  10.720  22.079  14.372
80115W        W43839  19.648  28.544   1.912
80116W        W43840  24.610  34.430  14.338
80117W        W43841  10.842  28.966   1.932
80118W        W43842  16.667  12.148   1.372
80119W        W43843   9.772   5.930   0.846
80120W        W43844  22.501  13.191  11.550
80121W        W43845  19.164  39.952  10.911
80122W        W43846   1.447  43.018   0.443
80123W        W43847   2.254  42.442  14.312
80124W        W43848   0.291  14.835   3.779
80125W        W43849  38.522  14.177  10.410
80126W        W43850  33.455  43.903  13.014
80127W        W43851  40.943   4.205   2.178
80128W        W43852   5.431  41.037   2.312
80129W        W43853  30.483   6.340   1.870
80130W        W43854  35.466  18.641  13.946
80131W        W43855   8.758   5.208  12.527
80132W        W43856  41.437  40.927  11.388
80133W        W43857  25.482  15.721   3.829
80134W        W43858  29.616  39.542  14.486
80135W        W43859  38.345  38.356  12.505
80136W        W43860  37.941  34.452  12.903
80137W        W43861  15.222  25.204   3.222
80138W        W43862   1.283   7.717   3.744
80139W        W43863  16.686   5.916  14.797
80140W        W43864  33.591   0.857   1.794
80141W        W43865  31.450  14.174   0.864
80142W        W43866  11.261  39.511   3.162
80143W        W43867  22.601  17.660   3.243
80144W        W43868   0.466  24.574   2.377
80145W        W43869  11.293  11.280  14.422
80146W        W43870   1.899  19.078   3.698
80147W        W43871  14.246  28.544   2.179
80148W        W43872  28.515  40.797   0.902
80149W        W43873   0.831  33.898   2.831
80150W        W43874  43.308  17.623  12.859
80151W        W43875  15.667  14.248  13.835
80152W        W43876   6.910  17.585  11.434
80153W        W43877  16.159  35.451   2.383
80154W        W43878  25.172  33.938  13.423
80155W        W43879  13.289   8.701   5.290
80156W        W43880  35.007  24.504   2.317
80157W        W43881  36.579  18.635  12.014
80158W        W43882  31.968   5.431   4.750
80159W        W43883   3.824  40.529   3.642
80160W        W43884  11.766  43.383   4.692
80161W        W43885   8.733  24.582  13.852
80162W        W43886  18.741  14.315   3.177
80163W        W43887  13.719  33.967   2.214
80164W        W43888  32.393  21.571   0.828
80165W        W43889  29.509  27.028  13.371
80166W        W43890  30.918  18.708   4.719
80167W        W43891  11.823  35.103  14.894
80168W        W43892   5.747  14.629   1.377
80169W        W43893  13.690  15.824   3.188
80170W        W43894   8.710  30.144   2.696
80171W        W43895  19.778  37.449   3.776
80172W        W43896  28.540  44.391   4.694
80173W        W43897  16.243  23.621  13.986
80174W        W43898  20.605  16.170  13.307
80175W        W43899  34.986  15.090   1.935
80176W        W43900  10.177   8.792   5.117
80177W        W43901  27.042  22.153  12.464
80178W        W43902  43.452  27.613   0.433
80179W        W43903  25.587  36.539   3.242
80180W        W43904  13.267   1.882   3.241
80181W        W43905  19.213  15.175  11.083
80182W        W43906   8.180  19.676  11.568
80183W        W43907  11.262  15.295   2.833
80184W        W43908  22.527  30.107  14.845
80185W        W43909  15.726   8.290   3.736
80186W        W43910  15.618  27.522  10.580
80187W        W43911  11.671  26.509   2.840
80188W        W43912  44.988  21.722  13.350
80189W        W43913  42.473   6.813   0.453
80190W        W43914   7.739   1.401   2.295
80191W        W43915  10.710  32.496   1.821
80192W        W43916  19.213   9.168   4.764
80193W        W43917  16.569  32.102  12.910
80194W        W43918   5.329  18.176  14.774
80195W        W43919  27.139  35.382   1.382
80196W        W43920  37.554  39.971   0.272
80197W        W43921  36.388  26.055  12.527
80198W        W43922  12.148   9.350   3.356
80199W        W43923   4.724  28.439   2.903
80200W        W43924  31.046  44.774  11.095
80201W        W43925   3.921   2.773  11.382
80202W        W43926  39.377  33.112   0.887
80203W        W43927  22.709  41.846   1.884
80204W        W43928  42.495  15.171   4.351
80205W        W43929  39.885  17.227   2.898
80206W        W43930  40.033   9.272  11.977
80207W        W43931   3.461  41.441  14.331
80208W        W43932   4.899  42.950   2.817
80209W        W43933  34.590  41.996  11.604
80210W        W43934  42.814  42.526   2.747
80211W        W43935  23.686  39.906  14.812
80212W        W43936   4.794  27.460  11.497
80213W        W43937  11.333  16.284  13.398
80214W        W43938  39.929  33.072   0.832
80215W        W43939   8.330   2.404   0.470
80216W        W43940  29.948  19.539   4.203
80217W        W43941  42.972   2.832  13.988
80218W        W43942  26.061  32.580  14.351
80219W        W43943   6.877   1.764   0.269
80220W        W43944  26.458  36.002  10.625
80221W        W43945  27.475  20.186   2.235
80222W        W43946  12.151  36.567   0.374
80223W        W43947  13.690  36.348   3.756
80224W        W43948  16.719  43.379   0.801
80225W        W43949  24.143  24.216   4.322
80226W        W43950   2.451   2.400  10.890
80227W        W43951  42.822  20.658  14.883
80228W        W43952  33.065  29.473   1.907
80229W        W43953  34.978  39.008   4.225
80230W        W43954  24.715  28.974   3.814
80231W        W43955   3.432  23.559  11.025
80232W        W43956   7.808  40.408   3.826
80233W        W43957  25.552  37.341   4.830
80234W        W43958  43.948  27.060   1.447
80235W        W43959   2.387  19.753   0.866
80236W        W43960   8.312  39.373   2.249
80237W        W43961  12.724   4.731   2.712
80238W        W43962  14.215  18.613   0.877
80239W        W43963  14.636  11.266   4.759
80240W        W43964  28.024  21.729  11.874
80241W        W43965  17.221  40.407   2.870
80242W        W43966  41.014  10.796  12.038
80243W        W43967  17.265   5.314   1.215
80244W        W43968   8.731  27.570  13.431
80245W        W43969  25.057  10.753  12.474
80246W        W43970  22.052  18.283  11.917
80247W        W43971   1.415  40.054   0.392
80248W        W43972  13.308  19.251  11.533
80249W        W43973   9.743  15.201   4.611
80250W        W43974  28.947  24.650  10.562
80251W        W43975  14.129  39.898  10.553
80252W        W43976  30.070  40.325   2.864
80253W        W43977  33.958  24.178  11.483
80254W        W43978  35.494  44.437  14.956
80255W        W43979   9.288  25.041   0.865
80256W        W43980  16.107  36.425  12.966
80257W        W43981  20.678   7.810   1.752
80258W        W43982  26.133  24.698  10.597
80259W        W43983  20.645  29.032   3.727
80260W        W43984   8.778   9.770  10.574
80261W        W43985  20.595   2.350   2.239
80262W        W43986   9.356  14.762   0.804
80263W        W43987   8.186  43.353   3.839
80264W        W43988  24.147  26.592   0.402
80265W        W43989  36.919  36.447   3.240
80266W        W43990  25.546  10.875  14.454
80267W        W43991  33.122  10.872  11.080
80268W        W43992   9.149   6.293  10.048
80269W        W43993  25.629  12.784  13.016
80270W        W43994  19.223  17.228  13.518
80271W        W43995  10.251  42.893  13.994
80272W        W43996  16.623  38.021   3.257
80273W        W43997  26.516  34.612   5.189
80274W        W43998  22.147  29.607  10.016
80275W        W43999  25.080  28.985  11.043
80276W        W44000  24.101  23.023   2.730
80277W        W44001   0.826  14.823   3.867
80278W        W44002  22.238  42.446  11.478
80279W        W44003  27.686  23.537   2.897
80280W        W44004  37.032  32.419   4.733
80281W        W44005  25.664  21.515  11.060
80282W        W44006  18.092   5.248  12.361
80283W        W44007   6.288  24.186  14.908
80284W        W44008  18.192  10.308  14.413
80285W        W44009   1.853   7.401   2.342
80286W        W44010  37.468  22.023  13.900
80287W        W44011  27.501  17.689   1.922
80288W        W44012   0.248  25.013  11.558
80289W        W44013  23.139  22.500  11.516
80290W        W44014  43.851  25.002  13.313
80291W        W44015  25.513  42.881   2.401
80292W        W44016  15.288  36.556   2.338
80293W        W44017  44.494  41.388   4.806
80294W        W44018  10.782  44.956   1.270
80295W        W44019  33.894   2.957   1.893
80296W        W44020   3.444  14.306  13.404
80297W        W44021  10.265  40.509  11.501
80298W        W44022  37.430  10.820   1.769
80299W        W44023  25.681  23.734   1.805
80300W        W44024   2.276  39.511  13.878
80301W        W44025   1.966  35.430  10.495
80302W        W44026  32.978  11.164   1.266
80303W        W44027  29.065  16.640   1.885
80304W        W44028  35.602  24.589  14.811
80305W        W44029  20.577  35.479   2.894
80306W        W44030  35.039  23.057   2.901
80307W        W44031  26.694  12.813  12.893
80308W        W44032  28.980  20.201   4.339
80309W        W44033  30.436  20.224   4.821
80310W        W44034  43.791   7.791  10.622
80311W        W44035   9.173  27.480  11.470
80312W        W44036  40.843   9.249   4.686
80313W        W44037  39.874  33.916  14.352
80314W        W44038  28.132  21.218   3.192
80315W        W44039  25.660  30.539   2.280
80316W        W44040   8.890  44.444   9.976
80317W        W44041  35.084  23.180   1.835
80318W        W44042   5.438  35.866   3.231
80319W        W44043  25.050  15.791   4.211
80320W        W44044  17.786  34.091  10.467
80321W        W44045  22.234  12.148  11.058
80322W        W44046  33.420  10.812  13.340
80323W        W44047  36.385  35.986  13.381
80324W        W44048   8.785   6.912  12.432
80325W        W44049  18.155  40.313  14.495
80326W        W44050  33.503  14.654  11.493
80327W        W44051  35.991  21.680   0.351
80328W        W44052  24.625  33.916   3.361
80329W        W44053   2.762   4.782   2.722
80330W        W44054  37.044  37.872   1.924
80331W        W44055  15.108   0.463  14.018
80332W        W44056  37.924   9.869  11.381
80333W        W44057  13.618  33.595  13.440
80334W        W44058   7.819  16.302  12.512
80335W        W44059   9.814   4.904  14.977
80336W        W44060  17.249  25.637  12.095
80337W        W44061   6.836  41.387   3.168
80338W        W44062  12.833   3.929  10.551
80339W        W44063   0.369  28.523   3.725
80340W        W44064  36.011   9.292   1.275
80341W        W44065  10.185   7.294  14.842
80342W        W44066  21.550  44.284   1.376
80343W        W44067  17.622   9.190   1.440
80344W        W44068  33.566   7.177  12.416
80345W        W44069  15.202  26.539   2.704
80346W        W44070  20.087  13.173   2.334
80347W        W44071  22.650  39.985  14.012
80348W        W44072  39.489  35.498   0.357
80349W        W44073  13.811  29.557   0.845
80350W        W44074  40.472  44.844   4.194
80351W        W44075  39.323  22.652   2.393
80352W        W44076  37.085  30.625  13.028
80353W        W44077  35.404  32.533   2.780
80354W        W44078  28.075  42.404   3.239
80355W        W44079   4.394  40.354  10.974
80356W        W44080  30.512  36.093   3.178
80357W        W44081  10.784  33.384   2.224
80358W        W44082  19.688  40.015   5.582
80359W        W44083  14.108  20.208  13.440
80360W        W44084   4.916   7.395  12.549
80361W        W44085  42.395  14.790  11.592
80362W        W44086   3.862  34.009   0.375
80363W        W44087  23.003  42.399  13.413
80364W        W44088  44.275  29.966  14.964
80365W        W44089  44.416  14.199   5.203
80366W        W44090   4.838  10.778   5.235
80367W        W44091  36.035   9.262  14.477
80368W        W44092   5.901  35.542   0.805
80369W        W44093  24.056  40.395  12.000
80370W        W44094  37.523  18.151   0.430
80371W        W44095  42.457   9.383  12.836
80372W        W44096   8.166  18.114  12.046
80373W        W44097  40.318   9.759   1.888
80374W        W44098  35.030  33.541   2.240
80375W        W44099  43.947  30.514  13.984
80376W        W44100   4.793  12.649  13.813
80377W        W44101   2.967  37.540   4.271
80378W        W44102  29.972  39.544   1.296
80379W        W44103  19.051   1.259   2.339
80380W        W44104  33.417  26.067  12.432
80381W        W44105  17.233  43.272   2.849
80382W        W44106  22.156  34.574  14.011
80383W        W44107   9.291  27.184  10.954
80384W        W44108  16.125   6.276   1.274
80385W        W44109   0.302  41.503   2.670
80386W        W44110  32.567  14.248   0.822
80387W        W44111  18.551  10.150  13.491
80388W        W44112   5.274   3.713  14.933
80389W        W44113  36.368  28.077  10.155
80390W        W44114   5.889  13.755   4.157
80391W        W44115  10.715  35.454   0.457
80392W        W44116   5.824  14.253  14.905
80393W        W44117  21.166  34.531  11.874
80394W        W44118  40.379  34.552  14.334
80395W        W44119   1.357  40.339   4.286
80396W        W44120  33.589  35.957  14.950
80397W        W44121  41.957  33.076   3.303
80398W        W44122  25.983  17.675   0.881
80399W        W44123  14.116   0.969   0.404
80400W        W44124  28.489  20.104  11.903
80401W        W44125  13.180  18.109  13.013
80402W        W44126   5.415   5.433  12.998
80403W        W44127  36.036  30.653   0.290
80404W        W44128  17.069  34.599  11.886
80405W        W44129  41.319  11.138  12.072
80406W        W44130   6.425   3.232   4.168
80407W        W44131  12.724  23.084   4.685
80408W        W44132  21.149  17.276   0.961
80409W        W44133  40.051  30.111   3.655
80410W        W44134   9.329   5.274  14.383
80411W        W44135  34.572  37.554  10.432
80412W        W44136   9.205   0.774  11.110
80413W        W44137  38.512  31.461   1.379
80414W        W44138   4.801   4.848   0.916
80415W        W44139  36.852  13.742  10.042
80416W        W44140  44.422  35.521  13.813
80417W        W44141  15.758  18.241  10.939
80418W        W44142  24.221  25.563  11.865
80419W        W44143   7.736  42.438   2.703
80420W        W44144  17.619  34.550  12.446
80421W        W44145  34.439  44.958   3.715
80422W        W44146  25.508  33.453  11.453
80423W        W44147  37.860  40.803  13.952
80424W        W44148  21.193   7.412  14.383
80425W        W44149  40.493  13.823   0.955
80426W        W44150  24.501   9.851   3.333
80427W        W44151  23.645   6.891   4.242
80428W        W44152  31.982  12.777  10.016
80429W        W44153   4.436  25.058   3.745
80430W        W44154  25.536   8.302  13.315
80431W        W44155   8.695   8.712  11.116
80432W        W44156  31.899  20.741  12.479
80433W        W44157  15.674   7.890   4.802
80434W        W44158  26.965  29.990   5.635
80435W        W44159  35.600  43.845  10.957
80436W        W44160  35.599  23.185  11.572
80437W        W44161   6.405   1.443  12.949
80438W        W44162   6.234  31.519  10.989
80439W        W44163  35.392  16.683  10.899
80440W        W44164  24.104  20.267   3.219
80441W        W44165  28.096  34.001  14.372
80442W        W44166  29.132  30.112   3.832
80443W        W44167  19.697  33.087  13.921
80444W        W44168   1.839  18.785  14.348
80445W        W44169  13.612  19.676  12.399
80446W        W44170  14.194  33.887   0.371
80447W        W44171  16.088  26.026  10.889
80448W        W44172  42.791   3.361   9.932
80449W        W44173  18.645  29.112   1.236
80450W        W44174  16.662  13.335   4.113
80451W        W44175  40.979   1.399   2.282
80452W        W44176  33.922  11.771  10.500
80453W        W44177  33.100   4.384   0.393
80454W        W44178  36.973  33.021   2.348
80455W        W44179   8.388  21.599  10.955
80456W        W44180  42.288  40.461   0.271
80457W        W44181  27.040   0.253   2.350
80458W        W44182  31.065  41.380  11.069
80459W        W44183  42.489   0.387   3.202
80460W        W44184   4.830  14.771   2.262
80461W        W44185  27.019   8.214  10.892
80462W        W44186   0.804  39.475   1.758
80463W        W44187  24.060  27.001  13.319
80464W        W44188   3.242  40.325   5.215
80465W        W44189  42.936   6.773  11.491
80466W        W44190  38.422  35.449  13.958
80467W        W44191   9.379  13.703   1.445
80468W        W44192   5.353   7.408   3.718
80469W        W44193  19.185  30.077   2.733
80470W        W44194  23.990   5.366  11.595
80471W        W44195   3.884  11.765  13.372
80472W        W44196  12.770  36.450   1.398
80473W        W44197  25.013  11.866   2.755
80474W        W44198  22.212  18.236  13.412
80475W        W44199  35.994  38.979  12.375
80476W        W44200  23.997  28.981   3.759
80477W        W44201  31.041  26.617  10.979
80478W        W44202  41.409  39.019   0.475
80479W        W44203   9.284  19.692   4.154
80480W        W44204  44.354   8.785   4.139
80481W        W44205  38.940  16.298   5.303
80482W        W44206  44.966  22.599   3.352
80483W        W44207  37.940   5.917  14.283
80484W        W44208  12.273  25.179  13.450
80485W        W44209  15.669  43.335  14.759
80486W        W44210  22.635  42.335   1.407
80487W        W44211  25.105  31.087   0.809
80488W        W44212  35.898   1.250   2.852
80489W        W44213  24.047  21.243   2.838
80490W        W44214  18.139  32.115  12.917
80491W        W44215   6.280  14.300   3.278
80492W        W44216  41.947  39.035   2.349
80493W        W44217  24.545  13.651  13.929
80494W        W44218  28.506  11.137   1.326
80495W        W44219   7.225  23.590   3.296
80496W        W44220  16.810  41.030  13.848
80497W        W44221  30.069  10.361  10.508
80498W        W44222  43.843  19.196  12.958
80499W        W44223  28.488  20.101  12.543
80500W        W44224  39.035  15.154  13.509
80501W        W44225   7.892  26.115   4.789
80502W        W44226  39.856   8.846   2.783
80503W        W44227  12.782   9.223  14.776
80504W        W44228  23.735  25.187  10.437
80505W        W44229  11.342  43.966   4.187
80506W        W44230  18.753  29.606  13.827
80507W        W44231  30.044  31.980   3.371
80508W        W44232  30.932  40.849  12.428
80509W        W44233  13.332  19.054   3.185
80510W        W44234   5.870  23.623   2.840
80511W        W44235  29.625  38.886   4.193
80512W        W44236  32.980  30.626   4.746
80513W        W44237   4.895  11.151  10.445
80514W        W44238   2.812  28.070  12.851
80515W        W44239  27.526  42.381   3.725
80516W        W44240  44.487   1.823   0.865
80517W        W44241  35.391  26.655   4.753
80518W        W44242  33.030  38.990  14.010
80519W        W44243  23.002  24.657   4.218
80520W        W44244  43.909  16.222   3.654
80521W        W44245  38.495   0.850  14.935
80522W        W44246  18.695  34.498   2.359
80523W        W44247  33.604  29.079   1.911
80524W        W44248  34.064  24.611  12.866
80525W        W44249  44.971  21.530   1.289
80526W        W44250  40.908  37.572   3.342
80527W        W44251  44.823  22.131  14.802
80528W        W44252  26.141   4.738  13.803
80529W        W44253   0.377  18.780   3.853
80530W        W44254  29.033   1.815  14.767
80531W        W44255  11.693  24.067  10.922
80532W        W44256  24.556  34.372   1.895
80533W        W44257  36.580  26.579   1.331
80534W        W44258  35.874  38.555  13.960
80535W        W44259   1.874  10.224  14.016
80536W        W44260  36.083  19.770   5.170
80537W        W44261  18.172  41.321   4.160
80538W        W44262   4.385   4.888   3.776
80539W        W44263   9.374  20.167  14.825
80540W        W44264  29.437  17.083  11.415
80541W        W44265  41.914  29.479   3.743
80542W        W44266  35.460  32.053  14.397
80543W        W44267  38.951  18.763   0.249
80544W        W44268  22.104  16.790   2.326
80545W        W44269  25.692  28.539   1.310
80546W        W44270  37.974   7.189   5.085
80547W        W44271   9.695   3.373  11.518
80548W        W44272   9.256  31.067  13.402
80549W        W44273  33.527   9.182   4.681
80550W        W44274  12.846   4.271   5.655
80551W        W44275  18.590  44.486   3.195
80552W        W44276  11.312  37.046  13.021
80553W        W44277  38.375  17.799  13.064
80554W        W44278   9.315  15.805  13.950
80555W        W44279   1.949   4.212  11.043
80556W        W44280  38.533  23.171  14.906
80557W        W44281  42.009   8.822  10.502
80558W        W44282  36.397  15.153  10.094
80559W        W44283  32.452   8.356  12.349
80560W        W44284  19.104  31.587  12.016
80561W        W44285  40.361  32.905   3.854
80562W        W44286  22.076  11.730   2.287
80563W        W44287   8.186  37.028  11.519
80564W        W44288  12.233  18.713  11.905
80565W        W44289   7.225  41.361   1.832
80566W        W44290  39.517  22.177  11.397
80567W        W44291  11.247  20.041  12.356
80568W        W44292  11.680  29.608  14.781
80569W        W44293  34.037  19.107  10.516
80570W        W44294  11.289  12.837  11.448
80571W        W44295  43.776  35.106  10.018
80572W        W44296  44.295  33.598   1.725
80573W        W44297  37.336  30.131   0.386
80574W        W44298  43.830  10.362   1.825
80575W        W44299  36.868   2.317  11.509
80576W        W44300   1.379  26.541   1.270
80577W        W44301  19.597   8.305   3.167
80578W        W44302  14.287  23.627   2.855
80579W        W44303  27.942  32.598  12.507
80580W        W44304  27.528   7.202  13.939
80581W        W44305   3.883  36.078   3.153
80582W        W44306  21.688  13.333  12.496
80583W        W44307   6.842  37.339  10.497
80584W        W44308  18.697  35.067   1.218
80585W        W44309   2.867   7.810   3.851
80586W        W44310  19.265  24.559   3.637
80587W        W44311  33.558  43.448  13.523
80588W        W44312  43.436   0.443  14.917
80589W        W44313  27.510  13.624   4.123
80590W        W44314   2.960  35.390   3.693
80591W        W44315   7.268  44.326   1.810
80592W        W44316  29.017  31.908  13.913
80593W        W44317   4.378  24.631   2.850
80594W        W44318   0.357  15.146   0.312
80595W        W44319  15.676  33.101   3.697
80596W        W44320  11.301  42.998  14.798
80597W        W44321  16.770   4.736   4.352
80598W        W44322  31.150  15.105   3.302
80599W        W44323   8.819   5.692   0.757
80600W        W44324  41.879   9.382   2.333
80601W        W44325  24.704  44.425  12.924
80602W        W44326  43.812  28.966  11.121
80603W        W44327  12.666  17.123   0.474
80604W        W44328  13.132   4.316   4.711
80605W        W44329  15.220  26.062   0.790
80606W        W44330  13.202  10.827   2.178
80607W        W44331   6.269   1.408  12.451
80608W        W44332  39.834  41.364  14.494
80609W        W44333  24.203  24.034  11.929
80610W        W44334  41.317   3.926   3.380
80611W        W44335  19.191  35.084   4.672
80612W        W44336  20.176  29.432  12.919
80613W        W44337  30.625  42.448   3.160
80614W        W44338  36.054   6.801   4.326
80615W        W44339  39.054  17.280   2.861
80616W        W44340  19.262  42.998  11.914
80617W        W44341   6.304  24.050   5.135
80618W        W44342  21.212  41.292   0.787
80619W        W44343  26.117  35.387   1.238
80620W        W44344  36.878  11.301   0.347
80621W        W44345  19.045  15.655  10.506
80622W        W44346   9.782  29.935  14.437
80623W        W44347   6.395   4.234  14.872
80624W        W44348  36.429  10.698   1.215
80625W        W44349  24.545  32.977   0.244
80626W        W44350  27.097  20.052   1.363
80627W        W44351  41.923  37.937   4.702
80628W        W44352  28.182   1.304   0.388
80629W        W44353  21.534   8.385   2.338
80630W        W44354  27.631  37.566   2.181
80631W        W44355   3.785  35.105  12.948
80632W        W44356   5.361  11.302  13.437
80633W        W44357  32.632  21.188  14.361
80634W        W44358   7.810  12.281  13.380
80635W        W44359  37.055  12.359   0.866
80636W        W44360   6.898   8.880  13.490
80637W        W44361  13.279   7.387   3.751
80638W        W44362  28.117  11.194   3.870
80639W        W44363  27.660  20.180   2.763
80640W        W44364  39.504   1.334  11.957
80641W        W44365  43.509   3.268   3.380
80642W        W44366  43.295  15.820  13.818
80643W        W44367  30.953   0.261  11.947
80644W        W44368  43.354  39.052  11.084
80645W        W44369   3.915  30.094   2.278
80646W        W44370   5.834  12.623  11.607
80647W        W44371   3.822  44.784  13.468
80648W        W44372  26.647   3.329   4.234
80649W        W44373  11.255  16.640  11.373
80650W        W44374  39.374  37.946   3.717
80651W        W44375  38.565  44.308   3.735
80652W        W44376  26.976  15.261  12.385
80653W        W44377  15.184   6.192   2.721
80654W        W44378   4.415  32.930   2.865
80655W        W44379   0.930  12.362   4.151
80656W        W44380  41.826   5.708  14.819
80657W        W44381  34.506   8.258   2.884
80658W        W44382   2.378   1.277  11.069
80659W        W44383  42.903  41.989   1.718
80660W        W44384  27.573   3.454  10.927
80661W        W44385  14.181  23.667  10.583
80662W        W44386  28.007   1.413  11.015
80663W        W44387  24.662  13.248   0.245
80664W        W44388  41.855  25.593   2.733
80665W        W44389  22.021  33.543  10.454
80666W        W44390  31.900  15.117   2.412
80667W        W44391  18.762   6.864  14.965
80668W        W44392  13.281  42.957  14.796
80669W        W44393  21.675  12.316  14.949
80670W        W44394  33.493  44.468  13.033
80671W        W44395   6.342  33.010  12.825
80672W        W44396  10.150  30.422   1.815
80673W        W44397  35.527  36.081  13.876
80674W        W44398  15.774  22.173  13.828
80675W        W44399  26.668   9.303  12.536
80676W        W44400  39.477  44.972  14.457
80677W        W44401  43.455  40.337  11.547
80678W        W44402  29.572  15.113  12.529
80679W        W44403  17.792  38.557   1.280
80680W        W44404  20.709  41.322   3.292
80681W        W44405  44.370  27.075   3.177
80682W        W44406  40.027   8.243  14.945
80683W        W44407  15.123   7.693   2.846
80684W        W44408   0.889   3.791   1.762
80685W        W44409  21.530   4.711   3.327
80686W        W44410  30.461  40.872   0.441
80687W        W44411  29.473  35.466   4.606
80688W        W44412  16.245  18.203   4.143
80689W        W44413  21.021  38.059  10.041
80690W        W44414   9.753  24.201   3.174
80691W        W44415   1.306  35.896  12.563
80692W        W44416  44.326  31.468   0.284
80693W        W44417   8.214  28.530   1.778
80694W        W44418   2.913  39.509  12.009
80695W        W44419  41.015   0.413  11.058
80696W        W44420  42.321  10.762  11.097
80697W        W44421  24.668  43.272  14.853
80698W        W44422  36.393   2.728  12.046
80699W        W44423  40.844  12.723   1.396
80700W        W44424   8.845  14.808   0.464
80701W        W44425  32.637  32.576  10.925
80702W        W44426   5.860  22.726   4.793
80703W        W44427  19.274  13.649  10.641
80704W        W44428  11.682  38.536   4.258
80705W        W44429   3.748  11.365   1.266
80706W        W44430  28.971  29.989  13.318
80707W        W44431   7.714  40.346   4.148
80708W        W44432  10.262  37.418   2.726
80709W        W44433  30.923   0.371   0.758
80710W        W44434  23.126  31.460   3.821
80711W        W44435  23.219   1.354   0.778
80712W        W44436   6.415  28.169  11.453
80713W        W44437   7.222  20.628   3.654
80714W        W44438   9.376  23.549   1.768
80715W        W44439  30.483   2.811   1.931
80716W        W44440  34.518  38.996   3.738
80717W        W44441  12.811   4.250  10.156
80718W        W44442  12.786  10.153  13.325
80719W        W44443  11.745  12.253   0.857
80720W        W44444   5.256  41.946   2.901
80721W        W44445   7.720  36.954  11.033
80722W        W44446  43.009   5.328  13.029
80723W        W44447   3.362  13.171   0.354
80724W        W44448  26.530  27.044   4.188
80725W        W44449   7.380  31.415  12.510
80726W        W44450  36.888  13.105  12.037
80727W        W44451  14.628  23.507  14.918
80728W        W44452   5.930  17.615  12.078
80729W        W44453   1.792  18.563   1.234
80730W        W44454   3.775   8.791   1.431
80731W        W44455  28.619  14.206  14.456
80732W        W44456  36.913  35.570  12.068
80733W        W44457  21.747  13.118  11.414
80734W        W44458  12.711   1.330   1.918
80735W        W44459  16.203  40.839  14.029
80736W        W44460  36.501  30.930   3.277
80737W        W44461  13.290  22.153  14.776
80738W        W44462  10.635   3.891   2.262
80739W        W44463  37.019  41.479   0.778
80740W        W44464  25.216  32.921  12.518
80741W        W44465  40.323   6.262  11.415
80742W        W44466  11.812  41.507  11.464
80743W        W44467  20.165  28.529  13.416
80744W        W44468  12.279   1.940  13.813
80745W        W44469  15.197  30.513  12.851
80746W        W44470  23.707  15.225  12.490
80747W        W44471  31.059  41.302  14.511
80748W        W44472  34.971  23.031   0.478
80749W        W44473  39.379  19.219  14.957
80750W        W44474   6.349  27.627   2.358
80751W        W44475  25.010  38.481  11.431
80752W        W44476  33.060  15.745   0.753
80753W        W44477  34.866  16.732   3.776
80754W        W44478   1.371  31.049  11.023
80755W        W44479  31.002  44.359   4.292
80756W        W44480  30.635  32.022   1.214
80757W        W44481  10.207   2.756  11.959
80758W        W44482   7.785  10.319   1.400
80759W        W44483  36.054  31.494  13.395
80760W        W44484  43.971   1.829  12.448
80761W        W44485  13.723   3.817   2.236
80762W        W44486   3.732  30.144  13.017
80763W        W44487  25.009  27.659   1.841
80764W        W44488  40.362  21.064  12.056
80765W        W44489  27.504  25.993   2.283
80766W        W44490  28.136  15.734  13.042
80767W        W44491  42.476  28.569  10.954
80768W        W44492  29.134   2.273   1.769
80769W        W44493  28.997  12.311   3.684
80770W        W44494  36.086  22.706  14.893
80771W        W44495  43.858   9.276   0.332
80772W        W44496  23.730   7.231   3.726
80773W        W44497  16.768  19.683   0.369
80774W        W44498  13.723  43.327  11.492
80775W        W44499  36.022  40.913  11.572
80776W        W44500  34.500  26.590   5.081
80777W        W44501  30.449  33.049  12.995
80778W        W44502  24.168  14.108  10.086
80779W        W44503  32.485   3.907  13.371
80780W        W44504   4.857   0.805  12.864
80781W        W44505  39.013   8.377  14.027
80782W        W44506  12.202  32.007  11.062
80783W        W44507  41.004  39.986  12.456
80784W        W44508  12.774  15.769  13.892
80785W        W44509  42.987  44.408   1.751
80786W        W44510  24.086   7.726  10.911
80787W        W44511   9.712  40.028   4.148
80788W        W44512  43.309  15.299   4.207
80789W        W44513  15.238  43.506   1.698
80790W        W44514   3.928  30.916   2.886
80791W        W44515  22.604  16.659  10.565
80792W        W44516  37.019   1.773   1.247
80793W        W44517  20.267  31.899   2.343
80794W        W44518   8.313   5.694   3.681
80795W        W44519   0.349  41.989   3.228
80796W        W44520  32.440  29.598  11.889
80797W        W44521  39.810  22.149  11.956
80798W        W44522  25.062  33.013   2.847
80799W        W44523  21.674  32.138   1.723
80800W        W44524  36.360   5.437   1.773
80801W        W44525  31.088  25.694   2.402
80802W        W44526  40.798  10.785  12.577
80803W        W44527  38.951  22.132  14.987
80804W        W44528  44.984  36.369  13.376
80805W        W44529  34.901  13.111  13.000
80806W        W44530   3.378  43.985  13.892
80807W        W44531  31.422   1.847   2.772
80808W        W44532  27.153  25.179  12.910
80809W        W44533  14.203  11.829  11.520
80810W        W44534  19.590  37.357   9.991
80811W        W44535  32.514  25.106   2.189
80812W        W44536   5.361   5.401  12.355
80813W        W44537  11.334  30.155   2.700
80814W        W44538  21.148  16.192  12.087
80815W        W44539  42.334  16.770  13.884
80816W        W44540  36.978   1.482  12.446
80817W        W44541  41.854  39.947   4.715
80818W        W44542  24.661  36.012  11.385
80819W        W44543  20.139  28.063   2.254
80820W        W44544  12.766   4.276   2.241
80821W        W44545  19.080  12.847  10.974
80822W        W44546   4.907  34.047  12.970
80823W        W44547  42.889  38.516   4.119
80824W        W44548  17.590   3.291  13.821
80825W        W44549  22.064  39.880   3.802
80826W        W44550  30.102  21.126   0.827
80827W        W44551  41.862  30.646  13.951
80828W        W44552  37.077  28.520  10.428
80829W        W44553   7.231  21.633   3.177
80830W        W44554  44.456   0.427   1.384
80831W        W44555  14.667  27.124  14.847
80832W        W44556  11.302   4.447  13.903
80833W        W44557  44.833  11.234   2.777
80834W        W44558   5.241  30.563   1.740
80835W        W44559   1.919  16.684   1.753
80836W        W44560   3.787   4.318   4.755
80837W        W44561  43.775  14.193   1.438
80838W        W44562  14.592  36.370   4.245
80839W        W44563   5.420  26.056  12.503
80840W        W44564  37.503  11.209  13.473
80841W        W44565  13.149  36.442  13.533
80842W        W44566  42.919   2.421   0.772
80843W        W44567   4.378   8.189   1.762
80844W        W44568  41.821   4.824   4.125
80845W        W44569  20.232  34.509  10.936
80846W        W44570   0.918  40.440   3.659
80847W        W44571  10.802  38.034  11.483
80848W        W44572  39.881  23.680  11.868
80849W        W44573  44.371  11.243   1.935
80850W        W44574  39.046  25.007   0.857
80851W        W44575  44.920  23.240   3.359
80852W        W44576  26.507  17.115  13.494
80853W        W44577  21.158  37.390   1.709
80854W        W44578   2.372  40.527  10.122
80855W        W44579  31.123  17.688  13.510
80856W        W44580  14.605  34.515   2.286
80857W        W44581   8.162  34.967  13.993
80858W        W44582  40.862  32.130   1.789
80859W        W44583  37.499  15.666   2.224
80860W        W44584  21.139  18.211   1.791
80861W        W44585  11.147  40.404   1.339
80862W        W44586  35.929  20.065   2.357
80863W        W44587  20.544  33.612  11.008
80864W        W44588  19.092   1.328   0.449
80865W        W44589   5.274   3.853   4.250
80866W        W44590  18.597   9.149  11.874
80867W        W44591  33.943  13.107  10.522
80868W        W44592   4.830  26.020   3.344
80869W        W44593  21.188  20.068   0.753
80870W        W44594  15.610   5.791  14.508
80871W        W44595   2.929  14.231  12.903
80872W        W44596  13.217  22.632  14.340
80873W        W44597  18.194   9.152   2.902
80874W        W44598  41.472  26.122  13.826
80875W        W44599  38.398  15.632  12.058
80876W        W44600  18.617  32.914   3.292
80877W        W44601  24.712   6.321  13.425
80878W        W44602  16.209  40.956  12.953
80879W        W44603   2.856  14.153  14.331
80880W        W44604  13.670   8.708   0.250
80881W        W44605  40.834  34.863   3.183
80882W        W44606  43.315  10.189  12.906
80883W        W44607  27.107   6.366  10.056
80884W        W44608  18.616  44.841   0.745
80885W        W44609  43.493  38.380  12.348
80886W        W44610  20.548  24.599  11.059
80887W        W44611  26.952  14.243   4.636
80888W        W44612  22.523  21.185  14.409
80889W        W44613   7.343   5.878  12.377
80890W        W44614  43.492  42.861   3.652
80891W        W44615  43.959  31.925  13.053
80892W        W44616  41.459   4.409   1.367
80893W        W44617  36.592  35.894  13.806
80894W        W44618  21.584  24.643  14.850
80895W        W44619  36.542   4.363  13.795
80896W        W44620  43.880  17.567   1.827
80897W        W44621   8.192  44.326   0.310
80898W        W44622  26.107  29.117  12.026
80899W        W44623  30.515  38.441  12.452
80900W        W44624  37.428  40.894   4.719
80901W        W44625  19.542  41.517   0.380
80902W        W44626  22.143  36.541   0.483
80903W        W44627  22.140  32.569  10.963
80904W        W44628  18.292  22.139   3.234
80905W        W44629  37.499  38.547  11.915
80906W        W44630  16.779  39.394  13.327
80907W        W44631   6.865  35.911  11.507
80908W        W44632   1.889   4.808   2.212
80909W        W44633   9.370   1.479   2.326
80910W        W44634  10.143  24.619  14.003
80911W        W44635  18.575  38.504   0.849
80912W        W44636  27.631  31.126  14.979
80913W        W44637  35.548  10.688   4.698
80914W        W44638  38.916  36.550  12.922
80915W        W44639  13.234  17.734  10.576
80916W        W44640  36.885  30.466   1.244
80917W        W44641  29.455  34.909  11.949
80918W        W44642   4.874   2.859  14.511
80919W        W44643  20.757   0.281   3.302
80920W        W44644  44.307  38.931  14.412
80921W        W44645  37.551  20.153   3.156
80922W        W44646  26.628  24.699  12.339
80923W        W44647  35.387  40.434  10.948
80924W        W44648  36.563  36.570   2.701
80925W        W44649  35.963  36.419   0.903
80926W        W44650   4.384  29.064   3.730
80927W        W44651  41.884  23.210  12.538
80928W        W44652   4.778  36.881   3.385
80929W        W44653  28.004  23.504  11.914
80930W        W44654  32.901  34.951  10.548
80931W        W44655  10.699  27.152  10.429
80932W        W44656  15.607  21.755  13.791
80933W        W44657  24.098  31.639  10.030
80934W        W44658  16.087   0.323   2.778
80935W        W44659  39.813  22.669   4.225
80936W        W44660  13.728  35.542   4.245
80937W        W44661  41.528  29.459   0.895
80938W        W44662   3.234  30.124  14.965
80939W        W44663  42.401   9.776   3.306
80940W        W44664   7.851  14.674   9.966
80941W        W44665  44.387  18.704  14.910
80942W        W44666  32.453  35.084  13.464
80943W        W44667  18.624  31.524   2.193
80944W        W44668  12.673   2.890  10.562
80945W        W44669  33.394  19.578  10.119
80946W        W44670  42.014  41.020  11.433
80947W        W44671  39.462  15.187   1.401
80948W        W44672  19.630   6.745  13.991
80949W        W44673  42.919  31.503  13.963
80950W        W44674  24.699   3.317  10.556
80951W        W44675   5.689  27.162   3.360
80952W        W44676  30.065  14.804  14.425
80953W        W44677  30.058  27.534   2.810
80954W        W44678  32.117   0.400  14.897
80955W        W44679  38.431  41.490   3.714
80956W        W44680   8.901  10.776  12.083
80957W        W44681  23.221  40.966  12.871
80958W        W44682  43.306   5.851  12.550
80959W        W44683   0.821  32.900   2.331
80960W        W44684  41.298  44.900   1.825
80961W        W44685  27.000  17.175  12.565
80962W        W44686   8.404  33.487  11.480
80963W        W44687   9.713   4.234  13.332
80964W        W44688  30.524   5.847   0.882
80965W        W44689  14.318  18.173  14.901
80966W        W44690   4.799  31.939   2.735
80967W        W44691  21.198  42.438  11.026
80968W        W44692  41.875  19.194  13.906
80969W        W44693  26.674  40.944   1.322
80970W        W44694  35.067  41.842   0.950
80971W        W44695   5.757   1.731  11.886
80972W        W44696   1.737  29.073   1.253
80973W        W44697  26.117   3.410  10.930
80974W        W44698  23.105  21.624  13.545
80975W        W44699  40.514   5.831   3.636
80976W        W44700   8.218   4.731  11.877
80977W        W44701  14.214  20.676  10.461
80978W        W44702  42.929  32.048   0.949
80979W        W44703  24.021  40.978  13.915
80980W        W44704  15.181  42.326  14.431
80981W        W44705  22.566  38.325   0.908
80982W        W44706   0.761  21.038  12.027
80983W        W44707  42.932  11.131   2.709
80984W        W44708   2.898   9.687  14.331
80985W        W44709  27.596  34.084  12.579
80986W        W44710   7.404  20.197  10.497
80987W        W44711  34.411  18.629   3.174
80988W        W44712   3.325  32.113  11.410
80989W        W44713   2.829   0.769  11.381
80990W        W44714   6.190  21.099  10.440
80991W        W44715  16.603   3.865   9.921
80992W        W44716  16.177  29.035   4.745
80993W        W44717  44.271  14.314   3.215
80994W        W44718  26.007  18.269  13.861
80995W        W44719  32.887   1.961  11.914
80996W        W44720  16.136  17.568  11.552
80997W        W44721  22.131  34.949   3.691
80998W        W44722  29.471   6.916   2.372
80999W        W44723  33.972  39.819   1.886
81000W        W44724   0.774  26.145   2.358
81001W        W44725  19.663  30.027   4.666
81002W        W44726  20.615  43.950   0.882
81003W        W44727   5.716  44.955  14.902
81004W        W44728   9.179  30.504  14.437
81005W        W44729  22.083  36.459  14.772
81006W        W44730  18.081  31.996  10.067
81007W        W44731  10.862   3.832  14.890
81008W        W44732  30.492  12.346  14.365
81009W        W44733  22.656  16.073   4.297
81010W        W44734  25.631   3.364   1.736
81011W        W44735  28.660  29.634  10.474
81012W        W44736  18.738  26.490  13.488
81013W        W44737   4.421  38.421   3.779
81014W        W44738  40.958  12.222  14.353
81015W        W44739   3.345  16.214   0.771
81016W        W44740  19.732  27.028  14.515
81017W        W44741  24.015   8.368  12.933
81018W        W44742  13.305   4.840  12.831
81019W        W44743   4.386  11.627   1.837
81020W        W44744  43.964  20.610  13.028
81021W        W44745  36.909  14.687  10.622
81022W        W44746  37.341  10.772   3.372
81023W        W44747  38.333  10.793   4.758
81024W        W44748  23.235   9.675   0.332
81025W        W44749  23.582   7.813   0.856
81026W        W44750  37.015  16.598  13.062
81027W        W44751  33.033  13.347   4.690
81028W        W44752  20.607   8.180  13.320
81029W        W44753  10.368  14.691  14.806
81030W        W44754   2.412   7.398   1.874
81031W        W44755  24.110  13.707  13.522
81032W        W44756  18.065  22.122  12.972
81033W        W44757  11.763  33.493  12.040
81034W        W44758  30.112  33.885  11.093
81035W        W44759  44.409   0.938   2.221
81036W        W44760  33.493   4.381   3.268
81037W        W44761  14.631  22.171   4.680
81038W        W44762  16.105   9.828  11.074
81039W        W44763   6.214  34.985  14.787
81040W        W44764   3.309  42.296  10.523
81041W        W44765  41.789  27.958   2.730
81042W        W44766  25.980  27.197  12.388
81043W        W44767  26.025   0.769  11.926
81044W        W44768   7.713  31.093  12.573
81045W        W44769  31.485  35.040  10.417
81046W        W44770  29.108  24.584   0.967
81047W        W44771   3.273  22.081   0.910
81048W        W44772  10.713  38.427   3.297
81049W        W44773   0.751  19.642   3.654
81050W        W44774  32.469  21.231  10.097
81051W        W44775  44.869   9.775   4.123
81052W        W44776  26.141  36.997   0.807
81053W        W44777   9.885  41.857  10.538
81054W        W44778  37.347  16.720   3.683
81055W        W44779  31.507  28.108  13.483
81056W        W44780  32.433  32.890   2.686
81057W        W44781  10.269   5.750   0.350
81058W        W44782  14.312  25.620   2.881
81059W        W44783  33.012  16.171   0.409
81060W        W44784  31.413  42.341   4.751
81061W        W44785  14.097  24.216  12.550
81062W        W44786   8.287  27.550   3.260
81063W        W44787   2.967  12.202  12.986
81064W        W44788  13.630   7.722   4.612
81065W        W44789   9.170  20.101  12.017
81066W        W44790   2.357  12.724  11.401
81067W        W44791   1.732   5.745   4.305
81068W        W44792  41.474  37.441   4.741
81069W        W44793   6.848  29.608  10.640
81070W        W44794   6.409  20.745   4.122
81071W        W44795  20.225  34.007  14.434
81072W        W44796  28.975  43.839  10.635
81073W        W44797  34.583   3.392  11.000
81074W        W44798   8.293   1.920   4.826
81075W        W44799   2.936  14.200   1.779
81076W        W44800   5.806  41.830  14.023
81077W        W44801  36.351  28.960  12.923
81078W        W44802  28.585  39.908   0.908
81079W        W44803  21.199   7.330  11.063
81080W        W44804  10.731   1.861   4.769
81081W        W44805  19.598  39.330  12.010
81082W        W44806  27.690   8.373   4.675
81083W        W44807  10.173  20.605  14.434
81084W        W44808  16.746  10.776  12.385
81085W        W44809  31.419  13.229  11.604
81086W        W44810  15.143  36.465  13.367
81087W        W44811  43.982  23.692  10.641
81088W        W44812  31.564  13.826   3.675
81089W        W44813   6.401  42.788   3.231
81090W        W44814   7.794  30.078   4.826
81091W        W44815  10.353  12.836  11.388
81092W        W44816  25.529   0.878  14.515
81093W        W44817  11.805   5.390   0.450
81094W        W44818  42.788  21.549  11.390
81095W        W44819  13.646  43.903   2.862
81096W        W44820  33.042   2.435  14.812
81097W        W44821  28.615  39.542  13.536
81098W        W44822  33.464  11.258  12.506
81099W        W44823  27.650   7.827  11.073
81100W        W44824  23.051  15.233   3.366
81101W        W44825  34.554   9.879  10.448
81102W        W44826  44.342  21.547   4.272
81103W        W44827  34.082  43.320  11.553
81104W        W44828   8.300  32.105  13.985
81105W        W44829   0.908  42.909  11.982
81106W        W44830  44.787  32.093   2.310
81107W        W44831  14.337   0.834   2.824
81108W        W44832  13.245   4.266   0.958
81109W        W44833  27.958   1.462   1.291
81110W        W44834  25.058   6.374  11.876
81111W        W44835  39.878  36.482   3.242
81112W        W44836   8.236   7.804  13.813
81113W        W44837   0.767  35.092   1.759
81114W        W44838  42.501   7.301   3.777
81115W        W44839  19.098  16.574   2.782
81116W        W44840  16.716  27.525  12.376
81117W        W44841  27.026  40.435  10.459
81118W        W44842  16.813  21.065   0.323
81119W        W44843  28.137   7.710  12.365
81120W        W44844  35.490  36.946   0.944
81121W        W44845  37.462   2.933   1.212
81122W        W44846  17.607  15.798  14.873
81123W        W44847  34.492  36.046   0.324
81124W        W44848  21.686  40.825  12.577
81125W        W44849   9.221  13.654   0.817
81126W        W44850  29.105  29.456  14.990
81127W        W44851  37.397  12.664   4.661
81128W        W44852   8.654   9.378   4.190
81129W        W44853  13.111   5.227  14.407
81130W        W44854  14.332  43.983   3.837
81131W        W44855   6.814  20.581  12.503
81132W        W44856  35.867  23.671  10.484
81133W        W44857   6.317  19.653  13.830
81134W        W44858  25.129  25.164  14.793
81135W        W44859  42.353  44.984   0.936
81136W        W44860  24.575   6.212   3.227
81137W        W44861  36.380  14.263  12.453
81138W        W44862  21.184  28.520   4.815
81139W        W44863  32.472  42.805   1.838
81140W        W44864  21.681  13.607   1.723
81141W        W44865  37.025  41.914   1.791
81142W        W44866   6.381   0.456   4.714
81143W        W44867  21.635  22.136  12.957
81144W        W44868  12.312  42.366   3.205
81145W        W44869  40.945  33.942   0.829
81146W        W44870  12.203  13.698  14.995
81147W        W44871  16.111   5.780   1.375
81148W        W44872   2.853  31.619   1.805
81149W        W44873   0.917   7.907   0.284
81150W        W44874  25.150  31.614   0.277
81151W        W44875   7.777  35.392  13.477
81152W        W44876  32.590  42.456  14.459
81153W        W44877  20.596  22.666  14.912
81154W        W44878  23.679  30.548  12.485
81155W        W44879  18.188  32.042  14.028
81156W        W44880   1.934  29.426  14.975
81157W        W44881  30.619   0.878   2.394
81158W        W44882   0.315  18.283   1.722
81159W        W44883   7.875  14.688  13.791
81160W        W44884   5.696  38.009   3.276
81161W        W44885  17.591  20.202  14.924
81162W        W44886  10.311  18.590   0.891
81163W        W44887  43.481  37.435   2.874
81164W        W44888  16.250  23.157   1.783
81165W        W44889  21.118  35.495  12.056
81166W        W44890  39.854  42.518  14.432
81167W        W44891  33.940  33.606   1.720
81168W        W44892  30.038   6.385   2.406
81169W        W44893   9.876  44.465  11.076
81170W        W44894  44.988  34.001   1.788
81171W        W44895  43.994   1.899   4.690
81172W        W44896  27.013  36.530   1.755
81173W        W44897   9.174  30.528   0.251
81174W        W44898  28.125  44.336   0.390
81175W        W44899  16.143  18.277   1.869
81176W        W44900  16.578  39.492   2.398
81177W        W44901  37.425  31.128   1.916
81178W        W44902  39.372  18.215   0.270
81179W        W44903  27.195  12.305  11.554
81180W        W44904  41.419  26.554  14.459
81181W        W44905  40.951  24.123  11.528
81182W        W44906  17.296  34.093   0.891
81183W        W44907   6.286  19.206   1.888
81184W        W44908  23.698  13.305   0.259
81185W        W44909  40.022  32.447   1.914
81186W        W44910  39.832   6.890   1.873
81187W        W44911   8.707   2.899  14.514
81188W        W44912  41.861  26.611   1.303
81189W        W44913  25.538  17.622   1.747
81190W        W44914   7.728  22.085  13.479
81191W        W44915  19.575  29.170   1.374
81192W        W44916  34.049  19.270  11.952
81193W        W44917  10.769   7.327   2.418
81194W        W44918  43.437  17.085  11.603
81195W        W44919  14.290  35.587   1.328
81196W        W44920  41.391  36.062   3.847
81197W        W44921  14.198  35.008   2.802
81198W        W44922  44.985  27.561   4.800
81199W        W44923   8.730  34.457   2.774
81200W        W44924  33.493  32.074  13.934
81201W        W44925  16.256  33.929   4.779
81202W        W44926  34.374   0.263   1.833
81203W        W44927   7.314  43.270  12.528
81204W        W44928  43.895  22.007  11.968
81205W        W44929   8.192  24.129  14.469
81206W        W44930  11.811  35.896   1.281
81207W        W44931  40.524  38.848   2.262
81208W        W44932  13.281   7.697   2.218
81209W        W44933   1.237  28.969  11.513
81210W        W44934  28.033  23.611   3.357
81211W        W44935   8.402  29.040  12.953
81212W        W44936  41.998  33.536  12.561
81213W        W44937  39.051  44.896   3.378
81214W        W44938  40.935   1.923   0.784
81215W        W44939   3.358  19.091   2.792
81216W        W44940   1.795   0.369   4.322
81217W        W44941   6.318  41.446  12.893
81218W        W44942   0.943  36.856  14.319
81219W        W44943  25.145  24.006  14.418
81220W        W44944  44.815  18.680  13.908
81221W        W44945   2.341  24.021  13.439
81222W        W44946  16.302  41.345  11.862
81223W        W44947  36.573  12.308   1.372
81224W        W44948  11.289  13.687  12.069
81225W        W44949  18.215  19.540   4.304
81226W        W44950  35.059  44.483   0.766
81227W        W44951  35.859  43.975   3.760
81228W        W44952  29.128  17.782  13.356
81229W        W44953  37.071   0.948  13.406
81230W        W44954  32.919  39.549   0.761
81231W        W44955  42.380  31.595  13.938
81232W        W44956  22.193  36.503   2.810
81233W        W44957   6.799  23.212   0.388
81234W        W44958  26.982  28.629  13.452
81235W        W44959  30.485  11.171  14.282
81236W        W44960   8.260   0.868  12.414
81237W        W44961  10.854  34.956  13.934
81238W        W44962  35.498  41.856  11.401
81239W        W44963  22.737  23.177  13.449
81240W        W44964  39.951  28.451   4.324
81241W        W44965  32.023  10.193   4.823
81242W        W44966  42.437  41.967  10.930
81243W        W44967  29.118   2.250  14.291
81244W        W44968  38.357  19.223  10.987
81245W        W44969   6.245  12.238   4.329
81246W        W44970  43.968  25.963   4.712
81247W        W44971  20.142  30.046   0.348
81248W        W44972  13.151  37.957   1.768
81249W        W44973  36.000  33.582  12.031
81250W        W44974  26.158  42.486   1.425
81251W        W44975  28.668  23.639   1.301
81252W        W44976  21.516  30.020  13.498
81253W        W44977  41.479   1.403   4.817
81254W        W44978   3.350  22.704   1.818
81255W        W44979  21.123  38.948  12.468
81256W        W44980  33.513  20.614   1.429
81257W        W44981  34.472  30.026  12.848
81258W        W44982  38.516  29.425   1.326
81259W        W44983  33.081  23.221   3.185
81260W        W44984  42.818   5.693   0.472
81261W        W44985  17.261  34.983   3.785
81262W        W44986  14.716  24.661   3.707
81263W        W44987  33.048  18.104   4.123
81264W        W44988  25.048  42.936  14.430
81265W        W44989  33.481  26.636  12.834
81266W        W44990  10.770  14.164  14.497
81267W        W44991   3.242  16.782   1.448
81268W        W44992  27.620  18.225   3.813
81269W        W44993  10.751  43.407   1.395
81270W        W44994   3.338  22.509   0.267
81271W        W44995   0.485  24.692  14.009
81272W        W44996  25.045  21.172  11.025
81273W        W44997  21.513  37.924   5.243
81274W        W44998  37.874  35.604   1.747
81275W        W44999  29.145  12.147   1.832
81276W        W45000  37.509  24.512  12.913
81277W        W45001  13.700  14.691   1.861
81278W        W45002   9.742  24.122  12.482
81279W        W45003   8.901   4.318   3.350
81280W        W45004  34.870  22.224   3.753
81281W        W45005  15.207   1.913   0.471
81282W        W45006  16.693  16.614  14.822
81283W        W45007  24.647  25.473  13.835
81284W        W45008   9.151   8.179   0.757
81285W        W45009   9.362  22.089  12.072
81286W        W45010  14.650  11.801  10.074
81287W        W45011  43.332  14.284  14.030
81288W        W45012   0.918  17.230   1.732
81289W        W45013   7.804  34.469   1.436
81290W        W45014  10.866  37.948   1.419
81291W        W45015   0.314  18.267   0.482
81292W        W45016  44.484  41.018   4.334
81293W        W45017  19.717  12.684  13.503
81294W        W45018  29.618   6.387   0.750
81295W        W45019  23.540  34.563  12.439
81296W        W45020  37.012   1.440  11.935
81297W        W45021  30.646  28.476  11.586
81298W        W45022  41.990  37.933   1.783
81299W        W45023  25.133  11.183   1.285
81300W        W45024   6.403  25.199  12.854
81301W        W45025  25.489  15.749  12.845
81302W        W45026  35.991  19.722   2.853
81303W        W45027  31.513  33.406   3.223
81304W        W45028  11.365  42.392   2.391
81305W        W45029  44.420  39.447   3.765
81306W        W45030  36.048  38.570  13.343
81307W        W45031  35.564   9.753  12.018
81308W        W45032  44.817  20.167   3.194
81309W        W45033  33.414  37.871   3.220
81310W        W45034  22.176   4.812  11.500
81311W        W45035  39.420  25.175  14.873
81312W        W45036   9.709  10.823   3.767
81313W        W45037  31.002   5.724   3.712
81314W        W45038  16.277  25.150   3.166
81315W        W45039  34.945  23.586   3.295
81316W        W45040  27.483   0.332  14.957
81317W        W45041  40.010  43.350   4.194
81318W        W45042  40.856  17.088   4.678
81319W        W45043  17.185  24.150   1.715
81320W        W45044   3.447  21.036   1.374
81321W        W45045   2.372  13.279   5.257
81322W        W45046  32.975   1.476   3.184
81323W        W45047  14.655   0.431   1.351
81324W        W45048  30.947  29.096  13.995
81325W        W45049  23.532  10.766  13.342
81326W        W45050  44.814  23.540   2.376
81327W        W45051   3.317  24.181  12.387
81328W        W45052  11.325   2.438  10.508
81329W        W45053  13.660   9.392   2.888
81330W        W45054  29.464  44.883  12.413
81331W        W45055  27.031   3.915  13.411
81332W        W45056  28.980  14.136  12.445
81333W        W45057   3.306  36.050  13.402
81334W        W45058  29.467  40.887  10.632
81335W        W45059   9.673  31.418   1.871
81336W        W45060  32.021  36.575  14.029
81337W        W45061   6.202   0.876  14.858
81338W        W45062  21.677  15.624   0.751
81339W        W45063  25.162  13.822  13.019
81340W        W45064  43.285  27.636   3.203
81341W        W45065  21.749  30.051  11.416
81342W        W45066  10.154  11.744  10.561
81343W        W45067  28.978  34.589  11.942
81344W        W45068  23.501   6.354  12.888
81345W        W45069   0.352   7.674  13.392
81346W        W45070  34.085  30.990  12.372
81347W        W45071  30.045  38.361  12.489
81348W        W45072   4.409  43.382  11.940
81349W        W45073  34.948  22.638  14.806
81350W        W45074  20.157  32.607   2.254
81351W        W45075  39.030  21.599   4.807
81352W        W45076   9.320  38.365  14.413
81353W        W45077   9.840  28.502   3.784
81354W        W45078  12.146  16.639  13.389
81355W        W45079   0.980  36.065   3.354
81356W        W45080  33.980  38.537  11.510
81357W        W45081  12.755  19.050   2.218
81358W        W45082  31.903  23.489   1.800
81359W        W45083  18.162  35.481  11.452
81360W        W45084  20.669  23.239  11.097
81361W        W45085  38.494  19.638   1.300
81362W        W45086  40.415   6.228  13.387
81363W        W45087   9.742   7.672  11.453
81364W        W45088  32.086  13.641  11.865
81365W        W45089  20.190  17.787   2.416
81366W        W45090  15.637  38.000   4.649
81367W        W45091  19.637   4.872   0.328
81368W        W45092  15.301  10.736   3.680
81369W        W45093   2.286  25.032  12.546
81370W        W45094  34.027  39.850   1.296
81371W        W45095  14.712  14.300  10.522
81372W        W45096  42.333  17.730   2.199
81373W        W45097   5.242  44.803   3.371
81374W        W45098  15.582   2.780  14.338
81375W        W45099  35.440   9.357   0.906
81376W        W45100  28.657  16.759   0.895
81377W        W45101  32.481  29.143   3.630
81378W        W45102  37.531  21.108   5.187
81379W        W45103  31.919  11.636  14.451
81380W        W45104   2.398   8.401   4.325
81381W        W45105   1.338   9.676  10.517
81382W        W45106  22.615  18.611   3.681
81383W        W45107   6.227  40.857  14.873
81384W        W45108  16.296  17.299   4.683
81385W        W45109  32.437  42.789  10.509
81386W        W45110   1.434   2.339   0.250
81387W        W45111   3.410  31.462  11.012
81388W        W45112  37.581   0.427  14.867
81389W        W45113  38.480  42.376  14.376
81390W        W45114  27.534   6.242   0.881
81391W        W45115  34.026  12.182  10.410
81392W        W45116   8.789  32.128  13.930
81393W        W45117  28.063  11.248   0.454
81394W        W45118  32.633  21.705   1.848
81395W        W45119  19.728  22.704  13.866
81396W        W45120  10.384   0.249   2.722
81397W        W45121  20.539  24.083   3.671
81398W        W45122   6.231  38.460  10.582
81399W        W45123  23.115  14.742   1.862
81400W        W45124   8.255  12.356  12.036
81401W        W45125  17.606  35.496   1.216
81402W        W45126  23.502   9.339   4.619
81403W        W45127  36.946   7.857  14.914
81404W        W45128   0.363   1.434  14.383
81405W        W45129  24.092  34.474   4.153
81406W        W45130  36.046  23.181   2.351
81407W        W45131  31.059  37.076   3.868
81408W        W45132  16.163  32.519   0.328
81409W        W45133  41.963  30.025   4.804
81410W        W45134  36.386  30.046  10.916
81411W        W45135  23.154  17.556  11.422
81412W        W45136  12.627  38.840  14.439
81413W        W45137   2.345  10.150  10.984
81414W        W45138  40.317  17.162   5.251
81415W        W45139  19.578   2.323  13.336
81416W        W45140   0.268   4.325  10.639
81417W        W45141  35.073  15.718   5.294
81418W        W45142   6.382   1.937  12.086
81419W        W45143   3.796  22.569   3.808
81420W        W45144  36.549  10.661  10.468
81421W        W45145   5.286  35.081  10.986
81422W        W45146  17.607   7.768   0.804
81423W        W45147  40.883  36.866  13.355
81424W        W45148  10.741   1.356   0.422
81425W        W45149   6.225  43.358   0.844
81426W        W45150  44.400   1.418   0.879
81427W        W45151  44.301  24.083  14.832
81428W        W45152  44.483  32.951  12.346
81429W        W45153   0.310  39.388  10.424
81430W        W45154   8.314  17.654  11.520
81431W        W45155  12.636   8.660  14.360
81432W        W45156   6.837  19.610   1.856
81433W        W45157  24.557  30.929   1.308
81434W        W45158  21.544   2.751  12.411
81435W        W45159  28.013  44.777  14.407
81436W        W45160   7.909  32.891  12.432
81437W        W45161   4.715  21.222   4.725
81438W        W45162  36.394   3.719  14.285
81439W        W45163  36.010  11.722   3.643
81440W        W45164   9.690  18.659   1.294
81441W        W45165  24.095   7.737   0.360
81442W        W45166  13.816  41.840   1.921
81443W        W45167  12.810  23.729  14.881
81444W        W45168  15.269  22.041   4.782
81445W        W45169  28.014  25.653  11.857
81446W        W45170  30.999   0.978   0.444
81447W        W45171  42.298  21.601   1.216
81448W        W45172  37.398  24.120  10.966
81449W        W45173  22.071  35.009  11.020
81450W        W45174  12.279  19.710   3.280
81451W        W45175  16.762   6.773  12.397
81452W        W45176  37.364   6.318   1.720
81453W        W45177  42.861  24.631  12.844
81454W        W45178   3.829  30.455  13.534
81455W        W45179  34.076  33.978  14.484
81456W        W45180   2.843  39.546   1.702
81457W        W45181  10.343  26.503   1.258
81458W        W45182  39.914   9.706   4.354
81459W        W45183  12.356   6.374  14.925
81460W        W45184  16.596  16.284  14.979
81461W        W45185   6.698  41.865  10.466
81462W        W45186  30.475  32.910   3.148
81463W        W45187  41.914  30.623  11.070
81464W        W45188  27.080   6.803  11.961
81465W        W45189  13.742  18.246   3.855
81466W        W45190  28.501  34.614  11.928
81467W        W45191   2.442  27.148   2.185
81468W        W45192  39.417   9.278   3.797
81469W        W45193  12.119  42.841   1.748
81470W        W45194   1.765  11.286  14.331
81471W        W45195   1.260  26.641   4.715
81472W        W45196  11.257  22.242   3.816
81473W        W45197   0.487  16.706  14.857
81474W        W45198   5.844  29.537  14.930
81475W        W45199   0.930  12.756   0.419
81476W        W45200  43.348  24.581  11.523
81477W        W45201  18.077  13.149  14.851
81478W        W45202   3.351  36.572   2.742
81479W        W45203  42.796  34.998   0.924
81480W        W45204  13.682  30.496  10.419
81481W        W45205  17.270  12.678   5.290
81482W        W45206   4.943  36.892  13.863
81483W        W45207  10.188  28.637  13.538
81484W        W45208  13.267  23.589  14.015
81485W        W45209  23.669  14.112  13.061
81486W        W45210  23.143  44.870   3.227
81487W        W45211   3.913   6.323  10.990
81488W        W45212  23.534  34.032   2.265
81489W        W45213   9.880   8.831   5.299
81490W        W45214  31.106   9.275   0.769
81491W        W45215  41.930  26.014   1.767
81492W        W45216  18.725  33.964   0.365
81493W        W45217  32.069  17.647   4.334
81494W        W45218  12.714   4.934  14.361
81495W        W45219   1.976  39.411  12.060
81496W        W45220  30.437  33.003   4.305
81497W        W45221  18.119  19.574  10.936
81498W        W45222  41.987   2.469   4.697
81499W        W45223  44.846  15.609   3.382
81500W        W45224  33.408  34.605  14.285
81501W        W45225   3.830  22.678  14.891
81502W        W45226  44.917  13.149   3.715
81503W        W45227  38.540  28.576  14.022
81504W        W45228  16.583  44.892  10.961
81505W        W45229  16.731  28.128  10.973
81506W        W45230  16.776  42.887  14.426
81507W        W45231  29.597   0.486   0.428
81508W        W45232  33.466   8.820  10.070
81509W        W45233  15.254  27.558  14.443
81510W        W45234  20.170  16.261   2.752
81511W        W45235  25.065  40.877   3.857
81512W        W45236   5.386   4.355   4.788
81513W        W45237   2.376  12.283  11.511
81514W        W45238  40.419  12.176  11.083
81515W        W45239  21.241  30.090  11.474
81516W        W45240  30.965  26.513   0.825
81517W        W45241  23.676   4.753   2.687
81518W        W45242   3.310  10.195   0.855
81519W        W45243  40.924  41.363   0.753
81520W        W45244  23.647  26.530   1.221
81521W        W45245  23.504  12.627   0.359
81522W        W45246  14.165  37.442  11.468
81523W        W45247   3.924   2.345   0.885
81524W        W45248  42.376  22.547   4.229
81525W        W45249  33.053  10.368   1.883
81526W        W45250   0.913  37.941   0.912
81527W        W45251   5.729  22.537   2.734
81528W        W45252  20.605   6.341   0.958
81529W        W45253   2.392  20.267  12.960
81530W        W45254   8.209   3.321   4.231
81531W        W45255  36.052  38.430  10.459
81532W        W45256  42.993  14.125   1.829
81533W        W45257   7.355  24.694  10.964
81534W        W45258  30.620  26.670   3.857
81535W        W45259  32.119  13.831   4.669
81536W        W45260  14.729  43.320   0.903
81537W        W45261  39.064  41.430  12.851
81538W        W45262  43.419  20.533   4.789
81539W        W45263  30.970  22.707   3.730
81540W        W45264  21.581  22.119   2.375
81541W        W45265  20.622  30.430  13.839
81542W        W45266  30.123  22.247   2.662
81543W        W45267  30.511  32.630  13.491
81544W        W45268   2.351   5.882  10.906
81545W        W45269   7.232  42.302   1.337
81546W        W45270  19.256  20.182  13.920
81547W        W45271  31.094  24.662  14.939
81548W        W45272  31.614  20.028   4.187
81549W        W45273   1.387  21.064  14.456
81550W        W45274  16.103   6.261   2.867
81551W        W45275  32.422  11.279   2.831
81552W        W45276  28.105  14.775  10.467
81553W        W45277  22.247  40.391   1.807
81554W        W45278  13.794  16.580  10.982
81555W        W45279  21.204   3.867  11.910
81556W        W45280   5.759  13.837  12.570
81557W        W45281  28.524  13.805   2.816
81558W        W45282  26.701  22.105  14.404
81559W        W45283  13.604   4.888  14.411
81560W        W45284  40.943  44.359  10.615
81561W        W45285  21.122  44.277   1.737
81562W        W45286  25.194  36.351  13.908
81563W        W45287   1.789  10.876  13.866
81564W        W45288  37.348   8.772  12.996
81565W        W45289   4.758  42.838  13.448
81566W        W45290  33.552  26.059  13.834
81567W        W45291  35.426  31.598  12.838
81568W        W45292  35.379   2.283  10.469
81569W        W45293   0.975  11.787  10.083
81570W        W45294  30.063  12.195   2.848
81571W        W45295  30.032  22.128   4.315
81572W        W45296  27.984  31.580  13.997
81573W        W45297  21.544   8.311   1.864
81574W        W45298  32.094  38.558   4.636
81575W        W45299   9.795  19.584   3.192
81576W        W45300  19.739  42.804   4.325
81577W        W45301  21.017  30.029   1.306
81578W        W45302   6.355  32.895   4.767
81579W        W45303  34.875  22.078   2.693
81580W        W45304  15.201  42.983   5.099
81581W        W45305  10.845   4.753   1.297
81582W        W45306  22.638  38.884  14.956
81583W        W45307  40.920  17.268   1.800
81584W        W45308  11.622  24.481  13.036
81585W        W45309  19.236  17.206  11.448
81586W        W45310  36.070  28.133  11.439
81587W        W45311  23.579   1.250   2.347
81588W        W45312  33.520  30.059  10.966
81589W        W45313  11.689  33.595   0.468
81590W        W45314  43.876  26.036   4.188
81591W        W45315  24.529   1.819   2.671
81592W        W45316  42.828   9.298  12.955
81593W        W45317  33.955   9.251   2.842
81594W        W45318  20.542  38.883  11.411
81595W        W45319  37.077  31.577   0.407
81596W        W45320  23.685  38.349  14.806
81597W        W45321  32.074   9.283  13.357
81598W        W45322  16.216  37.400   2.238
81599W        W45323  36.514   9.183  11.989
81600W        W45324  25.662  30.434   1.413
81601W        W45325  16.678  29.931  12.848
81602W        W45326  40.849  24.635   9.647
81603W        W45327  28.612  17.090  14.374
81604W        W45328  35.508   5.805  11.932
81605W        W45329  23.058  36.896  11.542
81606W        W45330  44.425  24.603  12.887
81607W        W45331   0.930   9.886   2.670
81608W        W45332   8.314  43.874  12.043
81609W        W45333  31.931  29.092   1.241
81610W        W45334  26.986  37.540  11.943
81611W        W45335  10.161   9.698  14.304
81612W        W45336  28.513  22.609   0.878
81613W        W45337  43.488  31.426  13.945
81614W        W45338  20.046  10.221   2.673
81615W        W45339  37.057  25.548  12.010
81616W        W45340   1.379  32.911   0.872
81617W        W45341  22.666  28.636  13.484
81618W        W45342  18.776  42.460   3.289
81619W        W45343  12.199   9.323   1.886
81620W        W45344  20.071  38.869   3.370
81621W        W45345  41.878  15.622   2.257
81622W        W45346  13.334  10.775   4.316
81623W        W45347  16.116   8.824  10.957
81624W        W45348  26.504  14.684   0.816
81625W        W45349   4.892  33.906  12.441
81626W        W45350   7.387  44.819   2.705
81627W        W45351  21.165  13.795  13.923
81628W        W45352  43.955  10.265  14.877
81629W        W45353  40.420  17.115  13.312
81630W        W45354  32.498  41.410   0.268
81631W        W45355  30.634  33.888  11.398
81632W        W45356   6.394   8.160  11.607
81633W        W45357   4.409  15.708  11.952
81634W        W45358  20.101  24.694   3.277
81635W        W45359   3.937  19.156  12.059
81636W        W45360  31.099  16.603   2.762
81637W        W45361  10.741  44.863   1.868
81638W        W45362  33.964  20.592  10.963
81639W        W45363  14.706  10.167   0.454
81640W        W45364   6.893  29.971   2.181
81641W        W45365  40.829  22.167   5.197
81642W        W45366   7.253  34.102  14.350
81643W        W45367  11.209  43.851   3.146
81644W        W45368  41.346  25.566   2.849
81645W        W45369   7.276  15.276  12.441
81646W        W45370  10.644  10.750  10.129
81647W        W45371  16.157  38.567  11.552
81648W        W45372  38.951  20.544  11.567
81649W        W45373   2.283  40.447   2.301
81650W        W45374  24.030  10.730  14.488
81651W        W45375  10.831  14.668  14.486
81652W        W45376  13.599  44.468  11.388
81653W        W45377  39.478  21.160  12.023
81654W        W45378  21.099  17.701   0.774
81655W        W45379  13.693   0.420  12.082
81656W        W45380  19.713   8.342   1.728
81657W        W45381  27.960   3.338   4.659
81658W        W45382  38.402  26.518  13.045
81659W        W45383  10.381  36.996   3.215
81660W        W45384  42.460   2.408  13.420
81661W        W45385  39.377  16.188  11.970
81662W        W45386  31.408  25.211   1.409
81663W        W45387   1.852  36.971  14.330
81664W        W45388  17.208   2.439   3.744
81665W        W45389   4.737  41.503  10.416
81666W        W45390  21.071  34.426   1.741
81667W        W45391  12.141  21.112  10.529
81668W        W45392  41.964  38.885  11.612
81669W        W45393  26.989  29.485   0.795
81670W        W45394  14.773  25.986  10.987
81671W        W45395  20.651   0.751   1.407
81672W        W45396   8.791  19.244   2.877
81673W        W45397  38.860   4.228  13.031
81674W        W45398  14.144  13.697  12.346
81675W        W45399  41.514   7.269   4.304
81676W        W45400  31.568  10.798   3.829
81677W        W45401  19.568   8.296   2.805
81678W        W45402   8.358   4.910   3.330
81679W        W45403  18.189  38.507  14.853
81680W        W45404  19.141  18.264   1.710
81681W        W45405  28.134  23.570   0.267
81682W        W45406  36.010  39.908  12.896
81683W        W45407  24.642  40.002   2.343
81684W        W45408  34.983  42.816   3.736
81685W        W45409   2.776  44.356  14.925
81686W        W45410  28.140  25.113  11.507
81687W        W45411  14.177   4.705   3.169
81688W        W45412   5.387  29.431  12.404
81689W        W45413  24.090  14.128   3.845
81690W        W45414   3.321  44.442  13.426
81691W        W45415  43.273   8.792   1.874
81692W        W45416   5.427  21.062  14.428
81693W        W45417   2.240  31.089  13.366
81694W        W45418  11.673  28.475   3.785
81695W        W45419  44.375   5.219  11.484
81696W        W45420  38.395  17.667  11.127
81697W        W45421  34.094  18.631   2.412
81698W        W45422  14.589  37.437   0.481
81699W        W45423  24.495   9.864  11.427
81700W        W45424  29.644  22.675   1.217
81701W        W45425   8.665  38.423  11.470
81702W        W45426  16.282  21.751  14.285
81703W        W45427   4.219  30.492   3.793
81704W        W45428  42.935  31.547   0.389
81705W        W45429  42.785  22.101   2.703
81706W        W45430   2.952   6.841   2.206
81707W        W45431   1.317   2.772  13.478
81708W        W45432  15.150  39.325   4.137
81709W        W45433  37.082  25.096  12.872
81710W        W45434  19.041  10.291  13.495
81711W        W45435  44.457  31.437   2.290
81712W        W45436   6.680  37.442   5.157
81713W        W45437  10.162  29.030  10.460
81714W        W45438  13.662  38.395  10.629
81715W        W45439   4.225  35.935  14.910
81716W        W45440  20.068   5.767  12.416
81717W        W45441  35.088  39.437  12.501
81718W        W45442  34.114   3.376   2.736
81719W        W45443  44.883  24.641   0.360
81720W        W45444  18.106   3.271  14.823
81721W        W45445  32.070  43.433  11.039
81722W        W45446   2.960  27.663  12.981
81723W        W45447  31.928   0.385  13.481
81724W        W45448  11.355   6.256   4.743
81725W        W45449  30.131   5.309   2.252
81726W        W45450  15.327  19.196   2.786
81727W        W45451  11.309  35.886   2.223
81728W        W45452  39.984   0.396  13.962
81729W        W45453   1.277  26.687  13.315
81730W        W45454  32.058  21.671  14.816
81731W        W45455  31.005  20.599   4.693
81732W        W45456  13.627   2.825   2.834
81733W        W45457   8.719  10.649  11.080
81734W        W45458  27.553   1.290  13.832
81735W        W45459  10.299  36.584   0.470
81736W        W45460  41.326  10.215  14.340
81737W        W45461  38.392  15.142   3.825
81738W        W45462   5.258   1.239  13.415
81739W        W45463   4.795  17.145   4.179
81740W        W45464  15.262  23.228  13.395
81741W        W45465  34.925  19.132  14.781
81742W        W45466  43.485   2.947   2.747
81743W        W45467   9.163  37.456  11.597
81744W        W45468  40.445   5.913   2.715
81745W        W45469  40.328   4.305   2.842
81746W        W45470  35.423  36.352  13.310
81747W        W45471  42.468  41.954  10.563
81748W        W45472  24.096   8.771   2.383
81749W        W45473  40.420  19.773  11.379
81750W        W45474   2.395  34.497  12.011
81751W        W45475  37.861  29.099   3.318
81752W        W45476  44.816  41.039  11.419
81753W        W45477   5.247  25.007   1.227
81754W        W45478  20.612   5.290  12.854
81755W        W45479  36.869   6.244  12.968
81756W        W45480  38.369  15.245   1.368
81757W        W45481  32.111  42.986   3.764
81758W        W45482  32.960  38.484  12.528
81759W        W45483  32.050  12.614   2.837
81760W        W45484  30.097  11.663   1.270
81761W        W45485  40.850   4.762   0.950
81762W        W45486  22.035  31.151  14.343
81763W        W45487  39.890  14.612  13.338
81764W        W45488  31.910   4.737   3.768
81765W        W45489  16.783   1.894  14.466
81766W        W45490  42.827  16.110   0.775
81767W        W45491  22.542  31.469   4.709
81768W        W45492  31.131  29.000   3.314
81769W        W45493   1.435  33.526  13.501
81770W        W45494   8.712   0.808  13.443
81771W        W45495  25.542  41.891   1.850
81772W        W45496  35.441  23.026  12.422
81773W        W45497  11.313   9.288  10.902
81774W        W45498  11.629  20.616  13.830
81775W        W45499  10.384  37.859   4.349
81776W        W45500  32.947  15.099  13.309
81777W        W45501   1.417  24.169   1.405
81778W        W45502  26.992  36.369   4.136
81779W        W45503  24.690  32.500  12.946
81780W        W45504   8.393   5.218   3.865
81781W        W45505   1.952  40.391   3.197
81782W        W45506   3.348  10.869   1.264
81783W        W45507  23.050   7.797  12.917
81784W        W45508  34.401  44.275  12.472
81785W        W45509  29.479  15.261  11.570
81786W        W45510  23.653  44.756   4.175
81787W        W45511   9.834  15.700  13.804
81788W        W45512   5.872  28.174   0.793
81789W        W45513   1.912  14.799   1.443
81790W        W45514  22.736  16.702  14.917
81791W        W45515   8.195  15.590   0.468
81792W        W45516   6.196  28.622  11.551
81793W        W45517  25.181  42.812  11.519
81794W        W45518  44.322  14.721   1.793
81795W        W45519   0.979  35.999   4.229
81796W        W45520   4.718  34.005   0.401
81797W        W45521  36.354  24.489  13.953
81798W        W45522  18.282  15.604  12.053
81799W        W45523   4.920  23.733   0.376
81800W        W45524   6.865  19.053  14.278
81801W        W45525   6.831   2.778   1.268
81802W        W45526  18.771  38.915   2.393
81803W        W45527  21.652   5.382   3.689
81804W        W45528  35.974  10.675  14.456
81805W        W45529  16.210  30.535  11.019
81806W        W45530   2.833  19.763  13.827
81807W        W45531  41.513  16.184  13.485
81808W        W45532  14.319  38.478   3.725
81809W        W45533   8.887   2.380  12.967
81810W        W45534  40.801   3.270   4.670
81811W        W45535  13.319  31.037  13.362
81812W        W45536  40.312  11.169  11.062
81813W        W45537  18.076  12.283   3.382
81814W        W45538   7.186  21.536  10.500
81815W        W45539   9.390  39.387   2.196
81816W        W45540  29.983  27.528  11.054
81817W        W45541   9.670   9.798   0.933
81818W        W45542  18.764  11.730  11.529
81819W        W45543  13.613  14.309  10.537
81820W        W45544   2.233  43.396   4.661
81821W        W45545  21.713   5.255   1.929
81822W        W45546   4.827  14.818   0.914
81823W        W45547  44.308  19.183   1.257
81824W        W45548  21.612  38.023   1.380
81825W        W45549   4.393  29.948  10.604
81826W        W45550  28.620  14.224   3.238
81827W        W45551  36.926  30.154  11.122
81828W        W45552  34.019  31.013   4.261
81829W        W45553   7.812  36.054   3.760
81830W        W45554  12.129   7.774   3.306
81831W        W45555  32.436  31.119   4.299
81832W        W45556  20.212  42.393   0.957
81833W        W45557  43.314  20.592  12.430
81834W        W45558  11.777   2.893  12.053
81835W        W45559   8.877  21.569   0.877
81836W        W45560  33.985  24.656  14.418
81837W        W45561  12.325   2.443   0.755
81838W        W45562  30.658   8.389  14.874
81839W        W45563   3.388  10.354   3.772
81840W        W45564  27.461  43.323  11.482
81841W        W45565  42.960  24.020  12.001
81842W        W45566  26.571  43.867  10.130
81843W        W45567  43.459  34.927  13.989
81844W        W45568  11.696   3.356   3.258
81845W        W45569  11.778   5.761   9.975
81846W        W45570  30.509  11.204  14.824
81847W        W45571  36.572  26.977   2.819
81848W        W45572   1.933  13.798   4.337
81849W        W45573  16.716  24.191   2.377
81850W        W45574  31.930  15.806  13.898
81851W        W45575   4.399  33.888  11.373
81852W        W45576  31.535  36.563   3.809
81853W        W45577  11.191   8.863  12.056
81854W        W45578   9.175  11.647   0.835
81855W        W45579   4.291  42.304  10.941
81856W        W45580  36.510   4.448   0.360
81857W        W45581  35.037  37.975   1.755
81858W        W45582  32.952  30.546   2.292
81859W        W45583  30.560   2.283  10.964
81860W        W45584  25.033  21.044  10.629
81861W        W45585   3.270  12.749   2.350
81862W        W45586  38.503  39.982  12.860
81863W        W45587  22.067  14.326  11.948
81864W        W45588   3.287   4.303  13.500
81865W        W45589  24.013  38.559  10.591
81866W        W45590   5.832  12.637  11.104
81867W        W45591   8.363   1.340  12.377
81868W        W45592   3.446  32.888  12.841
81869W        W45593   6.412  42.823   0.783
81870W        W45594  10.306   5.749   4.260
81871W        W45595  41.007  25.096  13.410
81872W        W45596  42.812   3.848  13.846
81873W        W45597   8.226  32.504  14.812
81874W        W45598  40.534   9.273   1.698
81875W        W45599  42.341  19.765  12.883
81876W        W45600   2.912  19.192   2.779
81877W        W45601  17.778  13.272  10.936
81878W        W45602  30.037   8.401   1.298
81879W        W45603  43.992  44.488   2.243
81880W        W45604  20.222  10.198  11.879
81881W        W45605   5.310  18.554   0.876
81882W        W45606  25.101  26.964  13.418
81883W        W45607  22.634  15.706   9.939
81884W        W45608  36.908   0.474   3.726
81885W        W45609   5.703  35.075   3.812
81886W        W45610  25.632  33.416  14.890
81887W        W45611  34.115   1.259  13.822
81888W        W45612   0.833  35.579   0.336
81889W        W45613  38.413   7.354   0.294
81890W        W45614  34.467  39.320  14.024
81891W        W45615  30.605  23.145  14.800
81892W        W45616  33.570  19.174  11.874
81893W        W45617  41.850  27.616  13.378
81894W        W45618  19.538   5.870   2.895
81895W        W45619  16.611  35.927  11.984
81896W        W45620   1.432  10.249   4.751
81897W        W45621  40.987  24.490  14.309
81898W        W45622   0.929  28.082  11.100
81899W        W45623   5.816  19.577   3.733
81900W        W45624  36.433  31.904   3.291
81901W        W45625  41.814  20.706  12.929
81902W        W45626   5.300  18.577   4.240
81903W        W45627   7.257  36.536  14.990
81904W        W45628  14.815  36.347   0.337
81905W        W45629  27.574   3.838   4.612
81906W        W45630  14.820   6.254  13.349
81907W        W45631  42.032  35.543   0.248
81908W        W45632  20.064  13.262  13.469
81909W        W45633  13.604  32.059   4.712
81910W        W45634  14.321  33.483  10.891
81911W        W45635  28.020   5.370  12.845
81912W        W45636  28.969  10.308   2.229
81913W        W45637  42.394  13.348  12.018
81914W        W45638  11.174  30.121  12.874
81915W        W45639  18.169  17.674  12.961
81916W        W45640  35.533  17.097   1.833
81917W        W45641  17.778  19.085  13.903
81918W        W45642  41.347  44.321  11.976
81919W        W45643   6.418  38.991  12.052
81920W        W45644  18.157   1.450  14.004
81921W        W45645   1.944  38.416  10.609
81922W        W45646  30.416   4.339   3.673
81923W        W45647   7.327  14.167  12.877
81924W        W45648  25.606  39.557  11.051
81925W        W45649  43.920  19.673   1.377
81926W        W45650  31.645   2.238  10.519
81927W        W45651  13.119  29.063  14.294
81928W        W45652  44.468  42.370  10.896
81929W        W45653   0.900  26.190   0.918
81930W        W45654   1.839  26.127  11.578
81931W        W45655  43.324   6.889  12.424
81932W        W45656   4.755  25.626   4.830
81933W        W45657  28.982   0.982  11.857
81934W        W45658  41.492  12.852   2.790
81935W        W45659  20.164  15.166   2.797
81936W        W45660  36.849  24.075   0.918
81937W        W45661  17.086  24.056  12.029
81938W        W45662  24.593  28.639  12.527
81939W        W45663   3.265   2.843  10.407
81940W        W45664  37.888  14.653  11.499
81941W        W45665   7.813  10.173   5.164
81942W        W45666  22.169  41.537   4.219
81943W        W45667  19.669  18.740   2.705
81944W        W45668  42.433  33.880   1.844
81945W        W45669  24.569  27.005  14.020
81946W        W45670  13.307   9.369   2.741
81947W        W45671  23.498  39.952  11.908
81948W        W45672  27.042  43.347   4.674
81949W        W45673  38.507  22.514  12.524
81950W        W45674  28.054  27.120   1.393
81951W        W45675  37.571  28.461   2.845
81952W        W45676  39.334  41.335  13.350
81953W        W45677   2.262  19.283   4.809
81954W        W45678  39.876  42.005  11.519
81955W        W45679  43.892  36.364  10.500
81956W        W45680   9.227  12.753   0.323
81957W        W45681  24.142  32.623   1.285
81958W        W45682  15.267  25.614  10.495
81959W        W45683  10.872  11.229   3.786
81960W        W45684  41.325   2.728   1.771
81961W        W45685  41.399   0.485   0.858
81962W        W45686  24.983   9.231   0.400
81963W        W45687  24.635   2.940   4.719
81964W        W45688  27.072   1.306  14.909
81965W        W45689  40.931  23.617   0.818
81966W        W45690  33.445  27.961   4.294
81967W        W45691  33.418   4.288   1.325
81968W        W45692  13.732  21.196  11.450
81969W        W45693   9.327  15.822  13.034
81970W        W45694  40.322   1.398  14.329
81971W        W45695  10.651  21.726   2.257
81972W        W45696   1.319  13.686   2.206
81973W        W45697  24.624  15.726  11.533
81974W        W45698  36.532  37.890  10.615
81975W        W45699  20.612   4.439   1.346
81976W        W45700  42.849  31.000   4.172
81977W        W45701  37.008  27.593  13.926
81978W        W45702  29.522   4.425   2.711
81979W        W45703   1.906  34.107   0.929
81980W        W45704  41.366   5.211  11.041
81981W        W45705  39.315  42.361   2.704
81982W        W45706  25.668  43.438   1.387
81983W        W45707  12.261  20.624  13.437
81984W        W45708  39.976   1.400   3.248
81985W        W45709  28.469   8.344   1.752
81986W        W45710   1.424  10.271  13.974
81987W        W45711  15.302   3.774   4.239
81988W        W45712   8.761  44.387  12.914
81989W        W45713   8.340  36.927  12.981
81990W        W45714  43.917  28.512   4.664
81991W        W45715   1.893   5.727  12.013
81992W        W45716   8.684  13.684  14.322
81993W        W45717  32.526  16.576   4.315
81994W        W45718   9.712   0.494  12.092
81995W        W45719  40.359  28.110   1.834
81996W        W45720  22.042  20.172   2.305
81997W        W45721  21.739  40.338   2.829
81998W        W45722  40.512  28.434  14.455
81999W        W45723  15.281  32.970   0.435
82000W        W45724  44.320   3.803  11.966
82001W        W45725  26.532   5.732  13.950
82002W        W45726  43.420   4.389   0.477
82003W        W45727   6.766   9.795   0.925
82004W        W45728  41.032  13.140   4.315
82005W        W45729  26.576  12.175   2.406
82006W        W45730  32.419  29.081   4.319
82007W        W45731  22.080  27.978   2.814
82008W        W45732  12.157  36.845   3.692
82009W        W45733   8.814  30.134   3.797
82010W        W45734  13.257  41.511  14.461
82011W        W45735  36.921  36.454  13.942
82012W        W45736  11.181  23.531   4.151
82013W        W45737  40.329  15.639  10.984
82014W        W45738   5.318  15.156   4.139
82015W        W45739  28.110  41.503   1.799
82016W        W45740  39.535  25.677   0.903
82017W        W45741   7.266  35.864   4.765
82018W        W45742  38.908  15.189  10.112
82019W        W45743  36.355  28.047   4.220
82020W        W45744  28.669  34.388   4.352
82021W        W45745   0.868  16.607  13.357
82022W        W45746  39.065  13.111   0.821
82023W        W45747  28.570  18.755   2.736
82024W        W45748  44.344  21.035   1.744
82025W        W45749   6.762  33.880  13.961
82026W        W45750  16.621  14.789  10.894
82027W        W45751  18.218  39.325   3.699
82028W        W45752  25.486  21.038  10.987
82029W        W45753  23.123  40.988   2.896
82030W        W45754  33.575  15.649   2.769
82031W        W45755   8.898  43.290  12.374
82032W        W45756  30.064  24.157   1.895
82033W        W45757  13.251  35.083  11.112
82034W        W45758  11.829  15.225  13.469
82035W        W45759  30.908   9.341   2.886
82036W        W45760  32.015  40.839   1.769
82037W        W45761   7.778  18.782   1.411
82038W        W45762   3.875  38.896  10.935
82039W        W45763   7.728  43.775   2.211
82040W        W45764   3.351   2.780  13.044
82041W        W45765  35.507  44.874  13.809
82042W        W45766   3.340   5.688  12.018
82043W        W45767   8.178   0.816  14.464
82044W        W45768   4.932  18.713   4.716
82045W        W45769  25.555  31.544  13.438
82046W        W45770  21.753  12.243  14.016
82047W        W45771  31.490  40.312  12.529
82048W        W45772   2.889   1.925   1.869
82049W        W45773  33.966  14.619  10.421
82050W        W45774  11.144  28.938   1.330
82051W        W45775  36.854  22.670   0.439
82052W        W45776  41.366   7.776  13.833
82053W        W45777  20.614  30.942   3.325
82054W        W45778  11.756  31.018  13.817
82055W        W45779  29.661   9.224  13.021
82056W        W45780   3.870  29.097   4.799
82057W        W45781  40.893  20.206  12.438
82058W        W45782  22.097  42.784  14.781
82059W        W45783  32.938   1.968  11.448
82060W        W45784  17.757  14.599   2.264
82061W        W45785  12.809  38.885  12.887
82062W        W45786   7.844  43.943  10.475
82063W        W45787   4.215  33.451  11.994
82064W        W45788  19.043   3.314   3.359
82065W        W45789   9.667  30.584  13.540
82066W        W45790   6.206   4.384   1.351
82067W        W45791  21.737  23.713   3.171
82068W        W45792   5.760  38.359  11.436
82069W        W45793  35.462  11.165   3.823
82070W        W45794  13.143  30.971  11.606
82071W        W45795   6.807  13.229   2.865
82072W        W45796  20.739  35.434  10.473
82073W        W45797  41.433   6.265  13.854
82074W        W45798  13.271  40.885  14.921
82075W        W45799  16.580   3.956   4.723
82076W        W45800   4.835  17.611  13.345
82077W        W45801  42.520  35.581   1.414
82078W        W45802  27.632   7.336  14.760
82079W        W45803  37.862  23.520  10.127
82080W        W45804  18.629  19.205  13.460
82081W        W45805  37.576  10.680   0.914
82082W        W45806  12.629  36.377  14.299
82083W        W45807  12.757   9.282  14.395
82084W        W45808   9.808  10.762  12.433
82085W        W45809  27.554  25.206   4.700
82086W        W45810   9.763  15.586  11.403
82087W        W45811  42.978  17.555  10.917
82088W        W45812  31.899  30.524   1.719
82089W        W45813  24.194  34.880   3.815
82090W        W45814  34.083  37.381  11.577
82091W        W45815   3.925  41.482   0.323
82092W        W45816  42.013  22.669   4.250
82093W        W45817  37.834  24.696  13.338
82094W        W45818   4.831  35.591   4.345
82095W        W45819  21.706   7.273   4.614
82096W        W45820   3.886  16.780   2.214
82097W        W45821  18.714  32.514  14.928
82098W        W45822  10.766  40.873  10.459
82099W        W45823   8.682  41.485   1.930
82100W        W45824  27.505  43.932  12.911
82101W        W45825   4.274  31.575  13.455
82102W        W45826  12.353  37.469  12.027
82103W        W45827  20.678  10.819  13.452
82104W        W45828  44.764  42.917  10.430
82105W        W45829  36.508  41.321   1.407
82106W        W45830  32.000  31.535  12.569
82107W        W45831  23.516  36.871  10.446
82108W        W45832  19.683   7.277  12.862
82109W        W45833  33.516   0.773   2.243
82110W        W45834  43.466  31.416  10.466
82111W        W45835   8.223  16.669  12.519
82112W        W45836  19.087   6.834   4.304
82113W        W45837   9.735  42.461   3.743
82114W        W45838  38.848  10.269   0.823
82115W        W45839  21.748  12.621   3.219
82116W        W45840  17.725   4.374  14.880
82117W        W45841   6.388   4.942  13.974
82118W        W45842  26.614  36.086   3.870
82119W        W45843  29.077  12.717   1.905
82120W        W45844  11.770  16.695  14.910
82121W        W45845   2.822  10.279  11.898
82122W        W45846  11.763  30.464  14.892
82123W        W45847  40.485  16.717  12.500
82124W        W45848  27.197   9.346  13.808
82125W        W45849  14.334  17.758  12.352
82126W        W45850  14.201  15.206   2.391
82127W        W45851  16.754  13.178  14.882
82128W        W45852  23.197  26.539  14.418
82129W        W45853   6.313  39.826  13.895
82130W        W45854  36.057  12.734  10.024
82131W        W45855  42.786  38.015  13.991
82132W        W45856  18.186  10.213  13.313
82133W        W45857   5.765   7.891  10.441
82134W        W45858   5.784  30.548   1.310
82135W        W45859  13.634  10.752  14.496
82136W        W45860  37.485  40.512  10.946
82137W        W45861  16.092  41.414   0.378
82138W        W45862  30.639  37.059  13.000
82139W        W45863  11.808  31.542   4.187
82140W        W45864  16.105  14.729   1.212
82141W        W45865  24.557   0.914  11.070
82142W        W45866  22.697  40.327   2.716
82143W        W45867  19.596  41.939  12.879
82144W        W45868   9.851  42.018   2.386
82145W        W45869  37.566  11.794   3.787
82146W        W45870  16.138  12.331   0.477
82147W        W45871  24.017  30.914   4.641
82148W        W45872  25.521  29.479  12.465
82149W        W45873  39.928  17.700  10.945
82150W        W45874   8.279  18.666  10.941
82151W        W45875   7.337  12.739   3.239
82152W        W45876  25.713  28.527  13.363
82153W        W45877  39.930  32.563  14.458
82154W        W45878   6.295  17.111   3.190
82155W        W45879  38.985  40.996   0.877
82156W        W45880  18.757  31.954  12.487
82157W        W45881   9.302   8.878  11.004
82158W        W45882  36.400  28.015  13.809
82159W        W45883  33.997   5.799  11.492
82160W        W45884   7.820  30.602  11.119
82161W        W45885  35.511  43.302  14.882
82162W        W45886  28.050   4.820  11.047
82163W        W45887   6.421  30.550  13.454
82164W        W45888   2.914  27.460   4.698
82165W        W45889  31.405  15.289  12.406
82166W        W45890  23.510   6.298  11.409
82167W        W45891  33.599  38.855   1.851
82168W        W45892  13.352  12.155  13.478
82169W        W45893  34.497  14.607   3.217
82170W        W45894  40.811   2.963   0.952
82171W        W45895   6.295  22.742   5.102
82172W        W45896  26.095   1.811   4.348
82173W        W45897  38.517  27.163  12.536
82174W        W45898  41.428  42.497   2.697
82175W        W45899  31.633   2.940  11.908
82176W        W45900  40.361  37.036  10.445
82177W        W45901   4.258  41.039  14.001
82178W        W45902   9.808  17.152  10.555
82179W        W45903  43.014  18.284   3.764
82180W        W45904  33.562  22.565  14.769
82181W        W45905  25.078  14.277   1.414
82182W        W45906  36.392  40.842  11.901
82183W        W45907  39.488  36.923  12.937
82184W        W45908  36.093   3.277   9.920
82185W        W45909  22.111  12.190  13.966
82186W        W45910  26.087  23.140   3.692
82187W        W45911   1.238   1.415   2.367
82188W        W45912  35.995  23.053  11.953
82189W        W45913  22.539   9.816  11.065
82190W        W45914  13.149   6.873  14.350
82191W        W45915   6.905  24.624  12.046
82192W        W45916   8.854  36.908   0.282
82193W        W45917  34.092  30.561  13.016
82194W        W45918  42.799  37.529  11.062
82195W        W45919   5.802  31.469   1.926
82196W        W45920  41.823  28.104  11.933
82197W        W45921  42.851  39.367   3.378
82198W        W45922  27.636  34.486  14.934
82199W        W45923  27.498  31.607  14.996
82200W        W45924  18.282  35.976  13.012
82201W        W45925  25.663  29.149  12.499
82202W        W45926  33.998  33.987   3.748
82203W        W45927  34.413   0.392  10.496
82204W        W45928  34.477  12.786  11.603
82205W        W45929   6.757  10.784   3.243
82206W        W45930  34.603  32.503  14.459
82207W        W45931   4.814  40.357   0.907
82208W        W45932  23.154  23.044   3.209
82209W        W45933  17.723  42.973   1.815
82210W        W45934  17.064   5.420   2.714
82211W        W45935  10.707   7.752  12.867
82212W        W45936  23.613  33.107  10.981
82213W        W45937   9.387  40.809   1.705
82214W        W45938  24.623  33.889   4.809
82215W        W45939  27.625  36.534   4.721
82216W        W45940  13.713  11.358   1.442
82217W        W45941   1.797  25.079   1.338
82218W        W45942   8.324   6.371   2.855
82219W        W45943   4.900  22.007  11.547
82220W        W45944  19.599  33.545   1.324
82221W        W45945  29.173  18.698   4.741
82222W        W45946  30.468  22.543  13.848
82223W        W45947  36.470  19.601  10.906
82224W        W45948  34.425  37.350  12.921
82225W        W45949   9.170  24.201  12.871
82226W        W45950  17.224  30.080   1.912
82227W        W45951   9.872  30.627   2.321
82228W        W45952  16.288  15.156   1.254
82229W        W45953   6.329  28.063  13.540
82230W        W45954  22.501  24.620  13.501
82231W        W45955  13.740  33.413   2.258
82232W        W45956  20.563   1.822   1.297
82233W        W45957  10.185  26.618   9.920
82234W        W45958  42.891  40.546   3.833
82235W        W45959  13.796  44.815   2.329
82236W        W45960  28.555  35.862  12.084
82237W        W45961  44.433  41.388  11.045
82238W        W45962  10.173  38.568  14.377
82239W        W45963  16.277  31.035  13.423
82240W        W45964   8.401  37.383   2.766
82241W        W45965  43.772  29.511  12.904
82242W        W45966  16.147  11.857   1.717
82243W        W45967   7.218  12.271   2.369
82244W        W45968   5.741   8.192  10.937
82245W        W45969  29.965  34.884  14.387
82246W        W45970  31.923  42.510   3.842
82247W        W45971  16.233  35.061  11.410
82248W        W45972  37.983  15.305   4.824
82249W        W45973  41.810  28.523  14.424
82250W        W45974  25.090  19.558   3.650
82251W        W45975   4.710  36.477  13.943
82252W        W45976  30.936  18.591  10.963
82253W        W45977  15.753   1.795  12.890
82254W        W45978  36.986   3.773   1.310
82255W        W45979  44.803  31.642   2.811
82256W        W45980  30.587  15.749   4.649
82257W        W45981  29.567  34.379   1.852
82258W        W45982   5.313  23.991   0.277
82259W        W45983   5.393  28.547  10.449
82260W        W45984  40.411  18.730   3.274
82261W        W45985  19.682  43.948   0.325
82262W        W45986  16.169  18.240  14.850
82263W        W45987  26.122   8.670  12.890
82264W        W45988  23.730  13.238   1.335
82265W        W45989  10.706  26.144   4.804
82266W        W45990  30.625  21.223  10.094
82267W        W45991  35.478  24.690   2.314
82268W        W45992  21.158  19.143  14.503
82269W        W45993   0.980  20.273  13.849
82270W        W45994  21.202  32.454  12.457
82271W        W45995  35.023  22.562  11.591
82272W        W45996  41.874  34.025   0.901
82273W        W45997  20.168  37.988   2.786
82274W        W45998  30.068  33.914  14.812
82275W        W45999  21.696  18.071   4.710
82276W        W46000  40.365  26.021   1.846
82277W        W46001  11.853  34.451   2.280
82278W        W46002   8.790  23.522   1.889
82279W        W46003  35.041  33.567  13.902
82280W        W46004  41.899   9.780  12.918
82281W        W46005  27.070  29.088   3.862
82282W        W46006   0.767  42.915   4.173
82283W        W46007  22.558  16.800  14.280
82284W        W46008  44.783  27.569   0.322
82285W        W46009   3.779   4.716  10.000
82286W        W46010  11.627  19.578   3.325
82287W        W46011  38.914   6.897   1.810
82288W        W46012  18.178  34.405   3.736
82289W        W46013   3.822  41.004  11.862
82290W        W46014  23.645  20.221   0.267
82291W        W46015  31.464  10.330   3.316
82292W        W46016  29.478  20.768  11.867
82293W        W46017  26.556  13.782  12.045
82294W        W46018  34.610   4.704   2.675
82295W        W46019   8.713  33.047   1.243
82296W        W46020  35.432   2.363  13.498
82297W        W46021  38.368  34.926   4.179
82298W        W46022  10.231  23.122   4.815
82299W        W46023  28.520  23.994  13.827
82300W        W46024  20.182  33.446   4.246
82301W        W46025  41.294  20.676   3.181
82302W        W46026  24.225  34.917  13.469
82303W        W46027   9.290   4.872   0.773
82304W        W46028  44.764  44.773   1.888
82305W        W46029  12.348  12.360   2.696
82306W        W46030  21.228  24.722  10.564
82307W        W46031  37.370  36.562   5.187
82308W        W46032  31.046   0.932  12.837
82309W        W46033  44.411  44.977   4.214
82310W        W46034  33.382  36.908   4.193
82311W        W46035   5.376  11.660   0.353
82312W        W46036  28.660  44.994   2.723
82313W        W46037   1.735   4.228   0.281
82314W        W46038   5.226  14.134  10.912
82315W        W46039  15.136  14.245   0.920
82316W        W46040  35.439  22.103   0.812
82317W        W46041  36.023  13.660   0.807
82318W        W46042  42.511  41.798   0.353
82319W        W46043  15.179  34.000  12.572
82320W        W46044  40.024  11.643   3.152
82321W        W46045   0.482  20.596  13.000
82322W        W46046  33.123  43.853   3.851
82323W        W46047  19.230  13.690   2.799
82324W        W46048   2.228  21.610  11.538
82325W        W46049  16.225  36.957   0.421
82326W        W46050   8.701  37.018  13.502
82327W        W46051  38.990  10.255   4.332
82328W        W46052  35.536   4.708  11.958
82329W        W46053   5.380   6.393  12.984
82330W        W46054  44.812  33.115   0.454
82331W        W46055  10.826  10.370  10.968
82332W        W46056  44.391  28.671   4.675
82333W        W46057  43.361   3.226  12.535
82334W        W46058  15.170  38.329  11.463
82335W        W46059  41.315   2.834  13.426
82336W        W46060  41.474  32.918  10.160
82337W        W46061  12.237  41.826  12.916
82338W        W46062   6.819  24.535   0.268
82339W        W46063  33.999  42.878   0.865
82340W        W46064  17.138   0.253  11.955
82341W        W46065  43.007  13.207  11.104
82342W        W46066  16.262   3.394  14.492
82343W        W46067  25.530  23.225   1.229
82344W        W46068  34.606  25.492  13.953
82345W        W46069  21.669  27.040   3.713
82346W        W46070   0.401   1.827   2.883
82347W        W46071  14.188   5.287  14.900
82348W        W46072   7.322   3.418  13.531
82349W        W46073  37.012  31.533  10.407
82350W        W46074  18.296  44.318   3.179
82351W        W46075  25.169   0.360   4.810
82352W        W46076   0.316   9.166  13.388
82353W        W46077   9.884  41.939   4.233
82354W        W46078  32.603  24.095   3.256
82355W        W46079  25.077   4.732  11.504
82356W        W46080  19.604   4.903   5.317
82357W        W46081  10.381  41.434   1.934
82358W        W46082  22.072  22.242  14.505
82359W        W46083  32.030  23.994  11.003
82360W        W46084   9.862   6.716  14.818
82361W        W46085  35.038   8.406   0.884
82362W        W46086  12.331  25.112   4.673
82363W        W46087  20.226  44.366  11.126
82364W        W46088  22.248  37.981   3.266
82365W        W46089  13.645  28.593  11.003
82366W        W46090  12.743   5.346   2.681
82367W        W46091  29.017  39.446   0.333
82368W        W46092  22.123  41.929  12.437
82369W        W46093  36.352  37.025  12.045
82370W        W46094  11.626  24.049  12.504
82371W        W46095  42.028  19.633   2.800
82372W        W46096  42.854   9.288  13.955
82373W        W46097  34.395  29.020   3.239
82374W        W46098   7.812  19.766   2.319
82375W        W46099  23.151  20.549   1.362
82376W        W46100  15.133  40.437  11.100
82377W        W46101  13.335  35.498  10.519
82378W        W46102   1.279  16.220   4.274
82379W        W46103  39.839  30.979   0.941
82380W        W46104  15.320  39.863   2.845
82381W        W46105  40.992  18.628   0.443
82382W        W46106   6.306  32.071   4.222
82383W        W46107  14.156   1.940   2.850
82384W        W46108  27.631  31.987  12.944
82385W        W46109  17.288   5.908   5.137
82386W        W46110  14.183  24.010   2.191
82387W        W46111   4.250  43.380   1.888
82388W        W46112  41.926   9.822  10.986
82389W        W46113  16.094   2.768  13.500
82390W        W46114  20.162  18.080  12.878
82391W        W46115  27.542  25.186  13.875
82392W        W46116  19.045  11.330  10.982
82393W        W46117  17.209  42.309   2.378
82394W        W46118   8.788  10.860  13.021
82395W        W46119   2.386  29.641  14.458
82396W        W46120  17.591  40.330   1.405
82397W        W46121   3.347  12.233   3.734
82398W        W46122  33.131  28.503   3.657
82399W        W46123  35.585  38.476   2.728
82400W        W46124  16.146  12.141  13.356
82401W        W46125  26.180   7.910  12.965
82402W        W46126   3.737  44.302   0.898
82403W        W46127  24.652  40.433  12.544
82404W        W46128  30.499  19.244  11.533
82405W        W46129  18.255  33.882   2.417
82406W        W46130  14.134  26.636  11.594
82407W        W46131  11.155   5.776  14.989
82408W        W46132  16.611  41.440   0.919
82409W        W46133  10.295  39.852   0.268
82410W        W46134  27.026  21.598  13.466
82411W        W46135   8.182  24.131  11.856
82412W        W46136  24.491  43.275  12.390
82413W        W46137  41.929  31.590  13.542
82414W        W46138   4.767  18.172  10.630
82415W        W46139  32.120  44.938   3.763
82416W        W46140  27.155   1.892   0.456
82417W        W46141   9.787  42.895  12.824
82418W        W46142  33.434  13.681  12.528
82419W        W46143  12.628  31.127  12.847
82420W        W46144  17.619  44.989   3.150
82421W        W46145  31.530  20.545  13.002
82422W        W46146   3.460  20.768   3.678
82423W        W46147  28.981  35.367   3.773
82424W        W46148  42.359  34.968   4.260
82425W        W46149  20.742  17.756  11.529
82426W        W46150  22.558  10.701  14.988
82427W        W46151  38.997  36.386  12.369
82428W        W46152   6.182  42.944   5.217
82429W        W46153   7.383   8.289  14.329
82430W        W46154  43.292  33.881  11.996
82431W        W46155   6.213  18.679  13.874
82432W        W46156  44.488  25.534  10.602
82433W        W46157  35.056  41.416   4.796
82434W        W46158  11.707  36.386   4.321
82435W        W46159  17.241  26.512  13.894
82436W        W46160  30.124  41.454  11.488
82437W        W46161   0.901  25.064  13.012
82438W        W46162  15.200  17.188  12.467
82439W        W46163  30.604  36.430  13.474
82440W        W46164  17.266  26.117   1.806
82441W        W46165  19.652  30.580   3.834
82442W        W46166  11.230  11.180  12.934
82443W        W46167  40.494  17.781  13.496
82444W        W46168  31.134  40.844   0.269
82445W        W46169  44.342  20.259   4.663
82446W        W46170   8.786  38.041  11.017
82447W        W46171  21.189   3.297   0.893
82448W        W46172   3.898  21.117   3.811
82449W        W46173  33.592  35.965  12.389
82450W        W46174  18.698   4.859  14.021
82451W        W46175   2.847  33.543  11.498
82452W        W46176  32.400  27.062   3.355
82453W        W46177  32.935  42.406   1.731
82454W        W46178  25.120  23.203  11.532
82455W        W46179  32.898  24.603   4.750
82456W        W46180  19.266  31.487   1.771
82457W        W46181  34.433   3.234  14.412
82458W        W46182  28.460  30.552   1.226
82459W        W46183  42.788   0.930   0.757
82460W        W46184  31.532  29.100  11.406
82461W        W46185  24.045  36.420  10.589
82462W        W46186  24.521  32.134   3.258
82463W        W46187  41.327  16.568  14.958
82464W        W46188  11.646  43.809   3.831
82465W        W46189  10.320  40.498  13.051
82466W        W46190  17.638  35.451   4.635
82467W        W46191  37.075  33.033   3.754
82468W        W46192  44.906   5.846  14.829
82469W        W46193   0.867  43.992  10.955
82470W        W46194  42.458  27.100   4.159
82471W        W46195  24.608  36.922  13.890
82472W        W46196  43.021  25.505  10.907
82473W        W46197   9.715  15.107  10.996
82474W        W46198  23.032  18.232   2.686
82475W        W46199  32.998  35.873   2.670
82476W        W46200  12.355   1.879  14.445
82477W        W46201  43.493  11.724   4.695
82478W        W46202  29.464  37.965  12.867
82479W        W46203  21.169  30.927  13.939
82480W        W46204  16.193  19.125  10.513
82481W        W46205  22.105  44.889   4.134
82482W        W46206   4.930  31.926   1.696
82483W        W46207  17.760  41.945  12.538
82484W        W46208  22.737  28.466   2.783
82485W        W46209  18.072   0.363   4.790
82486W        W46210  44.898  28.094   4.175
82487W        W46211   0.878   8.281   0.828
82488W        W46212  22.693  25.986  12.516
82489W        W46213  43.839  22.193   4.125
82490W        W46214  23.142  14.699   4.191
82491W        W46215  26.603  18.120   1.320
82492W        W46216   4.797  13.738  12.979
82493W        W46217  31.436  21.130   1.450
82494W        W46218  28.103  24.720  11.517
82495W        W46219   3.385  11.364  14.337
82496W        W46220  16.159   1.835  14.279
82497W        W46221   8.700  15.090  10.455
82498W        W46222  42.777  37.038   4.218
82499W        W46223  11.813  43.999  12.445
82500W        W46224   2.422  11.341   1.804
82501W        W46225  35.030   3.346   1.794
82502W        W46226  17.063  35.389  13.880
82503W        W46227  11.651  13.738  10.982
82504W        W46228   8.662  40.992  13.874
82505W        W46229  42.466  32.084  14.010
82506W        W46230  12.228  38.399  10.515
82507W        W46231   6.694  26.696   0.793
82508W        W46232  36.952  17.087   2.247
82509W        W46233   2.441  16.309   0.811
82510W        W46234  41.382  33.504   1.780
82511W        W46235  35.085  26.024  11.113
82512W        W46236  13.262   4.814   0.867
82513W        W46237  13.196  30.163   3.665
82514W        W46238  21.026  38.007  10.612
82515W        W46239  13.834  17.255   3.324
82516W        W46240  15.156  23.594  11.492
82517W        W46241  10.732  13.267  13.926
82518W        W46242  32.046   9.300   0.944
82519W        W46243  12.782   5.437  11.098
82520W        W46244  12.249  28.012   3.347
82521W        W46245  19.142  22.656  11.872
82522W        W46246   5.205   0.761   2.775
82523W        W46247  24.185  41.377   1.886
82524W        W46248   0.969   0.950  13.935
82525W        W46249  13.600   4.713   3.640
82526W        W46250  12.321  15.759   1.829
82527W        W46251  28.041  41.401   3.735
82528W        W46252  30.413  11.717  12.561
82529W        W46253  43.359  26.069  10.464
82530W        W46254  23.002   0.345  14.922
82531W        W46255  28.978  20.657   1.889
82532W        W46256  23.086  40.806   0.825
82533W        W46257  36.016  42.427  13.986
82534W        W46258  36.498   9.273  14.368
82535W        W46259  38.887  14.776  10.926
82536W        W46260  38.531  27.176  14.972
82537W        W46261  23.071  27.646   1.823
82538W        W46262  27.958  10.772  11.555
82539W        W46263  37.452  18.561   3.277
82540W        W46264  34.401  30.948  11.982
82541W        W46265   8.772   8.828   1.449
82542W        W46266   3.726  20.235  14.834
82543W        W46267  12.288  27.186  14.017
82544W        W46268  27.535  36.991   3.197
82545W        W46269  19.769  37.364  13.039
82546W        W46270  32.109  37.523  13.439
82547W        W46271  11.760  24.055   1.703
82548W        W46272  43.021  20.576   4.274
82549W        W46273  29.045   5.721  10.439
82550W        W46274  42.308   2.437   4.245
82551W        W46275  40.491   1.875  14.836
82552W        W46276   9.816   4.311   0.838
82553W        W46277   8.268  14.667   4.309
82554W        W46278   7.670  14.273  11.057
82555W        W46279  23.133  14.100   3.312
82556W        W46280  34.533  17.085  11.868
82557W        W46281  22.241   0.339   3.753
82558W        W46282  20.157  14.641   1.214
82559W        W46283   9.348   7.321   0.303
82560W        W46284  22.055  34.597  14.285
82561W        W46285   9.228  26.618   1.697
82562W        W46286  43.955  12.171   1.782
82563W        W46287  22.726  13.837  12.493
82564W        W46288   6.338  33.081   4.314
82565W        W46289  13.843  29.629  10.634
82566W        W46290   8.845  43.779  14.843
82567W        W46291  37.576  38.832   2.253
82568W        W46292   7.745   8.862  10.410
82569W        W46293  18.176  24.201  14.969
82570W        W46294  11.166   1.864  13.471
82571W        W46295  21.171  29.930   3.148
82572W        W46296   0.469  36.478  11.441
82573W        W46297   2.422  24.603  10.596
82574W        W46298   9.200  24.540  10.971
82575W        W46299  16.162  39.431   4.701
82576W        W46300  22.049   6.258   4.648
82577W        W46301   5.715  30.455  10.985
82578W        W46302  24.081  33.089  10.432
82579W        W46303  16.641   2.922  14.829
82580W        W46304  23.665   0.951  11.067
82581W        W46305  13.235  20.098  12.366
82582W        W46306  10.722   1.400   0.966
82583W        W46307  28.648  37.853  10.499
82584W        W46308  22.717  39.036  13.927
82585W        W46309  44.458  24.174   4.822
82586W        W46310  14.192   1.397   2.266
82587W        W46311   7.289  14.275   3.736
82588W        W46312   4.274  42.953   3.724
82589W        W46313   0.385   0.953  10.918
82590W        W46314  18.777  15.098   0.456
82591W        W46315  44.465   9.288  14.997
82592W        W46316  29.945  22.608  12.993
82593W        W46317  25.165   5.880   2.897
82594W        W46318  18.587  28.533  11.455
82595W        W46319  31.085  29.588  11.008
82596W        W46320  40.846  18.073   0.414
82597W        W46321  35.895   5.250   2.678
82598W        W46322  11.151  33.078   3.768
82599W        W46323  35.853  19.062   3.173
82600W        W46324  32.960   1.794   0.391
82601W        W46325   1.330  25.107   2.724
82602W        W46326  32.017  22.026  14.296
82603W        W46327  42.469   4.861  12.517
82604W        W46328  23.152  35.560  11.959
82605W        W46329  19.571  38.377   4.622
82606W        W46330  27.607  15.195  14.962
82607W        W46331  26.624  22.683  13.920
82608W        W46332  28.152  15.752  12.063
82609W        W46333  25.162  24.046   5.145
82610W        W46334  28.932  35.075   4.759
82611W        W46335  30.546  11.184  11.907
82612W        W46336  44.830  20.531   0.901
82613W        W46337   2.848  36.990   3.173
82614W        W46338  44.337  30.106   2.201
82615W        W46339   1.813   4.317  14.307
82616W        W46340  15.100  25.686  12.874
82617W        W46341  32.061   2.900   4.729
82618W        W46342  30.447  16.123   0.732
82619W        W46343   6.859  29.040  10.511
82620W        W46344  20.570  28.116   0.871
82621W        W46345  11.195  35.525  14.996
82622W        W46346  10.804  40.971   1.850
82623W        W46347   8.177  32.907   2.712
82624W        W46348  44.753  35.566  10.504
82625W        W46349   0.815  37.954   4.818
82626W        W46350  12.281  32.930  14.794
82627W        W46351  10.770  32.135   3.184
82628W        W46352  20.240  30.465   0.772
82629W        W46353  17.571  21.688   0.462
82630W        W46354  37.945  12.349   3.270
82631W        W46355   7.715  18.190  12.860
82632W        W46356  19.681   6.202   3.259
82633W        W46357   9.704   3.872   4.751
82634W        W46358  22.591  35.904  14.488
82635W        W46359   6.322  34.375   4.713
82636W        W46360  26.512  42.808   1.371
82637W        W46361  36.509   7.776   2.764
82638W        W46362   0.805  18.101   2.207
82639W        W46363  13.655  24.050  10.552
82640W        W46364  26.629  12.756   3.292
82641W        W46365  25.070  41.963   1.344
82642W        W46366  19.265  13.287  13.501
82643W        W46367  42.401  12.781   0.756
82644W        W46368   0.460  41.308  13.797
82645W        W46369  30.994  13.800  11.450
82646W        W46370  31.935  41.995   3.821
82647W        W46371  11.854  40.451   1.429
82648W        W46372  28.057   9.168  11.050
82649W        W46373   8.266   8.782  11.579
82650W        W46374  25.072  27.078   4.765
82651W        W46375   5.425   2.226  13.919
82652W        W46376  13.747  14.199   5.161
82653W        W46377  16.684  42.949   1.451
82654W        W46378  38.486  38.532   4.838
82655W        W46379  22.060  20.691  12.928
82656W        W46380  32.142  24.108  10.576
82657W        W46381  21.037   5.921   4.133
82658W        W46382  23.616  16.150  13.968
82659W        W46383  13.342   5.336   0.766
82660W        W46384  40.313   9.304   0.440
82661W        W46385  10.154  15.633   5.166
82662W        W46386  34.486  14.614   1.386
82663W        W46387  14.599  33.100   4.157
82664W        W46388  26.157  35.938  11.120
82665W        W46389  17.228  37.480  10.144
82666W        W46390  17.598   0.456  12.897
82667W        W46391  27.994  30.467  13.002
82668W        W46392  13.606  18.056  10.963
82669W        W46393   5.391  29.983   4.311
82670W        W46394   5.195  25.632   3.319
82671W        W46395  18.634  30.549  10.091
82672W        W46396  40.020  12.315   1.328
82673W        W46397  19.696  16.166   2.305
82674W        W46398  15.153  41.043   4.815
82675W        W46399   2.822  42.475   4.686
82676W        W46400  12.161  41.019  13.015
82677W        W46401  19.105   5.376   1.909
82678W        W46402   6.723  13.187   3.379
82679W        W46403  42.028  16.627  12.568
82680W        W46404  26.571  26.971  13.370
82681W        W46405  30.112   9.187   3.697
82682W        W46406  25.066   4.893  11.066
82683W        W46407  33.892  30.087  14.438
82684W        W46408   3.814  15.239  14.474
82685W        W46409  38.347   2.397  10.613
82686W        W46410  24.172  13.165  12.383
82687W        W46411   7.179  42.470   2.258
82688W        W46412   1.960   6.349   0.376
82689W        W46413  26.021  36.908  13.795
82690W        W46414  14.654  39.834   4.776
82691W        W46415  33.549  24.712   0.818
82692W        W46416  24.703  19.616  14.814
82693W        W46417   8.724  10.165  13.395
82694W        W46418  32.008  18.779   5.093
82695W        W46419   0.357  11.207   4.306
82696W        W46420  16.571   6.276  11.572
82697W        W46421  27.011   4.311  14.337
82698W        W46422  10.230  24.522  11.465
82699W        W46423   7.387   7.338  13.372
82700W        W46424  44.954  15.699  14.300
82701W        W46425  36.507  17.224   1.350
82702W        W46426   7.716  28.952   1.727
82703W        W46427  41.870   3.385   5.120
82704W        W46428  25.115  35.563  12.364
82705W        W46429  13.771  13.324  14.403
82706W        W46430   4.207  15.743   0.293
82707W        W46431  12.179  36.891  12.363
82708W        W46432   8.343   9.782  11.922
82709W        W46433   2.770  28.439  13.451
82710W        W46434  33.458   4.704  11.375
82711W        W46435  34.111   3.717   3.800
82712W        W46436  24.606  22.688  11.473
82713W        W46437  40.049  14.635   3.831
82714W        W46438  12.814  36.510   1.886
82715W        W46439  22.079  13.633  12.059
82716W        W46440  19.148  43.327   0.450
82717W        W46441  18.637  14.144  12.971
82718W        W46442  27.176  13.128  14.890
82719W        W46443  21.675  43.796  11.943
82720W        W46444   4.921  10.867   5.666
82721W        W46445  17.173  21.735   0.355
82722W        W46446  34.391  14.782  14.287
82723W        W46447  27.459  28.583  11.890
82724W        W46448  20.207  34.369   3.771
82725W        W46449   4.805  33.472  11.041
82726W        W46450   6.306  18.200   0.833
82727W        W46451  17.075   0.464   2.897
82728W        W46452  20.749  33.957  10.638
82729W        W46453   8.686  14.701  11.032
82730W        W46454  23.064  28.105  14.340
82731W        W46455  26.644  44.339   0.951
82732W        W46456  17.277  43.366  13.931
82733W        W46457  26.547  31.558   2.702
82734W        W46458  19.077   1.770  13.446
82735W        W46459  44.443  30.928   2.205
82736W        W46460  44.898   7.215   2.733
82737W        W46461  13.138  40.353   3.349
82738W        W46462  41.038  25.056  13.035
82739W        W46463  44.949   4.855   1.382
82740W        W46464  29.529  43.403  13.397
82741W        W46465   2.917  30.420  13.446
82742W        W46466  19.255  29.949   4.698
82743W        W46467  43.881   2.367  11.029
82744W        W46468   0.310  17.113  12.048
82745W        W46469   6.400   5.882  14.858
82746W        W46470  18.656  16.622  14.803
82747W        W46471   0.757  20.696   4.745
82748W        W46472   4.274   7.319   0.918
82749W        W46473  24.694  15.146  11.106
82750W        W46474  38.562  40.401   2.197
82751W        W46475  33.542  25.211   0.953
82752W        W46476  23.065  20.576  14.496
82753W        W46477  39.956  30.910   3.790
82754W        W46478  39.361  23.051   1.725
82755W        W46479  40.906  16.692   4.601
82756W        W46480   1.291  42.001   3.676
82757W        W46481   6.426  17.064  14.866
82758W        W46482  29.593  20.653   2.749
82759W        W46483  22.604  17.795  12.069
82760W        W46484  14.335  25.590   5.135
82761W        W46485   4.789  43.298   3.861
82762W        W46486  30.633  26.084  11.494
82763W        W46487  39.335  38.432  13.448
82764W        W46488  29.175  39.982   4.165
82765W        W46489  12.166  15.269  11.559
82766W        W46490  13.197   7.222  11.114
82767W        W46491  21.240  29.078   2.332
82768W        W46492  25.040  28.144  14.487
82769W        W46493  25.173  19.162   3.865
82770W        W46494  37.964  21.074   1.439
82771W        W46495  20.640  16.145  14.837
82772W        W46496  19.733  21.221  14.921
82773W        W46497  16.642  44.336  10.509
82774W        W46498  16.808  27.629  11.488
82775W        W46499   8.258  34.588  10.630
82776W        W46500  35.866  16.255  11.977
82777W        W46501  24.998   0.918   0.738
82778W        W46502  11.296   5.378   4.334
82779W        W46503  12.712  18.701   4.637
82780W        W46504  44.850  41.955  13.513
82781W        W46505   5.842   7.903  12.072
82782W        W46506  37.466  17.796  10.967
82783W        W46507  25.515  20.188  10.559
82784W        W46508  24.648  38.478  12.889
82785W        W46509  43.975   2.351   4.624
82786W        W46510  40.318  24.661  13.960
82787W        W46511   5.279  23.588  12.386
82788W        W46512  12.661  25.082  10.408
82789W        W46513  27.084  44.340  11.569
82790W        W46514  19.093  39.994  10.439
82791W        W46515  34.503   5.884  11.045
82792W        W46516   7.366   2.277   0.900
82793W        W46517  32.559  33.984  11.386
82794W        W46518   9.208  35.962  13.019
82795W        W46519  24.635  36.456  11.992
82796W        W46520  23.020   4.837   3.237
82797W        W46521  30.424  19.258   4.697
82798W        W46522  32.982  35.571  14.325
82799W        W46523  13.746   0.325  10.519
82800W        W46524  14.801  21.572   2.832
82801W        W46525  36.560   8.266  11.876
82802W        W46526  40.499  29.660  11.071
82803W        W46527  13.642  42.862  11.483
82804W        W46528  41.371  37.544  14.851
82805W        W46529  44.319  41.385  12.442
82806W        W46530  16.274   8.680   4.301
82807W        W46531  11.260  29.168   2.302
82808W        W46532  41.821  13.278  10.972
82809W        W46533  15.794   8.315   2.302
82810W        W46534   1.828   5.195   2.332
82811W        W46535  22.536   8.804   2.365
82812W        W46536  14.610  21.667   1.929
82813W        W46537  37.404   0.475  13.817
82814W        W46538   6.916  41.922   4.210
82815W        W46539  23.142  34.576  14.372
82816W        W46540  26.080   0.363  13.941
82817W        W46541  25.530  11.748  14.320
82818W        W46542   6.417  34.883  13.373
82819W        W46543  24.171  19.654  14.349
82820W        W46544  28.667  18.772  10.529
82821W        W46545   1.916  30.140   1.283
82822W        W46546  17.238  42.313  12.050
82823W        W46547   5.855  36.942  13.011
82824W        W46548  15.322   7.789  14.461
82825W        W46549   9.337   1.732   1.780
82826W        W46550  44.324  20.722   2.351
82827W        W46551  32.509   5.691  10.436
82828W        W46552  42.407  34.042   2.376
82829W        W46553  11.854   7.331  12.478
82830W        W46554  29.590  28.932  10.455
82831W        W46555  33.905  20.255   2.837
82832W        W46556  21.041  25.497  10.478
82833W        W46557  18.582  16.791  14.365
82834W        W46558  25.989  25.018   2.864
82835W        W46559   1.440  14.616  11.991
82836W        W46560  44.306  34.544  10.506
82837W        W46561  24.028   2.464   2.751
82838W        W46562  37.079  29.148  14.913
82839W        W46563  24.618  14.711   0.381
82840W        W46564  13.248   2.838   0.892
82841W        W46565   5.820  10.234   0.960
82842W        W46566  25.682  39.824  14.855
82843W        W46567  23.704  18.195   1.932
82844W        W46568   3.810  13.298  14.880
82845W        W46569  19.593   3.858  13.383
82846W        W46570  28.149   0.905  10.572
82847W        W46571  26.162  35.415   3.665
82848W        W46572   8.694  23.218   3.297
82849W        W46573  31.978   6.758   4.335
82850W        W46574  29.509  17.747   0.415
82851W        W46575  44.991  41.377  13.859
82852W        W46576  22.073   7.368   0.744
82853W        W46577  31.930  13.295  10.457
82854W        W46578  31.080  30.506  13.487
82855W        W46579  39.503  26.974   4.233
82856W        W46580  24.577  37.450   2.418
82857W        W46581  14.687  26.182  14.394
82858W        W46582  44.886  20.067   0.255
82859W        W46583  33.607   7.732  10.446
82860W        W46584   9.243   7.299  12.871
82861W        W46585  39.353  24.058   0.798
82862W        W46586  23.506  28.931   0.425
82863W        W46587  33.033  29.520   2.662
82864W        W46588  18.209  12.811  11.891
82865W        W46589  14.774  26.508   1.791
82866W        W46590  33.624  21.224   2.886
82867W        W46591  32.945  27.591   1.870
82868W        W46592  19.559  31.418   1.922
82869W        W46593   4.860  24.611  11.068
82870W        W46594  28.989  40.368  10.897
82871W        W46595  39.012   2.817  11.397
82872W        W46596  42.341  22.240  14.412
82873W        W46597  19.754  13.181  10.595
82874W        W46598   5.695   3.287  12.933
82875W        W46599  38.949  22.252   1.764
82876W        W46600  14.599  19.265  14.952
82877W        W46601  16.111  40.859  11.611
82878W        W46602   0.321  19.743  13.327
82879W        W46603   4.762  26.086   3.669
82880W        W46604  32.634  11.788  10.551
82881W        W46605  34.092  41.809  14.930
82882W        W46606  23.678  35.506   4.296
82883W        W46607  18.693   8.393  13.367
82884W        W46608   4.737  38.029   3.823
82885W        W46609  14.239  10.352  10.929
82886W        W46610  37.365  41.513  11.588
82887W        W46611  41.490  30.413   2.188
82888W        W46612  35.367  44.264   1.765
82889W        W46613  20.043   8.892   5.265
82890W        W46614  33.121  27.065   0.863
82891W        W46615  34.475   5.736   2.375
82892W        W46616  33.564  28.625  12.414
82893W        W46617  33.475   7.800  12.965
82894W        W46618  22.738  29.144  14.797
82895W        W46619   2.932   4.268   2.290
82896W        W46620  44.977  10.203  11.569
82897W        W46621  30.089  30.968  13.876
82898W        W46622  11.796  13.314  13.013
82899W        W46623  41.922   0.780  12.381
82900W        W46624   9.754  16.739  11.475
82901W        W46625  26.175  18.064  11.073
82902W        W46626   0.485  30.622   3.718
82903W        W46627   9.853  31.533   3.165
82904W        W46628  28.100  12.613   0.858
82905W        W46629  42.941  30.600  11.122
82906W        W46630  15.649  14.752   0.470
82907W        W46631  23.515  35.501   0.801
82908W        W46632  18.284  24.130  11.558
82909W        W46633  39.818   5.424  11.943
82910W        W46634  27.481  30.135   4.659
82911W        W46635  22.069  43.480   4.240
82912W        W46636  22.070  14.272  12.928
82913W        W46637  20.662  20.043  14.312
82914W        W46638   4.357  32.621   1.851
82915W        W46639  34.948  44.279  13.505
82916W        W46640  10.356   9.210   2.837
82917W        W46641  16.667  37.366   2.874
82918W        W46642  40.950   1.367   0.840
82919W        W46643   1.978   9.739  13.850
82920W        W46644   7.845  44.351   0.898
82921W        W46645   0.790  25.572   2.727
82922W        W46646  22.584  19.569  10.502
82923W        W46647   5.770   9.177   2.383
82924W        W46648  18.697   1.743  11.589
82925W        W46649   7.811  10.281   4.342
82926W        W46650  19.040  13.229  12.028
82927W        W46651  41.406  26.517   0.913
82928W        W46652  28.632  21.676  10.610
82929W        W46653  20.529  20.090  12.371
82930W        W46654  14.316  44.860   2.792
82931W        W46655   5.346   5.726   3.641
82932W        W46656   1.783  30.951  13.843
82933W        W46657  13.673   6.304  13.943
82934W        W46658   4.409  24.714   0.243
82935W        W46659  24.695  27.561   3.247
82936W        W46660   1.272  29.949  13.358
82937W        W46661   3.728   4.856  14.016
82938W        W46662  11.807  34.880  11.417
82939W        W46663   0.891  44.447  12.914
82940W        W46664  40.030  10.658  12.522
82941W        W46665  19.244   6.736  13.540
82942W        W46666  11.805  22.054  14.470
82943W        W46667  18.225  41.828   0.271
82944W        W46668  33.882  38.851  11.512
82945W        W46669  19.174  43.479  14.367
82946W        W46670  11.728   8.665  10.439
82947W        W46671  17.158   7.207   2.784
82948W        W46672   6.251  23.540   0.874
82949W        W46673   8.373  13.632   4.775
82950W        W46674   1.249   8.345  13.478
82951W        W46675   9.758  40.411   3.312
82952W        W46676  15.237   2.377  12.458
82953W        W46677  35.537  19.640   2.348
82954W        W46678  17.256   6.740  14.967
82955W        W46679  24.113  25.098  14.787
82956W        W46680  36.066  27.047  10.923
82957W        W46681  32.472  25.017   4.230
82958W        W46682  26.577  37.355  13.004
82959W        W46683  32.073  34.107   1.799
82960W        W46684  41.393  16.804   2.180
82961W        W46685  39.334  11.689   2.851
82962W        W46686  19.056  25.985   4.701
82963W        W46687  26.984  16.088   0.892
82964W        W46688   5.280   6.380  14.804
82965W        W46689  23.643  14.227   0.804
82966W        W46690  14.149  12.766   4.162
82967W        W46691  35.473  26.073   2.875
82968W        W46692  36.369  20.572   4.710
82969W        W46693   7.207   3.354   1.753
82970W        W46694  16.196  35.093  12.339
82971W        W46695  34.507  24.188  11.945
82972W        W46696  10.169  28.620   3.281
82973W        W46697  13.275   3.812  13.822
82974W        W46698  34.899   1.848  12.403
82975W        W46699  26.140   8.301   1.866
82976W        W46700  27.565  39.894   3.655
82977W        W46701  44.404  26.680   2.755
82978W        W46702   1.257  30.650   4.162
82979W        W46703  16.171  27.078  11.994
82980W        W46704   1.328  21.249  12.420
82981W        W46705   1.783   1.935   0.926
82982W        W46706  11.647   1.850  11.448
82983W        W46707   6.728  14.313   2.886
82984W        W46708  21.737  10.211  11.072
82985W        W46709  29.554  42.876   4.794
82986W        W46710  13.286  36.472   4.687
82987W        W46711  16.196  26.700  13.848
82988W        W46712  42.863  11.144  12.497
82989W        W46713  16.165  38.076   4.676
82990W        W46714  37.913  24.698   3.852
82991W        W46715  24.585   9.239  10.960
82992W        W46716  13.287   3.303  13.880
82993W        W46717  43.876   3.853  12.446
82994W        W46718  36.050  35.887   3.657
82995W        W46719  26.979  43.786   0.891
82996W        W46720  42.927  41.853  10.446
82997W        W46721   0.975  42.393   1.853
82998W        W46722  29.451  41.383  12.472
82999W        W46723   5.302   3.744  13.513
83000W        W46724  34.021  12.237   4.814
83001W        W46725  42.422  14.290   3.783
83002W        W46726  22.645  36.928  13.957
83003W        W46727  13.285  20.542   4.773
83004W        W46728  43.476  18.550  12.063
83005W        W46729  20.765  32.960  12.352
83006W        W46730  13.109   8.216  12.995
83007W        W46731  14.661   8.669   3.209
83008W        W46732  28.024  41.439  11.383
83009W        W46733  16.811  26.113   0.285
83010W        W46734  15.182   6.826  11.987
83011W        W46735  19.107  10.334  10.995
83012W        W46736   1.808   4.225  12.450
83013W        W46737  24.230   6.241   3.861
83014W        W46738  36.973  40.362   0.254
83015W        W46739  39.841   0.473   3.235
83016W        W46740  40.483  31.462   2.832
83017W        W46741   3.250   5.434   4.234
83018W        W46742  16.268  25.020   1.773
83019W        W46743  25.599  13.191   4.805
83020W        W46744  26.655  26.036   0.375
83021W        W46745   1.254   8.753  10.552
83022W        W46746  14.777   6.205   0.744
83023W        W46747  24.129  31.067  10.593
83024W        W46748   3.437  23.653  13.335
83025W        W46749  42.451   3.925   3.338
83026W        W46750  16.619  22.195  14.477
83027W        W46751  25.635  11.325   4.820
83028W        W46752  40.322  29.931  10.465
83029W        W46753   3.879  22.617  12.404
83030W        W46754  26.029  24.045   1.764
83031W        W46755  16.120  24.634  13.842
83032W        W46756  33.130  10.710   2.683
83033W        W46757  20.074  10.777  14.781
83034W        W46758  39.485   5.244  14.026
83035W        W46759  44.842  36.941   2.896
83036W        W46760  28.029  19.189  13.816
83037W        W46761  20.146  35.360   4.687
83038W        W46762  13.140  38.824  12.846
83039W        W46763  34.994  21.023   1.396
83040W        W46764   5.202  38.897  13.500
83041W        W46765   3.224  42.316   0.916
83042W        W46766  21.686  32.909   3.308
83043W        W46767  23.004   2.724   0.297
83044W        W46768  23.088  33.967   3.375
83045W        W46769  34.055  42.830  14.395
83046W        W46770   7.817  17.714   2.846
83047W        W46771   2.957  17.069   2.723
83048W        W46772   4.904  44.446   4.307
83049W        W46773  11.680  43.416   2.272
83050W        W46774  38.055   4.913   2.349
83051W        W46775  10.641  20.258  12.868
83052W        W46776  29.614   1.281  14.487
83053W        W46777  11.127   0.781  12.955
83054W        W46778  33.596  30.434   3.660
83055W        W46779  35.602   1.254  11.532
83056W        W46780  40.389  10.292  14.022
83057W        W46781  36.073  18.245  11.963
83058W        W46782  33.589  33.988  13.502
83059W        W46783  40.867  29.935  10.944
83060W        W46784  12.654  12.769  12.086
83061W        W46785  31.084  28.568  11.046
83062W        W46786  24.066   7.195  10.427
83063W        W46787   4.258  11.241   3.317
83064W        W46788  29.615   7.683  11.939
83065W        W46789  39.808  20.247   0.784
83066W        W46790   0.785  29.508  13.036
83067W        W46791   9.226  23.169  12.839
83068W        W46792  36.549   3.295  14.772
83069W        W46793  42.860  37.500   1.210
83070W        W46794  30.077  30.140  11.932
83071W        W46795  39.022   5.287  11.075
83072W        W46796  43.773   3.256   2.886
83073W        W46797  23.516  10.788  12.470
83074W        W46798  33.579  36.063   2.189
83075W        W46799  27.182  18.184  10.909
83076W        W46800  43.374   4.296  11.065
83077W        W46801  35.897  26.165  10.417
83078W        W46802  28.616  22.537   2.312
83079W        W46803  26.147  25.540   1.218
83080W        W46804  24.979  39.521  11.013
83081W        W46805  25.986  40.428  14.506
83082W        W46806  31.120   1.256  14.007
83083W        W46807   3.354  37.899  14.328
83084W        W46808  44.260   0.403  14.511
83085W        W46809  20.122   7.724  13.952
83086W        W46810   1.444  32.912  13.338
83087W        W46811  14.654  10.201   1.260
83088W        W46812  12.755   8.826  14.905
83089W        W46813   2.383   0.287   4.266
83090W        W46814  12.127   4.447  13.364
83091W        W46815  31.494  21.642   3.830
83092W        W46816  24.040  32.518   0.858
83093W        W46817  16.201  40.316  13.413
83094W        W46818  27.022  10.808  14.803
83095W        W46819  16.275  39.909   1.258
83096W        W46820   9.253  16.772  11.077
83097W        W46821  30.930  32.018   1.833
83098W        W46822  29.967   8.180   3.265
83099W        W46823   9.846   9.787  14.990
83100W        W46824  12.829  20.127   1.797
83101W        W46825   2.242  41.358   0.314
83102W        W46826   1.856  27.445   1.283
83103W        W46827  31.123  20.203   2.841
83104W        W46828  13.346  24.207  13.429
83105W        W46829  35.108   5.243   3.702
83106W        W46830  33.881  43.356   2.298
83107W        W46831  16.074  16.582   1.238
83108W        W46832  18.561  36.503  12.913
83109W        W46833  30.049   7.318  10.075
83110W        W46834  29.630   1.279  13.827
83111W        W46835   3.299  32.958  11.469
83112W        W46836  28.644  18.784  14.283
83113W        W46837  31.480  14.256  13.056
83114W        W46838  32.457  32.050   4.811
83115W        W46839  33.058  33.068  12.432
83116W        W46840  40.543   0.965   1.286
83117W        W46841   9.854   2.845  12.448
83118W        W46842  20.224  18.152   3.817
83119W        W46843   0.751  21.534  13.805
83120W        W46844   4.875  13.331  10.063
83121W        W46845  34.904  18.087   0.319
83122W        W46846  26.551  31.534  12.991
83123W        W46847   9.876  19.262  14.854
83124W        W46848  16.219  21.215   1.873
83125W        W46849  15.189  20.661   1.369
83126W        W46850  26.672  36.372   1.793
83127W        W46851  19.768   7.318   4.651
83128W        W46852   6.787  12.844   1.439
83129W        W46853  35.899  10.266   0.874
83130W        W46854  18.554  40.865   0.379
83131W        W46855  28.619  12.853  12.354
83132W        W46856  22.195  43.324   0.452
83133W        W46857  19.267  30.439  10.444
83134W        W46858   2.805   0.488   2.865
83135W        W46859  33.032  32.003  14.777
83136W        W46860  21.548  16.610  11.569
83137W        W46861  31.978  20.555   3.315
83138W        W46862  43.934  36.865  10.091
83139W        W46863   0.344  24.130  11.544
83140W        W46864  16.184  29.123   3.682
83141W        W46865   4.888   7.180   1.752
83142W        W46866  31.630  31.128  11.563
83143W        W46867  33.038   1.928   3.846
83144W        W46868  33.940  14.209  12.407
83145W        W46869   5.272  39.416   0.795
83146W        W46870   3.923  13.638   2.840
83147W        W46871  16.244  43.888   4.733
83148W        W46872  30.472   1.342   0.386
83149W        W46873  15.258  12.347  11.531
83150W        W46874  30.570  17.217  10.505
83151W        W46875  34.034   6.805   4.630
83152W        W46876  34.569  29.950   3.847
83153W        W46877   7.339  17.236  10.522
83154W        W46878  22.636  41.932   4.694
83155W        W46879  17.063   8.877   3.689
83156W        W46880  30.025  37.880  11.554
83157W        W46881  33.081  38.854   2.268
83158W        W46882  29.969  25.472  13.423
83159W        W46883  37.368   9.768  14.445
83160W        W46884  36.438  19.658  14.997
83161W        W46885  12.286  37.085   2.333
83162W        W46886  31.128  24.186  10.594
83163W        W46887  16.583  23.984  13.041
83164W        W46888   3.886  43.951  12.831
83165W        W46889  40.414  31.516   0.842
83166W        W46890  19.112  27.945  13.326
83167W        W46891  21.155  12.632  12.937
83168W        W46892  42.327  23.687  14.472
83169W        W46893   4.423   0.793   1.840
83170W        W46894  17.782  34.521  10.559
83171W        W46895   1.761  35.498   1.724
83172W        W46896  44.757  36.564   4.773
83173W        W46897   5.859  35.455   2.326
83174W        W46898  28.065  38.829  12.569
83175W        W46899  22.035  14.149  14.945
83176W        W46900  25.711  43.922  12.484
83177W        W46901   6.189  24.025  10.160
83178W        W46902  39.375  26.017   4.763
83179W        W46903  36.061  44.985  11.926
83180W        W46904  33.982  30.039   1.749
83181W        W46905  39.003  40.347  11.013
83182W        W46906   5.836  21.684  11.589
83183W        W46907  44.351  44.999   2.218
83184W        W46908  21.126  33.119  13.046
83185W        W46909  12.188  37.349  11.018
83186W        W46910  21.099  34.422   0.954
83187W        W46911  20.656  20.573  14.384
83188W        W46912  42.502  15.122  13.542
83189W        W46913  30.993  39.996   4.785
83190W        W46914   4.405  23.726   0.290
83191W        W46915   5.922  33.480  11.002
83192W        W46916  44.426  43.784  14.965
83193W        W46917   4.226   8.353   3.849
83194W        W46918   1.422   5.928   3.730
83195W        W46919  36.062   4.856   2.401
83196W        W46920  24.994  13.132   3.766
83197W        W46921  25.543  14.748   2.805
83198W        W46922   1.250  35.585  14.981
83199W        W46923  12.696  22.678  10.631
83200W        W46924  26.019  29.438   1.917
83201W        W46925  13.631  35.511   0.395
83202W        W46926  44.829   8.699  12.487
83203W        W46927  30.136   5.764  13.960
83204W        W46928  32.519  13.663  12.557
83205W        W46929   2.237  40.861  13.794
83206W        W46930   7.839  21.556  12.549
83207W        W46931  32.984   4.871   4.301
83208W        W46932  15.234  30.127   3.281
83209W        W46933   8.194  13.834   1.777
83210W        W46934  23.599   1.910  14.487
83211W        W46935  22.557  39.550  11.049
83212W        W46936  42.841  13.162   2.837
83213W        W46937  13.161  33.434   3.242
83214W        W46938  21.039   5.412   0.326
83215W        W46939  32.620  34.065   2.276
83216W        W46940  33.060   1.392  11.878
83217W        W46941   2.452  24.544  14.875
83218W        W46942  16.573  25.583  11.923
83219W        W46943  11.694  43.912  12.878
83220W        W46944  27.582  39.502   1.749
83221W        W46945  19.660   5.768   1.777
83222W        W46946  19.194   2.763  12.872
83223W        W46947   6.828  43.513   0.301
83224W        W46948  20.183  20.075  11.876
83225W        W46949  42.802  27.971   2.335
83226W        W46950  23.129  23.521  12.521
83227W        W46951  40.010  32.051  11.044
83228W        W46952  11.666   0.278  12.942
83229W        W46953  37.923  33.573   3.752
83230W        W46954   3.232  10.705  12.481
83231W        W46955   9.237  27.524   3.160
83232W        W46956  28.537  30.045  12.053
83233W        W46957  26.684  36.499  10.459
83234W        W46958  40.354  43.837   4.810
83235W        W46959  12.345  43.007  14.441
83236W        W46960  21.213  15.646   1.312
83237W        W46961  30.580  12.154   4.822
83238W        W46962   8.306  20.111  13.837
83239W        W46963   9.387   6.317  11.062
83240W        W46964  37.876  26.476  10.617
83241W        W46965  37.839  43.986  11.484
83242W        W46966  24.081  44.928   2.264
83243W        W46967  43.410  19.712  13.412
83244W        W46968  17.744  44.929   2.271
83245W        W46969  33.004  23.089   0.965
83246W        W46970  15.198  18.558  10.944
83247W        W46971  35.529  17.105   3.850
83248W        W46972  36.546   6.314   3.757
83249W        W46973  11.822   4.709  10.915
83250W        W46974  43.907  33.008  12.859
83251W        W46975  32.962  27.675  10.459
83252W        W46976  37.540   6.678   2.347
83253W        W46977  33.567   8.764   2.796
83254W        W46978   0.426   2.964   0.778
83255W        W46979  27.584  19.654  13.409
83256W        W46980  23.214   6.733  14.394
83257W        W46981  14.233  43.295  11.099
83258W        W46982  10.139  21.217  12.998
83259W        W46983   3.867  19.740  14.419
83260W        W46984  33.065  13.211  10.053
83261W        W46985  22.660  19.737   0.765
83262W        W46986  32.043  43.834  10.908
83263W        W46987  38.040  39.320   0.940
83264W        W46988  18.234  43.288  11.456
83265W        W46989  39.823  40.387   1.250
83266W        W46990  42.858  35.980   2.787
83267W        W46991  25.580  19.657  13.417
83268W        W46992  11.832  21.195   4.317
83269W        W46993  15.239  22.706   0.921
83270W        W46994  34.998  23.060  14.997
83271W        W46995  11.652  18.667  13.993
83272W        W46996  39.841   7.743   3.209
83273W        W46997  27.473  10.143  12.868
83274W        W46998  21.535  24.558   4.802
83275W        W46999  12.834  35.978  11.942
83276W        W47000  30.154  31.148   2.749
83277W        W47001  43.360  10.220   9.963
83278W        W47002  38.433  23.010   2.729
83279W        W47003   6.404  42.825  13.504
83280W        W47004   5.785  22.745  14.330
83281W        W47005  31.975  41.524   3.863
83282W        W47006  22.611  37.452  13.041
83283W        W47007   9.725  36.468  12.071
83284W        W47008  22.742  30.160   5.126
83285W        W47009  18.121  15.279   3.695
83286W        W47010   3.840   0.805  12.989
83287W        W47011  18.211   0.363  14.008
83288W        W47012  34.521  16.605   2.271
83289W        W47013  37.389  30.499   0.304
83290W        W47014   0.375  25.696   1.218
83291W        W47015  39.393   4.918  10.049
83292W        W47016   9.365   2.963   3.284
83293W        W47017  15.146   2.723   4.692
83294W        W47018   5.760  35.410  12.084
83295W        W47019  32.412  18.710  13.420
83296W        W47020  33.436  13.674   2.317
83297W        W47021   5.740   4.434  13.916
83298W        W47022  29.425  27.581   3.217
83299W        W47023  41.511  34.456   1.432
83300W        W47024  34.515  39.439  11.995
83301W        W47025  35.545   7.299  12.086
83302W        W47026  25.677   3.774  14.956
83303W        W47027  17.101   0.807   1.862
83304W        W47028  11.797  17.717   1.852
83305W        W47029  36.428  42.952  11.488
83306W        W47030  34.066  26.676  11.491
83307W        W47031  16.716  11.373  11.007
83308W        W47032  38.061   3.398  10.518
83309W        W47033  22.018  11.277   0.900
83310W        W47034  44.954  11.740   0.248
83311W        W47035  14.765  35.052   2.289
83312W        W47036   2.366  32.434  10.454
83313W        W47037  28.980   5.420   1.770
83314W        W47038  19.071  40.961   1.415
83315W        W47039  13.216  40.925  11.435
83316W        W47040  21.517   5.930   1.913
83317W        W47041  29.038  20.176   2.311
83318W        W47042  17.125  31.940   2.702
83319W        W47043   9.816  40.895  12.564
83320W        W47044   8.324  22.195  14.478
83321W        W47045   1.406  16.113   1.251
83322W        W47046  35.579  44.855   3.675
83323W        W47047  25.492  37.874  10.548
83324W        W47048  39.924  14.130  14.423
83325W        W47049   9.223  42.373   4.698
83326W        W47050  23.144  25.153  10.956
83327W        W47051  17.197   5.407   3.359
83328W        W47052  13.292  21.605   4.700
83329W        W47053   0.754  33.919  11.420
83330W        W47054  44.290   8.338   1.745
83331W        W47055  14.115  21.514   1.906
83332W        W47056  36.385  32.084  13.447
83333W        W47057   3.268   8.187   2.337
83334W        W47058  17.644  30.616   3.180
83335W        W47059  44.849   5.409   2.270
83336W        W47060  24.182  11.327   3.665
83337W        W47061  23.501  40.509   2.714
83338W        W47062  34.073   0.807  13.896
83339W        W47063  15.262  21.027   1.394
83340W        W47064  30.039  20.566  14.459
83341W        W47065  22.185  22.170  11.499
83342W        W47066  26.520   7.750  10.427
83343W        W47067  18.228   7.188   1.838
83344W        W47068  37.844  10.190   0.312
83345W        W47069  35.409   3.717   1.215
83346W        W47070   8.257  44.484  13.523
83347W        W47071  19.234  44.802   0.871
83348W        W47072  27.058  17.644  11.524
83349W        W47073  11.851  43.368   3.223
83350W        W47074   4.409  12.346   5.309
83351W        W47075  15.723  14.293  12.986
83352W        W47076   4.724   7.379  11.959
83353W        W47077  31.512  27.606  13.504
83354W        W47078  13.722  31.476   1.807
83355W        W47079   6.740  32.485  11.866
83356W        W47080  43.465   7.374   4.800
83357W        W47081  17.728  28.095  12.420
83358W        W47082  13.616  33.480  12.832
83359W        W47083  28.439  22.088   0.928
83360W        W47084   0.258  18.134  11.003
83361W        W47085  43.405   7.746  12.089
83362W        W47086  25.083  26.486  11.377
83363W        W47087  21.096   8.766   1.302
83364W        W47088   4.700  16.590  12.882
83365W        W47089  27.007  12.173   2.704
83366W        W47090  34.580  36.011   0.935
83367W        W47091  13.112  33.470  10.522
83368W        W47092  30.521   8.874  13.427
83369W        W47093  19.746   3.885   0.425
83370W        W47094   6.247  32.505   0.274
83371W        W47095  18.593  36.033   1.293
83372W        W47096  22.651  20.047  11.502
83373W        W47097  36.998   4.381  13.376
83374W        W47098   4.922  35.905  11.049
83375W        W47099  19.094  25.109  12.084
83376W        W47100   1.335  10.675  10.902
83377W        W47101   7.266   9.878   3.841
83378W        W47102  32.424  17.081  14.902
83379W        W47103  11.314  25.122  12.399
83380W        W47104  36.952   7.856  12.920
83381W        W47105  39.901  44.831   2.765
83382W        W47106  33.923  33.470   0.737
83383W        W47107  35.480   6.257   4.292
83384W        W47108  36.019   3.725   3.347
83385W        W47109  36.427  42.361  11.425
83386W        W47110  34.393  33.450   3.818
83387W        W47111  14.207  17.088   5.090
83388W        W47112   2.812  15.720  12.422
83389W        W47113  14.230  18.692  14.890
83390W        W47114  21.260   2.325   1.277
83391W        W47115  16.251  20.216   1.865
83392W        W47116  10.715  26.989  12.031
83393W        W47117   6.258  38.827  12.931
83394W        W47118  32.431  11.224  10.901
83395W        W47119  12.333  13.279  13.344
83396W        W47120   9.857  11.266   4.727
83397W        W47121   9.750  16.727  11.079
83398W        W47122   0.329  43.986   1.240
83399W        W47123  17.602  24.641  10.473
83400W        W47124  34.437  30.072   0.428
83401W        W47125  34.456  10.332  10.624
83402W        W47126  30.938   7.249   0.433
83403W        W47127   7.674  19.200   1.786
83404W        W47128  15.295  22.587  10.961
83405W        W47129  41.838   4.907  10.035
83406W        W47130  14.810  21.738   4.312
83407W        W47131  16.743  36.489   0.431
83408W        W47132   6.336   2.831   0.328
83409W        W47133   5.287  43.510   3.817
83410W        W47134  21.647  24.592  13.468
83411W        W47135   9.348  25.093   9.929
83412W        W47136   8.895  31.087  10.427
83413W        W47137  13.708  38.331   2.777
83414W        W47138  17.221  21.226  11.964
83415W        W47139  41.508  15.695  12.500
83416W        W47140  24.671  16.777   2.829
83417W        W47141  42.923  30.559  12.507
83418W        W47142  34.555   4.242  13.007
83419W        W47143  38.925  21.603   4.147
83420W        W47144   1.780   2.920   0.767
83421W        W47145  13.629  22.028   0.340
83422W        W47146  20.532  25.545   0.259
83423W        W47147  18.607  38.395  12.465
83424W        W47148  25.982  14.713  12.529
83425W        W47149  41.524  42.814  11.989
83426W        W47150   3.731  28.091   1.723
83427W        W47151   4.228  31.516  11.010
83428W        W47152  20.618  38.879  13.492
83429W        W47153   5.890   3.813  12.430
83430W        W47154  14.103  44.334   4.781
83431W        W47155  38.901  26.542  10.501
83432W        W47156  25.152  40.307  12.386
83433W        W47157  10.226   0.759  10.594
83434W        W47158  29.061   5.891  11.511
83435W        W47159  42.409  35.977   1.347
83436W        W47160  29.127  14.181  10.903
83437W        W47161  36.404   2.352  14.358
83438W        W47162  20.537   8.246  13.963
83439W        W47163  19.122   3.892  13.384
83440W        W47164  13.608  10.148  12.913
83441W        W47165  11.308  10.201  12.427
83442W        W47166  23.128  41.008   1.914
83443W        W47167  14.755  39.839  11.042
83444W        W47168   3.785  37.909  13.951
83445W        W47169  26.501  25.593   0.422
83446W        W47170  38.886  39.842  14.933
83447W        W47171   5.324  36.511  12.344
83448W        W47172  27.608  23.720   4.777
83449W        W47173  29.588  10.728  13.902
83450W        W47174  11.158  11.668  11.092
83451W        W47175  16.804  31.918   9.927
83452W        W47176  31.447  35.393  13.394
83453W        W47177  16.574   2.329   4.820
83454W        W47178   2.379  44.495   1.812
83455W        W47179  13.693   3.892   0.293
83456W        W47180  44.281  15.780   3.858
83457W        W47181  17.300   0.263   4.634
83458W        W47182  44.313  26.967   4.792
83459W        W47183  30.922   6.236  12.514
83460W        W47184  30.096  43.504   3.780
83461W        W47185  29.045   3.312   4.765
83462W        W47186  38.528  10.849   0.405
83463W        W47187  25.148   2.255  12.544
83464W        W47188  13.812   4.449   0.948
83465W        W47189  16.255   5.705   0.780
83466W        W47190  30.160  25.474   3.354
83467W        W47191  28.043  10.371  14.485
83468W        W47192   1.931   1.413   3.731
83469W        W47193  24.602  10.829  11.976
83470W        W47194  20.125  32.912   1.901
83471W        W47195  41.462  41.904   4.120
83472W        W47196   7.231  20.141  14.873
83473W        W47197   3.947  27.519   1.743
83474W        W47198  37.404  35.971   2.836
83475W        W47199  21.090  42.790  13.838
83476W        W47200   4.291  17.134  12.938
83477W        W47201  13.762  12.311   2.339
83478W        W47202   9.381  10.152  10.121
83479W        W47203  15.285  15.105  12.932
83480W        W47204  39.000  40.403   1.328
83481W        W47205  18.172   0.907  13.885
83482W        W47206  30.972  22.118   4.720
83483W        W47207  27.566  39.335  14.844
83484W        W47208  41.423  37.384  10.979
83485W        W47209  36.530  19.696   4.803
83486W        W47210   9.827  42.502   4.335
83487W        W47211  43.329  23.532   0.911
83488W        W47212  36.348  26.676   4.702
83489W        W47213  25.553  14.176   5.271
83490W        W47214   8.881  12.341   3.183
83491W        W47215  24.670  27.041   5.687
83492W        W47216  28.108  13.838   0.289
83493W        W47217  30.529  21.656   1.882
83494W        W47218  20.744  27.632  14.004
83495W        W47219   7.315  13.764   2.663
83496W        W47220  29.941   8.383  10.951
83497W        W47221  28.604   3.253  12.459
83498W        W47222   0.262  29.548   4.166
83499W        W47223  40.341  12.221   1.711
83500W        W47224  39.386   5.704   1.379
83501W        W47225  37.449  41.026   2.787
83502W        W47226   6.739   4.385   0.960
83503W        W47227  25.142  13.308   4.691
83504W        W47228  12.739  16.737   2.272
83505W        W47229  34.978  44.902  10.542
83506W        W47230  36.996  42.289   1.288
83507W        W47231  43.992  16.784   3.656
83508W        W47232  41.338  41.898  14.296
83509W        W47233  20.597   9.726   1.862
83510W        W47234   6.738  19.587  11.421
83511W        W47235  43.397   5.425  12.020
83512W        W47236  34.416   7.716  13.307
83513W        W47237  35.564  40.887   0.377
83514W        W47238  28.065  39.918  14.863
83515W        W47239   3.258  30.923  11.857
83516W        W47240  33.906  20.752  12.456
83517W        W47241  23.022  17.635  13.358
83518W        W47242  41.317  16.125  10.551
83519W        W47243  27.466  25.685  12.460
83520W        W47244  43.781  25.654   2.851
83521W        W47245  22.231  31.489   5.605
83522W        W47246  11.283  43.274   0.863
83523W        W47247  13.165  36.086   0.830
83524W        W47248  10.373  12.650   3.721
83525W        W47249  40.880   7.725  14.484
83526W        W47250  12.667  30.005   4.200
83527W        W47251  18.627  34.531   3.633
83528W        W47252  11.634   8.654   3.381
83529W        W47253  21.581  16.797  13.396
83530W        W47254  14.696  21.225   2.861
83531W        W47255   8.326  35.918  13.024
83532W        W47256  41.868  10.862   4.648
83533W        W47257  15.814  19.671  10.603
83534W        W47258  31.053   5.335  10.480
83535W        W47259  25.503  32.572  10.899
83536W        W47260  43.466  20.057   0.478
83537W        W47261  20.271  30.041   0.949
83538W        W47262  12.288  31.557   0.768
83539W        W47263   2.348  19.053   3.375
83540W        W47264   9.749  21.611  11.557
83541W        W47265  16.075  20.687   1.294
83542W        W47266  31.905   5.342  11.983
83543W        W47267  24.227  28.466  10.420
83544W        W47268  26.104  37.408  11.085
83545W        W47269  30.620  19.700  12.895
83546W        W47270  24.063  42.302  12.547
83547W        W47271   8.725  27.664   4.728
83548W        W47272  14.795  16.200   4.654
83549W        W47273  39.992   6.185  13.368
83550W        W47274  34.037  22.744  10.159
83551W        W47275  20.069  33.067   2.328
83552W        W47276  39.050  44.320  13.533
83553W        W47277  38.064  38.983   0.839
83554W        W47278  41.840  42.960   9.579
83555W        W47279  17.177   6.404  14.869
83556W        W47280  40.970  31.940   2.244
83557W        W47281   3.227  44.353  10.627
83558W        W47282  24.539  13.210  12.372
83559W        W47283  43.419   2.926  13.985
83560W        W47284  21.110  18.780   2.215
83561W        W47285  25.616  27.038  10.448
83562W        W47286  24.063  31.152  13.917
83563W        W47287   4.326  16.664   4.789
83564W        W47288  36.538   3.443   3.376
83565W        W47289  20.242  11.198  11.552
83566W        W47290  11.290  44.470   3.686
83567W        W47291   1.945  23.125   1.317
83568W        W47292  11.703  24.633   1.822
83569W        W47293   9.183  42.403  12.420
83570W        W47294  12.119  16.683   2.242
83571W        W47295  33.093  11.803   3.706
83572W        W47296  41.328   7.363  12.889
83573W        W47297   8.234   6.852   1.393
83574W        W47298   0.312  41.843  11.562
83575W        W47299  40.926  41.898  14.295
83576W        W47300  10.239   7.807   0.794
83577W        W47301  27.164  11.701   2.406
83578W        W47302  13.671  22.651  11.606
83579W        W47303  32.091  29.109  11.561
83580W        W47304  21.051  38.989  11.373
83581W        W47305  16.132  23.642   2.768
83582W        W47306  14.229   2.766  13.533
83583W        W47307  25.470   8.358  11.903
83584W        W47308   0.877  25.074   2.203
83585W        W47309   2.871  12.638   3.643
83586W        W47310   5.843  15.120  12.511
83587W        W47311  18.714   7.856  13.850
83588W        W47312  36.508  39.995  10.598
83589W        W47313  43.514  10.832  14.338
83590W        W47314  16.281  27.445  11.863
83591W        W47315  21.191  39.556  13.437
83592W        W47316  38.046  17.620   3.205
83593W        W47317  31.643  28.436   3.328
83594W        W47318  41.529   9.230   3.838
83595W        W47319  21.088   4.255  14.297
83596W        W47320  25.686  28.546   2.804
83597W        W47321  28.080   2.927  11.378
83598W        W47322  33.593  34.568  13.958
83599W        W47323  22.746   3.259   4.205
83600W        W47324  21.742   9.176   3.153
83601W        W47325   6.302   0.749  13.865
83602W        W47326  32.016  27.493   9.954
83603W        W47327   3.776  25.663   1.386
83604W        W47328  21.194  10.771   0.279
83605W        W47329   1.840  37.346  13.337
83606W        W47330  35.411  10.360   1.399
83607W        W47331  39.384  27.504  10.496
83608W        W47332  28.169   7.281  12.440
83609W        W47333  13.203   0.371  11.024
83610W        W47334  26.197  34.514  13.951
83611W        W47335  32.435  44.433   1.216
83612W        W47336   5.857   6.266   3.320
83613W        W47337  29.664  44.486  14.457
83614W        W47338  19.106  37.991   0.399
83615W        W47339  11.740  25.131   3.770
83616W        W47340  37.036  18.267  12.058
83617W        W47341  36.857  35.964   3.148
83618W        W47342  32.483  17.181   1.416
83619W        W47343  22.739   3.219   2.731
83620W        W47344  42.345  34.921  11.124
83621W        W47345   8.853  28.008   1.766
83622W        W47346  10.375  14.142   0.834
83623W        W47347  35.090  10.872   0.740
83624W        W47348   0.803  26.592   0.834
83625W        W47349  12.844  22.538  11.017
83626W        W47350  27.673  24.491  12.538
83627W        W47351  24.976  28.987   0.839
83628W        W47352  20.600  44.905   1.238
83629W        W47353   7.858  13.223   0.796
83630W        W47354  33.094  16.251  12.835
83631W        W47355  37.996  25.186  14.470
83632W        W47356  32.548  33.116  13.821
83633W        W47357  20.684  12.631  14.452
83634W        W47358   4.444  12.218  12.063
83635W        W47359  37.534  13.675   3.303
83636W        W47360  14.099   9.392  10.901
83637W        W47361  37.438  19.645   0.755
83638W        W47362  44.990   4.935   2.832
83639W        W47363  11.855   5.833  12.845
83640W        W47364  34.427  23.696   2.190
83641W        W47365  24.193   4.803   2.387
83642W        W47366  43.417   4.399   1.411
83643W        W47367  10.668  14.604  11.078
83644W        W47368  40.317  15.133  13.418
83645W        W47369  35.988   1.282  10.603
83646W        W47370   6.732  39.900  12.349
83647W        W47371  37.464  22.112   1.913
83648W        W47372  11.793  12.135  14.480
83649W        W47373  43.870  28.527   0.906
83650W        W47374  42.807  38.338  13.342
83651W        W47375  24.658  12.759  12.948
83652W        W47376  18.781  40.798  13.955
83653W        W47377   0.889   7.257   3.696
83654W        W47378  32.913  10.660  13.035
83655W        W47379   1.746   1.756  11.470
83656W        W47380  35.556  22.721   0.767
83657W        W47381  31.592  44.837  10.454
83658W        W47382  44.883  13.766  14.368
83659W        W47383   8.794  43.404  12.071
83660W        W47384  28.942  30.053  14.934
83661W        W47385  40.400  20.031   4.193
83662W        W47386   2.778  21.717   0.401
83663W        W47387  33.084  28.088   0.959
83664W        W47388  17.758  36.491   3.764
83665W        W47389   0.383  37.360   0.806
83666W        W47390  42.965  33.536  10.439
83667W        W47391  28.627  36.503  11.086
83668W        W47392   4.288  43.294   3.655
83669W        W47393  11.148  35.046  11.546
83670W        W47394  23.584  17.213  12.346
83671W        W47395  10.385  43.322   4.656
83672W        W47396  40.427  31.069   1.715
83673W        W47397  38.507   7.278   3.655
83674W        W47398   7.716  16.777   2.726
83675W        W47399  35.501  37.402   0.910
83676W        W47400   6.811  16.663   2.718
83677W        W47401   5.403   1.955   4.297
83678W        W47402   3.806  32.130   2.371
83679W        W47403  13.691   7.899  11.020
83680W        W47404  34.007  35.069  14.397
83681W        W47405   5.294  23.997  11.991
83682W        W47406  36.353  17.593   2.361
83683W        W47407  10.852   4.861   0.309
83684W        W47408  31.922  17.661  11.866
83685W        W47409   2.461  17.708   1.280
83686W        W47410  25.582  14.104  13.982
83687W        W47411   4.876  28.944   4.736
83688W        W47412  34.876   2.247   0.952
83689W        W47413  29.084   5.765  12.917
83690W        W47414  33.104  33.999   2.869
83691W        W47415  18.635  22.251  11.019
83692W        W47416  28.606  16.158  12.397
83693W        W47417  28.081  14.115  11.087
83694W        W47418  20.591   6.725   4.822
83695W        W47419  25.019  43.812  10.568
83696W        W47420   4.906  34.116  11.099
83697W        W47421  11.836  29.173   4.204
83698W        W47422  32.482  37.403   1.235
83699W        W47423  19.258  28.625   3.305
83700W        W47424  24.576  34.422  11.371
83701W        W47425  22.623  44.365   4.300
83702W        W47426  18.619  21.019   2.232
83703W        W47427  12.280  20.763  13.055
83704W        W47428  24.187  33.910  14.435
83705W        W47429  35.006  18.640  11.987
83706W        W47430   0.414  18.105  12.880
83707W        W47431   2.921  23.039  12.535
83708W        W47432   7.188  38.842   2.830
83709W        W47433  12.737   9.355   4.282
83710W        W47434   2.286  26.551   2.365
83711W        W47435  27.041  12.624   0.400
83712W        W47436  40.373  11.653   4.828
83713W        W47437  41.880   5.796  12.925
83714W        W47438  20.190  44.955   4.651
83715W        W47439  26.559  23.617  12.911
83716W        W47440   9.877   0.490  11.441
83717W        W47441   8.664  39.477   2.804
83718W        W47442  44.383  23.231  12.580
83719W        W47443  32.041  30.112   2.329
83720W        W47444  17.729   4.939  13.469
83721W        W47445  23.994  12.345  14.843
83722W        W47446  11.131   0.292  13.924
83723W        W47447  40.955   2.899  10.444
83724W        W47448  29.021  19.209   2.703
83725W        W47449  20.674  27.084  11.585
83726W        W47450  28.521  34.008  13.973
83727W        W47451  39.034  27.644  13.523
83728W        W47452  23.735  19.065  12.470
83729W        W47453  29.474  35.475  10.589
83730W        W47454  39.932   9.275   3.267
83731W        W47455  36.407  33.098   0.746
83732W        W47456  25.183  35.484  14.012
83733W        W47457  33.931  15.128  10.144
83734W        W47458   4.734   9.772  11.004
83735W        W47459  29.967  43.286   1.400
83736W        W47460  37.019  11.214  10.477
83737W        W47461  13.793  39.007  11.895
83738W        W47462  11.243  12.338  12.871
83739W        W47463  32.067  41.986   1.752
83740W        W47464  10.191   6.310  12.066
83741W        W47465  43.281  24.220  12.554
83742W        W47466  13.820   6.218   1.721
83743W        W47467  28.646   4.397   3.695
83744W        W47468  33.528  19.771   2.336
83745W        W47469  38.860   7.188   2.299
83746W        W47470  16.788  23.131  14.005
83747W        W47471  15.284   7.699   4.137
83748W        W47472  23.731   8.288   1.730
83749W        W47473  27.537  10.202   0.790
83750W        W47474  39.903  11.644   4.695
83751W        W47475  37.063  29.495   3.333
83752W        W47476  28.182   9.255   2.837
83753W        W47477  13.757  29.964  13.327
83754W        W47478  13.313  20.663   1.270
83755W        W47479   2.882  15.177   3.383
83756W        W47480  33.953   3.857  12.578
83757W        W47481  24.060  34.074  10.425
83758W        W47482  39.355  42.821  12.552
83759W        W47483  18.071  18.219  13.020
83760W        W47484  14.136  26.120  13.008
83761W        W47485  38.418  24.001   2.402
83762W        W47486   8.825  37.047   0.834
83763W        W47487  14.778  35.478  10.623
83764W        W47488  21.617  44.981   0.244
83765W        W47489  13.276   8.167   4.350
83766W        W47490  40.483   9.838  13.478
83767W        W47491  15.607  22.631   4.683
83768W        W47492  42.478  18.207   0.951
83769W        W47493  29.077  17.695   3.307
83770W        W47494  32.524  31.088  14.437
83771W        W47495   1.262  34.935   1.388
83772W        W47496   1.338  12.786   2.821
83773W        W47497  28.031  14.276  11.405
83774W        W47498  28.179   3.818  14.487
83775W        W47499  27.453  27.571  11.417
83776W        W47500  31.553   5.906  11.388
83777W        W47501  35.083  33.937  11.868
83778W        W47502   6.374  37.005  12.398
83779W        W47503  38.417  28.078  10.566
83780W        W47504   5.349   2.265  12.885
83781W        W47505  11.139  14.286   5.230
83782W        W47506  40.447  40.492   0.384
83783W        W47507  11.705  36.949  10.580
83784W        W47508  26.099   0.462   4.726
83785W        W47509  21.082  42.315  13.357
83786W        W47510   0.862  18.748  14.867
83787W        W47511  42.482  42.450  12.380
83788W        W47512   5.708  12.343  12.059
83789W        W47513  19.700  11.128   0.833
83790W        W47514  29.980  24.984  13.432
83791W        W47515   1.758  14.651  10.445
83792W        W47516  19.272  18.050  11.017
83793W        W47517  12.352  41.882  11.397
83794W        W47518   9.770  40.491   4.710
83795W        W47519  36.551  15.159  11.090
83796W        W47520   4.852  35.049   1.801
83797W        W47521  15.146  18.088   3.178
83798W        W47522  28.625  42.368  10.468
83799W        W47523  17.126  30.126  15.000
83800W        W47524  17.084   0.284   1.279
83801W        W47525  41.987  28.025  10.543
83802W        W47526   4.818   8.864   2.872
83803W        W47527  22.555  18.109   9.994
83804W        W47528  14.707  40.369   4.122
83805W        W47529  43.791  22.048  10.901
83806W        W47530  44.267  23.052  11.432
83807W        W47531  23.636   4.372  11.900
83808W        W47532  10.346  15.727  14.428
83809W        W47533  30.973  14.320  11.959
83810W        W47534  15.736  12.701  14.030
83811W        W47535   8.405   3.219  14.031
83812W        W47536   0.937  41.472  13.063
83813W        W47537  18.103   9.298   3.790
83814W        W47538  26.127  44.883   3.714
83815W        W47539  34.583   7.889   3.769
83816W        W47540  43.387   0.913   1.879
83817W        W47541   7.862  18.577   1.915
83818W        W47542  31.420   3.330  10.420
83819W        W47543   9.714  40.801   4.710
83820W        W47544  41.483  26.527   3.309
83821W        W47545  38.553  33.120  11.977
83822W        W47546  22.194   3.284   3.832
83823W        W47547  38.368  37.447   3.732
83824W        W47548  15.650   2.930  13.967
83825W        W47549  19.595  36.368   0.810
83826W        W47550  10.300  33.405   2.349
83827W        W47551  39.048  28.964  10.003
83828W        W47552  14.265  42.997   2.828
83829W        W47553   7.253  13.228   9.566
83830W        W47554  39.919  20.168  14.295
83831W        W47555  33.456   7.336   0.756
83832W        W47556  30.038  17.223   4.650
83833W        W47557   9.264  20.554   2.764
83834W        W47558  13.342   5.212  11.513
83835W        W47559  13.298  28.066  10.102
83836W        W47560  15.587  10.350   0.758
83837W        W47561   2.940  16.771   2.826
83838W        W47562  35.032   1.360  11.446
83839W        W47563  43.371  21.057   0.759
83840W        W47564  25.084  36.984  12.526
83841W        W47565  26.067  38.854  12.569
83842W        W47566  34.433  39.358  13.469
83843W        W47567  42.322  38.383   3.739
83844W        W47568   3.402   2.316   1.369
83845W        W47569  17.777  43.992  13.955
83846W        W47570   6.268  29.559   4.222
83847W        W47571  21.582  32.037  13.406
83848W        W47572  25.037  28.614  13.446
83849W        W47573  18.604  43.478  11.866
83850W        W47574  20.186  24.052  14.789
83851W        W47575  36.855   5.853   3.356
83852W        W47576  10.668   5.784  14.827
83853W        W47577  41.296  14.100  10.912
83854W        W47578   1.874  32.408   2.229
83855W        W47579  12.700  44.916  11.928
83856W        W47580   5.787  23.112  11.948
83857W        W47581  33.094  24.624   3.297
83858W        W47582  15.686  22.720  10.974
83859W        W47583   6.709  10.718   2.695
83860W        W47584  41.920  31.635  11.507
83861W        W47585  18.197  44.266   4.119
83862W        W47586  43.462   3.933   1.363
83863W        W47587  24.063  13.303  11.970
83864W        W47588  34.581   9.664  12.454
83865W        W47589  28.962  13.824  14.467
83866W        W47590  20.244  18.074  11.588
83867W        W47591   3.900  35.409  12.505
83868W        W47592  42.917  16.813  10.036
83869W        W47593  37.410   4.221  12.361
83870W        W47594  28.503   3.921  10.923
83871W        W47595   9.688   3.392   4.807
83872W        W47596  24.674  44.283   4.343
83873W        W47597  33.112   9.182  12.487
83874W        W47598  10.686  32.571   0.848
83875W        W47599  10.878  19.715   4.669
83876W        W47600  14.829  18.177  14.974
83877W        W47601  12.116  22.135  11.433
83878W        W47602  19.698  32.054   0.809
83879W        W47603  33.983  20.129  11.371
83880W        W47604   4.262  12.147   3.207
83881W        W47605  22.232  26.102  11.091
83882W        W47606   4.792  35.466   3.228
83883W        W47607  39.418  39.326   3.634
83884W        W47608  33.599  21.612   4.644
83885W        W47609  25.001  20.586  10.993
83886W        W47610   3.911  34.047   2.398
83887W        W47611   2.730  40.838   2.776
83888W        W47612  40.797  34.413   1.721
83889W        W47613  36.062  27.525  12.904
83890W        W47614  36.003   4.728   4.789
83891W        W47615  10.265   5.846  14.832
83892W        W47616  40.510   4.850  14.846
83893W        W47617  37.015  26.596  14.506
83894W        W47618  25.551   1.910   0.358
83895W        W47619  18.186  42.970   2.802
83896W        W47620  13.179   0.782   4.273
83897W        W47621  40.028  20.725  14.474
83898W        W47622  41.532   5.898  13.427
83899W        W47623  36.449  19.576   3.655
83900W        W47624  37.522  39.898   1.760
83901W        W47625  22.508  10.772   0.265
83902W        W47626  18.693  18.699   1.726
83903W        W47627  43.808  33.397   3.654
83904W        W47628  38.917   6.195   1.829
83905W        W47629  24.076  11.342   1.755
83906W        W47630   7.370  42.823   4.756
83907W        W47631  22.064  24.569   4.652
83908W        W47632  27.102  23.213  12.442
83909W        W47633  22.237   2.383   0.937
83910W        W47634  11.790  44.796  12.090
83911W        W47635   0.969   3.402   0.913
83912W        W47636  42.912  40.386  10.596
83913W        W47637   2.923  43.388  13.407
83914W        W47638  22.212  16.306   1.871
83915W        W47639  31.072   1.341  12.412
83916W        W47640  13.723   4.367   2.756
83917W        W47641   7.372   9.798  14.808
83918W        W47642  18.230  20.265  11.516
83919W        W47643  36.573  43.879  10.640
83920W        W47644  14.662  30.443   0.455
83921W        W47645  37.978  43.978  13.035
83922W        W47646  23.081   5.893  13.975
83923W        W47647  30.979  11.780  14.011
83924W        W47648  40.384  19.235  12.889
83925W        W47649  26.524  16.635  10.637
83926W        W47650  24.225  32.887   0.409
83927W        W47651  35.493  30.151   0.339
83928W        W47652   8.820  42.500  12.970
83929W        W47653  10.218   2.752  12.449
83930W        W47654  36.894  37.411   2.895
83931W        W47655  24.204   5.335   1.902
83932W        W47656  28.545  36.945  14.946
83933W        W47657   1.854  26.649   3.169
83934W        W47658   7.361  39.388   0.815
83935W        W47659  24.654  30.152   5.237
83936W        W47660  38.472  37.862  11.455
83937W        W47661  41.025   4.320   0.912
83938W        W47662  24.688  39.942   3.221
83939W        W47663  36.875  43.930   2.296
83940W        W47664  29.936  23.724  14.995
83941W        W47665   0.877  16.196  11.413
83942W        W47666  30.976  21.620   4.248
83943W        W47667  11.755   8.341  14.876
83944W        W47668  43.934   7.773  11.464
83945W        W47669  21.701  39.453   1.876
83946W        W47670  40.385  28.182   4.696
83947W        W47671  13.790  38.553  11.402
83948W        W47672  28.597   2.852   2.760
83949W        W47673   9.883  14.115   3.294
83950W        W47674  27.087  34.496  13.324
83951W        W47675  17.087  15.585   1.710
83952W        W47676  10.673  30.657   5.274
83953W        W47677  23.188  11.792  13.888
83954W        W47678  15.819  34.449   1.315
83955W        W47679  35.406  33.487   4.268
83956W        W47680  14.783  33.072  13.985
83957W        W47681  27.592  29.615  12.369
83958W        W47682  44.935  21.237   4.251
83959W        W47683  44.961  36.852   1.348
83960W        W47684  38.503  10.811   2.348
83961W        W47685  39.004  44.451  12.873
83962W        W47686  34.605  29.593  12.571
83963W        W47687  18.127  43.772   0.416
83964W        W47688  25.212  43.408   3.655
83965W        W47689  26.018  35.047  11.878
83966W        W47690  22.107  40.023   0.787
83967W        W47691  44.782  13.822  11.518
83968W        W47692  10.660  33.398  10.104
83969W        W47693  42.983  16.793   1.826
83970W        W47694  28.480   8.715   0.782
83971W        W47695  26.976   4.402  13.476
83972W        W47696  39.897   2.395   4.227
83973W        W47697  25.621  33.618  14.371
83974W        W47698  21.534  26.115   4.226
83975W        W47699  10.175  16.773  10.420
83976W        W47700  34.982   2.364   0.383
83977W        W47701  12.706   5.828  12.058
83978W        W47702  37.834  41.295   2.365
83979W        W47703  38.447   4.444  13.386
83980W        W47704  32.469   7.754   0.362
83981W        W47705  17.304   8.756  13.307
83982W        W47706  27.537  24.492  13.914
83983W        W47707  13.199  26.499   3.316
83984W        W47708  27.626  26.511  14.379
83985W        W47709  16.807   6.229  14.364
83986W        W47710  41.500  37.969   3.282
83987W        W47711  39.017  28.666  12.483
83988W        W47712  37.871  31.979  10.510
83989W        W47713  13.244   2.930  12.948
83990W        W47714  27.092  18.698   2.361
83991W        W47715  26.990  39.347  14.390
83992W        W47716  31.614   1.444   1.416
83993W        W47717  28.480  44.839  14.316
83994W        W47718  30.137  13.722   0.861
83995W        W47719  10.827  38.569   4.818
83996W        W47720   4.907  14.209  11.517
83997W        W47721  23.538  23.609  13.443
83998W        W47722  30.452  22.050  10.968
83999W        W47723  15.767  24.042   4.832
84000W        W47724   2.411  31.075   2.780
84001W        W47725  30.558  38.569  13.321
84002W        W47726  16.601  29.517   1.891
84003W        W47727  16.729  30.495  10.629
84004W        W47728  41.897  41.363  11.540
84005W        W47729  19.257   1.741  14.955
84006W        W47730  42.313  23.688  10.918
84007W        W47731  22.678  20.647  14.910
84008W        W47732  20.131  10.157   1.808
84009W        W47733  33.555  11.833  12.391
84010W        W47734  29.057  35.900   0.276
84011W        W47735  44.918  37.463   9.504
84012W        W47736  37.535  25.175   2.280
84013W        W47737  16.289  32.139  14.395
84014W        W47738  24.159  27.020  14.875
84015W        W47739   9.331  18.135   3.795
84016W        W47740   6.852  12.355   1.259
84017W        W47741  19.081  35.070   0.912
84018W        W47742   1.441  21.658  14.922
84019W        W47743   9.265  15.604  13.497
84020W        W47744  26.972  30.451  12.357
84021W        W47745  12.191  28.459   4.120
84022W        W47746  10.198  28.555  14.836
84023W        W47747  28.612  23.104  10.897
84024W        W47748  19.229  32.446   4.638
84025W        W47749  29.127  40.003   0.960
84026W        W47750  10.357   0.358   9.939
84027W        W47751  24.596  24.598   0.826
84028W        W47752  32.468  10.169   2.377
84029W        W47753  13.204  31.487  13.820
84030W        W47754   3.728  36.000   2.220
84031W        W47755  28.047  40.488  13.405
84032W        W47756  11.151   9.152  13.977
84033W        W47757  20.695  15.750   0.351
84034W        W47758  21.165  40.492   2.814
84035W        W47759  25.167  11.341  14.339
84036W        W47760   2.769   8.816  11.447
84037W        W47761  38.878  33.585   2.263
84038W        W47762  43.907  36.580   3.830
84039W        W47763   5.304   9.645   0.456
84040W        W47764  40.437  42.330  13.485
84041W        W47765  44.995   7.844  11.407
84042W        W47766  29.045  16.656   2.195
84043W        W47767   4.209  17.574   0.426
84044W        W47768  38.038  32.545  12.881
84045W        W47769   1.960  33.485  13.355
84046W        W47770  12.118  16.123  14.778
84047W        W47771  10.210  40.507  10.472
84048W        W47772  27.651   9.236   4.599
84049W        W47773   4.944  28.028   0.849
84050W        W47774  25.024  16.163  11.880
84051W        W47775  20.530  38.921   2.853
84052W        W47776  36.845  30.554  13.461
84053W        W47777  28.520   5.876   3.297
84054W        W47778  19.080  20.168  12.445
84055W        W47779  23.650  10.337   1.372
84056W        W47780  27.562  15.300  14.024
84057W        W47781  23.686  18.615  12.367
84058W        W47782  28.619  25.033  12.892
84059W        W47783  25.214  24.197   2.275
84060W        W47784  13.310  41.032  13.321
84061W        W47785  19.748  36.958   3.225
84062W        W47786  35.469  33.410   0.477
84063W        W47787  33.128  12.616  14.900
84064W        W47788   1.782  26.104  12.999
84065W        W47789  15.099   7.813  10.632
84066W        W47790  36.901  39.008   0.778
84067W        W47791  43.272  10.804  10.627
84068W        W47792  38.498  11.776  11.068
84069W        W47793   0.969  22.704   1.932
84070W        W47794  28.075   2.342  12.030
84071W        W47795  10.812  23.604   3.832
84072W        W47796  32.015   5.915  10.928
84073W        W47797   9.839  12.827  13.498
84074W        W47798  27.945  31.465   0.432
84075W        W47799  28.159  40.889   3.676
84076W        W47800   8.771  18.194  10.611
84077W        W47801  11.234  28.650   1.697
84078W        W47802   2.272  44.422   0.456
84079W        W47803   5.847  19.239   3.820
84080W        W47804  11.128  17.239  14.852
84081W        W47805  14.760  15.813   1.342
84082W        W47806  25.181  13.174  10.920
84083W        W47807  36.008   0.867   5.139
84084W        W47808  12.189  16.580  13.889
84085W        W47809   1.844  38.872  11.600
84086W        W47810  16.191  37.398  13.872
84087W        W47811  35.930  20.575   2.297
84088W        W47812  18.293  12.145   4.189
84089W        W47813  13.305   3.849  11.506
84090W        W47814  44.260   9.887  14.316
84091W        W47815   2.854   1.478  12.356
84092W        W47816  34.029   7.903  12.034
84093W        W47817  11.152  33.904  10.490
84094W        W47818  44.955  22.116  10.495
84095W        W47819   4.753  39.885  12.518
84096W        W47820  22.073  33.981   0.323
84097W        W47821   9.213  18.160   3.152
84098W        W47822   8.746  15.143  11.378
84099W        W47823   1.924  34.573  13.855
84100W        W47824  13.215  25.703  13.407
84101W        W47825   2.307  24.015  11.590
84102W        W47826   2.248  23.523   2.266
84103W        W47827  13.176   0.250   4.181
84104W        W47828   9.367  30.511   3.308
84105W        W47829  24.632  13.832  12.001
84106W        W47830  19.658  31.616  12.878
84107W        W47831  17.241  27.108  14.359
84108W        W47832  43.925  21.113  11.551
84109W        W47833  37.043  33.922   0.765
84110W        W47834  37.522  15.620   0.319
84111W        W47835  41.955  22.132   2.840
84112W        W47836  16.661   6.280  12.495
84113W        W47837  43.813  20.533   4.720
84114W        W47838  35.590   1.826  11.373
84115W        W47839  39.366  12.804   3.193
84116W        W47840  35.095   1.905  12.988
84117W        W47841  11.637  40.369  10.517
84118W        W47842  12.624  26.001  14.031
84119W        W47843  43.324  19.682  14.353
84120W        W47844  44.007  10.632   0.395
84121W        W47845  17.076  27.676  11.081
84122W        W47846   2.839  21.142   4.822
84123W        W47847  11.345  15.721   0.403
84124W        W47848   0.930   4.790   3.261
84125W        W47849  12.786  21.712   0.829
84126W        W47850  10.661  12.350   4.602
84127W        W47851  31.149  19.586  14.898
84128W        W47852  36.497   1.776  10.119
84129W        W47853  26.543  32.608   2.728
84130W        W47854  19.076   7.255  13.510
84131W        W47855   6.836  44.903   3.257
84132W        W47856  12.177  44.434  12.916
84133W        W47857  10.670   3.319  12.346
84134W        W47858  37.842  19.091  13.460
84135W        W47859  28.064  25.027  12.905
84136W        W47860   0.958  28.134  12.364
84137W        W47861  44.480  26.603  11.394
84138W        W47862  23.645  35.433  13.831
84139W        W47863  25.144  10.197   2.801
84140W        W47864   5.422  31.974   2.354
84141W        W47865  44.377  20.126   3.260
84142W        W47866  23.159   1.405   2.339
84143W        W47867  12.758  33.019   3.378
84144W        W47868  18.556  32.124  11.504
84145W        W47869  26.610  14.321  14.931
84146W        W47870   1.353   6.349  13.427
84147W        W47871   8.259   7.332  14.843
84148W        W47872   2.753  11.231   1.906
84149W        W47873  36.077  10.736  14.890
84150W        W47874   0.916  33.959  13.886
84151W        W47875  23.511  17.183   0.899
84152W        W47876  41.876  34.582   4.332
84153W        W47877  12.716  11.168   2.236
84154W        W47878  10.842   4.390   2.882
84155W        W47879  18.198  10.367   2.693
84156W        W47880   3.949   2.805  14.823
84157W        W47881  37.357  25.628  11.572
84158W        W47882  16.669  27.496   4.340
84159W        W47883   1.853  33.462  11.880
84160W        W47884  17.181   4.442  12.372
84161W        W47885  14.662  24.540  12.488
84162W        W47886  23.986  30.580  13.353
84163W        W47887  33.113  38.074   1.860
84164W        W47888   1.371  16.590  12.984
84165W        W47889  19.636  31.104  13.866
84166W        W47890  26.971   9.375  12.560
84167W        W47891   7.670  27.473  11.605
84168W        W47892  26.466  39.551   1.239
84169W        W47893  37.899  32.039  12.070
84170W        W47894  37.891  28.539   2.304
84171W        W47895  36.435   4.872   3.676
84172W        W47896   2.880  20.082   0.773
84173W        W47897  37.911   4.414  14.922
84174W        W47898  20.704   0.946   3.654
84175W        W47899  19.150  42.885  10.964
84176W        W47900  41.477  37.377   2.189
84177W        W47901  33.096  44.394   4.175
84178W        W47902  14.776  36.011  13.467
84179W        W47903  36.563  30.081  11.450
84180W        W47904  24.543  40.531   1.790
84181W        W47905  14.684  36.404  12.910
84182W        W47906  15.813  34.388  14.877
84183W        W47907  10.284  30.421   0.904
84184W        W47908  16.739  28.617  11.470
84185W        W47909  18.579  35.946  14.030
84186W        W47910  27.161  22.162   4.256
84187W        W47911   0.456  16.256   2.692
84188W        W47912  24.640  10.187  14.848
84189W        W47913   5.369  32.961   0.885
84190W        W47914  42.860  33.524   4.737
84191W        W47915  35.429  32.520  12.509
84192W        W47916  44.502  26.200   0.350
84193W        W47917  33.971  30.457   2.382
84194W        W47918   6.182  18.084   3.276
84195W        W47919  33.413  27.605  12.999
84196W        W47920   9.211  21.673  13.536
84197W        W47921  13.269  26.020   1.338
84198W        W47922   4.446  30.043  13.475
84199W        W47923  32.128   9.297  11.083
84200W        W47924   4.415  17.128   1.738
84201W        W47925   7.373   2.910   0.259
84202W        W47926  35.480   4.203   3.324
84203W        W47927  32.049  12.163  14.017
84204W        W47928   2.469  26.648  13.529
84205W        W47929  15.626  35.023  12.522
84206W        W47930  35.024   7.238   0.288
84207W        W47931  22.075  13.105  14.345
84208W        W47932  12.816  27.450  13.463
84209W        W47933  41.828  29.918   4.159
84210W        W47934   9.818  33.033  11.477
84211W        W47935  32.521   1.845  13.360
84212W        W47936   7.317  25.973   1.871
84213W        W47937  31.424  27.679  12.540
84214W        W47938  35.487  43.012   1.234
84215W        W47939   5.840  11.314  13.532
84216W        W47940  16.099  31.421   4.674
84217W        W47941  36.368  26.020  13.346
84218W        W47942  25.549  17.163   4.752
84219W        W47943  44.002  43.015   2.346
84220W        W47944  35.458  34.439   3.289
84221W        W47945  44.865   5.386  11.604
84222W        W47946  44.813  17.799   1.413
84223W        W47947  41.446  34.501   3.362
84224W        W47948   9.885  43.509  14.279
84225W        W47949  34.464  43.020  10.411
84226W        W47950  11.832  15.808  10.503
84227W        W47951  14.210  31.966  14.287
84228W        W47952  10.654   4.935  12.056
84229W        W47953  44.952   4.787   4.603
84230W        W47954  37.518  10.337  14.817
84231W        W47955  27.946  17.757  11.592
84232W        W47956   9.688  16.078   2.781
84233W        W47957  13.329  18.730  11.440
84234W        W47958  38.989  44.497   4.314
84235W        W47959  18.758  28.997   2.419
84236W        W47960  25.070  31.474  13.428
84237W        W47961  12.841  44.966   4.182
84238W        W47962  10.209  16.706  12.538
84239W        W47963  37.425   7.369   4.225
84240W        W47964  39.910  44.949  14.886
84241W        W47965   8.660  21.204   4.125
84242W        W47966   2.241  33.979  10.497
84243W        W47967   6.305  34.553   0.277
84244W        W47968  14.307  21.549   3.160
84245W        W47969  38.493  11.647  12.032
84246W        W47970  40.340  30.111  14.977
84247W        W47971  39.023  23.201   5.193
84248W        W47972  27.627  24.629   2.867
84249W        W47973  17.075  16.272   2.809
84250W        W47974  17.705  25.216   4.620
84251W        W47975   5.923  21.201  14.399
84252W        W47976  32.398  36.512   4.676
84253W        W47977  36.879  21.653   3.683
84254W        W47978  11.220  40.343   3.729
84255W        W47979  11.810  16.718  10.518
84256W        W47980  33.918  39.855   0.869
84257W        W47981  24.694  27.073  11.889
84258W        W47982  34.872  14.625  11.549
84259W        W47983   3.223  23.608  10.600
84260W        W47984  24.039   5.906  13.941
84261W        W47985  33.454   0.400   3.682
84262W        W47986  10.344   4.252   2.404
84263W        W47987   1.762  43.961   2.264
84264W        W47988  16.694  20.582  12.400
84265W        W47989  23.216  24.055   3.338
84266W        W47990  28.453  18.571  11.962
84267W        W47991  10.250  15.117   0.330
84268W        W47992  28.054  11.216   1.382
84269W        W47993  43.405   7.845   3.200
84270W        W47994  11.811  15.777   1.278
84271W        W47995  23.578  13.260   2.884
84272W        W47996  21.547   4.760  12.462
84273W        W47997  41.829  44.798  12.842
84274W        W47998  13.744  18.711   3.224
84275W        W47999  43.808  24.586   2.738
84276W        W48000   6.748  29.101  12.047
84277W        W48001  15.222   6.737   1.823
84278W        W48002  12.662  34.015  12.016
84279W        W48003   8.170  33.045   1.286
84280W        W48004  12.852   0.802   1.331
84281W        W48005  36.554  19.214   1.365
84282W        W48006  23.709  41.481  11.867
84283W        W48007  30.500  28.117  13.491
84284W        W48008  29.560  13.296  14.423
84285W        W48009   0.743  22.097  13.980
84286W        W48010  18.657   4.724   0.253
84287W        W48011  40.334  30.468   3.775
84288W        W48012  40.901  11.738  12.524
84289W        W48013  37.391  19.191  14.812
84290W        W48014  33.082   1.482  10.453
84291W        W48015  17.642  30.996  11.864
84292W        W48016   4.858   0.858   5.261
84293W        W48017  11.838  16.760   1.907
84294W        W48018  40.340   6.241  11.943
84295W        W48019  41.342  21.260   0.749
84296W        W48020  22.098  36.888  13.808
84297W        W48021   1.742  42.924  11.066
84298W        W48022   2.953  28.975  12.039
84299W        W48023  11.679  32.026  14.857
84300W        W48024   2.822  27.946  11.975
84301W        W48025  23.572  44.433   2.208
84302W        W48026  33.000  40.313  11.061
84303W        W48027   6.260  18.134  14.473
84304W        W48028   3.799  27.573  11.105
84305W        W48029  33.894  29.995  11.905
84306W        W48030  16.789   6.914   1.433
84307W        W48031  21.693  18.666  12.472
84308W        W48032  23.141  10.831   1.256
84309W        W48033   4.722  43.769   1.767
84310W        W48034  24.682  41.439   4.657
84311W        W48035  30.910  36.542   0.930
84312W        W48036  30.445  20.189   2.359
84313W        W48037  31.970  38.002   4.826
84314W        W48038   4.937  28.634   4.117
84315W        W48039   6.907  11.196  13.314
84316W        W48040  23.709  38.918  14.892
84317W        W48041  40.361  43.421  12.075
84318W        W48042  38.480  44.339  12.561
84319W        W48043  39.818  37.956   2.698
84320W        W48044  32.939  15.589  14.817
84321W        W48045  21.057  24.193   4.241
84322W        W48046  37.946   3.293  12.454
84323W        W48047  38.566   8.754  11.433
84324W        W48048  29.480  43.350   2.771
84325W        W48049   0.318  28.159   1.805
84326W        W48050  14.820  11.152  12.864
84327W        W48051  21.051   1.333  14.772
84328W        W48052  29.932  17.167   1.227
84329W        W48053  26.200   6.887   3.316
84330W        W48054  30.487  38.522   4.820
84331W        W48055  31.035   5.927   4.790
84332W        W48056  40.010  42.918  14.505
84333W        W48057  13.123  43.321   0.423
84334W        W48058  41.336  36.377   0.262
84335W        W48059  34.917  30.576   2.281
84336W        W48060  22.664  19.565   0.418
84337W        W48061  12.155  37.028  12.979
84338W        W48062  25.684  32.089  10.123
84339W        W48063  27.180  14.183  12.481
84340W        W48064  29.551  26.641  12.007
84341W        W48065  39.956   2.838  12.079
84342W        W48066  30.414  36.458  13.832
84343W        W48067  43.299  43.819  13.842
84344W        W48068   4.747  41.438   1.221
84345W        W48069  17.731  38.038  13.000
84346W        W48070  43.965  13.174  11.606
84347W        W48071  17.145  38.007  13.833
84348W        W48072  22.578  34.112  13.970
84349W        W48073   3.794  42.789   5.224
84350W        W48074  44.400  33.516  10.462
84351W        W48075   3.723  10.695  13.009
84352W        W48076   6.919  34.924   4.314
84353W        W48077  12.163  21.750   0.736
84354W        W48078  36.032   1.421   4.241
84355W        W48079  19.060  12.333  14.849
84356W        W48080  17.648  25.555  11.990
84357W        W48081   2.806  32.474  13.918
84358W        W48082  25.963  12.127   2.732
84359W        W48083  26.508  30.933  10.147
84360W        W48084  28.448  11.246  10.467
84361W        W48085  27.469   1.294  13.481
84362W        W48086   5.893  11.179  11.582
84363W        W48087  42.828   8.819  12.351
84364W        W48088  37.406  24.117  10.540
84365W        W48089  36.552  20.568   2.737
84366W        W48090  36.453  38.014   2.858
84367W        W48091  37.413  12.236   0.423
84368W        W48092  25.191  15.302   3.684
84369W        W48093  14.303   0.439   2.178
84370W        W48094  25.683  16.205  11.538
84371W        W48095   7.258  31.437  14.868
84372W        W48096  14.807  30.452   2.244
84373W        W48097  44.850  35.507  14.989
84374W        W48098  44.989  18.133   4.798
84375W        W48099  36.367  19.586  13.814
84376W        W48100  33.589   5.370  11.395
84377W        W48101  23.122  15.265  11.891
84378W        W48102  19.205  14.726   3.205
84379W        W48103  31.521  29.483  11.077
84380W        W48104   9.690  29.467  13.996
84381W        W48105  13.289  29.534  11.934
84382W        W48106  30.022   7.787   4.665
84383W        W48107  11.850   2.406   3.792
84384W        W48108   7.243  14.278  14.795
84385W        W48109  31.427  32.583   3.323
84386W        W48110  23.072   5.324   1.838
84387W        W48111  31.049  33.037   3.798
84388W        W48112   9.215  25.116   0.380
84389W        W48113  13.772  22.685   1.380
84390W        W48114   1.978  31.006  12.470
84391W        W48115  37.033  44.429   0.310
84392W        W48116  32.604  28.451   4.817
84393W        W48117   3.368  13.802  14.985
84394W        W48118  23.995   5.268  13.924
84395W        W48119  37.542  16.601  14.027
84396W        W48120  20.153  26.064   0.875
84397W        W48121  41.804  16.186   3.696
84398W        W48122   9.787  43.431  14.805
84399W        W48123  24.491  25.647   2.790
84400W        W48124  19.709  22.145  11.939
84401W        W48125  10.372  31.495  14.819
84402W        W48126  25.527  42.968   0.415
84403W        W48127  31.115  15.326   0.455
84404W        W48128  19.549  23.169   3.306
84405W        W48129  41.342  31.613   0.353
84406W        W48130  23.091  39.414   3.837
84407W        W48131  23.153  37.511   3.779
84408W        W48132  22.182  27.146   2.678
84409W        W48133  41.887  36.896  14.470
84410W        W48134  31.142   3.301  14.770
84411W        W48135   8.301   5.892   4.746
84412W        W48136  21.162  28.497   0.843
84413W        W48137  32.080   1.934   1.334
84414W        W48138  41.803   4.437   3.199
84415W        W48139  29.588  33.923  11.609
84416W        W48140   3.711  17.195   1.224
84417W        W48141  30.606  23.585   4.604
84418W        W48142  14.125  42.313  12.953
84419W        W48143  33.425   1.914   3.190
84420W        W48144   8.720   7.372  13.951
84421W        W48145  37.986  11.328  10.526
84422W        W48146  24.485  34.997   2.226
84423W        W48147   4.828  37.053   2.876
84424W        W48148  28.089  12.778  10.097
84425W        W48149  32.128  15.284   9.587
84426W        W48150  28.152  44.292   2.820
84427W        W48151  35.966  14.660   2.663
84428W        W48152  17.189  36.476  14.921
84429W        W48153  44.820  38.968   0.776
84430W        W48154  17.064  28.138   0.350
84431W        W48155  11.303  21.727  11.540
84432W        W48156   3.953   2.463   3.800
84433W        W48157  35.979  25.513   1.295
84434W        W48158  27.948  18.077   4.674
84435W        W48159  30.537   4.365  10.897
84436W        W48160   3.865  10.275   3.343
84437W        W48161  11.167   3.240   1.749
84438W        W48162  16.601  20.571   1.289
84439W        W48163  37.522  21.031  11.419
84440W        W48164  28.042  31.481  14.780
84441W        W48165  13.767  26.518  13.820
84442W        W48166  33.468  11.622   3.784
84443W        W48167  13.294  23.082   2.771
84444W        W48168  39.380  17.184   3.840
84445W        W48169   3.437   8.251  12.384
84446W        W48170  31.011  10.674   0.952
84447W        W48171   9.346  11.709   5.649
84448W        W48172  26.125  40.382  11.451
84449W        W48173  14.243  13.644   3.350
84450W        W48174  11.811   8.299   2.322
84451W        W48175  34.048   1.732  11.888
84452W        W48176   7.256   6.685  10.443
84453W        W48177  43.487  42.826  14.987
84454W        W48178  24.557  28.934   4.231
84455W        W48179   8.809  20.662   0.906
84456W        W48180   3.813  41.532  14.840
84457W        W48181  44.367   7.336  14.849
84458W        W48182   8.774  36.855  10.405
84459W        W48183  37.414  30.551   3.650
84460W        W48184   6.269  13.291   1.914
84461W        W48185  40.361   9.198   1.312
84462W        W48186  39.380  43.316  12.547
84463W        W48187  33.951  35.543  11.882
84464W        W48188  31.958   8.777   0.746
84465W        W48189   8.823  21.127  12.560
84466W        W48190  27.162  24.504   0.955
84467W        W48191  43.351  19.219   2.192
84468W        W48192   4.707   7.331  13.537
84469W        W48193   5.696  18.089   1.736
84470W        W48194  40.957  15.133  13.527
84471W        W48195  35.911   2.893  11.534
84472W        W48196  39.473  14.743   1.427
84473W        W48197  19.752  22.558   0.428
84474W        W48198  17.691  28.576   1.726
84475W        W48199  11.868  42.526   4.798
84476W        W48200  24.622  42.344   1.312
84477W        W48201   5.248  32.106  12.032
84478W        W48202  14.243  40.424   0.246
84479W        W48203  21.515  27.004  11.034
84480W        W48204  17.682  27.178  14.847
84481W        W48205  19.062  21.742  11.511
84482W        W48206  10.140  22.083   0.329
84483W        W48207  43.305   0.797  13.393
84484W        W48208  38.955  34.404  13.446
84485W        W48209   8.799  29.076  12.445
84486W        W48210  33.116  30.642   3.696
84487W        W48211  29.570  34.593  14.901
84488W        W48212  23.108   3.282   0.919
84489W        W48213  26.079  16.571  13.366
84490W        W48214   8.733  17.712  13.933
84491W        W48215  19.205  20.574  11.494
84492W        W48216  19.249   4.774   2.195
84493W        W48217  15.285  22.704  13.838
84494W        W48218  25.665  12.199  12.942
84495W        W48219  33.088  14.269  12.441
84496W        W48220  38.487  12.331   1.346
84497W        W48221  10.319   0.789   3.773
84498W        W48222  10.231   1.375  12.019
84499W        W48223   1.268  23.713   4.653
84500W        W48224   3.248  15.721   1.253
84501W        W48225   8.232  41.513  12.463
84502W        W48226   6.319  24.622  12.509
84503W        W48227   7.857  33.900   0.961
84504W        W48228  44.454  34.520  10.033
84505W        W48229  42.979   5.351  11.070
84506W        W48230  33.446  20.725  12.378
84507W        W48231  28.454   3.878  11.442
84508W        W48232  29.577  30.101  12.371
84509W        W48233   6.327  33.945   1.894
84510W        W48234  26.628  21.033   1.806
84511W        W48235  29.581  20.550   1.849
84512W        W48236  12.281  26.466  12.403
84513W        W48237   0.857  38.347   4.291
84514W        W48238   7.193  36.440  13.393
84515W        W48239  12.182  27.483  13.040
84516W        W48240  31.626  37.500  10.536
84517W        W48241  41.808  41.337  13.347
84518W        W48242   0.823  42.863   5.114
84519W        W48243  13.245   8.325  12.559
84520W        W48244   6.331   0.850   0.246
84521W        W48245  14.664  19.537   0.326
84522W        W48246   4.330  18.274   4.113
84523W        W48247  30.555  16.732  13.427
84524W        W48248  32.446  35.856   1.296
84525W        W48249  13.808  15.590   1.699
84526W        W48250   9.193  30.124  12.342
84527W        W48251  11.682   5.395  13.030
84528W        W48252  12.133   4.934  13.343
84529W        W48253  39.008  30.162  11.987
84530W        W48254  11.740  19.043  13.490
84531W        W48255  32.412  15.709  13.490
84532W        W48256  33.997  44.011   4.286
84533W        W48257  39.473  12.143  11.857
84534W        W48258  29.616  31.906  11.047
84535W        W48259   4.708  37.358   1.295
84536W        W48260  10.304  19.163   4.138
84537W        W48261   9.368  36.358   2.255
84538W        W48262   2.382   4.826  11.446
84539W        W48263  32.995  42.863  11.860
84540W        W48264  13.320  22.160  10.934
84541W        W48265   5.436  23.153   4.618
84542W        W48266   8.870  31.069   0.779
84543W        W48267  44.296  39.842   9.965
84544W        W48268  21.114  30.460   5.268
84545W        W48269   8.836  15.708   2.692
84546W        W48270  35.430  34.445  12.997
84547W        W48271  25.079  36.908  14.379
84548W        W48272  29.140  13.643   0.397
84549W        W48273  35.889  14.269   0.282
84550W        W48274   3.713  11.182   2.842
84551W        W48275  20.632  29.992  13.501
84552W        W48276  38.884   4.370  10.554
84553W        W48277  16.226  28.106   1.420
84554W        W48278  15.102  36.099  13.843
84555W        W48279   4.884  23.105  13.029
84556W        W48280  13.249  28.034  11.921
84557W        W48281   9.270   9.788   4.784
84558W        W48282   2.410  15.644   1.369
84559W        W48283  28.649  11.287  13.920
84560W        W48284   5.692   3.232   3.760
84561W        W48285   4.922   5.278  14.825
84562W        W48286  27.127  37.059  11.464
84563W        W48287  26.561   6.750  10.021
84564W        W48288   4.728  41.806  13.352
84565W        W48289   4.924  22.183   1.717
84566W        W48290   0.381  14.798  13.006
84567W        W48291   2.856  30.949  13.389
84568W        W48292  38.908  36.082   4.727
84569W        W48293  41.032  25.610   0.364
84570W        W48294  11.368  18.051  14.986
84571W        W48295  39.060  44.790  13.373
84572W        W48296  25.474   9.250   3.305
84573W        W48297  11.295  26.956   4.251
84574W        W48298  38.960  43.344   0.443
84575W        W48299  41.451   8.312   2.710
84576W        W48300  28.664  13.124  14.814
84577W        W48301  24.037  30.576   0.864
84578W        W48302  40.933  16.080   2.899
84579W        W48303  39.535  33.567   3.299
84580W        W48304  22.194  44.479  11.469
84581W        W48305  33.899  16.095   5.686
84582W        W48306  13.783  27.119   2.207
84583W        W48307  12.184  13.145  11.880
84584W        W48308  22.621  42.954  10.036
84585W        W48309   8.748  34.377  14.854
84586W        W48310  35.101  21.112  10.002
84587W        W48311   7.803  14.774   4.321
84588W        W48312  18.734   0.318   4.251
84589W        W48313  26.078  15.749  14.449
84590W        W48314  14.136  37.057   1.346
84591W        W48315  25.999  39.441   3.189
84592W        W48316  34.896   6.308   3.365
84593W        W48317  33.519  17.724   3.839
84594W        W48318   2.424   5.734  12.028
84595W        W48319  19.202   9.359   3.651
84596W        W48320  18.680  22.226   2.233
84597W        W48321   3.779   4.264   1.802
84598W        W48322  32.427   4.755   0.474
84599W        W48323  20.072  13.612   0.439
84600W        W48324  12.628  33.395   0.479
84601W        W48325  26.485  22.128  14.868
84602W        W48326  26.092   4.902   0.435
84603W        W48327  21.125   6.385   4.312
84604W        W48328  43.886  28.671  10.914
84605W        W48329   9.289  14.157   3.660
84606W        W48330   2.831  12.268   2.293
84607W        W48331  43.489  31.149   4.266
84608W        W48332  20.226   6.216  11.462
84609W        W48333   6.393  42.910   0.296
84610W        W48334  31.112   8.291  14.007
84611W        W48335  22.084   1.447  11.475
84612W        W48336  22.566  15.264  14.476
84613W        W48337  10.189  27.584   0.400
84614W        W48338  13.770  16.220  11.466
84615W        W48339  28.506  38.942  10.507
84616W        W48340   5.245  15.669  14.949
84617W        W48341   2.798  36.401  10.623
84618W        W48342  32.537  44.428   3.836
84619W        W48343   8.736  36.098  10.967
84620W        W48344   8.222   1.281   1.906
84621W        W48345  30.910  40.838   0.779
84622W        W48346  25.121  38.388  11.952
84623W        W48347   5.778   7.362   3.762
84624W        W48348  25.665  30.146   9.975
84625W        W48349  14.143   9.172   2.279
84626W        W48350  12.236  17.308  12.917
84627W        W48351  43.447  16.683   1.700
84628W        W48352  33.884  19.268   3.258
84629W        W48353  31.140  14.207  14.953
84630W        W48354  32.931  12.627  13.315
84631W        W48355   3.250  24.657  14.975
84632W        W48356  25.124  30.542  11.501
84633W        W48357  29.549   8.253   4.633
84634W        W48358  31.150  40.451   3.844
84635W        W48359  32.981  27.163   3.638
84636W        W48360   8.793   8.807   2.376
84637W        W48361   8.358  14.125  12.826
84638W        W48362  15.155  24.561   2.315
84639W        W48363  16.211   4.316  14.313
84640W        W48364  41.029  29.464  10.451
84641W        W48365  39.539  36.890   4.350
84642W        W48366  13.769  16.754   4.684
84643W        W48367  44.817  20.642   4.277
84644W        W48368   5.785   9.817  13.961
84645W        W48369  29.470  11.188   4.204
84646W        W48370  39.830  42.503  13.967
84647W        W48371  33.419  21.608  13.028
84648W        W48372  33.621   6.323   2.254
84649W        W48373   1.796  35.521  13.884
84650W        W48374  32.107   7.244  12.839
84651W        W48375  35.926  12.611  12.482
84652W        W48376  10.863  12.759  10.422
84653W        W48377   6.917  26.972   0.823
84654W        W48378   3.769   0.460  10.557
84655W        W48379  14.246  42.984  13.317
84656W        W48380   4.239   6.733  12.050
84657W        W48381  15.591  39.512   0.356
84658W        W48382  32.636   7.242   4.754
84659W        W48383  23.697   9.736  10.914
84660W        W48384  39.481  36.879   1.806
84661W        W48385  20.716  32.479  14.906
84662W        W48386  12.787  22.693   2.840
84663W        W48387  30.437   9.754   0.744
84664W        W48388  24.072  12.839  13.862
84665W        W48389  26.590  44.345   2.892
84666W        W48390  38.892   5.225   3.728
84667W        W48391  33.091  29.954  12.082
84668W        W48392   1.455  41.390   2.273
84669W        W48393  17.797  16.279  11.569
84670W        W48394  37.555  10.832  11.103
84671W        W48395  20.564  14.149   0.952
84672W        W48396  42.993  21.054   5.090
84673W        W48397   3.944  43.007   1.783
84674W        W48398  33.131  37.833   1.451
84675W        W48399  42.961  17.719   1.847
84676W        W48400  24.606  23.657   4.191
84677W        W48401   5.912  37.463  11.059
84678W        W48402  34.963  24.483  13.022
84679W        W48403  20.138   4.744   1.932
84680W        W48404  39.987  28.130  14.391
84681W        W48405   3.259  40.868   1.422
84682W        W48406  10.673  25.616  12.013
84683W        W48407  21.607  42.526  10.557
84684W        W48408  11.314  44.328  14.804
84685W        W48409  18.583  15.617  14.002
84686W        W48410  31.015  18.660   1.744
84687W        W48411  35.982  23.031  12.911
84688W        W48412  30.958  43.852   0.760
84689W        W48413  38.342   9.856   4.805
84690W        W48414  24.535   8.792  14.840
84691W        W48415   3.435   5.304  11.980
84692W        W48416   8.887  28.167   4.221
84693W        W48417  41.380  27.645   3.852
84694W        W48418  31.431   1.832   3.203
84695W        W48419  16.139  17.779  13.851
84696W        W48420   4.817   7.676  14.955
84697W        W48421  26.630  24.577   2.246
84698W        W48422  37.374  35.488  14.420
84699W        W48423  31.926  13.125  12.425
84700W        W48424  26.203   8.356   5.143
84701W        W48425   5.335  20.173  11.004
84702W        W48426  40.848   1.409   1.334
84703W        W48427  11.676  37.388  10.417
84704W        W48428  16.159  11.234  14.289
84705W        W48429  32.394  24.610   2.362
84706W        W48430   5.408  35.010   4.684
84707W        W48431  42.902   6.374   0.481
84708W        W48432  43.766  21.253  12.417
84709W        W48433  15.657  29.160  10.455
84710W        W48434   7.676  41.917   1.395
84711W        W48435  34.531   2.902   3.298
84712W        W48436  26.501  19.075   2.868
84713W        W48437  29.149  18.739   3.170
84714W        W48438  41.335  14.190   3.776
84715W        W48439  13.714   3.274   1.319
84716W        W48440  27.467  27.565  13.361
84717W        W48441   2.466   3.294  12.043
84718W        W48442  34.386  38.972  12.361
84719W        W48443   2.804  29.931  11.052
84720W        W48444  22.540  44.370  10.959
84721W        W48445  18.732  30.155  10.565
84722W        W48446   7.693  10.707  13.045
84723W        W48447  31.500  22.559   2.359
84724W        W48448   8.294  29.938   1.375
84725W        W48449  16.603   6.787   2.328
84726W        W48450  13.350  34.964  13.976
84727W        W48451  33.518   2.396  14.805
84728W        W48452   4.888   7.288   4.162
84729W        W48453  33.957  13.289   0.271
84730W        W48454  20.195   3.217  10.615
84731W        W48455  25.183  32.897   4.334
84732W        W48456  13.647  38.072  14.475
84733W        W48457  19.637   0.806   5.315
84734W        W48458  20.047  19.208   4.598
84735W        W48459  42.916  26.144   2.878
84736W        W48460  22.028  36.906   4.323
84737W        W48461   2.442  44.286  10.890
84738W        W48462  13.306  31.058   3.376
84739W        W48463  43.324  42.352   3.705
84740W        W48464  43.796  10.279  14.478
84741W        W48465  26.148  17.697  11.068
84742W        W48466  34.909  31.410   3.267
84743W        W48467  37.465  28.997   4.288
84744W        W48468  10.782  23.552  11.469
84745W        W48469  15.823  13.261   2.689
84746W        W48470  36.423  16.615  12.944
84747W        W48471  41.494  40.524  13.881
84748W        W48472  41.819  23.566   3.334
84749W        W48473   8.888   0.969   4.602
84750W        W48474  22.185  26.595  10.130
84751W        W48475   1.773  37.076   0.325
84752W        W48476  36.381  18.276   4.298
84753W        W48477  43.016  21.251  11.482
84754W        W48478  32.090  35.968   4.209
84755W        W48479   5.330   0.291  14.900
84756W        W48480  14.710  10.850  12.501
84757W        W48481  14.756  11.164   0.928
84758W        W48482  25.023  25.592   2.708
84759W        W48483  26.086  31.512   4.630
84760W        W48484  29.169  35.061  12.424
84761W        W48485  11.672   0.896  12.023
84762W        W48486  10.779  27.981  12.856
84763W        W48487   9.315  27.674   3.750
84764W        W48488  17.192  43.318  12.426
84765W        W48489  38.373  19.142   0.260
84766W        W48490  30.143  39.506   2.833
84767W        W48491   3.881   3.317   1.232
84768W        W48492  22.231  14.741  10.976
84769W        W48493  35.056  28.642  12.343
84770W        W48494  12.657  41.870  11.065
84771W        W48495  19.181   1.768   0.871
84772W        W48496   5.371  28.089  12.436
84773W        W48497  27.458  42.368  11.575
84774W        W48498  41.520  22.229  14.308
84775W        W48499  34.972  16.141  13.502
84776W        W48500  16.682  25.156   0.845
84777W        W48501  20.766  11.367  11.972
84778W        W48502  34.914  10.690  10.431
84779W        W48503   8.895  24.533   1.838
84780W        W48504  44.342   0.823   0.323
84781W        W48505   9.313  42.492  11.919
84782W        W48506  19.619   0.482   2.728
84783W        W48507  38.428  24.210  14.821
84784W        W48508   6.764   7.267   0.751
84785W        W48509  31.506   8.831  10.458
84786W        W48510   9.191  31.592  10.433
84787W        W48511  28.183  20.240   3.645
84788W        W48512  20.618   2.301  13.531
84789W        W48513  35.439  27.682  14.458
84790W        W48514  12.833  21.170   4.654
84791W        W48515  26.511  24.496   0.332
84792W        W48516   3.796  20.753  13.471
84793W        W48517  44.967  32.915   0.788
84794W        W48518  30.585  28.960   2.685
84795W        W48519  30.038   5.931   2.332
84796W        W48520   9.173   2.794   0.830
84797W        W48521  14.149  42.030  13.981
84798W        W48522  33.483  23.018  12.015
84799W        W48523  41.495  31.619  12.542
84800W        W48524  16.787  17.733  11.431
84801W        W48525   6.744  22.062   4.707
84802W        W48526   7.887  12.311  14.812
84803W        W48527  44.784  31.465  11.551
84804W        W48528  34.380  42.938   2.286
84805W        W48529  21.532   0.288  10.474
84806W        W48530  30.600   2.298   5.085
84807W        W48531  23.653   3.868   4.698
84808W        W48532   9.837   8.398  11.994
84809W        W48533  26.191  24.497  12.345
84810W        W48534   6.244  27.572  14.925
84811W        W48535   1.283  15.579   0.787
84812W        W48536  30.096  29.483  13.981
84813W        W48537  35.896  25.630   0.929
84814W        W48538  33.992  43.424  11.073
84815W        W48539  28.457   5.284   2.784
84816W        W48540  42.394  19.169  13.407
84817W        W48541  32.077   5.315  10.618
84818W        W48542  43.983  24.199   1.237
84819W        W48543  10.654  28.977  14.022
84820W        W48544  39.824  44.481   5.686
84821W        W48545   1.816  12.782   1.934
84822W        W48546  40.343   7.673   1.858
84823W        W48547  44.368   3.430  10.080
84824W        W48548  32.444  19.238  12.871
84825W        W48549   6.257   9.745  10.639
84826W        W48550  38.891  40.450   4.202
84827W        W48551  32.080  42.793   2.279
84828W        W48552   8.163  26.193   0.943
84829W        W48553  42.007   3.379   0.471
84830W        W48554  24.679  41.908   0.896
84831W        W48555  11.695  44.805  13.868
84832W        W48556  39.870  34.049   1.888
84833W        W48557  23.596  41.454   4.267
84834W        W48558   0.928   1.306   4.828
84835W        W48559  40.903  24.020  13.986
84836W        W48560  27.962  37.035  13.892
84837W        W48561  27.534  29.661  13.813
84838W        W48562  10.297  29.932  10.515
84839W        W48563  29.005  35.411  11.515
84840W        W48564  21.090  38.520  13.818
84841W        W48565   8.396  11.339   2.820
84842W        W48566  16.591  33.016  14.414
84843W        W48567   2.736  34.908   1.729
84844W        W48568  23.198  19.063   1.406
84845W        W48569  33.988   6.283   4.141
84846W        W48570  30.477  28.058  10.996
84847W        W48571  17.238  15.629   5.305
84848W        W48572   9.720  19.217   3.697
84849W        W48573  21.029  41.922  13.823
84850W        W48574  43.374  26.004  13.058
84851W        W48575  13.165  38.383  10.977
84852W        W48576  19.709  25.586  14.411
84853W        W48577  12.301  42.390  10.644
84854W        W48578   2.936  40.839   1.879
84855W        W48579  36.480  37.064   1.730
84856W        W48580   1.451  24.032  12.876
84857W        W48581   9.759   0.292  12.952
84858W        W48582  14.203  41.908  12.445
84859W        W48583  26.120  14.204  14.832
84860W        W48584  17.789   6.260   3.790
84861W        W48585  35.481   2.944  13.949
84862W        W48586   3.319  11.789   1.407
84863W        W48587  38.419  26.023   0.875
84864W        W48588  17.225  31.621  13.329
84865W        W48589  15.316   5.800  14.395
84866W        W48590  24.107  12.638  12.471
84867W        W48591  23.602  42.314   0.478
84868W        W48592   0.748  30.623   4.208
84869W        W48593  32.941  41.979   0.736
84870W        W48594   2.363  36.895  14.276
84871W        W48595  20.734  30.590   4.705
84872W        W48596  19.556  30.496   0.287
84873W        W48597  26.074   2.854  11.506
84874W        W48598  15.200  42.297   4.161
84875W        W48599  34.871  14.654  10.975
84876W        W48600   8.678  22.607   0.730
84877W        W48601  14.160  22.718   0.341
84878W        W48602  27.493  15.195  13.401
84879W        W48603  44.435  30.565  11.859
84880W        W48604  18.172  23.554  10.561
84881W        W48605  19.679  10.840  12.053
84882W        W48606  31.639   2.381   3.239
84883W        W48607  22.190  12.267   0.823
84884W        W48608  21.690  29.623   4.699
84885W        W48609   2.426   8.840   4.196
84886W        W48610   0.422  12.627  11.407
84887W        W48611  15.646  19.259  12.030
84888W        W48612  38.062  44.340  11.534
84889W        W48613   4.781  44.415  10.954
84890W        W48614  29.100  29.449   3.371
84891W        W48615  13.652  10.227   1.797
84892W        W48616   3.781  17.092   3.660
84893W        W48617  43.861  13.614  10.895
84894W        W48618   8.182   9.686   0.465
84895W        W48619  32.428  26.504   3.842
84896W        W48620  14.200  30.488   1.792
84897W        W48621  41.292   1.731  14.813
84898W        W48622  21.049  26.012   3.856
84899W        W48623  38.388  20.769   1.290
84900W        W48624  33.606  32.564  11.503
84901W        W48625  12.855  36.924  14.867
84902W        W48626  20.091  18.708   3.306
84903W        W48627   4.754  32.069  13.994
84904W        W48628   5.882   2.826   2.358
84905W        W48629  15.255  40.960   0.769
84906W        W48630  41.456  30.965   3.819
84907W        W48631   0.858  38.532  14.352
84908W        W48632  21.210  29.628  12.962
84909W        W48633   5.353   4.392  14.806
84910W        W48634  11.288  39.838  13.453
84911W        W48635  14.824   6.294  10.972
84912W        W48636   4.427  36.025  14.457
84913W        W48637  23.530  23.726  13.904
84914W        W48638  26.077  10.292  12.430
84915W        W48639  30.424  33.614  12.060
84916W        W48640   4.431  37.361  12.526
84917W        W48641  10.142  12.819   4.196
84918W        W48642  42.331   9.336   0.937
84919W        W48643   5.731  33.496   0.764
84920W        W48644  41.915   4.790   0.421
84921W        W48645  34.115  41.478   4.164
84922W        W48646  33.510  39.852  11.010
84923W        W48647  38.845  41.999  12.494
84924W        W48648  32.397   9.821   4.303
84925W        W48649   0.407  20.550   1.235
84926W        W48650   3.754  44.365   0.471
84927W        W48651  22.720  30.093  10.924
84928W        W48652  19.264   3.444   2.761
84929W        W48653  40.543  39.060  10.529
84930W        W48654  16.143  24.025   2.202
84931W        W48655  23.692  15.741   1.275
84932W        W48656  31.427   4.759   3.298
84933W        W48657  30.624  29.458  12.967
84934W        W48658  34.615   7.772   4.209
84935W        W48659  18.187  40.510  14.906
84936W        W48660   0.745  33.990   3.314
84937W        W48661  27.465  35.995   2.680
84938W        W48662  37.897   3.877   4.788
84939W        W48663   1.337  31.039   0.259
84940W        W48664  11.624  26.057   0.400
84941W        W48665  38.356  44.002   1.398
84942W        W48666  16.180  41.823  12.529
84943W        W48667  42.355  35.452   1.749
84944W        W48668  15.111  37.960  10.427
84945W        W48669  42.414  25.527  14.342
84946W        W48670   9.306  28.998  14.876
84947W        W48671  39.943   5.311   3.235
84948W        W48672  29.150  28.608   2.314
84949W        W48673  31.126   3.875  14.417
84950W        W48674  34.459   1.783  10.417
84951W        W48675  34.445   5.907   1.429
84952W        W48676  28.638   0.832   3.188
84953W        W48677  24.546  17.277   2.750
84954W        W48678  11.644  41.437  10.981
84955W        W48679  33.011  28.449  12.021
84956W        W48680   3.432  32.008   3.348
84957W        W48681  44.964   4.827   0.269
84958W        W48682  13.269  37.883   1.306
84959W        W48683  24.527  28.597  10.988
84960W        W48684  26.044  30.137  12.994
84961W        W48685  33.480  23.678   1.790
84962W        W48686  42.955  32.609   0.419
84963W        W48687  22.615  41.331   5.255
84964W        W48688  11.683  17.795  13.312
84965W        W48689  24.034   4.827  14.300
84966W        W48690  41.945  28.579  11.610
84967W        W48691  30.157  11.755  10.967
84968W        W48692  22.172  26.083  10.553
84969W        W48693  27.465   9.353  11.966
84970W        W48694  19.650  11.204   4.613
84971W        W48695  16.627  35.446   3.817
84972W        W48696  24.536  44.911  13.960
84973W        W48697  29.508  32.402  12.403
84974W        W48698  31.101  10.347   0.870
84975W        W48699  40.976   1.410  12.942
84976W        W48700  40.451  20.554  13.956
84977W        W48701   6.192  33.901   2.408
84978W        W48702  13.696  38.527  10.993
84979W        W48703  40.390  32.061   9.926
84980W        W48704  31.474   8.383  13.014
84981W        W48705  24.556   7.674  10.983
84982W        W48706  28.148  28.092   2.300
84983W        W48707  37.577  32.538   3.716
84984W        W48708  27.611  28.168  14.890
84985W        W48709  26.575  10.281  12.398
84986W        W48710  27.094  31.977   3.174
84987W        W48711  19.599   1.921  11.875
84988W        W48712  13.780  43.905  11.859
84989W        W48713   7.200   0.914   3.808
84990W        W48714  10.274  22.079  10.617
84991W        W48715   4.853   5.196   1.924
84992W        W48716   4.916  21.110  13.459
84993W        W48717   7.772  15.105  14.292
84994W        W48718  10.657  18.103  11.530
84995W        W48719  28.484  21.550   3.287
84996W        W48720  25.135  16.292  11.039
84997W        W48721  43.456  29.968   3.240
84998W        W48722  26.128  15.694   0.814
84999W        W48723  41.474  16.105  12.477
85000W        W48724   6.249  25.108   0.822
85001W        W48725   9.394  24.721  12.993
85002W        W48726  11.676   1.456  13.355
85003W        W48727  17.257  27.093  12.893
85004W        W48728  14.671  41.035   1.932
85005W        W48729   7.347  34.892   0.329
85006W        W48730  42.825  33.960   4.124
85007W        W48731  20.704  34.043   4.607
85008W        W48732  42.343  12.635  14.500
85009W        W48733   2.334  28.570  13.322
85010W        W48734  18.104   2.361  11.463
85011W        W48735   5.779  24.558  10.580
85012W        W48736  17.198  31.544   1.849
85013W        W48737  40.835  24.037   1.345
85014W        W48738  31.611  12.153  10.441
85015W        W48739  33.465  32.072   3.254
85016W        W48740  27.982  35.600   3.355
85017W        W48741  13.211  43.770  11.060
85018W        W48742  12.139   1.416  14.487
85019W        W48743  43.862  13.704  12.520
85020W        W48744  16.297  40.443  12.943
85021W        W48745  16.168  15.693   1.797
85022W        W48746  34.970  10.145  10.595
85023W        W48747   3.885  31.146  10.429
85024W        W48748  18.748   0.772  11.569
85025W        W48749   0.913   1.426  13.419
85026W        W48750   6.308  43.503  11.524
85027W        W48751  20.200  23.552   1.343
85028W        W48752   0.776  16.675  11.421
85029W        W48753  31.474  11.149   1.695
85030W        W48754  38.926  17.798   2.739
85031W        W48755  22.742  11.346   4.734
85032W        W48756   8.404  21.228   0.874
85033W        W48757   4.305  13.832   4.183
85034W        W48758  36.941  20.549  10.566
85035W        W48759  24.564  31.907   3.686
85036W        W48760  44.396  37.068   2.663
85037W        W48761  33.447  11.761   0.400
85038W        W48762   6.360  35.025   2.766
85039W        W48763   3.727   8.280  14.821
85040W        W48764  17.288  32.967   3.800
85041W        W48765  42.796  44.392   1.344
85042W        W48766  31.506   2.444   1.920
85043W        W48767  13.249  14.246   3.301
85044W        W48768   7.766  12.657   0.249
85045W        W48769  20.747  32.616   2.387
85046W        W48770  37.040  36.929  12.448
85047W        W48771  32.397  41.303   3.306
85048W        W48772  17.251  17.796  13.959
85049W        W48773  26.497  24.575   3.292
85050W        W48774   6.903  44.328  11.478
85051W        W48775  16.570  42.433  12.969
85052W        W48776  43.402  23.113   0.411
85053W        W48777  40.917   3.820   2.184
85054W        W48778  25.220   4.755  12.946
85055W        W48779  12.713  10.314   3.642
85056W        W48780  14.115  37.506  13.811
85057W        W48781   1.830  13.125  10.888
85058W        W48782  11.160  10.838   3.639
85059W        W48783  20.252  37.386  11.448
85060W        W48784  11.233  24.688   4.650
85061W        W48785  12.194  24.560   2.857
85062W        W48786  26.031  27.544  14.902
85063W        W48787   2.784  42.961  14.424
85064W        W48788  15.735   9.306  12.954
85065W        W48789   1.958  15.172   3.726
85066W        W48790  35.981  21.045   4.308
85067W        W48791  34.909  20.529   2.731
85068W        W48792  18.734  15.748  14.393
85069W        W48793  40.388   3.730  13.879
85070W        W48794  35.961  11.773  14.015
85071W        W48795  27.553  10.667  11.112
85072W        W48796  30.964  43.768  11.886
85073W        W48797  25.974   7.180  13.013
85074W        W48798  33.401  15.311   3.263
85075W        W48799  40.415  17.073   1.276
85076W        W48800   7.354  41.819   3.377
85077W        W48801   8.303  35.027  14.873
85078W        W48802  39.536  11.166  11.079
85079W        W48803  42.364  39.922  14.804
85080W        W48804  41.428  32.398  12.051
85081W        W48805   8.767  25.121  14.980
85082W        W48806  17.777  14.137   2.797
85083W        W48807  16.078   6.285   2.251
85084W        W48808  24.010  13.830   4.782
85085W        W48809  29.572  17.298   2.373
85086W        W48810  40.345  40.937   4.699
85087W        W48811   9.223   5.827   2.378
85088W        W48812  42.904  36.909  14.356
85089W        W48813   5.295  13.215  10.617
85090W        W48814  16.672  13.280   2.204
85091W        W48815  13.108   4.322   1.773
85092W        W48816  27.153  39.507   2.297
85093W        W48817  20.136  20.661  13.392
85094W        W48818  26.958  19.711   3.326
85095W        W48819  14.633  23.075   4.818
85096W        W48820  16.614  35.886   3.756
85097W        W48821  22.613  15.270  11.507
85098W        W48822   9.155  15.634   2.728
85099W        W48823  24.220   0.315   3.272
85100W        W48824  40.859   2.808  13.502
85101W        W48825   5.831  10.285   3.738
85102W        W48826  44.398  17.724  10.940
85103W        W48827  20.533  38.375  11.498
85104W        W48828  40.835  28.035  12.560
85105W        W48829  18.559  14.824   2.665
85106W        W48830  16.626   1.352  10.552
85107W        W48831  31.938  34.871   0.426
85108W        W48832   2.252   0.860  12.506
85109W        W48833  37.432  43.271  11.953
85110W        W48834  20.583  14.638   1.718
85111W        W48835  29.479  36.054   0.901
85112W        W48836  15.801  19.106  11.375
85113W        W48837  21.642  42.025   9.932
85114W        W48838  26.503  14.716   0.305
85115W        W48839   3.777  21.199   1.436
85116W        W48840  22.617   8.399  11.504
85117W        W48841  21.019  20.703  12.490
85118W        W48842  42.856   3.239  14.803
85119W        W48843  34.465   6.785  10.480
85120W        W48844  22.021  24.978  11.023
85121W        W48845  18.278  33.033   2.887
85122W        W48846  18.181  29.998  14.448
85123W        W48847  32.406  34.000   3.831
85124W        W48848  24.581  41.393  14.867
85125W        W48849   1.377  42.503  14.829
85126W        W48850   7.830  40.907   4.260
85127W        W48851   0.398  30.116   2.695
85128W        W48852  27.081  26.184   4.602
85129W        W48853  39.982   0.955   1.765
85130W        W48854  40.875  21.204   0.901
85131W        W48855  34.995   3.411   0.283
85132W        W48856   8.243  27.500   2.781
85133W        W48857  37.853   3.784  13.335
85134W        W48858  35.986   3.939  12.087
85135W        W48859  32.433  32.055  12.004
85136W        W48860  41.327  26.590   3.759
85137W        W48861  42.516  34.442  11.087
85138W        W48862  24.570  29.982   0.781
85139W        W48863  39.024  11.768  12.390
85140W        W48864  13.211  42.800   4.722
85141W        W48865  32.558   0.282   1.338
85142W        W48866  20.764  10.725   2.673
85143W        W48867   5.888  23.051  13.308
85144W        W48868  43.488  30.435   3.707
85145W        W48869   4.916  31.553  12.851
85146W        W48870   8.837  19.603   1.874
85147W        W48871  18.670  34.440  14.488
85148W        W48872   7.718  10.688  14.796
85149W        W48873   0.849  26.984   4.205
85150W        W48874  23.078  15.225  12.952
85151W        W48875   4.937  24.697  10.580
85152W        W48876   9.836  35.079   4.210
85153W        W48877  24.511  21.659   2.286
85154W        W48878   0.282  37.354   1.449
85155W        W48879  39.005   0.474   1.884
85156W        W48880   6.851   1.290   1.781
85157W        W48881  31.132   7.173  12.342
85158W        W48882  13.845  13.311  11.477
85159W        W48883  13.202  43.500   2.822
85160W        W48884  14.830  24.985   5.136
85161W        W48885   8.827  44.463   0.332
85162W        W48886  17.131  14.792  11.544
85163W        W48887  21.164  33.910   1.303
85164W        W48888   0.256   1.338   2.859
85165W        W48889  37.979  33.035   0.433
85166W        W48890  21.069  24.202  13.818
85167W        W48891  16.699   7.291  14.838
85168W        W48892   0.494  23.040  14.860
85169W        W48893  13.623   2.950  11.522
85170W        W48894  19.765  42.295  10.427
85171W        W48895  37.990   0.404  10.126
85172W        W48896   7.410  11.169  11.904
85173W        W48897  32.514  42.303   0.863
85174W        W48898  20.700  38.533   5.146
85175W        W48899   4.436   5.886   4.347
85176W        W48900  33.514  17.694  13.009
85177W        W48901   6.887   6.826  10.552
85178W        W48902  42.500  24.602  14.982
85179W        W48903   4.754   8.301   0.833
85180W        W48904   3.807  16.102   2.724
85181W        W48905  29.551  40.441   0.356
85182W        W48906  24.608  21.673   3.694
85183W        W48907   1.811   9.248  10.598
85184W        W48908  11.778  42.819   2.179
85185W        W48909  33.491  27.983  10.978
85186W        W48910   4.739  30.061  11.082
85187W        W48911   9.785  17.642   3.236
85188W        W48912  32.392  22.667  11.573
85189W        W48913  12.644  42.934   0.380
85190W        W48914  12.138  26.520  12.930
85191W        W48915  21.676  35.034   4.760
85192W        W48916  35.440  11.150  11.008
85193W        W48917   8.829  25.068  13.931
85194W        W48918  27.625  38.353   3.770
85195W        W48919  31.993  34.411   0.884
85196W        W48920  12.333   2.960   3.222
85197W        W48921  17.603  39.060   0.267
85198W        W48922  29.636   2.872   1.782
85199W        W48923  38.357  25.184  10.983
85200W        W48924  42.791  38.351   0.799
85201W        W48925  23.097  22.569  12.032
85202W        W48926  35.540   7.907  14.864
85203W        W48927  40.036  33.991   4.795
85204W        W48928  18.561  19.646   3.744
85205W        W48929  38.363   6.283  13.396
85206W        W48930  26.144  17.179   0.273
85207W        W48931   1.785  44.880  11.041
85208W        W48932  22.089  24.603  12.487
85209W        W48933  10.247  19.128   0.849
85210W        W48934   9.793  32.450   0.343
85211W        W48935  29.173   9.817  11.377
85212W        W48936   8.705  21.221  10.916
85213W        W48937  15.708  41.339   1.426
85214W        W48938  26.521  22.643  13.043
85215W        W48939   5.733  32.026   0.769
85216W        W48940  15.299  31.497   3.649
85217W        W48941  25.640  18.691   0.292
85218W        W48942   4.439  28.062   2.665
85219W        W48943   7.287  17.742   0.422
85220W        W48944  10.328  31.931  12.484
85221W        W48945   7.191  13.631  12.923
85222W        W48946  16.214  24.506   0.843
85223W        W48947  18.208  39.991   0.273
85224W        W48948  29.096  12.686   4.188
85225W        W48949   9.231  17.141  14.494
85226W        W48950  35.988  20.029   0.429
85227W        W48951  26.595   2.432  13.889
85228W        W48952   5.782  36.010   0.268
85229W        W48953  42.325   9.842   0.882
85230W        W48954  41.821  18.157  12.550
85231W        W48955   1.941  17.618   0.915
85232W        W48956   0.381  14.256   4.295
85233W        W48957   5.245  42.018  10.418
85234W        W48958  42.963   1.912   3.769
85235W        W48959  12.247  35.857   3.241
85236W        W48960  24.702  29.445   0.782
85237W        W48961  37.890  40.899   4.695
85238W        W48962  34.964  42.985   0.827
85239W        W48963  11.768  15.174  14.896
85240W        W48964  13.317   4.405  14.402
85241W        W48965   3.858  28.988  12.535
85242W        W48966  21.062  10.857   4.817
85243W        W48967  11.356  26.173   4.832
85244W        W48968  32.135  36.841  14.979
85245W        W48969   0.439   9.202   0.772
85246W        W48970  27.649   0.784  10.425
85247W        W48971  25.500  28.949   3.816
85248W        W48972  32.095  17.161   5.098
85249W        W48973  34.909  19.719   2.751
85250W        W48974  37.548  36.354  10.420
85251W        W48975   4.314  17.697  10.507
85252W        W48976  35.460  13.771  14.972
85253W        W48977  24.027  36.581   0.409
85254W        W48978  32.506  37.411   5.180
85255W        W48979   1.777  17.648   2.788
85256W        W48980  21.550   4.396  14.281
85257W        W48981  33.945  31.570  13.918
85258W        W48982   7.767  21.171  10.529
85259W        W48983  18.613  42.409   0.959
85260W        W48984  18.184  29.584   4.716
85261W        W48985  25.072  22.070   4.259
85262W        W48986  23.662  11.754  14.925
85263W        W48987   5.286  10.203  10.157
85264W        W48988  11.313  33.382   3.292
85265W        W48989  25.601   3.718   3.307
85266W        W48990  13.176  15.161  10.518
85267W        W48991  34.996   7.209   1.422
85268W        W48992  30.542  26.032   1.410
85269W        W48993  13.123  31.146  14.819
85270W        W48994  44.973  19.629   0.263
85271W        W48995   7.227  33.072  13.515
85272W        W48996  17.092  21.685  13.026
85273W        W48997  38.382  12.324  13.368
85274W        W48998   3.272  29.626   4.157
85275W        W48999  25.638  38.988   1.865
85276W        W49000  32.394  43.897  12.948
85277W        W49001   8.743  32.926  10.915
85278W        W49002   8.282  12.175  13.966
85279W        W49003  40.812  15.612  13.911
85280W        W49004  28.174  43.886  14.775
85281W        W49005  11.752  19.747  14.870
85282W        W49006  40.435  21.186  12.971
85283W        W49007  24.043  38.513   2.363
85284W        W49008   9.823  26.117  13.020
85285W        W49009  36.890  12.756   3.832
85286W        W49010  39.939   7.760  11.111
85287W        W49011   2.465   8.195   0.858
85288W        W49012  43.450  10.762   0.866
85289W        W49013  17.737  42.014   4.674
85290W        W49014  17.610  44.867   1.739
85291W        W49015  38.948  35.098   4.315
85292W        W49016  32.591  41.449   1.442
85293W        W49017  20.190  43.791   3.380
85294W        W49018  21.219  43.909  11.067
85295W        W49019   3.795  35.410   4.831
85296W        W49020  27.195  44.337   2.743
85297W        W49021  40.936  13.702   4.705
85298W        W49022  38.950  14.724   2.293
85299W        W49023  35.942   4.713   3.780
85300W        W49024  24.142   2.945  12.407
85301W        W49025  40.427  25.592  13.334
85302W        W49026  13.626  33.904  10.407
85303W        W49027   9.226  11.682   4.272
85304W        W49028  37.497  14.259   5.185
85305W        W49029  19.544  31.928  11.390
85306W        W49030  21.078   5.352  12.055
85307W        W49031   1.755  39.409  14.401
85308W        W49032  22.161  40.382   5.151
85309W        W49033  22.201   0.256  10.968
85310W        W49034  38.009  37.010  12.044
85311W        W49035   1.441  29.126   3.785
85312W        W49036  25.209   0.983   3.188
85313W        W49037   5.268  16.149   1.236
85314W        W49038  12.297   8.215   0.845
85315W        W49039  24.006  38.062   2.387
85316W        W49040  18.716  25.524   1.786
85317W        W49041   0.774  26.583   2.793
85318W        W49042   3.311  40.530   4.134
85319W        W49043  35.603  29.919   3.246
85320W        W49044  18.590  11.247  13.387
85321W        W49045  15.246  44.497  11.856
85322W        W49046  12.787  17.698   3.702
85323W        W49047  17.190  29.457  10.452
85324W        W49048  19.174  16.292   4.821
85325W        W49049   1.959  28.551  10.506
85326W        W49050   1.969   3.422   2.415
85327W        W49051  22.150  39.838  12.412
85328W        W49052  14.187  10.200   3.813
85329W        W49053  24.614  40.853  14.415
85330W        W49054  18.217  22.147   2.320
85331W        W49055  31.096  43.502  11.607
85332W        W49056   0.483  15.198  12.365
85333W        W49057  25.038   6.680  11.958
85334W        W49058   0.967   4.227   4.236
85335W        W49059   1.450  18.719  11.089
85336W        W49060  38.432  37.041  10.539
85337W        W49061  13.778   0.913  10.990
85338W        W49062  34.101  26.088   4.831
85339W        W49063  12.340  21.257   2.228
85340W        W49064  44.421  21.038  11.061
85341W        W49065   9.647  26.977  14.365
85342W        W49066  29.132  25.514   2.369
85343W        W49067   1.875  17.779  11.053
85344W        W49068  39.905  37.566   1.345
85345W        W49069  12.705  26.607  14.772
85346W        W49070  34.956   0.904  14.470
85347W        W49071   1.253  42.335  10.462
85348W        W49072  42.350  23.708  12.404
85349W        W49073  41.796  27.977  13.852
85350W        W49074  44.836  41.877   3.640
85351W        W49075  21.112  27.013  12.940
85352W        W49076   4.315   0.429   3.233
85353W        W49077  39.335  11.205  14.777
85354W        W49078  44.979  38.430   3.855
85355W        W49079  27.688  21.187  10.440
85356W        W49080   1.339  38.911  13.337
85357W        W49081  32.929  32.924   4.143
85358W        W49082   6.211  36.352   1.909
85359W        W49083  42.823   3.752   0.731
85360W        W49084  16.279  39.931   2.366
85361W        W49085  28.519  12.307  13.541
85362W        W49086  36.993  26.539  12.863
85363W        W49087  15.680  14.271  12.358
85364W        W49088  21.520  26.596  11.591
85365W        W49089  10.820  24.209  11.914
85366W        W49090  21.022   1.269   0.734
85367W        W49091  39.536  29.625  13.385
85368W        W49092   3.422   5.716   4.625
85369W        W49093  41.917  23.683   3.761
85370W        W49094   2.438   2.787  12.990
85371W        W49095  41.015  14.108  11.551
85372W        W49096   8.290  26.135  11.517
85373W        W49097   4.322  35.498  11.447
85374W        W49098  23.102   7.312   1.812
85375W        W49099  20.252  40.043   5.293
85376W        W49100  10.727   7.184  14.359
85377W        W49101  22.605  25.085  13.982
85378W        W49102  40.839  18.146  13.871
85379W        W49103  24.663  43.387   3.335
85380W        W49104  25.540   2.916   4.751
85381W        W49105  33.030  43.857   4.713
85382W        W49106  32.497  28.527  14.993
85383W        W49107   3.416  30.431   3.764
85384W        W49108  29.024  17.694  10.642
85385W        W49109  43.461  35.595   0.448
85386W        W49110  23.226  42.018   5.175
85387W        W49111  22.228  38.885  12.888
85388W        W49112  10.788  13.333  14.817
85389W        W49113  40.512   3.274  14.796
85390W        W49114  30.161  21.602   2.272
85391W        W49115  18.108  43.987   2.868
85392W        W49116  42.995   4.814  12.481
85393W        W49117  31.146   7.839   2.329
85394W        W49118  19.596  18.596   2.355
85395W        W49119  11.221   4.341  10.042
85396W        W49120  18.726  12.137   0.781
85397W        W49121  18.167   6.309  13.885
85398W        W49122   3.846  31.965   0.329
85399W        W49123  27.989  21.143   0.869
85400W        W49124   6.678  39.809   1.707
85401W        W49125  23.665   4.420  12.500
85402W        W49126  21.061   8.205  12.003
85403W        W49127  13.616  17.580   1.448
85404W        W49128  22.676  12.327  11.513
85405W        W49129  43.916  11.706  12.405
85406W        W49130  39.515   0.406  14.422
85407W        W49131  10.305  36.587   2.761
85408W        W49132  22.215  22.686   3.149
85409W        W49133  27.108  35.931  10.033
85410W        W49134   2.902  35.560  11.481
85411W        W49135  33.035  17.651  13.523
85412W        W49136   4.390  36.432   4.324
85413W        W49137  37.968  31.407   0.929
85414W        W49138   9.384  31.947   4.281
85415W        W49139   6.880   0.456   3.334
85416W        W49140  27.599  42.453   4.351
85417W        W49141  11.670  41.803  13.920
85418W        W49142  14.117  43.500  13.927
85419W        W49143  31.622   9.150   4.811
85420W        W49144  36.467  42.839  14.848
85421W        W49145  13.175   1.808  13.994
85422W        W49146  20.572   9.272   0.325
85423W        W49147   6.236   4.376   4.133
85424W        W49148  28.057  35.072   3.348
85425W        W49149  44.926  27.115  10.981
85426W        W49150  16.283   8.855  14.429
85427W        W49151  35.497  22.017  11.481
85428W        W49152  24.152  37.080   4.797
85429W        W49153  29.599  40.815  14.003
85430W        W49154  21.072  24.990   9.951
85431W        W49155  30.023  36.564  11.925
85432W        W49156  15.815  13.694  11.511
85433W        W49157  25.587   8.831  13.954
85434W        W49158  29.017   2.869  12.575
85435W        W49159   2.864  40.935  14.474
85436W        W49160  38.422  28.003  14.877
85437W        W49161   3.949  22.219  12.909
85438W        W49162  12.346  32.097  14.848
85439W        W49163   0.255   5.885  12.475
85440W        W49164   6.692  29.082  11.551
85441W        W49165   4.316  12.713   4.702
85442W        W49166  12.227   1.429   4.620
85443W        W49167  26.197  16.313  13.313
85444W        W49168  28.566  34.009   0.867
85445W        W49169   4.238   2.762   2.256
85446W        W49170   6.403  18.642  14.448
85447W        W49171  41.322  38.977  10.098
85448W        W49172  11.754  10.261   4.130
85449W        W49173   8.363  10.862   3.226
85450W        W49174  42.837  17.087   4.347
85451W        W49175  41.915   7.385   2.664
85452W        W49176  24.062  14.185  13.937
85453W        W49177  24.001   4.225   2.347
85454W        W49178  25.712  20.070  13.931
85455W        W49179  43.977  36.926  14.423
85456W        W49180  18.625  11.356  14.925
85457W        W49181  18.769  38.332  14.342
85458W        W49182  15.727  34.042   2.734
85459W        W49183  43.385   6.399  10.933
85460W        W49184  25.162   5.923  13.914
85461W        W49185  17.729   2.371   1.325
85462W        W49186  36.928  43.870   3.168
85463W        W49187  27.673   5.394  14.387
85464W        W49188  12.215  16.746  11.087
85465W        W49189  14.657  30.946  12.055
85466W        W49190  24.720  18.087  13.518
85467W        W49191  40.051  22.996  14.941
85468W        W49192  37.896  12.201   2.385
85469W        W49193  41.308  32.071  11.011
85470W        W49194  26.602  22.240   0.827
85471W        W49195  33.531  14.646  11.907
85472W        W49196  39.833   9.225   0.463
85473W        W49197  15.279   2.761  10.518
85474W        W49198  36.494  24.080   3.276
85475W        W49199   0.745   8.357  11.535
85476W        W49200  29.950  11.636  13.448
85477W        W49201   3.317  42.789  12.431
85478W        W49202   4.746  36.914   1.369
85479W        W49203  37.365  23.566  10.997
85480W        W49204  32.935  18.203  11.058
85481W        W49205  44.921  13.226   1.388
85482W        W49206  43.898  20.179  10.461
85483W        W49207  40.900  32.549   4.652
85484W        W49208   9.649  11.369  14.766
85485W        W49209   2.455  44.372   0.944
85486W        W49210   9.823  21.608   4.732
85487W        W49211   6.910   7.869   2.705
85488W        W49212   5.811   5.284  12.363
85489W        W49213  24.701   6.269  11.379
85490W        W49214  16.586  31.598  14.298
85491W        W49215  15.277   3.316  13.429
85492W        W49216   1.373   1.852  11.489
85493W        W49217  11.129   8.703   1.778
85494W        W49218  34.562  36.946  11.493
85495W        W49219  35.482   3.909   2.794
85496W        W49220   4.909   3.430   1.818
85497W        W49221  19.628  23.012   4.694
85498W        W49222   1.433   0.348  10.909
85499W        W49223  24.585  13.769  14.350
85500W        W49224   0.775  22.505  14.445
85501W        W49225  14.162  25.986   1.344
85502W        W49226  31.018  12.204  10.903
85503W        W49227   9.344  15.186   4.223
85504W        W49228   1.345  11.306   3.337
85505W        W49229  22.696  36.392  14.333
85506W        W49230  28.665  41.460   0.774
85507W        W49231  30.446  20.102  12.381
85508W        W49232  33.965   5.419   0.931
85509W        W49233  24.148  14.674  13.547
85510W        W49234   5.777   2.728   0.800
85511W        W49235  23.192  39.861   3.629
85512W        W49236   0.416  42.471   1.252
85513W        W49237  37.931   1.748   0.840
85514W        W49238  38.961  14.314   5.250
85515W        W49239  44.370  12.761  11.478
85516W        W49240   0.748  15.685   4.799
85517W        W49241  13.272   9.827   2.415
85518W        W49242  18.587  32.068  13.012
85519W        W49243  30.161  28.536   1.226
85520W        W49244  38.504  41.327  13.992
85521W        W49245   0.430   3.401   1.285
85522W        W49246  38.463  24.031  13.978
85523W        W49247  16.249  28.440  11.866
85524W        W49248   9.310   3.220   5.212
85525W        W49249   9.785  43.320   1.449
85526W        W49250  13.201  34.945   3.304
85527W        W49251  44.994  30.027   0.880
85528W        W49252   6.906  12.177   3.351
85529W        W49253   2.925  39.455  11.033
85530W        W49254  38.944  28.512  10.592
85531W        W49255  23.174  23.518  14.493
85532W        W49256  39.019  32.986  11.603
85533W        W49257   2.888  24.592  10.533
85534W        W49258  38.425  12.615  12.346
85535W        W49259   3.849  16.231  12.881
85536W        W49260  29.623   7.176   2.845
85537W        W49261  41.389  11.830  13.515
85538W        W49262  26.037  37.438  12.376
85539W        W49263  16.167  40.816   4.654
85540W        W49264  29.487   3.355   0.777
85541W        W49265   2.844   9.333   2.700
85542W        W49266  21.132  18.639   3.849
85543W        W49267  31.995  40.815   4.233
85544W        W49268   1.290  28.129   4.620
85545W        W49269  30.610  37.508   2.806
85546W        W49270  27.618   4.324  11.025
85547W        W49271  18.548  17.796  11.390
85548W        W49272   4.790   0.459  11.894
85549W        W49273  16.578  24.140   4.629
85550W        W49274  12.682  35.105   1.872
85551W        W49275  29.124  26.025   3.318
85552W        W49276  19.253  28.484   3.836
85553W        W49277  20.545  10.848  12.860
85554W        W49278   9.648   1.939   0.419
85555W        W49279  42.331   6.736   1.771
85556W        W49280  42.983  12.731  12.445
85557W        W49281  28.532  40.921  14.847
85558W        W49282  27.196  21.070  11.400
85559W        W49283  16.685  24.598  10.501
85560W        W49284  15.624   4.308   3.666
85561W        W49285   4.246   4.843  14.294
85562W        W49286  15.725   9.244   1.243
85563W        W49287  12.810  15.641  12.992
85564W        W49288  31.471  22.028   1.228
85565W        W49289  42.976  29.471  14.934
85566W        W49290  25.175   6.889  13.942
85567W        W49291   7.390  38.535  10.581
85568W        W49292  31.494   5.248   3.376
85569W        W49293  13.292  36.939  14.867
85570W        W49294  19.202  41.458  13.860
85571W        W49295  31.078  21.056   9.947
85572W        W49296  36.869  23.654  11.084
85573W        W49297   4.811  20.200  11.909
85574W        W49298  24.529  32.436   2.184
85575W        W49299  23.722   2.254  13.488
85576W        W49300  42.402  35.411  11.516
85577W        W49301  34.465  41.354   4.251
85578W        W49302  14.156  17.621   4.354
85579W        W49303  41.006  32.909   0.748
85580W        W49304  13.836   5.833  14.377
85581W        W49305  27.108   7.682   4.769
85582W        W49306  33.885   4.427   0.942
85583W        W49307  16.142  15.650   4.281
85584W        W49308   2.772  38.351   1.763
85585W        W49309  37.005  29.631   4.246
85586W        W49310  11.176  25.133  14.966
85587W        W49311   0.881  35.456   2.691
85588W        W49312  15.654  20.156  11.010
85589W        W49313  17.745  39.980   3.259
85590W        W49314  21.697  24.566  10.569
85591W        W49315  16.704  27.457  11.959
85592W        W49316  43.502  34.039  14.316
85593W        W49317   0.867  36.996   0.361
85594W        W49318  16.118  20.749   2.358
85595W        W49319  21.547  13.192   2.396
85596W        W49320  41.955  37.886   3.206
85597W        W49321  15.267  20.661  13.412
85598W        W49322   8.656   0.876  10.892
85599W        W49323  36.551  43.888  12.416
85600W        W49324  25.674  10.356   2.197
85601W        W49325  20.665   1.360   0.312
85602W        W49326  13.340  25.998  14.921
85603W        W49327  32.589  14.241   3.838
85604W        W49328   6.794   6.857  14.918
85605W        W49329  28.060  32.003   4.275
85606W        W49330  30.926  44.959  12.035
85607W        W49331   4.389  39.864  12.913
85608W        W49332  26.976  35.855   4.236
85609W        W49333  18.707  10.768   0.453
85610W        W49334  37.462  37.429  13.487
85611W        W49335   0.914  12.801  11.061
85612W        W49336  40.806  16.252  14.458
85613W        W49337   7.234   2.886  14.017
85614W        W49338  32.583  32.087   9.930
85615W        W49339  38.520  32.625   0.258
85616W        W49340   8.301  19.697   4.787
85617W        W49341  27.568  43.509  12.537
85618W        W49342  37.900  33.612   1.213
85619W        W49343  11.651  22.118   3.191
85620W        W49344  19.621  33.886   0.410
85621W        W49345  22.552  15.122   0.327
85622W        W49346  25.499  23.594   0.789
85623W        W49347  15.306   7.340   4.337
85624W        W49348   9.348  23.049   3.741
85625W        W49349   0.861  10.153   3.377
85626W        W49350  12.220  12.319  10.429
85627W        W49351  29.120  22.145  13.807
85628W        W49352  37.052  28.103  11.078
85629W        W49353  10.174   3.294   3.662
85630W        W49354  43.366  42.481  10.986
85631W        W49355   7.780  30.509  10.462
85632W        W49356  16.165  11.137   3.346
85633W        W49357  43.303   9.163   3.371
85634W        W49358  43.342  19.745   0.858
85635W        W49359  10.242   3.831   0.885
85636W        W49360  16.631  16.719   2.815
85637W        W49361  26.566  23.065  12.347
85638W        W49362  36.489  30.567  11.508
85639W        W49363  30.977  33.037   2.413
85640W        W49364  26.620  33.625   3.184
85641W        W49365  34.501   0.485  12.366
85642W        W49366  25.501  34.515   0.399
85643W        W49367   5.838   4.328   0.881
85644W        W49368  10.341  17.276  12.076
85645W        W49369  43.358  43.894  11.892
85646W        W49370  19.088  22.509  11.480
85647W        W49371  20.729  10.704   3.317
85648W        W49372  27.986  35.484   1.901
85649W        W49373  27.653   8.832  10.407
85650W        W49374   4.842  21.533   2.898
85651W        W49375   0.757  40.845  12.959
85652W        W49376  10.146  41.303   3.326
85653W        W49377  29.424   6.739   3.331
85654W        W49378  25.193  35.408   3.239
85655W        W49379  10.822   9.810  12.953
85656W        W49380  20.659   4.898  14.386
85657W        W49381  24.090  31.632   0.289
85658W        W49382  40.504   9.650   0.288
85659W        W49383  30.130  15.708   4.142
85660W        W49384  23.074  25.035   2.219
85661W        W49385  35.578   9.797  11.552
85662W        W49386  17.228   5.232  11.870
85663W        W49387  13.752  15.782  12.545
85664W        W49388  21.625  16.308  12.918
85665W        W49389  11.338  13.159   3.225
85666W        W49390  43.397   4.925  12.978
85667W        W49391  30.542  20.100   3.678
85668W        W49392  14.292  34.071  13.491
85669W        W49393   9.844  24.089   0.774
85670W        W49394   5.336  39.394  14.857
85671W        W49395   7.670  30.129   1.368
85672W        W49396  17.165  21.056  11.476
85673W        W49397  28.106  38.380   4.805
85674W        W49398  11.178  41.380   0.250
85675W        W49399  40.518  29.434  11.403
85676W        W49400  17.122  25.011   2.258
85677W        W49401  43.407  22.679  10.982
85678W        W49402  29.584  17.150   0.369
85679W        W49403  24.590  39.030   5.252
85680W        W49404  22.125  25.979   4.703
85681W        W49405   2.455  27.026  14.496
85682W        W49406  39.322   4.853  11.895
85683W        W49407  20.083  40.431  13.349
85684W        W49408   8.827   8.325  13.311
85685W        W49409  19.756  42.479   2.309
85686W        W49410  10.664  22.740  11.412
85687W        W49411  42.946   4.224  13.846
85688W        W49412  31.442   6.378  10.916
85689W        W49413  32.908  41.337   2.205
85690W        W49414  39.438   6.862  12.449
85691W        W49415  39.826  23.082   2.776
85692W        W49416  13.300  44.870  13.995
85693W        W49417  33.886  25.509   2.837
85694W        W49418  37.055  34.011  12.033
85695W        W49419  15.607  41.329   1.714
85696W        W49420  25.137  21.252  13.322
85697W        W49421  13.240  39.466   2.740
85698W        W49422   6.884   1.333   3.687
85699W        W49423   7.889   5.754   1.844
85700W        W49424  32.052  38.005   3.330
85701W        W49425  27.075  17.663  11.008
85702W        W49426  42.402  33.947  14.514
85703W        W49427  10.714  29.993  10.630
85704W        W49428   9.245   3.304   4.342
85705W        W49429  10.377   3.764  13.452
85706W        W49430  44.839   2.389   0.477
85707W        W49431  19.115  17.739  12.039
85708W        W49432   9.394  19.626   0.335
85709W        W49433  39.330   9.220   0.733
85710W        W49434  16.672  34.437  13.451
85711W        W49435   4.848   0.967   1.441
85712W        W49436   0.282   4.755   1.784
85713W        W49437  30.505  32.086   0.244
85714W        W49438  23.164  36.572  11.036
85715W        W49439  25.137  14.597   3.795
85716W        W49440  26.647  43.781   2.399
85717W        W49441  12.820  42.805  10.988
85718W        W49442  42.424  41.492   4.222
85719W        W49443  13.236  36.846  13.892
85720W        W49444   0.485  37.338   4.691
85721W        W49445  36.519  30.448   2.748
85722W        W49446  42.349   1.977  12.356
85723W        W49447   1.932  13.295  12.087
85724W        W49448  24.084  36.880   2.727
85725W        W49449  17.305  10.695   2.261
85726W        W49450  38.472   2.433   2.346
85727W        W49451   2.289  28.051  13.981
85728W        W49452  29.449   5.751  12.541
85729W        W49453  39.932   3.428   3.792
85730W        W49454  25.690   2.764   0.792
85731W        W49455  39.061  10.637  11.599
85732W        W49456  35.096   8.679  13.437
85733W        W49457  29.950  11.845   4.632
85734W        W49458  43.482   2.781   4.649
85735W        W49459  17.649  36.560   1.274
85736W        W49460   3.771  40.991   0.399
85737W        W49461  31.944  44.282   0.480
85738W        W49462  37.887  26.141   3.286
85739W        W49463  33.089  38.544   4.622
85740W        W49464   2.882  41.532   3.384
85741W        W49465  42.940  27.039   2.250
85742W        W49466  44.914  40.968  12.930
85743W        W49467  31.948  31.083   0.418
85744W        W49468  34.912  29.661   1.283
85745W        W49469  42.289   4.378  12.569
85746W        W49470  19.226  39.502   1.251
85747W        W49471  21.190  39.330   3.326
85748W        W49472  35.388  33.435   3.255
85749W        W49473  28.558  37.497  12.915
85750W        W49474  38.839  33.423  13.017
85751W        W49475  27.184  30.140  14.310
85752W        W49476  37.418  10.235  11.948
85753W        W49477  27.013   1.742  10.096
85754W        W49478  23.577  26.596   4.119
85755W        W49479  23.656  33.413  13.357
85756W        W49480  27.452  27.610  14.991
85757W        W49481   5.275  34.526   1.293
85758W        W49482  31.634  37.884  10.491
85759W        W49483  23.560  23.124  14.408
85760W        W49484  42.503  38.928  11.575
85761W        W49485   8.320   2.449  13.061
85762W        W49486  17.619  36.924  12.958
85763W        W49487   6.350  25.193   4.126
85764W        W49488  23.722  28.507   2.301
85765W        W49489  44.342  14.193  12.535
85766W        W49490  12.720  13.793  12.525
85767W        W49491  15.649  24.494  11.605
85768W        W49492  10.706  44.458   4.806
85769W        W49493   3.736  17.216  12.063
85770W        W49494   6.750  14.278  12.943
85771W        W49495  41.938   8.730  14.360
85772W        W49496   3.888  10.786   0.437
85773W        W49497  26.510  41.470   4.729
85774W        W49498  27.149  11.291  12.540
85775W        W49499  24.983  35.400   2.689
85776W        W49500  39.024  37.554   0.304
85777W        W49501  34.950  39.962   3.314
85778W        W49502  29.103  39.815  12.498
85779W        W49503   1.778  26.600  11.388
85780W        W49504   5.831  18.153   3.212
85781W        W49505   8.253   1.892  14.027
85782W        W49506  36.502  13.667  12.913
85783W        W49507  24.693  37.057   0.953
85784W        W49508  44.343  10.235   1.220
85785W        W49509  20.656   5.805  14.325
85786W        W49510  23.206  18.112  12.084
85787W        W49511  23.072  26.116   2.817
85788W        W49512  41.937  13.727  12.939
85789W        W49513  11.757  37.050   2.865
85790W        W49514  30.095  25.088   1.396
85791W        W49515  10.635   1.839   3.794
85792W        W49516  20.652  29.454  11.856
85793W        W49517  14.647  17.632  14.884
85794W        W49518  39.905   1.789  11.588
85795W        W49519  17.244  31.408   1.297
85796W        W49520  25.641   0.345  10.974
85797W        W49521  10.639  15.166  14.489
85798W        W49522  43.447  36.347   4.662
85799W        W49523  38.897  25.632  13.919
85800W        W49524  21.712   1.785  10.507
85801W        W49525  29.923   3.414  13.323
85802W        W49526  40.036  40.519  13.817
85803W        W49527  29.948  38.440  13.796
85804W        W49528  26.679  28.628  14.957
85805W        W49529  39.535  10.257   3.252
85806W        W49530  37.577  41.347  10.142
85807W        W49531  11.213  14.764  14.423
85808W        W49532  21.168  36.570   5.158
85809W        W49533  42.402  33.402  10.909
85810W        W49534  24.563  34.544  13.445
85811W        W49535  24.481   6.423  13.057
85812W        W49536  12.826  40.374   0.480
85813W        W49537  39.054  14.814  14.005
85814W        W49538   6.920  38.534  10.520
85815W        W49539  36.385  17.607  12.004
85816W        W49540  16.732   0.755  11.857
85817W        W49541  16.093  36.878  11.481
85818W        W49542   2.274  44.410   3.358
85819W        W49543   4.433  31.089   0.811
85820W        W49544  29.627  32.039   2.312
85821W        W49545  28.475  37.073  11.992
85822W        W49546   8.866   6.890  13.823
85823W        W49547  22.512   4.741  13.984
85824W        W49548  21.041  36.938  14.501
85825W        W49549  26.984  17.153  13.044
85826W        W49550   9.726  11.232  11.559
85827W        W49551  35.568  22.601  14.303
85828W        W49552  34.565  12.231  12.503
85829W        W49553  37.038   0.339   4.801
85830W        W49554  39.996  31.062   0.345
85831W        W49555   0.819   9.291   3.789
85832W        W49556  36.544  27.676   2.736
85833W        W49557  26.196  13.259  10.526
85834W        W49558  32.984  41.465  12.018
85835W        W49559  41.821  20.216   1.254
85836W        W49560  29.002  41.383  11.576
85837W        W49561  31.589  44.380   1.795
85838W        W49562  38.444  15.630   4.347
85839W        W49563  33.605   6.390  14.990
85840W        W49564  36.029  19.212  11.045
85841W        W49565  22.668   7.900  13.397
85842W        W49566  29.583  24.703  10.907
85843W        W49567  44.321   2.861  11.378
85844W        W49568  16.241  25.143  13.459
85845W        W49569  24.627  40.809   3.805
85846W        W49570  36.439  41.857   1.718
85847W        W49571   6.896  42.475   3.184
85848W        W49572   9.182  36.912  14.952
85849W        W49573  20.668  43.767  14.780
85850W        W49574  11.187  27.160   2.396
85851W        W49575  18.775   2.274  10.626
85852W        W49576   8.736  38.065   2.242
85853W        W49577   6.887   6.289   2.667
85854W        W49578   0.836  19.125   0.796
85855W        W49579  36.432  27.689  13.828
85856W        W49580  19.708  16.131   9.581
85857W        W49581  44.393   6.879   4.283
85858W        W49582  17.264  42.359  13.027
85859W        W49583   0.979  24.499  12.933
85860W        W49584   0.491   2.293   4.604
85861W        W49585  25.976  25.706  11.525
85862W        W49586  27.519  31.555  14.324
85863W        W49587  26.586  20.641   1.704
85864W        W49588   7.709   3.807  12.078
85865W        W49589  32.632  18.285  14.807
85866W        W49590  10.673  25.059  13.918
85867W        W49591  36.053  22.027   4.618
85868W        W49592  16.194   8.169   0.356
85869W        W49593  19.229  11.792  14.367
85870W        W49594  31.961  38.430  13.847
85871W        W49595  36.952  18.748  11.983
85872W        W49596  43.346  39.997  12.990
85873W        W49597  40.346  17.133  10.002
85874W        W49598  12.665  30.460  12.936
85875W        W49599  23.032  43.971  14.879
85876W        W49600  32.095  33.880  10.506
85877W        W49601  18.714   9.645  14.360
85878W        W49602   4.852  43.313   5.318
85879W        W49603   3.268  23.644  13.933
85880W        W49604   9.243  26.006  10.607
85881W        W49605  14.660   2.325  14.771
85882W        W49606  41.035   5.862   2.323
85883W        W49607   3.802  18.212  11.574
85884W        W49608  29.011  31.407   1.842
85885W        W49609  33.398  31.429  12.838
85886W        W49610  39.847  29.090  13.869
85887W        W49611  21.211  28.620  10.021
85888W        W49612  28.143   5.238  11.018
85889W        W49613  21.711  34.586  13.338
85890W        W49614  16.789  20.239  11.929
85891W        W49615  36.980  31.074   3.170
85892W        W49616  39.508  13.659   1.706
85893W        W49617  25.204  37.540  13.357
85894W        W49618  27.538  20.702  12.047
85895W        W49619   7.255  36.990  13.413
85896W        W49620  27.127  18.199  14.907
85897W        W49621  31.961  37.861  13.880
85898W        W49622  37.885  42.984  12.577
85899W        W49623  23.658   3.841   3.703
85900W        W49624  25.669  42.877   2.861
85901W        W49625  11.811  36.087   1.817
85902W        W49626  42.964  36.470  14.290
85903W        W49627  23.656  12.660  11.412
85904W        W49628  19.217  33.004   2.345
85905W        W49629  12.298   3.798  13.344
85906W        W49630  24.678  44.005   3.861
85907W        W49631  28.475  25.568   3.792
85908W        W49632  41.538   7.349   0.900
85909W        W49633  35.950  12.198   2.300
85910W        W49634  27.969  30.924   1.782
85911W        W49635  40.856   3.894  10.899
85912W        W49636  36.865  20.051  12.460
85913W        W49637  26.619   0.862   2.359
85914W        W49638   6.364   8.333   4.681
85915W        W49639  25.695  17.730   2.265
85916W        W49640  25.982  33.455   0.950
85917W        W49641   1.942  19.135   2.670
85918W        W49642  18.584  44.304   2.405
85919W        W49643  10.731  28.137   1.300
85920W        W49644  18.160  16.144  12.896
85921W        W49645  33.123  16.698  13.803
85922W        W49646  16.704  28.460  12.453
85923W        W49647  11.733  37.494  12.461
85924W        W49648  33.453  32.143  12.909
85925W        W49649  25.513  38.932   2.342
85926W        W49650  12.246  15.096   2.293
85927W        W49651  17.303  22.692  11.105
85928W        W49652  27.632  43.512   0.771
85929W        W49653  40.823  18.110  14.906
85930W        W49654   6.914  28.009   4.731
85931W        W49655  13.678  34.385  13.352
85932W        W49656  16.597  39.988   3.245
85933W        W49657  28.547  27.059   3.666
85934W        W49658   6.191  20.595   0.472
85935W        W49659  40.957   6.812  11.973
85936W        W49660  40.016  42.886   4.611
85937W        W49661  26.542   7.176   1.915
85938W        W49662  31.589  28.147   0.893
85939W        W49663  21.047   0.884  14.979
85940W        W49664  13.748   3.290  13.463
85941W        W49665  37.013  15.286  10.532
85942W        W49666  16.604  13.842   1.741
85943W        W49667  23.184  13.714  14.015
85944W        W49668  18.580   0.928  12.025
85945W        W49669   5.747   2.453   3.315
85946W        W49670  21.115  26.988  12.467
85947W        W49671  20.271   5.764   2.310
85948W        W49672  44.320  23.533   1.723
85949W        W49673  38.525  36.356  12.010
85950W        W49674   1.857  26.460  14.811
85951W        W49675  21.743  38.062  14.990
85952W        W49676  22.078  25.195  14.276
85953W        W49677  26.590  26.692   4.735
85954W        W49678  30.026  18.645   2.837
85955W        W49679   8.824  26.127  10.458
85956W        W49680  38.048  15.604  14.473
85957W        W49681   2.332  19.605   5.088
85958W        W49682  11.713   4.342  13.022
85959W        W49683  32.019   0.389  11.033
85960W        W49684  29.155  14.249   1.729
85961W        W49685   5.841  27.448   0.908
85962W        W49686  26.504  11.823   9.559
85963W        W49687  24.505  30.594   9.655
85964W        W49688  17.609  29.460  14.512
85965W        W49689   4.354  13.691  10.410
85966W        W49690  22.676   1.402  13.824
85967W        W49691  36.459  40.405  10.138
85968W        W49692  17.776  21.694  13.882
85969W        W49693  20.257  34.899   0.906
85970W        W49694  16.584  40.434  14.283
85971W        W49695  36.473  19.166  13.038
85972W        W49696  41.792  19.638  13.530
85973W        W49697   1.333  41.960  14.468
85974W        W49698  11.738  19.720   0.933
85975W        W49699  13.736  36.513  14.485
85976W        W49700  43.270  23.527   2.821
85977W        W49701  32.117  41.950   4.145
85978W        W49702   8.218  10.309  13.915
85979W        W49703  23.012  33.452   3.693
85980W        W49704  28.093   5.851  14.841
85981W        W49705  25.044  10.716   2.240
85982W        W49706  39.522  11.645  14.508
85983W        W49707  41.462  12.739  11.589
85984W        W49708   0.304  38.989  13.973
85985W        W49709  39.840  20.092  10.569
85986W        W49710  37.043  16.273   2.217
85987W        W49711  12.730  36.500  13.424
85988W        W49712  40.311  34.442   0.876
85989W        W49713  25.972  19.219   3.228
85990W        W49714   7.181   3.714   2.324
85991W        W49715  30.951   8.676  14.318
85992W        W49716  25.152  41.396   2.698
85993W        W49717  22.056  40.410   4.305
85994W        W49718  31.476  38.928   4.788
85995W        W49719  25.541  13.113   2.242
85996W        W49720  30.608  44.992   4.652
85997W        W49721  39.395  30.520   1.921
85998W        W49722  40.803   3.447   3.765
85999W        W49723  10.334  42.428  12.021
86000W        W49724  15.631  43.825  14.897
86001W        W49725  35.862  26.167  14.351
86002W        W49726  24.588  34.510   0.411
86003W        W49727  32.458  20.208  11.001
86004W        W49728  23.683  18.090  12.868
86005W        W49729  27.567  43.434  14.459
86006W        W49730  38.562  43.286   0.815
86007W        W49731  32.114  30.523   3.855
86008W        W49732  37.443  31.571  12.978
86009W        W49733  17.159  25.666   3.187
86010W        W49734  12.218  26.615   0.280
86011W        W49735   5.407  20.074   0.259
86012W        W49736  32.975   5.826   0.278
86013W        W49737  25.016  11.846   5.125
86014W        W49738  15.601  26.622   2.792
86015W        W49739   3.934  19.134  11.466
86016W        W49740  22.056  28.626  10.896
86017W        W49741   2.933  42.339   3.382
86018W        W49742  34.601   6.834  12.848
86019W        W49743  25.049  44.332  14.494
86020W        W49744  21.586  12.210   1.282
86021W        W49745  19.620  19.102  13.535
86022W        W49746   8.802  20.672   3.269
86023W        W49747  44.453  35.941   2.366
86024W        W49748  17.148  39.439  13.967
86025W        W49749  26.021  14.276  10.905
86026W        W49750  31.406   5.375  11.083
86027W        W49751  34.933   8.696   1.433
86028W        W49752  22.054  12.353   0.475
86029W        W49753  26.167  32.447  10.614
86030W        W49754   5.401  36.369  10.442
86031W        W49755  18.093  26.132  14.789
86032W        W49756  42.346  24.523   0.803
86033W        W49757   9.842  21.200   3.836
86034W        W49758  13.684  21.058   1.794
86035W        W49759  23.998  40.354  10.417
86036W        W49760  39.860  34.607   1.780
86037W        W49761  38.461  13.200  13.401
86038W        W49762  16.591   5.894  11.420
86039W        W49763  32.582  43.956   4.151
86040W        W49764  30.015  18.592  13.512
86041W        W49765  21.710  27.657  11.896
86042W        W49766  17.160  42.785  11.022
86043W        W49767  17.739  33.982  12.474
86044W        W49768  30.612  16.288  10.567
86045W        W49769  25.609  36.999  10.953
86046W        W49770  24.181   4.403  14.308
86047W        W49771  35.374  24.631   1.341
86048W        W49772   7.684  35.105  10.604
86049W        W49773  17.233  33.875   0.445
86050W        W49774   0.345  29.145   2.902
86051W        W49775   9.166   2.319   1.890
86052W        W49776  30.552  39.496  11.945
86053W        W49777  28.106  35.993   2.708
86054W        W49778  22.650  40.803   5.093
86055W        W49779  23.637  38.471  11.968
86056W        W49780  11.190  28.082  14.999
86057W        W49781  12.724  22.248  14.900
86058W        W49782  20.573   2.933   4.622
86059W        W49783  29.950  16.183  12.563
86060W        W49784  37.454  33.495   0.343
86061W        W49785  36.893  11.187   3.835
86062W        W49786  25.172   2.773  13.819
86063W        W49787  44.007  21.032   2.245
86064W        W49788  24.220  17.282  13.914
86065W        W49789  11.153  26.535  14.768
86066W        W49790   4.709  44.890  12.969
86067W        W49791  14.231   1.819  14.336
86068W        W49792  14.160  41.913  11.482
86069W        W49793   8.202   5.321   2.830
86070W        W49794  22.579  38.473  12.995
86071W        W49795  30.593  23.692  11.000
86072W        W49796  31.906  20.757  14.376
86073W        W49797  30.089  30.035   4.177
86074W        W49798   0.357   9.264   1.760
86075W        W49799  20.755  27.150   3.681
86076W        W49800   8.829  44.767   4.698
86077W        W49801  20.623  18.187   3.796
86078W        W49802  36.514   5.818  13.958
86079W        W49803  34.957  34.517  12.532
86080W        W49804   4.255  23.110   3.702
86081W        W49805  42.860  25.187  13.896
86082W        W49806  19.154  41.411   1.256
86083W        W49807  35.497  18.081  12.826
86084W        W49808   3.885  26.702  11.531
86085W        W49809   2.405  42.985  13.367
86086W        W49810  12.161  17.725  12.515
86087W        W49811  30.963  21.745  14.765
86088W        W49812  37.020  17.752  13.426
86089W        W49813  26.638  11.710   2.743
86090W        W49814   5.421  33.507   3.270
86091W        W49815   8.366  21.702   1.442
86092W        W49816  12.750  42.454   2.839
86093W        W49817   1.297  33.419  14.980
86094W        W49818  20.198   1.868  11.584
86095W        W49819  19.072  23.615  11.511
86096W        W49820   0.302  29.992  12.916
86097W        W49821   1.965  37.437   1.886
86098W        W49822  27.665  12.611   2.200
86099W        W49823  29.536  34.092   1.889
86100W        W49824  27.591  44.326   2.851
86101W        W49825  33.018  11.663  11.425
86102W        W49826   9.773  21.184  10.529
86103W        W49827  27.165  25.169  12.382
86104W        W49828  40.809   5.872  14.359
86105W        W49829  38.930  14.610  10.022
86106W        W49830  13.294  15.217   3.251
86107W        W49831  24.996  15.268   0.847
86108W        W49832  35.066   3.916  11.460
86109W        W49833  20.108  36.447   3.700
86110W        W49834  34.386   9.239  12.425
86111W        W49835  37.551   7.898   4.270
86112W        W49836  16.266  16.129   4.667
86113W        W49837   6.866  30.095   2.789
86114W        W49838  22.145   0.252  12.843
86115W        W49839   3.874  43.809  10.585
86116W        W49840   6.246  43.933  12.403
86117W        W49841   3.712  14.774  11.459
86118W        W49842  43.774  23.608   2.383
86119W        W49843  33.622  20.211  13.985
86120W        W49844  30.044  21.719   0.902
86121W        W49845  25.602  11.738   5.150
86122W        W49846  44.778   3.912   3.169
86123W        W49847  27.463  26.051   1.792
86124W        W49848  42.859  31.435   1.322
86125W        W49849  25.097  34.588  13.475
86126W        W49850  22.218  25.673   0.247
86127W        W49851  35.917  14.263   3.842
86128W        W49852  41.880  26.496  10.090
86129W        W49853  23.650  11.837  14.024
86130W        W49854   8.838  23.731   3.801
86131W        W49855  15.710  44.316  12.372
86132W        W49856  43.865  30.981   1.717
86133W        W49857  25.649   4.877   9.977
86134W        W49858   4.855  25.481  14.340
86135W        W49859  30.038  31.641  11.515
86136W        W49860  29.977  19.707   0.875
86137W        W49861  23.587  29.121  13.387
86138W        W49862  35.938  26.066  12.515
86139W        W49863  39.038  23.213   4.635
86140W        W49864   4.919  25.551  12.470
86141W        W49865  43.474   9.762  10.532
86142W        W49866  39.486  24.196   4.354
86143W        W49867  35.459  40.927   3.318
86144W        W49868  42.359   7.877  12.378
86145W        W49869  21.091   1.805  14.927
86146W        W49870  23.654   3.394  10.921
86147W        W49871  18.071  20.128   2.298
86148W        W49872  41.344  20.116   3.636
86149W        W49873   1.353  32.627  12.501
86150W        W49874  19.665  28.095   0.871
86151W        W49875  10.340  37.520   4.212
86152W        W49876  38.325  23.531  13.463
86153W        W49877  38.543   9.840   3.255
86154W        W49878  21.619  43.381   1.853
86155W        W49879  33.595  42.940   3.332
86156W        W49880   3.244  29.076  11.016
86157W        W49881  11.640  29.436   1.222
86158W        W49882  32.010  21.038   0.882
86159W        W49883  14.635  10.299  11.044
86160W        W49884  40.952  30.481   3.297
86161W        W49885  21.041  28.669  13.985
86162W        W49886  29.996  39.947  11.463
86163W        W49887  33.428  27.006  10.438
86164W        W49888   8.321   3.398   3.738
86165W        W49889  23.512  10.141   2.768
86166W        W49890  33.961  17.781   5.698
86167W        W49891  23.707   7.749   3.180
86168W        W49892  19.074  18.090   1.413
86169W        W49893   8.678  33.990   1.845
86170W        W49894  34.906   2.964  13.414
86171W        W49895  32.602  40.902   2.342
86172W        W49896   3.381  26.583   4.625
86173W        W49897  43.409  15.219  14.919
86174W        W49898  38.457  37.479  14.871
86175W        W49899   0.922  11.667  12.488
86176W        W49900   6.324   1.890   2.815
86177W        W49901  23.541  40.480   1.387
86178W        W49902  44.905  12.740  12.036
86179W        W49903   5.379   8.772   4.318
86180W        W49904  26.046  42.423   4.350
86181W        W49905  40.818   7.737   3.860
86182W        W49906   5.247   3.260  13.497
86183W        W49907  11.352  35.581   0.953
86184W        W49908  33.912   9.888  12.049
86185W        W49909   4.864  34.426   2.226
86186W        W49910   9.725  44.393   0.962
86187W        W49911  35.456  20.742  12.041
86188W        W49912  17.612  29.149  13.509
86189W        W49913  33.572  35.391   1.440
86190W        W49914   2.444  24.145  12.426
86191W        W49915  18.557  25.610  10.531
86192W        W49916   9.209  26.641   3.201
86193W        W49917  38.340  44.295   1.249
86194W        W49918   1.359   2.415  12.889
86195W        W49919  14.606  39.820  13.832
86196W        W49920  23.120  14.683   4.833
86197W        W49921  21.257  12.767   3.331
86198W        W49922   9.226  34.087  11.035
86199W        W49923  27.615  30.968  12.842
86200W        W49924  36.905   7.705   3.368
86201W        W49925  26.062  44.834  11.515
86202W        W49926   8.185  34.963   1.254
86203W        W49927  15.235  21.250  14.770
86204W        W49928  34.954  18.561   4.309
86205W        W49929  23.562  18.144  13.335
86206W        W49930  18.237  36.915  10.538
86207W        W49931   3.373   5.870  13.918
86208W        W49932   7.901  38.903  13.511
86209W        W49933  23.240  40.331   4.255
86210W        W49934  32.499  17.745   4.721
86211W        W49935  43.394   8.730   4.165
86212W        W49936  44.901  37.947   9.940
86213W        W49937  42.011  39.907  12.961
86214W        W49938  28.592  30.045   4.672
86215W        W49939   5.219  38.515   0.333
86216W        W49940  24.154  32.424  11.496
86217W        W49941  34.514  38.409  13.853
86218W        W49942  14.269  26.042  13.401
86219W        W49943   8.842   4.881  11.511
86220W        W49944  24.484  44.327   1.413
86221W        W49945  36.350  13.648   3.199
86222W        W49946   6.868   1.954   3.676
86223W        W49947  30.481  22.081   1.733
86224W        W49948  41.405   5.272  14.471
86225W        W49949   3.345   3.911  13.493
86226W        W49950  39.348  20.249  12.953
86227W        W49951  33.026  17.719  10.435
86228W        W49952  20.101  17.600   2.846
86229W        W49953  21.721   5.739   1.262
86230W        W49954  31.983  41.360   2.293
86231W        W49955  26.001  12.185   2.351
86232W        W49956  31.914  40.330  11.027
86233W        W49957   1.406  42.833  10.979
86234W        W49958  29.044  30.112  11.517
86235W        W49959   2.382  34.904   1.798
86236W        W49960  37.535   8.841   3.261
86237W        W49961  34.899   1.237  10.990
86238W        W49962  28.041   0.954   0.277
86239W        W49963   1.312  38.547  12.375
86240W        W49964  30.010  23.028  10.472
86241W        W49965  17.149  38.472   4.625
86242W        W49966  30.564   9.766   0.274
86243W        W49967  44.342  33.973  12.348
86244W        W49968  29.590   1.356   1.310
86245W        W49969  29.643  17.616  14.301
86246W        W49970  11.283  21.189  13.508
86247W        W49971  31.004  33.508  10.109
86248W        W49972  18.100  11.673   2.879
86249W        W49973   0.743   2.838   2.356
86250W        W49974  12.234  24.527  14.878
86251W        W49975  34.910   9.316  13.535
86252W        W49976  44.780  28.033  14.946
86253W        W49977  30.611  38.440   3.354
86254W        W49978  34.896  28.615  12.991
86255W        W49979  17.707  12.227   4.305
86256W        W49980  37.339  20.587  11.962
86257W        W49981  42.962  39.371   1.916
86258W        W49982   3.433   1.394   4.632
86259W        W49983  12.250   9.388  11.445
86260W        W49984  44.353   9.811   4.152
86261W        W49985   0.847  42.418   2.886
86262W        W49986  38.441  37.036   4.284
86263W        W49987  15.190  10.374   0.732
86264W        W49988  13.347  35.415  12.844
86265W        W49989  31.968   3.867  14.801
86266W        W49990  14.818   5.417  13.798
86267W        W49991  31.572   3.320  11.381
86268W        W49992  20.146  44.894   1.254
86269W        W49993  29.050  17.599   4.160
86270W        W49994  13.213  24.165   0.367
86271W        W49995   2.274  30.058  12.341
86272W        W49996  42.360  39.942   3.739
86273W        W49997  32.613  21.556  10.904
86274W        W49998  11.334  22.547   4.793
86275W        W49999  10.140  18.577  13.978
86276W        W50000  41.448  24.075   3.855
86277W        W50001  26.620  41.455   0.895
86278W        W50002  44.422  28.678  12.504
86279W        W50003  32.550  44.795  10.961
86280W        W50004  35.893   3.819   1.773
86281W        W50005  27.022  28.488  14.849
86282W        W50006  21.556  18.095   0.744
86283W        W50007  17.108  43.875   0.267
86284W        W50008  17.228   8.793  10.500
86285W        W50009  10.637  35.070   0.906
86286W        W50010  35.488   9.699   0.253
86287W        W50011   5.195  15.323  13.992
86288W        W50012   8.365   8.240   0.928
86289W        W50013  33.933  18.732  12.529
86290W        W50014   8.745   5.354  10.928
86291W        W50015  28.963  23.493   1.316
86292W        W50016  38.997  25.099  14.314
86293W        W50017  17.684  23.035  10.450
86294W        W50018   4.316  28.990  13.488
86295W        W50019  27.653  24.675   2.343
86296W        W50020   1.275  19.590  14.973
86297W        W50021  23.995  27.598   1.852
86298W        W50022  10.221  44.386  11.032
86299W        W50023   9.315  19.256  12.430
86300W        W50024  12.761   1.934   3.787
86301W        W50025   0.362   4.445  12.882
86302W        W50026  28.011  25.473  12.897
86303W        W50027   0.830  10.223   2.211
86304W        W50028   9.394  41.917  14.364
86305W        W50029  40.839  29.527   4.716
86306W        W50030  30.590  37.559  10.089
86307W        W50031  11.753  14.132   0.304
86308W        W50032  34.918  34.579  11.004
86309W        W50033  38.997  29.500   1.219
86310W        W50034  28.523  29.008   1.703
86311W        W50035   2.760   0.804  12.577
86312W        W50036  19.682  42.996  13.062
86313W        W50037  38.446  18.725   1.809
86314W        W50038  24.546  34.955  11.039
86315W        W50039  29.615   1.481  13.005
86316W        W50040  17.573   1.964   0.896
86317W        W50041  15.193  41.367  10.895
86318W        W50042  36.071  28.167  14.306
86319W        W50043  21.089  36.848   1.310
86320W        W50044   7.319  19.724  12.980
86321W        W50045  10.718   9.789   3.780
86322W        W50046   8.291  13.838  11.931
86323W        W50047  34.024  44.260  10.064
86324W        W50048   5.260  13.321   1.352
86325W        W50049  34.601  18.101  14.444
86326W        W50050   5.734  30.463   3.712
86327W        W50051  22.706   2.943  14.936
86328W        W50052  25.701  28.609  14.982
86329W        W50053   8.811  22.174   3.384
86330W        W50054  44.911   0.297   2.871
86331W        W50055  32.028  36.993   2.399
86332W        W50056  27.158   0.929   1.384
86333W        W50057  19.662  29.061  12.464
86334W        W50058  34.394  31.921   0.420
86335W        W50059   1.441  19.162   2.345
86336W        W50060   4.812  37.379   1.807
86337W        W50061  31.145  42.960   1.397
86338W        W50062  23.536   7.328   0.253
86339W        W50063   0.920  42.384   0.902
86340W        W50064  25.078  25.991  10.443
86341W        W50065  23.193   1.966   1.740
86342W        W50066  19.143  35.433   0.367
86343W        W50067  18.139  43.451   3.247
86344W        W50068  14.825  10.322  13.939
86345W        W50069  44.931   4.241  13.973
86346W        W50070  43.425  27.526   2.786
86347W        W50071  29.589  30.599   3.702
86348W        W50072   8.345  20.167  10.570
86349W        W50073  11.290  12.837  14.994
86350W        W50074   5.434  12.200   5.097
86351W        W50075   8.265  23.119  10.995
86352W        W50076  29.622  12.324  13.006
86353W        W50077  18.068   3.359   2.248
86354W        W50078   4.437  12.343  12.828
86355W        W50079  27.048  28.116  12.843
86356W        W50080  17.789  20.533  11.539
86357W        W50081  31.139  39.884   1.450
86358W        W50082  22.627  18.695   4.203
86359W        W50083  15.249  39.994  12.916
86360W        W50084   0.284  10.711   0.944
86361W        W50085  15.228  31.144   2.249
86362W        W50086  41.503   4.759   3.162
86363W        W50087   3.920   7.258   3.810
86364W        W50088  19.564  17.642  10.958
86365W        W50089   3.771  24.648   4.251
86366W        W50090  28.141  31.637  10.558
86367W        W50091  43.771  23.014  13.914
86368W        W50092  23.094  13.220   3.163
86369W        W50093  10.290  31.645   1.216
86370W        W50094  36.351   7.224   2.745
86371W        W50095  27.021  38.998   0.482
86372W        W50096  11.192  17.739  14.838
86373W        W50097  41.888  20.703  14.386
86374W        W50098  18.750   0.492  12.905
86375W        W50099  33.579  12.229   4.686
86376W        W50100  23.031  44.456  14.905
86377W        W50101  36.530  31.138  11.436
86378W        W50102   4.262  11.164  11.611
86379W        W50103   6.262  13.770   1.930
86380W        W50104   7.369   9.244  12.474
86381W        W50105   4.431  19.207   4.329
86382W        W50106  20.540  20.076   0.428
86383W        W50107  27.678  17.113  12.968
86384W        W50108  15.112  37.573   3.870
86385W        W50109  20.171  27.647  10.468
86386W        W50110  37.010  37.028  12.891
86387W        W50111  29.065   5.816   4.597
86388W        W50112   8.248  28.579   2.392
86389W        W50113   0.855  12.124  14.966
86390W        W50114  25.192  23.592  10.496
86391W        W50115  10.738  26.154   4.190
86392W        W50116  21.515  26.674   3.232
86393W        W50117  18.118  22.624   4.127
86394W        W50118   9.647  37.352  13.044
86395W        W50119  32.615  17.147  12.484
86396W        W50120  31.645  29.921  14.486
86397W        W50121  32.418  42.434   4.249
86398W        W50122  37.053  17.719   1.388
86399W        W50123  33.403  35.561  11.475
86400W        W50124   0.921  32.547  11.405
86401W        W50125  40.428  37.496   1.913
86402W        W50126  15.119   6.276   0.938
86403W        W50127  14.654   9.367   0.936
86404W        W50128  29.439   9.161  10.618
86405W        W50129   1.398   9.291  13.516
86406W        W50130  37.345  22.203   4.786
86407W        W50131  19.685   7.301   2.891
86408W        W50132  36.435  43.459  12.567
86409W        W50133  33.122   5.882   1.771
86410W        W50134   3.909  29.423  13.340
86411W        W50135   9.654  22.043  10.440
86412W        W50136  32.411  16.166   0.454
86413W        W50137   0.423  28.172   4.673
86414W        W50138  40.322  36.975   2.297
86415W        W50139  34.066  37.432  10.072
86416W        W50140  44.945  15.284   1.833
86417W        W50141  39.385   0.444   1.823
86418W        W50142   6.375  24.175  11.479
86419W        W50143  41.515  43.956  14.344
86420W        W50144  13.330  16.655  12.958
86421W        W50145  31.459  30.640  14.024
86422W        W50146   1.916  40.338   5.282
86423W        W50147  16.783  22.040  14.867
86424W        W50148  44.405  30.502  10.083
86425W        W50149   4.379  21.239  13.392
86426W        W50150  40.537  25.575   2.275
86427W        W50151  33.562  14.777   1.922
86428W        W50152  32.055  41.011  13.893
86429W        W50153   3.811  15.244  10.443
86430W        W50154  21.039  25.097  13.323
86431W        W50155   3.823  10.158   0.925
86432W        W50156  42.500  24.529  12.518
86433W        W50157  28.094  23.230  11.926
86434W        W50158   3.730   1.336   0.471
86435W        W50159  10.220  37.564  12.043
86436W        W50160   2.262  16.686  11.422
86437W        W50161  44.358  40.413  14.873
86438W        W50162  38.402  20.141  12.060
86439W        W50163  40.546  25.623   3.175
86440W        W50164   4.831  29.611  12.040
86441W        W50165  37.449  36.542   3.852
86442W        W50166  21.602  36.900  11.511
86443W        W50167  25.197  22.703   4.142
86444W        W50168  17.268  35.585  11.001
86445W        W50169  34.511  36.532   2.392
86446W        W50170  15.130  38.976   0.424
86447W        W50171   9.201  42.991   5.303
86448W        W50172  19.218  23.146  14.403
86449W        W50173  27.648   0.302   1.770
86450W        W50174  44.411  34.907   1.742
86451W        W50175  23.707  38.568   0.919
86452W        W50176  25.078  34.395  11.426
86453W        W50177  25.196  12.128   1.793
86454W        W50178  11.171  18.178  11.115
86455W        W50179  26.965  23.179   3.283
86456W        W50180   7.791  24.024  13.457
86457W        W50181  23.601  14.810   4.126
86458W        W50182   9.764  23.125   2.885
86459W        W50183   4.355  26.527   4.674
86460W        W50184   7.226   1.418  11.984
86461W        W50185  25.573  44.310   4.649
86462W        W50186  25.116  22.732   0.765
86463W        W50187  16.664  26.017  14.463
86464W        W50188  36.899  37.853   4.836
86465W        W50189  37.004  28.095   3.302
86466W        W50190  34.415  17.586  10.978
86467W        W50191  21.648  18.235  11.607
86468W        W50192  27.459   7.741   5.211
86469W        W50193   5.221  38.395   4.793
86470W        W50194  26.638   3.787   1.418
86471W        W50195   1.447  39.396  13.448
86472W        W50196  41.396  13.696   4.123
86473W        W50197   0.985  22.685   2.300
86474W        W50198  35.399  42.499  14.411
86475W        W50199  13.217  19.224   0.379
86476W        W50200  26.685  40.032   4.685
86477W        W50201  31.438  31.912   0.365
86478W        W50202  34.388  27.560  10.531
86479W        W50203  25.149  42.495   3.250
86480W        W50204  16.677  16.246  11.427
86481W        W50205  12.207  38.039  14.773
86482W        W50206  25.646  27.167  11.457
86483W        W50207  38.059  44.315   3.804
86484W        W50208   2.821  36.896  14.317
86485W        W50209  43.428  23.091   1.273
86486W        W50210  23.496  23.997  12.092
86487W        W50211  17.090  32.508  11.390
86488W        W50212  18.201   6.215  11.479
86489W        W50213  35.080  32.099   3.692
86490W        W50214  22.192  11.328  11.445
86491W        W50215  27.546  31.574  13.820
86492W        W50216  23.042  24.093  10.007
86493W        W50217  13.248  11.816  10.459
86494W        W50218  32.017  27.183  12.397
86495W        W50219   1.944  12.218  14.972
86496W        W50220  16.607  28.958   2.815
86497W        W50221  12.790  16.745   3.734
86498W        W50222  35.925  24.552   0.733
86499W        W50223   9.377  40.306   0.348
86500W        W50224  20.219  11.360  11.127
86501W        W50225  22.076  38.004  10.562
86502W        W50226  42.370  34.880  11.502
86503W        W50227   6.422  30.048   1.849
86504W        W50228  22.650  21.560  10.912
86505W        W50229  44.393   8.815  13.867
86506W        W50230  11.784  18.613  10.421
86507W        W50231  24.061  41.895  14.792
86508W        W50232  10.249   2.852   2.729
86509W        W50233   5.777  24.012   0.760
86510W        W50234  42.861  13.181  13.431
86511W        W50235  42.464  29.530  13.329
86512W        W50236  20.085  18.172   0.916
86513W        W50237  18.203  24.201   3.639
86514W        W50238  41.510  33.974   0.281
86515W        W50239  39.477   4.271  13.939
86516W        W50240  41.819   7.766   0.832
86517W        W50241  37.886  42.286  11.884
86518W        W50242  25.600   5.378  12.421
86519W        W50243   1.436  44.877   0.472
86520W        W50244  19.703  23.563   0.402
86521W        W50245  30.565  13.612   2.664
86522W        W50246  24.634   7.801   9.453
86523W        W50247   2.770  13.634   1.902
86524W        W50248   0.961   1.845  12.892
86525W        W50249  15.629   6.348   2.355
86526W        W50250  38.940  10.707   0.473
86527W        W50251  34.548   5.722   3.232
86528W        W50252   6.353   4.252  13.327
86529W        W50253  36.048   2.721  11.107
86530W        W50254  38.554  15.320  14.502
86531W        W50255  29.536  15.589  12.093
86532W        W50256   3.264  21.117  14.381
86533W        W50257  35.079  35.019  14.313
86534W        W50258   9.313  27.682  12.532
86535W        W50259   0.451   4.354   4.340
86536W        W50260   9.766  25.694   0.351
86537W        W50261  28.141  31.898   0.782
86538W        W50262   7.889  29.924   3.739
86539W        W50263  41.891  38.047   0.458
86540W        W50264  31.423  30.075  11.124
86541W        W50265  20.626  36.856  14.346
86542W        W50266  27.554  17.769   0.389
86543W        W50267  40.484  10.319  13.515
86544W        W50268  23.089  17.198   2.789
86545W        W50269  19.673   1.949  10.631
86546W        W50270  39.809   9.840  12.085
86547W        W50271  12.279  13.749   4.157
86548W        W50272  41.968  15.684   2.720
86549W        W50273  33.407  36.356   2.240
86550W        W50274  15.267  11.348  10.907
86551W        W50275  18.769  32.898   0.262
86552W        W50276  24.014  35.426  10.437
86553W        W50277  29.945  34.546  12.849
86554W        W50278  17.627   7.832  13.431
86555W        W50279  38.067  42.524  10.467
86556W        W50280  21.083  22.138   4.738
86557W        W50281  31.592  39.837  13.413
86558W        W50282  17.172   4.218   0.832
86559W        W50283  19.113  31.595   4.836
86560W        W50284  13.770  32.140  11.460
86561W        W50285  12.278   7.217  12.473
86562W        W50286   1.900  33.886  11.979
86563W        W50287  17.305  28.563   0.930
86564W        W50288   0.746  13.319   3.370
86565W        W50289  35.097   2.880   2.667
86566W        W50290   6.285  20.235  14.806
86567W        W50291  22.623  20.709  12.995
86568W        W50292  21.546  39.968  12.425
86569W        W50293  22.586   9.843   0.358
86570W        W50294   7.894  30.519   1.759
86571W        W50295  23.134  37.898  10.476
86572W        W50296   6.243  38.018  14.794
86573W        W50297  31.021  16.133   3.210
86574W        W50298  41.367  14.715   1.845
86575W        W50299  32.576  14.793  12.536
86576W        W50300  17.575   7.354   1.233
86577W        W50301   7.208   7.834   4.656
86578W        W50302   9.850  17.649  13.915
86579W        W50303  21.727   2.256  14.421
86580W        W50304  15.109  38.489  14.323
86581W        W50305  43.989  18.588  10.479
86582W        W50306  44.844  29.132  12.071
86583W        W50307  15.707  36.452   4.171
86584W        W50308  14.219  42.482  14.494
86585W        W50309  36.404   6.764  13.456
86586W        W50310  23.702  27.997  14.397
86587W        W50311  24.214  20.647  10.935
86588W        W50312  21.661  25.497  13.960
86589W        W50313  38.882  21.737   1.791
86590W        W50314  43.272   3.419   0.757
86591W        W50315  35.600  33.005  11.045
86592W        W50316  17.673  25.481   2.794
86593W        W50317  28.138  44.408   5.195
86594W        W50318  19.619  38.387  14.787
86595W        W50319  22.727  26.485  13.878
86596W        W50320  25.515  40.493   4.313
86597W        W50321  33.388  37.484  10.630
86598W        W50322  14.148  33.054  12.072
86599W        W50323  30.577  12.685  14.288
86600W        W50324  37.457  37.559  14.019
86601W        W50325  14.703   9.760   0.821
86602W        W50326  21.188  25.695  14.286
86603W        W50327  21.261  32.463   1.391
86604W        W50328  26.165  23.186  11.128
86605W        W50329  20.697  13.208   2.746
86606W        W50330  35.938  35.488   1.900
86607W        W50331  39.004  35.050  11.950
86608W        W50332  22.201  38.944  13.423
86609W        W50333  38.917  11.752   0.960
86610W        W50334  11.241  32.891   1.815
86611W        W50335  33.609   8.783  11.901
86612W        W50336  10.170   2.761  12.920
86613W        W50337  32.403  43.350   2.874
86614W        W50338  21.169  11.284   2.713
86615W        W50339   3.329  34.928   4.238
86616W        W50340  12.268  27.019  14.841
86617W        W50341  10.778   1.241  13.856
86618W        W50342  42.455   0.949   2.394
86619W        W50343  42.399  13.785   0.483
86620W        W50344  44.349  21.530   3.646
86621W        W50345   6.894  44.877  14.807
86622W        W50346  11.855  42.985  11.512
86623W        W50347  23.657  39.958  14.311
86624W        W50348   1.442  37.399   3.312
86625W        W50349  38.956   8.755  11.058
86626W        W50350  31.491   9.785   1.877
86627W        W50351  37.924  22.245   0.767
86628W        W50352  19.600  22.071   9.987
86629W        W50353  39.832  34.426   1.388
86630W        W50354   8.363  31.550   0.335
86631W        W50355  34.497  22.527   2.195
86632W        W50356  10.351  21.687  14.451
86633W        W50357  30.045  38.388   2.253
86634W        W50358   5.281  38.981  12.557
86635W        W50359  30.620   8.841   1.746
86636W        W50360   7.338  40.308  11.989
86637W        W50361  41.040  17.602  13.935
86638W        W50362  17.230  43.943  11.477
86639W        W50363  10.874  39.486  10.583
86640W        W50364   4.279  44.414   3.832
86641W        W50365  14.820  27.605  12.557
86642W        W50366  11.189  28.604  13.058
86643W        W50367  16.116  40.380   3.342
86644W        W50368  22.551  24.653  14.506
86645W        W50369  41.038   6.197   4.665
86646W        W50370   4.379   0.480   1.701
86647W        W50371   5.197  22.544   3.294
86648W        W50372  20.173  16.111   0.933
86649W        W50373  34.950  19.093  11.431
86650W        W50374   8.733   3.285   2.293
86651W        W50375   4.751  36.053  10.466
86652W        W50376   4.344  19.213  10.976
86653W        W50377  24.616  14.796  14.408
86654W        W50378  24.081  35.498  10.901
86655W        W50379  38.496  28.028   3.702
86656W        W50380   5.304   6.816   3.846
86657W        W50381  16.290  12.738  11.062
86658W        W50382  16.678  22.527   1.221
86659W        W50383   7.319   8.337   1.860
86660W        W50384  16.083   4.854  12.488
86661W        W50385  42.391   6.706   0.908
86662W        W50386   4.365  28.491   1.893
86663W        W50387  15.197  39.848  12.422
86664W        W50388   7.399   4.901   2.351
86665W        W50389  18.263  11.796   4.341
86666W        W50390  37.387   3.323  10.517
86667W        W50391  29.478  40.836   0.348
86668W        W50392  38.889  18.709  13.497
86669W        W50393  22.065  40.824  12.451
86670W        W50394  19.161  22.099   1.425
86671W        W50395  19.597   7.726   5.300
86672W        W50396  43.309  27.510   4.317
86673W        W50397  28.452  38.443  13.033
86674W        W50398  44.766  11.852   2.902
86675W        W50399  33.053  27.024   1.833
86676W        W50400  25.535  22.568   4.144
86677W        W50401  13.688  23.725  13.970
86678W        W50402  32.521  18.271  11.931
86679W        W50403  31.113  21.628  11.958
86680W        W50404   9.175  42.954   2.278
86681W        W50405  40.992  24.516   4.647
86682W        W50406  38.881  38.449   2.376
86683W        W50407  22.129  36.403   4.723
86684W        W50408  16.153  32.140  12.900
86685W        W50409  22.673  32.553  12.551
86686W        W50410   5.242  20.216   2.664
86687W        W50411  40.425  41.027  12.538
86688W        W50412   1.325   8.791   1.922
86689W        W50413  23.139  33.588  12.921
86690W        W50414   5.721   2.965  14.377
86691W        W50415  34.385  37.006  11.879
86692W        W50416   8.733  26.126  12.569
86693W        W50417  29.057  34.394  11.513
86694W        W50418   8.184  40.857  14.465
86695W        W50419  29.626  30.114  11.020
86696W        W50420   3.766  24.676  12.456
86697W        W50421  17.146   7.671  11.026
86698W        W50422  14.185   2.423  13.019
86699W        W50423  30.564  44.859  10.420
86700W        W50424  40.395  25.513  12.484
86701W        W50425  22.055  33.083  11.372
86702W        W50426  38.539  14.799   0.382
86703W        W50427  44.843  32.421   4.740
86704W        W50428   7.801  40.543   1.782
86705W        W50429  15.771  16.804   1.376
86706W        W50430  33.609   3.847   0.738
86707W        W50431  27.541  25.555  13.892
86708W        W50432  26.579  29.995  14.933
86709W        W50433  30.052  26.143  11.009
86710W        W50434  25.588  25.489  13.953
86711W        W50435  40.455   8.352  14.868
86712W        W50436  31.406  13.835   2.703
86713W        W50437   9.779  44.264   3.826
86714W        W50438  32.463  38.028   2.392
86715W        W50439  25.052  39.864   4.833
86716W        W50440   0.905  25.118  14.807
86717W        W50441  35.986  37.388   3.180
86718W        W50442  15.782  15.084  13.044
86719W        W50443  19.040  30.994  12.461
86720W        W50444   1.332   3.325  11.535
86721W        W50445  21.551  31.949  11.921
86722W        W50446  15.311  35.912   3.180
86723W        W50447  32.625   9.691  14.486
86724W        W50448  22.239   6.266  10.425
86725W        W50449   3.931   5.311   4.828
86726W        W50450  11.767  16.620   0.943
86727W        W50451   2.298  20.055  11.512
86728W        W50452  20.042  14.753  13.546
86729W        W50453  12.172   9.819  12.371
86730W        W50454  40.868  30.920  13.520
86731W        W50455  40.877  16.718   3.742
86732W        W50456   2.440  18.585  12.519
86733W        W50457   3.713   0.791  10.155
86734W        W50458   2.291  23.666   2.812
86735W        W50459  24.206  10.321   4.266
86736W        W50460  19.222   1.960  10.976
86737W        W50461  12.833  40.520  14.809
86738W        W50462  36.014  31.929  13.978
86739W        W50463  40.894  25.594  10.557
86740W        W50464   9.377  31.513  12.361
86741W        W50465  27.096  13.772  13.385
86742W        W50466  12.144  10.667  12.003
86743W        W50467  37.899  32.974  14.031
86744W        W50468  40.386  37.417   3.815
86745W        W50469   6.682  43.369  11.092
86746W        W50470  12.769  11.861   0.391
86747W        W50471  29.476  22.030  12.895
86748W        W50472  21.712  28.044   3.870
86749W        W50473   1.903  34.453  12.945
86750W        W50474  14.121  26.656   4.803
86751W        W50475  35.980  31.475   3.203
86752W        W50476  40.982  27.025   1.800
86753W        W50477  36.063  12.799  14.859
86754W        W50478  24.202  42.962  10.892
86755W        W50479  28.134  22.659   0.904
86756W        W50480   4.413  37.557   2.289
86757W        W50481  14.307  42.470   3.853
86758W        W50482  33.007   6.262  13.462
86759W        W50483  35.589  22.098  12.022
86760W        W50484  24.071  41.826   0.267
86761W        W50485  14.808  32.622   0.845
86762W        W50486  22.228  15.696   1.799
86763W        W50487  35.448  40.003  12.497
86764W        W50488  16.710  33.106   4.724
86765W        W50489  14.719  43.515  10.951
86766W        W50490  40.904  38.846  14.902
86767W        W50491   6.846   1.441  14.895
86768W        W50492  14.218  10.205   1.448
86769W        W50493  29.082  29.669   1.262
86770W        W50494  23.082   4.798   3.740
86771W        W50495  37.445   3.917  12.029
86772W        W50496  25.608  23.205  14.775
86773W        W50497  35.943  30.131   1.772
86774W        W50498  12.292  29.931  10.903
86775W        W50499  28.628  28.571   4.263
86776W        W50500  34.948  33.472   4.698
86777W        W50501   9.240   8.656   0.260
86778W        W50502  30.414   3.892   4.699
86779W        W50503  36.089   4.938  11.402
86780W        W50504  10.138   3.757   2.693
86781W        W50505   4.944  11.729   3.167
86782W        W50506   4.236  25.573   4.783
86783W        W50507  35.570  11.302  12.885
86784W        W50508   1.873  23.508  10.406
86785W        W50509  40.533  12.857   1.407
86786W        W50510  19.543  33.091   3.670
86787W        W50511   1.974  40.423  12.097
86788W        W50512  37.578  31.414   2.669
86789W        W50513  16.729  35.583   3.364
86790W        W50514  37.992  21.161   3.757
86791W        W50515  36.908  10.361   2.689
86792W        W50516  26.182  10.377   1.237
86793W        W50517  28.031  38.504   2.252
86794W        W50518   8.789  33.471  11.956
86795W        W50519  17.294  35.977  12.967
86796W        W50520   8.865  27.105  10.943
86797W        W50521  23.050   4.757   4.137
86798W        W50522   9.272  43.009   2.758
86799W        W50523  38.549   7.184   1.835
86800W        W50524  17.765  26.953   3.786
86801W        W50525  32.410  17.654   3.318
86802W        W50526  30.937  34.063   1.703
86803W        W50527  26.138  10.320  12.054
86804W        W50528  26.491  44.371  10.580
86805W        W50529  36.368  21.642   2.370
86806W        W50530  44.489  26.989   3.650
86807W        W50531  17.300  17.697   2.788
86808W        W50532  33.530  17.306  13.504
86809W        W50533   9.302  37.412  12.536
86810W        W50534   5.809  25.117   3.708
86811W        W50535  42.822   0.343   1.309
86812W        W50536   8.757  42.330  13.397
86813W        W50537  39.320   0.492   9.597
86814W        W50538  18.649  21.630   0.864
86815W        W50539  37.373  14.642  14.368
86816W        W50540  43.768  32.419  12.009
86817W        W50541   4.708  44.408   1.318
86818W        W50542  10.706  15.617   3.666
86819W        W50543   2.942  17.580  12.465
86820W        W50544  10.377   9.741   0.440
86821W        W50545   2.950  34.558   1.880
86822W        W50546  14.815   9.858   2.762
86823W        W50547  10.193   9.704  10.524
86824W        W50548   1.317  12.133   2.304
86825W        W50549  37.492   3.382   2.307
86826W        W50550  30.945  28.176  13.518
86827W        W50551   8.306  18.731  13.489
86828W        W50552   9.711  37.568   5.097
86829W        W50553  13.600  13.337   0.832
86830W        W50554  43.924  37.924   0.835
86831W        W50555  37.856  44.934  14.955
86832W        W50556   6.852  13.729   0.390
86833W        W50557  26.193  41.920   3.358
86834W        W50558  29.467  42.492  10.948
86835W        W50559   2.320   0.806   2.728
86836W        W50560  26.556  19.563   9.977
86837W        W50561  20.650  31.632  13.467
86838W        W50562  34.382  24.551  13.833
86839W        W50563  17.097  18.074  12.536
86840W        W50564  34.581  40.311  11.105
86841W        W50565   7.741  35.958  13.498
86842W        W50566  24.523  37.016  14.425
86843W        W50567  42.309   0.284  11.400
86844W        W50568  12.173  44.333   3.359
86845W        W50569  28.978  15.319   1.433
86846W        W50570  13.837  28.121  13.453
86847W        W50571   8.352  44.984  14.786
86848W        W50572   0.356  31.013   2.315
86849W        W50573  28.589  40.510  13.959
86850W        W50574  14.203   0.933  12.934
86851W        W50575   5.399  11.240   4.629
86852W        W50576   7.691   5.896   3.807
86853W        W50577  19.234  17.714   1.715
86854W        W50578  17.259  19.225   1.841
86855W        W50579  25.638  19.135   1.412
86856W        W50580  19.230   8.356  11.963
86857W        W50581   8.390  43.513   2.836
86858W        W50582  44.936  40.533  11.862
86859W        W50583  40.330  37.861   1.859
86860W        W50584  10.790  22.541   3.285
86861W        W50585  44.346  25.551   2.851
86862W        W50586  33.391   1.461  11.922
86863W        W50587  27.690  19.186  11.901
86864W        W50588  31.471  30.503  13.421
86865W        W50589  40.854   0.907   2.356
86866W        W50590   9.700   4.329   2.851
86867W        W50591  13.227  25.552   0.339
86868W        W50592  16.705  40.827   0.245
86869W        W50593  38.348  30.489   0.796
86870W        W50594   0.858   6.823  11.951
86871W        W50595   5.375   3.414  12.051
86872W        W50596  28.611  37.048  10.599
86873W        W50597   8.364  40.458  14.279
86874W        W50598  33.517  21.725  11.008
86875W        W50599   0.936  15.092  11.897
86876W        W50600   7.220   9.647   0.479
86877W        W50601  17.136  31.945   0.283
86878W        W50602  15.755  13.819   0.344
86879W        W50603  23.511  32.115   9.945
86880W        W50604   8.314   0.308   4.140
86881W        W50605  11.798  38.055   2.893
86882W        W50606  25.985  40.812  14.803
86883W        W50607  11.142   6.786  14.032
86884W        W50608   4.734   9.644  12.893
86885W        W50609  33.517  21.018   5.090
86886W        W50610  42.385  27.040  14.331
86887W        W50611   5.387   3.331   3.832
86888W        W50612  38.928  41.477  14.298
86889W        W50613  11.792  11.783  13.018
86890W        W50614  40.310  44.390   0.277
86891W        W50615  24.135  22.569   5.225
86892W        W50616   8.761  34.890   4.155
86893W        W50617  43.379  20.676   3.773
86894W        W50618   6.379  17.565  11.536
86895W        W50619  19.641  24.696  14.949
86896W        W50620  15.199  26.625  11.972
86897W        W50621   6.715  29.455   1.895
86898W        W50622  31.999  30.120   2.880
86899W        W50623  36.023   4.406  11.531
86900W        W50624  42.444   3.949  11.896
86901W        W50625  12.617  27.613  11.917
86902W        W50626  44.398  12.176   0.847
86903W        W50627  29.071  27.662  14.284
86904W        W50628   8.224  31.093  13.464
86905W        W50629  41.904   8.795  12.444
86906W        W50630  35.073   0.915  10.559
86907W        W50631  19.261   7.309  14.358
86908W        W50632   9.305  25.130  12.420
86909W        W50633  41.010  28.629  13.442
86910W        W50634  15.123  20.203  12.834
86911W        W50635   9.183  32.566   1.332
86912W        W50636   1.787  28.503  10.927
86913W        W50637  34.960  42.291  13.873
86914W        W50638  19.198  18.732  11.567
86915W        W50639  29.511  16.156   2.884
86916W        W50640  18.263  32.143  14.506
86917W        W50641  35.362   8.835  11.942
86918W        W50642  13.820  10.674   4.194
86919W        W50643  42.016  37.402   3.355
86920W        W50644  24.539  36.350   0.288
86921W        W50645   9.177  34.002   4.185
86922W        W50646  14.256  38.342  11.863
86923W        W50647  24.480  40.425   4.149
86924W        W50648  21.684  26.042   3.338
86925W        W50649  38.417   6.743  13.031
86926W        W50650  37.906  31.492   3.795
86927W        W50651  32.046  16.250   2.307
86928W        W50652  24.037  38.389   5.218
86929W        W50653  25.999   5.804   4.207
86930W        W50654  19.541   8.848  11.062
86931W        W50655   0.310  35.967   2.188
86932W        W50656  14.165  34.002  14.402
86933W        W50657  44.937  29.080   4.728
86934W        W50658  10.220  10.853  11.868
86935W        W50659  12.270  36.958   1.818
86936W        W50660   5.281   0.913   3.649
86937W        W50661   1.339   2.814  11.381
86938W        W50662  41.347  19.596  13.444
86939W        W50663  28.155  29.169   1.904
86940W        W50664   8.315  38.896  10.896
86941W        W50665   1.240  16.626   2.766
86942W        W50666  27.666  40.831  13.863
86943W        W50667  12.749  12.225  11.532
86944W        W50668  25.514  32.454   2.875
86945W        W50669  34.384  42.330  11.531
86946W        W50670   0.786  33.615   2.248
86947W        W50671  41.852  20.588  14.812
86948W        W50672  39.395  19.718  12.550
86949W        W50673  15.318  35.062  12.542
86950W        W50674  10.336   4.790   2.665
86951W        W50675  12.697  43.999  12.486
86952W        W50676   2.823  40.347   3.773
86953W        W50677  18.595  42.880  14.978
86954W        W50678   5.746  37.074   4.783
86955W        W50679   4.431   4.320   0.455
86956W        W50680  40.876  16.596  10.453
86957W        W50681  26.497  23.652  11.606
86958W        W50682  19.232  20.634   4.794
86959W        W50683  33.428  28.079  11.870
86960W        W50684  23.523  23.179  12.057
86961W        W50685   8.821   2.800   0.813
86962W        W50686  43.974  41.390   2.360
86963W        W50687   9.383   1.437  10.441
86964W        W50688  19.228  16.696   5.215
86965W        W50689  37.525  36.536  11.371
86966W        W50690  11.243  25.561   4.197
86967W        W50691  21.246  13.130   5.308
86968W        W50692  29.025  38.923  11.937
86969W        W50693  27.109  12.743  11.457
86970W        W50694  30.572   2.426  13.366
86971W        W50695   6.288   8.318  12.955
86972W        W50696  25.603   3.779   3.695
86973W        W50697   0.440  19.089   4.332
86974W        W50698  33.587  41.809   3.256
86975W        W50699  15.219   2.241  10.013
86976W        W50700  13.295   2.833  11.461
86977W        W50701   7.401  15.684   3.651
86978W        W50702  44.378  33.577   5.136
86979W        W50703   0.315  26.687   3.271
86980W        W50704   6.786  23.548  12.381
86981W        W50705   2.227  44.298   2.767
86982W        W50706  25.191  18.634   5.306
86983W        W50707  33.541  28.550   1.792
86984W        W50708  29.622  23.225  14.840
86985W        W50709  16.580  37.986   0.411
86986W        W50710  11.751   6.867  13.526
86987W        W50711  10.239  38.993   4.818
86988W        W50712  32.414   4.728  12.934
86989W        W50713  43.819  21.625   9.467
86990W        W50714  44.294   2.761   3.319
86991W        W50715  14.617  36.026   0.272
86992W        W50716  11.811  28.085  13.809
86993W        W50717  12.808   9.192   4.688
86994W        W50718  23.517   6.199   0.332
86995W        W50719   5.701  39.497  14.785
86996W        W50720  26.975   3.279  14.286
86997W        W50721  13.824  11.140   2.387
86998W        W50722   3.223  43.344   0.305
86999W        W50723   4.778  15.821  12.556
87000W        W50724  27.043  33.582   0.770
87001W        W50725  19.085  31.937  11.543
87002W        W50726  22.527   6.196   0.260
87003W        W50727  19.591  34.032   4.800
87004W        W50728  14.593  33.404  13.832
87005W        W50729  14.762   3.943  10.065
87006W        W50730  19.182  41.489  13.439
87007W        W50731  13.684  38.920  14.410
87008W        W50732  25.559  18.244   4.350
87009W        W50733  16.244  39.813   4.751
87010W        W50734  25.069  22.557  12.847
87011W        W50735   5.809  37.915   1.748
87012W        W50736  26.015   3.724  12.559
87013W        W50737  44.973  20.684   0.304
87014W        W50738   3.363  27.463  13.390
87015W        W50739  21.177  19.140   2.195
87016W        W50740   7.272  13.691   4.617
87017W        W50741  42.819   0.758  12.524
87018W        W50742  44.941  41.967   2.358
87019W        W50743   5.922  17.761   2.701
87020W        W50744  25.011   0.389  10.525
87021W        W50745  26.673  37.001   0.946
87022W        W50746  40.363  41.314  12.856
87023W        W50747  42.011  36.076   4.141
87024W        W50748  34.078   5.387   4.344
87025W        W50749  10.679  30.113  12.016
87026W        W50750  12.797  26.162  13.447
87027W        W50751  44.284  44.852   0.773
87028W        W50752  44.281  24.611   4.323
87029W        W50753  35.931  34.938   0.281
87030W        W50754  19.694  10.160   1.268
87031W        W50755  23.126  13.635  12.442
87032W        W50756  23.100  13.332   4.833
87033W        W50757  25.031  30.477  11.920
87034W        W50758  20.566   5.276  12.501
87035W        W50759  43.824   7.263   4.261
87036W        W50760   1.311   4.312   1.294
87037W        W50761  22.088  43.409   1.276
87038W        W50762  17.161  30.937   2.810
87039W        W50763   2.305  40.367  11.399
87040W        W50764  11.757  26.991   2.799
87041W        W50765  31.008  14.318  10.122
87042W        W50766  40.854   0.859   1.781
87043W        W50767  37.526  17.184  11.502
87044W        W50768   8.893  35.890   2.221
87045W        W50769   8.186   9.248  13.376
87046W        W50770  26.132  37.477  11.379
87047W        W50771  12.175  14.236  14.013
87048W        W50772   6.711   9.165   4.215
87049W        W50773  38.068   9.700   3.647
87050W        W50774  17.687   2.435   0.823
87051W        W50775   5.309  24.974  10.455
87052W        W50776  26.101   6.300   2.881
87053W        W50777  25.614   7.239  11.406
87054W        W50778  10.818   4.922  12.396
87055W        W50779  25.118   9.696  11.042
87056W        W50780  24.599  30.062   4.337
87057W        W50781   7.776  34.052   0.290
87058W        W50782  12.845  20.654  13.794
87059W        W50783  38.441  16.185  11.004
87060W        W50784  30.571   5.316  12.577
87061W        W50785  25.681  29.987   3.348
87062W        W50786  17.257  14.271  10.455
87063W        W50787  11.663   6.723  10.550
87064W        W50788  27.666  39.474   4.637
87065W        W50789  19.063   2.782   0.926
87066W        W50790  41.901   0.765   1.436
87067W        W50791  16.144  29.111  12.386
87068W        W50792  23.054  33.437  12.514
87069W        W50793   1.805  41.401   3.795
87070W        W50794  11.785  38.858   1.244
87071W        W50795  35.374  27.513  12.951
87072W        W50796  35.907  42.876   4.751
87073W        W50797  22.557  18.791   3.185
87074W        W50798   7.666  34.086   2.700
87075W        W50799   8.723  31.599  13.006
87076W        W50800  10.723  21.031  13.534
87077W        W50801   6.228   2.438   1.225
87078W        W50802  40.472  11.346  13.829
87079W        W50803  17.141  28.081  14.458
87080W        W50804  40.005  36.900   1.708
87081W        W50805  23.048  42.461   1.828
87082W        W50806  18.701  10.188  10.407
87083W        W50807  18.561  41.798  10.962
87084W        W50808  41.919  11.263   4.706
87085W        W50809  39.934   9.308  13.981
87086W        W50810   0.325  29.596   2.694
87087W        W50811   7.264  14.686   0.922
87088W        W50812  29.436  17.253  11.861
87089W        W50813  25.583  29.524   4.183
87090W        W50814   1.790  30.118   3.804
87091W        W50815   4.898  41.870  13.865
87092W        W50816  13.810  30.943  10.472
87093W        W50817  14.243  12.173  10.550
87094W        W50818   6.371   1.924  14.298
87095W        W50819  14.135   5.917  10.930
87096W        W50820  26.192  41.972  12.443
87097W        W50821  15.805  27.168  11.496
87098W        W50822  28.655  10.261   3.352
87099W        W50823  16.592  37.051   1.884
87100W        W50824  20.687  27.671  10.443
87101W        W50825  13.805   1.478  13.389
87102W        W50826  43.911  17.066   0.805
87103W        W50827  42.983   5.803  13.420
87104W        W50828  44.900  42.820  13.401
87105W        W50829  26.610  10.633  10.467
87106W        W50830  27.068  11.268  14.943
87107W        W50831  43.882  44.768  13.396
87108W        W50832  24.031  11.231   0.822
87109W        W50833  24.185  42.312   0.743
87110W        W50834   3.930  15.193  10.959
87111W        W50835  20.531  26.491  13.983
87112W        W50836   2.949   2.764  14.990
87113W        W50837  34.883  42.936   5.264
87114W        W50838  42.967   1.791   0.806
87115W        W50839  37.543  39.849  14.471
87116W        W50840   9.735  14.196   3.745
87117W        W50841  27.195  41.382   5.090
87118W        W50842  35.914  44.453   5.235
87119W        W50843  39.846  44.442   0.294
87120W        W50844  40.864  10.859  14.759
87121W        W50845   8.791   9.251  14.928
87122W        W50846   9.300  33.023   1.800
87123W        W50847  30.969  17.707  14.968
87124W        W50848  23.585  16.749  13.544
87125W        W50849  26.985   3.447   5.161
87126W        W50850   6.874  26.027   3.645
87127W        W50851   4.346  30.497  11.112
87128W        W50852  20.574  35.515  13.397
87129W        W50853  21.706   0.393  12.850
87130W        W50854  16.314  30.614  11.586
87131W        W50855   1.460   3.268  12.899
87132W        W50856  37.942  26.010  13.321
87133W        W50857  27.456  18.070  11.461
87134W        W50858  27.469   5.734  14.967
87135W        W50859  15.629   2.941   1.734
87136W        W50860  32.031  35.448  11.978
87137W        W50861   2.265   2.369   2.760
87138W        W50862  10.865  28.181   2.258
87139W        W50863  15.685  37.912  14.510
87140W        W50864  32.616  16.308   2.681
87141W        W50865  44.276  38.544  11.500
87142W        W50866  18.695  22.532  11.957
87143W        W50867  31.048   3.414  11.996
87144W        W50868   3.289  24.195   5.237
87145W        W50869   2.953   6.283  13.443
87146W        W50870  25.098  38.045  10.924
87147W        W50871  17.592  19.119   0.869
87148W        W50872  14.126   0.914  12.362
87149W        W50873  37.985  39.063  13.924
87150W        W50874   9.837  16.173   1.819
87151W        W50875  26.165   5.770  10.889
87152W        W50876  10.646  29.562  12.475
87153W        W50877  43.346   5.926   4.782
87154W        W50878  19.719   7.306  11.042
87155W        W50879   9.818   4.267   4.203
87156W        W50880  10.790  36.037   0.265
87157W        W50881  18.602  18.686  11.458
87158W        W50882  13.310  32.477  13.925
87159W        W50883  15.745   3.338  14.360
87160W        W50884  34.026  25.204  12.010
87161W        W50885  34.571  28.076   3.860
87162W        W50886  31.545   6.355  14.946
87163W        W50887  13.304   5.747  11.129
87164W        W50888  33.539  31.635   3.378
87165W        W50889   6.864   9.645  14.032
87166W        W50890   0.412  29.625  11.609
87167W        W50891  28.646  11.709  11.091
87168W        W50892   8.766   9.318  13.436
87169W        W50893  19.148  24.488  11.584
87170W        W50894  16.110  43.307   4.625
87171W        W50895  13.713  25.711  10.947
87172W        W50896  35.572  15.788   3.294
87173W        W50897  43.992  42.387  10.632
87174W        W50898  15.120  14.302  13.793
87175W        W50899  14.713  33.958   0.343
87176W        W50900   4.425  33.939  10.514
87177W        W50901  13.233   1.261   0.753
87178W        W50902   3.718  25.598   3.817
87179W        W50903  16.607   1.363   1.910
87180W        W50904  14.111  16.615  13.526
87181W        W50905   0.414   5.800   0.320
87182W        W50906   4.861  25.067  10.575
87183W        W50907  12.307  22.048   0.806
87184W        W50908  25.485   6.317  11.551
87185W        W50909  18.666  19.137  11.018
87186W        W50910   4.862  37.967  12.031
87187W        W50911  20.577  30.415  13.545
87188W        W50912  12.742  15.679  13.506
87189W        W50913   8.733  41.353  13.493
87190W        W50914  40.428  29.172  13.978
87191W        W50915  36.038   5.233  12.419
87192W        W50916  36.856  36.411   4.731
87193W        W50917   6.693   9.729   5.128
87194W        W50918   5.882  38.398  12.959
87195W        W50919  10.854   4.372  13.008
87196W        W50920  30.959  26.106   4.190
87197W        W50921  37.551  22.236  11.880
87198W        W50922  40.304  19.231  12.417
87199W        W50923  19.572  15.315   1.374
87200W        W50924   4.357  22.058   2.855
87201W        W50925  21.195   0.854   5.295
87202W        W50926  36.855  11.236  13.967
87203W        W50927   4.353   6.793  13.540
87204W        W50928   4.303   3.810  13.978
87205W        W50929  39.529  13.674   0.776
87206W        W50930  23.590   2.825   4.682
87207W        W50931  38.834  44.958  14.864
87208W        W50932  16.119  38.343  10.466
87209W        W50933  42.438  24.533   5.270
87210W        W50934  25.153  36.494   5.298
87211W        W50935  10.304  38.543  12.051
87212W        W50936  13.838  40.945  10.912
87213W        W50937  40.382  42.441  11.471
87214W        W50938   9.879  13.176   5.276
87215W        W50939   8.725  39.399   1.896
87216W        W50940  15.268  26.099   4.144
87217W        W50941  32.046  41.510  14.951
87218W        W50942   6.420  38.842   5.246
87219W        W50943  42.795   0.430   3.305
87220W        W50944  43.011  20.034   0.247
87221W        W50945  40.965  26.107   4.778
87222W        W50946  22.588   7.906  14.944
87223W        W50947  20.046  22.017  14.309
87224W        W50948  29.062  34.873   3.743
87225W        W50949  18.242   1.831   3.712
87226W        W50950   6.854   6.267   3.156
87227W        W50951  23.087  41.950  14.295
87228W        W50952  18.711   4.432  14.457
87229W        W50953  23.027  31.946   0.759
87230W        W50954  15.157   4.406   3.308
87231W        W50955  16.120  20.526   0.251
87232W        W50956   4.817  25.470  10.405
87233W        W50957  34.103  40.419   4.616
87234W        W50958  30.102   9.738   9.438
87235W        W50959  17.221  18.067  10.067
87236W        W50960  34.112  42.848  12.868
87237W        W50961  10.254  43.365  11.525
87238W        W50962   3.842  44.979  12.035
87239W        W50963  35.899  15.270  10.630
87240W        W50964   2.245  33.059   1.361
87241W        W50965  30.122   1.319   2.744
87242W        W50966  34.507   0.277  11.471
87243W        W50967  43.503  27.664   2.408
87244W        W50968  33.876  19.634   0.804
87245W        W50969  39.062  42.867   4.240
87246W        W50970  39.932  35.469  13.048
87247W        W50971  37.452  15.688   4.123
87248W        W50972  11.165   9.389  14.349
87249W        W50973   9.235  35.949  11.512
87250W        W50974  38.971  14.236  10.889
87251W        W50975  43.848  22.640  14.941
87252W        W50976  37.932  28.929  14.930
87253W        W50977  14.682  32.054   2.689
87254W        W50978   6.790   8.369   4.632
87255W        W50979   8.356  19.653   0.928
87256W        W50980   6.206  33.078   2.741
87257W        W50981  42.879   5.934   2.850
87258W        W50982  32.917  44.402  13.881
87259W        W50983   9.355  27.069   1.815
87260W        W50984  35.983   8.292  12.990
87261W        W50985  43.991   5.250   2.188
87262W        W50986   4.782  18.754  11.016
87263W        W50987  37.914  29.160  12.950
87264W        W50988  42.887  17.702  11.605
87265W        W50989   6.378   0.481   0.872
87266W        W50990  11.745  23.545   9.984
87267W        W50991  34.425  26.180  14.390
87268W        W50992  19.241   5.227  14.307
87269W        W50993   9.714   0.375   0.408
87270W        W50994  13.785  11.181  11.499
87271W        W50995  22.044   0.909  13.036
87272W        W50996  32.977   3.794   1.872
87273W        W50997  10.686  19.235  13.547
87274W        W50998  28.669  18.553   4.172
87275W        W50999   7.214  35.495   2.662
87276W        W51000  23.125  33.586   0.378
87277W        W51001  27.029  26.090  14.374
87278W        W51002  39.955  30.437  14.330
87279W        W51003  37.345  44.841   3.321
87280W        W51004  38.422  24.519  13.456
87281W        W51005  35.057  23.178   4.754
87282W        W51006  18.772  34.489  13.494
87283W        W51007   0.895  25.012  11.419
87284W        W51008  23.184  29.139  11.053
87285W        W51009   1.321  19.700   4.799
87286W        W51010  35.069  25.071  14.467
87287W        W51011  13.774  36.452  13.504
87288W        W51012   0.976   1.775  10.116
87289W        W51013  10.718  19.081  11.558
87290W        W51014  40.478  29.508  12.967
87291W        W51015  25.649  27.523   4.624
87292W        W51016  30.559  37.001   0.931
87293W        W51017  40.547  27.591  11.455
87294W        W51018  34.012  18.695  12.884
87295W        W51019   0.745   1.817  14.862
87296W        W51020  14.645  30.098   0.445
87297W        W51021  11.275   8.377   2.797
87298W        W51022  34.602   3.928   1.295
87299W        W51023  28.929  27.193   3.337
87300W        W51024  15.107  31.049   4.768
87301W        W51025  18.634  26.053  13.026
87302W        W51026  37.035   3.778   4.785
87303W        W51027  33.037  31.023  11.410
87304W        W51028  32.033  33.449   0.822
87305W        W51029   9.771  37.377  11.115
87306W        W51030  28.586  17.280   1.286
87307W        W51031  32.065  39.809   3.848
87308W        W51032  12.772   1.338  11.936
87309W        W51033  10.806  32.938   3.839
87310W        W51034  36.362  41.954  14.309
87311W        W51035  24.484  24.566  12.579
87312W        W51036  42.441  37.895  13.520
87313W        W51037  15.791  14.678   1.861
87314W        W51038  36.579  28.139   1.383
87315W        W51039   9.650  19.764   0.789
87316W        W51040  31.144  17.639  10.934
87317W        W51041  23.548  27.940   2.664
87318W        W51042  42.926   4.851  13.484
87319W        W51043  33.496  30.020  10.590
87320W        W51044  17.175  19.271   1.341
87321W        W51045  16.116  11.625  11.548
87322W        W51046  21.576  22.517   0.353
87323W        W51047  22.108  42.308  13.933
87324W        W51048  24.689  37.454   3.677
87325W        W51049  26.196  44.337   2.901
87326W        W51050  24.550  35.959  12.389
87327W        W51051   7.849  34.027   2.200
87328W        W51052   1.791  36.017   1.370
87329W        W51053   0.276  29.487  14.925
87330W        W51054   0.920  10.710   0.870
87331W        W51055  44.403   7.262   2.852
87332W        W51056  30.113   0.954  11.077
87333W        W51057  39.427   8.313   3.865
87334W        W51058  23.632  44.790  14.421
87335W        W51059  24.098  13.730   1.882
87336W        W51060  11.726  41.013  14.378
87337W        W51061  26.623  26.488   0.807
87338W        W51062  39.020  20.082   3.791
87339W        W51063   8.373  19.702   0.432
87340W        W51064  17.745  24.021   0.265
87341W        W51065  19.072   5.256  12.575
87342W        W51066  34.022   2.756  10.565
87343W        W51067   9.370  42.454  13.052
87344W        W51068  31.985  18.665  12.041
87345W        W51069  30.604  34.986   4.232
87346W        W51070  44.982  35.511   4.206
87347W        W51071   2.942  15.306   4.242
87348W        W51072  21.551  31.480  11.918
87349W        W51073  16.782  18.734   0.466
87350W        W51074  42.435  23.101   3.258
87351W        W51075  22.730  15.192  12.094
87352W        W51076  36.027   3.860   3.636
87353W        W51077  13.155   2.350   4.651
87354W        W51078  34.073   1.963  14.376
87355W        W51079  30.042  32.579   4.157
87356W        W51080  26.108  10.216  10.437
87357W        W51081  41.967  43.897  10.563
87358W        W51082  20.185   7.415   5.226
87359W        W51083  41.019  14.309  12.546
87360W        W51084  37.380  25.095   4.609
87361W        W51085  39.378  25.129   0.914
87362W        W51086  30.051  38.896   4.319
87363W        W51087   2.957  28.564   2.222
87364W        W51088   7.840   1.801   5.259
87365W        W51089   0.350   8.846   0.833
87366W        W51090  38.961  19.705   3.862
87367W        W51091  34.986  27.155  11.974
87368W        W51092  24.678  27.988   1.369
87369W        W51093  28.155  21.596  14.804
87370W        W51094   9.694   4.813  11.113
87371W        W51095  42.854   7.266  14.982
87372W        W51096  34.456  23.701   4.300
87373W        W51097   5.256  20.561   3.211
87374W        W51098  38.051   9.259   4.253
87375W        W51099  39.493  16.250  14.303
87376W        W51100  17.243  10.697  11.114
87377W        W51101  18.544  30.608  10.427
87378W        W51102   3.342  35.383  11.109
87379W        W51103  17.265  26.464  12.575
87380W        W51104  31.993  11.862  10.909
87381W        W51105  12.747  21.091   3.708
87382W        W51106  44.910  11.319   4.302
87383W        W51107  38.420   3.781  11.952
87384W        W51108   8.894   6.858  11.907
87385W        W51109  23.092  31.615  14.026
87386W        W51110  24.598  13.215   2.211
87387W        W51111   8.371  38.867  11.944
87388W        W51112  34.533  36.994   1.699
87389W        W51113  19.765  19.676  10.478
87390W        W51114  24.642   8.161   2.900
87391W        W51115  18.169  11.814  14.864
87392W        W51116   7.244  29.126  11.129
87393W        W51117  30.474  40.930   3.312
87394W        W51118  34.418  32.575  13.861
87395W        W51119  37.009  12.611   0.322
87396W        W51120   1.925   7.823   2.793
87397W        W51121  11.168   5.807   0.426
87398W        W51122   9.831  42.430   1.934
87399W        W51123   9.372  38.378   4.791
87400W        W51124  14.811  20.548   0.866
87401W        W51125  14.278  44.864   1.398
87402W        W51126  27.511  41.508  13.011
87403W        W51127  15.249  42.942  13.861
87404W        W51128  20.073  44.412  10.427
87405W        W51129  44.980   0.797  14.298
87406W        W51130  32.917   8.784   4.834
87407W        W51131  27.167   5.266   0.390
87408W        W51132  28.972  15.094  13.038
87409W        W51133   3.815  36.857  11.598
87410W        W51134  15.083  40.492   3.740
87411W        W51135  37.078   6.880  12.460
87412W        W51136  13.308  23.040  13.991
87413W        W51137  35.435  13.806   2.828
87414W        W51138  40.824  37.470   9.595
87415W        W51139  23.106  41.804   4.317
87416W        W51140  17.129  40.479  13.840
87417W        W51141  36.005  28.093   3.356
87418W        W51142  27.159   4.412  12.503
87419W        W51143  40.422   9.318   0.880
87420W        W51144  26.132  18.221  14.459
87421W        W51145  17.187  25.634  11.023
87422W        W51146  23.079  26.530   3.285
87423W        W51147  12.821  29.511   4.718
87424W        W51148   1.881   6.234   2.866
87425W        W51149  39.345  40.387  10.495
87426W        W51150  24.145  44.922  14.491
87427W        W51151  37.338  39.060   4.123
87428W        W51152  42.476  26.474   0.452
87429W        W51153  12.339  10.798   4.312
87430W        W51154  13.707  30.976   1.721
87431W        W51155  41.923  22.097  13.456
87432W        W51156   9.151  32.530  13.846
87433W        W51157  16.599   5.207   4.218
87434W        W51158  14.802   7.688   1.227
87435W        W51159  29.647  36.846  14.370
87436W        W51160  43.282  31.561  12.358
87437W        W51161  44.757   4.216  13.477
87438W        W51162   3.378   1.314  14.384
87439W        W51163   0.966  19.285   1.900
87440W        W51164  39.537  37.580   0.842
87441W        W51165  41.805   9.159  12.060
87442W        W51166  23.523   6.694  13.051
87443W        W51167  16.299  18.290  12.937
87444W        W51168   6.380  33.578   4.711
87445W        W51169  15.641   6.325  13.524
87446W        W51170   7.351  17.204   0.248
87447W        W51171  44.762   1.894   3.767
87448W        W51172  40.445  31.912  13.939
87449W        W51173  34.381  28.064  11.864
87450W        W51174   9.735  18.721  13.327
87451W        W51175  11.214  32.613   1.310
87452W        W51176  18.773  33.892  12.857
87453W        W51177  22.581  21.042   0.373
87454W        W51178  12.350  19.758   5.320
87455W        W51179  42.873  39.937   2.380
87456W        W51180  38.510   4.346   4.223
87457W        W51181   7.797  20.673   0.804
87458W        W51182  41.448  22.673  13.389
87459W        W51183  21.716   5.750  11.507
87460W        W51184   6.910  40.521  12.511
87461W        W51185   6.222  37.890  12.002
87462W        W51186  13.298  15.670   4.293
87463W        W51187  34.991  13.697   3.688
87464W        W51188   4.394  18.249   4.675
87465W        W51189  15.172  31.921  10.419
87466W        W51190   1.941  11.219   0.812
87467W        W51191  39.328  33.129  14.986
87468W        W51192  28.673   9.688   0.831
87469W        W51193  28.947  27.602  12.397
87470W        W51194   9.189  13.827  10.968
87471W        W51195   1.402  18.713   4.153
87472W        W51196   7.723   8.375  10.595
87473W        W51197  44.950   7.821   3.775
87474W        W51198  34.525   5.275  11.875
87475W        W51199  24.646  31.058  11.393
87476W        W51200  10.839   0.897  10.974
87477W        W51201   3.440   1.250  10.422
87478W        W51202   6.762  16.109   0.448
87479W        W51203  14.747  20.109   3.755
87480W        W51204  28.952  41.827   0.242
87481W        W51205  35.019  43.871  13.484
87482W        W51206  31.613  40.309   0.455
87483W        W51207  40.483  15.165  13.811
87484W        W51208  26.131  14.668   3.233
87485W        W51209  14.160  12.295   4.692
87486W        W51210  10.223   7.811   4.627
87487W        W51211  27.011  27.978   3.851
87488W        W51212  14.596  41.997   0.391
87489W        W51213  15.218  23.150   0.960
87490W        W51214  32.477  18.151   1.757
87491W        W51215  38.861  11.724   5.104
87492W        W51216  39.915  11.308  12.960
87493W        W51217  33.083  44.005  10.952
87494W        W51218  22.034  24.206  10.489
87495W        W51219   5.292   4.264   1.266
87496W        W51220   8.821  14.277   0.395
87497W        W51221  36.895  19.046  11.480
87498W        W51222  21.255  40.918  14.901
87499W        W51223  21.710  15.311   9.496
87500W        W51224  21.570  41.455   2.754
87501W        W51225   7.727  37.512  12.080
87502W        W51226  25.702  14.102   3.226
87503W        W51227  18.122  14.125  11.474
87504W        W51228  33.952  34.537  10.437
87505W        W51229   1.774  21.717  14.770
87506W        W51230   0.755  35.591   4.724
87507W        W51231  44.291  19.267   3.742
87508W        W51232  25.019  39.873   1.238
87509W        W51233  16.134  15.205  14.885
87510W        W51234  31.073  25.992  13.507
87511W        W51235  21.246  26.525   4.158
87512W        W51236  33.523  35.546  12.905
87513W        W51237  44.465  44.802  14.763
87514W        W51238  39.841   5.801  13.977
87515W        W51239  43.514  41.029  13.910
87516W        W51240  21.608   2.401  13.964
87517W        W51241  20.096  40.937   1.368
87518W        W51242  41.864  18.721  11.054
87519W        W51243  32.008  10.868  12.831
87520W        W51244  16.646  34.904   3.783
87521W        W51245  21.612  22.528   1.745
87522W        W51246  13.671   3.456  14.360
87523W        W51247  40.960  38.514   1.361
87524W        W51248  40.531  37.356   1.339
87525W        W51249   7.409  23.626   0.736
87526W        W51250  38.887  34.874   3.291
87527W        W51251   3.730  43.450   4.623
87528W        W51252  36.860  15.736   9.635
87529W        W51253  29.466  40.451  13.386
87530W        W51254  41.296   2.837   3.845
87531W        W51255  38.399  32.892  11.055
87532W        W51256  26.546  21.655  11.912
87533W        W51257  33.511  11.153  10.967
87534W        W51258   1.244  31.106   2.786
87535W        W51259  29.130  11.712  14.803
87536W        W51260  26.998  32.417   2.228
87537W        W51261   6.688  15.710  12.555
87538W        W51262  25.473  30.121   0.440
87539W        W51263  15.222  19.571  12.574
87540W        W51264  14.635   5.742   3.153
87541W        W51265   6.731  12.685  10.093
87542W        W51266   1.375   4.822  10.461
87543W        W51267  24.127  26.513   1.930
87544W        W51268  38.984   7.414   3.738
87545W        W51269  33.502  16.264  14.907
87546W        W51270  12.779  43.507   2.270
87547W        W51271  16.169   4.243  11.585
87548W        W51272  44.009  40.387   2.413
87549W        W51273  36.436  14.122   2.862
87550W        W51274  36.586  42.903  10.108
87551W        W51275  38.486  43.456   4.247
87552W        W51276  12.669  12.818   0.279
87553W        W51277  12.142  22.143  10.624
87554W        W51278   6.780  24.973   3.736
87555W        W51279  17.659  18.619  13.334
87556W        W51280  17.595  37.875   2.834
87557W        W51281  37.869   0.756   3.751
87558W        W51282  10.857  25.984  12.053
87559W        W51283  31.051   8.234   1.290
87560W        W51284   6.317  33.982   4.698
87561W        W51285  18.213  19.140  13.908
87562W        W51286  25.153  33.435   1.322
87563W        W51287  23.231   7.311   0.810
87564W        W51288  37.523   4.240  13.464
87565W        W51289  44.478  10.759  12.569
87566W        W51290  33.990  22.104   2.350
87567W        W51291   9.327   7.403  11.399
87568W        W51292  18.785   2.859   4.265
87569W        W51293   5.254  15.151   3.842
87570W        W51294  32.903  25.700  11.399
87571W        W51295   4.746  39.531   4.260
87572W        W51296   2.950  17.179  11.420
87573W        W51297  34.915   5.847   0.876
87574W        W51298  28.141  14.653  13.001
87575W        W51299   6.214  19.622  12.395
87576W        W51300  41.878  29.018   1.895
87577W        W51301  16.299  35.885  13.459
87578W        W51302   5.820  43.312  12.922
87579W        W51303  10.772  37.404  13.985
87580W        W51304  44.962  40.328   2.283
87581W        W51305   7.322  39.870   2.774
87582W        W51306  34.569   5.260  13.798
87583W        W51307  18.659  21.676   0.438
87584W        W51308  37.428  22.602   2.208
87585W        W51309  40.871   5.749   4.216
87586W        W51310   6.325  37.347   2.267
87587W        W51311  34.071   8.792   1.854
87588W        W51312  40.038  31.014  12.368
87589W        W51313  42.990  27.485  12.356
87590W        W51314  34.989  36.080   1.794
87591W        W51315   1.389  10.212  12.522
87592W        W51316  24.066   1.977   2.662
87593W        W51317  35.900  39.021   3.337
87594W        W51318   8.179   4.287   3.369
87595W        W51319  29.513  32.971  14.782
87596W        W51320   0.293  35.028   4.193
87597W        W51321  31.967  42.390   4.717
87598W        W51322  26.963  36.557  12.938
87599W        W51323  25.570  19.090   3.746
87600W        W51324  21.073  28.075   3.217
87601W        W51325  42.513  29.501  13.915
87602W        W51326   0.334  26.044   4.683
87603W        W51327  13.223  24.648  14.958
87604W        W51328  10.286   1.765  13.870
87605W        W51329  44.357  42.975  11.116
87606W        W51330  11.674   0.310  12.486
87607W        W51331  22.668  21.588   2.256
87608W        W51332  18.142  12.744   0.373
87609W        W51333  26.538   9.192   3.718
87610W        W51334  34.575   4.410   0.746
87611W        W51335  24.081  37.514   9.575
87612W        W51336  32.008   1.461   4.279
87613W        W51337  29.096  36.519  14.022
87614W        W51338  36.014  30.514  10.533
87615W        W51339  28.610  33.598  14.806
87616W        W51340  32.485  13.730   4.317
87617W        W51341  22.041  16.704  13.832
87618W        W51342  17.632   3.794   2.729
87619W        W51343  22.082  29.604   9.475
87620W        W51344  28.646  44.411   9.956
87621W        W51345  38.335  44.994  14.928
87622W        W51346  43.276  24.495  12.072
87623W        W51347  30.607  42.428  10.986
87624W        W51348  22.232  27.957   4.739
87625W        W51349  35.476   5.804   0.928
87626W        W51350  12.746  22.728  11.398
87627W        W51351  10.871  32.977  12.842
87628W        W51352   5.780  10.246   3.260
87629W        W51353  32.039   6.407   5.198
87630W        W51354  29.130  11.802   0.481
87631W        W51355  40.378  30.462  12.555
87632W        W51356  44.271  25.478   1.825
87633W        W51357  36.943  31.615   1.805
87634W        W51358   7.670  18.137  12.389
87635W        W51359  33.107  32.886  13.883
87636W        W51360  15.309   9.867  12.525
87637W        W51361  21.722  12.247   3.678
87638W        W51362  12.355  11.766   4.163
87639W        W51363  33.919  30.643   3.311
87640W        W51364  26.490  30.623  14.323
87641W        W51365   6.884   1.390   3.381
87642W        W51366  44.847   1.459  13.946
87643W        W51367  44.387  16.289  10.492
87644W        W51368  26.077  35.387  12.960
87645W        W51369  38.393  22.121   3.208
87646W        W51370  34.948   5.391  10.919
87647W        W51371   0.823  18.763   1.856
87648W        W51372  24.228  22.621  11.881
87649W        W51373  32.959  37.847   4.764
87650W        W51374  36.983  28.008  14.334
87651W        W51375  13.116  35.578   1.788
87652W        W51376   6.271  20.120   2.838
87653W        W51377   4.321  34.593   0.451
87654W        W51378  33.040  43.930  13.526
87655W        W51379   6.319  44.416   1.739
87656W        W51380  39.470  15.604   0.829
87657W        W51381   2.279  19.735  14.477
87658W        W51382  31.441  26.696   3.197
87659W        W51383  13.300  19.675   2.305
87660W        W51384  41.863  20.750   1.718
87661W        W51385  38.860  36.051  10.129
87662W        W51386  25.611  34.929   1.227
87663W        W51387   0.457  44.378   2.262
87664W        W51388  19.182   7.907   2.205
87665W        W51389  20.156  31.623  11.124
87666W        W51390  27.460  19.690  11.468
87667W        W51391   4.715   4.889  14.512
87668W        W51392   7.410  35.029   4.693
87669W        W51393  23.705  40.048  11.115
87670W        W51394  41.037  11.632   1.436
87671W        W51395   7.372  34.565  14.871
87672W        W51396  13.701  10.346   3.741
87673W        W51397  18.156  36.980   1.272
87674W        W51398  31.633  35.861  11.978
87675W        W51399  39.484   0.953  13.473
87676W        W51400  39.325  29.659  12.520
87677W        W51401  39.851  39.835   3.738
87678W        W51402  30.515  16.074   2.207
87679W        W51403  26.965  35.571   0.275
87680W        W51404  16.631   3.787  11.123
87681W        W51405   9.819  37.379  12.512
87682W        W51406  17.555   6.240  10.514
87683W        W51407   3.263  25.663   2.831
87684W        W51408  13.300  36.539   1.308
87685W        W51409   7.691  20.745  11.571
87686W        W51410  23.647  28.952   2.301
87687W        W51411  36.368   5.435   2.217
87688W        W51412  17.189  39.474  12.025
87689W        W51413  40.920  13.323   4.828
87690W        W51414  20.179  26.630  10.936
87691W        W51415   8.696  14.229  14.950
87692W        W51416  37.344  44.356   1.920
87693W        W51417  15.187   2.853  13.927
87694W        W51418  43.435  35.971  10.440
87695W        W51419  19.144  39.465  11.084
87696W        W51420   7.333  20.167  11.523
87697W        W51421   6.742  42.833   3.698
87698W        W51422  12.657   9.241   2.751
87699W        W51423  39.538  37.538   1.254
87700W        W51424  35.460  40.928  12.505
87701W        W51425  16.290  38.500  12.092
87702W        W51426  14.323  41.904   0.825
87703W        W51427   0.769  20.125   0.742
87704W        W51428  35.598  40.359  13.439
87705W        W51429  38.052  32.901   2.884
87706W        W51430  34.478  13.655   0.738
87707W        W51431  40.331  20.194   4.788
87708W        W51432  37.040  13.187  12.451
87709W        W51433  12.612  35.504  12.871
87710W        W51434  18.107  43.470   0.787
87711W        W51435  39.042  25.487  11.504
87712W        W51436  44.811  42.879   4.241
87713W        W51437  21.156  43.846   4.329
87714W        W51438  16.610  36.873   3.160
87715W        W51439   2.959  29.983   1.711
87716W        W51440  36.523  21.679   2.791
87717W        W51441  10.190   8.780   3.145
87718W        W51442   6.875  22.053   1.933
87719W        W51443   7.278  27.093  12.363
87720W        W51444  18.250  42.386   0.297
87721W        W51445   9.675  37.898  14.445
87722W        W51446  38.953  27.960   2.765
87723W        W51447  10.250  20.677  13.329
87724W        W51448  17.679  42.461  14.014
87725W        W51449   4.372  38.005  11.604
87726W        W51450  12.816  18.252  14.023
87727W        W51451   1.395  18.718   3.217
87728W        W51452  19.546  31.934  13.064
87729W        W51453  33.880   4.795  11.501
87730W        W51454  28.065  37.352  12.356
87731W        W51455  21.232  30.001  14.485
87732W        W51456  11.146  37.375   0.872
87733W        W51457  44.812  12.857  12.853
87734W        W51458   9.151  36.971  11.526
87735W        W51459  19.564  36.029   3.289
87736W        W51460  33.519  32.412   4.323
87737W        W51461   5.871  44.862  11.472
87738W        W51462  43.770  20.718  14.869
87739W        W51463  23.996   4.793  12.895
87740W        W51464  11.263  18.620   0.848
87741W        W51465   6.225  21.711  14.421
87742W        W51466  26.507  36.889  14.512
87743W        W51467  18.290  43.842  13.011
87744W        W51468  21.215  33.385  12.544
87745W        W51469  18.725  41.977  10.531
87746W        W51470  37.467  17.210  14.835
87747W        W51471  24.677  20.534   2.286
87748W        W51472  22.670  42.947   2.202
87749W        W51473   1.275   5.350  14.031
87750W        W51474  39.924  40.828   3.296
87751W        W51475  21.204  26.586  13.510
87752W        W51476  31.605   1.851   0.803
87753W        W51477  10.190   9.257   3.690
87754W        W51478  41.349  34.403  10.465
87755W        W51479  35.927  27.991  10.623
87756W        W51480   5.809  27.447   1.220
87757W        W51481  41.029   0.405  14.516
87758W        W51482  31.617   8.797  14.790
87759W        W51483  37.890  26.639   1.926
87760W        W51484  31.405   0.948   1.368
87761W        W51485  40.312  13.708  10.906
87762W        W51486  41.425  16.253   4.264
87763W        W51487   7.237   4.447  13.866
87764W        W51488  33.428  35.500  12.500
87765W        W51489  11.141  25.210  11.033
87766W        W51490  26.591  27.957   3.693
87767W        W51491   9.175  31.462   3.835
87768W        W51492  23.705  19.759   0.893
87769W        W51493   0.333   2.455   3.171
87770W        W51494  31.923  14.215   0.932
87771W        W51495  44.280  42.872  10.013
87772W        W51496  31.504  33.591  14.818
87773W        W51497  44.431  12.324  13.881
87774W        W51498  17.123  17.247  13.996
87775W        W51499  42.929  44.911   2.769
87776W        W51500   8.379   0.430   2.325
87777W        W51501  35.015  12.785   4.316
87778W        W51502  15.713  25.164  12.892
87779W        W51503  24.155  23.642   3.841
87780W        W51504  36.573   4.914   2.265
87781W        W51505   6.247  41.485   4.236
87782W        W51506  11.128   0.901  12.044
87783W        W51507   4.340  12.239  12.518
87784W        W51508   7.348  22.197  13.924
87785W        W51509   1.436  43.506  14.010
87786W        W51510  35.430   7.867   4.227
87787W        W51511  37.527  14.263  13.331
87788W        W51512  34.950  14.204   1.749
87789W        W51513  24.620  10.158   2.803
87790W        W51514  40.506  22.166  14.770
87791W        W51515  12.286   9.252   2.336
87792W        W51516  10.178   6.880   1.699
87793W        W51517  17.305  23.661  11.092
87794W        W51518   6.199  19.121  12.547
87795W        W51519   8.801  37.871   4.327
87796W        W51520  22.509  27.139  10.538
87797W        W51521  36.861  11.656   2.830
87798W        W51522   8.736  26.978   4.131
87799W        W51523  44.869  43.787   1.258
87800W        W51524   6.338  33.074  14.000
87801W        W51525  42.885   6.726   1.362
87802W        W51526   5.772  26.474  13.355
87803W        W51527  37.858  11.709  11.496
87804W        W51528  21.554  42.825  13.839
87805W        W51529  33.937  27.132  11.086
87806W        W51530  29.096  28.029  10.992
87807W        W51531  27.532  37.045  13.374
87808W        W51532  20.661   8.222   3.277
87809W        W51533  21.030  23.047  14.838
87810W        W51534  13.616  27.519  13.364
87811W        W51535   6.868   6.296   2.273
87812W        W51536   7.695  18.622   3.825
87813W        W51537  40.800   6.218  10.603
87814W        W51538  12.153   3.268   2.705
87815W        W51539  43.955  39.812   3.719
87816W        W51540  10.266  10.240  10.493
87817W        W51541  41.877  19.220   4.299
87818W        W51542  11.851  25.567  10.581
87819W        W51543   5.363  26.120   0.345
87820W        W51544  16.217   6.242  13.015
87821W        W51545  19.263  30.001   0.835
87822W        W51546  34.488   8.838  13.503
87823W        W51547  35.000  30.926   0.314
87824W        W51548  21.034  11.298  12.834
87825W        W51549   6.383  12.300   2.779
87826W        W51550  26.699  10.344   3.826
87827W        W51551  39.994  39.537  12.415
87828W        W51552  32.066  35.929  14.289
87829W        W51553   4.420  25.648  11.504
87830W        W51554  10.850  41.384   4.304
87831W        W51555  39.900  28.435  10.575
87832W        W51556  43.928  37.897   9.521
87833W        W51557   7.245  16.137   2.317
87834W        W51558  37.849   8.709   3.337
87835W        W51559   0.773   1.338   2.684
87836W        W51560  20.110  44.391   2.774
87837W        W51561  24.175  26.571   3.351
87838W        W51562  31.567  20.094  13.921
87839W        W51563  22.609  29.467   3.324
87840W        W51564   5.852  28.160   3.198
87841W        W51565  12.784   4.822   4.210
87842W        W51566  20.655   3.400  11.881
87843W        W51567  35.026  17.081  14.291
87844W        W51568  41.380   9.339  11.574
87845W        W51569   7.319  29.498   4.286
87846W        W51570  23.992  27.147   4.764
87847W        W51571  11.638  44.455  12.379
87848W        W51572  33.614   2.846   1.348
87849W        W51573   4.436  10.835   0.306
87850W        W51574  16.708  36.473   3.863
87851W        W51575  17.566   1.353   0.441
87852W        W51576  33.443  19.087   1.442
87853W        W51577   6.300   7.853  10.576
87854W        W51578  19.236  44.390  10.922
87855W        W51579  27.467  27.644   3.863
87856W        W51580   1.924  30.436   4.624
87857W        W51581  33.012  11.229   3.233
87858W        W51582  27.606   7.239   2.690
87859W        W51583  33.565  29.640  11.906
87860W        W51584   8.901  41.386  14.436
87861W        W51585  10.154  23.523   1.415
87862W        W51586   3.894  42.376  11.374
87863W        W51587  28.132  26.154  13.837
87864W        W51588  31.442  40.881   4.716
87865W        W51589  31.951   4.910  14.844
87866W        W51590  30.122  38.032   0.333
87867W        W51591  17.556  24.097  12.436
87868W        W51592   3.232  16.158  14.772
87869W        W51593   9.681  30.024  14.847
87870W        W51594  10.305   3.857  12.039
87871W        W51595  30.489  24.574   2.384
87872W        W51596  26.975  12.829   4.306
87873W        W51597   4.846  14.797  12.031
87874W        W51598  32.434  32.959  13.039
87875W        W51599  26.099  22.597  11.428
87876W        W51600  35.433  37.072  12.407
87877W        W51601  39.428  16.620  12.970
87878W        W51602  24.584  13.812  14.925
87879W        W51603  36.396  10.345   2.393
87880W        W51604   6.900   1.757  14.854
87881W        W51605  42.315  33.066  10.080
87882W        W51606  25.565   9.388  13.794
87883W        W51607   0.774  16.664   2.314
87884W        W51608  19.731  23.001  13.539
87885W        W51609  27.554  20.712  13.968
87886W        W51610  17.170  25.100  11.508
87887W        W51611  34.013   0.847   3.327
87888W        W51612   6.400  27.191   3.197
87889W        W51613  30.468  25.537  11.096
87890W        W51614   7.767  16.702   2.202
87891W        W51615  17.739   4.924   4.158
87892W        W51616  42.881  13.654   0.788
87893W        W51617  30.653  36.900   1.311
87894W        W51618   8.704   6.279  12.357
87895W        W51619  29.478   9.359  12.452
87896W        W51620   7.876  10.275   0.949
87897W        W51621  33.528  23.992   4.792
87898W        W51622  37.924  37.001   2.297
87899W        W51623  39.470   9.760  10.427
87900W        W51624  33.042  10.239   1.237
87901W        W51625  11.192  32.007   2.772
87902W        W51626  19.050  25.082  11.431
87903W        W51627  33.396  20.531   2.232
87904W        W51628   5.274  42.370  13.537
87905W        W51629  30.440   7.886  13.914
87906W        W51630  26.042  12.279   4.264
87907W        W51631  41.420   3.820   4.647
87908W        W51632  29.020  37.965  12.922
87909W        W51633  22.210  37.382   9.992
87910W        W51634  15.122   8.189   5.164
87911W        W51635   8.712  14.647   0.886
87912W        W51636  12.767   9.698   2.689
87913W        W51637  35.416  12.189  11.090
87914W        W51638  32.958   2.766  14.010
87915W        W51639  44.368  27.548  10.080
87916W        W51640  35.533  24.721   3.807
87917W        W51641  30.456  38.464  10.573
87918W        W51642  12.303  29.995   2.862
87919W        W51643  19.152  44.338   0.767
87920W        W51644   9.161  43.868  13.504
87921W        W51645  17.272   4.775  12.347
87922W        W51646  27.127  26.153  12.346
87923W        W51647   2.431  33.382  10.108
87924W        W51648  15.696   7.366   4.262
87925W        W51649  16.740  10.274   2.272
87926W        W51650   5.737  19.070  13.502
87927W        W51651  40.534   2.429  14.886
87928W        W51652  44.904   0.932   2.222
87929W        W51653  33.045  12.356   5.621
87930W        W51654  32.890  26.580  13.384
87931W        W51655  14.666  41.529   1.232
87932W        W51656  10.199   7.769  14.018
87933W        W51657  21.020  16.252   3.852
87934W        W51658  18.711  19.612  14.804
87935W        W51659  12.203   7.800   2.903
87936W        W51660  18.732  13.272  11.587
87937W        W51661  21.519  25.540   4.746
87938W        W51662  28.137  12.163  14.482
87939W        W51663  38.038  41.955   5.087
87940W        W51664  32.115  33.393   1.363
87941W        W51665  38.548   0.279  14.291
87942W        W51666   4.897  42.515   2.780
87943W        W51667   1.930  35.931   4.684
87944W        W51668  40.493  18.646  13.990
87945W        W51669  26.967  30.638   5.094
87946W        W51670   7.843  23.030  13.321
87947W        W51671  23.670  32.995  12.429
87948W        W51672  34.003  21.541  14.290
87949W        W51673  10.690  26.186   1.319
87950W        W51674   9.262   7.320   4.125
87951W        W51675  25.640  35.864  13.508
87952W        W51676  25.039  43.327  14.436
87953W        W51677  28.095   6.374   2.284
87954W        W51678  23.174  37.930  11.876
87955W        W51679  10.345  40.979  11.065
87956W        W51680  31.525   5.757  13.396
87957W        W51681  22.072   9.324   3.823
87958W        W51682   1.858  13.765   4.605
87959W        W51683  10.638  31.931  13.465
87960W        W51684  24.501  29.022   1.365
87961W        W51685   9.706   9.851  14.012
87962W        W51686  43.978  23.604  13.807
87963W        W51687   2.249  10.683  12.436
87964W        W51688  42.456  37.375  10.433
87965W        W51689  22.577  26.656   3.236
87966W        W51690  43.459  37.373  14.320
87967W        W51691   7.675  17.778   4.240
87968W        W51692  20.627  24.229  13.320
87969W        W51693  40.419  15.654  10.578
87970W        W51694  13.204  24.512   4.745
87971W        W51695  23.596  14.770   3.364
87972W        W51696  34.368  21.617   1.308
87973W        W51697  43.906  13.680   4.783
87974W        W51698  35.873  28.472   2.241
87975W        W51699  27.604  31.092  14.394
87976W        W51700  16.156  17.716  10.906
87977W        W51701  13.283  41.409  13.381
87978W        W51702   3.447  11.825   4.173
87979W        W51703  34.443   2.279  14.350
87980W        W51704  20.224   9.872   3.207
87981W        W51705  33.054  42.388   2.673
87982W        W51706  22.160  35.434  14.388
87983W        W51707   1.431   6.184  11.971
87984W        W51708   5.703  11.789   3.190
87985W        W51709  26.683  36.518   2.277
87986W        W51710  38.432  24.582  12.546
87987W        W51711  12.334  44.897   0.480
87988W        W51712  41.008  16.267   3.240
87989W        W51713  12.752  25.710  11.483
87990W        W51714   7.185  42.856   0.429
87991W        W51715  36.394  26.063   3.743
87992W        W51716  16.267  15.790  10.639
87993W        W51717   2.763  27.982   2.365
87994W        W51718   6.345  23.220   3.665
87995W        W51719  43.339  10.812   2.345
87996W        W51720  12.344  31.994   5.169
87997W        W51721  37.442  38.393   3.677
87998W        W51722   0.489  40.411   4.163
87999W        W51723   9.881   9.155   4.819
88000W        W51724   8.169  10.777  13.042
88001W        W51725   9.216  38.821   2.898
88002W        W51726  22.650  13.818   4.790
88003W        W51727  32.032   0.953   1.279
88004W        W51728  37.462  42.850  12.390
88005W        W51729  32.985  38.531   1.734
88006W        W51730  34.105  13.105   0.751
88007W        W51731  43.371  21.584   4.204
88008W        W51732   5.313  25.570   0.909
88009W        W51733   1.853  21.089   2.891
88010W        W51734   0.794  16.181  12.421
88011W        W51735  12.173  41.970   0.470
88012W        W51736  40.936  18.110  10.529
88013W        W51737  35.986  43.800  12.421
88014W        W51738  33.987  23.099   0.363
88015W        W51739  36.371  22.242   2.782
88016W        W51740  38.899  15.775   4.293
88017W        W51741  43.286  34.453  14.798
88018W        W51742  29.456  11.657  12.090
88019W        W51743  34.936  14.324  13.821
88020W        W51744  29.010  11.648  11.921
88021W        W51745  13.236   3.949   3.747
88022W        W51746  26.088   5.312   4.198
88023W        W51747  30.104   4.727  11.576
88024W        W51748   9.713  28.979   2.306
88025W        W51749  11.318   3.871   3.319
88026W        W51750  41.859   8.238   1.870
88027W        W51751   1.246  22.234  10.644
88028W        W51752  36.012  41.301  14.515
88029W        W51753  41.812  30.654   0.346
88030W        W51754  34.485  24.490   3.348
88031W        W51755  23.000   4.258  12.929
88032W        W51756  36.845  42.975   0.262
88033W        W51757   5.931  33.125   3.171
88034W        W51758   3.723  39.009   2.864
88035W        W51759  13.663   3.844   1.761
88036W        W51760  15.234  23.064   3.195
88037W        W51761  37.857  14.627   0.394
88038W        W51762  11.281  40.426  11.095
88039W        W51763  38.025  17.662   2.310
88040W        W51764  23.003  11.341   3.220
88041W        W51765  29.425  31.467  12.486
88042W        W51766  15.173  19.165  12.947
88043W        W51767  32.452  15.096   2.733
88044W        W51768   7.851   1.781   0.819
88045W        W51769   3.401  19.261  13.323
88046W        W51770   9.154  37.947   1.896
88047W        W51771  11.341  28.994   3.840
88048W        W51772  31.490   3.903  14.019
88049W        W51773   2.755  30.098   0.963
88050W        W51774  30.449   2.379   4.310
88051W        W51775  11.264  18.148  11.436
88052W        W51776  41.863  20.574  11.066
88053W        W51777  10.222  19.231   2.770
88054W        W51778  35.535   4.706   0.755
88055W        W51779  12.714  17.190   4.144
88056W        W51780  43.841  28.048  11.504
88057W        W51781  35.855  17.594  12.918
88058W        W51782  14.315   6.676   1.735
88059W        W51783   1.471   6.229  14.999
88060W        W51784  29.638  12.793  14.280
88061W        W51785  24.985  43.800  12.472
88062W        W51786  14.777  25.662   2.356
88063W        W51787  36.557  14.737   4.737
88064W        W51788  12.643  18.239  11.971
88065W        W51789  29.082  26.081  11.473
88066W        W51790  30.632  39.924  13.538
88067W        W51791   4.205  20.696   3.327
88068W        W51792  18.254  24.028   0.303
88069W        W51793   3.331  24.687  11.516
88070W        W51794  11.223  22.692  10.492
88071W        W51795   0.790  26.018   1.230
88072W        W51796  21.140   0.402  11.095
88073W        W51797   1.749  30.604  13.796
88074W        W51798   8.768  24.695   1.290
88075W        W51799  14.168  22.707  10.904
88076W        W51800  23.188   9.199  11.935
88077W        W51801   2.444  22.561  10.104
88078W        W51802  22.181  35.869   1.716
88079W        W51803   2.794   3.903   2.250
88080W        W51804   4.319  35.091  12.963
88081W        W51805  27.523  18.726   2.329
88082W        W51806   1.776  39.407  14.773
88083W        W51807  28.454  30.033   2.398
88084W        W51808  18.127  22.041   0.938
88085W        W51809   2.458  23.182  13.459
88086W        W51810  14.628  43.365   0.413
88087W        W51811   0.871  25.601  13.915
88088W        W51812  10.780  24.669  12.390
88089W        W51813   6.259   8.819   2.262
88090W        W51814  15.144  35.485   2.207
88091W        W51815  35.433  14.143   1.789
88092W        W51816  26.699   2.402   2.820
88093W        W51817  15.153  22.654  13.354
88094W        W51818  33.556  26.987  13.330
88095W        W51819  24.702  25.484  12.077
88096W        W51820  22.089  33.990   4.273
88097W        W51821  17.713  31.644   4.251
88098W        W51822  19.217  26.046  12.957
88099W        W51823  41.364  30.632   3.193
88100W        W51824  23.613   5.721   1.334
88101W        W51825  31.148   0.844  14.886
88102W        W51826   7.858   6.884  12.057
88103W        W51827  14.189  12.684  13.487
88104W        W51828  12.819   6.751   0.373
88105W        W51829  40.883  44.763   5.633
88106W        W51830   1.975  29.526   0.934
88107W        W51831   8.790   0.437  10.621
88108W        W51832  36.091  28.679  12.921
88109W        W51833   0.410  30.149   4.308
88110W        W51834  31.570   6.769  11.577
88111W        W51835  30.621  40.399  13.398
88112W        W51836  11.176   4.763   5.145
88113W        W51837  44.941  11.842  12.552
88114W        W51838  28.436  44.859   0.442
88115W        W51839   9.256   8.727   2.251
88116W        W51840   6.183  44.961  11.971
88117W        W51841  21.617   8.176   3.262
88118W        W51842  20.068  40.374  14.492
88119W        W51843   6.813  20.648  11.537
88120W        W51844  31.543  20.736  14.816
88121W        W51845  34.591  25.037  10.637
88122W        W51846  33.927  18.621   3.179
88123W        W51847  23.106  28.997   0.847
88124W        W51848  10.875  34.931  13.410
88125W        W51849   7.355  39.879   1.933
88126W        W51850  21.111  25.133  12.882
88127W        W51851  38.404  36.375  13.440
88128W        W51852   5.243  17.145  13.378
88129W        W51853  36.587  33.430  10.915
88130W        W51854  30.926  36.850  10.590
88131W        W51855  14.174  42.389  12.488
88132W        W51856  11.147  28.942  11.102
88133W        W51857  23.723  33.393  14.308
88134W        W51858  14.296  40.900  11.977
88135W        W51859  29.513  12.809   2.785
88136W        W51860  43.320   7.329   0.900
88137W        W51861  23.198  17.781   2.183
88138W        W51862  33.394  44.345   4.720
88139W        W51863  25.540  41.380  14.822
88140W        W51864  28.962  15.792  12.966
88141W        W51865  24.214   2.917   3.822
88142W        W51866  12.142  22.150   2.727
88143W        W51867  36.443   1.320   1.330
88144W        W51868  34.107  33.092   0.791
88145W        W51869  39.372  41.421   3.801
88146W        W51870  37.509  14.274  14.510
88147W        W51871  36.548  19.722   0.282
88148W        W51872   2.448  32.025  14.509
88149W        W51873  31.913   0.773  10.440
88150W        W51874   9.758  24.085   1.919
88151W        W51875  15.659   4.435  13.334
88152W        W51876  12.217  35.876   2.684
88153W        W51877   7.182  25.509  11.545
88154W        W51878  24.048  30.118  12.917
88155W        W51879  36.483  27.179  11.923
88156W        W51880   6.284  24.081   2.888
88157W        W51881  24.497  26.636   4.813
88158W        W51882  40.845  28.993  12.512
88159W        W51883  17.064   4.848   2.186
88160W        W51884  24.099   3.766  11.910
88161W        W51885   1.876  30.978   4.155
88162W        W51886  14.338  37.863  12.917
88163W        W51887  14.164  23.017  14.970
88164W        W51888  41.933  21.067   3.196
88165W        W51889  40.452  43.857   2.368
88166W        W51890  12.221  33.994   2.675
88167W        W51891  26.205  12.751   0.919
88168W        W51892  44.939  42.377   2.838
88169W        W51893  32.133  18.680   0.262
88170W        W51894  23.679  41.899  11.881
88171W        W51895  19.281  38.472  11.049
88172W        W51896  43.414  20.157  12.011
88173W        W51897  42.852  12.616   1.361
88174W        W51898  19.714  41.294  11.380
88175W        W51899  24.229  10.218  10.511
88176W        W51900  13.167  43.869  10.597
88177W        W51901  38.407   7.261  10.543
88178W        W51902  31.487   5.767  10.893
88179W        W51903   9.226   7.670   2.405
88180W        W51904  42.385  32.892  11.917
88181W        W51905  15.596   0.351  12.068
88182W        W51906  26.488   0.370   4.264
88183W        W51907  42.333  16.733  12.070
88184W        W51908  40.932  32.438  14.988
88185W        W51909  16.637  19.675  14.354
88186W        W51910  37.543  26.631  13.514
88187W        W51911  40.498   1.237   2.888
88188W        W51912   4.780  10.773   2.391
88189W        W51913  28.653  43.846   1.748
88190W        W51914  26.628  30.111   4.124
88191W        W51915  14.335  14.242  14.009
88192W        W51916   4.285  40.320   0.934
88193W        W51917  27.015   6.418  11.092
88194W        W51918  28.167  40.368  14.926
88195W        W51919   3.425  21.684  11.463
88196W        W51920  42.283  37.441  13.917
88197W        W51921  11.752  22.151   0.875
88198W        W51922  33.954  12.300   9.943
88199W        W51923  11.184   1.353   4.351
88200W        W51924  39.534  30.430   0.379
88201W        W51925  17.686  23.543  13.313
88202W        W51926  40.878   3.340   1.933
88203W        W51927  10.257  18.149   1.833
88204W        W51928  26.700  14.706  13.467
88205W        W51929  36.996  35.999  11.099
88206W        W51930  40.312  18.151  13.334
88207W        W51931  11.794  17.177  14.817
88208W        W51932  21.231  37.964  11.858
88209W        W51933  38.073  29.546  14.797
88210W        W51934  33.891  16.696  14.809
88211W        W51935   5.363  37.512  12.064
88212W        W51936  39.950  14.595   0.435
88213W        W51937   4.884   1.410  10.544
88214W        W51938  44.279  11.293  12.973
88215W        W51939  34.519  19.594  14.507
88216W        W51940  42.889   7.874   5.207
88217W        W51941  21.640   6.871  13.455
88218W        W51942  41.792   8.782   5.197
88219W        W51943  21.653  27.542   0.827
88220W        W51944  23.225   1.915  11.922
88221W        W51945  36.574  23.600  10.967
88222W        W51946  13.174  20.225  14.338
88223W        W51947  37.372  36.434   4.209
88224W        W51948  37.937  27.019  12.435
88225W        W51949   5.864  42.446  11.025
88226W        W51950  41.802  35.097   2.703
88227W        W51951  19.690  25.175   1.835
88228W        W51952  25.620   1.407  13.063
88229W        W51953  34.471  38.877  10.582
88230W        W51954  41.339  34.023  12.080
88231W        W51955   2.432   8.710  12.039
88232W        W51956  10.358  12.122   3.783
88233W        W51957   0.956   2.845   3.185
88234W        W51958  12.769  38.571  12.440
88235W        W51959  29.534   9.738  12.411
88236W        W51960  24.495   3.285   2.763
88237W        W51961  35.454  16.298   4.118
88238W        W51962  19.731  28.040   1.924
88239W        W51963   0.841  26.607  13.941
88240W        W51964  42.958   2.788   2.393
88241W        W51965  20.124  34.448   1.326
88242W        W51966   8.360  16.604   0.883
88243W        W51967   3.407  35.393   4.621
88244W        W51968  27.659  36.990   2.206
88245W        W51969  38.416  35.550  12.041
88246W        W51970  19.119  37.432  10.563
88247W        W51971  14.601   8.775   4.322
88248W        W51972  26.563  41.804  14.288
88249W        W51973  18.187  16.622   4.176
88250W        W51974  28.026  23.061   3.191
88251W        W51975  21.697  11.863   1.291
88252W        W51976   2.960  43.368  10.541
88253W        W51977  40.342  18.276  13.844
88254W        W51978   7.359  39.984  14.380
88255W        W51979  41.465  43.857   5.112
88256W        W51980  29.049  40.801   4.674
88257W        W51981  39.064   5.705   1.365
88258W        W51982  25.548  20.188   4.708
88259W        W51983  15.084  39.486  14.801
88260W        W51984  34.100   4.702   0.398
88261W        W51985  32.029  33.413   3.252
88262W        W51986  14.771   2.433   2.180
88263W        W51987  20.680  17.216  10.976
88264W        W51988  34.113  11.338   4.124
88265W        W51989  11.264  44.886  10.938
88266W        W51990  16.311  24.690  11.525
88267W        W51991  40.455  11.299  11.570
88268W        W51992  22.565  19.135   0.426
88269W        W51993  18.561  43.374  12.394
88270W        W51994  43.393   4.255   2.302
88271W        W51995  23.080  30.108   0.265
88272W        W51996  36.582  36.929   2.845
88273W        W51997  35.463   3.424   3.381
88274W        W51998  22.568   8.697  13.486
88275W        W51999  17.683  17.254  11.031
88276W        W52000   9.255  28.123   1.271
88277W        W52001  18.713  16.307   1.811
88278W        W52002   7.779  18.250   2.323
88279W        W52003  26.023  11.329   3.338
88280W        W52004  11.820  13.768   2.407
88281W        W52005  26.980   1.277  13.350
88282W        W52006  42.985  44.991   4.301
88283W        W52007  31.101  41.905   0.734
88284W        W52008  21.261   6.231  10.636
88285W        W52009   8.269  11.768   0.397
88286W        W52010  33.555  11.364  13.447
88287W        W52011   5.904  25.468  13.954
88288W        W52012  20.034  22.177  10.896
88289W        W52013   5.870  24.495   4.618
88290W        W52014   7.380  36.502  10.628
88291W        W52015  32.634  37.883   1.856
88292W        W52016  15.753  38.976  12.880
88293W        W52017  18.677  43.408   4.623
88294W        W52018  11.629  27.581   0.320
88295W        W52019  19.167  37.970   2.185
88296W        W52020  29.920  41.818   2.777
88297W        W52021  22.078   7.243  12.971
88298W        W52022  39.467  30.137  14.449
88299W        W52023  26.102   9.394   0.419
88300W        W52024  31.547  34.088  13.461
88301W        W52025  34.971  31.045  13.346
88302W        W52026  26.516  23.570   9.929
88303W        W52027  17.257  18.296  14.811
88304W        W52028  10.362  44.987   0.438
88305W        W52029  30.122  39.930   1.430
88306W        W52030  15.198  19.543   3.822
88307W        W52031  41.887   6.723  12.503
88308W        W52032   0.261  41.011  10.618
88309W        W52033  35.918  18.224   0.758
88310W        W52034  18.209  37.359   4.232
88311W        W52035  23.539   0.341  14.382
88312W        W52036   8.693  35.499  13.447
88313W        W52037  11.254   3.327  13.443
88314W        W52038   9.209  25.005   2.698
88315W        W52039  15.274  42.508  11.943
88316W        W52040  19.570  29.495  13.835
88317W        W52041  44.443  41.914   1.777
88318W        W52042  15.797  18.099  14.278
88319W        W52043  44.802  19.251   2.873
88320W        W52044  39.375   5.838   0.942
88321W        W52045  13.156   1.924  12.576
88322W        W52046  14.307  21.728  12.446
88323W        W52047  44.463  20.706   4.293
88324W        W52048  15.740  31.438  13.381
88325W        W52049  35.914  20.636  14.288
88326W        W52050  25.700  42.847  11.518
88327W        W52051  18.679  32.542  11.871
88328W        W52052  12.132  33.069  11.399
88329W        W52053  27.565  28.929  14.960
88330W        W52054  20.653  44.880   2.277
88331W        W52055  12.275  33.611   1.788
88332W        W52056  13.804  44.777  12.393
88333W        W52057  44.404  23.507  14.343
88334W        W52058   1.884  25.963   3.357
88335W        W52059  32.436  28.507  12.881
88336W        W52060   8.886   4.335   0.298
88337W        W52061  10.686   2.902   2.721
88338W        W52062  37.858  23.596   4.648
88339W        W52063  20.172  16.739   0.735
88340W        W52064   1.927   6.708   0.832
88341W        W52065  43.395  23.588   4.173
88342W        W52066  14.656  43.436   4.229
88343W        W52067  20.182  25.536   0.364
88344W        W52068  44.316   0.914   4.257
88345W        W52069   1.931  43.975  14.478
88346W        W52070  12.701  28.086  14.020
88347W        W52071  20.138  22.568  11.442
88348W        W52072  42.344  13.204  10.459
88349W        W52073   0.958  15.748   3.701
88350W        W52074  39.370  18.571   2.745
88351W        W52075   2.267  38.849   0.738
88352W        W52076  30.944  37.395  11.911
88353W        W52077  20.744   1.957  14.443
88354W        W52078  19.625  29.627   4.655
88355W        W52079   0.779   7.209   0.959
88356W        W52080  35.576  23.235  14.348
88357W        W52081  36.997  42.423   3.654
88358W        W52082  34.911  42.966  14.923
88359W        W52083  38.959  16.637  13.346
88360W        W52084  36.092  11.220   3.236
88361W        W52085   6.728   4.350  10.505
88362W        W52086  32.557  37.409   3.383
88363W        W52087  13.599  38.048   2.896
88364W        W52088   2.956  26.654   2.267
88365W        W52089  13.137  11.791  12.026
88366W        W52090   4.901  14.321  12.354
88367W        W52091  25.563  35.944  10.421
88368W        W52092  11.736   9.651  10.509
88369W        W52093  34.544  20.571   2.896
88370W        W52094  31.136  40.964  14.929
88371W        W52095   9.385  41.904   3.645
88372W        W52096   6.807  29.119  14.356
88373W        W52097  33.613  34.385   2.280
88374W        W52098  30.110  21.579  10.969
88375W        W52099   7.777  18.106   4.133
88376W        W52100  27.615  39.408   3.221
88377W        W52101  32.990  23.137  13.397
88378W        W52102  41.933  16.239  11.490
88379W        W52103  13.128  17.645   2.389
88380W        W52104  38.522   0.845  13.922
88381W        W52105  20.264  16.249  12.066
88382W        W52106  14.285  10.206   5.208
88383W        W52107   5.291  23.676  11.911
88384W        W52108  35.024   3.245   4.758
88385W        W52109  33.069  16.259  13.930
88386W        W52110   8.807  18.565   4.735
88387W        W52111  26.091  22.593   1.827
88388W        W52112   0.288  21.144  11.986
88389W        W52113  32.965  15.217   2.753
88390W        W52114  22.081  32.947   4.211
88391W        W52115  41.957   2.467  12.479
88392W        W52116   6.306  30.065   2.204
88393W        W52117  36.432   1.364  11.070
88394W        W52118  39.548   1.863  12.073
88395W        W52119  14.118   7.247  14.366
88396W        W52120  42.966  30.111   3.859
88397W        W52121  25.664  33.006  11.972
88398W        W52122  38.926  44.907  11.470
88399W        W52123   6.722  21.206  14.274
88400W        W52124  19.179  38.910  13.412
88401W        W52125   5.334  35.050  12.350
88402W        W52126  40.343   1.428   0.753
88403W        W52127  40.323   7.242   4.768
88404W        W52128  28.138   3.309   3.675
88405W        W52129  12.678  19.654  13.028
88406W        W52130  20.695   2.843   0.448
88407W        W52131   5.834  15.714   3.735
88408W        W52132  38.929  32.479  11.494
88409W        W52133  18.263  13.618  14.457
88410W        W52134  37.937   1.783  12.082
88411W        W52135   4.870  32.909   4.343
88412W        W52136  36.973  32.060  11.888
88413W        W52137  27.690  20.166   0.428
88414W        W52138  15.208  13.227   2.198
88415W        W52139   6.765  31.460  12.061
88416W        W52140   9.390   3.801   2.253
88417W        W52141   1.881  10.311   2.784
88418W        W52142   4.813  42.498   3.644
88419W        W52143  29.004  34.958  10.897
88420W        W52144  30.484  24.540   1.798
88421W        W52145  11.218  10.843   4.278
88422W        W52146  26.471  41.467  12.065
88423W        W52147   0.974   2.440  11.892
88424W        W52148  36.890   4.714  11.553
88425W        W52149  39.335   1.400   0.752
88426W        W52150   5.693  40.816   0.409
88427W        W52151   6.287  43.981  13.051
88428W        W52152  41.887  20.748  12.559
88429W        W52153  27.671  16.694   3.285
88430W        W52154  18.719   1.245   4.654
88431W        W52155  11.848   9.318  14.014
88432W        W52156  17.720   1.805  12.965
88433W        W52157  35.074  34.569   2.191
88434W        W52158  24.598  44.836  14.371
88435W        W52159  15.689   7.807   1.327
88436W        W52160  17.086  43.892   0.957
88437W        W52161  27.601  37.868  11.116
88438W        W52162   4.418  20.661   1.755
88439W        W52163   5.756  41.877   4.294
88440W        W52164  13.170  11.157  10.595
88441W        W52165  29.930  20.186  13.931
88442W        W52166  24.054  39.536  12.487
88443W        W52167  27.520   6.852  12.936
88444W        W52168  38.357  43.021   0.734
88445W        W52169  21.579  10.723  13.959
88446W        W52170   8.162   7.797   1.420
88447W        W52171  31.111   2.742  12.903
88448W        W52172  19.605  42.947   0.811
88449W        W52173  41.437  18.587  10.500
88450W        W52174  18.167  13.209  11.069
88451W        W52175  23.590   6.887   1.422
88452W        W52176  42.453   8.857  12.546
88453W        W52177  37.381  12.330   0.845
88454W        W52178  30.416  38.009   0.340
88455W        W52179  30.984  21.221  10.537
88456W        W52180  34.056  37.930   4.170
88457W        W52181   7.233  22.185   2.713
88458W        W52182  15.620  41.014   1.732
88459W        W52183  41.901  15.192   1.415
88460W        W52184   8.225  38.049  13.491
88461W        W52185  16.812  33.395  12.460
88462W        W52186  27.180  18.267  11.462
88463W        W52187  23.675  29.608  12.071
88464W        W52188   0.378  42.304   0.417
88465W        W52189  19.112  35.454   4.134
88466W        W52190  36.867  34.561  10.468
88467W        W52191   8.823  32.407   3.708
88468W        W52192   0.472  14.175  14.975
88469W        W52193   7.386  39.039   4.123
88470W        W52194   4.886   3.234  14.465
88471W        W52195  30.030   4.326   1.717
88472W        W52196  33.898  11.855   3.762
88473W        W52197  30.537  31.059  14.850
88474W        W52198  27.941  20.613  13.475
88475W        W52199  36.485  17.691   4.205
88476W        W52200  32.610  37.554   4.784
88477W        W52201  25.533   3.236  11.883
88478W        W52202  18.754   0.960   4.160
88479W        W52203  41.036  41.037  14.364
88480W        W52204  38.871  22.668   1.924
88481W        W52205  27.570  21.119  12.365
88482W        W52206  36.035  25.992   4.290
88483W        W52207  19.652  19.069  10.598
88484W        W52208  35.029  26.546  10.549
88485W        W52209  26.158  24.592  14.846
88486W        W52210  29.941  38.851   3.827
88487W        W52211  11.855  13.842  13.829
88488W        W52212  39.839  39.058   0.767
88489W        W52213   4.748  21.720   3.323
88490W        W52214  29.546  39.510  14.878
88491W        W52215  16.309   3.904  12.542
88492W        W52216  44.825   6.746  12.381
88493W        W52217  32.463  27.016  10.558
88494W        W52218  30.443  10.686  14.473
88495W        W52219  17.128  28.963   0.939
88496W        W52220  13.685  36.091  13.453
88497W        W52221  28.039  13.663   4.672
88498W        W52222  11.128  28.080  11.443
88499W        W52223  17.071  44.947  12.431
88500W        W52224  10.348  18.619  11.037
88501W        W52225  27.683  24.201   0.795
88502W        W52226  25.219  34.052   2.705
88503W        W52227  11.180  41.024  13.979
88504W        W52228  23.012  20.152  14.031
88505W        W52229  30.980  33.073  14.027
88506W        W52230  38.868   4.755  10.575
88507W        W52231   0.338  37.427  14.917
88508W        W52232  32.097  21.138   5.188
88509W        W52233   8.713   5.887   1.815
88510W        W52234  15.274  18.094   3.719
88511W        W52235  38.993   0.786  10.568
88512W        W52236   4.236  28.657  11.045
88513W        W52237  31.979  13.737   2.851
88514W        W52238  11.806  13.718  14.905
88515W        W52239  24.013  43.826   2.320
88516W        W52240   6.806  22.564  13.039
88517W        W52241   2.834   7.362   3.196
88518W        W52242  44.485  27.183  13.038
88519W        W52243  14.214  34.886   3.648
88520W        W52244  34.476  25.096  11.560
88521W        W52245   6.832   9.265   2.372
88522W        W52246  27.648  42.396   3.363
88523W        W52247   1.383  28.013   0.357
88524W        W52248   7.753  24.630  10.516
88525W        W52249  21.106  44.452  11.900
88526W        W52250  11.794  40.980  13.395
88527W        W52251   6.837  30.093   0.837
88528W        W52252  41.893  21.193  13.864
88529W        W52253   0.811   0.373  13.507
88530W        W52254  17.124  11.172  11.451
88531W        W52255   1.424  39.938   4.310
88532W        W52256  24.666  19.740  14.290
88533W        W52257  35.997  27.593  12.579
88534W        W52258  12.653  19.763   4.831
88535W        W52259  26.606   2.428  11.034
88536W        W52260  41.338   0.967   4.784
88537W        W52261  25.211   2.286   1.323
88538W        W52262  38.421  35.484  12.404
88539W        W52263  30.597  12.312  13.539
88540W        W52264  21.166  36.092   4.274
88541W        W52265   3.753  32.495   2.766
88542W        W52266   4.366   8.832  11.119
88543W        W52267  31.478  22.109  14.985
88544W        W52268  19.640   5.856  11.078
88545W        W52269  17.629   2.861   2.758
88546W        W52270  44.363   9.740  13.317
88547W        W52271  29.531  25.145   3.819
88548W        W52272  41.432  39.979  14.318
88549W        W52273  18.768   5.907  13.791
88550W        W52274  40.315  17.120   4.763
88551W        W52275  27.003  12.651   1.812
88552W        W52276  42.317  10.309  14.503
88553W        W52277   3.831  40.513  14.288
88554W        W52278   0.486  25.194   1.332
88555W        W52279  16.792   8.827  12.922
88556W        W52280  44.364  13.199   2.403
88557W        W52281  34.592  13.838  14.403
88558W        W52282  36.592  32.411  10.602
88559W        W52283  22.117  32.004  11.403
88560W        W52284  19.204  21.173  13.462
88561W        W52285  43.322  43.277  13.982
88562W        W52286  27.165   3.363  10.430
88563W        W52287  16.199  13.715  11.920
88564W        W52288  43.873  17.656   2.315
88565W        W52289  10.826  42.962   1.326
88566W        W52290  32.566  23.614   4.146
88567W        W52291  22.061  43.911   0.760
88568W        W52292  30.582  22.666   2.872
88569W        W52293  37.540  18.568  14.812
88570W        W52294  33.035  35.383  13.896
88571W        W52295   9.648  30.627   0.287
88572W        W52296   1.769   7.882   1.732
88573W        W52297  19.215  16.234   4.265
88574W        W52298   9.645   9.839  11.497
88575W        W52299  37.473   3.877   2.413
88576W        W52300  39.943  30.598   1.240
88577W        W52301  41.499  16.234  10.898
88578W        W52302   6.408  44.816   1.347
88579W        W52303   6.384  39.852  11.399
88580W        W52304  20.587  26.589   2.842
88581W        W52305  24.200   9.877  14.926
88582W        W52306  42.357  43.442  13.980
88583W        W52307   7.259  41.952   1.419
88584W        W52308  14.125  35.887   3.846
88585W        W52309  39.415  32.618  12.373
88586W        W52310  30.965  34.888  14.436
88587W        W52311  34.058  42.779  11.952
88588W        W52312  27.968  13.143  14.884
88589W        W52313  16.765  35.997  10.484
88590W        W52314  25.689  19.687   4.119
88591W        W52315   7.669   1.848   3.667
88592W        W52316  36.447  32.908   1.931
88593W        W52317  39.452   5.929  14.962
88594W        W52318  11.667  16.312   4.319
88595W        W52319  40.943  34.066   2.676
88596W        W52320  38.428  22.664   4.605
88597W        W52321  23.987  39.821   0.920
88598W        W52322  33.964  31.079   4.634
88599W        W52323  23.498   5.425   3.674
88600W        W52324  20.699  21.219  14.323
88601W        W52325  41.811  19.046   4.649
88602W        W52326  41.351  42.326  13.854
88603W        W52327  37.945  18.282   1.850
88604W        W52328  14.152  11.775   1.814
88605W        W52329   7.674  25.692  11.915
88606W        W52330  10.164  10.220   5.253
88607W        W52331   7.793  13.776  10.897
88608W        W52332  42.365  33.542   1.920
88609W        W52333   7.171  44.841  10.905
88610W        W52334  36.093  32.515   4.629
88611W        W52335  39.512  17.170  13.020
88612W        W52336   5.829  38.340  13.948
88613W        W52337   6.338  36.927  13.874
88614W        W52338   4.405  19.282  14.943
88615W        W52339  27.042  10.153  14.423
88616W        W52340  19.690   0.288  11.418
88617W        W52341  43.905  39.027  10.112
88618W        W52342  11.662  38.911   3.253
88619W        W52343  34.450   8.392  13.433
88620W        W52344  26.045   8.667  13.402
88621W        W52345  22.020  10.310  11.599
88622W        W52346   6.775  41.359   1.880
88623W        W52347  39.878   9.791   4.828
88624W        W52348   3.325   1.479  14.947
88625W        W52349   6.694  27.580  12.385
88626W        W52350  32.003  15.823  12.371
88627W        W52351  20.134  17.768   9.634
88628W        W52352  20.665  27.656   2.247
88629W        W52353  35.857   2.866  10.472
88630W        W52354   7.196  32.930  14.451
88631W        W52355  36.382   5.198   4.692
88632W        W52356  33.617  13.330   4.825
88633W        W52357  39.459  20.674   0.777
88634W        W52358  13.745  31.055   1.296
88635W        W52359  11.729  34.582   2.741
88636W        W52360  19.692   7.356   1.913
88637W        W52361  40.436   7.296  11.053
88638W        W52362   4.302  32.943   2.342
88639W        W52363  41.320  12.254   0.365
88640W        W52364   3.948  26.673  10.467
88641W        W52365   5.738   0.823   4.711
88642W        W52366   5.876  29.112   2.819
88643W        W52367  30.056  15.594  11.001
88644W        W52368   1.368  28.472   2.288
88645W        W52369  43.004  17.620   2.308
88646W        W52370  26.667  34.929   2.194
88647W        W52371   3.730  15.192   1.893
88648W        W52372  16.253  38.927   2.208
88649W        W52373  24.039   3.763  13.455
88650W        W52374  18.187  34.519  11.905
88651W        W52375  12.139  13.106  12.865
88652W        W52376  24.032  23.539  11.061
88653W        W52377  11.154   2.326   0.261
88654W        W52378  24.516  15.139  12.464
88655W        W52379   8.736  21.594   4.250
88656W        W52380  19.047  19.134   4.158
88657W        W52381  21.672  21.211  10.519
88658W        W52382  22.997  32.564   4.658
88659W        W52383  10.169  32.417   3.163
88660W        W52384  24.609   6.821   1.891
88661W        W52385  12.178   5.823   3.858
88662W        W52386   1.325  43.304  14.455
88663W        W52387  33.476  17.624  11.460
88664W        W52388  44.296   7.694   4.678
88665W        W52389  37.580  40.883   1.845
88666W        W52390  11.660   4.791  12.377
88667W        W52391  10.684   4.258   4.650
88668W        W52392   1.954  33.943   2.891
88669W        W52393  32.022  41.991   3.371
88670W        W52394  17.581   3.259   1.697
88671W        W52395  16.785   9.337  12.883
88672W        W52396  25.970   9.687   3.372
88673W        W52397   2.348   2.469   3.161
88674W        W52398   1.271   4.244   2.772
88675W        W52399  27.685  32.139   0.950
88676W        W52400  12.815  32.523  13.880
88677W        W52401   3.300  43.501   1.785
88678W        W52402  28.672  24.602   3.664
88679W        W52403  24.592  22.531   0.458
88680W        W52404   8.184   0.932   4.800
88681W        W52405  22.086  11.264   4.349
88682W        W52406  33.537  29.424   0.908
88683W        W52407  44.838  42.921  11.588
88684W        W52408  31.997  39.028   4.713
88685W        W52409  33.495  11.145  12.021
88686W        W52410  40.398  32.417  10.561
88687W        W52411  37.363  13.677   1.897
88688W        W52412  17.703   5.282  10.438
88689W        W52413  18.572  44.837   1.807
88690W        W52414  36.004   1.261  11.392
88691W        W52415  27.105  40.929   2.791
88692W        W52416  29.522  22.096  11.001
88693W        W52417  31.031  36.852   4.805
88694W        W52418  27.089  22.680   1.320
88695W        W52419  31.069  35.935  10.512
88696W        W52420  27.105  13.684   1.708
88697W        W52421  34.557  22.696   0.956
88698W        W52422   5.355  11.360  12.396
88699W        W52423   5.364  29.168  11.387
88700W        W52424  43.787   9.210  13.945
88701W        W52425   9.818   2.438  14.336
88702W        W52426  34.889  14.635   1.714
88703W        W52427  21.632   9.326   2.237
88704W        W52428  40.913  25.503  10.896
88705W        W52429  40.402  43.383  13.427
88706W        W52430  24.012  42.814   4.202
88707W        W52431  14.182   2.909   5.730
88708W        W52432  16.629  32.564   1.388
88709W        W52433   6.288  31.091   2.822
88710W        W52434   1.797  10.237  11.877
88711W        W52435  15.592   1.965  14.380
88712W        W52436  39.416   8.366   4.646
88713W        W52437  31.044  20.169  14.832
88714W        W52438  23.114  15.716   0.353
88715W        W52439  43.472  37.481  12.878
88716W        W52440  40.839  40.813   2.710
88717W        W52441  23.506  13.756   0.963
88718W        W52442  44.845  40.857  14.868
88719W        W52443  17.185   4.795   3.340
88720W        W52444  27.975   2.279   4.255
88721W        W52445  30.941  28.033   0.398
88722W        W52446  17.088  38.913   5.321
88723W        W52447  35.417  35.944  14.852
88724W        W52448  13.337  41.421  11.418
88725W        W52449   6.316  41.298  10.477
88726W        W52450  23.123  39.825  13.903
88727W        W52451   6.298  12.726   3.273
88728W        W52452  43.925   8.804   3.645
88729W        W52453  14.820  23.681   4.636
88730W        W52454   4.907   4.337  14.962
88731W        W52455  37.862  32.924  11.591
88732W        W52456  37.346  14.203  10.128
88733W        W52457  40.394  27.529  10.426
88734W        W52458  43.487  22.208  12.074
88735W        W52459  12.116  13.293  13.796
88736W        W52460   7.819  10.201   3.811
88737W        W52461  36.919   6.762  11.386
88738W        W52462  36.479  14.230   2.311
88739W        W52463  36.485  33.130  10.482
88740W        W52464  22.227   9.643  14.413
88741W        W52465   1.761   9.232  11.114
88742W        W52466  31.050  41.800   0.291
88743W        W52467   9.840  34.390   3.673
88744W        W52468  14.623  20.118  10.986
88745W        W52469   0.790  41.439  12.439
88746W        W52470  35.909  13.749   5.159
88747W        W52471  24.613  16.700   4.188
88748W        W52472  21.746  37.414   4.145
88749W        W52473  37.567  12.161  10.557
88750W        W52474  17.144  21.152   3.173
88751W        W52475  16.686   6.885  14.288
88752W        W52476  25.493  24.144  12.505
88753W        W52477   9.198  12.246   1.285
88754W        W52478  25.179  12.736  12.380
88755W        W52479   4.917  36.365   2.796
88756W        W52480  26.487  25.023   2.234
88757W        W52481   8.172  17.651   1.834
88758W        W52482  14.684  27.045  14.432
88759W        W52483  22.672  29.595   3.666
88760W        W52484  24.192  31.537  12.549
88761W        W52485  24.161  15.581   0.476
88762W        W52486  12.321   9.669   1.350
88763W        W52487  18.669  12.850  14.021
88764W        W52488  36.935  43.800   3.690
88765W        W52489  16.090   5.296  11.107
88766W        W52490  27.555  36.900   3.838
88767W        W52491  22.117  33.513   2.802
88768W        W52492  41.355   4.745  11.531
88769W        W52493  17.755  31.923  11.102
88770W        W52494  43.853  18.571   4.778
88771W        W52495  36.504  29.007  10.517
88772W        W52496  25.104  23.526   0.799
88773W        W52497  32.911  43.328  14.328
88774W        W52498   3.903  18.292   4.701
88775W        W52499  28.531  29.125  12.373
88776W        W52500  44.442  17.063  13.514
88777W        W52501  19.057   5.811   0.372
88778W        W52502  26.051  20.201  12.984
88779W        W52503  32.136   8.233  11.028
88780W        W52504  13.256  17.188   3.675
88781W        W52505   8.200  28.609  11.079
88782W        W52506  39.037  27.978   0.805
88783W        W52507  41.299  23.515   4.129
88784W        W52508   2.731  36.087   1.924
88785W        W52509  25.586  36.591  14.835
88786W        W52510  38.008   7.846   3.694
88787W        W52511  34.997  18.680   1.892
88788W        W52512  24.542  10.872   1.435
88789W        W52513  42.354  36.549   1.270
88790W        W52514   1.279   7.237  13.913
88791W        W52515  24.072   2.961   3.334
88792W        W52516  19.055  41.443  10.451
88793W        W52517  14.171   8.210  12.027
88794W        W52518  12.760  18.743  13.391
88795W        W52519  21.736   2.309   3.712
88796W        W52520  28.983  32.082   0.416
88797W        W52521   1.428  12.793   3.169
88798W        W52522   3.712  37.911  12.508
88799W        W52523  11.266  24.109  11.017
88800W        W52524  31.082   3.369   5.241
88801W        W52525   3.915  28.575  11.858
88802W        W52526  33.102   3.291  11.590
88803W        W52527   1.787  20.240   2.665
88804W        W52528  28.054  34.119   4.674
88805W        W52529  32.561   3.359   3.265
88806W        W52530   4.279  28.631   3.654
88807W        W52531  31.452  21.106  11.972
88808W        W52532  10.283   4.794  12.510
88809W        W52533  39.540  28.170  13.969
88810W        W52534  10.268   1.740  13.414
88811W        W52535  12.797   8.688   2.379
88812W        W52536  27.953  41.384  13.805
88813W        W52537  24.207   7.354   0.371
88814W        W52538   4.323  44.461  14.839
88815W        W52539  21.153  21.597  12.040
88816W        W52540  17.768  32.986  10.932
88817W        W52541  13.211  29.932  14.987
88818W        W52542  17.066  37.424   4.608
88819W        W52543  38.483   8.393   2.368
88820W        W52544  30.108  31.089   2.403
88821W        W52545  41.921  11.819  14.007
88822W        W52546  15.163  26.472   1.419
88823W        W52547  43.422  43.980   1.268
88824W        W52548  42.991  30.086  12.558
88825W        W52549  24.537  36.055   1.920
88826W        W52550  21.638  27.526  14.861
88827W        W52551  32.580  31.016   4.835
88828W        W52552  13.730  14.100  14.482
88829W        W52553  23.490  29.475   3.235
88830W        W52554  43.349   7.776  11.376
88831W        W52555  10.381   2.898  10.415
88832W        W52556  11.834  11.787  10.925
88833W        W52557  34.918  43.408   3.147
88834W        W52558  17.202  34.605  11.594
88835W        W52559  39.822  40.981   3.818
88836W        W52560  36.382  25.682   0.902
88837W        W52561  20.563  26.604  13.529
88838W        W52562  14.707   4.758  12.851
88839W        W52563  29.650  15.667  13.310
88840W        W52564   2.733   9.382  12.508
88841W        W52565  21.155   3.794  11.513
88842W        W52566  11.658  12.700  12.471
88843W        W52567  17.700  35.581  11.484
88844W        W52568  24.107  43.002  10.614
88845W        W52569   3.761  43.504  11.026
88846W        W52570  10.691  30.078  14.331
88847W        W52571  42.984  13.822  13.541
88848W        W52572  33.026  15.771   3.366
88849W        W52573  34.596   0.793  10.578
88850W        W52574   0.371  13.205  12.531
88851W        W52575  30.431   2.815   2.370
88852W        W52576  10.648  15.747   3.176
88853W        W52577   4.699   0.374   2.792
88854W        W52578  44.412  17.199  12.891
88855W        W52579  14.789   5.729   1.390
88856W        W52580  36.355  26.962  13.352
88857W        W52581   5.412  16.259   3.659
88858W        W52582  27.014  14.224   1.357
88859W        W52583   2.795  36.963  10.514
88860W        W52584  19.635  15.109  13.419
88861W        W52585   7.233  18.550  12.881
88862W        W52586  40.994   6.248  13.021
88863W        W52587  25.086   7.186   3.146
88864W        W52588  43.300   8.723   2.298
88865W        W52589  20.592   3.727  13.043
88866W        W52590  37.529  14.141  14.852
88867W        W52591  33.881   4.359  13.971
88868W        W52592  20.763  14.810  13.043
88869W        W52593  14.759  41.474   5.120
88870W        W52594  38.453   8.366   3.347
88871W        W52595  15.327  36.926   3.637
88872W        W52596   7.298  22.065  11.927
88873W        W52597  41.847  33.499   5.678
88874W        W52598  35.470  10.831  14.995
88875W        W52599  10.636   7.804   1.767
88876W        W52600  30.466  17.096  14.303
88877W        W52601  21.588  27.020   0.836
88878W        W52602  12.856  44.837   3.860
88879W        W52603   3.800  37.582   3.757
88880W        W52604  23.144  22.143  10.923
88881W        W52605   0.432  12.651   1.809
88882W        W52606  41.491   8.729  14.012
88883W        W52607   6.707  37.899  11.110
88884W        W52608  23.036  43.918  10.601
88885W        W52609   1.734  44.835   2.257
88886W        W52610  16.180   3.451   2.700
88887W        W52611  28.941  39.416   0.822
88888W        W52612  38.955  27.141   3.311
88889W        W52613  37.864  38.876   0.291
88890W        W52614   7.698  10.794   0.867
88891W        W52615  27.500  37.839  13.011
88892W        W52616  22.140  39.856   1.225
88893W        W52617   3.428  40.367  10.940
88894W        W52618  24.105  29.016   3.367
88895W        W52619  34.382  32.609  11.885
88896W        W52620  22.149  10.697   3.338
88897W        W52621   0.267   5.196  14.325
88898W        W52622   8.851  26.503   2.403
88899W        W52623   0.778   4.386   0.879
88900W        W52624  39.464  28.662  13.345
88901W        W52625   4.293   0.761  12.990
88902W        W52626   1.803  13.768   2.382
88903W        W52627   9.167  29.564  13.990
88904W        W52628  26.499   0.870  14.820
88905W        W52629  27.540   3.410  11.437
88906W        W52630  10.691  11.351   2.296
88907W        W52631  24.150  27.648  10.632
88908W        W52632  34.050  20.104   0.828
88909W        W52633  20.179  15.777   1.316
88910W        W52634   9.767  12.186   3.154
88911W        W52635  41.411  13.601  10.958
88912W        W52636  18.157  43.391   2.699
88913W        W52637   2.818  10.288   1.233
88914W        W52638  43.311  43.286   1.702
88915W        W52639  10.656  12.829   4.182
88916W        W52640  24.132  40.955   0.270
88917W        W52641  14.792   1.857   5.162
88918W        W52642  43.292  34.979   0.350
88919W        W52643   1.379  16.737   3.274
88920W        W52644  23.003   0.408   4.753
88921W        W52645  36.534  35.021   0.361
88922W        W52646   0.450  32.469  13.951
88923W        W52647  13.720  22.124  14.882
88924W        W52648  17.145  12.342   0.777
88925W        W52649   3.329  13.115  14.307
88926W        W52650  31.488  40.422  10.522
88927W        W52651   1.788  29.029  13.791
88928W        W52652  35.375  41.474   3.688
88929W        W52653  19.633  12.198  12.897
88930W        W52654  21.559  10.297  13.460
88931W        W52655   9.679  36.356   4.196
88932W        W52656  22.051  22.646   4.346
88933W        W52657  10.752  38.493  12.879
88934W        W52658  38.891  16.316  14.505
88935W        W52659   6.861  43.343   2.788
88936W        W52660   0.366  24.054  11.035
88937W        W52661   0.963  21.080   2.893
88938W        W52662  43.451  12.237   0.461
88939W        W52663  19.767  33.546  12.367
88940W        W52664   7.229  16.757  10.924
88941W        W52665  25.056  41.948   4.325
88942W        W52666   0.343  15.099   1.816
88943W        W52667  35.556  24.053  12.342
88944W        W52668  28.154  34.473   4.631
88945W        W52669  22.045  27.500   1.418
88946W        W52670  41.473  13.123  11.529
88947W        W52671  16.215   4.310  12.880
88948W        W52672  11.184  43.288   4.350
88949W        W52673  29.002   8.346   2.191
88950W        W52674  30.448  13.344  11.864
88951W        W52675   9.735   0.973   1.707
88952W        W52676  32.101  25.144  10.465
88953W        W52677  35.474  27.518  13.451
88954W        W52678  27.660  30.614   1.827
88955W        W52679   3.806  41.939  13.827
88956W        W52680  21.188   4.730  10.023
88957W        W52681  15.195  22.641   0.296
88958W        W52682   9.280   4.776  10.433
88959W        W52683  21.051  26.109   1.779
88960W        W52684  39.831  32.456   2.748
88961W        W52685  44.486  18.579  11.988
88962W        W52686  30.587  39.518  14.947
88963W        W52687  27.194  34.063   2.854
88964W        W52688  12.615  27.188  14.931
88965W        W52689  28.576  23.517  13.867
88966W        W52690  11.629  44.259  14.859
88967W        W52691  43.332   0.421  14.287
88968W        W52692   2.950  37.031   4.232
88969W        W52693  38.953  22.058   1.341
88970W        W52694  10.853  33.083  10.541
88971W        W52695  37.831  19.542   0.470
88972W        W52696  34.867   5.921   2.331
88973W        W52697  13.749  34.468   2.680
88974W        W52698   2.804   8.173  10.513
88975W        W52699  36.434  35.417   0.761
88976W        W52700  26.555  21.217   0.879
88977W        W52701   9.806  41.491   2.247
88978W        W52702  26.112  24.661  11.894
88979W        W52703   1.410  14.318  10.633
88980W        W52704  11.263   2.433  14.800
88981W        W52705  25.120   1.282   3.271
88982W        W52706  26.510  22.595   4.169
88983W        W52707  25.028  26.958  12.909
88984W        W52708  11.768  30.958  14.894
88985W        W52709   1.929  41.313  11.582
88986W        W52710  27.064  32.985  14.952
88987W        W52711   7.739  22.106  14.370
88988W        W52712  30.560   8.769  12.035
88989W        W52713  22.188  13.842   3.213
88990W        W52714  33.481   0.403   4.186
88991W        W52715  10.223  13.299   1.893
88992W        W52716  13.304  40.957   4.131
88993W        W52717  30.502  30.125   3.636
88994W        W52718  36.967  40.930   3.324
88995W        W52719  13.792   1.945   0.727
88996W        W52720  23.724  11.185  14.942
88997W        W52721  38.328  36.041  14.934
88998W        W52722  10.860   5.384  11.374
88999W        W52723   8.655  23.187  11.578
89000W        W52724  23.995  43.480   3.203
89001W        W52725  32.955   7.802  11.598
89002W        W52726  27.005  44.320   0.821
89003W        W52727  21.728  41.334  13.967
89004W        W52728  16.707  41.506   1.385
89005W        W52729   3.281  19.149  10.459
89006W        W52730  36.898  20.665   2.307
89007W        W52731  19.574  10.199   3.286
89008W        W52732  24.589  31.438  10.914
89009W        W52733   0.423  14.177  13.798
89010W        W52734  43.783   4.796   4.246
89011W        W52735  17.297  43.516   1.264
89012W        W52736  10.211  33.581  13.822
89013W        W52737  38.413  41.986  14.765
89014W        W52738  12.177  39.404   3.765
89015W        W52739  36.556  37.947   0.405
89016W        W52740   8.680  32.629  12.511
89017W        W52741  22.043  35.033   1.398
89018W        W52742  15.197  13.236   3.185
89019W        W52743  30.592  19.111   2.261
89020W        W52744  36.411   2.276   3.285
89021W        W52745  39.035   3.746  12.926
89022W        W52746  28.008  28.933  10.425
89023W        W52747  34.082  34.110   4.692
89024W        W52748  39.858  43.787  14.900
89025W        W52749  28.542  41.933  14.871
89026W        W52750  10.306   0.268  14.812
89027W        W52751  25.134  40.855  14.444
89028W        W52752  12.653  31.425  12.510
89029W        W52753  43.825  33.878   4.768
89030W        W52754  28.645  18.199  11.917
89031W        W52755  27.645  33.610   2.844
89032W        W52756  27.637  22.550  13.310
89033W        W52757  33.386  33.402   1.352
89034W        W52758  31.644  20.751   4.192
89035W        W52759   9.334  43.451  10.943
89036W        W52760  11.253  41.426   2.416
89037W        W52761  43.402  13.676  13.477
89038W        W52762   4.339   2.262   2.886
89039W        W52763  25.584  17.209  12.896
89040W        W52764   9.691  31.981  10.497
89041W        W52765  35.409  26.625  14.841
89042W        W52766  13.645  44.481   3.841
89043W        W52767  28.604  38.885   2.411
89044W        W52768  32.045  25.118   2.879
89045W        W52769  34.516  15.219  11.552
89046W        W52770  21.234  33.397  10.078
89047W        W52771  29.471  31.978   3.636
89048W        W52772  14.809  35.469  13.948
89049W        W52773  31.971  44.957   2.826
89050W        W52774   4.888  15.249  14.769
89051W        W52775  25.056  21.239   4.635
89052W        W52776  28.947  43.471   0.304
89053W        W52777  23.575  31.053  10.632
89054W        W52778  20.256  18.704  11.950
89055W        W52779   9.187   8.349   2.414
89056W        W52780  12.178  26.494  13.999
89057W        W52781  37.045  36.045   2.806
89058W        W52782   6.739  30.932  14.899
89059W        W52783  19.632   2.280   3.351
89060W        W52784  27.997  42.303   1.737
89061W        W52785  42.016   8.226   2.385
89062W        W52786  14.629  41.350   3.680
89063W        W52787   7.205  24.497   2.864
89064W        W52788  17.212   9.170   4.801
89065W        W52789  10.310   7.684  10.425
89066W        W52790   5.848  23.501  12.461
89067W        W52791  14.321  27.628  14.385
89068W        W52792  18.118  29.986   2.711
89069W        W52793   6.382  41.307   5.148
89070W        W52794  21.751  14.206   1.739
89071W        W52795   9.179   9.868   3.803
89072W        W52796  29.510  37.879  11.560
89073W        W52797  34.898  19.146  12.034
89074W        W52798  34.446  39.416  13.036
89075W        W52799  40.973  36.921  10.936
89076W        W52800   4.819  29.158   0.912
89077W        W52801  36.490  14.105   3.345
89078W        W52802   6.910  40.525  10.926
89079W        W52803  23.631  15.259  10.446
89080W        W52804  14.324  38.959   4.809
89081W        W52805  11.752  37.377  14.839
89082W        W52806  25.015  22.223   1.910
89083W        W52807  28.506   2.721  12.345
89084W        W52808   2.391  38.334  12.847
89085W        W52809  27.641  18.638   4.185
89086W        W52810  33.383  20.652  10.449
89087W        W52811   8.896  39.444   1.427
89088W        W52812  18.617  11.820   3.760
89089W        W52813  17.732  31.114   3.752
89090W        W52814  35.923   1.943   3.379
89091W        W52815  43.969  24.587   0.428
89092W        W52816  30.056   1.943  12.387
89093W        W52817  23.714   1.319  13.349
89094W        W52818  43.970   0.750   1.347
89095W        W52819  10.244  38.020   4.668
89096W        W52820  32.619   1.274   0.825
89097W        W52821  13.741   5.195   3.238
89098W        W52822   1.761  21.120  12.947
89099W        W52823  43.448  21.631   5.086
89100W        W52824  43.780  39.560  13.387
89101W        W52825  24.663  23.229  13.390
89102W        W52826  27.612   7.406  13.389
89103W        W52827  32.054  21.166  10.999
89104W        W52828   3.910   6.308  13.839
89105W        W52829   5.920  41.434  12.460
89106W        W52830  18.136  23.548   1.811
89107W        W52831  37.472  13.231  10.440
89108W        W52832  38.985   6.191   1.441
89109W        W52833   2.851  17.745  10.560
89110W        W52834  13.172  23.664  11.402
89111W        W52835  17.158  10.838   0.834
89112W        W52836   7.268  11.187  14.995
89113W        W52837  21.576  44.807   3.158
89114W        W52838  26.129  27.086  12.022
89115W        W52839   0.368  12.115   0.478
89116W        W52840  17.721  37.442   2.265
89117W        W52841  33.004  32.124  12.922
89118W        W52842  44.501   6.258  13.922
89119W        W52843  33.114  25.009   3.330
89120W        W52844   5.399  41.370  12.448
89121W        W52845  34.528  29.958  14.494
89122W        W52846  38.991  11.145   3.765
89123W        W52847   0.291  22.234  10.461
89124W        W52848  32.401  20.239   0.824
89125W        W52849  23.188  36.991  12.831
89126W        W52850  20.167  42.410   0.428
89127W        W52851  17.585   3.774  10.478
89128W        W52852   6.270  20.746  13.548
89129W        W52853   6.271  26.588   3.353
89130W        W52854  10.655  13.217   2.189
89131W        W52855   3.853   1.852   1.284
89132W        W52856  17.798  17.209   0.402
89133W        W52857  25.171  35.574   4.748
89134W        W52858  26.134  34.874  10.419
89135W        W52859  38.463  37.957  12.853
89136W        W52860  31.593  14.215   4.142
89137W        W52861  10.653  10.777   2.867
89138W        W52862  39.904  40.945   1.268
89139W        W52863   7.752  36.541   0.834
89140W        W52864   8.362   4.921  11.396
89141W        W52865   5.930  42.505  14.820
89142W        W52866   5.842  43.423  12.511
89143W        W52867   3.777  15.272   0.385
89144W        W52868  16.293  37.927  14.503
89145W        W52869   8.836  31.914   2.374
89146W        W52870  39.533  16.604  11.046
89147W        W52871  33.475  17.128   4.150
89148W        W52872  39.546  18.057   2.219
89149W        W52873  39.007  26.014   1.734
89150W        W52874  21.727  32.109  14.306
89151W        W52875  22.621  10.238   3.240
89152W        W52876  14.792   9.876   1.318
89153W        W52877  36.497   0.409  10.610
89154W        W52878  17.781  12.777  13.376
89155W        W52879   9.392  33.470   1.879
89156W        W52880  12.208   6.905   2.765
89157W        W52881   3.440  32.135  10.027
89158W        W52882   6.809  26.662   1.328
89159W        W52883  41.842  12.727  14.913
89160W        W52884  34.442  21.027   0.410
89161W        W52885   1.475  33.569  14.404
89162W        W52886   1.838  32.976   3.775
89163W        W52887  19.715  29.920   2.713
89164W        W52888  29.493  19.239  11.076
89165W        W52889  44.886  44.950   4.355
89166W        W52890  21.114  22.547   4.286
89167W        W52891  42.979  27.605   0.475
89168W        W52892  11.684  27.465  14.965
89169W        W52893  24.588  28.957   0.749
89170W        W52894  26.200  30.033  10.929
89171W        W52895  43.483  32.415   4.205
89172W        W52896   3.711  19.652   3.311
89173W        W52897   2.905  19.082   0.824
89174W        W52898   9.737  37.477  14.020
89175W        W52899  16.634   3.877  14.516
89176W        W52900  44.888  19.202   3.318
89177W        W52901  12.207  15.714   3.684
89178W        W52902   8.241  16.768   0.265
89179W        W52903  34.554  35.477   2.251
89180W        W52904  16.629  15.092   1.367
89181W        W52905   2.721  26.505   4.341
89182W        W52906   9.273  23.123  11.385
89183W        W52907  19.231  37.071  11.895
89184W        W52908  28.502  34.521  10.958
89185W        W52909  44.421   6.847   3.683
89186W        W52910  23.062  43.390   0.335
89187W        W52911  41.024  28.587   1.707
89188W        W52912   9.705  24.055   4.227
89189W        W52913  10.692   9.844  10.504
89190W        W52914  29.076  41.337  12.429
89191W        W52915   9.267  33.039   3.754
89192W        W52916   2.762  13.711  11.602
89193W        W52917   7.759  41.366   5.131
89194W        W52918  17.199  17.721  13.005
89195W        W52919  41.526   0.848   3.714
89196W        W52920  10.810   0.272  13.017
89197W        W52921  12.203  27.569  14.829
89198W        W52922  29.496  27.113  13.052
89199W        W52923   0.266  24.075  14.826
89200W        W52924  17.222   0.959  13.321
89201W        W52925  12.801  13.677   3.303
89202W        W52926  33.432  31.642  11.009
89203W        W52927  37.914  34.908  13.975
89204W        W52928  32.580   7.721   4.228
89205W        W52929   6.192  24.571   2.876
89206W        W52930  34.501   9.188  10.501
89207W        W52931  14.662  30.128  13.881
89208W        W52932   7.901  20.149   4.798
89209W        W52933  23.063  44.487   3.844
89210W        W52934   4.280  40.420   4.205
89211W        W52935  21.591  18.650   1.292
89212W        W52936  39.939  13.329  12.041
89213W        W52937   1.254  25.122  11.126
89214W        W52938  33.973  28.624  13.032
89215W        W52939   9.704  25.472  11.996
89216W        W52940  19.266   0.906  10.570
89217W        W52941  43.834  25.702  14.323
89218W        W52942  20.090  38.886   2.246
89219W        W52943   7.816  32.038  13.518
89220W        W52944  43.957  31.942   0.824
89221W        W52945   9.667  26.580   3.299
89222W        W52946  44.487  14.102  14.428
89223W        W52947   6.293   8.900  10.618
89224W        W52948  28.978  28.514   1.695
89225W        W52949  16.216  21.729  13.983
89226W        W52950  39.857  20.177   4.748
89227W        W52951   4.931  22.084  12.482
89228W        W52952  37.844  34.602  11.437
89229W        W52953  43.473  22.206  14.489
89230W        W52954  32.909  27.009  12.855
89231W        W52955  36.578  26.579  10.473
89232W        W52956  31.454  26.536   2.835
89233W        W52957  33.470   3.425   1.721
89234W        W52958   1.732  17.556  14.828
89235W        W52959  19.094  10.224  12.363
89236W        W52960  26.033  33.019  12.535
89237W        W52961  41.016   3.295  10.617
89238W        W52962  30.620  31.022   0.852
89239W        W52963  31.024   5.352   2.774
89240W        W52964  20.046  42.913   5.305
89241W        W52965  21.129  41.795  12.352
89242W        W52966  32.075  29.081   2.303
89243W        W52967   2.257  29.656   0.869
89244W        W52968   3.792  38.370  11.956
89245W        W52969  42.281  11.656   2.241
89246W        W52970   5.290  32.942   4.665
89247W        W52971  27.167  19.141  10.977
89248W        W52972   5.237  22.133   1.732
89249W        W52973  19.751   8.208  10.949
89250W        W52974  34.413   7.873   0.380
89251W        W52975  23.520  19.534   3.833
89252W        W52976  20.151  23.009  14.028
89253W        W52977  18.070  37.879  13.429
89254W        W52978  35.984  33.579  10.585
89255W        W52979  32.610  12.749  14.901
89256W        W52980  19.216  33.944   1.421
89257W        W52981  37.831   8.701   0.770
89258W        W52982  40.800   4.700   1.384
89259W        W52983  18.692  10.641  12.014
89260W        W52984  27.964  30.919  13.347
89261W        W52985  20.562   0.373  11.122
89262W        W52986  14.613   5.762   2.888
89263W        W52987  44.417  16.205  14.871
89264W        W52988  13.811  33.477   1.905
89265W        W52989   3.443  29.452  12.007
89266W        W52990  25.697  38.446   0.791
89267W        W52991  21.671  27.167   3.369
89268W        W52992  21.582  42.475   9.943
89269W        W52993   8.327   8.166  12.823
89270W        W52994  28.161  27.118  13.522
89271W        W52995  19.226   0.438   1.702
89272W        W52996  10.209  34.566   4.348
89273W        W52997  25.176  39.454   3.247
89274W        W52998  18.678   1.463  11.401
89275W        W52999  28.464  34.453  13.327
89276W        W53000  31.071  11.767   4.145
89277W        W53001  17.308  24.007   2.376
89278W        W53002  34.974  19.216  13.866
89279W        W53003  35.106   2.962   3.773
89280W        W53004  20.625  11.834  12.884
89281W        W53005  17.680  43.324   3.741
89282W        W53006  30.150  15.257  14.840
89283W        W53007   6.715  15.613  12.826
89284W        W53008   9.830  32.485  12.409
89285W        W53009  44.984  15.199   2.773
89286W        W53010  18.646  22.235   0.852
89287W        W53011  39.466  44.303  10.407
89288W        W53012  24.000  41.340  11.599
89289W        W53013  25.099  21.731   0.376
89290W        W53014  42.947  31.453   2.200
89291W        W53015   5.435  17.128   4.299
89292W        W53016  43.473  20.719  10.643
89293W        W53017  26.117  32.605   1.243
89294W        W53018  16.261  37.509   4.182
89295W        W53019  20.523  42.010  12.550
89296W        W53020  32.059  21.723  13.384
89297W        W53021  44.278  38.469   1.719
89298W        W53022   8.785  27.559   2.789
89299W        W53023  42.337  42.385  12.957
89300W        W53024  21.023  22.601  11.573
89301W        W53025  39.860  35.007   2.338
89302W        W53026  17.602  26.155  12.470
89303W        W53027  14.835  16.211   2.414
89304W        W53028  41.961  19.064   0.867
89305W        W53029   2.445  27.548   1.357
89306W        W53030   9.766  11.314   3.768
89307W        W53031  42.323   4.792  10.427
89308W        W53032   0.304   0.805  14.972
89309W        W53033  32.632  21.076   1.926
89310W        W53034  30.624  10.779  12.886
89311W        W53035  41.823  24.536   1.860
89312W        W53036  22.735  12.300   4.247
89313W        W53037  17.796  12.213  11.011
89314W        W53038  42.944  44.359  12.877
89315W        W53039   8.738  29.587  10.439
89316W        W53040  30.553  34.964   2.796
89317W        W53041   5.372  23.703  13.929
89318W        W53042  29.118  28.639  12.404
89319W        W53043  41.025  21.250   5.239
89320W        W53044  14.328  13.161   4.116
89321W        W53045  14.657  25.656   4.193
89322W        W53046  12.699  24.482  12.491
89323W        W53047  13.265  25.481   4.274
89324W        W53048   5.207   1.751  11.416
89325W        W53049  27.964   8.897   3.787
89326W        W53050  10.366  17.172  12.580
89327W        W53051  19.736  17.130   4.233
89328W        W53052  32.468  34.875   4.242
89329W        W53053  34.464  41.425  12.339
89330W        W53054  42.029   6.766  11.972
89331W        W53055  37.885  22.584  13.501
89332W        W53056  21.191  44.985  11.961
89333W        W53057  23.635  42.311   3.672
89334W        W53058  10.185  24.150   4.314
89335W        W53059  39.949   3.761   0.424
89336W        W53060  37.435  13.672  11.940
89337W        W53061  44.258  33.470  11.107
89338W        W53062  32.133  37.390  10.470
89339W        W53063  26.137  39.809   2.342
89340W        W53064  12.723   3.356   0.402
89341W        W53065  30.573  24.701  13.310
89342W        W53066  36.886  39.025   2.822
89343W        W53067  22.708   3.365   3.698
89344W        W53068  16.104  21.037   5.085
89345W        W53069  37.342   0.419   4.698
89346W        W53070  12.242   2.242  12.568
89347W        W53071  38.051  37.368  10.505
89348W        W53072  31.066   3.460   2.415
89349W        W53073  11.258  31.969   2.320
89350W        W53074  30.916   7.670  13.019
89351W        W53075  17.574  39.371   3.212
89352W        W53076  37.912   0.452  13.538
89353W        W53077  43.431  13.208   0.410
89354W        W53078  33.600   9.227   1.874
89355W        W53079  17.256  27.568   1.408
89356W        W53080  19.683  28.549  11.540
89357W        W53081  27.456  16.743   1.284
89358W        W53082  28.092  28.675  13.446
89359W        W53083  42.016  36.046  11.953
89360W        W53084  17.593  41.372  11.383
89361W        W53085  29.539  40.805   1.424
89362W        W53086  21.044  20.731  12.072
89363W        W53087  21.032  33.626  14.822
89364W        W53088  16.167  27.960   0.471
89365W        W53089  19.659  40.446  14.942
89366W        W53090  38.902   3.934  11.992
89367W        W53091  38.416   6.826  10.477
89368W        W53092  42.815   7.235  12.030
89369W        W53093  30.579   3.428  14.988
89370W        W53094  28.068  17.598   4.752
89371W        W53095  40.959  15.100  11.888
89372W        W53096  34.534   5.834  11.976
89373W        W53097  24.551   0.935  10.533
89374W        W53098  14.669  25.540   0.417
89375W        W53099  10.321  16.801   1.843
89376W        W53100  11.317  12.300  14.459
89377W        W53101  38.466  39.488   4.196
89378W        W53102   5.834  17.113  14.876
89379W        W53103  17.587  33.893   0.323
89380W        W53104  42.004   6.282   2.361
89381W        W53105  33.385  24.624   2.383
89382W        W53106  12.154  34.525  14.372
89383W        W53107   5.401   6.908  13.537
89384W        W53108   5.367  43.948   4.685
89385W        W53109  16.693   6.882  10.637
89386W        W53110  13.683  23.110  14.764
89387W        W53111  21.690  30.047  10.540
89388W        W53112  33.624  25.489   2.399
89389W        W53113   8.273  37.573  13.357
89390W        W53114  41.906  20.112  13.376
89391W        W53115  40.402   3.920   3.327
89392W        W53116   2.364  24.708   4.730
89393W        W53117  20.108  11.687   4.713
89394W        W53118   1.462  43.454   3.673
89395W        W53119  12.306  19.777  13.981
89396W        W53120  13.338  26.559   9.992
89397W        W53121  21.595  16.115   3.804
89398W        W53122  33.108  27.462  14.497
89399W        W53123  26.654  38.530  11.917
89400W        W53124   7.831  17.739  11.424
89401W        W53125  24.507  40.448   1.314
89402W        W53126  23.122  11.246   1.279
89403W        W53127   9.310  36.072  13.369
89404W        W53128   3.940  44.321  10.887
89405W        W53129  24.616   5.739  10.901
89406W        W53130  16.791  15.785  10.430
89407W        W53131  31.125   4.391   2.277
89408W        W53132  35.957   8.658  13.974
89409W        W53133   6.324  23.638  10.986
89410W        W53134  21.066  40.471   3.214
89411W        W53135  42.853  26.621   1.878
89412W        W53136  10.367  40.421   0.844
89413W        W53137  22.629  41.931  12.553
89414W        W53138  31.064  19.642   1.714
89415W        W53139  12.299   4.922   3.352
89416W        W53140  35.938  34.453  14.335
89417W        W53141  12.224  30.913  12.365
89418W        W53142  11.238  23.125   0.279
89419W        W53143  24.126  25.137   4.306
89420W        W53144  28.536  12.311  14.020
89421W        W53145  23.541  24.132  13.035
89422W        W53146   2.463   8.400   0.344
89423W        W53147  39.861   1.446   3.710
89424W        W53148  28.539  29.945   2.793
89425W        W53149   8.846  24.658  10.937
89426W        W53150  37.047   7.784   3.745
89427W        W53151  41.312  19.135   1.444
89428W        W53152   1.927  32.983  14.920
89429W        W53153  27.451   9.331   4.265
89430W        W53154   2.293  44.971   2.191
89431W        W53155  33.459  12.151   1.404
89432W        W53156   5.254  44.473   0.412
89433W        W53157  24.699   0.918   1.713
89434W        W53158   1.902   6.743   2.332
89435W        W53159  24.553   8.246   1.335
89436W        W53160  24.654  16.624  11.387
89437W        W53161  35.079   4.728  14.922
89438W        W53162  41.885   5.270   2.718
89439W        W53163  32.120   8.847   1.838
89440W        W53164  29.972  20.034   2.239
89441W        W53165  35.444  10.856  11.372
89442W        W53166  28.999   0.289   1.820
89443W        W53167  14.635  15.633  11.965
89444W        W53168  10.807  11.205  10.588
89445W        W53169  15.715   3.850  10.994
89446W        W53170  14.148  41.402  13.834
89447W        W53171  24.108  44.284  13.370
89448W        W53172  44.884   2.319   2.755
89449W        W53173  43.788  28.437   4.270
89450W        W53174  16.688  14.682   5.164
89451W        W53175  28.122  38.349   3.217
89452W        W53176   7.755  25.208   4.732
89453W        W53177  41.473  19.175  10.906
89454W        W53178  18.762  37.520  12.400
89455W        W53179  17.172   7.247   3.274
89456W        W53180  18.580   9.820  12.923
89457W        W53181  32.979  30.632   1.247
89458W        W53182  10.639  28.137  10.106
89459W        W53183  11.629  14.188   2.285
89460W        W53184  31.614  19.157  11.570
89461W        W53185  36.850   0.781  10.476
89462W        W53186  18.292  12.145  12.569
89463W        W53187  28.103  14.664  10.975
89464W        W53188  29.102  28.465   0.404
89465W        W53189  44.882  30.032  13.513
89466W        W53190  23.199  10.151   2.374
89467W        W53191  39.014  20.544   2.255
89468W        W53192  25.187  31.489   2.328
89469W        W53193  29.027  28.649  14.812
89470W        W53194   6.270  26.187  10.601
89471W        W53195  27.518   7.249   5.590
89472W        W53196  20.675   9.787   2.373
89473W        W53197   3.919  31.920   4.648
89474W        W53198  33.440  39.991  10.017
89475W        W53199  34.552  21.672   4.332
89476W        W53200  24.649  18.151  11.080
89477W        W53201  18.742   3.258  14.343
89478W        W53202  44.814   8.776  10.890
89479W        W53203  43.285   1.475   3.331
89480W        W53204   1.339  44.478   1.294
89481W        W53205  13.107  44.306  12.082
89482W        W53206  32.012  36.550   5.139
89483W        W53207  41.441  26.152  12.074
89484W        W53208  18.773  21.641   4.225
89485W        W53209  21.553  39.980  11.959
89486W        W53210   2.874  16.271   2.814
89487W        W53211  36.588  24.566  11.093
89488W        W53212  21.599   8.780   4.699
89489W        W53213   5.754  24.027  13.471
89490W        W53214  38.987  26.654   3.218
89491W        W53215   8.823  21.256   0.401
89492W        W53216  31.477  35.974  13.901
89493W        W53217  22.995   3.299  13.971
89494W        W53218  30.034  16.675   1.831
89495W        W53219  39.950  11.339   3.278
89496W        W53220  29.923   8.406  12.440
89497W        W53221  22.703  21.550  11.588
89498W        W53222  15.226  22.219   1.238
89499W        W53223  12.290   3.450   1.917
89500W        W53224  24.212  27.605   0.856
89501W        W53225   6.206   2.264   2.265
89502W        W53226  15.326  24.709   0.855
89503W        W53227   1.795  17.259  13.356
89504W        W53228  19.159  10.716   2.874
89505W        W53229   2.352  34.916  11.008
89506W        W53230  37.916  38.849  10.567
89507W        W53231  36.876   4.805  11.060
89508W        W53232  12.807   1.942   0.825
89509W        W53233  39.048   1.848   9.970
89510W        W53234  17.573  16.762  14.014
89511W        W53235  19.702   8.369   0.835
89512W        W53236  16.111  13.842  14.443
89513W        W53237  26.025   2.913   1.780
89514W        W53238  33.510  11.239   4.147
89515W        W53239  40.428  32.086  12.354
89516W        W53240   1.401  25.050  10.502
89517W        W53241  26.671  30.511  11.425
89518W        W53242  23.048  31.047  11.555
89519W        W53243  35.965  43.825   4.325
89520W        W53244  12.808  27.468   4.643
89521W        W53245  18.611  23.009  13.960
89522W        W53246   0.951  32.048  12.941
89523W        W53247   8.311  25.475  13.336
89524W        W53248  26.460  40.949  11.602
89525W        W53249  27.685  34.094  10.499
89526W        W53250  40.420  11.290  13.024
89527W        W53251  20.158  10.188  11.009
89528W        W53252   2.319  15.671   3.676
89529W        W53253  34.458  26.037   1.270
89530W        W53254  20.524  17.291   3.771
89531W        W53255  11.266  14.192  10.527
89532W        W53256  26.665   6.715   1.437
89533W        W53257  15.784   2.436   2.409
89534W        W53258   7.793   1.952   4.656
89535W        W53259  34.003  23.059  10.468
89536W        W53260  26.121  28.054   1.289
89537W        W53261  27.058  21.615  11.906
89538W        W53262  20.084  44.900  11.003
89539W        W53263   3.384   3.222  10.631
89540W        W53264  40.471  36.428  13.347
89541W        W53265  39.479  42.999   2.226
89542W        W53266  35.952  26.984  12.492
89543W        W53267  14.243   6.316  13.916
89544W        W53268  16.795   1.892  11.874
89545W        W53269  13.266  10.703   1.387
89546W        W53270  12.752  36.986   2.698
89547W        W53271  11.273   1.813   3.675
89548W        W53272  20.229  27.136   0.264
89549W        W53273  39.372  18.685   4.647
89550W        W53274  14.662  34.565   4.144
89551W        W53275  25.976  10.295  14.937
89552W        W53276  10.731  13.728  10.587
89553W        W53277  17.597  18.633   1.336
89554W        W53278   5.339  11.329  11.964
89555W        W53279  24.227   5.873  11.048
89556W        W53280   1.310  30.457  12.454
89557W        W53281   1.290   5.342  13.429
89558W        W53282  22.622  13.724   1.394
89559W        W53283  22.728   9.321   1.256
89560W        W53284   0.249  10.749   3.148
89561W        W53285   7.343  13.335   5.802
89562W        W53286  16.203  31.139  14.780
89563W        W53287  30.596  22.231   3.307
89564W        W53288  19.071  11.188  10.599
89565W        W53289   9.858  16.232  10.433
89566W        W53290  24.148   8.752   0.842
89567W        W53291   1.753  13.351  11.432
89568W        W53292  18.089  44.368  12.974
89569W        W53293   6.262  25.592   1.735
89570W        W53294  23.567  41.407   1.703
89571W        W53295  27.540  21.241   3.156
89572W        W53296  29.599  37.481   0.463
89573W        W53297  42.524  22.217   2.186
89574W        W53298  21.062  12.767   1.219
89575W        W53299  19.066  33.392   4.129
89576W        W53300  28.598  27.566  13.494
89577W        W53301   1.349  27.497  14.990
89578W        W53302  25.148  14.643  13.456
89579W        W53303  31.008  37.877   2.792
89580W        W53304  17.575  39.851   1.810
89581W        W53305  15.717  23.736   0.310
89582W        W53306  12.844  39.545  14.995
89583W        W53307  16.782  30.577   3.814
89584W        W53308   0.311  21.228  13.353
89585W        W53309   7.781  31.583  13.459
89586W        W53310  21.551   8.817  13.913
89587W        W53311  33.389  20.745  13.339
89588W        W53312  36.969  33.575   2.300
89589W        W53313  18.208  28.586  14.853
89590W        W53314  36.451  24.089   0.296
89591W        W53315  13.307  19.258  11.926
89592W        W53316  20.685   3.244   3.260
89593W        W53317  41.895   9.254  10.525
89594W        W53318   8.865  30.936  14.448
89595W        W53319  38.475  33.562  14.819
89596W        W53320  12.178  26.477  10.640
89597W        W53321  19.056  30.619  10.994
89598W        W53322  20.255  42.460  14.276
89599W        W53323  38.070  40.389  12.982
89600W        W53324  33.942  23.097  13.465
89601W        W53325   6.917  34.565  11.998
89602W        W53326  23.224  31.105   0.378
89603W        W53327  38.454  36.502   0.289
89604W        W53328  10.319  43.987   9.950
89605W        W53329  24.984  21.195  14.424
89606W        W53330   5.309  39.878  13.045
89607W        W53331  19.095  21.640  12.000
89608W        W53332  11.211  31.987   1.892
89609W        W53333  33.540  11.326   1.329
89610W        W53334  34.599   8.742  12.570
89611W        W53335  19.685  41.387   4.764
89612W        W53336  15.139  44.893  13.329
89613W        W53337   6.738  33.389  13.392
89614W        W53338  34.575  13.134  14.013
89615W        W53339  15.155   7.174  10.061
89616W        W53340  43.935   4.786   4.735
89617W        W53341  39.862  14.771  12.358
89618W        W53342   4.755   3.875   1.881
89619W        W53343  24.567  27.580  12.438
89620W        W53344  29.075  35.878   3.815
89621W        W53345  11.845  39.506  12.527
89622W        W53346  43.312   6.769   4.120
89623W        W53347  37.928  14.277   2.382
89624W        W53348   2.412  15.823  13.320
89625W        W53349  11.651  29.975  12.077
89626W        W53350  35.361   3.735   3.664
89627W        W53351   9.774  43.451  10.530
89628W        W53352  29.466  21.620  14.451
89629W        W53353  29.650   0.779   0.302
89630W        W53354  11.296  27.482  12.551
89631W        W53355  16.690   4.876  14.828
89632W        W53356  27.981  23.099  10.481
89633W        W53357  17.587  37.502  14.371
89634W        W53358  39.412  15.120  13.927
89635W        W53359  13.295  43.952  13.420
89636W        W53360  15.791   7.359   3.691
89637W        W53361  29.641  19.767  13.317
89638W        W53362   4.899  21.539   0.797
89639W        W53363  39.422  12.751   1.930
89640W        W53364  15.205  39.934  13.999
89641W        W53365   9.252  13.304   1.410
89642W        W53366  33.440  26.616  11.456
89643W        W53367   8.842   3.896   3.149
89644W        W53368  18.785   5.257  11.112
89645W        W53369   5.303  10.292   2.381
89646W        W53370  11.854   0.844   0.876
89647W        W53371   6.377   7.371   4.142
89648W        W53372   0.310  17.761  12.057
89649W        W53373  19.599   9.740  12.969
89650W        W53374  24.565  34.036   4.133
89651W        W53375  25.052  41.361  12.385
89652W        W53376  28.128  22.689   4.645
89653W        W53377  36.067  26.647   4.331
89654W        W53378  37.993   6.194  12.932
89655W        W53379   6.414  36.389   0.410
89656W        W53380  32.562  18.561   4.623
89657W        W53381  30.470  29.534   2.762
89658W        W53382   3.862  38.466  13.357
89659W        W53383  10.654  11.186   3.351
89660W        W53384  12.699  17.614  13.944
89661W        W53385  33.936  31.925  14.816
89662W        W53386  41.811  21.128  10.997
89663W        W53387  12.810  26.598  13.401
89664W        W53388   5.803  35.101  11.048
89665W        W53389   7.339  15.215   0.388
89666W        W53390  16.140  28.512   0.743
89667W        W53391  32.404  40.968  12.985
89668W        W53392  14.828  35.450   0.483
89669W        W53393  32.636  38.934   3.271
89670W        W53394   5.877  31.923   2.881
89671W        W53395  14.300  19.267   2.202
89672W        W53396  30.510  43.291   2.215
89673W        W53397  30.060  10.797  11.088
89674W        W53398  17.789  41.494   0.953
89675W        W53399   9.318  33.929   2.895
89676W        W53400  36.087  15.120  13.054
89677W        W53401  30.153  39.037   3.274
89678W        W53402  34.416  40.848  12.465
89679W        W53403  30.598  29.649  13.841
89680W        W53404  16.173  41.962   4.221
89681W        W53405  32.629  32.520   1.362
89682W        W53406   2.361  39.456   4.240
89683W        W53407   8.192   6.724  13.466
89684W        W53408   3.378  16.772   0.848
89685W        W53409  13.665  18.652  12.523
89686W        W53410   6.299  21.036   2.383
89687W        W53411  16.602  31.056   2.325
89688W        W53412  35.089   6.192  10.115
89689W        W53413  14.319  19.726  11.409
89690W        W53414  32.095  17.194  12.018
89691W        W53415   1.821  11.633   3.357
89692W        W53416   4.943   5.789  10.530
89693W        W53417  43.452  15.682  12.404
89694W        W53418  22.156  24.706   1.813
89695W        W53419  17.108  44.323  13.443
89696W        W53420   3.951  39.937   0.780
89697W        W53421  16.250  24.632  11.060
89698W        W53422   1.835  11.668  10.454
89699W        W53423  11.622  17.675  14.332
89700W        W53424  17.243  10.159   1.374
89701W        W53425  10.139  41.312  14.457
89702W        W53426  29.488  32.888   2.335
89703W        W53427   2.344  32.522  13.822
89704W        W53428  13.618  42.369  10.959
89705W        W53429  15.202   0.780  11.915
89706W        W53430  33.455  37.047   4.739
89707W        W53431  31.539  23.024   2.241
89708W        W53432   8.667  37.000   2.741
89709W        W53433  14.254  30.565  12.509
89710W        W53434  26.059  42.910  14.864
89711W        W53435   2.900  16.315   1.296
89712W        W53436  34.108  44.354  13.539
89713W        W53437  40.009  40.941   0.244
89714W        W53438  36.001   3.387   2.793
89715W        W53439   1.272  35.465   3.242
89716W        W53440   8.221  43.377  12.988
89717W        W53441  23.498  43.374  11.437
89718W        W53442   8.828  42.369   0.378
89719W        W53443  33.489   9.830  10.926
89720W        W53444  38.440   3.878   4.597
89721W        W53445  30.630  19.760  13.953
89722W        W53446  24.072  32.904   3.297
89723W        W53447  29.965  18.782  12.506
89724W        W53448  25.471  27.045   1.374
89725W        W53449  37.935   9.670  12.055
89726W        W53450   6.774  28.955  13.330
89727W        W53451   1.970   3.230   0.925
89728W        W53452  39.345  10.178   1.784
89729W        W53453  28.037  13.684  11.989
89730W        W53454  40.912   9.730  12.397
89731W        W53455  22.190  24.599  11.523
89732W        W53456  13.110  10.260   4.222
89733W        W53457  34.376  37.861   1.927
89734W        W53458  24.028   2.244  13.050
89735W        W53459   7.350   4.249  10.965
89736W        W53460  33.465  12.631   9.978
89737W        W53461  15.682  14.823   2.765
89738W        W53462  39.490  30.542   1.405
89739W        W53463  10.318  25.557  10.986
89740W        W53464  10.852  43.338   2.360
89741W        W53465   8.162  41.396  12.864
89742W        W53466  15.171  17.589   2.747
89743W        W53467  16.151  16.072   9.930
89744W        W53468   3.315   7.262   1.236
89745W        W53469  43.007   2.944   1.259
89746W        W53470   0.261  27.596   3.865
89747W        W53471   2.285  22.647  11.123
89748W        W53472   1.769  41.995   3.328
89749W        W53473   7.191  34.866   0.934
89750W        W53474  29.611  37.369  10.161
89751W        W53475  15.139  21.544   2.792
89752W        W53476  41.395  21.214   3.814
89753W        W53477  27.485   0.765   3.378
89754W        W53478   5.735  24.217   1.446
89755W        W53479  35.054  32.539   0.890
89756W        W53480  18.596  14.259  14.454
89757W        W53481  36.411   8.322   2.714
89758W        W53482  17.295  25.199   4.686
89759W        W53483  20.768  32.079   3.361
89760W        W53484  30.082   9.845  14.395
89761W        W53485  24.685  41.010   4.792
89762W        W53486  40.894  16.174   2.283
89763W        W53487   9.152   5.336   3.276
89764W        W53488  19.227  16.641  10.051
89765W        W53489  27.147  43.449  11.093
89766W        W53490  36.008  24.696   0.339
89767W        W53491  10.796  12.355   9.588
89768W        W53492  15.745  23.196  12.971
89769W        W53493  38.878  16.808  14.899
89770W        W53494  30.637  29.054  12.989
89771W        W53495   3.352  23.660   3.797
89772W        W53496  40.973   5.795   2.781
89773W        W53497  27.114  44.950  10.628
89774W        W53498  29.131  13.328   1.442
89775W        W53499  16.569  22.727   3.833
89776W        W53500  11.202  40.495   4.793
89777W        W53501  11.278  36.048  12.522
89778W        W53502  41.342  27.031   1.358
89779W        W53503  22.679  21.536   2.725
89780W        W53504  13.180  26.045   2.719
89781W        W53505   7.271  34.544   0.412
89782W        W53506  30.025   1.892  13.850
89783W        W53507  36.888  33.945  11.010
89784W        W53508  38.962  24.502  12.380
89785W        W53509  29.562  43.951  14.295
89786W        W53510  42.493   0.942  14.421
89787W        W53511  25.985  43.995   4.153
89788W        W53512  43.487   4.755  13.489
89789W        W53513  40.986  34.407  10.457
89790W        W53514  32.493  36.046   0.421
89791W        W53515  41.951  15.254  12.970
89792W        W53516  31.452  28.606   2.360
89793W        W53517   2.855  20.204   3.375
89794W        W53518  22.123  32.458  10.562
89795W        W53519  14.242  23.100  12.869
89796W        W53520  25.535  37.354   0.385
89797W        W53521  36.463  13.724  10.901
89798W        W53522   2.837   6.183   1.219
89799W        W53523  40.872  33.428  11.406
89800W        W53524  37.938  11.305   3.327
89801W        W53525  36.485  32.556   1.212
89802W        W53526  14.747  18.670   1.287
89803W        W53527  37.538   2.923  14.956
89804W        W53528  16.131   6.739   2.368
89805W        W53529  43.281  39.941  11.477
89806W        W53530  38.432   7.270  12.826
89807W        W53531  15.727  24.505   0.246
89808W        W53532  23.603  40.958   1.410
89809W        W53533   9.234  18.271  13.844
89810W        W53534  40.434  25.570   1.422
89811W        W53535  23.067   3.836   4.153
89812W        W53536  43.822   6.823  10.991
89813W        W53537   6.252  24.156  11.901
89814W        W53538  43.916  18.281   4.193
89815W        W53539  20.564  25.506   1.907
89816W        W53540  44.868   4.330  14.474
89817W        W53541  28.148  21.243  12.483
89818W        W53542  35.901  19.261   2.752
89819W        W53543  43.301  25.713   1.855
89820W        W53544  39.429  31.590  12.950
89821W        W53545  37.495  39.811  12.376
89822W        W53546  39.945  22.568  13.522
89823W        W53547  10.792  22.054   4.305
89824W        W53548  12.121  13.162   3.342
89825W        W53549   1.735  41.502  14.864
89826W        W53550  15.634  20.033  13.928
89827W        W53551  23.209  15.613   4.152
89828W        W53552  40.882  35.030   1.766
89829W        W53553   1.951  35.414  10.957
89830W        W53554   2.733   7.206   0.841
89831W        W53555  30.487  21.536   3.685
89832W        W53556   7.198  42.337  11.024
89833W        W53557  13.107  33.998   3.811
89834W        W53558  11.780  26.620  13.928
89835W        W53559  34.372   0.402   3.844
89836W        W53560  11.671  40.370   4.316
89837W        W53561  22.170   2.890  11.508
89838W        W53562   9.274  13.833   1.766
89839W        W53563  36.423  13.149  11.038
89840W        W53564  27.009   8.675  14.469
89841W        W53565  27.624  38.393   4.329
89842W        W53566  11.822  14.687   0.457
89843W        W53567  15.306  37.891  11.034
89844W        W53568  16.743   6.411   2.803
89845W        W53569  25.049   9.724   4.610
89846W        W53570  31.560  22.637  14.490
89847W        W53571  20.047   6.794  11.880
89848W        W53572  19.728  13.787  11.118
89849W        W53573  34.534  21.584  11.969
89850W        W53574  38.979   6.701   2.355
89851W        W53575  17.730  10.852   0.299
89852W        W53576  15.593  12.199  11.420
89853W        W53577  37.847  44.503  14.951
89854W        W53578  33.450   4.852   2.847
89855W        W53579  31.569   8.397  13.461
89856W        W53580  21.723  27.081   2.253
89857W        W53581  21.151  41.859   3.296
89858W        W53582  10.763  19.644  13.837
89859W        W53583  33.591   8.872  12.959
89860W        W53584  12.335  37.482   3.761
89861W        W53585   3.297  33.109  10.521
89862W        W53586   3.754  31.049  12.363
89863W        W53587  41.342   7.686  12.441
89864W        W53588  10.814  24.576   1.227
89865W        W53589  28.496  32.422  12.511
89866W        W53590   7.813  39.874  13.049
89867W        W53591  33.573  20.676   4.699
89868W        W53592  42.471  18.730   0.245
89869W        W53593  11.177  36.987   4.211
89870W        W53594  41.003   5.314   2.826
89871W        W53595  40.957   4.388  12.067
89872W        W53596   3.741  27.580   3.244
89873W        W53597  37.445  32.610  11.947
89874W        W53598   5.777  26.632  10.612
89875W        W53599  35.465  42.492  14.962
89876W        W53600  11.183  36.347  11.025
89877W        W53601  30.910  12.162   1.745
89878W        W53602  40.974  26.086  10.980
89879W        W53603   4.357  20.591   0.738
89880W        W53604  43.990  25.106  11.558
89881W        W53605  10.689  16.226   2.193
89882W        W53606  29.133  38.028  14.996
89883W        W53607  20.193  36.569  10.926
89884W        W53608   3.750  24.136   2.793
89885W        W53609   7.841  27.530  13.800
89886W        W53610  17.728  41.355   1.271
89887W        W53611   1.400  15.162  12.523
89888W        W53612  11.243   1.905   4.828
89889W        W53613   7.846  23.555   2.259
89890W        W53614  35.445  27.056   1.232
89891W        W53615  12.193  11.191   1.362
89892W        W53616   1.767  43.355   2.347
89893W        W53617   7.385  21.613   0.799
89894W        W53618  30.641   7.714   4.628
89895W        W53619  39.898  23.634   0.862
89896W        W53620  32.950   2.922  10.481
89897W        W53621  16.255  38.036  12.080
89898W        W53622  16.174   8.862  11.543
89899W        W53623  38.859   5.845   3.335
89900W        W53624  26.658   5.843   0.295
89901W        W53625  22.723  33.616   2.730
89902W        W53626  20.065  32.995  11.945
89903W        W53627  22.096  12.761   0.305
89904W        W53628  23.101   2.756  13.910
89905W        W53629  37.921  18.644  11.571
89906W        W53630  16.103   3.406  12.914
89907W        W53631  31.132  31.981   2.663
89908W        W53632  24.528  39.868   5.193
89909W        W53633  25.696  33.519   4.608
89910W        W53634   7.731  30.573  14.491
89911W        W53635  15.603  12.298  10.604
89912W        W53636  41.786  17.285  12.341
89913W        W53637  16.077  36.013   0.782
89914W        W53638  20.171  16.677   3.836
89915W        W53639   8.289  14.117  13.412
89916W        W53640  23.566  40.997   0.770
89917W        W53641   3.926   4.263  13.325
89918W        W53642  27.580   6.748  10.989
89919W        W53643  32.081  31.551   0.869
89920W        W53644  11.249  39.320  11.477
89921W        W53645  32.936  37.061  11.007
89922W        W53646  42.945  16.697  12.409
89923W        W53647  32.964  23.226  12.073
89924W        W53648  17.709  19.043  14.306
89925W        W53649  12.847  11.222   1.405
89926W        W53650  21.679  36.990  10.050
89927W        W53651   1.900  23.505   4.222
89928W        W53652   2.317  32.122   1.829
89929W        W53653  44.857   6.216   0.908
89930W        W53654   3.301  21.574  13.838
89931W        W53655  30.458   3.787   2.794
89932W        W53656  22.232  13.805   5.166
89933W        W53657  23.656  30.425   2.690
89934W        W53658   1.733  38.003   2.779
89935W        W53659  23.580  42.377  13.517
89936W        W53660  14.235  19.731   3.363
89937W        W53661  23.115   3.905   3.663
89938W        W53662  10.636  15.214  11.063
89939W        W53663  32.052  11.680  12.423
89940W        W53664  12.760  11.830   3.668
89941W        W53665  13.733  19.099  11.882
89942W        W53666  27.164   4.341   2.839
89943W        W53667  24.581  29.501   3.160
89944W        W53668  10.356  39.335  12.414
89945W        W53669  40.391  32.981  10.644
89946W        W53670  28.106  33.904  13.915
89947W        W53671  27.564   0.977  11.944
89948W        W53672   1.962   7.196  12.053
89949W        W53673  18.158  27.469   4.308
89950W        W53674  10.331  32.424  11.509
89951W        W53675  20.164  11.239  14.809
89952W        W53676   2.461  20.723   2.673
89953W        W53677   4.252  36.438  11.074
89954W        W53678   0.759  21.682   3.656
89955W        W53679  15.107  21.539  12.464
89956W        W53680  22.017  31.153   2.269
89957W        W53681   4.718  42.319  14.868
89958W        W53682  39.413  11.700   3.816
89959W        W53683   4.767  43.342  12.554
89960W        W53684  43.324  29.117   0.437
89961W        W53685  22.578   4.209  14.405
89962W        W53686  36.851  15.234  13.988
89963W        W53687   8.398  16.808  11.420
89964W        W53688  24.137  13.735   0.393
89965W        W53689  39.421  14.766   0.297
89966W        W53690  12.206  23.657   3.647
89967W        W53691  28.566   1.341   3.768
89968W        W53692  14.220  13.112   3.367
89969W        W53693   9.696  10.227   0.771
89970W        W53694  40.489  20.723  13.335
89971W        W53695   7.289  16.283  12.857
89972W        W53696  17.122  28.579  10.912
89973W        W53697  21.709  10.261  14.790
89974W        W53698  39.982   1.265   1.309
89975W        W53699  21.755  18.256   2.734
89976W        W53700  42.442  18.679  11.597
89977W        W53701  43.403   0.920   4.642
89978W        W53702  33.623  22.621  11.884
89979W        W53703   1.348   7.812  14.302
89980W        W53704  10.169   0.296   5.140
89981W        W53705  24.216  23.651   2.755
89982W        W53706  10.656   1.918  11.987
89983W        W53707  42.496  36.555  14.313
89984W        W53708  35.909   5.794  10.455
89985W        W53709  40.344  10.254   1.306
89986W        W53710   7.173  22.502   0.297
89987W        W53711  33.984   0.383   2.202
89988W        W53712  24.547  27.177   0.852
89989W        W53713  32.479  27.143  11.033
89990W        W53714  19.163  20.544   1.265
89991W        W53715   4.705  41.425  11.573
89992W        W53716  21.232  41.799  14.882
89993W        W53717   4.347  37.489   2.785
89994W        W53718   1.945  42.894   3.230
89995W        W53719  26.511  26.026   3.671
89996W        W53720  31.502  29.472  12.498
89997W        W53721  23.609  42.792   1.849
89998W        W53722  15.151  43.368   4.812
89999W        W53723  25.040  41.312  14.832
90000W        W53724  27.003  42.525  13.321
90001W        W53725  37.495  33.434   2.740
90002W        W53726  21.243   1.835  14.474
90003W        W53727   3.749  11.781   3.230
90004W        W53728  30.917  41.859  12.085
90005W        W53729  28.020  41.313   5.302
90006W        W53730  42.926  17.175   3.168
90007W        W53731  29.161  21.140  11.971
90008W        W53732  35.584  18.076   0.821
90009W        W53733  13.344  42.312   0.895
90010W        W53734  21.715   5.274   0.824
90011W        W53735   1.483   2.331  11.010
90012W        W53736  36.972  40.841  12.490
90013W        W53737   8.737  10.743  14.410
90014W        W53738  43.508  25.653   4.173
90015W        W53739   3.915   1.887  12.021
90016W        W53740  27.165  17.202  13.307
90017W        W53741  40.039  17.187  12.075
90018W        W53742   4.249  41.471   2.687
90019W        W53743  39.401  21.103  12.535
90020W        W53744  31.087  32.915   0.473
90021W        W53745   7.795   5.303  11.394
90022W        W53746   1.778  42.506  13.822
90023W        W53747  27.493  17.639   4.765
90024W        W53748  13.623  22.566   2.375
90025W        W53749  15.802  44.764   3.323
90026W        W53750  17.066  39.949   1.320
90027W        W53751   0.770   0.772   1.875
90028W        W53752  16.106  37.084  14.980
90029W        W53753   8.196  28.123   0.935
90030W        W53754   6.878   0.904   2.737
90031W        W53755  36.492  23.110  11.064
90032W        W53756  26.122  24.165   0.866
90033W        W53757  14.261  23.580  14.463
90034W        W53758  41.520   9.800   3.332
90035W        W53759   7.820  25.174  11.877
90036W        W53760  17.199  14.138  12.537
90037W        W53761  35.861  17.276   5.238
90038W        W53762  31.529  39.889  13.870
90039W        W53763  27.661  18.166  10.405
90040W        W53764  19.552  44.792  12.510
90041W        W53765  43.902  30.139   1.861
90042W        W53766  34.876  42.448   0.934
90043W        W53767   8.807  22.037   2.842
90044W        W53768  24.623   1.863   4.740
90045W        W53769  21.242  27.543   4.260
90046W        W53770  22.070  12.809   2.725
90047W        W53771  30.597  25.068  14.921
90048W        W53772  14.121  41.408  13.448
90049W        W53773  33.401  34.965   4.791
90050W        W53774   6.911  12.164   1.708
90051W        W53775  38.559  26.535  10.573
90052W        W53776  11.645  26.117   4.168
90053W        W53777  33.411  23.056   1.835
90054W        W53778  36.587  40.810  13.536
90055W        W53779  30.999  31.102   3.766
90056W        W53780  33.108  37.965  14.943
90057W        W53781  44.427   8.350  12.838
90058W        W53782  13.223  20.038  10.565
90059W        W53783  16.107  37.941   3.345
90060W        W53784  40.006  33.546  14.402
90061W        W53785  28.478  30.926  11.460
90062W        W53786  44.287  40.021  11.597
90063W        W53787  12.315  19.648   3.785
90064W        W53788  43.908  11.239   4.239
90065W        W53789  13.165  27.147   3.271
90066W        W53790   1.434  43.438  13.036
90067W        W53791   1.760  39.352   1.345
90068W        W53792  41.988  20.221   0.752
90069W        W53793  20.721   1.352  14.464
90070W        W53794  34.370   4.351   4.745
90071W        W53795  11.703  17.163  13.469
90072W        W53796   3.844  30.912   4.327
90073W        W53797  38.330   7.745   0.816
90074W        W53798   1.961   3.873  14.032
90075W        W53799  32.907  27.024  13.918
90076W        W53800   7.391  24.015  12.980
90077W        W53801   8.868  40.869   0.807
90078W        W53802   0.303  22.557   0.814
90079W        W53803   4.821  24.191  13.532
90080W        W53804  36.498   9.731   1.356
90081W        W53805  23.025  17.235   0.472
90082W        W53806   0.385  12.686   1.224
90083W        W53807  26.492   7.753   3.174
90084W        W53808  35.001   2.471  13.358
90085W        W53809  44.310   6.264   2.218
90086W        W53810  30.489  27.084   1.865
90087W        W53811  20.162  42.309   4.708
90088W        W53812  31.073  33.968  13.979
90089W        W53813  42.832  35.052   3.857
90090W        W53814  38.364  20.215  14.986
90091W        W53815  27.032  29.598   2.706
90092W        W53816  31.603  30.139   3.273
90093W        W53817  29.144  22.143   0.475
90094W        W53818  12.803  24.101  14.316
90095W        W53819  20.564  25.525   3.295
90096W        W53820  39.924   2.825   1.849
90097W        W53821  15.762   9.338   2.191
90098W        W53822  33.089  31.429   4.333
90099W        W53823   7.173  20.625  14.467
90100W        W53824  16.089  33.997   2.239
90101W        W53825  33.998  14.607   0.368
90102W        W53826  28.452   9.813   2.848
90103W        W53827  26.577  36.432  11.979
90104W        W53828  35.450  35.935   2.853
90105W        W53829  15.750  34.036  14.988
90106W        W53830  19.779   5.842  14.423
90107W        W53831  12.204  40.419   3.220
90108W        W53832  10.172  40.863  14.901
90109W        W53833  20.604  41.822   2.831
90110W        W53834  24.552  10.154   3.806
90111W        W53835   5.313   3.356   2.312
90112W        W53836   8.240  37.893  11.924
90113W        W53837   3.900   0.400  13.481
90114W        W53838   5.305  43.477   3.363
90115W        W53839  44.413  43.976  10.434
90116W        W53840  35.545  43.890  14.011
90117W        W53841   0.863  43.319   0.913
90118W        W53842  29.970   9.304   4.127
90119W        W53843  18.235   8.372   3.727
90120W        W53844  40.836  27.056  14.830
90121W        W53845  12.246  20.555   3.816
90122W        W53846  24.700  31.908  11.121
90123W        W53847  40.039  14.221  14.805
90124W        W53848   4.847  34.411   3.706
90125W        W53849  27.139  10.139   5.125
90126W        W53850  37.015  15.286   3.653
90127W        W53851  39.812  20.105  12.460
90128W        W53852  42.789   5.736   1.298
90129W        W53853  25.100  22.552   3.216
90130W        W53854  11.181  16.100   3.779
90131W        W53855   8.672  24.043   2.281
90132W        W53856  38.390  26.697   4.834
90133W        W53857  32.954   4.252  13.383
90134W        W53858  12.821  15.225  13.489
90135W        W53859   4.335  18.763  14.831
90136W        W53860   6.722  40.811  11.562
90137W        W53861  44.354  28.961  12.025
90138W        W53862  42.999  21.736   2.775
90139W        W53863  26.701  24.719  13.842
90140W        W53864  34.373  23.652  14.493
90141W        W53865  29.526  27.553  10.958
90142W        W53866  33.066  12.762  13.055
90143W        W53867  36.513  37.553   0.285
90144W        W53868  40.463  26.498  10.607
90145W        W53869  38.563  15.757  12.933
90146W        W53870  39.376  20.575  13.429
90147W        W53871  35.530  35.035  11.023
90148W        W53872  26.524  27.177  14.827
90149W        W53873  28.018  40.816  14.915
90150W        W53874   0.908   8.200   4.635
90151W        W53875   6.203  31.998  12.537
90152W        W53876  35.007  23.217   3.264
90153W        W53877  44.337  14.683   3.631
90154W        W53878  43.443  28.434  14.309
90155W        W53879  33.122  39.461   3.285
90156W        W53880  12.676   6.868   2.692
90157W        W53881   6.318  41.338   1.731
90158W        W53882  11.306  42.330   4.156
90159W        W53883  14.318  37.341  13.410
90160W        W53884  43.816  41.787  13.955
90161W        W53885   6.753  34.373  14.792
90162W        W53886  22.244  39.373   9.506
90163W        W53887  35.083   7.905   4.731
90164W        W53888  43.893  33.604  13.360
90165W        W53889  14.309   3.389  10.471
90166W        W53890   2.925  24.705   3.868
90167W        W53891  31.406  10.382  11.433
90168W        W53892  30.115  21.216   0.365
90169W        W53893   0.761   0.411  10.635
90170W        W53894   2.870  24.561   3.382
90171W        W53895  14.115   0.333   1.926
90172W        W53896   1.393  23.601  13.337
90173W        W53897  16.716   1.948   1.215
90174W        W53898  20.147  43.336  14.278
90175W        W53899  29.020  40.319  12.050
90176W        W53900  20.738  34.016   0.319
90177W        W53901  19.122  20.753  10.407
90178W        W53902  39.860  21.556   1.910
90179W        W53903  27.527  25.003  11.044
90180W        W53904  31.135   3.399  11.598
90181W        W53905  27.506  34.866   0.295
90182W        W53906  30.495  44.471   2.799
90183W        W53907   2.312  16.666  12.491
90184W        W53908  34.425  32.506  13.443
90185W        W53909  33.968  13.673  10.491
90186W        W53910  16.161   6.196  14.858
90187W        W53911  13.801  17.255   1.419
90188W        W53912   8.819   6.263   3.864
90189W        W53913  25.974  14.268   1.748
90190W        W53914  22.217  38.509   0.943
90191W        W53915  28.042  15.141  14.383
90192W        W53916   0.359  11.819   1.870
90193W        W53917  34.012  22.558  13.804
90194W        W53918  30.498  16.632   0.284
90195W        W53919  13.720  37.050   0.830
90196W        W53920  41.010  39.533   3.261
90197W        W53921  32.423   8.195  10.577
90198W        W53922   8.363  33.467   0.826
90199W        W53923  36.538  25.569  13.865
90200W        W53924  34.396  40.016  11.522
90201W        W53925  38.383  26.560  12.360
90202W        W53926  39.931  25.539  13.949
90203W        W53927  36.365  20.542  12.416
90204W        W53928  39.042   7.398   5.314
90205W        W53929  34.944   2.823  14.860
90206W        W53930  20.668  17.273   2.223
90207W        W53931  28.525  30.004  14.776
90208W        W53932  44.446   9.220  11.539
90209W        W53933  27.977  13.685  14.961
90210W        W53934  21.722  24.006  11.104
90211W        W53935  25.551  26.077  14.326
90212W        W53936  21.139  17.639  14.949
90213W        W53937  44.777  44.348   3.796
90214W        W53938  33.436  34.482   9.978
90215W        W53939  28.113  10.806   3.771
90216W        W53940  35.604   2.822   2.296
90217W        W53941  34.025  37.517  12.869
90218W        W53942  10.316  34.963  10.946
90219W        W53943   9.768  39.912   0.732
90220W        W53944   5.816   1.936   4.202
90221W        W53945  34.880  11.816  13.482
90222W        W53946  42.865  10.877   3.353
90223W        W53947   0.757  22.602   3.679
90224W        W53948  33.618  38.485   4.716
90225W        W53949  28.632  31.134   3.369
90226W        W53950  13.662  25.499  13.446
90227W        W53951  19.764  15.225  12.958
90228W        W53952  34.538  13.300  12.411
90229W        W53953   2.941   9.791  13.808
90230W        W53954  41.401  25.704  11.954
90231W        W53955   8.373   5.254  10.428
90232W        W53956  44.308  38.527  13.494
90233W        W53957  38.381  21.054   5.282
90234W        W53958   4.735   5.361  11.001
90235W        W53959  36.462  28.500   1.403
90236W        W53960  41.330   5.723   0.267
90237W        W53961  28.060  18.670  12.366
90238W        W53962  20.180  38.498  11.050
90239W        W53963   4.438  11.795   4.344
90240W        W53964  21.113  10.264   4.711
90241W        W53965  28.937   6.279   1.842
90242W        W53966   7.175  28.459  12.993
90243W        W53967  29.924  20.157  12.941
90244W        W53968  40.496  30.122  12.051
90245W        W53969  14.607  31.974  11.894
90246W        W53970  19.271  30.911  14.882
90247W        W53971  38.448   4.853  14.912
90248W        W53972  42.914  40.344  12.411
90249W        W53973  25.638  10.213   0.824
90250W        W53974  25.093   6.893  11.007
90251W        W53975  12.634  16.586  11.970
90252W        W53976   0.916  10.772  13.481
90253W        W53977  32.036  34.086  13.466
90254W        W53978  12.116  34.455   3.703
90255W        W53979   8.385  20.664  11.898
90256W        W53980  17.557  18.242  13.506
90257W        W53981  33.463  10.319  12.563
90258W        W53982  15.084  13.165  11.450
90259W        W53983  23.089  38.393   1.831
90260W        W53984  31.413  24.133   2.243
90261W        W53985  42.451   5.271   1.401
90262W        W53986  16.125  18.256  12.369
90263W        W53987  11.127   8.325   1.762
90264W        W53988  32.953   9.177  13.050
90265W        W53989   4.714  39.916  11.121
90266W        W53990   9.659  25.118   0.323
90267W        W53991  44.006  36.023   4.711
90268W        W53992  19.594  41.388   3.660
90269W        W53993  21.217   9.713   1.908
90270W        W53994  12.339  41.969   2.698
90271W        W53995  38.831  17.594  11.056
90272W        W53996   4.925  20.576   3.195
90273W        W53997  29.541  14.320  14.801
90274W        W53998  13.637   3.264  11.073
90275W        W53999  42.994  42.319   2.212
90276W        W54000  24.982  14.734   0.868
90277W        W54001  40.429   0.280   4.754
90278W        W54002   0.839  23.146  10.550
90279W        W54003   9.871   2.462   1.251
90280W        W54004  42.906   8.197   4.755
90281W        W54005  35.951  31.149   0.357
90282W        W54006  16.217  27.977  10.918
90283W        W54007  13.691  15.163   2.735
90284W        W54008  28.488  10.845   4.710
90285W        W54009  12.142   9.191   1.313
90286W        W54010  14.594   7.714   3.721
90287W        W54011  39.387  18.249   1.835
90288W        W54012  19.534   5.846  12.359
90289W        W54013  19.132  18.579   0.939
90290W        W54014  43.931  13.227  11.120
90291W        W54015  24.183  20.105   2.661
90292W        W54016   8.399  31.987   0.750
90293W        W54017   2.940  25.054   5.102
90294W        W54018  27.570  22.551  11.512
90295W        W54019  24.188  35.009  12.554
90296W        W54020  11.809  38.368  12.864
90297W        W54021  14.616  38.502   3.185
90298W        W54022  38.538  36.958   1.450
90299W        W54023   8.375  16.207   3.787
90300W        W54024   6.184   9.185  10.620
90301W        W54025  30.157  15.701  11.494
90302W        W54026  35.862  37.375   5.144
90303W        W54027  30.999  17.101   3.854
90304W        W54028   3.863  22.153   1.217
90305W        W54029  28.574  38.469   2.387
90306W        W54030  36.856  29.953   2.892
90307W        W54031  15.267  43.821  11.929
90308W        W54032   6.307  40.821  11.989
90309W        W54033  36.865  27.603  12.923
90310W        W54034  41.399   7.906  13.386
90311W        W54035   2.345   5.889   3.775
90312W        W54036  21.530  40.867   4.828
90313W        W54037  24.569   0.836   0.907
90314W        W54038  27.192  42.526   4.323
90315W        W54039  30.004   0.371   0.295
90316W        W54040  13.253  20.047   4.675
90317W        W54041  39.891  27.488  14.490
90318W        W54042  27.636  35.408  14.845
90319W        W54043  12.851  28.083  12.993
90320W        W54044  16.583   1.910  12.356
90321W        W54045  22.175  17.151  14.999
90322W        W54046  28.469  41.999  13.375
90323W        W54047   9.330  22.252  13.992
90324W        W54048  13.234   1.952  13.046
90325W        W54049  23.517  23.606  10.914
90326W        W54050  34.501   8.312  13.879
90327W        W54051   9.888  19.664  10.909
90328W        W54052  18.605  10.164  14.498
90329W        W54053  14.222  23.707  13.547
90330W        W54054  31.590   3.845  14.384
90331W        W54055  42.860  37.992  14.765
90332W        W54056   6.224  18.718  10.509
90333W        W54057  41.499  22.556   0.851
90334W        W54058  42.798  17.158   4.660
90335W        W54059  18.718   6.906   2.808
90336W        W54060  35.544  21.075  11.864
90337W        W54061  38.921  23.139  11.413
90338W        W54062  17.074   9.182   1.735
90339W        W54063   7.903  12.762  14.981
90340W        W54064  39.957  41.908   0.805
90341W        W54065  44.998  22.736   0.945
90342W        W54066  28.637  12.626   0.811
90343W        W54067  10.691  31.404  13.826
90344W        W54068  44.436  15.083   0.423
90345W        W54069  44.872   6.375  10.444
90346W        W54070  21.061  20.264  11.038
90347W        W54071   5.748  15.116  12.871
90348W        W54072  18.698  24.650   1.417
90349W        W54073   1.343  30.563  13.353
90350W        W54074  37.935   7.820  13.966
90351W        W54075  22.637  24.120   1.757
90352W        W54076   7.239  27.665  13.380
90353W        W54077  24.225  41.429  13.811
90354W        W54078  34.557  43.443   1.750
90355W        W54079  19.099   4.385  13.901
90356W        W54080  31.608  37.477   2.874
90357W        W54081  21.197  28.157   4.614
90358W        W54082  30.080   5.824   0.785
90359W        W54083  21.564  28.632  13.463
90360W        W54084  23.612  15.243   4.333
90361W        W54085  22.224  22.053  10.618
90362W        W54086  27.038  10.266   3.238
90363W        W54087  36.988  19.741  13.979
90364W        W54088  12.751  41.962   2.709
90365W        W54089  21.540  25.548  10.978
90366W        W54090   3.370  25.635  11.427
90367W        W54091   6.887  42.362   3.816
90368W        W54092  17.771   2.441  12.046
90369W        W54093   3.452  40.307  11.520
90370W        W54094  37.065  13.841  14.026
90371W        W54095  20.108  41.506   4.758
90372W        W54096  35.399   5.369   3.814
90373W        W54097  38.029   3.380  13.980
90374W        W54098  42.453  34.419  13.889
90375W        W54099  35.468   6.842  13.418
90376W        W54100  29.604   3.942   2.772
90377W        W54101   2.849  15.578   1.805
90378W        W54102  21.535  31.113  14.312
90379W        W54103  20.174   1.964   4.211
90380W        W54104  19.756  38.902   5.192
90381W        W54105  31.025  43.434   2.796
90382W        W54106  41.457  12.622   4.322
90383W        W54107   9.279   0.933  12.573
90384W        W54108  19.250  41.803  10.570
90385W        W54109   4.426  43.471   2.204
90386W        W54110  21.034  13.781  11.992
90387W        W54111  27.985  28.076   0.884
90388W        W54112  27.608  20.548   3.312
90389W        W54113  41.416  43.298   2.277
90390W        W54114  40.478  14.206  10.476
90391W        W54115  30.559  37.424  10.435
90392W        W54116   8.170  44.002  11.541
90393W        W54117  37.337   3.826  14.023
90394W        W54118   6.391  40.337  11.488
90395W        W54119  29.502  17.605   3.862
90396W        W54120  34.895  41.938  12.887
90397W        W54121  25.668  21.588  13.382
90398W        W54122   3.767   9.825   1.769
90399W        W54123  10.283  29.032  12.978
90400W        W54124  11.282  10.367   0.459
90401W        W54125  26.146  32.067   5.307
90402W        W54126  23.572  24.084   4.187
90403W        W54127  20.180  23.146  12.573
90404W        W54128  25.135  25.520   0.889
90405W        W54129  12.803  36.406   3.194
90406W        W54130  30.649  44.416   3.258
90407W        W54131  32.886  17.125   3.868
90408W        W54132  32.460  36.967   3.765
90409W        W54133   6.869  11.168  14.006
90410W        W54134  35.534  23.015   4.629
90411W        W54135  39.372  40.035   1.805
90412W        W54136  25.049  37.463  12.486
90413W        W54137  32.551  25.096  14.452
90414W        W54138  42.938  27.130   1.879
90415W        W54139  21.129  35.910  11.492
90416W        W54140   2.931  20.543  12.401
90417W        W54141  39.036  30.518  11.477
90418W        W54142  21.042   7.692  12.842
90419W        W54143  16.216  17.302  12.371
90420W        W54144  21.747  16.674   0.260
90421W        W54145  19.572  21.549  14.506
90422W        W54146  12.285  38.058  12.994
90423W        W54147  32.613   5.406   1.762
90424W        W54148   3.288  22.669   4.792
90425W        W54149  22.052   3.310  13.487
90426W        W54150   9.759  38.867   0.858
90427W        W54151   7.790  20.626   3.774
90428W        W54152   0.428  43.875  10.567
90429W        W54153  26.140  14.197   4.139
90430W        W54154  37.577   4.793  14.457
90431W        W54155  23.138   9.243   4.727
90432W        W54156  21.224   3.902   0.245
90433W        W54157  42.850  11.143  10.959
90434W        W54158  12.736  35.904  13.959
90435W        W54159  18.548  14.702   1.710
90436W        W54160  41.017   7.324  11.988
90437W        W54161   2.259  11.701  11.113
90438W        W54162  23.500  20.722  14.325
90439W        W54163  33.021  33.067   1.232
90440W        W54164  19.619  33.432  13.545
90441W        W54165   9.236  29.426   0.930
90442W        W54166   2.366  38.058   2.698
90443W        W54167  28.052  19.180   2.800
90444W        W54168  27.474  35.578   3.789
90445W        W54169  14.716  27.519  13.832
90446W        W54170   5.245  25.699  13.447
90447W        W54171  21.186  23.513  10.934
90448W        W54172   0.857  30.546   9.975
90449W        W54173   1.748  24.593   2.306
90450W        W54174  22.620  10.733   1.295
90451W        W54175  20.577  39.341   0.269
90452W        W54176  18.140  44.429   2.294
90453W        W54177  25.061  12.707   1.296
90454W        W54178  34.424   6.880  12.545
90455W        W54179  24.167  28.578  12.055
90456W        W54180   1.780  26.502  11.065
90457W        W54181   3.848   4.364  11.584
90458W        W54182  11.690  35.921   4.257
90459W        W54183  14.162  33.047   1.405
90460W        W54184  29.094   2.720  11.413
90461W        W54185  38.398  13.322   1.912
90462W        W54186  43.840  41.954   1.868
90463W        W54187   2.949  41.339   2.722
90464W        W54188  27.178  12.263   5.081
90465W        W54189   0.941   0.257  12.430
90466W        W54190  24.187   1.483  14.824
90467W        W54191  32.078  20.727   0.909
90468W        W54192  32.547   1.781   3.781
90469W        W54193  34.903  16.655  10.430
90470W        W54194  15.691  21.178   3.385
90471W        W54195  20.092  27.011   4.751
90472W        W54196  15.283  28.171  14.333
90473W        W54197  20.670  22.104   0.304
90474W        W54198   8.281  39.471   2.726
90475W        W54199  17.582  33.520  12.368
90476W        W54200   0.896   2.229   1.869
90477W        W54201  17.742  24.707  13.485
90478W        W54202  28.178  44.856  11.599
90479W        W54203  42.897  10.232  11.950
90480W        W54204   8.819   3.826   1.852
90481W        W54205  33.976  35.981   2.253
90482W        W54206   7.735  33.504  11.027
90483W        W54207  20.547  38.040   2.418
90484W        W54208   7.678  19.552  10.124
90485W        W54209  22.620  16.293   1.427
90486W        W54210  15.183  20.044  14.024
90487W        W54211  42.300   3.454  13.347
90488W        W54212  17.205  26.124   3.635
90489W        W54213  20.176  44.774   0.389
90490W        W54214  28.525  26.568   2.355
90491W        W54215   1.346  28.035   3.696
90492W        W54216   2.299  26.476  11.013
90493W        W54217  29.111  21.128   2.274
90494W        W54218  32.063   8.202  14.943
90495W        W54219  40.431  30.483  11.379
90496W        W54220  32.590  19.730  14.477
90497W        W54221  43.323  17.579   3.713
90498W        W54222  31.941  15.132  10.479
90499W        W54223  23.658  44.274  10.571
90500W        W54224  11.347  40.919   0.895
90501W        W54225  41.893  43.873   1.230
90502W        W54226  12.293   5.788   1.742
90503W        W54227  28.579   3.742   2.244
90504W        W54228  20.613  21.124   3.352
90505W        W54229   2.779  28.651   3.854
90506W        W54230  40.369  21.207   4.178
90507W        W54231  23.506  36.017   4.705
90508W        W54232  18.605  31.097  13.870
90509W        W54233  25.028  14.749   1.220
90510W        W54234  26.979  23.072  10.972
90511W        W54235  23.583   6.771  10.630
90512W        W54236  30.561  18.555  12.016
90513W        W54237  13.137  21.524   3.146
90514W        W54238  17.301  31.072   1.423
90515W        W54239  27.131   4.428   0.807
90516W        W54240  16.189  26.497  12.053
90517W        W54241  24.555  13.341   2.862
90518W        W54242  10.874  23.501   4.318
90519W        W54243   7.221   2.369   2.825
90520W        W54244   1.392  31.516   4.758
90521W        W54245  27.026  12.243  13.809
90522W        W54246  33.067  16.801   1.825
90523W        W54247  28.130  18.731   2.765
90524W        W54248   3.757  39.985  11.419
90525W        W54249  37.017  22.194   3.207
90526W        W54250  15.298  38.533   1.804
90527W        W54251   6.760  34.064  14.287
90528W        W54252  18.673  13.802   1.353
90529W        W54253  25.669  16.189   3.343
90530W        W54254   2.930  26.537   0.422
90531W        W54255  35.940  12.683   0.445
90532W        W54256  20.075  29.614  11.944
90533W        W54257  40.845  26.058  13.063
90534W        W54258  40.873  33.943   4.613
90535W        W54259  15.086  35.895   2.233
90536W        W54260   3.908  29.617  12.985
90537W        W54261   4.304  18.210   1.698
90538W        W54262  34.905  42.504  12.393
90539W        W54263  34.992  17.787  12.530
90540W        W54264   6.339  44.329   4.804
90541W        W54265  19.162   4.446   1.213
90542W        W54266   6.773  35.377  12.401
90543W        W54267  28.973   1.389   2.302
90544W        W54268  38.488   3.313   3.745
90545W        W54269  25.643  41.813   1.248
90546W        W54270  36.022  37.975  14.823
90547W        W54271  41.812   2.237   2.191
90548W        W54272  16.576  29.565   3.208
90549W        W54273  20.713   3.385  13.489
90550W        W54274  14.593   8.776  12.948
90551W        W54275  41.954  38.508  10.595
90552W        W54276   1.405  44.890   1.698
90553W        W54277  29.659  23.591   4.328
90554W        W54278  33.942   8.825  11.479
90555W        W54279   5.812   6.292   1.390
90556W        W54280  29.525  42.992   1.301
90557W        W54281  23.139   5.774  11.029
90558W        W54282  38.496  30.512   4.235
90559W        W54283  39.326  24.620   4.279
90560W        W54284  29.529   7.375   9.533
90561W        W54285  43.861  28.973   3.685
90562W        W54286  44.329  39.421  13.507
90563W        W54287  21.710   5.360   2.844
90564W        W54288  13.824  10.661  12.870
90565W        W54289  38.961  33.018  11.944
90566W        W54290  27.021  25.491  13.946
90567W        W54291  37.922   2.395  11.558
90568W        W54292  27.532  21.054   2.329
90569W        W54293  13.615  18.163   1.708
90570W        W54294  43.388  16.667  11.433
90571W        W54295  42.524   9.712   4.354
90572W        W54296  10.686  38.070   1.701
90573W        W54297  41.397   6.775  14.441
90574W        W54298   5.206  24.550   1.211
90575W        W54299   5.233   6.347  10.009
90576W        W54300  11.160   0.430  12.561
90577W        W54301   7.246  29.968  10.931
90578W        W54302  33.933  23.669   4.678
90579W        W54303  33.502  37.401   4.669
90580W        W54304  24.097  41.306  13.495
90581W        W54305  27.954   5.766  11.968
90582W        W54306  22.236   3.782   1.775
90583W        W54307  17.782  25.039   2.370
90584W        W54308  42.349   8.331  14.817
90585W        W54309  21.591  29.556  13.356
90586W        W54310  14.138   4.836   3.706
90587W        W54311  40.506  27.190   0.822
90588W        W54312  20.724  37.345   0.755
90589W        W54313  16.687  29.938  14.020
90590W        W54314   2.270   7.764  10.517
90591W        W54315  28.649  44.916  11.082
90592W        W54316   9.843  28.586  12.952
90593W        W54317  34.872   2.258   2.863
90594W        W54318  15.229  28.676  13.377
90595W        W54319   4.745  15.580  13.400
90596W        W54320  38.004  24.481   0.793
90597W        W54321  42.929  36.424  12.578
90598W        W54322   7.837  32.129  11.487
90599W        W54323  43.396   7.415  10.635
90600W        W54324  19.152  38.841   3.720
90601W        W54325   4.698  12.224   3.341
90602W        W54326  23.234  10.807  11.405
90603W        W54327   5.734  36.945  14.914
90604W        W54328  22.587  39.485  13.933
90605W        W54329   8.183  37.942  10.901
90606W        W54330   9.344  37.979  13.905
90607W        W54331  32.567  23.539  14.504
90608W        W54332   2.341   2.755   2.753
90609W        W54333   1.432  43.492  12.030
90610W        W54334  19.212  34.485   0.805
90611W        W54335   6.407  10.773  14.869
90612W        W54336  38.839   1.820  13.307
90613W        W54337  30.456  30.627  14.032
90614W        W54338  20.158  22.217   2.189
90615W        W54339  24.216  36.095  11.915
90616W        W54340   7.314  42.383  12.054
90617W        W54341  19.149  20.607   2.223
90618W        W54342   5.235  16.648   1.413
90619W        W54343  31.019  35.981  14.426
90620W        W54344  34.521  16.137   4.161
90621W        W54345  22.701  22.523  13.927
90622W        W54346   7.406  34.009   4.237
90623W        W54347   3.731  16.093  14.993
90624W        W54348  25.558  36.408  11.495
90625W        W54349  32.033  26.507  12.878
90626W        W54350  20.093  40.981   4.354
90627W        W54351  21.132  16.112   3.199
90628W        W54352  43.800  23.996  14.303
90629W        W54353  25.146  25.480  11.498
90630W        W54354  24.084  34.481  13.047
90631W        W54355  12.668  26.693  13.794
90632W        W54356  10.377   1.743  10.142
90633W        W54357   9.345   0.392  10.978
90634W        W54358  15.718  41.983   4.238
90635W        W54359  10.854  34.909   4.612
90636W        W54360  13.280  28.143  14.851
90637W        W54361  43.327   8.821   0.911
90638W        W54362   8.860  23.539  11.019
90639W        W54363  23.495  15.131   2.682
90640W        W54364  19.087  20.220   1.697
90641W        W54365  27.050  15.768   4.660
90642W        W54366  32.967  16.119   1.870
90643W        W54367  27.451  43.826   1.238
90644W        W54368   5.285  20.716   1.745
90645W        W54369  29.547  12.712   1.234
90646W        W54370  12.623   4.771  10.977
90647W        W54371  34.537  33.513   2.379
90648W        W54372  32.987  31.434  11.521
90649W        W54373  12.170  23.016  13.370
90650W        W54374  31.992   1.750  11.098
90651W        W54375  42.843  21.146   3.852
90652W        W54376   8.760  18.270   3.154
90653W        W54377   6.740  38.026  12.433
90654W        W54378  33.430  29.481  14.020
90655W        W54379  34.568  12.634  14.001
90656W        W54380  17.241  34.583  12.985
90657W        W54381   6.887  16.244  13.398
90658W        W54382  34.902  15.720  14.989
90659W        W54383  33.419  11.856   4.335
90660W        W54384  37.504  15.261   1.312
90661W        W54385  25.074  10.193   2.397
90662W        W54386  43.864  23.562  14.361
90663W        W54387  33.905  19.695   2.857
90664W        W54388  27.510  35.931  13.330
90665W        W54389  16.298  31.631   0.354
90666W        W54390  43.855  42.952  13.804
90667W        W54391  10.678  33.057   1.276
90668W        W54392   6.857  27.959  13.005
90669W        W54393  38.009  21.632  10.625
90670W        W54394  17.234  38.950   2.674
90671W        W54395  27.048  28.548   4.277
90672W        W54396  26.513  27.163   2.779
90673W        W54397  11.141  21.540  14.338
90674W        W54398  28.937  29.645   2.249
90675W        W54399  13.330  28.650  10.417
90676W        W54400  13.626  40.395  13.526
90677W        W54401   5.689  30.941  13.909
90678W        W54402  37.345   1.892   4.152
90679W        W54403  29.622  29.621  12.546
90680W        W54404  37.345  24.695  12.403
90681W        W54405  20.602  25.204  11.436
90682W        W54406  12.239  37.497   3.305
90683W        W54407  28.483  26.511  13.540
90684W        W54408   3.901  15.196  11.485
90685W        W54409  33.877  23.049   1.216
90686W        W54410  25.693  40.472   1.907
90687W        W54411  34.505  28.174   0.353
90688W        W54412   0.891  13.250   2.385
90689W        W54413  37.033  26.069   4.799
90690W        W54414  44.316  24.591   5.158
90691W        W54415  40.045   4.756  11.876
90692W        W54416  12.710  29.155   4.233
90693W        W54417  19.757  42.284   4.345
90694W        W54418  29.558  18.190  13.880
90695W        W54419  41.799  27.638   1.370
90696W        W54420  42.329  36.873  13.333
90697W        W54421  32.469  43.327   3.245
90698W        W54422  32.534   6.334  13.315
90699W        W54423  33.481  34.459  12.352
90700W        W54424  27.001   2.318  11.033
90701W        W54425   8.247  35.381  14.456
90702W        W54426   3.423  27.560  12.875
90703W        W54427  11.294  39.020   0.843
90704W        W54428  11.736   0.975   4.613
90705W        W54429  30.631  13.132  11.498
90706W        W54430   0.374   2.459   4.201
90707W        W54431   1.437  10.670   2.372
90708W        W54432  32.503  37.906  14.952
90709W        W54433  38.823  16.278   2.810
90710W        W54434  10.736  38.870   3.354
90711W        W54435  31.991   7.198   0.394
90712W        W54436  44.463  17.612  13.940
90713W        W54437  16.203  39.869  11.415
90714W        W54438  10.822  19.582   2.813
90715W        W54439  44.463   2.280   3.212
90716W        W54440  38.557   5.827  12.962
90717W        W54441   7.337  35.495  14.982
90718W        W54442  12.807  26.474   3.247
90719W        W54443  28.997  13.135   3.712
90720W        W54444   7.856  42.324  11.071
90721W        W54445  29.516  10.336   2.721
90722W        W54446   5.216  38.883  11.393
90723W        W54447  29.434  28.074  12.401
90724W        W54448  26.959   5.417   4.694
90725W        W54449  29.667  24.571  11.554
90726W        W54450   1.898  18.176   1.301
90727W        W54451   2.854  29.633   4.820
90728W        W54452  36.919  10.232  11.947
90729W        W54453  13.282  22.039  12.893
90730W        W54454  39.054  10.855   2.853
90731W        W54455  18.124  36.413  14.842
90732W        W54456  26.074  27.656   4.142
90733W        W54457   5.299  18.752   2.306
90734W        W54458   1.295  32.948   2.891
90735W        W54459  37.465   8.316  13.494
90736W        W54460  38.867  13.160  10.073
90737W        W54461  17.241   4.217   3.275
90738W        W54462  44.319   6.236   1.696
90739W        W54463   8.360  30.000   3.766
90740W        W54464  21.523  21.613  10.947
90741W        W54465  26.965  37.870   4.133
90742W        W54466  22.657  12.624  10.972
90743W        W54467  19.537  11.850  11.998
90744W        W54468  13.628  22.151  14.283
90745W        W54469  40.530  17.782   2.375
90746W        W54470  17.254   5.799  11.117
90747W        W54471  22.129   2.266   2.731
90748W        W54472   8.382   0.302   3.777
90749W        W54473  38.954  42.320   4.291
90750W        W54474  26.495  27.521   3.364
90751W        W54475  10.232  44.454  13.396
90752W        W54476  33.061  42.864  12.521
90753W        W54477  40.375  26.526  10.973
90754W        W54478   6.288   2.933   3.386
90755W        W54479   1.389   0.958  12.565
90756W        W54480   6.706  31.990  10.945
90757W        W54481  39.018  40.028   2.338
90758W        W54482   7.196  30.053  10.477
90759W        W54483   0.846   5.724   3.356
90760W        W54484  40.965  11.629   3.286
90761W        W54485  40.342   5.282   4.640
90762W        W54486   8.740  25.079  14.300
90763W        W54487  11.675   0.400   3.692
90764W        W54488  18.754   9.174   1.926
90765W        W54489  22.580  24.509  11.091
90766W        W54490  20.234   0.356   1.807
90767W        W54491  32.904  13.226  10.637
90768W        W54492   1.349  28.439   4.131
90769W        W54493  34.538  17.297  14.030
90770W        W54494  26.575  27.940   9.959
90771W        W54495  19.086  39.043  12.402
90772W        W54496   0.486   4.288   2.290
90773W        W54497   0.494  41.380  12.913
90774W        W54498  11.333  23.195  12.484
90775W        W54499  24.577   0.249   1.348
90776W        W54500  35.942  27.675   4.799
90777W        W54501  13.845  20.664   4.214
90778W        W54502  18.718  28.124  12.426
90779W        W54503   9.719  37.015   2.831
90780W        W54504  27.948   0.983   5.306
90781W        W54505  21.251  43.506  10.630
90782W        W54506  21.723  38.064   0.813
90783W        W54507  26.524  37.500  13.337
90784W        W54508  12.734  18.581   4.268
90785W        W54509  15.315  20.639  12.393
90786W        W54510   6.263   8.260  13.310
90787W        W54511  17.132  10.634   3.646
90788W        W54512   9.292  39.830  12.341
90789W        W54513  34.924  14.187  12.032
90790W        W54514   4.800  35.029  13.058
90791W        W54515  37.349  21.714   1.716
90792W        W54516   9.775  22.639   2.711
90793W        W54517  32.907  18.630   0.333
90794W        W54518   5.751  16.262   1.425
90795W        W54519   7.294  43.939  12.823
90796W        W54520  22.713  22.520  10.084
90797W        W54521  13.611  13.775   2.766
90798W        W54522   5.383  37.945   1.222
90799W        W54523  10.659  42.397   3.858
90800W        W54524  10.634  16.087  11.585
90801W        W54525  23.160  22.153   1.795
90802W        W54526   0.834  16.234   3.370
90803W        W54527  10.830  36.398  13.380
90804W        W54528  37.425  20.227  11.580
90805W        W54529  29.983  26.055  13.404
90806W        W54530  31.612   4.298   3.252
90807W        W54531   6.197  26.134  14.418
90808W        W54532  18.646   1.944   4.651
90809W        W54533  38.442  30.075  14.502
90810W        W54534  23.212  14.761  13.952
90811W        W54535   9.698  24.532   0.774
90812W        W54536  24.557  34.967  12.087
90813W        W54537  17.161  40.949  13.466
90814W        W54538  42.310  36.097   2.740
90815W        W54539  20.265  25.481   3.235
90816W        W54540  15.645  44.429  13.401
90817W        W54541  10.878  20.623  14.478
90818W        W54542  16.736  25.511   4.647
90819W        W54543  30.490   9.285  13.863
90820W        W54544  43.981  30.613   3.824
90821W        W54545   8.334  36.528   0.844
90822W        W54546  28.990  39.888  14.458
90823W        W54547  28.480  15.809  13.859
90824W        W54548   4.920  32.008  14.821
90825W        W54549   6.218   5.306  14.011
90826W        W54550  23.134  21.685   4.680
90827W        W54551   3.324  30.559   2.374
90828W        W54552  10.186  23.097   2.188
90829W        W54553   7.723   3.438  12.035
90830W        W54554  30.931  28.117   3.153
90831W        W54555  17.162   2.311   2.203
90832W        W54556  26.516  13.690   2.734
90833W        W54557  29.641  35.056  13.453
90834W        W54558   9.785  19.752   0.371
90835W        W54559  30.088  35.928  10.998
90836W        W54560  32.486   2.938  12.419
90837W        W54561  18.668  20.645   2.803
90838W        W54562  11.865  11.696  14.860
90839W        W54563  28.065  21.263   0.419
90840W        W54564  29.599  11.298   0.959
90841W        W54565  12.642   1.867  13.837
90842W        W54566  14.184  29.582   1.820
90843W        W54567  26.660   1.761  12.369
90844W        W54568  10.364  11.235  13.945
90845W        W54569  33.121  37.941  12.906
90846W        W54570   6.279  42.977   9.993
90847W        W54571   6.746  37.451  11.403
90848W        W54572   6.275   7.669   0.882
90849W        W54573  21.239  32.006   0.364
90850W        W54574  15.280   9.869  12.945
90851W        W54575  21.110  31.129  14.829
90852W        W54576  43.879  28.125  11.033
90853W        W54577  23.016  41.796  13.518
90854W        W54578   5.857  25.639  14.480
90855W        W54579  44.756  43.476  12.359
90856W        W54580  21.710   4.365   3.749
90857W        W54581  42.336  11.819   0.913
90858W        W54582  35.915  13.218  14.445
90859W        W54583  27.087  40.400   2.190
90860W        W54584  25.083  44.862   3.238
90861W        W54585  37.050   7.403   0.245
90862W        W54586  29.095   2.720  10.495
90863W        W54587  41.493  44.263   4.280
90864W        W54588  14.834  29.928  12.901
90865W        W54589  17.580  20.635  14.822
90866W        W54590  24.227  20.654  11.570
90867W        W54591  22.654  13.109  14.500
90868W        W54592  15.767  21.536   2.703
90869W        W54593  26.611  44.969   5.228
90870W        W54594  12.145  33.901  10.529
90871W        W54595  29.980  30.990  14.514
90872W        W54596  43.922   0.852   4.785
90873W        W54597   2.241  33.890  11.974
90874W        W54598  11.834  20.202   4.800
90875W        W54599  23.006  39.392   0.769
90876W        W54600  11.165   2.939   2.314
90877W        W54601  38.922   0.960   4.225
90878W        W54602  34.425  26.546   3.320
90879W        W54603  43.012  30.088   1.243
90880W        W54604  15.622   0.860   0.294
90881W        W54605  38.401  28.094   1.403
90882W        W54606   9.750   5.376   1.417
90883W        W54607   8.196   7.812   3.695
90884W        W54608  20.615   1.806   3.632
90885W        W54609  41.849   1.413  11.561
90886W        W54610  27.460  41.309  14.002
90887W        W54611  43.938  40.532  11.400
90888W        W54612  42.524  29.606   1.701
90889W        W54613  28.104   4.307  14.017
90890W        W54614  21.076  43.273   3.289
90891W        W54615  32.491  42.888   0.920
90892W        W54616  33.597  16.703  10.634
90893W        W54617  29.526  33.424  10.446
90894W        W54618  39.930   8.171  13.537
90895W        W54619  32.967   5.863  10.483
90896W        W54620  39.882  43.963   5.721
90897W        W54621  11.707  32.015  13.901
90898W        W54622   1.802  42.381   2.857
90899W        W54623  19.651  36.864   4.275
90900W        W54624  43.946  11.364   1.856
90901W        W54625   8.791  22.040   4.136
90902W        W54626  30.455  14.305  13.443
90903W        W54627   7.214  42.793   3.311
90904W        W54628  38.346  37.915   4.323
90905W        W54629   1.942  36.511  14.344
90906W        W54630  15.641   6.735  10.499
90907W        W54631  10.190  21.037   4.833
90908W        W54632   3.406  40.508   1.933
90909W        W54633   4.399  17.702  11.383
90910W        W54634  19.060  25.626  11.865
90911W        W54635  24.982  24.692   1.764
90912W        W54636  38.552  16.593  11.125
90913W        W54637  25.097  21.606   4.305
90914W        W54638   5.240  43.884  12.505
90915W        W54639   0.918  25.564   1.934
90916W        W54640   8.201  22.558   4.216
90917W        W54641  19.551  34.401  13.869
90918W        W54642  25.218  35.026   4.832
90919W        W54643  43.394  36.094   0.759
90920W        W54644  11.836  38.556   1.838
90921W        W54645  44.819  26.966   2.854
90922W        W54646  21.656   2.252   4.340
90923W        W54647  12.615  24.498   4.133
90924W        W54648  29.494   6.879   5.266
90925W        W54649  25.145   5.384   0.920
90926W        W54650  36.987  37.425   0.887
90927W        W54651  38.032  22.152   4.619
90928W        W54652  17.753  13.797  14.407
90929W        W54653  18.648   7.396  10.518
90930W        W54654  16.204  34.511  10.568
90931W        W54655   7.408  13.622  14.478
90932W        W54656  14.212  22.718  14.286
90933W        W54657  34.036  26.118  10.612
90934W        W54658  44.264  43.970   2.710
90935W        W54659  41.356  19.713   0.318
90936W        W54660  35.508  22.578   2.795
90937W        W54661  39.882  11.817  12.008
90938W        W54662  36.956  21.242  12.403
90939W        W54663  19.245  13.712   1.228
90940W        W54664  13.192   0.408  11.896
90941W        W54665   1.931  32.049   3.208
90942W        W54666   9.201  39.944  13.899
90943W        W54667  19.049  16.263  11.870
90944W        W54668  25.176  33.892   1.759
90945W        W54669  35.090  25.043  11.969
90946W        W54670  26.629  43.814  11.959
90947W        W54671   8.813   1.879   3.735
90948W        W54672  17.768  38.913  13.826
90949W        W54673  20.220  31.591  13.362
90950W        W54674  19.650  18.093   4.834
90951W        W54675   8.335  19.557  12.890
90952W        W54676  13.120   7.747   1.726
90953W        W54677  29.471   5.847   3.740
90954W        W54678   6.328  37.526   4.754
90955W        W54679  39.052  30.553  14.369
90956W        W54680   7.816  13.275   2.244
90957W        W54681  22.185  21.173  12.050
90958W        W54682  32.090   9.741   4.763
90959W        W54683  15.748  22.736   5.135
90960W        W54684  14.300  10.878  13.060
90961W        W54685  22.521  38.835   4.241
90962W        W54686  24.647  22.734   0.953
90963W        W54687   3.940   2.824   4.830
90964W        W54688  18.663  36.863  14.802
90965W        W54689  22.560  23.064   2.392
90966W        W54690   5.797   2.859   0.366
90967W        W54691  18.788  35.925   4.221
90968W        W54692  18.058   0.784  11.431
90969W        W54693  43.347  18.075  14.286
90970W        W54694  42.335   7.202  14.875
90971W        W54695  41.433  39.553   1.710
90972W        W54696  20.252  30.580  14.483
90973W        W54697  30.579  24.017  10.966
90974W        W54698  40.447   2.341  11.502
90975W        W54699  20.698  14.254   2.696
90976W        W54700  30.965   1.926   0.763
90977W        W54701  35.439  37.958   3.296
90978W        W54702  32.096  40.412   2.864
90979W        W54703  32.079   6.679   3.230
90980W        W54704  30.149  33.128  11.387
90981W        W54705  39.905   4.928  14.836
90982W        W54706  30.987   0.820   3.729
90983W        W54707  35.970   6.329   3.636
90984W        W54708  12.159  32.507   4.264
90985W        W54709  26.654  15.237   1.230
90986W        W54710   9.739  10.327   4.686
90987W        W54711  44.783  43.785   1.714
90988W        W54712  26.665  17.617   0.740
90989W        W54713  33.461  16.161  12.979
90990W        W54714  32.543  12.264  13.360
90991W        W54715  29.565   3.807  14.279
90992W        W54716  44.902  12.121   2.260
90993W        W54717  20.232  23.662   0.285
90994W        W54718  27.182  25.161  14.956
90995W        W54719  17.753  24.990  11.945
90996W        W54720  43.964  34.013  14.850
90997W        W54721  16.100  13.733   2.209
90998W        W54722  21.040  29.430  11.452
90999W        W54723  43.341  35.408   4.341
91000W        W54724  36.866  31.983   3.772
91001W        W54725  27.976  10.724   1.799
91002W        W54726   4.928  41.430  13.885
91003W        W54727  29.922  42.960   0.459
91004W        W54728  14.646  44.853   0.384
91005W        W54729  18.050  12.322  14.774
91006W        W54730   1.731  39.826   3.694
91007W        W54731   4.306   1.327  10.902
91008W        W54732  13.797   4.440   1.845
91009W        W54733  16.772  41.479  14.942
91010W        W54734  31.922  15.822   2.759
91011W        W54735  12.274  14.792  11.103
91012W        W54736   2.845   3.296  10.462
91013W        W54737  15.706  31.950  13.489
91014W        W54738  29.969  17.307   3.340
91015W        W54739  38.395  10.338   2.677
91016W        W54740  41.373   6.184   1.928
91017W        W54741  17.795  30.519  12.036
91018W        W54742   3.739   8.187   3.166
91019W        W54743   5.244  23.213   3.645
91020W        W54744  34.085  34.555   3.695
91021W        W54745   2.294  20.042  13.478
91022W        W54746  17.092  43.917   1.901
91023W        W54747  11.205  42.417   3.310
91024W        W54748   0.956   5.800  12.015
91025W        W54749  13.196  22.529  11.046
91026W        W54750  16.290  36.429  12.543
91027W        W54751  11.272  35.480   4.778
91028W        W54752  22.625   3.308  12.860
91029W        W54753  41.008  19.180   3.698
91030W        W54754  29.114   4.721  10.927
91031W        W54755  26.459  29.488   1.916
91032W        W54756  20.568   9.788   1.231
91033W        W54757  41.479  32.909  11.997
91034W        W54758  11.353  22.013  14.358
91035W        W54759   1.751   5.702   0.962
91036W        W54760  10.861  40.477   2.274
91037W        W54761  10.234  32.080  13.043
91038W        W54762  26.486  18.661  13.546
91039W        W54763  14.185  41.872   3.641
91040W        W54764  30.970  22.634   4.741
91041W        W54765  19.233  19.129  12.475
91042W        W54766  24.480  26.205  10.902
91043W        W54767  35.957  13.753  11.375
91044W        W54768  25.523   0.866   2.203
91045W        W54769   1.306  20.642  10.591
91046W        W54770  33.557   0.975   3.356
91047W        W54771  27.494  31.061   2.324
91048W        W54772  43.387   1.738  10.406
91049W        W54773  41.513  19.116   1.796
91050W        W54774   0.448  29.658  10.603
91051W        W54775  28.680  10.372   2.842
91052W        W54776   0.363  30.615  13.496
91053W        W54777  17.677  40.527   0.885
91054W        W54778  22.700  28.094  14.890
91055W        W54779  24.534   0.366  14.294
91056W        W54780   9.257  22.200   0.881
91057W        W54781  31.107   1.419  12.028
91058W        W54782  39.022  26.188   3.238
91059W        W54783   6.265   3.311  11.587
91060W        W54784   9.351   0.397  14.494
91061W        W54785  37.487  41.351  14.968
91062W        W54786  17.714   8.728   1.925
91063W        W54787  33.612  11.734  10.533
91064W        W54788  10.816   7.325   4.746
91065W        W54789  16.607  38.340   3.361
91066W        W54790   5.406   8.380   1.762
91067W        W54791  39.959  35.551  10.960
91068W        W54792  26.082  42.351   3.856
91069W        W54793  13.740  25.185  11.082
91070W        W54794  26.652   4.878  14.346
91071W        W54795  35.978  36.966  13.014
91072W        W54796  20.165  35.451   4.274
91073W        W54797  43.352  26.149   1.275
91074W        W54798  10.754   1.341  11.928
91075W        W54799  29.162  38.523  13.032
91076W        W54800  41.014  26.967   3.831
91077W        W54801  22.069  25.470  13.411
91078W        W54802  11.733  26.052   2.890
91079W        W54803  13.285  32.056   2.368
91080W        W54804   2.816  13.638   1.363
91081W        W54805  39.366  40.858   5.793
91082W        W54806  32.444  42.000   1.728
91083W        W54807  18.233  31.420  14.775
91084W        W54808  12.781   2.931   2.342
91085W        W54809  17.067  29.069   4.197
91086W        W54810  33.618  16.174   2.342
91087W        W54811  30.604  25.696   4.679
91088W        W54812  37.020  15.609   3.373
91089W        W54813  36.891  21.228  14.031
91090W        W54814  28.944  25.027   1.810
91091W        W54815  42.880   6.336   5.260
91092W        W54816   6.383  21.558  10.614
91093W        W54817  18.091  29.108  14.319
91094W        W54818  42.843   6.240  14.001
91095W        W54819  16.653  38.896  12.468
91096W        W54820  10.686  10.258  11.511
91097W        W54821  25.713  14.280  13.383
91098W        W54822  43.904   3.441   1.337
91099W        W54823  30.977  19.691  14.464
91100W        W54824  42.982  21.220   2.857
91101W        W54825  11.816  39.813  12.089
91102W        W54826  32.098  19.609  14.427
91103W        W54827   0.842  43.356   3.295
91104W        W54828  28.547   5.871   1.267
91105W        W54829  18.205   9.317   3.233
91106W        W54830  30.436  12.334  13.021
91107W        W54831  36.376  16.272  12.051
91108W        W54832  25.182  22.197   2.700
91109W        W54833  36.559  39.366   2.680
91110W        W54834  15.184  42.379  13.388
91111W        W54835  20.048  22.717  14.397
91112W        W54836  35.595  40.008   1.864
91113W        W54837  10.339  12.290   2.189
91114W        W54838  14.696  44.004  14.759
91115W        W54839  15.669  40.427   1.911
91116W        W54840   6.887  32.897   2.191
91117W        W54841   6.711  36.863   0.803
91118W        W54842  18.149  16.712   2.704
91119W        W54843  12.827  40.042  14.403
91120W        W54844  26.551  23.544  13.390
91121W        W54845  39.322  39.929   3.638
91122W        W54846  41.943  10.294   3.330
91123W        W54847   3.883  42.375  12.962
91124W        W54848  19.134  41.328  11.915
91125W        W54849   3.759  39.444   1.231
91126W        W54850  18.288   2.446  12.563
91127W        W54851  28.064   1.248   2.881
91128W        W54852  37.575  17.639   3.807
91129W        W54853  17.802   2.346  13.913
91130W        W54854  29.568  26.196  11.486
91131W        W54855   2.886  38.833   3.294
91132W        W54856   8.284  42.910  11.051
91133W        W54857  13.784  15.127   2.319
91134W        W54858   6.784   1.781  14.468
91135W        W54859   0.915  16.786   3.318
91136W        W54860   7.674  39.970   4.276
91137W        W54861  40.403   1.731  12.913
91138W        W54862  22.646  25.073   1.838
91139W        W54863  24.175  37.000  13.442
91140W        W54864  19.579  27.511  11.601
91141W        W54865   3.912  19.717   3.787
91142W        W54866  42.481   7.836   3.788
91143W        W54867  23.723  41.443  11.472
91144W        W54868  24.668  20.767  13.352
91145W        W54869  10.668  10.139  13.893
91146W        W54870  14.275  30.657  13.324
91147W        W54871  28.142  28.511  11.884
91148W        W54872  33.621   0.344  11.537
91149W        W54873  37.938  32.952  12.030
91150W        W54874  39.418  44.773   3.238
91151W        W54875  21.207  19.772  12.854
91152W        W54876   3.230   6.226  13.962
91153W        W54877   4.382   1.421   1.749
91154W        W54878  10.801  33.908  13.458
91155W        W54879  40.423  14.626   4.783
91156W        W54880  44.447  22.704   5.116
91157W        W54881  34.964  27.030  11.079
91158W        W54882  31.017  42.798   2.882
91159W        W54883   4.899  12.782  14.479
91160W        W54884  27.089  43.306   2.394
91161W        W54885  35.487  20.153  13.962
91162W        W54886  18.053   2.369   0.807
91163W        W54887  19.045   2.454   1.344
91164W        W54888  19.142  33.998   0.431
91165W        W54889  30.941  30.994   3.377
91166W        W54890  42.934  40.449  12.948
91167W        W54891  22.522   0.872   3.826
91168W        W54892  38.929  32.086   0.740
91169W        W54893   6.836  27.677  12.074
91170W        W54894   7.351   9.796   1.362
91171W        W54895  37.936  12.806  11.064
91172W        W54896   3.773  35.935  10.496
91173W        W54897  11.291  22.668   3.746
91174W        W54898  21.592  36.950   0.846
91175W        W54899  17.679  22.705  12.849
91176W        W54900  35.945  30.957   0.948
91177W        W54901  44.354  25.670  10.937
91178W        W54902   4.364  34.368   4.784
91179W        W54903   6.695  23.704   2.815
91180W        W54904   9.868   9.295   0.259
91181W        W54905  11.848  20.659  14.939
91182W        W54906  44.414  26.585   2.375
91183W        W54907  23.075  13.806   4.113
91184W        W54908  41.450   4.705  13.959
91185W        W54909   1.867  15.770   0.815
91186W        W54910   9.860   4.396   1.905
91187W        W54911  25.039  43.371  13.885
91188W        W54912  35.030  26.525  13.338
91189W        W54913  19.233  34.443  12.449
91190W        W54914  42.001  18.120  10.037
91191W        W54915  17.080  13.725  13.537
91192W        W54916   6.345  13.257  11.122
91193W        W54917  38.554  39.455   1.773
91194W        W54918  41.860  26.616   2.720
91195W        W54919  17.603  12.316   1.767
91196W        W54920  10.175  10.857   3.733
91197W        W54921   8.764   1.483  10.485
91198W        W54922   6.855   4.437  13.063
91199W        W54923  29.060   9.336   1.861
91200W        W54924   3.364  29.526  12.995
91201W        W54925  38.550  24.120   0.944
91202W        W54926  13.211  26.485   2.752
91203W        W54927  11.352  42.934  14.301
91204W        W54928  30.043  12.836  12.385
91205W        W54929  26.073  23.211   4.138
91206W        W54930  32.603  15.287  12.506
91207W        W54931  34.884  11.313   1.763
91208W        W54932  10.765  36.985  12.541
91209W        W54933  27.459  38.866  14.948
91210W        W54934  31.146  32.084   1.282
91211W        W54935  20.526  38.454  12.014
91212W        W54936  22.156   5.878  13.369
91213W        W54937  33.066  31.896   3.153
91214W        W54938  33.088  12.764  11.537
91215W        W54939  32.400  34.466   2.368
91216W        W54940  35.532  30.067  13.844
91217W        W54941   7.720  29.425   2.752
91218W        W54942  25.025  26.034   3.800
91219W        W54943  11.357  32.473  11.541
91220W        W54944  28.607  26.497  11.987
91221W        W54945  31.408  20.616  12.528
91222W        W54946   3.245  36.455   0.937
91223W        W54947  24.220   9.853   0.736
91224W        W54948   1.406  40.992   4.634
91225W        W54949  21.613  32.991  11.053
91226W        W54950  44.933  40.853   0.442
91227W        W54951  17.179   1.404  13.861
91228W        W54952  19.586  13.839   2.690
91229W        W54953  38.046  18.558  11.893
91230W        W54954  20.169  15.203  14.802
91231W        W54955  27.636  10.778  12.348
91232W        W54956   8.894  34.079  14.886
91233W        W54957  16.692   8.361  12.071
91234W        W54958   2.408   4.303  12.529
91235W        W54959  43.359  39.444   1.823
91236W        W54960   8.687  19.758  12.464
91237W        W54961  12.214  21.121   1.856
91238W        W54962  20.255  35.004   3.631
91239W        W54963  11.831  40.925  12.487
91240W        W54964  10.175  33.106   2.204
91241W        W54965  17.769  43.275   4.260
91242W        W54966   0.253  39.816  12.888
91243W        W54967  10.185  30.916  13.447
91244W        W54968  19.601   6.894  10.485
91245W        W54969  17.092  27.144   2.846
91246W        W54970  27.188  36.938  12.985
91247W        W54971  11.133  43.886   0.349
91248W        W54972  38.922   7.246   1.383
91249W        W54973   3.440  28.083  13.312
91250W        W54974  28.544  10.847  12.028
91251W        W54975   4.362  10.708   3.770
91252W        W54976  15.122   9.149  10.476
91253W        W54977  35.555  29.476  10.983
91254W        W54978  19.715  26.534  11.592
91255W        W54979   0.408  10.654  14.485
91256W        W54980   1.750  25.500   0.464
91257W        W54981   5.752  19.212  11.905
91258W        W54982   7.255   1.449   2.399
91259W        W54983  39.369  10.716   2.325
91260W        W54984  16.278  42.929  11.579
91261W        W54985  22.114  19.591   3.148
91262W        W54986   3.870  31.415   2.833
91263W        W54987  22.219   2.887  12.010
91264W        W54988  39.475  33.130  13.311
91265W        W54989  26.627  18.558   4.779
91266W        W54990  20.037  32.437  13.343
91267W        W54991  18.189  10.763  12.040
91268W        W54992  11.807  27.959   0.247
91269W        W54993  11.743  27.967   2.407
91270W        W54994  39.011  40.413   0.327
91271W        W54995  11.723  42.961   3.329
91272W        W54996   0.803  27.961   1.741
91273W        W54997   6.866  26.477  10.422
91274W        W54998  20.558  30.596   2.730
91275W        W54999   4.825   0.780  12.002
91276W        W55000  44.374  27.039  13.982
91277W        W55001  13.341  39.881   4.144
91278W        W55002   1.956  24.547   4.302
91279W        W55003   1.769   9.759  11.939
91280W        W55004  34.032  11.689  13.917
91281W        W55005   1.733  11.863   0.335
91282W        W55006   8.162  14.783  10.101
91283W        W55007   2.459  12.727   3.716
91284W        W55008   2.801  11.721   4.251
91285W        W55009   3.820   7.384  11.904
91286W        W55010   1.399  22.694  11.551
91287W        W55011  13.310  31.995   2.899
91288W        W55012   2.292  30.613   4.799
91289W        W55013  18.733  30.511   0.750
91290W        W55014  24.532  13.622   3.324
91291W        W55015   0.845  38.914  10.158
91292W        W55016  39.542   8.797  12.049
91293W        W55017  23.515  42.341  12.553
91294W        W55018  19.692  37.015   1.790
91295W        W55019  18.140   0.468  11.585
91296W        W55020  14.317  18.730  12.829
91297W        W55021  27.065  27.147  13.385
91298W        W55022  40.346   3.350  11.538
91299W        W55023  12.329   6.269   5.247
91300W        W55024  19.598   0.354   3.334
91301W        W55025   5.309  18.546  13.966
91302W        W55026   2.858   3.353   5.115
91303W        W55027  44.501  30.647   3.362
91304W        W55028  41.788  41.504   1.259
91305W        W55029  10.665  39.827  10.496
91306W        W55030  32.129  43.926   0.401
91307W        W55031  16.584  44.416   1.866
91308W        W55032  42.009  27.668   2.887
91309W        W55033  36.997  30.136   0.870
91310W        W55034   8.861  33.894  11.991
91311W        W55035   6.216  41.932   2.704
91312W        W55036   1.428  35.465  13.486
91313W        W55037  31.979  19.188  11.501
91314W        W55038   4.206  43.959  13.969
91315W        W55039   4.402  25.693   2.207
91316W        W55040  17.620  33.987   3.844
91317W        W55041  39.457  14.743  12.522
91318W        W55042  12.308   3.317  14.761
91319W        W55043  41.364  44.977   3.845
91320W        W55044  12.623   5.740   0.859
91321W        W55045  31.904  31.154   1.849
91322W        W55046  27.482  27.535   0.777
91323W        W55047   5.748  27.050  11.992
91324W        W55048  16.212   0.892  13.331
91325W        W55049  13.771   5.311  11.386
91326W        W55050  25.977  25.666  10.932
91327W        W55051  29.034  44.963   2.735
91328W        W55052  19.665  40.886   2.741
91329W        W55053  13.722  37.542  10.483
91330W        W55054  29.944  38.397  14.959
91331W        W55055  19.695   6.322   4.720
91332W        W55056  14.791  42.954  14.485
91333W        W55057  18.165  35.941   2.876
91334W        W55058   5.355  41.343   1.211
91335W        W55059  30.474  15.585   2.750
91336W        W55060  25.605  18.274   1.861
91337W        W55061  38.836  21.549   3.313
91338W        W55062  28.135  15.285  11.071
91339W        W55063  27.196  44.886   1.742
91340W        W55064  34.874  22.580  13.841
91341W        W55065  13.715  27.052  13.016
91342W        W55066  31.437  35.871   1.289
91343W        W55067  38.408  18.735  10.604
91344W        W55068  27.024  11.144   0.441
91345W        W55069   7.279  37.469  12.070
91346W        W55070  22.231   4.299  13.316
91347W        W55071  41.474  13.668   1.352
91348W        W55072   7.679  14.190  13.371
91349W        W55073  18.064  30.014  12.535
91350W        W55074   3.734   8.344   4.774
91351W        W55075  18.747  23.689  10.554
91352W        W55076  33.505  36.953   1.230
91353W        W55077  43.980   8.708   4.754
91354W        W55078  21.257  21.127   3.817
91355W        W55079  42.330  40.865  12.429
91356W        W55080   2.327  21.024  11.583
91357W        W55081  39.821  43.916   2.407
91358W        W55082  35.920  29.933  11.926
91359W        W55083  39.999  13.319  14.900
91360W        W55084   6.321  38.527   0.772
91361W        W55085  24.178  30.446   0.336
91362W        W55086  17.283   2.374  12.926
91363W        W55087  31.537  43.801   2.317
91364W        W55088   0.258  23.537  13.374
91365W        W55089  25.543  14.609   1.214
91366W        W55090  24.142   9.270   1.853
91367W        W55091   2.743   8.766  12.453
91368W        W55092  24.078  14.726  10.987
91369W        W55093  39.332   2.326  12.019
91370W        W55094  22.599  41.419   1.372
91371W        W55095  16.259  29.090  11.888
91372W        W55096  22.130  17.100   3.827
91373W        W55097  11.354   3.899  13.507
91374W        W55098   8.191  13.737   0.301
91375W        W55099  14.165  12.168   0.892
91376W        W55100  35.099   4.793   0.349
91377W        W55101  37.363  31.519   2.222
91378W        W55102  23.202  26.107  12.490
91379W        W55103  13.710  28.595  13.370
91380W        W55104  33.086   0.262  14.470
91381W        W55105  19.149   7.828   1.789
91382W        W55106  24.711   4.753  13.915
91383W        W55107  37.577  28.081  12.027
91384W        W55108  18.163   4.927  12.012
91385W        W55109  29.075  23.217   4.664
91386W        W55110  27.483   1.782   1.448
91387W        W55111  20.232  41.454   2.375
91388W        W55112  40.381   4.813   3.259
91389W        W55113   5.326  27.575   4.220
91390W        W55114  36.852  22.101   2.667
91391W        W55115  20.064   6.279  14.965
91392W        W55116  32.595  42.782  13.815
91393W        W55117   4.227  11.624   2.896
91394W        W55118   3.277   1.391  11.969
91395W        W55119  22.552  28.035  10.435
91396W        W55120   8.268   0.369  12.442
91397W        W55121  35.028  19.179   3.683
91398W        W55122  39.891  35.881   4.289
91399W        W55123  24.651  36.010   4.662
91400W        W55124  44.504   8.751   3.863
91401W        W55125  11.843  23.577  13.862
91402W        W55126   2.404  20.739  11.861
91403W        W55127  35.911   0.259  14.872
91404W        W55128  27.097  25.675  12.856
91405W        W55129  33.608   6.889  13.893
91406W        W55130  40.518   5.912   4.202
91407W        W55131  30.547  42.827  14.766
91408W        W55132  42.426  30.953  10.961
91409W        W55133  14.703  33.560  11.982
91410W        W55134  43.360  35.057  14.502
91411W        W55135   1.731  36.996   4.687
91412W        W55136  36.027  42.364  12.920
91413W        W55137  10.356  38.350   0.947
91414W        W55138  41.474  11.327  14.794
91415W        W55139   5.262   6.889  11.874
91416W        W55140   1.970  16.160   3.796
91417W        W55141  16.144  14.692   3.644
91418W        W55142  16.618   4.803  13.029
91419W        W55143  34.420  10.793   1.232
91420W        W55144  12.813  20.240  14.973
91421W        W55145  18.282   5.348   1.225
91422W        W55146  41.495  36.492   1.698
91423W        W55147  35.999  36.459  14.306
91424W        W55148  29.457  40.524   2.388
91425W        W55149  32.531  24.144   1.349
91426W        W55150  40.398  27.194  13.505
91427W        W55151  27.463  28.082  14.329
91428W        W55152   0.434  39.052  14.479
91429W        W55153  44.807  20.210   1.894
91430W        W55154  34.560  24.052  12.388
91431W        W55155   2.302   4.439   1.806
91432W        W55156  42.956  32.040   1.358
91433W        W55157  12.313  33.434   2.373
91434W        W55158  31.445  36.571  13.519
91435W        W55159   9.342  17.611   2.384
91436W        W55160  37.927  23.550  12.077
91437W        W55161  27.550   3.875  11.087
91438W        W55162  42.483  23.577   1.450
91439W        W55163  43.826   0.954   3.858
91440W        W55164  13.754   3.231   3.849
91441W        W55165  11.341  14.095  12.472
91442W        W55166  43.997  14.212  11.504
91443W        W55167  28.089  21.691   2.679
91444W        W55168  23.640  14.214   2.297
91445W        W55169  17.113   9.347  10.551
91446W        W55170  44.811  27.549  10.512
91447W        W55171  28.451  44.283  12.541
91448W        W55172  23.547  32.459   5.282
91449W        W55173   7.267  29.430   1.270
91450W        W55174  21.123  34.885   2.747
91451W        W55175  14.591  19.098   4.797
91452W        W55176  19.538   5.327  11.523
91453W        W55177  42.519  24.092   3.835
91454W        W55178   7.250  36.039   2.677
91455W        W55179  37.512  13.266   1.295
91456W        W55180  18.759  26.030  11.067
91457W        W55181  27.034  42.334   3.279
91458W        W55182  42.785  31.903  14.888
91459W        W55183  22.626  34.028  11.012
91460W        W55184  12.217   1.329  14.794
91461W        W55185  25.583  19.280  14.406
91462W        W55186  41.354  18.697   2.237
91463W        W55187   6.905  40.916  13.418
91464W        W55188  19.049   5.247  13.465
91465W        W55189  32.090   3.258   4.222
91466W        W55190  25.535  14.626   1.742
91467W        W55191  26.644  42.390  11.510
91468W        W55192  24.136  37.005   1.739
91469W        W55193  15.124  12.224   2.742
91470W        W55194   2.452  41.019  14.392
91471W        W55195  17.726  31.412  10.405
91472W        W55196  10.858  21.691   0.915
91473W        W55197  12.342  26.168  11.575
91474W        W55198  35.087  40.873  14.818
91475W        W55199  29.444   8.835   5.198
91476W        W55200   2.854   6.762  13.799
91477W        W55201   7.233  39.876  12.433
91478W        W55202  19.759  14.212   4.151
91479W        W55203   8.397   7.717   3.150
91480W        W55204  35.057  38.513  14.802
91481W        W55205  31.979  33.462   0.341
91482W        W55206  18.670  31.443  14.759
91483W        W55207  13.219  23.076   1.325
91484W        W55208   6.409  12.191  14.351
91485W        W55209  27.965  29.103  14.405
91486W        W55210  28.556  19.088   4.159
91487W        W55211  29.663  32.994  14.434
91488W        W55212   6.845  28.636   1.807
91489W        W55213  22.081  31.539   1.445
91490W        W55214  32.104  35.946  12.083
91491W        W55215   3.247  36.856   3.334
91492W        W55216  22.137  31.620   3.335
91493W        W55217  35.475  42.814  14.853
91494W        W55218  12.218  40.002  11.103
91495W        W55219  27.021  40.459   0.751
91496W        W55220   2.252  27.690   3.238
91497W        W55221  16.745  38.478   2.830
91498W        W55222   4.276   2.364   2.332
91499W        W55223   5.412  17.776  12.827
91500W        W55224  20.035  19.232  10.588
91501W        W55225  24.977  16.309  13.427
91502W        W55226  26.499  41.316  11.053
91503W        W55227  26.611  28.185   1.732
91504W        W55228  23.075  17.701   4.836
91505W        W55229  34.904  33.888   0.458
91506W        W55230   4.229  43.999   3.181
91507W        W55231   5.318  10.637   2.343
91508W        W55232  11.733  32.492  12.832
91509W        W55233  18.285  25.179  11.082
91510W        W55234  28.591   2.282  12.949
91511W        W55235  33.920   2.786  13.492
91512W        W55236   0.920  21.222  10.425
91513W        W55237  36.425  32.063   1.236
91514W        W55238  16.771  39.918  14.816
91515W        W55239  27.650  20.262  14.027
91516W        W55240  34.395   3.370  11.998
91517W        W55241  27.028  27.128  11.545
91518W        W55242  28.160  36.358  11.383
91519W        W55243  23.985   2.859   2.895
91520W        W55244  37.553  39.317  11.911
91521W        W55245  41.421  35.940  14.463
91522W        W55246  13.630   2.801   4.766
91523W        W55247  19.595  23.539  14.031
91524W        W55248   8.815  23.696  10.527
91525W        W55249  39.044   7.854  12.979
91526W        W55250  39.387  38.439   2.193
91527W        W55251  11.679   8.346   3.641
91528W        W55252   5.271   5.346  11.065
91529W        W55253  43.364  41.988   5.134
91530W        W55254  24.067  14.198  11.021
91531W        W55255  20.120  44.827   3.735
91532W        W55256  12.664  21.627  14.948
91533W        W55257  42.003  34.543   2.788
91534W        W55258  14.158  27.686   4.705
91535W        W55259  35.969  28.673   0.308
91536W        W55260   3.378  39.510  11.484
91537W        W55261  15.762  25.612  12.936
91538W        W55262  36.006  43.820  11.410
91539W        W55263  36.409  22.173   4.186
91540W        W55264  38.367  31.019  10.516
91541W        W55265  42.444  38.520   5.291
91542W        W55266   1.784  33.046  12.468
91543W        W55267  40.540  29.975   0.754
91544W        W55268  41.408   2.743  11.377
91545W        W55269  18.216  29.466   4.231
91546W        W55270  19.137  28.117   3.259
91547W        W55271   5.376  35.580  11.442
91548W        W55272  11.308  16.654   4.239
91549W        W55273   3.718  10.348  13.485
91550W        W55274   7.417  29.127  13.994
91551W        W55275  16.711   5.787   3.224
91552W        W55276   7.366  11.333  12.575
91553W        W55277   5.690  26.632  13.982
91554W        W55278   0.798  40.954   0.745
91555W        W55279  33.389   5.411   1.877
91556W        W55280  25.628  12.725   4.160
91557W        W55281  16.700  44.385   2.286
91558W        W55282  10.331  30.107  14.967
91559W        W55283  31.422  19.101   2.884
91560W        W55284  14.777  14.127   5.301
91561W        W55285   8.756  11.338   3.171
91562W        W55286  13.731   5.345   0.839
91563W        W55287  18.642  14.655   2.260
91564W        W55288  13.696  28.587  14.831
91565W        W55289  34.074  39.850  14.005
91566W        W55290  34.023  34.114   1.861
91567W        W55291  13.770  15.329   4.215
91568W        W55292  20.163  10.216  10.037
91569W        W55293  12.210  35.445  11.935
91570W        W55294  29.996  13.682   1.758
91571W        W55295  42.986  43.405   1.303
91572W        W55296  10.221  33.496  11.122
91573W        W55297  31.648  36.591   0.477
91574W        W55298  10.823   3.455  12.016
91575W        W55299  34.374  21.651  11.546
91576W        W55300   1.761  31.547   3.711
91577W        W55301  30.515  30.956  12.531
91578W        W55302  28.517  21.150  13.842
91579W        W55303  11.169   9.387  14.805
91580W        W55304  14.598  28.017  11.953
91581W        W55305  34.415  12.290   0.942
91582W        W55306   0.823  39.361   4.259
91583W        W55307  42.950   0.304   9.958
91584W        W55308   5.811  24.187  12.068
91585W        W55309  21.521   4.414  14.824
91586W        W55310  38.924  10.819  10.589
91587W        W55311   0.910  27.671  11.494
91588W        W55312  32.558  26.614  12.401
91589W        W55313   9.677   8.312  13.475
91590W        W55314  26.186  39.396  12.971
91591W        W55315  38.858  19.202   0.271
91592W        W55316  14.675  25.033   4.776
91593W        W55317  31.477  10.871   2.787
91594W        W55318   0.970   4.335  11.509
91595W        W55319   2.866  22.679  11.441
91596W        W55320  44.432  21.183   2.827
91597W        W55321   2.896  23.022   1.694
91598W        W55322  40.809  31.918   4.722
91599W        W55323  31.087  16.154  13.338
91600W        W55324   7.826  20.263   2.880
91601W        W55325   3.424  11.131  13.336
91602W        W55326   1.781  14.623  11.953
91603W        W55327   6.414  10.633  11.554
91604W        W55328   5.856   7.695  14.475
91605W        W55329  41.820   4.831  11.870
91606W        W55330  28.933  38.432  11.408
91607W        W55331  33.118  37.542   4.197
91608W        W55332  14.627  36.534  10.965
91609W        W55333   2.433  10.739  12.853
91610W        W55334  35.895  12.188  11.603
91611W        W55335  14.623  21.233   3.146
91612W        W55336  32.985  41.313   3.791
91613W        W55337  19.276  19.562   2.667
91614W        W55338  24.040  19.272  10.502
91615W        W55339  29.438  32.444  11.077
91616W        W55340  39.386  26.017  13.013
91617W        W55341   9.756  14.765  13.863
91618W        W55342  19.194  14.726  10.405
91619W        W55343  18.606   2.288  11.975
91620W        W55344   6.824   0.787  10.947
91621W        W55345   8.363   2.776   3.193
91622W        W55346   4.255  23.601  12.932
91623W        W55347  40.310  31.985  13.398
91624W        W55348   0.858   1.768  11.114
91625W        W55349  32.583   6.402  11.981
91626W        W55350  30.956   1.353  13.360
91627W        W55351  25.056   0.271  13.903
91628W        W55352   8.192  19.191   1.701
91629W        W55353  23.168  35.854  11.453
91630W        W55354   2.781   6.199  13.843
91631W        W55355  10.815  24.675  12.071
91632W        W55356  34.024  29.543  14.798
91633W        W55357  20.035  13.754   0.741
91634W        W55358  27.953  23.094  12.536
91635W        W55359  42.829  24.699   2.771
91636W        W55360   6.188  41.001   1.932
91637W        W55361   9.239   8.672  11.549
91638W        W55362   0.452   7.228  13.003
91639W        W55363  44.389  35.572   1.217
91640W        W55364  23.606  14.667  14.459
91641W        W55365  39.850  36.567   0.865
91642W        W55366  21.735  32.629  10.527
91643W        W55367   4.826  11.716  13.881
91644W        W55368  34.035  22.207   3.778
91645W        W55369  36.060  44.888  14.010
91646W        W55370  28.176  14.324   3.284
91647W        W55371  21.629  10.338   4.187
91648W        W55372  13.207  38.347  10.556
91649W        W55373   5.420  39.014  12.980
91650W        W55374   2.342  13.726   3.192
91651W        W55375  30.571  44.829   1.872
91652W        W55376   4.800  15.795   4.170
91653W        W55377  37.058  10.317   4.816
91654W        W55378  14.160  27.145   2.721
91655W        W55379  28.960  25.598   0.423
91656W        W55380  25.045  37.953   0.786
91657W        W55381  15.747  30.464  13.480
91658W        W55382   1.392  10.175  13.381
91659W        W55383  15.227  28.648   0.874
91660W        W55384  40.838  35.461   0.961
91661W        W55385   0.442   5.241   4.288
91662W        W55386  16.742  17.120   3.812
91663W        W55387   1.434  21.752   0.446
91664W        W55388  38.471  13.718   0.766
91665W        W55389  12.653  39.492   2.378
91666W        W55390  32.548  16.616  13.366
91667W        W55391  16.644  17.627  14.838
91668W        W55392   2.885  25.547   1.794
91669W        W55393  20.221  13.188  11.475
91670W        W55394   1.942  39.876   0.324
91671W        W55395  10.211  28.943   0.340
91672W        W55396   6.303  16.165  13.000
91673W        W55397  30.566  29.617  11.550
91674W        W55398   0.293  44.401  11.972
91675W        W55399  35.581  39.832  12.859
91676W        W55400   0.764  23.525   0.358
91677W        W55401  31.096  44.298   4.620
91678W        W55402   7.403  19.257   1.365
91679W        W55403  36.088  33.559   1.302
91680W        W55404  22.030  25.151   0.478
91681W        W55405  36.424   4.936  14.405
91682W        W55406  27.069   7.267   1.858
91683W        W55407  40.373  21.679  12.478
91684W        W55408  17.178   7.827  12.442
91685W        W55409  44.417   2.812  13.332
91686W        W55410  27.560  16.205   3.781
91687W        W55411  42.846  30.923   3.630
91688W        W55412  12.731  32.106   2.248
91689W        W55413  18.769  28.960  12.508
91690W        W55414  24.501   2.255  14.498
91691W        W55415  44.309  24.195   0.901
91692W        W55416   6.230  30.657  11.449
91693W        W55417  40.870   6.705   3.273
91694W        W55418   4.843   3.315  10.918
91695W        W55419  18.062  17.202   2.215
91696W        W55420  32.446  33.528   0.297
91697W        W55421  20.093  32.579   1.794
91698W        W55422  36.482  44.820  11.886
91699W        W55423   6.684  12.808   2.679
91700W        W55424  18.713  23.227  13.366
91701W        W55425  43.435   9.155  12.835
91702W        W55426   7.743   3.774   0.411
91703W        W55427  23.029  28.948  13.414
91704W        W55428   5.303   7.677   0.893
91705W        W55429  15.106   7.725  13.386
91706W        W55430   4.232  25.048  13.313
91707W        W55431  20.674   5.359   2.210
91708W        W55432   9.296  18.060  10.962
91709W        W55433   8.814  39.559   3.181
91710W        W55434   0.358  10.718  12.356
91711W        W55435  26.587   4.919  11.986
91712W        W55436  13.737  12.304   2.703
91713W        W55437  22.726   9.356  12.465
91714W        W55438  40.907  13.248  13.987
91715W        W55439  29.427  20.155  11.101
91716W        W55440  27.128   5.871  10.899
91717W        W55441  40.885  19.583   4.655
91718W        W55442  42.524  39.364  11.594
91719W        W55443  44.311   0.787   2.687
91720W        W55444  29.619  36.512   4.785
91721W        W55445  18.699  22.077  10.598
91722W        W55446  14.682  12.807  13.885
91723W        W55447  10.164   0.773   3.200
91724W        W55448  41.838  35.109  14.382
91725W        W55449  33.561  41.332   2.393
91726W        W55450   7.373  41.896   1.702
91727W        W55451   0.746  26.477  11.534
91728W        W55452  41.494  20.584   2.242
91729W        W55453  27.972  28.942  11.108
91730W        W55454   8.746  33.879  13.485
91731W        W55455  27.582  20.229  14.443
91732W        W55456  19.111   0.840  13.357
91733W        W55457  19.092  14.713   4.281
91734W        W55458  14.299   7.819  10.010
91735W        W55459  12.654  11.136   1.921
91736W        W55460   2.933  37.458  13.017
91737W        W55461   6.426  31.426  11.907
91738W        W55462  22.241  42.832  14.408
91739W        W55463  40.449  30.034   0.303
91740W        W55464  10.776  34.450   1.394
91741W        W55465  13.726   5.880  11.553
91742W        W55466  19.757  28.140  10.989
91743W        W55467  35.478  29.476  11.556
91744W        W55468   5.879  22.215  10.929
91745W        W55469  30.485  38.863   4.296
91746W        W55470  30.498  36.040  11.081
91747W        W55471  25.627   6.808  12.385
91748W        W55472  42.904  22.627   4.152
91749W        W55473  14.109  28.104  11.602
91750W        W55474  30.514  19.613  11.493
91751W        W55475  38.862  12.762  14.984
91752W        W55476  12.254   0.397   2.697
91753W        W55477  28.557  34.965  14.886
91754W        W55478  25.491   1.379  10.588
91755W        W55479  22.654   2.729  14.321
91756W        W55480   0.786  32.575  14.004
91757W        W55481  17.731   5.412  13.510
91758W        W55482   2.378  17.226  14.484
91759W        W55483  11.205  40.530  10.539
91760W        W55484  12.360   2.392   3.847
91761W        W55485  33.409  10.334   0.455
91762W        W55486  10.722  26.025   2.253
91763W        W55487  39.541   0.835  11.399
91764W        W55488  30.460   5.932  12.006
91765W        W55489  10.659   6.210   0.840
91766W        W55490   1.447  37.898   3.796
91767W        W55491  40.831  16.252   1.820
91768W        W55492  20.217  29.122   5.187
91769W        W55493  16.103  29.937  11.548
91770W        W55494  10.861  40.398  12.996
91771W        W55495  17.217  12.627   3.714
91772W        W55496   1.839  16.172  10.426
91773W        W55497   6.371  39.334   2.363
91774W        W55498  30.617  26.128   2.810
91775W        W55499  15.817  11.271  13.505
91776W        W55500  16.763  27.045   0.375
91777W        W55501  23.160  21.614   3.681
91778W        W55502   5.389   1.761  12.516
91779W        W55503  35.480  17.281   4.702
91780W        W55504   9.171   7.752  12.569
91781W        W55505  19.222  17.238   0.454
91782W        W55506  44.460  28.181  13.894
91783W        W55507  28.532  10.216   4.687
91784W        W55508  17.234  35.922  10.910
91785W        W55509  28.025  17.715   3.251
91786W        W55510  44.380   1.469   0.347
91787W        W55511  11.358  18.605  10.595
91788W        W55512   6.788   1.407  13.399
91789W        W55513  38.909  20.189   2.729
91790W        W55514  17.600  10.734   2.798
91791W        W55515  11.131  41.454   1.745
91792W        W55516  40.807  13.712  11.514
91793W        W55517  20.565  15.686  10.429
91794W        W55518  27.133  20.621  10.499
91795W        W55519   8.791   0.988   0.854
91796W        W55520  27.040   4.228  11.918
91797W        W55521   6.764  22.539  13.995
91798W        W55522  30.611  31.484  12.977
91799W        W55523  12.824   7.298   9.957
91800W        W55524  33.932  23.019   2.182
91801W        W55525  23.539  31.550  14.426
91802W        W55526   0.317  42.840   2.787
91803W        W55527  11.838  30.606  12.003
91804W        W55528  24.617   7.837  14.944
91805W        W55529  25.120  12.691  11.126
91806W        W55530  14.624  23.630   4.254
91807W        W55531  33.585  28.532   0.423
91808W        W55532  16.316  18.689   3.851
91809W        W55533  14.677  44.944  12.072
91810W        W55534  23.509  36.890   1.752
91811W        W55535  31.592   5.701   0.433
91812W        W55536   9.692  26.046   3.693
91813W        W55537   6.901  35.406   1.818
91814W        W55538  13.643   7.699  12.402
91815W        W55539  39.829   4.890   0.284
91816W        W55540  22.594  18.290  13.794
91817W        W55541  15.590  20.683   0.836
91818W        W55542  19.563  33.387   2.205
91819W        W55543  38.534   0.760   2.792
91820W        W55544  33.971   7.687   2.406
91821W        W55545  39.383   5.874  11.438
91822W        W55546   6.678   4.785   3.766
91823W        W55547   3.397   2.826   3.293
91824W        W55548  41.501   0.918  14.900
91825W        W55549  38.494  18.225  14.896
91826W        W55550  31.097  36.921  14.822
91827W        W55551  26.514   2.457   0.449
91828W        W55552  12.780  44.839  10.421
91829W        W55553   2.425   6.298   2.742
91830W        W55554  27.481  13.303  14.388
91831W        W55555  14.106  38.461  12.400
91832W        W55556   0.809  20.582  14.005
91833W        W55557  39.490  24.180   2.257
91834W        W55558  33.087  14.239  11.585
91835W        W55559  27.476  11.316  12.466
91836W        W55560  12.610  34.574   1.313
91837W        W55561  37.434  33.988   2.690
91838W        W55562  39.316  20.029  13.372
91839W        W55563  18.768  13.139   1.754
91840W        W55564  25.687   5.910   2.816
91841W        W55565   2.868  32.393  10.897
91842W        W55566  20.072  35.534  12.545
91843W        W55567   6.778  40.951  11.944
91844W        W55568   0.868  28.452   4.727
91845W        W55569  20.085  10.199  14.404
91846W        W55570  17.258  37.495   1.298
91847W        W55571  18.214  26.536  14.322
91848W        W55572   2.317  34.513   4.777
91849W        W55573  14.289  36.864   2.737
91850W        W55574  40.929  40.853  14.008
91851W        W55575  31.636  37.018   0.481
91852W        W55576   3.830  38.017   3.295
91853W        W55577  13.315  43.799   1.383
91854W        W55578  15.805  30.060   1.870
91855W        W55579  10.263  20.259  14.868
91856W        W55580  31.897  20.569   1.438
91857W        W55581  38.475   8.678  14.978
91858W        W55582   3.352   8.806   4.800
91859W        W55583  15.277  27.661  13.023
91860W        W55584  22.574   0.854  13.516
91861W        W55585  18.588   3.450  13.061
91862W        W55586  11.217  27.562  14.804
91863W        W55587  42.336  39.500   3.276
91864W        W55588  39.911  34.386   2.265
91865W        W55589  21.059  35.409   1.314
91866W        W55590   9.847  16.768  12.940
91867W        W55591  36.479  10.816   2.666
91868W        W55592  21.124  17.281  12.057
91869W        W55593   3.268   0.819  14.330
91870W        W55594  19.563  13.267   4.222
91871W        W55595  34.903  15.292  13.418
91872W        W55596  43.440  17.094  10.053
91873W        W55597   8.202  39.519   4.217
91874W        W55598   3.904  14.795   2.848
91875W        W55599  26.477  27.681   4.661
91876W        W55600  33.473  20.619  11.031
91877W        W55601   0.261   2.955  12.910
91878W        W55602   0.749  44.482  11.464
91879W        W55603   9.268   7.676   2.685
91880W        W55604   9.380   8.369   2.722
91881W        W55605  37.869  24.499  12.071
91882W        W55606  32.422  34.463   3.345
91883W        W55607  10.668  12.201   0.800
91884W        W55608  31.575   0.345  11.991
91885W        W55609  10.753   2.234   0.438
91886W        W55610  25.112  20.712   1.704
91887W        W55611  40.511  37.507  11.385
91888W        W55612  32.034   2.848  14.371
91889W        W55613  27.074  19.146  13.332
91890W        W55614  23.108  34.385  11.960
91891W        W55615  25.595  15.104   3.646
91892W        W55616   5.802  40.974  14.298
91893W        W55617  27.968   6.854   5.206
91894W        W55618  42.864  23.100  14.851
91895W        W55619  24.521  42.812  10.907
91896W        W55620  41.815  31.519  10.507
91897W        W55621   0.794  44.845   4.640
91898W        W55622   4.897   2.438   4.765
91899W        W55623  43.462  15.613  11.028
91900W        W55624   4.787   9.801   0.912
91901W        W55625  35.896  13.234   4.725
91902W        W55626   2.324  11.775  11.509
91903W        W55627  26.681  28.167  13.969
91904W        W55628   9.216  27.060  13.886
91905W        W55629  36.018  13.622   1.336
91906W        W55630  30.537  10.344   1.734
91907W        W55631  18.634   6.329  14.767
91908W        W55632  26.118  43.396  11.396
91909W        W55633   0.763   4.757  13.510
91910W        W55634  20.037  21.669  14.401
91911W        W55635   3.784  17.696   3.734
91912W        W55636  34.883  26.458  11.479
91913W        W55637  15.304  42.850  12.869
91914W        W55638  24.185  14.776  10.645
91915W        W55639  38.060  17.125   2.258
91916W        W55640   7.194  32.596   1.708
91917W        W55641  34.400  16.584  10.599
91918W        W55642   8.319  18.767  11.376
91919W        W55643  40.501  13.251  14.296
91920W        W55644  26.135  21.722   0.444
91921W        W55645  16.211  14.826  11.562
91922W        W55646  44.503  16.671   2.371
91923W        W55647  24.605   9.215   2.296
91924W        W55648  12.626  28.527   0.879
91925W        W55649   9.795  42.925  13.952
91926W        W55650  17.086  24.670   2.747
91927W        W55651  29.148  19.778  14.798
91928W        W55652  37.527  22.661   1.374
91929W        W55653  12.639  21.130  14.937
91930W        W55654  34.017  15.647  14.835
91931W        W55655  15.773   4.924   2.228
91932W        W55656  25.007  18.163   3.168
91933W        W55657  20.558  43.365   2.872
91934W        W55658   0.420  35.425  10.408
91935W        W55659   2.280  27.064  14.857
91936W        W55660  33.950  41.850   4.615
91937W        W55661   8.342  28.993   1.870
91938W        W55662   9.393   7.371  13.308
91939W        W55663   4.278  43.807  11.514
91940W        W55664  42.982   7.900  14.864
91941W        W55665  34.008  13.624  13.006
91942W        W55666  11.329  21.185  11.520
91943W        W55667   4.913  31.904   3.786
91944W        W55668  11.749  27.481  12.857
91945W        W55669   5.418   8.276   2.780
91946W        W55670  28.540  32.049  12.424
91947W        W55671  22.170   6.908  13.353
91948W        W55672  13.670  39.529   1.250
91949W        W55673  19.180   5.913   1.239
91950W        W55674   2.960   9.370  13.486
91951W        W55675  35.081   1.780  11.032
91952W        W55676   0.322  42.015  13.952
91953W        W55677  34.388  29.635   0.369
91954W        W55678   9.831  12.270  14.457
91955W        W55679  20.641   4.357  10.625
91956W        W55680   8.345  37.582   2.405
91957W        W55681  42.781  43.995  11.893
91958W        W55682   3.903  17.760   4.683
91959W        W55683  11.639  37.889   2.301
91960W        W55684  11.659   0.423  10.013
91961W        W55685  16.762  30.491   3.177
91962W        W55686  19.251  43.839  13.798
91963W        W55687  29.584  33.117  12.063
91964W        W55688  27.007  34.555  10.017
91965W        W55689  29.427  39.004   2.771
91966W        W55690   0.871  11.695   2.705
91967W        W55691  41.532  26.693   4.141
91968W        W55692  32.063   8.666  14.992
91969W        W55693   5.358  22.647   0.303
91970W        W55694  38.437   9.672  14.333
91971W        W55695  38.019  27.995   4.216
91972W        W55696  16.263  43.302  12.523
91973W        W55697   6.888  35.949   3.288
91974W        W55698  36.493   0.486   2.671
91975W        W55699  18.785  19.682   4.133
91976W        W55700  39.472  38.912  10.426
91977W        W55701  33.906  24.001  14.826
91978W        W55702  23.523  42.308   1.341
91979W        W55703  44.840   2.810  12.015
91980W        W55704   3.734   3.884  14.801
91981W        W55705  25.538   1.264  14.973
91982W        W55706  36.492  18.053  12.408
91983W        W55707   4.303   6.221   0.396
91984W        W55708  42.864  34.591  14.491
91985W        W55709  41.925  28.102   4.621
91986W        W55710  23.540  23.998   2.802
91987W        W55711  10.771  32.988  13.358
91988W        W55712  21.623   0.322  11.914
91989W        W55713   7.889  34.537  13.416
91990W        W55714  22.677  23.134  12.973
91991W        W55715  41.364   3.445   3.822
91992W        W55716  34.020  26.158  11.583
91993W        W55717  42.944  15.296  14.337
91994W        W55718  13.670   9.778   3.827
91995W        W55719  34.057  17.094  13.875
91996W        W55720  10.153  30.594   0.247
91997W        W55721  25.621  14.830  10.896
91998W        W55722  33.540   9.653  13.490
91999W        W55723  19.127  23.631  12.578
92000W        W55724   3.415  41.474   1.824
92001W        W55725  16.634   0.845  12.388
92002W        W55726  37.339  29.921  14.012
92003W        W55727  41.927  15.190  13.423
92004W        W55728  26.653   7.199   0.941
92005W        W55729  39.437  40.434  11.485
92006W        W55730  29.661   5.780   1.912
92007W        W55731  41.936  27.574  14.921
92008W        W55732  31.148   6.400   0.398
92009W        W55733   7.242  18.657   5.178
92010W        W55734   5.396  34.883   3.734
92011W        W55735   7.306  10.738   2.323
92012W        W55736  20.630  40.030  12.859
92013W        W55737  24.979  18.563  10.470
92014W        W55738  13.214   0.965  11.962
92015W        W55739  37.547  17.633   2.884
92016W        W55740  37.079  42.468  11.424
92017W        W55741  11.746  42.283   1.250
92018W        W55742  41.844  21.221  11.435
92019W        W55743   9.679  26.458   1.404
92020W        W55744  26.071  29.153   3.263
92021W        W55745  22.207   2.258   3.825
92022W        W55746  24.037  44.907  12.831
92023W        W55747  29.078  41.860   4.640
92024W        W55748  22.050  41.482   0.768
92025W        W55749   9.376  16.269   2.865
92026W        W55750  36.945  10.837  10.562
92027W        W55751  11.712  40.495   4.674
92028W        W55752  38.541  33.612   1.332
92029W        W55753  31.969  42.968  13.833
92030W        W55754  12.329  28.098   2.191
92031W        W55755  14.231  14.210   4.168
92032W        W55756  17.705   8.805  12.542
92033W        W55757  29.599  10.241  11.447
92034W        W55758  25.620   5.754  12.507
92035W        W55759  17.187  38.378   1.810
92036W        W55760  31.600  27.034  14.940
92037W        W55761  44.487   3.425   2.394
92038W        W55762  28.098  37.577   0.857
92039W        W55763  17.802  12.807   3.331
92040W        W55764  28.062   0.858  14.013
92041W        W55765  30.461  36.092   1.875
92042W        W55766  10.258  23.057  13.948
92043W        W55767  42.405  37.399   4.804
92044W        W55768   8.162  35.476   0.966
92045W        W55769  22.599   1.473   0.326
92046W        W55770  23.565  44.773  10.585
92047W        W55771  44.812  26.591   2.202
92048W        W55772  14.599  26.202   2.414
92049W        W55773  35.004  24.687   3.855
92050W        W55774  36.447   3.374  11.086
92051W        W55775  14.235   0.833   3.383
92052W        W55776  32.557  20.662   1.782
92053W        W55777  31.154  20.743   0.867
92054W        W55778  37.867   1.824   1.424
92055W        W55779  39.875   5.687   3.723
92056W        W55780  12.615  41.466   4.788
92057W        W55781  43.985  29.595   4.215
92058W        W55782  37.442  33.965  13.445
92059W        W55783  38.373   8.328  11.076
92060W        W55784  40.035  20.719  10.970
92061W        W55785   5.823  33.539   2.300
92062W        W55786   4.248  16.230   4.785
92063W        W55787  39.480  18.618   1.907
92064W        W55788   2.393  25.608  10.922
92065W        W55789  20.076  44.891   2.885
92066W        W55790  31.419  26.601  10.516
92067W        W55791  16.290  39.817  10.466
92068W        W55792  33.556  23.994   1.844
92069W        W55793  33.015  34.554   3.199
92070W        W55794  40.892  20.724   2.789
92071W        W55795  10.662  16.611  14.461
92072W        W55796  37.876   2.853  13.859
92073W        W55797  32.633   9.234  11.857
92074W        W55798  35.998  31.152  11.475
92075W        W55799   4.358  17.213   4.125
92076W        W55800   8.203  25.098   3.719
92077W        W55801   5.917  30.617   2.817
92078W        W55802  21.236  19.778  12.476
92079W        W55803   3.787  24.692  12.035
92080W        W55804  16.266  30.936   4.838
92081W        W55805   4.901   2.757   3.307
92082W        W55806  22.665   1.296  10.990
92083W        W55807  34.413  23.031   3.863
92084W        W55808  42.877  21.567   1.851
92085W        W55809  16.239  12.825   4.270
92086W        W55810  19.587  27.515  12.081
92087W        W55811  32.134  39.345   3.245
92088W        W55812  37.555  28.528  13.828
92089W        W55813  20.219  13.195  12.344
92090W        W55814   5.279  14.689  14.008
92091W        W55815  15.769  34.412  10.641
92092W        W55816  34.519  35.029  12.475
92093W        W55817  20.704   4.249  12.496
92094W        W55818  27.972  31.552  12.410
92095W        W55819   1.362  28.434  13.476
92096W        W55820  17.667   2.770   4.715
92097W        W55821  44.345  21.638  11.551
92098W        W55822  14.827   8.368  12.057
92099W        W55823  19.242  20.068  13.323
92100W        W55824   1.250  33.028   3.706
92101W        W55825  29.952   3.872  14.494
92102W        W55826  25.513   4.359  13.053
92103W        W55827   3.237  23.131   0.471
92104W        W55828  33.112  19.053  14.930
92105W        W55829  42.004  18.182   3.836
92106W        W55830   0.973  37.086  12.539
92107W        W55831  39.951   6.371  12.347
92108W        W55832  40.923  28.118  13.019
92109W        W55833   7.732   6.210   0.901
92110W        W55834   8.695  42.843   2.852
92111W        W55835  10.648  20.215   2.331
92112W        W55836   8.378  16.182   4.628
92113W        W55837  38.492  43.415  11.992
92114W        W55838  15.273  14.713  12.433
92115W        W55839  16.631   7.724   2.832
92116W        W55840  24.686   8.786   3.688
92117W        W55841   4.310  37.023  10.957
92118W        W55842  17.786  17.619   0.778
92119W        W55843  21.723  16.114   2.709
92120W        W55844  24.585  37.912   2.337
92121W        W55845  32.584   0.796  10.476
92122W        W55846  31.988   7.341   2.268
92123W        W55847   4.807  15.677  13.939
92124W        W55848  31.462  20.527   1.871
92125W        W55849  28.588   3.364  13.059
92126W        W55850  24.654  23.986   3.260
92127W        W55851  24.157   0.944  10.049
92128W        W55852  22.125   2.965   0.453
92129W        W55853  43.932  30.600   2.366
92130W        W55854  22.505  18.562   5.300
92131W        W55855  35.946  15.821   3.849
92132W        W55856  30.123  30.050  13.374
92133W        W55857  41.407  24.700   0.937
92134W        W55858  12.741  40.981  10.595
92135W        W55859   0.932  21.655   0.314
92136W        W55860  30.643  17.289  13.498
92137W        W55861  31.978  38.370  10.427
92138W        W55862  40.389  26.499   2.235
92139W        W55863  29.129  28.114  13.838
92140W        W55864  41.400  19.599  10.960
92141W        W55865  30.980  17.061   3.306
92142W        W55866  43.283  31.615  11.592
92143W        W55867  20.708  30.620  12.842
92144W        W55868   1.277  24.680  14.321
92145W        W55869  21.697  14.629   1.731
92146W        W55870   2.839  16.242   0.819
92147W        W55871  36.925  41.860   0.446
92148W        W55872   2.289   1.434   0.890
92149W        W55873  20.209  33.545  13.320
92150W        W55874  27.027  33.566   1.846
92151W        W55875   2.804  24.594  12.461
92152W        W55876  26.084  43.387   4.731
92153W        W55877  13.614  25.999   1.383
92154W        W55878  24.062  44.388  10.417
92155W        W55879  30.911   6.242   0.897
92156W        W55880  11.239   4.918  14.435
92157W        W55881  42.909   8.340   3.749
92158W        W55882   1.869  35.999  12.574
92159W        W55883  19.110  27.674  14.296
92160W        W55884  26.530  13.637   4.682
92161W        W55885  20.663  33.003  14.846
92162W        W55886  25.560  42.456  12.496
92163W        W55887  12.724  38.070   1.726
92164W        W55888   3.372  21.224   4.139
92165W        W55889  36.868  41.420  14.002
92166W        W55890   6.227  33.626   0.260
92167W        W55891  21.054  43.462   1.256
92168W        W55892  11.340  16.745  12.478
92169W        W55893  18.786  38.521  11.116
92170W        W55894   6.421  28.129  10.423
92171W        W55895   0.358  17.132   4.630
92172W        W55896  18.105  19.194   3.720
92173W        W55897  27.176  11.181   3.788
92174W        W55898   7.180   5.415   4.605
92175W        W55899   4.910  39.865  13.530
92176W        W55900   1.290   7.189  13.469
92177W        W55901  28.530  25.482  12.512
92178W        W55902  33.124   3.759  11.020
92179W        W55903  32.057   6.872  12.448
92180W        W55904  18.642   3.401  10.980
92181W        W55905  14.221  34.999  13.503
92182W        W55906   9.792  10.736   2.194
92183W        W55907  29.969  43.339  13.874
92184W        W55908  34.103  35.926  11.418
92185W        W55909   9.668  34.999  10.486
92186W        W55910  12.842   4.854   5.606
92187W        W55911   9.264  43.843   1.281
92188W        W55912  29.548  29.169   4.220
92189W        W55913  13.804  11.234  10.634
92190W        W55914  22.035   5.903   3.761
92191W        W55915  18.242  26.549  11.874
92192W        W55916   3.414  20.568  11.020
92193W        W55917  32.506  22.723  12.946
92194W        W55918  24.552  25.059  13.309
92195W        W55919  22.144   6.791  13.834
92196W        W55920  20.121  31.451   2.344
92197W        W55921  11.694  37.881  11.594
92198W        W55922  29.068   7.250   0.876
92199W        W55923  30.141  30.469   1.299
92200W        W55924  36.541  27.183   0.789
92201W        W55925   1.243  19.096  14.885
92202W        W55926  30.518   2.326  14.281
92203W        W55927  18.563  28.147   0.262
92204W        W55928  40.048  31.952   1.708
92205W        W55929  35.044  22.618  10.475
92206W        W55930  37.569   4.904  13.947
92207W        W55931  29.656  27.594  14.360
92208W        W55932  12.841  38.879   2.389
92209W        W55933  40.335  37.919  12.499
92210W        W55934  22.241   2.361  10.582
92211W        W55935  16.713  25.696   0.961
92212W        W55936  20.231   2.304   0.756
92213W        W55937  35.438  33.410  11.395
92214W        W55938  31.923  12.182  10.417
92215W        W55939  19.763  24.630   0.330
92216W        W55940  33.063  20.652  14.850
92217W        W55941  32.072  30.922  13.459
92218W        W55942  32.479   5.286  12.948
92219W        W55943  37.057  20.538  11.079
92220W        W55944  37.869  13.753  12.062
92221W        W55945   0.407  38.375  10.937
92222W        W55946  29.495  30.551  11.977
92223W        W55947  40.463   6.912   3.643
92224W        W55948   1.874  11.775   3.650
92225W        W55949  42.982  19.587  13.532
92226W        W55950  31.595  33.087   3.194
92227W        W55951  26.697  40.888   3.861
92228W        W55952   1.807   8.739  13.874
92229W        W55953  15.733  28.548   2.805
92230W        W55954   3.388  35.895  12.533
92231W        W55955  26.486  23.638   4.825
92232W        W55956  36.964  25.050   4.137
92233W        W55957  29.609  11.684  12.522
92234W        W55958  23.040   9.744  12.056
92235W        W55959   0.787  36.473   0.870
92236W        W55960  17.305   1.313   1.390
92237W        W55961  24.041  44.008   1.434
92238W        W55962  35.374  20.270   4.223
92239W        W55963   5.214  21.124   3.350
92240W        W55964   7.857   3.729   2.336
92241W        W55965   8.762   4.786  14.029
92242W        W55966   8.200  30.081  14.967
92243W        W55967  44.791  26.199   2.184
92244W        W55968  39.036  25.701   4.306
92245W        W55969  35.556  36.067   3.195
92246W        W55970  28.139  15.691   2.305
92247W        W55971  13.324  24.014   1.733
92248W        W55972  10.263  29.088  14.339
92249W        W55973   8.363  17.578   4.762
92250W        W55974  29.624  11.672  11.476
92251W        W55975  39.347  29.145  11.445
92252W        W55976   0.376  35.050   4.684
92253W        W55977  20.084  18.729  11.421
92254W        W55978  34.089  11.671   4.258
92255W        W55979  27.016  23.569   3.655
92256W        W55980  22.077  35.574   1.437
92257W        W55981  22.701  20.751  11.529
92258W        W55982   3.454  20.063   1.345
92259W        W55983   3.420  33.990  13.346
92260W        W55984  39.001  44.945  13.814
92261W        W55985  14.249   6.697  10.562
92262W        W55986  29.430  40.872   4.654
92263W        W55987  31.033  30.974  12.906
92264W        W55988  44.907  11.141  14.957
92265W        W55989  28.141  29.541  11.982
92266W        W55990  13.215  43.464  14.835
92267W        W55991   7.666  29.482  11.048
92268W        W55992  16.614  28.522   2.664
92269W        W55993  18.612  34.012  12.429
92270W        W55994  42.407  19.700  11.011
92271W        W55995  15.713  23.133  13.868
92272W        W55996  41.929  41.862   0.830
92273W        W55997  35.452  39.512   2.378
92274W        W55998  18.086  29.465   1.925
92275W        W55999  37.424   8.315   0.793
92276W        W56000  13.816  28.597   2.258
92277W        W56001  38.482   4.846   3.698
92278W        W56002   8.785  31.481  10.958
92279W        W56003  29.664   2.310  14.892
92280W        W56004  44.377  11.146  14.975
92281W        W56005  29.610  15.663  14.281
92282W        W56006   0.334  21.548   2.393
92283W        W56007  23.169   9.339   2.860
92284W        W56008  44.804  27.607   3.315
92285W        W56009  22.519   0.939  11.500
92286W        W56010  31.037  12.327   1.436
92287W        W56011  17.062  44.311   3.364
92288W        W56012  44.287  17.585   1.866
92289W        W56013   1.978   6.836  13.473
92290W        W56014   9.865  36.399  14.901
92291W        W56015   5.316  29.171  14.780
92292W        W56016  37.069  17.304  12.388
92293W        W56017  36.049   0.315   2.796
92294W        W56018  32.634  24.129  10.575
92295W        W56019   8.830  37.581  14.402
92296W        W56020  35.574  17.292  13.893
92297W        W56021   7.768  23.182  12.846
92298W        W56022  20.105  42.902   4.276
92299W        W56023  29.126  41.865  12.922
92300W        W56024  28.071  34.064  11.981
92301W        W56025  36.526  29.934   2.334
92302W        W56026  26.609  13.314   1.814
92303W        W56027   8.224  26.104   1.380
92304W        W56028  21.204  30.106   3.756
92305W        W56029  32.403  12.300  10.579
92306W        W56030  21.207   0.405   4.155
92307W        W56031  27.165  20.060  14.407
92308W        W56032  15.174  35.979   4.753
92309W        W56033  21.531  40.960   2.676
92310W        W56034  20.536  34.598  13.954
92311W        W56035   3.231  21.213   0.429
92312W        W56036  30.055  16.651   1.317
92313W        W56037  30.164  27.524  14.879
92314W        W56038   9.814  25.156   3.316
92315W        W56039   9.255   5.722   0.764
92316W        W56040  14.706   8.870   1.785
92317W        W56041   3.848  37.876   4.788
92318W        W56042   6.777  35.408   2.410
92319W        W56043   8.885  29.988  13.956
92320W        W56044  21.597  27.520   3.629
92321W        W56045  25.525  22.503   0.254
92322W        W56046   1.872  31.113  11.069
92323W        W56047  16.131  22.656  10.013
92324W        W56048  41.460  31.985  11.388
92325W        W56049  22.106   0.297  11.888
92326W        W56050  37.572  34.382  10.555
92327W        W56051  13.695  35.007   2.180
92328W        W56052  30.050  29.509   0.323
92329W        W56053   9.792   2.793   0.380
92330W        W56054  43.932  42.020   1.367
92331W        W56055   9.258  32.518   3.718
92332W        W56056  29.953  17.192   1.908
92333W        W56057  18.278  38.361   2.236
92334W        W56058   9.261  33.924  13.951
92335W        W56059  17.687  31.087  10.445
92336W        W56060  15.103  33.096  12.041
92337W        W56061  11.809  19.539  11.055
92338W        W56062   5.767  12.345   4.246
92339W        W56063  37.962  44.815   3.329
92340W        W56064  22.056  19.261   0.294
92341W        W56065  13.648  22.518   3.171
92342W        W56066  26.012  17.563   2.707
92343W        W56067  16.254  12.811  12.969
92344W        W56068  30.913  16.626  11.427
92345W        W56069  15.289  31.636  14.442
92346W        W56070   1.791  33.067   1.795
92347W        W56071  44.777  30.923   0.464
92348W        W56072  19.081  30.529   4.328
92349W        W56073  22.216  39.370   1.348
92350W        W56074  31.131   5.709  12.847
92351W        W56075  16.588   0.819   2.786
92352W        W56076  43.488  25.658   0.927
92353W        W56077   6.392  26.138  14.991
92354W        W56078  36.561  40.968   2.848
92355W        W56079  29.149   8.665  12.969
92356W        W56080  25.520  35.877  11.603
92357W        W56081  20.227  33.497   3.652
92358W        W56082  25.585   1.973   1.916
92359W        W56083   6.244  35.908   1.927
92360W        W56084  10.718  33.548   1.344
92361W        W56085  35.553   1.821   3.841
92362W        W56086  14.749  39.540   1.753
92363W        W56087  11.623   7.302   0.394
92364W        W56088  35.579  25.671   1.355
92365W        W56089  17.721   5.351  11.037
92366W        W56090   1.898  19.122  13.028
92367W        W56091  42.922   0.790   1.850
92368W        W56092  24.502  11.312  11.085
92369W        W56093  37.005  43.376  11.437
92370W        W56094   8.226  34.504  12.482
92371W        W56095  22.658   6.813  11.991
92372W        W56096  30.139   8.868   3.273
92373W        W56097  35.080  34.094   3.685
92374W        W56098  40.871  25.993   0.935
92375W        W56099  23.646  12.353   0.275
92376W        W56100  17.700   8.812   0.270
92377W        W56101  17.705  34.496  14.978
92378W        W56102  18.250  44.330  12.030
92379W        W56103  24.520  42.885   2.285
92380W        W56104  40.346  16.644  14.022
92381W        W56105   8.200  43.445  12.516
92382W        W56106  38.943  43.488   5.730
92383W        W56107  31.472  11.257   1.237
92384W        W56108  40.891  36.570   0.840
92385W        W56109  44.352   8.689   0.481
92386W        W56110  23.598  33.902  12.921
92387W        W56111  14.756  14.236   4.657
92388W        W56112  23.705  25.709   2.777
92389W        W56113  40.878  23.685   3.761
92390W        W56114  41.317  21.054   4.659
92391W        W56115   8.866  17.608  11.496
92392W        W56116  15.184  22.134  12.368
92393W        W56117  16.770   8.808  13.927
92394W        W56118  11.854  11.212   1.752
92395W        W56119  32.027  26.067  13.950
92396W        W56120  36.054   3.833  11.470
92397W        W56121   0.415  37.830  12.369
92398W        W56122   6.889   9.749   4.790
92399W        W56123  22.208   4.381   3.855
92400W        W56124   7.738  15.789   3.780
92401W        W56125   3.864  16.303   1.385
92402W        W56126  29.029  28.081  13.058
92403W        W56127  42.836  26.682   4.248
92404W        W56128   6.751  42.024   2.253
92405W        W56129  38.841  22.607  12.538
92406W        W56130  25.608  34.439   1.772
92407W        W56131  14.160  20.724  12.502
92408W        W56132  16.121  30.959   3.313
92409W        W56133   1.858  15.648  10.033
92410W        W56134  27.659  19.160   4.222
92411W        W56135  10.338  25.517   0.728
92412W        W56136  25.655  38.472   1.423
92413W        W56137  34.562  18.752   4.683
92414W        W56138  26.632  25.086  11.129
92415W        W56139  36.039  37.373  11.528
92416W        W56140  38.426   4.248  11.603
92417W        W56141  15.287  14.622   0.345
92418W        W56142  25.131  13.732  11.529
92419W        W56143  20.202  32.915  13.944
92420W        W56144  32.107  19.576  13.015
92421W        W56145  26.588  29.983   3.219
92422W        W56146   5.380  38.905  14.786
92423W        W56147  39.955  41.524   3.786
92424W        W56148  38.408  43.455  13.364
92425W        W56149   0.753  20.202  11.991
92426W        W56150  13.718  28.594  12.428
92427W        W56151  16.610  14.804   0.463
92428W        W56152  37.085  43.432   4.212
92429W        W56153   8.403  15.770   3.794
92430W        W56154   4.751  31.082   1.827
92431W        W56155  34.009  37.964   0.920
92432W        W56156  23.152  37.457  14.349
92433W        W56157   1.904   2.838   2.390
92434W        W56158   9.229   8.262  13.490
92435W        W56159  27.601   8.768  13.540
92436W        W56160  30.989  23.162  13.984
92437W        W56161  17.750   2.861  11.085
92438W        W56162  17.242   0.920  10.967
92439W        W56163  44.941   5.302   4.200
92440W        W56164  21.210  10.291  10.920
92441W        W56165  17.663   4.210   9.990
92442W        W56166   6.289  36.476  11.506
92443W        W56167  35.989   4.330  13.030
92444W        W56168   1.855  36.876  11.456
92445W        W56169   1.237   3.822   0.453
92446W        W56170  16.669  24.990  11.580
92447W        W56171  11.722  36.923  12.082
92448W        W56172  13.777  27.471  13.046
92449W        W56173  40.509   7.312   2.816
92450W        W56174  28.131  38.042  13.933
92451W        W56175   2.231  32.069  10.617
92452W        W56176  26.577  28.184   0.875
92453W        W56177   7.706  32.085   1.249
92454W        W56178  43.434  26.647  11.521
92455W        W56179  35.060  33.545   4.272
92456W        W56180  39.386  23.006   1.213
92457W        W56181  44.791   4.756   4.198
92458W        W56182  23.988  27.688  10.988
92459W        W56183  26.553  28.480  11.091
92460W        W56184   8.834  27.478  12.512
92461W        W56185  16.761  14.269   1.924
92462W        W56186  42.447  36.575  11.399
92463W        W56187  25.700  15.136  10.889
92464W        W56188  44.808  18.569  13.423
92465W        W56189  38.832   4.929   1.232
92466W        W56190  25.489   7.732  13.975
92467W        W56191  20.106   8.261   1.867
92468W        W56192  16.673  18.671  14.295
92469W        W56193  31.943  19.749  10.974
92470W        W56194  25.515  22.629  13.983
92471W        W56195  16.157  10.312  13.541
92472W        W56196  42.937  28.975   4.799
92473W        W56197  10.797  39.873   4.695
92474W        W56198  11.330  13.667  11.508
92475W        W56199  26.977  34.883  11.920
92476W        W56200  13.821   9.157  10.518
92477W        W56201   9.681  42.416   0.901
92478W        W56202  19.283   0.885   1.409
92479W        W56203  25.006   7.308  14.352
92480W        W56204   7.898  40.009  11.089
92481W        W56205   8.837  37.862  13.438
92482W        W56206   5.749  42.485   0.759
92483W        W56207  36.032  18.576   2.819
92484W        W56208  34.396   6.738   4.162
92485W        W56209  11.128  31.068  14.346
92486W        W56210  18.082  30.129  12.928
92487W        W56211  12.319  12.774   3.292
92488W        W56212  18.790   2.938   3.385
92489W        W56213  27.626  43.433  10.931
92490W        W56214  23.023   2.373   2.703
92491W        W56215  25.020  38.451   3.313
92492W        W56216  32.592  22.023   0.846
92493W        W56217  42.445   0.842  13.037
92494W        W56218  13.670   2.727  14.782
92495W        W56219  27.985   7.717   3.746
92496W        W56220   1.237  41.359  11.417
92497W        W56221  12.700  27.545   0.437
92498W        W56222  32.909  27.521  12.409
92499W        W56223  41.356  20.722   0.794
92500W        W56224  14.638   9.712  14.789
92501W        W56225   3.955  20.578  11.863
92502W        W56226  33.107  43.472  12.010
92503W        W56227  44.481  28.143  13.445
92504W        W56228  15.104  33.011  11.410
92505W        W56229  44.377  29.102  14.015
92506W        W56230   5.404  22.580   2.292
92507W        W56231  16.640  43.415  11.879
92508W        W56232  43.323   0.934  11.555
92509W        W56233   9.760  28.024   1.385
92510W        W56234  39.989   6.851   0.459
92511W        W56235  23.504  42.349   2.376
92512W        W56236  38.515   3.743  12.535
92513W        W56237  14.270   7.201  12.941
92514W        W56238  38.475  33.609   3.860
92515W        W56239   3.445  33.486   5.104
92516W        W56240  15.676  44.904   3.728
92517W        W56241  34.985  15.306  11.420
92518W        W56242  23.497  37.998  12.386
92519W        W56243  18.094  13.773  13.046
92520W        W56244  27.118   2.795   1.364
92521W        W56245  17.666  39.994  11.122
92522W        W56246  27.079  23.559   4.739
92523W        W56247   0.768   2.926   2.892
92524W        W56248  31.054  26.112  12.963
92525W        W56249  42.284  21.107   2.749
92526W        W56250  10.834  44.918  10.894
92527W        W56251  18.190  29.091   3.656
92528W        W56252   2.322  12.318  11.030
92529W        W56253  16.141  23.056  11.447
92530W        W56254  43.831  31.621  10.491
92531W        W56255   2.789   3.460   0.781
92532W        W56256   1.244  10.138   2.852
92533W        W56257  14.641  27.676  11.013
92534W        W56258  30.652  44.903  11.084
92535W        W56259   8.356  27.046   3.284
92536W        W56260   5.741  35.459   2.724
92537W        W56261  44.841  43.474   1.362
92538W        W56262  39.500  19.168  10.986
92539W        W56263  23.148  20.662   3.213
92540W        W56264  33.022   9.878   3.778
92541W        W56265  43.868  19.535  14.003
92542W        W56266  16.581  15.130  13.332
92543W        W56267  30.148  41.420  13.465
92544W        W56268  32.484  25.995  12.919
92545W        W56269  41.900  36.455   2.372
92546W        W56270  11.818  18.230   2.285
92547W        W56271   5.204  28.999  13.024
92548W        W56272   4.705  11.715   1.885
92549W        W56273  28.101  42.977   1.220
92550W        W56274  11.657  40.392   2.210
92551W        W56275  23.609  28.658  14.999
92552W        W56276   4.285  31.589  10.506
92553W        W56277  22.053   1.756   3.728
92554W        W56278  42.918  44.316  12.024
92555W        W56279   7.895   3.414  10.527
92556W        W56280  40.859  20.580  13.888
92557W        W56281  17.076  32.063  10.120
92558W        W56282  12.309  12.781   4.796
92559W        W56283  20.156  21.072   1.358
92560W        W56284  44.769  16.180  14.278
92561W        W56285   6.297   4.842  14.978
92562W        W56286  32.986  31.124   0.936
92563W        W56287   6.408  31.977  11.470
92564W        W56288  22.533  28.665  13.019
92565W        W56289  36.003  37.521  14.987
92566W        W56290  13.686  37.522  14.869
92567W        W56291   7.197  35.600  14.020
92568W        W56292  34.503  16.171   1.326
92569W        W56293  43.367   5.870  13.425
92570W        W56294  37.411   4.908   2.772
92571W        W56295  16.771  41.930   4.654
92572W        W56296   6.887  40.044   4.342
92573W        W56297  21.200  35.527  11.586
92574W        W56298  32.560   7.737  11.967
92575W        W56299   4.832   6.346   4.272
92576W        W56300  33.526   2.779  14.798
92577W        W56301  38.465  42.494  12.525
92578W        W56302  33.946  40.842  11.101
92579W        W56303  26.020  32.575   4.160
92580W        W56304  24.072  15.651  12.966
92581W        W56305   2.800   8.773   2.873
92582W        W56306  39.932  38.459  11.416
92583W        W56307  28.559  22.017  11.547
92584W        W56308   3.426  28.466   1.911
92585W        W56309   9.737  40.439   2.715
92586W        W56310   8.678  44.887   3.681
92587W        W56311  24.066  24.708  12.458
92588W        W56312  26.632  36.074   0.934
92589W        W56313  12.267  41.402  13.912
92590W        W56314  24.514  10.180   2.336
92591W        W56315  26.059  17.285  14.285
92592W        W56316  22.087  43.924   4.817
92593W        W56317  22.181  20.743  13.488
92594W        W56318   4.887   6.922  11.885
92595W        W56319  43.426   4.913  14.876
92596W        W56320  22.079  38.948  10.502
92597W        W56321   8.338  12.138   3.731
92598W        W56322  27.988  34.911  12.866
92599W        W56323  36.016  10.841  12.832
92600W        W56324   5.704  22.539  10.644
92601W        W56325   0.433  21.154   1.739
92602W        W56326  29.645  44.960   2.230
92603W        W56327  37.484  29.517   3.261
92604W        W56328   7.216   6.718  11.002
92605W        W56329  25.109   6.265   2.371
92606W        W56330   5.843  32.120   2.194
92607W        W56331  35.427   6.266  11.388
92608W        W56332  12.694  17.234  11.520
92609W        W56333  44.456  14.281   1.728
92610W        W56334  36.083  32.970  11.075
92611W        W56335  23.030   1.297  12.968
92612W        W56336  34.985  42.379   1.306
92613W        W56337  13.810   9.874   2.808
92614W        W56338  32.927  42.924   4.642
92615W        W56339  14.241   2.829   1.237
92616W        W56340  42.862  42.935   4.790
92617W        W56341  42.013  38.516   0.409
92618W        W56342  28.589  31.043  13.503
92619W        W56343  23.717  29.935   5.149
92620W        W56344  20.626   6.291  14.837
92621W        W56345  25.549  44.469  13.519
92622W        W56346  21.222  20.228  11.988
92623W        W56347  44.877  14.328  14.010
92624W        W56348  43.427   5.314  14.434
92625W        W56349  34.021   3.445  14.998
92626W        W56350  44.898  31.996   1.276
92627W        W56351  27.650  16.593   2.778
92628W        W56352  19.741  35.462  10.986
92629W        W56353  26.109  39.830   3.816
92630W        W56354  33.385  21.103   3.868
92631W        W56355  38.973  40.417  13.811
92632W        W56356   7.347  18.058  12.520
92633W        W56357   2.791   2.296   1.932
92634W        W56358   4.280   1.848   3.644
92635W        W56359   7.357   6.200   3.254
92636W        W56360  30.135  33.544  12.868
92637W        W56361   2.956  12.126  12.053
92638W        W56362  36.406  36.441  14.780
92639W        W56363  22.212  19.274   4.744
92640W        W56364  25.597  40.979  14.876
92641W        W56365  24.222   6.386  13.916
92642W        W56366  10.798   3.420   2.772
92643W        W56367  27.543  11.361   2.243
92644W        W56368   8.752  24.213  13.804
92645W        W56369  11.267  26.067   0.355
92646W        W56370  13.161   1.958  11.548
92647W        W56371  29.582   4.332  10.912
92648W        W56372  24.621  20.206  12.991
92649W        W56373  32.056  27.101   3.180
92650W        W56374  24.192  17.260  10.925
92651W        W56375  38.476  11.314   2.364
92652W        W56376  41.418  11.214  12.989
92653W        W56377   1.931  19.278   4.295
92654W        W56378  12.152  16.137  13.042
92655W        W56379  29.518   7.908  11.543
92656W        W56380  35.484  22.514   1.784
92657W        W56381  10.649  30.149  13.835
92658W        W56382  14.815  37.465   4.216
92659W        W56383  44.490  19.211   0.833
92660W        W56384  35.083  19.688   0.394
92661W        W56385  35.914  17.211   3.658
92662W        W56386  38.353   3.398   4.128
92663W        W56387  10.879   9.336  13.493
92664W        W56388  24.052  33.525  10.047
92665W        W56389  26.577   4.874  11.446
92666W        W56390   5.763  30.523  13.848
92667W        W56391  43.332  33.592  12.478
92668W        W56392  15.314  41.919   0.272
92669W        W56393  24.561  22.010  10.971
92670W        W56394  23.987   9.826  10.588
92671W        W56395  27.664  32.915  11.576
92672W        W56396  38.921  15.297  11.876
92673W        W56397  28.650   8.195   0.816
92674W        W56398  19.249  14.714  11.114
92675W        W56399  25.059  33.072   1.825
92676W        W56400  37.339   1.907  12.048
92677W        W56401  31.078   9.869  13.899
92678W        W56402  42.886  24.483   9.931
92679W        W56403  12.278  43.951  11.111
92680W        W56404  38.460  24.977  14.515
92681W        W56405  19.110  28.551  13.325
92682W        W56406  42.526   2.334   0.254
92683W        W56407   0.934  14.155   4.214
92684W        W56408   2.725  40.460  12.980
92685W        W56409   0.333  22.092  11.594
92686W        W56410  29.667  41.497  12.912
92687W        W56411  28.007  14.790   0.822
92688W        W56412  10.367  32.901  10.550
92689W        W56413  41.330  15.698   3.642
92690W        W56414   2.921  22.230   4.653
92691W        W56415  34.380  29.947  11.066
92692W        W56416   9.803  22.544  11.087
92693W        W56417  22.147  16.226  11.996
92694W        W56418  14.660  11.161  11.404
92695W        W56419   4.375  37.534  12.006
92696W        W56420  44.986   0.842   3.196
92697W        W56421  20.704  42.824   4.733
92698W        W56422   6.738  23.124  12.383
92699W        W56423   1.756  24.657   3.854
92700W        W56424  43.284  40.329   4.692
92701W        W56425  40.426  36.937  11.512
92702W        W56426   4.337   0.370  14.861
92703W        W56427  18.106  13.211   1.777
92704W        W56428  36.508  44.270   3.787
92705W        W56429  16.649  35.547   1.731
92706W        W56430  18.257  39.925   2.667
92707W        W56431  18.215   1.273  11.028
92708W        W56432  32.973   1.438  12.414
92709W        W56433   7.761   9.868  10.584
92710W        W56434  42.016  11.746  12.392
92711W        W56435  19.230  15.304   4.611
92712W        W56436  26.639  43.994  11.384
92713W        W56437  42.800  18.223  14.798
92714W        W56438  42.403  28.616   4.352
92715W        W56439  44.445  13.161  10.569
92716W        W56440  16.201  11.766   4.708
92717W        W56441   0.770  11.229   0.867
92718W        W56442  23.074  15.130   2.326
92719W        W56443   4.310   5.750  10.445
92720W        W56444  15.240  23.135  14.484
92721W        W56445   4.707  36.402   4.720
92722W        W56446  41.807  39.010  13.468
92723W        W56447   9.197   2.914   1.399
92724W        W56448  24.096  33.548   3.240
92725W        W56449  34.923  35.882  13.827
92726W        W56450  13.338  28.503   3.335
92727W        W56451  18.118  20.661   3.780
92728W        W56452   2.727  18.592  13.439
92729W        W56453  23.565  20.200  14.285
92730W        W56454  19.728   6.397  11.007
92731W        W56455  15.767  38.466   4.253
92732W        W56456   7.390  14.244  10.888
92733W        W56457  23.024   2.862   4.186
92734W        W56458  42.355   4.939  14.284
92735W        W56459  38.340  43.486   4.685
92736W        W56460   7.702   4.860  12.417
92737W        W56461  41.518  42.871   2.384
92738W        W56462  15.725  40.420  11.577
92739W        W56463  28.487  44.452  14.936
92740W        W56464  29.942  43.483   2.729
92741W        W56465  17.733  28.937   3.161
92742W        W56466   2.355  28.147   1.802
92743W        W56467  16.614  34.942   0.246
92744W        W56468  24.624  42.016  11.455
92745W        W56469  33.532   2.942   3.864
92746W        W56470  26.031  10.751  12.480
92747W        W56471  33.392  27.622  10.586
92748W        W56472  40.892   4.278  11.479
92749W        W56473  20.722  19.724  13.820
92750W        W56474   5.352  18.643  13.482
92751W        W56475  40.349   5.364   1.274
92752W        W56476   0.875   9.821  12.845
92753W        W56477  31.907  24.643   3.833
92754W        W56478  28.570  41.822   3.244
92755W        W56479  14.169  31.619  14.339
92756W        W56480  33.026   8.818  11.078
92757W        W56481  42.021  10.709  13.889
92758W        W56482  35.926  25.647  11.487
92759W        W56483   4.875  34.028   4.676
92760W        W56484  15.122   7.238  13.918
92761W        W56485  25.047   0.916  10.458
92762W        W56486  22.014  43.997   1.353
92763W        W56487   3.877  12.775   3.843
92764W        W56488  18.641  12.302  11.476
92765W        W56489  32.433   4.270   3.740
92766W        W56490  26.084  28.146   5.182
92767W        W56491   5.283   4.704   1.721
92768W        W56492  10.777  41.790  14.952
92769W        W56493  35.909  26.099  13.957
92770W        W56494   0.291  28.083  12.069
92771W        W56495  22.008  37.537   9.636
92772W        W56496  36.354  22.198  10.454
92773W        W56497  11.830   0.291  10.595
92774W        W56498   8.866  10.853   9.438
92775W        W56499   7.666   0.313   1.726
92776W        W56500  35.363   7.742  12.972
92777W        W56501  41.524  28.023  14.421
92778W        W56502   5.386  42.334   0.955
92779W        W56503  34.095  32.552  10.914
92780W        W56504  24.154  27.655  11.517
92781W        W56505  11.305   7.886  13.886
92782W        W56506  18.093  41.436  11.968
92783W        W56507   1.756  31.024  13.413
92784W        W56508  19.753   9.354  11.376
92785W        W56509  42.430  40.433  11.976
92786W        W56510  30.506  37.574  12.481
92787W        W56511  15.649  28.093   3.815
92788W        W56512  42.305  16.231   1.932
92789W        W56513  11.212   8.746  13.476
92790W        W56514  27.466  30.434  10.901
92791W        W56515  33.603  10.689  14.360
92792W        W56516   4.304  36.552  13.049
92793W        W56517  35.913  33.439   3.669
92794W        W56518   6.423  25.024  13.843
92795W        W56519  16.707   5.797  10.976
92796W        W56520   2.920  38.855   4.668
92797W        W56521  37.935  30.042  12.834
92798W        W56522  38.967  25.975   0.332
92799W        W56523  15.146  40.348  11.896
92800W        W56524  40.927  10.778  12.826
92801W        W56525  36.353  38.900  11.115
92802W        W56526   6.742  24.490  13.959
92803W        W56527   9.318  24.104  11.537
92804W        W56528  34.010   5.878   3.695
92805W        W56529  11.764  32.950  10.463
92806W        W56530   2.720  24.209   0.788
92807W        W56531  33.891  31.618  10.530
92808W        W56532  26.526  27.996   4.296
92809W        W56533   8.355   9.318  11.966
92810W        W56534   8.696   8.741   3.225
92811W        W56535  19.274  23.644   3.367
92812W        W56536   0.904   1.873   3.211
92813W        W56537  21.218   5.272   2.898
92814W        W56538  27.059  30.600   0.418
92815W        W56539  12.301  12.332  10.915
92816W        W56540  42.826   3.939   0.292
92817W        W56541  28.088   6.380   0.749
92818W        W56542  20.636  15.294  14.011
92819W        W56543  19.170   8.890   1.933
92820W        W56544   0.819  13.270  13.456
92821W        W56545  26.631   9.303  13.946
92822W        W56546  36.002  27.960   0.734
92823W        W56547   5.846  18.609   0.898
92824W        W56548  37.574  41.931  12.961
92825W        W56549   3.909  39.042   2.213
92826W        W56550  29.942  26.638   0.373
92827W        W56551  34.410   5.863   1.823
92828W        W56552  38.414   9.754  12.436
92829W        W56553  23.615   0.439  11.124
92830W        W56554  44.996  22.165   0.269
92831W        W56555  29.519  29.068  11.517
92832W        W56556  36.885  12.656  14.477
92833W        W56557   1.305  23.080  13.803
92834W        W56558  23.705  38.955   2.741
92835W        W56559  42.387  19.176   1.317
92836W        W56560  23.550  10.176  13.434
92837W        W56561   7.879  36.938  14.440
92838W        W56562  44.813  30.073  12.551
92839W        W56563  30.597  23.665   3.250
92840W        W56564  37.871   7.883  14.307
92841W        W56565  44.833  14.784   4.177
92842W        W56566   6.707   0.262  12.971
92843W        W56567  31.925  44.814  11.532
92844W        W56568  14.673  37.971  13.933
92845W        W56569  24.169  31.129  12.484
92846W        W56570  30.615  29.126  14.407
92847W        W56571  15.300  35.877  11.099
92848W        W56572  26.126  21.672  14.307
92849W        W56573  28.937  35.095   0.422
92850W        W56574  13.133  35.954   4.801
92851W        W56575  19.195  13.322   0.852
92852W        W56576  31.583  27.136  13.980
92853W        W56577  30.163  37.476   1.261
92854W        W56578  36.848  22.674  12.007
92855W        W56579  33.388   0.782  10.629
92856W        W56580  36.079   0.454  14.364
92857W        W56581  14.782  31.466   3.725
92858W        W56582  37.000  43.467   3.336
92859W        W56583  32.905  13.822   4.217
92860W        W56584  15.198  19.106   0.440
92861W        W56585  13.819  36.930   2.197
92862W        W56586  35.927  11.137   4.689
92863W        W56587  17.273  20.189  13.494
92864W        W56588  21.235  35.914  13.376
92865W        W56589  12.742   2.392   2.240
92866W        W56590  24.090   3.440  12.960
92867W        W56591  11.674  25.188   0.428
92868W        W56592  19.223  19.716  13.455
92869W        W56593  25.691  23.643  12.856
92870W        W56594  42.936  20.274   4.738
92871W        W56595  38.831  28.544  13.470
92872W        W56596  29.529  22.134   0.381
92873W        W56597  27.506  27.941  10.544
92874W        W56598   9.376  36.909   2.196
92875W        W56599   6.405   5.325  14.516
92876W        W56600  22.007  18.291  14.369
92877W        W56601  18.713  26.476   0.965
92878W        W56602  11.754  23.535   1.232
92879W        W56603  13.143  37.541  11.445
92880W        W56604   4.720  37.399   3.831
92881W        W56605  31.148  11.809  14.297
92882W        W56606  34.905   7.328   5.282
92883W        W56607   0.777  30.572  10.548
92884W        W56608  32.068  40.322   3.160
92885W        W56609  14.622   5.212  12.556
92886W        W56610  12.806  44.411   2.211
92887W        W56611  16.269  34.038   2.872
92888W        W56612  13.638  21.171   1.300
92889W        W56613  44.827  11.145  12.977
92890W        W56614  33.069  16.236  11.050
92891W        W56615   4.842   9.778  13.439
92892W        W56616  17.229  39.057   4.274
92893W        W56617  14.189  29.071   1.237
92894W        W56618  10.647  16.634  11.859
92895W        W56619   4.889  38.382   4.730
92896W        W56620   7.729  33.524  10.537
92897W        W56621   7.302  23.703   4.833
92898W        W56622  17.802  35.484   3.766
92899W        W56623  14.744  43.908   0.839
92900W        W56624  25.699  38.038  13.834
92901W        W56625  37.922  10.142  12.464
92902W        W56626  34.439  28.010  14.964
92903W        W56627  44.277  29.158   3.760
92904W        W56628  13.772   8.764   3.284
92905W        W56629   7.286  35.908   1.280
92906W        W56630  28.632  15.141   3.381
92907W        W56631   7.358  18.603   2.848
92908W        W56632  13.239  15.222  14.770
92909W        W56633  26.133  36.469   0.852
92910W        W56634  28.532  16.119   1.920
92911W        W56635  43.487  23.203   9.595
92912W        W56636   7.210  27.451   2.790
92913W        W56637   0.326  44.962  11.053
92914W        W56638  12.762   7.335   0.246
92915W        W56639  28.632  35.466   1.396
92916W        W56640  16.296  33.498  11.520
92917W        W56641  27.603   9.772   2.389
92918W        W56642  35.866   6.193   4.164
92919W        W56643  44.783   3.259   2.708
92920W        W56644   4.208  19.569  11.927
92921W        W56645  27.613  32.458   0.415
92922W        W56646  20.722   6.852  13.884
92923W        W56647  42.497   4.808   2.273
92924W        W56648  13.692  26.497  11.946
92925W        W56649  35.016  21.750  13.839
92926W        W56650  19.207  39.841  14.806
92927W        W56651   9.313  12.614  11.532
92928W        W56652  41.007   2.961  12.980
92929W        W56653  34.444  34.038  14.406
92930W        W56654  29.656  19.572   4.695
92931W        W56655  14.323  13.302   4.704
92932W        W56656  12.635  21.230   1.924
92933W        W56657  24.053  29.126  14.493
92934W        W56658  23.609  12.324  13.382
92935W        W56659  11.355  14.277  12.856
92936W        W56660  40.885  18.644  12.885
92937W        W56661  35.499  40.819   1.814
92938W        W56662   8.889   7.774   1.297
92939W        W56663  18.777  12.843  12.019
92940W        W56664  20.079  44.423   1.929
92941W        W56665  12.740  27.070   2.363
92942W        W56666   5.283  41.851  13.022
92943W        W56667   9.365   6.228  11.452
92944W        W56668   8.841  38.898  11.517
92945W        W56669   9.196  29.123  12.366
92946W        W56670  41.534  40.896   3.831
92947W        W56671   1.785  35.895   2.296
92948W        W56672  38.947  17.264   4.802
92949W        W56673  10.374   1.244  10.919
92950W        W56674  28.128  18.607  14.872
92951W        W56675  17.118  39.420  14.837
92952W        W56676   0.412  15.302   4.292
92953W        W56677   2.361   0.766   0.430
92954W        W56678  42.926  19.242  14.004
92955W        W56679  26.673  15.742  13.437
92956W        W56680  33.131  36.362  14.798
92957W        W56681   0.345  22.658   2.227
92958W        W56682  24.496  37.355  10.441
92959W        W56683  42.912  15.104   2.214
92960W        W56684   4.352   5.730   2.202
92961W        W56685  14.789  21.647  13.061
92962W        W56686  33.595  38.047  11.538
92963W        W56687  43.299  35.860   4.152
92964W        W56688   6.228  16.232  11.555
92965W        W56689  20.576  35.361   4.268
92966W        W56690  32.428  33.455   2.415
92967W        W56691  23.141  31.457  11.509
92968W        W56692  33.516  36.844  13.365
92969W        W56693  22.193  32.543  14.435
92970W        W56694  32.887  28.137  10.902
92971W        W56695  39.405   7.748  13.857
92972W        W56696  39.950  20.166  12.891
92973W        W56697  30.012  19.276  12.845
92974W        W56698  32.551  27.566   1.341
92975W        W56699  35.547  22.101   3.755
92976W        W56700  37.991  23.066   1.341
92977W        W56701  20.668  26.509  10.582
92978W        W56702  27.663  43.922  11.044
92979W        W56703  28.960  20.664   4.679
92980W        W56704  17.758   3.911  13.938
92981W        W56705   4.704  18.750  14.836
92982W        W56706  26.090  32.391  12.928
92983W        W56707   3.731   2.887  13.386
92984W        W56708  15.272  38.495   3.670
92985W        W56709   8.869  29.003  11.475
92986W        W56710  37.574  22.600  12.542
92987W        W56711  37.382  43.843  11.586
92988W        W56712  10.823  31.531  10.617
92989W        W56713  10.363  11.800  10.913
92990W        W56714  31.058   4.413   1.380
92991W        W56715  33.450  42.797   5.115
92992W        W56716   9.861  23.996   4.797
92993W        W56717   4.205  44.503   0.910
92994W        W56718  34.949   3.252   4.132
92995W        W56719  30.656  18.627  13.398
92996W        W56720  36.955  42.511  11.085
92997W        W56721  41.437   9.269  14.486
92998W        W56722  40.843  24.128  10.511
92999W        W56723   8.778  26.482   3.803
93000W        W56724   9.729   2.876   1.340
93001W        W56725  37.344   9.709  12.957
93002W        W56726  15.157   2.237  12.886
93003W        W56727  32.057  38.002  13.013
93004W        W56728  31.593   9.294   0.254
93005W        W56729  39.548  21.674   1.822
93006W        W56730  24.201  14.229  11.994
93007W        W56731  33.459  41.899  14.798
93008W        W56732  19.587  23.165  12.577
93009W        W56733  16.577   0.304   2.766
93010W        W56734  17.751  26.624   3.642
93011W        W56735  31.456  18.709   0.391
93012W        W56736  31.458  16.306   4.799
93013W        W56737  40.514  23.634  12.874
93014W        W56738  17.684   3.374   4.675
93015W        W56739   8.832  42.457  11.499
93016W        W56740  31.051  19.041   3.295
93017W        W56741  26.974  16.807  12.348
93018W        W56742  30.047  27.461  10.609
93019W        W56743  33.546  42.854  14.302
93020W        W56744   1.859  33.085   4.287
93021W        W56745  27.139   0.306   2.886
93022W        W56746  14.829  23.083  12.999
93023W        W56747   6.361  12.164  12.383
93024W        W56748  34.042  32.465  10.597
93025W        W56749  27.563  24.682   4.698
93026W        W56750  44.282   7.221   2.218
93027W        W56751  25.216  16.587  12.960
93028W        W56752  24.171  21.158   0.898
93029W        W56753   9.191  12.852   2.329
93030W        W56754  15.250  19.054  13.943
93031W        W56755  23.164  18.268   4.811
93032W        W56756   1.379  38.347  12.006
93033W        W56757  26.019  23.196  11.951
93034W        W56758  31.615  27.171  13.368
93035W        W56759  39.815  39.851   4.343
93036W        W56760  39.548  19.096   3.784
93037W        W56761  33.479   3.807   2.703
93038W        W56762   0.792  15.666  11.874
93039W        W56763  34.976  16.768   2.885
93040W        W56764   2.361   5.872   0.962
93041W        W56765  36.529  38.485  12.396
93042W        W56766  25.101   4.287  14.301
93043W        W56767  22.180  29.126   1.243
93044W        W56768  42.870  34.471   2.366
93045W        W56769   1.745  42.412  11.581
93046W        W56770   7.739  36.033  14.867
93047W        W56771  44.968  18.219   0.965
93048W        W56772  42.526  32.402   2.273
93049W        W56773  20.724   0.901  13.374
93050W        W56774  33.477  21.072  12.378
93051W        W56775  20.646  36.936   0.258
93052W        W56776  11.287  23.049  14.444
93053W        W56777  11.209  39.849  13.982
93054W        W56778  14.311  20.229  10.514
93055W        W56779  35.569  41.310   0.773
93056W        W56780  23.638  42.862  11.121
93057W        W56781  13.122   9.802  13.887
93058W        W56782   9.339  14.785  13.349
93059W        W56783  42.010  20.258   0.434
93060W        W56784  25.698  20.546   2.782
93061W        W56785  20.610  21.556  12.569
93062W        W56786  37.496  23.731  10.568
93063W        W56787  37.929  14.242   3.793
93064W        W56788  37.573  17.207   4.824
93065W        W56789   5.896  27.003   4.232
93066W        W56790  22.186   3.862  11.459
93067W        W56791  11.731  11.678   1.415
93068W        W56792  35.915   0.446   4.626
93069W        W56793  37.905  43.458  12.442
93070W        W56794  11.152  41.021  12.525
93071W        W56795   4.450  16.077   0.818
93072W        W56796  23.711  19.578   2.208
93073W        W56797   7.745  27.622   3.855
93074W        W56798  33.539  31.008   4.807
93075W        W56799  12.150  27.664   0.906
93076W        W56800   4.270   8.249  11.107
93077W        W56801   7.263  42.308  12.963
93078W        W56802   2.348  44.360   4.713
93079W        W56803  44.382   8.183  13.817
93080W        W56804  12.786   3.746   2.809
93081W        W56805  28.442  30.975   1.909
93082W        W56806  13.346  41.947  13.941
93083W        W56807   3.271  14.726  13.874
93084W        W56808   4.342   0.749   4.666
93085W        W56809   3.808   9.301   0.803
93086W        W56810   5.263   2.933  10.500
93087W        W56811   6.837  23.209   3.282
93088W        W56812   2.836  28.995   0.339
93089W        W56813  14.699  36.960   1.857
93090W        W56814  39.505  25.582  10.035
93091W        W56815  32.615  23.494   0.871
93092W        W56816  35.585   4.268  14.785
93093W        W56817   0.337  12.302  10.954
93094W        W56818   0.866  13.792   4.767
93095W        W56819   7.192  36.589   4.638
93096W        W56820   3.758  32.977  11.450
93097W        W56821   3.833  34.427   4.331
93098W        W56822  11.233  44.977  11.982
93099W        W56823  12.826  38.391   0.747
93100W        W56824  12.830  36.082  14.889
93101W        W56825   7.736  36.547   4.722
93102W        W56826  15.676  12.722  13.347
93103W        W56827  21.684  16.812   4.245
93104W        W56828  20.110  16.213   1.311
93105W        W56829   6.880  38.446   2.876
93106W        W56830  34.503  21.513   1.750
93107W        W56831  27.031  31.421   3.723
93108W        W56832  42.883  41.894  10.150
93109W        W56833  37.355   7.407  13.547
93110W        W56834  44.865  43.372   1.695
93111W        W56835   5.898  28.618  10.927
93112W        W56836  32.508  35.365   2.287
93113W        W56837  26.462  20.565  12.416
93114W        W56838  33.981  39.391   0.848
93115W        W56839  17.714  37.078  14.959
93116W        W56840  43.803  44.452   1.353
93117W        W56841  29.115   8.782  14.292
93118W        W56842   9.171  18.592  11.422
93119W        W56843   1.334  15.705  10.568
93120W        W56844  22.209  20.233   0.301
93121W        W56845  10.779   3.795   1.829
93122W        W56846  44.322  28.074   2.820
93123W        W56847  27.680  38.980   4.696
93124W        W56848  25.539   8.353   4.232
93125W        W56849  12.153  33.388  11.564
93126W        W56850  31.448  11.164   0.301
93127W        W56851  13.109   5.377  12.556
93128W        W56852  17.260  40.827   1.218
93129W        W56853  44.290  38.342   3.252
93130W        W56854  37.988  20.031  14.836
93131W        W56855  11.172   0.882  12.423
93132W        W56856   5.273  16.189  11.471
93133W        W56857  38.363  14.811   1.785
93134W        W56858  28.492   5.900   2.774
93135W        W56859  15.631   8.846  14.844
93136W        W56860  39.545  18.063   0.956
93137W        W56861  38.047  37.036  13.531
93138W        W56862  28.033  20.272   2.318
93139W        W56863  40.848   9.858  12.907
93140W        W56864  38.063   9.786  14.355
93141W        W56865  23.226  22.570   2.860
93142W        W56866  20.727  23.054  13.962
93143W        W56867  22.014   0.845  12.569
93144W        W56868  27.032  25.668  14.320
93145W        W56869   7.769  30.131  14.877
93146W        W56870  11.766  29.992  14.920
93147W        W56871  38.938  41.351  10.953
93148W        W56872  22.662  27.545  13.370
93149W        W56873  43.380  15.769   2.304
93150W        W56874   3.451   7.692  12.862
93151W        W56875  25.084  38.454   4.198
93152W        W56876  20.596  21.232   1.747
93153W        W56877  12.328  39.998   3.754
93154W        W56878  36.025   1.956  11.114
93155W        W56879  38.015  17.135   1.909
93156W        W56880  36.095  29.962   2.877
93157W        W56881  30.420  24.619   0.768
93158W        W56882   2.832   3.376  13.423
93159W        W56883  21.512   5.293   4.261
93160W        W56884   6.692   4.412   1.850
93161W        W56885  36.385  24.513   2.287
93162W        W56886  13.261   8.675   3.740
93163W        W56887  23.187  25.583  13.009
93164W        W56888  36.375  27.662   4.786
93165W        W56889  23.178  20.120   3.833
93166W        W56890  23.554  35.902  11.478
93167W        W56891  35.088   2.264   3.352
93168W        W56892  12.652  44.937  12.389
93169W        W56893  11.248   4.308   5.127
93170W        W56894   7.684  37.961  14.851
93171W        W56895  15.214   1.407   2.251
93172W        W56896   5.414   5.719   2.407
93173W        W56897  34.495   7.665   1.412
93174W        W56898  20.734  21.668   3.820
93175W        W56899  19.656  12.731  14.904
93176W        W56900  17.193  20.732   2.675
93177W        W56901  34.918  33.964  12.936
93178W        W56902   0.886  12.151  13.374
93179W        W56903   3.268  15.625   4.142
93180W        W56904   9.835  13.256  13.383
93181W        W56905   0.847  36.037  12.389
93182W        W56906  18.549  32.607   2.731
93183W        W56907  31.903  32.566  12.873
93184W        W56908  29.066  24.100  10.405
93185W        W56909  36.579  10.729   4.224
93186W        W56910   0.801  40.311  12.363
93187W        W56911  40.307   0.874  14.813
93188W        W56912  22.121  40.360  14.456
93189W        W56913  41.353  38.867   2.752
93190W        W56914  12.224  23.664  11.445
93191W        W56915  19.636  14.232  10.914
93192W        W56916  33.050  41.487  11.589
93193W        W56917  17.242  23.681  13.819
93194W        W56918  44.490  43.007  14.341
93195W        W56919   2.402  16.211  12.907
93196W        W56920  43.953  40.389   0.822
93197W        W56921  32.028  37.852   4.258
93198W        W56922  37.857   5.397   2.211
93199W        W56923  19.218  39.456  12.930
93200W        W56924   7.225  21.232   4.148
93201W        W56925  28.440   3.740  11.969
93202W        W56926  36.072  12.309  12.829
93203W        W56927  29.500   1.758  12.841
93204W        W56928   4.292  26.051   0.259
93205W        W56929  22.189  22.218   4.126
93206W        W56930  31.058  32.964  12.974
93207W        W56931  24.492  23.535   3.321
93208W        W56932  17.738  12.305   2.808
93209W        W56933   1.341  18.229   2.777
93210W        W56934  16.171   0.373   4.617
93211W        W56935  33.541  39.977   2.289
93212W        W56936   2.915  26.613   1.267
93213W        W56937   9.799  35.961   1.215
93214W        W56938  24.522   9.741  14.321
93215W        W56939  17.272  42.807   3.751
93216W        W56940  10.363  12.720  13.921
93217W        W56941  26.457  37.470  13.922
93218W        W56942  16.177   9.820   0.843
93219W        W56943  31.555  17.723  11.056
93220W        W56944  43.412  15.585  14.298
93221W        W56945   4.217  41.503  11.511
93222W        W56946  43.394  11.257   3.805
93223W        W56947   9.709  13.778  12.045
93224W        W56948  10.241  38.924  13.499
93225W        W56949  13.113  31.543   0.361
93226W        W56950  21.630  12.670   0.253
93227W        W56951  44.462  17.187  10.469
93228W        W56952  22.059   9.747   2.732
93229W        W56953  18.118  13.673   2.829
93230W        W56954   2.462  16.643   2.799
93231W        W56955  42.287  24.616   2.262
93232W        W56956  10.770  37.427  12.387
93233W        W56957  32.994  17.289  13.402
93234W        W56958   9.760  25.139   2.364
93235W        W56959   8.868  43.847   4.140
93236W        W56960  17.092  44.416   4.705
93237W        W56961   8.257  36.024   1.786
93238W        W56962  35.026   3.793   0.259
93239W        W56963  32.892  24.643   0.764
93240W        W56964  38.484  25.483  10.986
93241W        W56965  20.639   1.815   2.404
93242W        W56966  16.261  22.575  10.465
93243W        W56967  25.533  11.303  12.449
93244W        W56968  36.070  20.269   3.162
93245W        W56969  42.828  30.650   3.670
93246W        W56970  21.747   5.798  14.764
93247W        W56971  41.984  10.311  14.370
93248W        W56972  39.847  25.478   2.231
93249W        W56973   9.341  31.548  12.839
93250W        W56974  16.759   4.392  14.869
93251W        W56975  22.510  33.421  10.046
93252W        W56976  23.684   1.342   4.149
93253W        W56977  19.222  32.536   0.939
93254W        W56978  14.622   1.253   1.244
93255W        W56979   9.705  19.767  14.960
93256W        W56980   6.680  22.563   0.364
93257W        W56981  35.928   6.300   3.192
93258W        W56982   6.238  35.390   1.368
93259W        W56983  33.889  40.334  11.404
93260W        W56984  20.143  28.127   2.745
93261W        W56985  21.263  42.501  10.122
93262W        W56986  27.447  10.253  11.859
93263W        W56987  21.142  24.146   0.788
93264W        W56988   6.896   5.915  10.927
93265W        W56989  38.500  35.577   2.322
93266W        W56990  16.626  25.661   4.344
93267W        W56991  25.193  37.427   0.366
93268W        W56992  20.533  24.524  14.505
93269W        W56993  27.648  28.592   2.223
93270W        W56994  17.680  39.893   2.353
93271W        W56995  14.230  39.001   2.761
93272W        W56996   5.697  11.166   4.320
93273W        W56997  36.885  28.159   4.335
93274W        W56998  24.547  19.093   3.210
93275W        W56999  21.556  10.369   0.727
93276W        W57000   8.376   9.190   1.702
93277W        W57001  26.595   5.853  14.294
93278W        W57002  22.556  15.768  14.829
93279W        W57003  14.253  17.776  11.857
93280W        W57004  39.028  43.823  14.285
93281W        W57005   7.834   1.367  11.950
93282W        W57006   4.926  21.731  13.979
93283W        W57007  40.044  30.544  14.779
93284W        W57008   4.414  17.239   3.744
93285W        W57009   1.427  16.749  14.935
93286W        W57010  19.742   7.733  11.002
93287W        W57011  38.508  13.146   4.620
93288W        W57012  21.170  17.213   4.676
93289W        W57013  23.148  35.059   3.282
93290W        W57014  33.921  40.474   3.325
93291W        W57015  14.158  10.322  12.471
93292W        W57016  23.648   0.778   2.832
93293W        W57017  28.182   1.347  12.004
93294W        W57018   2.756  24.099   2.669
93295W        W57019  21.171  32.020  13.855
93296W        W57020   9.272  12.801   1.284
93297W        W57021   9.780  31.939   1.858
93298W        W57022  24.102  42.283   0.297
93299W        W57023  35.551  34.442  14.935
93300W        W57024  36.381  29.548   2.829
93301W        W57025  38.482  42.963   1.821
93302W        W57026  15.658  44.006   4.289
93303W        W57027  11.276   7.410  12.888
93304W        W57028  23.095  14.792   3.336
93305W        W57029  31.416   3.832  12.995
93306W        W57030  18.256  20.154   4.774
93307W        W57031  27.042  40.911  13.380
93308W        W57032  10.733  33.398   0.402
93309W        W57033  38.014   9.201  10.925
93310W        W57034  23.590  31.406  14.899
93311W        W57035  41.040  30.654  11.584
93312W        W57036  10.262  31.006   3.292
93313W        W57037   7.784  41.381  10.047
93314W        W57038  17.073  36.925  10.425
93315W        W57039  29.485  12.241  14.500
93316W        W57040  24.681  34.072   0.468
93317W        W57041  24.018   5.391   0.750
93318W        W57042  19.643   4.246  13.433
93319W        W57043  43.479   2.758  14.289
93320W        W57044  41.455  43.815  10.610
93321W        W57045  42.829  39.993   2.766
93322W        W57046  40.931   9.699  10.442
93323W        W57047   1.451  39.997  13.406
93324W        W57048  23.066  41.353  11.426
93325W        W57049  38.445   7.221  13.435
93326W        W57050  16.748  41.456   3.755
93327W        W57051  22.686  32.951   0.264
93328W        W57052  44.954   9.842  12.948
93329W        W57053  37.557   7.701   1.696
93330W        W57054   2.472  25.542  13.968
93331W        W57055  32.464  42.778  12.830
93332W        W57056  41.336  39.351   4.147
93333W        W57057   5.286  29.472   0.913
93334W        W57058  43.400  12.157  11.459
93335W        W57059  21.541   0.372  11.531
93336W        W57060  40.306   3.317   2.803
93337W        W57061   6.226  24.703   0.856
93338W        W57062  35.488   0.255  12.476
93339W        W57063  34.478  36.022   4.622
93340W        W57064  23.048  44.010  13.422
93341W        W57065  13.219  44.863  12.359
93342W        W57066  22.693  41.862   2.292
93343W        W57067   8.757  40.397   1.361
93344W        W57068  19.042   0.803   4.654
93345W        W57069   0.248  13.644   1.818
93346W        W57070   8.681  31.462   1.739
93347W        W57071  42.885   6.842  12.962
93348W        W57072  43.283  41.010   3.687
93349W        W57073  21.080  11.165   1.804
93350W        W57074  22.680  22.204  13.385
93351W        W57075  25.185  34.106  14.903
93352W        W57076  24.214   8.895   9.972
93353W        W57077  30.986  37.496  10.077
93354W        W57078   3.415   0.301   3.705
93355W        W57079  26.563  30.995   9.627
93356W        W57080  33.462  15.148  13.495
93357W        W57081   4.262   5.841   3.154
93358W        W57082  44.417  38.858   3.684
93359W        W57083   2.454  10.807   0.371
93360W        W57084  41.902  21.195  12.483
93361W        W57085  22.583  35.360  12.907
93362W        W57086  18.736  14.147   0.958
93363W        W57087  36.379  21.593  14.467
93364W        W57088   0.339   8.207   3.731
93365W        W57089   4.277  21.546   2.691
93366W        W57090  20.196  29.647  12.479
93367W        W57091  43.479  19.187   0.391
93368W        W57092   1.907  36.061  12.933
93369W        W57093  30.154  24.597  14.950
93370W        W57094   3.953   4.914   4.249
93371W        W57095  40.538   3.356  10.941
93372W        W57096   3.756   2.271   0.397
93373W        W57097  27.075  29.462   4.648
93374W        W57098  41.320   9.649   4.642
93375W        W57099  42.342  18.228  13.002
93376W        W57100   5.746  34.387   3.342
93377W        W57101  17.179  37.350  10.582
93378W        W57102  24.657  40.955  13.920
93379W        W57103   8.175  17.736  14.803
93380W        W57104   6.819  15.194   3.760
93381W        W57105   8.871  18.770  12.012
93382W        W57106  11.279  16.582  12.895
93383W        W57107  42.402  10.355  10.900
93384W        W57108  35.870   2.801   2.355
93385W        W57109   0.841  44.961   2.859
93386W        W57110  35.595  15.770   4.677
93387W        W57111   8.771  11.225   2.809
93388W        W57112   7.814  35.076   1.432
93389W        W57113   8.734  10.840   1.811
93390W        W57114   9.841  34.609   0.938
93391W        W57115  19.270  29.501   2.203
93392W        W57116   2.891  41.906  11.930
93393W        W57117  20.669  39.553  11.423
93394W        W57118  40.509  22.688  14.853
93395W        W57119  34.047   8.760   3.783
93396W        W57120   3.827   6.358   2.874
93397W        W57121  23.014  11.689  10.508
93398W        W57122   3.916  32.554  10.506
93399W        W57123  34.974  40.482  14.759
93400W        W57124  25.491  40.380  13.503
93401W        W57125  17.269  44.317  14.371
93402W        W57126   3.915  40.353   0.451
93403W        W57127  10.878   6.287  14.015
93404W        W57128  28.098   5.909   9.975
93405W        W57129  41.468  24.137   2.396
93406W        W57130  31.118   8.209  11.860
93407W        W57131  32.963   4.283  10.464
93408W        W57132  10.155  13.660   0.345
93409W        W57133  43.499  32.916   0.315
93410W        W57134  43.359  34.920  12.472
93411W        W57135  43.372   3.861   0.346
93412W        W57136  28.479  15.593  13.363
93413W        W57137   3.416  21.131  11.453
93414W        W57138  17.288  29.111  10.959
93415W        W57139  35.929   0.345  10.472
93416W        W57140  29.165  42.395   0.471
93417W        W57141  31.133  33.573   1.913
93418W        W57142   1.944  13.638  14.915
93419W        W57143  24.192  15.134  10.487
93420W        W57144   5.739  32.976  14.364
93421W        W57145  17.792   1.748  11.524
93422W        W57146  36.878  21.669  14.772
93423W        W57147  15.230   5.738   2.736
93424W        W57148  32.487  13.742  10.545
93425W        W57149  15.125  37.473  14.302
93426W        W57150   6.354  36.906  13.312
93427W        W57151  40.318  10.832   4.635
93428W        W57152  27.650  30.140  14.927
93429W        W57153  17.276  39.525   1.275
93430W        W57154  37.501  19.631  10.460
93431W        W57155  39.905  27.088  13.426
93432W        W57156  20.174  25.713   0.899
93433W        W57157   0.967  24.609  13.393
93434W        W57158   6.399  39.881   0.382
93435W        W57159  20.095  21.170   1.760
93436W        W57160  30.112  40.932   1.403
93437W        W57161  32.041  18.126   3.794
93438W        W57162  28.460  42.514  13.989
93439W        W57163   0.805  32.015   5.194
93440W        W57164   3.221  29.087  10.060
93441W        W57165  23.113  19.679  10.497
93442W        W57166  41.410  33.937  10.496
93443W        W57167  30.001  33.890   4.706
93444W        W57168  32.590  29.066  13.412
93445W        W57169  29.156  38.053  12.072
93446W        W57170  38.903  26.154  11.453
93447W        W57171  23.629  18.682  14.410
93448W        W57172  41.983  24.670   5.290
93449W        W57173  40.413  11.745  10.044
93450W        W57174  11.683  33.545  14.314
93451W        W57175  12.182  43.798   2.839
93452W        W57176  11.847  33.585  13.961
93453W        W57177  37.542   2.333   3.640
93454W        W57178  39.947  20.029  13.354
93455W        W57179  41.960   3.413   3.261
93456W        W57180  13.272  34.552  10.934
93457W        W57181   6.803   3.411   1.414
93458W        W57182  17.599   8.337   0.899
93459W        W57183  21.691  40.892  11.441
93460W        W57184  22.103  37.065  10.635
93461W        W57185  37.989  23.512   2.184
93462W        W57186  20.758  15.085  14.895
93463W        W57187   7.197  22.998   0.954
93464W        W57188  16.317  30.939   2.756
93465W        W57189  11.363  17.151  14.371
93466W        W57190  28.532  26.652  10.599
93467W        W57191   7.257  28.579   3.366
93468W        W57192  36.416  22.200  12.886
93469W        W57193  38.926  29.156  10.991
93470W        W57194  40.524  41.370  10.954
93471W        W57195  17.152   2.930  10.507
93472W        W57196  30.621  29.966   1.261
93473W        W57197  28.168  12.667  12.844
93474W        W57198   0.331  23.128  14.295
93475W        W57199  19.181  33.518  13.357
93476W        W57200  19.273  28.934  11.020
93477W        W57201  33.098  39.492  13.441
93478W        W57202  29.670  42.373  11.562
93479W        W57203   5.897  21.629   2.201
93480W        W57204   8.330   5.863   2.180
93481W        W57205  16.296  25.059  14.792
93482W        W57206  41.869   1.931  12.058
93483W        W57207  37.033  32.130   4.687
93484W        W57208  12.779  33.120   3.732
93485W        W57209   2.260  14.664   1.367
93486W        W57210  14.336   7.691  12.085
93487W        W57211  43.430  41.854   0.402
93488W        W57212  39.524  15.086  12.863
93489W        W57213  36.992  35.435   1.424
93490W        W57214  31.905  23.547  12.392
93491W        W57215  27.545  15.735  10.432
93492W        W57216   1.265  33.987  11.084
93493W        W57217  32.562   3.949   2.245
93494W        W57218  38.862  25.587  14.848
93495W        W57219  17.751  40.481  12.401
93496W        W57220  23.667   0.782  14.439
93497W        W57221  18.245   7.884  10.456
93498W        W57222  25.623   1.743   4.751
93499W        W57223  29.472  34.457  14.426
93500W        W57224  20.709  41.336  13.922
93501W        W57225  24.199   6.780   1.785
93502W        W57226   7.694  28.062   5.305
93503W        W57227  38.005  18.705   2.757
93504W        W57228  33.525  32.628   1.437
93505W        W57229   9.290  41.006   4.183
93506W        W57230   6.307  19.727  10.424
93507W        W57231  35.468  40.924  12.942
93508W        W57232  44.895  24.165   1.234
93509W        W57233  23.709  12.678  13.986
93510W        W57234   5.329  19.244  10.426
93511W        W57235  15.121  44.001  14.920
93512W        W57236  20.134  27.648  13.516
93513W        W57237  39.922  18.689  14.365
93514W        W57238  33.506  35.508   1.898
93515W        W57239  42.497  18.790  10.978
93516W        W57240  24.482  31.997  13.364
93517W        W57241  36.987  29.592   2.763
93518W        W57242  14.757   2.367  14.511
93519W        W57243  18.565  13.671   9.458
93520W        W57244  35.921  37.563  12.897
93521W        W57245  35.028   1.273  13.015
93522W        W57246  28.522  37.975  10.922
93523W        W57247  14.134  40.031  14.506
93524W        W57248  42.416  31.524  14.776
93525W        W57249   5.295  41.033   4.741
93526W        W57250   0.964  42.458  13.023
93527W        W57251  28.185   3.365   4.273
93528W        W57252  39.452  37.941  12.457
93529W        W57253  37.855  44.934   3.699
93530W        W57254  30.492  18.766  11.504
93531W        W57255  30.920   2.369  11.497
93532W        W57256  34.995   6.300   0.741
93533W        W57257   5.905  33.082   4.724
93534W        W57258  23.713   8.687   1.381
93535W        W57259  17.238  39.543  11.055
93536W        W57260   2.325  14.768  13.483
93537W        W57261   9.149  25.002   1.908
93538W        W57262   4.895   1.347  13.884
93539W        W57263  32.431  19.552  11.115
93540W        W57264  22.656  28.086   4.328
93541W        W57265  41.808  24.486  11.077
93542W        W57266  20.230  29.555   2.812
93543W        W57267   3.223  17.616  12.084
93544W        W57268  30.030  13.163  13.911
93545W        W57269   8.325  25.976  11.993
93546W        W57270   4.450  24.480  10.408
93547W        W57271  33.488  30.023  13.322
93548W        W57272  23.130  24.121  10.496
93549W        W57273  18.582  12.324  10.574
93550W        W57274  33.497  19.572  14.416
93551W        W57275  14.713  15.160   1.317
93552W        W57276  29.138  23.069   2.366
93553W        W57277  10.668   1.385  12.461
93554W        W57278   2.727  36.395  12.529
93555W        W57279  35.968  33.883  11.964
93556W        W57280  16.169  43.383  13.331
93557W        W57281  29.430   5.931   4.637
93558W        W57282  17.199  41.417   0.478
93559W        W57283  22.096  21.120   0.873
93560W        W57284  22.128  44.789   1.321
93561W        W57285   0.969   8.360  10.445
93562W        W57286  30.151   9.660   2.685
93563W        W57287  20.175   7.839  14.963
93564W        W57288  25.555  40.992   3.276
93565W        W57289  14.815  27.115  11.519
93566W        W57290   5.357   2.745  14.378
93567W        W57291  22.047  40.437   3.263
93568W        W57292   9.764   4.231   4.770
93569W        W57293  30.025   9.239  11.009
93570W        W57294  34.111  28.574  12.073
93571W        W57295   3.285  34.397   4.635
93572W        W57296  32.911  44.821   4.754
93573W        W57297  15.168   0.368  11.996
93574W        W57298   9.824  42.948   4.822
93575W        W57299   3.784   5.915  12.875
93576W        W57300  42.840  22.152  14.916
93577W        W57301   0.917  23.524  12.922
93578W        W57302  19.172  39.901   0.786
93579W        W57303  31.490  10.255  13.462
93580W        W57304  31.081   0.808   3.203
93581W        W57305  37.505  14.763  12.450
93582W        W57306  31.405  31.976  12.872
93583W        W57307  29.499   3.240   5.141
93584W        W57308  35.876  21.237  12.434
93585W        W57309  30.551  27.613  14.301
93586W        W57310   7.243  38.880  10.424
93587W        W57311   3.836  16.666   1.372
93588W        W57312   6.353  25.608  10.980
93589W        W57313   4.866  14.596   3.293
93590W        W57314  21.186  12.326   4.714
93591W        W57315  32.410  34.058  12.414
93592W        W57316   9.815  18.263   0.769
93593W        W57317  29.957   6.883  13.900
93594W        W57318  39.329  10.140  14.812
93595W        W57319  10.764  38.966  10.949
93596W        W57320   9.351  31.447   4.243
93597W        W57321  30.019  13.724  12.059
93598W        W57322  22.202  17.773   0.266
93599W        W57323   3.276  18.090  14.860
93600W        W57324  42.493  29.477   4.738
93601W        W57325  22.600  38.343   4.265
93602W        W57326  37.528   9.803   2.306
93603W        W57327   8.254  19.253  12.363
93604W        W57328  16.578  20.162   1.871
93605W        W57329  34.998   8.799   4.350
93606W        W57330  38.021  41.321   5.279
93607W        W57331  24.026  18.723  13.023
93608W        W57332  28.528   7.713  13.403
93609W        W57333   9.688  40.540  10.576
93610W        W57334  23.702  12.813  10.589
93611W        W57335  20.166   7.271   1.729
93612W        W57336  15.273   2.869   2.191
93613W        W57337  42.500   6.200  10.607
93614W        W57338  27.127  28.573  13.990
93615W        W57339   5.323  34.110  12.001
93616W        W57340  19.748   0.981   1.892
93617W        W57341  26.206  38.064   4.222
93618W        W57342  37.577  26.467  14.355
93619W        W57343  44.890  23.128  11.571
93620W        W57344  12.743  28.186  11.904
93621W        W57345  17.120  30.084  10.415
93622W        W57346   0.312  33.567  13.819
93623W        W57347  11.682  32.974  14.400
93624W        W57348  33.575  33.578  12.094
93625W        W57349  43.396  44.771   4.258
93626W        W57350  28.463   0.341  10.429
93627W        W57351  16.673  12.657   2.398
93628W        W57352   0.310  10.847  12.930
93629W        W57353  31.991  42.486   2.700
93630W        W57354  33.977  44.465  14.454
93631W        W57355  42.367  34.437  14.305
93632W        W57356   5.700  19.268   1.927
93633W        W57357  22.654   6.762  13.920
93634W        W57358  35.073   2.289  11.859
93635W        W57359  35.902  24.221  10.595
93636W        W57360  36.877  44.440  11.469
93637W        W57361  36.393  30.443  10.053
93638W        W57362   9.254  14.713   2.309
93639W        W57363  29.667  11.281   5.153
93640W        W57364   3.820  17.243  11.124
93641W        W57365  10.693   9.356   3.157
93642W        W57366  37.400   3.289  14.850
93643W        W57367  29.608  35.861  10.913
93644W        W57368   0.897   1.796   5.276
93645W        W57369  15.625   8.656  14.427
93646W        W57370  21.673  30.527  11.055
93647W        W57371  42.993   7.902   1.826
93648W        W57372   8.336  19.200  13.962
93649W        W57373   8.373  28.481   3.636
93650W        W57374  22.054  35.573   3.690
93651W        W57375  29.660  24.588   0.425
93652W        W57376  14.658   1.469   3.673
93653W        W57377  42.785  24.063   2.236
93654W        W57378  20.153  24.979  13.484
93655W        W57379  24.717  21.122   3.790
93656W        W57380  27.172   3.784   4.813
93657W        W57381  24.979  37.862   1.439
93658W        W57382  21.721  15.733   4.699
93659W        W57383  20.217  44.418   0.404
93660W        W57384   5.291   5.694   4.130
93661W        W57385  36.996  26.110  10.642
93662W        W57386  18.747  42.502  12.520
93663W        W57387  15.219   7.789  12.886
93664W        W57388  41.888  44.494   5.176
93665W        W57389  28.186  31.533  14.437
93666W        W57390  35.868  18.053  12.948
93667W        W57391  16.789  13.350   4.739
93668W        W57392  21.192   1.885   4.769
93669W        W57393   8.771  34.971  14.417
93670W        W57394  29.547   3.370  12.386
93671W        W57395  19.238  37.960  10.945
93672W        W57396  21.151  13.209  13.504
93673W        W57397  25.193  39.881  13.509
93674W        W57398  39.468  10.258  11.997
93675W        W57399  43.021  42.776  14.277
93676W        W57400   3.935  36.504  10.423
93677W        W57401  17.607  39.434   1.346
93678W        W57402  30.134  24.033   0.763
93679W        W57403  15.637  17.119  12.986
93680W        W57404  16.180  15.592  10.025
93681W        W57405  12.171  28.045  11.092
93682W        W57406   5.835  16.162  13.847
93683W        W57407  18.184   7.838   3.794
93684W        W57408  29.477   7.182   3.670
93685W        W57409  39.022  34.066  14.315
93686W        W57410  22.242   9.743   4.680
93687W        W57411  19.137  21.689  14.976
93688W        W57412  42.903  18.197  10.549
93689W        W57413  10.250  25.989   4.215
93690W        W57414  25.705  18.234   0.342
93691W        W57415  16.295  39.814   3.170
93692W        W57416  31.903  12.285   2.394
93693W        W57417  32.997   1.421  13.945
93694W        W57418  26.066  31.609   5.139
93695W        W57419  11.207  28.070  14.464
93696W        W57420  29.612  12.780  12.470
93697W        W57421   4.250  35.941   1.914
93698W        W57422  11.859   6.756   2.226
93699W        W57423  30.109  22.064   1.887
93700W        W57424  25.124   7.287  12.837
93701W        W57425   3.450  31.000   0.438
93702W        W57426  18.264  26.989  11.471
93703W        W57427  44.468  39.063   2.863
93704W        W57428  38.535   9.321  12.991
93705W        W57429   0.418  17.742  14.019
93706W        W57430  37.441  13.734  13.357
93707W        W57431   8.880  33.083   3.807
93708W        W57432  38.371   4.313  11.044
93709W        W57433   0.906   5.365   4.189
93710W        W57434  28.025  41.317  14.357
93711W        W57435  25.090   9.259  10.515
93712W        W57436  22.173  32.013   5.089
93713W        W57437  42.516   7.909   4.142
93714W        W57438  35.436  39.984  13.401
93715W        W57439  32.994  15.822  12.373
93716W        W57440  39.548  15.744   2.410
93717W        W57441  16.172   7.266  12.428
93718W        W57442  25.501  31.475   4.707
93719W        W57443  22.113  27.513  14.424
93720W        W57444  31.597  41.978  10.947
93721W        W57445  18.273  23.011   1.393
93722W        W57446  20.223  32.058  10.039
93723W        W57447  18.252  43.790   1.738
93724W        W57448   7.687  36.378  10.484
93725W        W57449   6.220   4.403  10.461
93726W        W57450  40.528  37.978  10.476
93727W        W57451  40.352  27.053  14.018
93728W        W57452  26.496  43.295  11.976
93729W        W57453  20.169  35.886  12.408
93730W        W57454   3.752  35.381   3.774
93731W        W57455   8.270  15.172  11.429
93732W        W57456  41.966  17.743  14.384
93733W        W57457  36.043   5.690  12.022
93734W        W57458   6.239  13.753  10.965
93735W        W57459  37.441  26.020  10.481
93736W        W57460  38.852  42.480  11.521
93737W        W57461   5.831  37.566   4.209
93738W        W57462  29.526  25.195  11.003
93739W        W57463  20.631  26.196  14.982
93740W        W57464  26.067  15.131   3.182
93741W        W57465   1.885  27.498  11.957
93742W        W57466  40.533  21.250   3.699
93743W        W57467  32.482  32.571   4.306
93744W        W57468  24.016  42.899  12.368
93745W        W57469  31.013  42.998  10.420
93746W        W57470  28.591  44.319  10.561
93747W        W57471  12.616  14.122   0.786
93748W        W57472  11.369   5.437  13.511
93749W        W57473  39.328  40.532  12.473
93750W        W57474  36.847  16.105   3.343
93751W        W57475   0.296   6.266   1.326
93752W        W57476   1.835  16.733   4.722
93753W        W57477  14.288  37.462   2.404
93754W        W57478  25.499  12.249  10.445
93755W        W57479  42.929  25.050   2.795
93756W        W57480   3.390  10.369  13.890
93757W        W57481  20.645  12.140   0.342
93758W        W57482   7.731  12.262   5.604
93759W        W57483   5.836  40.331   0.402
93760W        W57484  15.732  44.429   2.410
93761W        W57485  16.167  41.034  11.059
93762W        W57486  17.255  44.503   5.139
93763W        W57487  41.408  31.626  13.506
93764W        W57488  17.125  17.260  10.896
93765W        W57489  43.945  38.834   3.697
93766W        W57490  26.203   5.756   3.823
93767W        W57491   7.765  39.469  12.525
93768W        W57492  43.826   0.488   2.865
93769W        W57493  14.660  42.778  10.498
93770W        W57494  20.079  27.584   3.315
93771W        W57495  21.068  13.174   4.718
93772W        W57496  26.690  11.690   4.623
93773W        W57497  13.149  18.208   0.246
93774W        W57498   1.336  29.025  10.521
93775W        W57499  23.987  24.113  14.490
93776W        W57500  10.783  10.828   3.227
93777W        W57501  29.539  36.941   4.254
93778W        W57502   3.905  10.783  10.608
93779W        W57503   8.214   3.273  10.919
93780W        W57504  21.074  41.349   1.725
93781W        W57505  22.020  17.207  11.073
93782W        W57506  10.159  35.574  14.430
93783W        W57507  15.633  20.535  12.508
93784W        W57508  12.338  15.613  11.042
93785W        W57509  37.886  17.217  13.369
93786W        W57510  41.953  14.823  13.823
93787W        W57511  23.682  27.604  13.800
93788W        W57512   9.673  23.734  14.304
93789W        W57513  43.841  19.125   4.737
93790W        W57514  32.447  26.470  12.991
93791W        W57515   3.767  43.901  14.368
93792W        W57516  35.386   8.836   4.270
93793W        W57517  32.464  35.417  11.041
93794W        W57518   8.308  14.145  13.928
93795W        W57519  29.158  12.315  10.903
93796W        W57520  42.864  38.945   0.402
93797W        W57521  33.945  35.425   0.253
93798W        W57522  40.826  40.050  11.128
93799W        W57523  14.689  22.247  11.600
93800W        W57524  42.806   7.186  11.040
93801W        W57525  36.519  40.025   1.214
93802W        W57526  37.070  18.617   3.654
93803W        W57527   8.900  25.000   2.339
93804W        W57528  19.557  39.461   0.919
93805W        W57529   5.772  14.716   2.726
93806W        W57530  40.353  40.868   5.637
93807W        W57531  44.387  24.032  14.469
93808W        W57532  17.247  19.055  11.017
93809W        W57533  35.977  41.034  14.954
93810W        W57534   0.354   4.820   4.329
93811W        W57535  25.110   6.901  12.479
93812W        W57536  13.144  39.974  13.915
93813W        W57537  24.668  30.517   4.623
93814W        W57538  18.654  42.893  10.492
93815W        W57539  10.877  13.711   3.730
93816W        W57540  32.928  36.949  14.958
93817W        W57541  28.176  19.763  14.950
93818W        W57542  14.315  39.047  13.814
93819W        W57543   4.345  35.920  11.874
93820W        W57544  30.045   7.179  14.882
93821W        W57545  31.622  24.579  11.471
93822W        W57546   4.858  28.468  13.336
93823W        W57547  29.937   6.869  14.490
93824W        W57548  42.804   6.203   3.226
93825W        W57549  31.971  11.744  13.007
93826W        W57550   7.179  41.400  12.837
93827W        W57551  44.850  15.731   0.964
93828W        W57552  21.170  42.813  12.846
93829W        W57553  34.934  37.872   4.350
93830W        W57554  31.643  32.489  11.538
93831W        W57555  44.431  27.185   2.181
93832W        W57556  42.384  42.413  14.405
93833W        W57557   4.315  40.433   4.684
93834W        W57558  24.512  30.049  13.405
93835W        W57559  14.799  29.629  13.057
93836W        W57560   2.311  42.804   2.894
93837W        W57561  17.171  43.926   3.363
93838W        W57562  12.229  37.939  13.355
93839W        W57563  30.141  23.013   2.402
93840W        W57564  25.973   4.744   0.859
93841W        W57565  34.111  35.397  11.036
93842W        W57566  18.067  13.203  13.532
93843W        W57567  31.537  24.614   3.211
93844W        W57568  26.677  36.586   3.164
93845W        W57569  22.200  44.486  14.446
93846W        W57570  17.208  10.224   4.771
93847W        W57571   4.791   8.797  12.081
93848W        W57572  38.992  13.270   2.681
93849W        W57573  28.488   1.811   4.823
93850W        W57574  43.853  29.094  12.019
93851W        W57575  41.884  23.648  12.827
93852W        W57576   3.870  29.439  14.434
93853W        W57577   5.915  20.723  12.976
93854W        W57578  27.479  35.993  14.318
93855W        W57579  27.566  11.747   2.818
93856W        W57580   7.739  29.567   1.748
93857W        W57581  13.320   8.266  11.574
93858W        W57582  19.679  31.442  11.432
93859W        W57583  27.080   7.341  10.130
93860W        W57584  44.311  18.549  13.842
93861W        W57585  32.946  24.671  14.432
93862W        W57586  13.309  14.678   0.401
93863W        W57587  29.077  14.154  11.982
93864W        W57588  18.117  21.094  11.022
93865W        W57589  15.782  11.296   1.831
93866W        W57590  19.698  40.993   9.971
93867W        W57591   1.853  44.393  14.786
93868W        W57592  21.710  40.834   1.230
93869W        W57593  10.296   0.948   5.294
93870W        W57594  31.010   8.663   2.285
93871W        W57595  40.855  19.077   1.375
93872W        W57596   5.822  42.790  11.979
93873W        W57597  25.531  12.736   2.673
93874W        W57598  35.575  16.241   2.254
93875W        W57599  29.058  24.523  14.343
93876W        W57600   7.835  19.737  11.103
93877W        W57601  44.770  11.822  14.885
93878W        W57602  39.382  22.666   9.537
93879W        W57603  38.913  12.725   2.270
93880W        W57604  34.049   9.176   0.251
93881W        W57605  28.156  13.650   3.228
93882W        W57606  36.027  17.280  14.440
93883W        W57607  32.405  16.253  10.957
93884W        W57608  15.228  43.926   1.265
93885W        W57609  43.511   3.386   3.642
93886W        W57610   7.314  30.925  12.339
93887W        W57611  39.437  26.192   0.466
93888W        W57612  29.614  22.058   0.758
93889W        W57613  33.617   1.268  14.009
93890W        W57614   6.688  32.559   0.327
93891W        W57615  12.826  30.012  11.949
93892W        W57616  17.084  15.184   3.774
93893W        W57617   5.788  19.117  10.614
93894W        W57618  10.138   0.882  11.535
93895W        W57619   2.447  16.688  11.018
93896W        W57620   1.908  27.531   0.382
93897W        W57621  42.012   1.434  13.904
93898W        W57622   4.283   9.175  12.371
93899W        W57623  29.611   3.275   4.610
93900W        W57624  31.624  21.158   4.168
93901W        W57625  32.926  23.516   0.745
93902W        W57626  22.526  41.313   4.122
93903W        W57627  44.942  31.594  11.868
93904W        W57628   4.905  40.905  10.518
93905W        W57629  17.625  16.308  11.915
93906W        W57630  32.454   3.913   3.216
93907W        W57631  29.059  24.107  13.955
93908W        W57632  41.402  33.026   1.255
93909W        W57633   3.868   6.399  11.901
93910W        W57634  28.042   3.271   1.332
93911W        W57635   4.910  16.757  11.601
93912W        W57636  41.396   2.781   0.339
93913W        W57637  30.478  22.645  14.454
93914W        W57638   5.241  12.759  13.003
93915W        W57639  27.056  44.893  11.029
93916W        W57640  32.892  20.079   4.188
93917W        W57641  20.218   7.232  11.013
93918W        W57642  32.071  13.757  12.882
93919W        W57643  38.390  14.606  13.036
93920W        W57644  39.334  22.733   0.380
93921W        W57645   2.424  12.265   4.609
93922W        W57646  35.519  14.787  13.505
93923W        W57647  21.066  32.409  14.833
93924W        W57648  41.434  15.227   2.727
93925W        W57649  34.416  26.631   3.777
93926W        W57650  24.058  36.057   4.160
93927W        W57651  25.649  32.537  11.916
93928W        W57652  26.669  33.443  12.431
93929W        W57653   2.369  38.962  10.016
93930W        W57654   3.806  31.564   4.739
93931W        W57655  22.058  38.000   0.339
93932W        W57656  32.521   9.756  11.402
93933W        W57657  34.417  38.444  10.410
93934W        W57658  43.284  44.503  10.463
93935W        W57659  26.037  40.924   4.190
93936W        W57660  25.080   3.241  14.366
93937W        W57661  36.574  13.786  14.475
93938W        W57662  15.316  32.553  11.515
93939W        W57663  24.103  33.464   1.819
93940W        W57664   7.766   2.360  10.403
93941W        W57665  14.743  25.218  11.434
93942W        W57666   4.792  29.970   0.284
93943W        W57667  18.641  24.995  13.874
93944W        W57668  20.553  38.546  12.433
93945W        W57669   5.834  44.006   0.409
93946W        W57670  44.502  14.163   0.949
93947W        W57671  29.666   8.711   4.689
93948W        W57672   0.474  16.585  13.961
93949W        W57673  33.608  15.783  12.012
93950W        W57674  35.038  12.812   1.237
93951W        W57675  22.180  14.120  14.468
93952W        W57676  37.071  14.628   1.742
93953W        W57677   5.284  35.921  11.521
93954W        W57678  16.775   4.417  11.473
93955W        W57679  13.206  43.878  14.872
93956W        W57680   8.804   3.414  11.946
93957W        W57681  21.079  17.136  14.319
93958W        W57682  38.923  33.427   1.771
93959W        W57683  18.113  13.181   1.218
93960W        W57684  15.289   9.693   2.284
93961W        W57685  41.896  40.464   2.799
93962W        W57686  36.376   5.225   1.400
93963W        W57687  25.107   2.916   2.681
93964W        W57688  35.920  42.886   2.696
93965W        W57689  11.140  22.718   0.817
93966W        W57690  17.647  39.317  11.504
93967W        W57691  18.051  42.935   4.823
93968W        W57692  22.723  23.226  13.972
93969W        W57693   5.314  18.683   1.439
93970W        W57694   8.167   5.414  12.883
93971W        W57695  41.362  13.234   4.216
93972W        W57696  39.026  36.065  14.861
93973W        W57697  14.677  39.868   0.390
93974W        W57698   1.440  32.595   3.739
93975W        W57699  29.073   5.707  12.363
93976W        W57700   6.349   5.404   3.274
93977W        W57701  27.526  31.079  10.520
93978W        W57702  11.700   7.838   1.252
93979W        W57703  23.097  16.242  14.924
93980W        W57704  11.349  13.643  14.858
93981W        W57705  23.135  20.562  12.883
93982W        W57706  29.133  20.089   3.701
93983W        W57707  37.562  14.326   1.897
93984W        W57708  24.996  43.006   2.319
93985W        W57709  29.564   2.940  11.421
93986W        W57710   1.298   1.243   0.919
93987W        W57711  18.087  36.027   3.675
93988W        W57712  18.666   7.408   0.273
93989W        W57713  35.534  29.098   3.170
93990W        W57714  25.687  27.627  12.521
93991W        W57715  28.489   4.907  13.526
93992W        W57716  23.181  38.558  12.373
93993W        W57717  39.942  28.515  13.450
93994W        W57718  26.140  27.686  10.061
93995W        W57719   8.823   6.396   0.967
93996W        W57720  35.405  33.956  11.973
93997W        W57721  30.562  23.185   0.832
93998W        W57722  40.468  42.878  10.406
93999W        W57723  41.038  38.513   4.121
94000W        W57724  24.686  27.668  10.126
94001W        W57725  16.636  12.767   1.750
94002W        W57726  19.776  33.940   4.157
94003W        W57727  23.724   9.676   0.248
94004W        W57728   3.256  35.003   1.213
94005W        W57729  39.989   1.338   0.874
94006W        W57730  40.820  17.103   3.183
94007W        W57731  14.634  14.206  14.853
94008W        W57732  41.504  43.289  14.025
94009W        W57733  31.130   4.260  13.477
94010W        W57734  40.415  39.935   3.373
94011W        W57735   3.753   5.432   2.191
94012W        W57736  30.975  41.984  14.285
94013W        W57737  42.455   1.835   1.297
94014W        W57738  28.596  23.658  11.060
94015W        W57739   5.309  24.124  12.402
94016W        W57740  12.203  25.039   0.353
94017W        W57741  18.673  40.444   4.241
94018W        W57742  34.515  39.863   3.178
94019W        W57743   6.245  20.717   3.667
94020W        W57744   1.817  37.412  14.476
94021W        W57745  10.306   8.292   1.849
94022W        W57746  37.027  21.689   1.868
94023W        W57747  33.393   2.253   4.772
94024W        W57748   1.887  31.112  14.925
94025W        W57749  20.723  42.482  14.793
94026W        W57750  12.694  44.346  13.046
94027W        W57751  34.467  13.306  11.408
94028W        W57752  28.051  41.975  12.474
94029W        W57753   3.319  27.662   3.218
94030W        W57754  40.546   7.268   4.293
94031W        W57755  12.727  13.670   1.227
94032W        W57756   4.208  40.884   0.348
94033W        W57757  16.630  36.068  14.968
94034W        W57758   2.923  17.263  10.618
94035W        W57759  19.220  21.217  14.845
94036W        W57760  33.981  28.468   4.831
94037W        W57761  21.161  39.430  12.369
94038W        W57762   1.473  29.123  12.080
94039W        W57763  33.906  39.856  11.525
94040W        W57764   3.437  10.868  11.525
94041W        W57765  28.596  18.286  14.984
94042W        W57766   0.327  23.088  12.557
94043W        W57767  34.958  14.596   2.299
94044W        W57768  41.969   7.280   0.870
94045W        W57769  14.215  18.179  10.642
94046W        W57770  25.542   8.330  11.061
94047W        W57771  38.924  25.019  12.464
94048W        W57772  12.829   7.187  13.453
94049W        W57773  43.306   9.676   0.772
94050W        W57774  25.479  39.995  10.945
94051W        W57775  34.548   5.421   1.731
94052W        W57776   4.807  42.330   2.268
94053W        W57777  42.516  10.738  13.399
94054W        W57778  16.077  34.416  14.810
94055W        W57779  43.021  32.402  11.608
94056W        W57780   3.232   6.387   0.292
94057W        W57781   8.220  31.552  12.850
94058W        W57782  44.476  16.207   1.305
94059W        W57783  40.398   5.215  10.894
94060W        W57784  37.576  17.287   5.102
94061W        W57785  18.228  28.627   4.806
94062W        W57786  19.280  44.862  11.908
94063W        W57787  29.531  11.149  10.025
94064W        W57788  41.310  22.237  12.009
94065W        W57789  36.030  27.602   2.328
94066W        W57790  21.722  19.564   4.347
94067W        W57791  41.795  33.448   5.314
94068W        W57792  28.098  40.372   2.241
94069W        W57793  33.883   6.698  11.414
94070W        W57794  12.188  36.588  10.998
94071W        W57795   1.360  35.479   3.631
94072W        W57796  20.550  31.567   2.396
94073W        W57797  39.524  30.624   4.255
94074W        W57798  24.696  31.455   2.320
94075W        W57799   6.721  19.274   1.345
94076W        W57800  14.780   9.176  14.984
94077W        W57801  12.830  22.504   3.339
94078W        W57802   5.801  39.515   1.709
94079W        W57803  19.706  11.259  14.500
94080W        W57804  23.081  34.485  13.945
94081W        W57805  37.426  15.201  14.897
94082W        W57806  34.045  28.508  13.484
94083W        W57807   6.854  40.463   4.768
94084W        W57808  25.522   8.658  12.555
94085W        W57809  26.583   9.778   3.263
94086W        W57810  14.671  32.912  12.858
94087W        W57811  40.965  13.219  14.900
94088W        W57812   0.824  34.610   1.332
94089W        W57813  14.158  22.068   1.776
94090W        W57814  24.994  43.801  10.939
94091W        W57815  42.292  19.581   5.213
94092W        W57816  32.018  39.408   3.826
94093W        W57817   4.913   0.276  10.518
94094W        W57818  44.776   6.237  12.402
94095W        W57819  41.894  18.288  13.530
94096W        W57820  41.913  18.600  12.866
94097W        W57821  13.618  34.548   4.159
94098W        W57822  39.883   4.841  12.456
94099W        W57823  24.104  29.965   3.653
94100W        W57824  12.678  32.439  10.937
94101W        W57825   9.391  41.004  14.962
94102W        W57826  16.265   3.363   1.862
94103W        W57827  28.986  31.980   1.873
94104W        W57828   9.699  37.031   4.285
94105W        W57829  37.890   6.297  12.368
94106W        W57830   0.883  26.479  12.070
94107W        W57831  20.717  31.552   3.788
94108W        W57832   5.868  11.866   0.791
94109W        W57833  10.836  16.105   2.685
94110W        W57834  29.622  38.914   1.885
94111W        W57835  14.820   4.918   4.171
94112W        W57836   9.826   1.934   2.853
94113W        W57837  13.173  41.446  10.635
94114W        W57838  30.961  11.722  11.511
94115W        W57839  19.209  19.274   2.314
94116W        W57840  15.708  29.097  11.977
94117W        W57841   2.811  10.296  11.376
94118W        W57842  33.122  32.519   4.343
94119W        W57843  30.910  36.998  12.376
94120W        W57844   0.801   9.794   0.875
94121W        W57845  43.814  12.703  13.354
94122W        W57846  31.561  40.444  11.557
94123W        W57847  41.352  34.605  12.531
94124W        W57848  24.029  34.483  14.515
94125W        W57849   7.776  35.110  14.415
94126W        W57850  40.799  19.765  11.395
94127W        W57851  42.349   8.314   4.653
94128W        W57852   9.365  43.923   1.731
94129W        W57853  19.567  11.638   4.196
94130W        W57854   5.775  33.933  10.999
94131W        W57855  21.531  41.877  11.549
94132W        W57856   0.980  12.735   2.418
94133W        W57857   0.938   2.852   4.664
94134W        W57858   3.296  22.531  13.399
94135W        W57859   9.699  41.923   0.960
94136W        W57860   9.324  44.484  12.478
94137W        W57861  23.553  38.473  11.490
94138W        W57862  34.595   7.332   3.160
94139W        W57863  39.846  31.406  13.396
94140W        W57864   5.918  39.019  10.604
94141W        W57865   1.811  39.532   1.759
94142W        W57866  31.487  17.743   1.825
94143W        W57867  25.538  27.102   0.790
94144W        W57868  30.126  12.664  13.349
94145W        W57869  26.092  44.342   1.431
94146W        W57870  31.149  34.892  14.878
94147W        W57871   4.429  28.002   4.793
94148W        W57872   9.265  41.485   0.425
94149W        W57873  29.577  30.057   0.905
94150W        W57874  27.549  19.185   0.287
94151W        W57875  21.735   5.268  13.029
94152W        W57876  16.570  42.470  14.310
94153W        W57877  10.724   4.830   3.773
94154W        W57878  34.998  39.988   3.806
94155W        W57879   7.385   3.777  14.913
94156W        W57880  22.740  31.905  11.124
94157W        W57881  27.685  23.989  10.555
94158W        W57882  14.739  14.174   2.311
94159W        W57883  13.193  13.701  11.446
94160W        W57884  29.424  33.908   3.347
94161W        W57885  21.546  27.688   1.706
94162W        W57886   5.234  13.827  13.059
94163W        W57887  24.724  31.914   5.145
94164W        W57888  11.809  22.637  14.390
94165W        W57889   1.896  23.660   4.773
94166W        W57890  33.519  28.122  12.388
94167W        W57891  34.585   5.837  11.549
94168W        W57892  21.223   0.763   3.826
94169W        W57893  25.694  35.418  13.031
94170W        W57894  28.664  17.758  14.929
94171W        W57895  16.593  10.665  10.529
94172W        W57896   0.271  34.962   1.734
94173W        W57897  14.111   4.894   2.871
94174W        W57898  17.705  29.475  13.913
94175W        W57899  31.072  38.558  12.548
94176W        W57900   7.284   1.258  14.356
94177W        W57901  19.684  39.548  12.412
94178W        W57902  32.133  29.920  12.071
94179W        W57903  38.436  15.597  11.424
94180W        W57904  29.441  44.271  11.994
94181W        W57905  34.085   7.337  11.477
94182W        W57906  32.490   1.782  12.553
94183W        W57907  12.830  20.132  12.344
94184W        W57908  44.972  30.065   4.354
94185W        W57909  39.867  18.203   4.336
94186W        W57910   3.310  16.621   3.641
94187W        W57911   8.827  23.136   1.361
94188W        W57912  33.975  38.481  14.484
94189W        W57913  27.623  14.690   1.309
94190W        W57914  21.656  24.070   1.394
94191W        W57915  39.458   0.810  12.066
94192W        W57916   9.689   4.871   0.961
94193W        W57917  43.415  10.654   1.294
94194W        W57918  13.659  29.116   2.797
94195W        W57919   7.379  37.396   4.671
94196W        W57920  31.087  44.839   0.361
94197W        W57921  40.437   0.876  10.957
94198W        W57922  29.007  40.921  14.897
94199W        W57923   8.395  33.392   3.713
94200W        W57924  24.485  35.951  11.064
94201W        W57925  11.806  12.196  14.765
94202W        W57926  13.632  18.082   4.154
94203W        W57927   1.318  37.422  12.577
94204W        W57928  15.250  12.636  13.899
94205W        W57929  33.477  32.495   2.718
94206W        W57930  26.573  21.032  12.959
94207W        W57931  22.189  17.616   0.845
94208W        W57932  39.496  18.108   4.144
94209W        W57933  22.673  18.599  13.542
94210W        W57934   4.728  40.892  14.299
94211W        W57935  12.257   0.400   3.814
94212W        W57936  22.128  37.535  12.501
94213W        W57937   0.463   9.227  11.978
94214W        W57938  41.872  10.145  12.393
94215W        W57939  39.827  24.517  13.529
94216W        W57940  12.251   2.888  11.398
94217W        W57941  29.084  39.437  12.824
94218W        W57942   4.302  26.697   4.310
94219W        W57943  17.066  15.585   4.315
94220W        W57944  27.051  40.022   4.802
94221W        W57945   6.867  36.933  14.983
94222W        W57946  41.968  18.549  10.522
94223W        W57947  25.206   0.424  11.574
94224W        W57948   1.257  36.096  14.412
94225W        W57949  29.997  33.439   3.635
94226W        W57950   4.260   8.784   3.336
94227W        W57951  20.114  12.635   1.433
94228W        W57952  39.331  26.610   1.928
94229W        W57953  25.493   3.877  10.948
94230W        W57954  31.549  26.118  12.547
94231W        W57955  39.424  21.544  12.841
94232W        W57956   6.722  44.887  12.476
94233W        W57957  38.536   0.450  12.906
94234W        W57958  34.594   4.432   2.851
94235W        W57959   4.357  44.965  11.114
94236W        W57960  34.488   6.232   2.826
94237W        W57961   5.848  44.008  12.839
94238W        W57962   1.745  14.757  11.600
94239W        W57963  22.657  25.045  13.501
94240W        W57964  21.520  14.166   3.796
94241W        W57965  20.661  42.886   3.680
94242W        W57966  39.841  31.437  14.414
94243W        W57967  27.468  15.213   4.681
94244W        W57968  13.285  24.191  10.432
94245W        W57969   9.274  30.029   4.309
94246W        W57970  39.999  18.681  13.877
94247W        W57971  28.544  11.661  11.599
94248W        W57972  39.467  40.425   2.893
94249W        W57973  38.971   2.470  13.027
94250W        W57974  39.960  23.204   0.275
94251W        W57975  18.739  27.621   2.717
94252W        W57976  14.800   2.933  13.923
94253W        W57977  41.380   6.268  11.942
94254W        W57978  28.945  17.231  10.450
94255W        W57979  26.164  13.297   0.338
94256W        W57980   6.816   8.398   1.915
94257W        W57981   1.829  11.128  13.504
94258W        W57982  32.895  24.994  14.401
94259W        W57983  24.613  22.695   4.687
94260W        W57984  23.500  14.684  12.369
94261W        W57985  43.356   4.703  13.972
94262W        W57986  29.111  32.517  12.981
94263W        W57987  28.939   6.848   3.694
94264W        W57988  34.872  11.340  13.355
94265W        W57989  23.635   7.313  12.872
94266W        W57990  42.896   3.344   3.218
94267W        W57991  27.487  20.765   2.358
94268W        W57992  32.005  33.010   2.835
94269W        W57993   8.882   4.826  13.420
94270W        W57994   8.390   1.783   3.870
94271W        W57995  29.559  37.387   1.356
94272W        W57996  24.723  31.577   5.210
94273W        W57997  40.458  39.006   4.117
94274W        W57998  38.889   9.863  13.839
94275W        W57999   9.178   0.459   3.697
94276W        W58000  14.197  40.372   5.228
94277W        W58001  24.006   2.830  10.422
94278W        W58002  25.481  26.534   3.662
94279W        W58003  21.747  24.689   2.229
94280W        W58004   4.275  27.599   2.290
94281W        W58005  16.617  16.275  10.479
94282W        W58006  43.445   3.951  14.890
94283W        W58007  14.245  23.710  13.060
94284W        W58008   4.333  14.249   0.885
94285W        W58009   7.766  21.726   4.747
94286W        W58010  20.591  29.142  14.275
94287W        W58011  30.985  13.798  13.950
94288W        W58012  19.124  36.493   3.643
94289W        W58013  18.748  26.069  14.457
94290W        W58014   2.331  17.635  13.507
94291W        W58015  27.495  35.585   2.844
94292W        W58016  27.987  26.493   4.704
94293W        W58017  25.977  11.806   4.344
94294W        W58018  26.594  25.117  14.964
94295W        W58019  41.924   4.924   2.390
94296W        W58020  18.674  13.118   5.700
94297W        W58021  36.940  22.711  11.077
94298W        W58022   2.951  15.244   1.241
94299W        W58023  41.931  43.836  11.383
94300W        W58024  12.136   8.337   2.260
94301W        W58025  10.827  37.999  14.302
94302W        W58026  36.469  20.206  14.785
94303W        W58027   3.792  20.176  14.421
94304W        W58028  20.752  40.894  11.518
94305W        W58029  17.247   1.860  14.351
94306W        W58030  29.425   4.727   5.214
94307W        W58031  13.834  26.118  10.639
94308W        W58032  38.465   3.768  14.307
94309W        W58033  27.995  35.590   2.237
94310W        W58034  41.377  24.569  12.926
94311W        W58035  10.688  29.448  11.381
94312W        W58036  22.584  37.036  11.991
94313W        W58037   2.867  12.808  11.861
94314W        W58038  37.427  11.353   1.297
94315W        W58039  34.561  28.185   3.293
94316W        W58040  12.673  11.299   2.900
94317W        W58041  17.604  13.832   4.753
94318W        W58042  13.655  14.134  13.057
94319W        W58043   5.693  16.263  10.926
94320W        W58044  28.019   0.955  12.861
94321W        W58045  11.191  26.527   0.292
94322W        W58046   1.932  16.591  13.052
94323W        W58047  39.020  12.341  10.972
94324W        W58048  18.636  37.876   3.677
94325W        W58049  41.503  27.684   4.838
94326W        W58050  16.123   2.313   0.936
94327W        W58051   6.182  35.366   1.860
94328W        W58052  37.343  33.998   4.611
94329W        W58053   0.901  37.065   2.675
94330W        W58054  32.113  42.418  11.087
94331W        W58055  23.066  18.698   1.232
94332W        W58056  21.737  20.542   0.727
94333W        W58057  22.606   9.700  10.594
94334W        W58058  10.874  28.681   0.766
94335W        W58059  10.249  15.171  12.960
94336W        W58060  19.095  10.869   4.252
94337W        W58061  30.964  21.031   5.270
94338W        W58062  31.081   3.304  13.848
94339W        W58063  19.142  26.054  13.818
94340W        W58064  12.233   8.838   3.333
94341W        W58065  44.795  35.972   0.962
94342W        W58066  34.418  37.036  10.558
94343W        W58067   1.893   4.838   2.807
94344W        W58068  30.413  37.920  10.518
94345W        W58069   6.879  39.915  11.939
94346W        W58070  35.058  24.171   0.388
94347W        W58071  16.597  27.667  13.410
94348W        W58072   7.839  18.749   3.360
94349W        W58073  23.995   4.442  13.516
94350W        W58074  40.389   5.769   2.255
94351W        W58075  29.538   7.190   2.383
94352W        W58076  11.259  13.147   4.710
94353W        W58077  29.467   6.747  13.818
94354W        W58078  43.329   5.414   3.800
94355W        W58079  13.223  12.254  11.930
94356W        W58080   0.296  32.993   4.114
94357W        W58081  21.052  13.288   3.676
94358W        W58082   3.895  17.168  12.354
94359W        W58083  13.260   0.756  13.354
94360W        W58084  19.041  10.358   1.232
94361W        W58085  40.817   4.278   3.206
94362W        W58086  29.442  36.583  13.991
94363W        W58087  31.591   8.352  12.006
94364W        W58088  15.313  40.444   4.195
94365W        W58089  37.359  43.410   1.212
94366W        W58090   2.232  37.998  12.432
94367W        W58091   3.313  32.025   2.855
94368W        W58092  34.102  16.759   1.329
94369W        W58093  36.475  19.039  14.452
94370W        W58094  10.227   6.185   0.264
94371W        W58095  35.420  40.361   2.710
94372W        W58096  44.912   2.365  11.984
94373W        W58097   4.299   3.397  11.092
94374W        W58098  13.654  39.488   1.894
94375W        W58099   7.305   8.284   4.730
94376W        W58100  36.886  43.458   1.908
94377W        W58101  19.040  38.517   3.692
94378W        W58102  13.347  19.725   3.811
94379W        W58103   3.320   9.261   2.850
94380W        W58104  33.568   5.337  14.830
94381W        W58105  36.991  43.479  13.832
94382W        W58106  21.055  44.328   2.684
94383W        W58107   3.910  42.886   0.423
94384W        W58108   7.401  25.477  14.401
94385W        W58109   1.482  37.568   4.314
94386W        W58110  38.429  33.582   0.460
94387W        W58111  17.697  27.062   1.280
94388W        W58112  42.953  38.014   4.801
94389W        W58113  32.072  30.484   0.351
94390W        W58114  44.460  24.086  10.912
94391W        W58115  39.540   0.874   2.865
94392W        W58116  41.354  19.614   2.876
94393W        W58117  14.169  35.082  10.446
94394W        W58118  11.719   3.332  12.994
94395W        W58119  25.212  40.482   1.803
94396W        W58120  22.688   2.942  13.477
94397W        W58121  10.225  43.286   3.829
94398W        W58122  20.149  40.917  12.854
94399W        W58123  11.304   6.732  11.436
94400W        W58124  16.725   3.235   0.370
94401W        W58125  28.067  31.544   4.267
94402W        W58126  21.161  18.764  14.292
94403W        W58127  31.091   9.860   4.203
94404W        W58128  44.778  25.643  10.417
94405W        W58129  21.133   4.734  11.476
94406W        W58130  44.986  15.771   2.824
94407W        W58131  41.390  32.605   1.289
94408W        W58132  13.821  14.663   0.365
94409W        W58133  17.698  13.142   0.430
94410W        W58134  10.768  18.553  14.007
94411W        W58135  43.358  35.901  14.305
94412W        W58136  37.892  10.334  10.975
94413W        W58137   0.290  26.174   1.701
94414W        W58138  11.160  23.535  13.013
94415W        W58139  36.020  10.152   2.283
94416W        W58140  41.474  17.785   1.326
94417W        W58141  25.184  39.518  13.835
94418W        W58142  40.884  17.622  14.436
94419W        W58143  37.379  39.925  11.539
94420W        W58144   4.807  27.089   0.939
94421W        W58145  30.421   3.887  13.021
94422W        W58146  30.128   7.270   1.879
94423W        W58147   1.961  29.079   0.766
94424W        W58148   1.939  20.748  12.384
94425W        W58149  29.594  22.624   5.285
94426W        W58150  22.660  29.990   0.747
94427W        W58151  33.560   0.473  13.500
94428W        W58152  40.981   2.860   2.412
94429W        W58153  29.601  15.232   4.658
94430W        W58154  32.040  44.274   4.735
94431W        W58155  41.981  10.808  11.050
94432W        W58156  16.099  21.047   2.795
94433W        W58157   5.797  35.550   0.307
94434W        W58158  27.980  25.470   3.352
94435W        W58159  35.871  40.347  11.050
94436W        W58160  32.401  35.073  11.884
94437W        W58161  24.223  21.603   3.713
94438W        W58162  10.165  39.918   1.260
94439W        W58163  26.048  20.081  13.532
94440W        W58164   7.730  43.488   3.847
94441W        W58165  18.657  31.508   4.604
94442W        W58166  16.715  23.227  12.354
94443W        W58167  36.940  33.542  13.817
94444W        W58168  25.972   2.838   2.744
94445W        W58169  14.710   0.451  13.318
94446W        W58170  37.481  34.463  11.986
94447W        W58171  18.233  27.534  14.856
94448W        W58172  44.868   5.752  10.978
94449W        W58173  10.696  36.559  11.861
94450W        W58174  13.324  21.209   5.162
94451W        W58175  36.062   8.335   2.356
94452W        W58176  23.519  33.913  15.000
94453W        W58177   6.214   4.794   5.154
94454W        W58178  16.249   3.367   4.787
94455W        W58179   8.696  40.396  13.460
94456W        W58180  16.623  42.844  11.869
94457W        W58181  29.649  26.005   4.244
94458W        W58182   7.208   5.255  13.866
94459W        W58183  16.294  36.383  12.032
94460W        W58184  24.505  43.826   3.218
94461W        W58185   7.866  10.343  13.985
94462W        W58186  19.131  29.102  10.474
94463W        W58187  41.479  14.677  12.397
94464W        W58188  39.982   8.371   2.781
94465W        W58189  25.537  31.142  11.495
94466W        W58190   9.171  30.022   1.306
94467W        W58191   0.329   7.250  10.476
94468W        W58192  10.338   4.915  11.411
94469W        W58193   8.811  32.486   1.699
94470W        W58194  39.987   4.786  13.373
94471W        W58195  28.973   7.251  13.883
94472W        W58196  32.949  43.989  12.460
94473W        W58197   3.415  36.079  10.020
94474W        W58198   9.743  10.266  11.984
94475W        W58199  36.572   1.827  13.004
94476W        W58200  22.567  23.694  10.429
94477W        W58201  11.338  13.735   2.863
94478W        W58202   9.204   2.326  11.496
94479W        W58203  20.763  17.753  11.034
94480W        W58204  23.726  15.752   3.343
94481W        W58205  18.201   3.887   0.824
94482W        W58206  16.152  27.627  12.348
94483W        W58207  21.110  40.350   4.776
94484W        W58208  42.841  11.764   0.952
94485W        W58209  43.489  41.942   4.684
94486W        W58210  33.010  34.877  14.431
94487W        W58211  32.961  11.199   4.328
94488W        W58212  37.977   6.816  11.991
94489W        W58213  23.206  34.953   2.413
94490W        W58214   9.164  11.650  12.913
94491W        W58215  36.860   1.381   3.841
94492W        W58216  30.446   3.820  10.949
94493W        W58217  11.206   1.246  14.417
94494W        W58218   6.217  11.661   0.822
94495W        W58219  33.449  23.221   3.327
94496W        W58220  12.145  11.182   1.844
94497W        W58221  26.561  24.152   4.750
94498W        W58222  13.713  27.055  12.458
94499W        W58223  36.516  11.341  13.520
94500W        W58224   8.858  37.507  12.533
94501W        W58225  43.456  41.871   1.718
94502W        W58226  44.407  37.871   9.934
94503W        W58227  24.571   4.271   4.274
94504W        W58228  28.535   8.828  13.054
94505W        W58229  24.558  10.854  13.914
94506W        W58230   6.794   5.846   3.714
94507W        W58231  38.991  33.951   4.264
94508W        W58232  16.189  43.359  10.594
94509W        W58233  25.601  31.093   4.158
94510W        W58234   8.688  30.159   0.275
94511W        W58235  26.093  14.255  12.456
94512W        W58236   1.328   6.817   2.768
94513W        W58237   4.319  43.391  11.426
94514W        W58238  21.039   1.809   2.788
94515W        W58239  26.498  36.072   3.182
94516W        W58240  41.358  14.207   5.178
94517W        W58241   6.214  12.314   0.375
94518W        W58242  12.163  35.939  12.052
94519W        W58243  10.147   5.909   2.724
94520W        W58244  33.038  43.290   1.745
94521W        W58245  18.224  36.918  14.433
94522W        W58246  29.967  31.621  10.999
94523W        W58247   7.207  40.452  11.479
94524W        W58248  21.550  22.534  10.615
94525W        W58249  12.117   9.703  12.886
94526W        W58250  42.818   4.380   2.730
94527W        W58251  38.383  26.097   4.832
94528W        W58252  27.947  36.082   1.397
94529W        W58253  40.546  20.191  12.477
94530W        W58254  41.405   8.176  11.475
94531W        W58255  21.187  14.167   4.210
94532W        W58256   7.859  33.125  14.881
94533W        W58257  20.566  10.182  11.982
94534W        W58258  20.763   7.739  12.560
94535W        W58259   0.433  41.933   0.912
94536W        W58260  14.800   7.265  14.950
94537W        W58261  29.927  16.136  14.920
94538W        W58262   9.170  35.090   3.258
94539W        W58263  20.031  38.362  14.831
94540W        W58264  36.037  16.191  11.440
94541W        W58265  23.139  30.589   3.707
94542W        W58266   2.805   1.978   1.404
94543W        W58267   4.210   4.809   4.670
94544W        W58268  29.967  10.178   3.364
94545W        W58269   7.808  37.578   1.300
94546W        W58270  15.277  22.048   3.168
94547W        W58271   4.336  30.641  14.342
94548W        W58272  30.560  33.549   2.261
94549W        W58273  17.191   7.893   2.241
94550W        W58274  14.713  41.520   0.305
94551W        W58275   6.308  32.924  10.919
94552W        W58276  42.836  25.996  13.435
94553W        W58277   3.938   8.285   1.912
94554W        W58278  21.608  11.671   2.854
94555W        W58279  32.112  32.932  12.428
94556W        W58280  10.741  37.041  13.013
94557W        W58281  33.928   0.436  11.016
94558W        W58282  16.649  35.477   0.899
94559W        W58283   8.282   2.924  13.485
94560W        W58284  29.042  22.540  11.505
94561W        W58285  10.694   4.829  12.912
94562W        W58286  40.523  21.752   2.684
94563W        W58287  26.951  34.445  13.049
94564W        W58288  28.466  35.090   4.192
94565W        W58289  10.767  10.844  11.003
94566W        W58290  42.347  30.016   3.822
94567W        W58291  26.025  14.301  11.491
94568W        W58292  24.984  33.582   3.795
94569W        W58293  28.574   9.300  14.369
94570W        W58294  18.677  18.720  14.804
94571W        W58295  19.216  16.603  11.475
94572W        W58296  34.079  32.466   3.864
94573W        W58297  20.204  28.619  11.425
94574W        W58298   6.298  13.155   2.799
94575W        W58299  39.463  17.154   1.288
94576W        W58300  18.121  28.087   4.330
94577W        W58301  37.495  42.499   2.305
94578W        W58302  14.675  11.132   1.356
94579W        W58303  25.988  26.171   1.859
94580W        W58304   9.817  20.582  11.121
94581W        W58305  34.099  22.137  14.481
94582W        W58306   0.934  33.009  14.510
94583W        W58307  11.857  38.853  13.409
94584W        W58308  36.079  21.581   2.861
94585W        W58309  41.000  18.585  12.004
94586W        W58310  14.302  13.349   5.278
94587W        W58311  24.509  26.677  10.996
94588W        W58312  37.508  13.200   3.332
94589W        W58313  32.480  37.494  13.375
94590W        W58314  27.687  19.115   1.298
94591W        W58315  35.546  25.647  13.816
94592W        W58316  44.484  27.140   1.447
94593W        W58317  14.827   1.780  10.597
94594W        W58318  40.806  19.193   4.354
94595W        W58319  36.553  18.552  12.520
94596W        W58320  16.284  41.484   3.691
94597W        W58321  30.052   9.221  13.415
94598W        W58322   9.741   0.787  11.120
94599W        W58323  41.966  32.055  10.065
94600W        W58324  11.725  10.308   2.675
94601W        W58325  26.571  43.331  10.906
94602W        W58326  11.763   6.835  12.982
94603W        W58327  42.410  41.393  12.071
94604W        W58328  20.741  13.216  10.978
94605W        W58329   7.220  19.732  14.952
94606W        W58330  41.920  23.161  11.394
94607W        W58331  40.055  29.486  12.965
94608W        W58332  30.606  42.013   5.278
94609W        W58333   5.307   5.900   2.711
94610W        W58334  10.764  25.033  14.280
94611W        W58335  11.828  10.183  10.127
94612W        W58336  33.952  44.860   3.160
94613W        W58337   1.811  28.176  14.422
94614W        W58338  34.423   5.801  12.508
94615W        W58339  33.022  24.148   1.235
94616W        W58340  32.429  26.040  11.508
94617W        W58341  25.964  11.633   0.342
94618W        W58342   4.228  26.651  12.824
94619W        W58343  20.129  25.530   1.356
94620W        W58344   1.972  34.091   3.818
94621W        W58345  37.565  42.492   0.420
94622W        W58346  23.716  43.424  10.543
94623W        W58347  36.077   6.698  11.074
94624W        W58348   2.904  22.234   2.747
94625W        W58349  22.139  14.212  11.487
94626W        W58350  33.452  13.300   1.761
94627W        W58351   1.385  10.140  12.058
94628W        W58352  37.540  37.003   0.800
94629W        W58353   7.177  31.437   3.336
94630W        W58354   6.861   5.286   2.709
94631W        W58355  19.673  14.754  14.830
94632W        W58356  41.477   2.951  14.455
94633W        W58357  21.726   7.682   3.847
94634W        W58358  24.014  35.101   2.368
94635W        W58359  19.539  17.575   2.335
94636W        W58360  30.012  21.639   0.442
94637W        W58361  37.855  35.976   5.101
94638W        W58362  10.339  34.386   0.941
94639W        W58363  21.163  21.166   5.123
94640W        W58364  38.015   1.954   5.295
94641W        W58365  39.529   8.388   3.359
94642W        W58366   9.701  35.465  13.470
94643W        W58367  41.453  41.475  11.918
94644W        W58368  16.811  30.052  12.036
94645W        W58369   8.187  42.344   3.324
94646W        W58370  20.125   7.672   4.210
94647W        W58371  34.023  19.159   4.123
94648W        W58372  25.030   3.857   0.319
94649W        W58373  14.759  32.532  10.453
94650W        W58374  16.242  41.996   0.266
94651W        W58375  22.661  44.966   4.319
94652W        W58376   4.729   0.780   0.301
94653W        W58377   3.427  16.722   0.450
94654W        W58378   4.840  30.163  13.457
94655W        W58379  26.963   4.887  10.624
94656W        W58380  39.040  32.993  14.795
94657W        W58381  12.691  40.912   0.845
94658W        W58382  39.403  17.647  13.929
94659W        W58383   4.217  32.120   2.829
94660W        W58384  32.497  14.241  13.872
94661W        W58385  27.060  23.711   4.204
94662W        W58386  34.921  41.471  12.025
94663W        W58387  43.770  27.999   2.698
94664W        W58388  28.527  26.154   1.212
94665W        W58389  16.624  20.722   4.637
94666W        W58390  40.419   0.933  13.846
94667W        W58391  40.915  30.074  13.862
94668W        W58392  15.324  32.907   2.278
94669W        W58393  44.829  43.784  11.028
94670W        W58394   3.894  43.012  13.935
94671W        W58395   9.880  17.219  11.423
94672W        W58396   1.830  42.964  11.540
94673W        W58397   4.698  41.319  12.092
94674W        W58398  36.913   2.405   2.379
94675W        W58399  32.942  34.457   0.334
94676W        W58400  40.543   5.215   3.808
94677W        W58401  19.195  42.354  13.874
94678W        W58402  20.674  18.219  13.533
94679W        W58403  24.069   5.771  12.837
94680W        W58404  12.338   3.798  12.435
94681W        W58405  40.010  10.361   1.341
94682W        W58406  34.501   0.384  14.758
94683W        W58407  36.508  21.593  14.877
94684W        W58408  18.103  11.795   0.769
94685W        W58409  21.179  41.347  10.440
94686W        W58410  43.402   2.279   2.818
94687W        W58411   6.427  27.528   1.439
94688W        W58412  16.786   5.238  10.964
94689W        W58413  27.680  42.949  10.469
94690W        W58414  27.675  31.608   0.349
94691W        W58415  38.017  14.833   2.754
94692W        W58416  41.923  29.945  12.001
94693W        W58417  28.985  23.092  12.889
94694W        W58418  12.207   1.448  12.901
94695W        W58419  18.168  35.529   0.814
94696W        W58420  27.472   7.756  14.784
94697W        W58421  32.061  34.015   0.820
94698W        W58422  13.228   4.342   2.901
94699W        W58423  28.471  42.422   2.771
94700W        W58424   0.366   2.882   1.755
94701W        W58425  36.072  22.196  10.959
94702W        W58426  19.579   3.750   1.916
94703W        W58427   4.823  27.196   1.268
94704W        W58428  31.015  35.999   9.999
94705W        W58429  32.897   8.350   2.832
94706W        W58430  29.106  24.498   2.312
94707W        W58431  40.457  29.022  11.488
94708W        W58432  10.285  25.578  12.457
94709W        W58433  17.285  26.021  10.443
94710W        W58434  42.445   6.870  14.933
94711W        W58435  41.406   0.442   4.287
94712W        W58436  21.249  11.788  14.294
94713W        W58437  40.990  27.666  14.826
94714W        W58438  27.586  42.503   0.925
94715W        W58439  25.148  34.541  12.054
94716W        W58440  11.746  12.751  14.807
94717W        W58441  17.180  27.673   0.749
94718W        W58442   6.721   1.779   3.261
94719W        W58443  23.497   9.255  14.390
94720W        W58444  39.860  16.198   4.745
94721W        W58445  44.493  33.518  14.804
94722W        W58446   9.780  21.168   3.150
94723W        W58447   8.840   2.938  13.920
94724W        W58448  24.664  12.296  12.096
94725W        W58449  28.671  39.556  13.908
94726W        W58450   0.421  16.752   1.728
94727W        W58451   9.763  39.015   2.184
94728W        W58452   1.336  36.481   3.840
94729W        W58453  14.751   1.375  14.978
94730W        W58454  11.319   3.846   4.253
94731W        W58455   5.879  27.461  14.858
94732W        W58456   0.907   8.391   3.799
94733W        W58457   4.786   3.355  13.485
94734W        W58458  38.075  28.504   1.427
94735W        W58459  24.159  34.939  14.436
94736W        W58460  12.703  36.507  11.993
94737W        W58461   1.469  35.523   1.410
94738W        W58462  25.969  12.721  13.033
94739W        W58463  22.548  33.475   0.853
94740W        W58464  43.928  43.876   1.748
94741W        W58465  18.285  37.892  11.021
94742W        W58466  30.630  13.805  13.978
94743W        W58467  39.036  21.715   1.426
94744W        W58468  19.142  14.241   1.722
94745W        W58469  10.709  21.513  10.604
94746W        W58470  29.165  11.861   0.867
94747W        W58471   3.243   4.837  10.619
94748W        W58472  33.457  16.724  12.554
94749W        W58473  28.081   6.908  10.980
94750W        W58474  25.119   4.447  14.776
94751W        W58475  38.508   9.695  13.518
94752W        W58476  39.812  16.737   2.737
94753W        W58477  19.190   0.879   2.320
94754W        W58478  27.469   5.399  13.350
94755W        W58479  30.037   1.895  10.948
94756W        W58480  33.556  16.253  13.922
94757W        W58481  39.911   9.174  14.836
94758W        W58482  41.403   7.213   3.202
94759W        W58483  41.894  29.115  12.944
94760W        W58484  30.007  24.645   0.440
94761W        W58485  33.520   1.323   1.707
94762W        W58486  40.918  39.814   1.705
94763W        W58487  26.488  41.445   2.394
94764W        W58488  33.926  22.216  10.547
94765W        W58489   6.384  43.952   0.283
94766W        W58490   4.937  37.576  11.389
94767W        W58491  17.786  10.270  14.384
94768W        W58492  10.692  33.566   0.804
94769W        W58493   0.884  10.343   0.917
94770W        W58494  29.591  20.204  14.904
94771W        W58495  20.654   7.738  11.522
94772W        W58496  14.642   3.952   2.898
94773W        W58497   9.828   7.836  14.915
94774W        W58498  24.084   0.933   2.742
94775W        W58499  44.372  40.422   1.830
94776W        W58500  32.012  19.139   3.831
94777W        W58501  24.551  41.906   3.792
94778W        W58502  23.720  34.607  11.014
94779W        W58503  16.577  44.349   0.849
94780W        W58504  24.995  16.666   3.688
94781W        W58505  43.336   9.297   2.406
94782W        W58506  12.699  27.619  10.590
94783W        W58507   9.279  22.074  14.468
94784W        W58508  33.971  36.390   3.757
94785W        W58509  18.273  20.706  11.003
94786W        W58510  13.647  35.449   3.823
94787W        W58511  25.195  19.229  14.792
94788W        W58512  21.072  19.096  12.580
94789W        W58513  32.908  29.019   1.841
94790W        W58514  43.781  24.155  13.916
94791W        W58515  36.953  28.595   0.732
94792W        W58516  34.511   4.324  10.429
94793W        W58517   6.879  37.923   0.256
94794W        W58518  31.532   8.800   2.320
94795W        W58519  26.175  37.362   2.678
94796W        W58520   6.360  19.283  10.540
94797W        W58521  23.167  44.859  14.311
94798W        W58522  43.941   8.258  10.967
94799W        W58523  25.168  35.592  14.841
94800W        W58524   6.342  20.249   4.768
94801W        W58525  36.051  30.924   2.224
94802W        W58526  25.569  37.998  11.489
94803W        W58527   1.769  12.678   1.291
94804W        W58528  36.398  36.519  11.406
94805W        W58529  28.579  25.216   3.386
94806W        W58530   5.708  23.241   1.831
94807W        W58531   0.863   1.929   2.282
94808W        W58532  30.575   8.847   1.217
94809W        W58533  44.864   2.306   0.768
94810W        W58534  39.057  36.989  14.406
94811W        W58535   7.678  44.796  11.943
94812W        W58536  24.206  43.295   0.348
94813W        W58537   1.974   7.414   2.833
94814W        W58538  17.082  10.666   4.607
94815W        W58539  19.540  38.001  12.057
94816W        W58540  34.573  19.063   0.372
94817W        W58541  13.683  32.891  12.970
94818W        W58542   2.778  19.234  12.022
94819W        W58543  24.997  20.752   4.236
94820W        W58544  25.513  33.085   1.913
94821W        W58545  22.241  42.296  13.531
94822W        W58546  37.873  33.959   2.300
94823W        W58547  13.271  44.417  13.825
94824W        W58548  14.701  29.566   1.883
94825W        W58549   1.311  23.630  13.796
94826W        W58550  30.161  17.199  14.000
94827W        W58551  20.703  11.174  12.967
94828W        W58552  11.153  34.493  10.977
94829W        W58553   7.171  44.837  10.541
94830W        W58554  15.799  36.394   1.867
94831W        W58555  17.793  33.065  12.908
94832W        W58556  30.476  40.935  13.412
94833W        W58557   9.889   9.206  14.427
94834W        W58558  24.166   1.323   1.337
94835W        W58559  43.900   8.321  13.872
94836W        W58560  38.890  13.203  12.567
94837W        W58561  27.651   4.375  11.869
94838W        W58562  10.204  37.062   4.797
94839W        W58563  20.134   9.796  14.503
94840W        W58564  29.958  23.672   1.832
94841W        W58565  37.567  18.204   4.200
94842W        W58566  10.368   9.343   0.325
94843W        W58567  31.929  21.718   0.798
94844W        W58568  11.845  23.561   4.776
94845W        W58569  20.596  44.268  13.331
94846W        W58570  23.583  17.180   1.245
94847W        W58571  42.912  20.765   4.792
94848W        W58572   3.720  18.742   0.448
94849W        W58573  32.583  29.162   3.368
94850W        W58574  11.146   1.749  10.411
94851W        W58575  12.193   3.759   0.311
94852W        W58576   2.761  29.491  10.942
94853W        W58577  32.401  18.146   3.790
94854W        W58578  37.373  23.587  12.059
94855W        W58579  42.810  22.208   1.761
94856W        W58580   2.819  22.638   1.404
94857W        W58581   9.367  19.609   0.820
94858W        W58582  19.658  31.944   4.183
94859W        W58583  21.598   4.751   2.755
94860W        W58584  27.680  27.139  12.471
94861W        W58585  41.873   6.285  14.811
94862W        W58586  37.409  35.385   1.350
94863W        W58587  27.996  40.543  10.930
94864W        W58588  32.008  20.685   3.863
94865W        W58589   9.286  14.631  14.337
94866W        W58590  29.565  40.991   3.306
94867W        W58591  20.211  23.107  14.306
94868W        W58592  32.032  23.162   2.704
94869W        W58593  43.435  29.079   4.248
94870W        W58594  21.678  36.571  11.896
94871W        W58595  15.746  20.739   3.793
94872W        W58596   0.449  33.927   1.417
94873W        W58597  10.681  25.087   2.340
94874W        W58598   6.226  30.987   1.805
94875W        W58599  34.920   0.888   1.420
94876W        W58600  44.829  41.980  14.845
94877W        W58601  35.443   2.783   1.826
94878W        W58602   0.429  38.360  13.415
94879W        W58603   5.403  10.766   1.390
94880W        W58604  34.396   6.912   1.760
94881W        W58605  34.066  15.703   3.307
94882W        W58606   6.374   2.356  13.966
94883W        W58607  19.270  27.991   0.726
94884W        W58608   8.787  10.827  14.023
94885W        W58609   6.695  14.286  13.928
94886W        W58610  42.841   2.417   1.380
94887W        W58611  23.543  28.120   1.255
94888W        W58612  21.716  34.409   3.218
94889W        W58613  41.857  11.228  12.972
94890W        W58614  20.153  26.185   4.741
94891W        W58615   0.912  34.873  14.957
94892W        W58616  33.566  30.612  12.363
94893W        W58617  24.009  18.663  12.054
94894W        W58618  22.124  41.361   1.312
94895W        W58619  23.582   5.884   4.688
94896W        W58620  29.572  12.790  10.023
94897W        W58621  27.586   4.832   3.295
94898W        W58622   4.270  13.242   4.820
94899W        W58623  27.468  40.808  11.861
94900W        W58624   3.247  40.043  14.358
94901W        W58625  38.436  19.631   3.804
94902W        W58626  19.108  34.969  10.412
94903W        W58627  29.964  27.518  14.398
94904W        W58628  33.923  32.011  13.884
94905W        W58629  12.714  44.885   1.709
94906W        W58630  16.174  33.450  11.045
94907W        W58631  32.636  11.204   3.319
94908W        W58632   1.358  16.660   3.664
94909W        W58633  34.906  32.140   4.798
94910W        W58634  15.716  24.219   3.795
94911W        W58635  44.459  30.127  13.473
94912W        W58636  15.300  24.672   2.664
94913W        W58637  21.132  13.618   3.832
94914W        W58638   7.838  41.836   4.272
94915W        W58639  30.620  17.699  12.075
94916W        W58640   1.866  29.446  13.032
94917W        W58641   2.335  42.444   3.794
94918W        W58642  10.799  15.283   0.764
94919W        W58643  20.751  33.940   2.403
94920W        W58644   7.762  41.964   1.758
94921W        W58645  24.046  26.029   1.379
94922W        W58646  33.447  44.261   2.186
94923W        W58647   5.907  37.407  13.893
94924W        W58648  27.069  42.974   2.252
94925W        W58649  19.590  35.517   0.858
94926W        W58650  18.695  36.551   4.340
94927W        W58651  19.078   9.756  14.916
94928W        W58652  28.961  15.236  10.919
94929W        W58653  43.440  23.165  11.602
94930W        W58654  19.263  28.470  12.485
94931W        W58655  44.782  42.797  12.054
94932W        W58656   0.487  20.763  10.625
94933W        W58657   3.848   6.792   3.301
94934W        W58658  40.005   6.743   4.156
94935W        W58659  10.273  38.998  14.916
94936W        W58660  18.069   2.939   4.799
94937W        W58661   7.216  38.531   3.796
94938W        W58662  31.987  38.005   2.368
94939W        W58663  16.679  37.531   3.212
94940W        W58664  17.161   6.682  12.091
94941W        W58665   4.710  15.283  12.473
94942W        W58666  14.790  19.627  14.277
94943W        W58667  18.782   3.875  12.080
94944W        W58668  27.022  27.065   0.346
94945W        W58669  14.315  41.038   1.278
94946W        W58670  20.669   1.792  10.444
94947W        W58671   6.396   9.310   0.866
94948W        W58672  29.002   0.329  12.021
94949W        W58673  29.653  39.434   3.364
94950W        W58674  11.323  30.470   2.409
94951W        W58675  37.556  38.940  11.372
94952W        W58676  23.614  41.411  12.855
94953W        W58677  17.624  24.710   1.904
94954W        W58678   7.851  13.119   1.341
94955W        W58679  15.612  10.724   1.291
94956W        W58680  26.020   2.776  14.432
94957W        W58681  20.064  10.832  12.556
94958W        W58682   1.244  27.667  14.477
94959W        W58683  44.824  10.326   3.336
94960W        W58684  14.728  17.124  13.509
94961W        W58685  42.350  25.974  11.477
94962W        W58686  42.841  23.173   0.257
94963W        W58687   2.471   1.743   0.897
94964W        W58688  35.932  18.065   3.182
94965W        W58689   6.730  14.708   0.847
94966W        W58690  20.714  34.499  12.087
94967W        W58691  20.605  24.488   0.794
94968W        W58692  33.588  12.278   3.292
94969W        W58693   9.783  27.570  13.906
94970W        W58694   8.346   8.686   2.735
94971W        W58695   1.905   2.379  11.530
94972W        W58696   4.756  18.785   0.381
94973W        W58697  33.472   1.299  14.416
94974W        W58698  12.691   7.254  10.529
94975W        W58699  22.152  16.209   0.316
94976W        W58700  17.063  19.562  10.529
94977W        W58701  35.598  41.912  10.901
94978W        W58702  13.336  29.533   5.187
94979W        W58703  36.864  15.088   4.332
94980W        W58704  37.002  34.512   4.837
94981W        W58705  20.086  17.265   3.371
94982W        W58706  12.349  27.008  12.836
94983W        W58707   3.755  43.508   0.463
94984W        W58708  39.983  39.998  12.834
94985W        W58709  42.445  42.300  14.010
94986W        W58710  41.830  21.195   4.342
94987W        W58711  20.231   1.819   2.761
94988W        W58712  34.495  35.929   4.138
94989W        W58713  40.989  14.717  13.516
94990W        W58714  17.682  30.506  10.419
94991W        W58715  24.614   6.710  11.416
94992W        W58716  13.777  20.630  12.095
94993W        W58717  34.500  12.296  13.520
94994W        W58718  11.305  25.178   3.350
94995W        W58719  22.730  24.053   3.836
94996W        W58720  27.586  13.295   3.147
94997W        W58721   5.242  36.507   2.243
94998W        W58722  33.558  18.099  13.897
94999W        W58723  43.889  40.413  14.927
95000W        W58724  23.146  15.724  12.546
95001W        W58725   5.304  32.476  11.032
95002W        W58726   1.827  33.890   2.400
95003W        W58727   8.877  12.327   0.903
95004W        W58728  27.162  43.983  14.952
95005W        W58729  40.832  12.676  12.523
95006W        W58730  27.174  29.986  10.928
95007W        W58731  34.119  14.336   1.333
95008W        W58732  28.590   9.367  12.383
95009W        W58733  32.129  20.225   5.156
95010W        W58734  30.508  14.265  14.024
95011W        W58735   5.866  22.687  13.473
95012W        W58736  34.375  15.117   0.335
95013W        W58737  35.511   5.303   1.711
95014W        W58738  43.441  28.075   0.877
95015W        W58739  14.161   8.385   9.975
95016W        W58740  38.913  31.104   0.353
95017W        W58741   9.271   4.326  12.399
95018W        W58742   6.873  34.896  14.789
95019W        W58743  36.361  17.158  11.561
95020W        W58744  40.441  27.510   1.852
95021W        W58745  42.498   1.957  10.531
95022W        W58746  44.901  14.628   2.399
95023W        W58747  31.509  20.162   3.782
95024W        W58748  12.805  26.114   4.644
95025W        W58749  16.144  23.227   2.825
95026W        W58750  29.929  26.616  11.956
95027W        W58751  18.192  40.879  14.021
95028W        W58752  11.277  13.778   2.338
95029W        W58753  32.479   7.855   3.265
95030W        W58754   2.939  19.662   1.839
95031W        W58755  25.202  23.651   2.413
95032W        W58756  16.088  23.232   1.434
95033W        W58757   5.220  22.562  13.467
95034W        W58758  22.578   0.422  13.500
95035W        W58759  24.651  37.018  12.904
95036W        W58760  11.133  36.974   2.307
95037W        W58761  43.283  14.665   4.275
95038W        W58762  31.135   3.803  12.452
95039W        W58763  27.679   4.742  11.084
95040W        W58764   7.789  18.212   3.820
95041W        W58765  15.766   4.789  12.958
95042W        W58766  21.609  13.776   1.430
95043W        W58767  18.562  24.160  14.437
95044W        W58768  19.241  28.039  13.944
95045W        W58769   7.694   6.336   5.254
95046W        W58770  24.023  18.590  13.432
95047W        W58771  40.492  41.349   3.701
95048W        W58772  27.657  40.380   3.642
95049W        W58773  15.194   8.740  14.790
95050W        W58774  12.183  25.081   1.308
95051W        W58775  32.032  24.055   3.846
95052W        W58776  43.323  18.237  14.928
95053W        W58777  35.368  32.089   4.805
95054W        W58778  42.443  29.063   2.390
95055W        W58779  44.423   7.708   2.870
95056W        W58780  16.646   6.752   0.778
95057W        W58781   3.775  21.605   3.861
95058W        W58782  35.898  34.501   2.317
95059W        W58783  20.549  17.594  10.495
95060W        W58784  31.956  25.490  14.963
95061W        W58785  28.434  35.427   2.348
95062W        W58786  12.173  27.047   3.219
95063W        W58787  27.606  35.412  12.404
95064W        W58788  17.134  16.273   3.869
95065W        W58789   7.710  24.052   4.195
95066W        W58790  35.575  19.173   4.151
95067W        W58791   2.944  11.139  10.412
95068W        W58792   2.260  25.671  11.537
95069W        W58793  14.236  41.525   4.120
95070W        W58794  21.060  36.431  10.629
95071W        W58795  19.724   7.397   1.327
95072W        W58796  31.474  14.782  14.507
95073W        W58797  14.650  35.533  13.437
95074W        W58798  21.190  23.052   2.203
95075W        W58799   5.196  11.316   9.592
95076W        W58800   6.259   1.874   3.830
95077W        W58801  39.973  21.713  11.126
95078W        W58802  31.031  38.549   1.779
95079W        W58803  36.494  38.357  13.055
95080W        W58804  32.454   3.846   2.676
95081W        W58805   8.263  31.060   2.799
95082W        W58806   9.889   8.184   4.248
95083W        W58807  18.054  34.452  12.495
95084W        W58808   6.312  22.174  11.443
95085W        W58809  36.919  41.931   4.179
95086W        W58810  24.644  20.100   0.421
95087W        W58811  26.604  15.264  11.996
95088W        W58812  24.591  35.984  14.397
95089W        W58813   2.369   1.791  11.102
95090W        W58814  11.335  34.463   2.697
95091W        W58815   6.900  11.832  10.919
95092W        W58816  26.157  14.680   2.900
95093W        W58817   8.223  23.023   3.771
95094W        W58818  32.493  16.625   1.826
95095W        W58819  19.129  36.371   2.229
95096W        W58820  40.313  41.538  14.496
95097W        W58821   4.355  16.745  14.957
95098W        W58822  34.533   7.801   0.844
95099W        W58823   9.292  32.993  12.097
95100W        W58824  16.576  10.151  14.415
95101W        W58825  43.304  20.552  11.502
95102W        W58826  30.977  19.611   4.320
95103W        W58827  36.896  29.643  10.609
95104W        W58828  15.739  14.793  13.515
95105W        W58829  35.582   5.691   4.137
95106W        W58830   0.354  28.466   2.214
95107W        W58831  12.748  39.509  12.889
95108W        W58832  16.113  21.687  12.830
95109W        W58833  32.427  24.994   1.710
95110W        W58834  44.929  16.677   3.176
95111W        W58835  28.501  28.527   1.731
95112W        W58836  42.888   5.719   3.267
95113W        W58837  13.637   1.823   3.315
95114W        W58838  22.232  40.949  13.947
95115W        W58839  30.529  40.011   3.728
95116W        W58840  17.572  44.262   0.319
95117W        W58841  17.300  16.172  14.949
95118W        W58842  21.756  19.638  13.856
95119W        W58843  41.367  20.646   1.362
95120W        W58844  37.018  40.956   4.753
95121W        W58845  27.047  44.447  10.144
95122W        W58846  37.436  17.208  11.085
95123W        W58847  37.985  16.740  11.862
95124W        W58848  11.690   2.468   1.267
95125W        W58849  23.012   4.308   1.752
95126W        W58850  19.710  32.921   2.835
95127W        W58851   2.292  35.055   4.338
95128W        W58852   5.877  44.352   1.740
95129W        W58853  23.061  31.105  12.558
95130W        W58854  30.983   1.752  11.593
95131W        W58855  24.980  12.212  12.086
95132W        W58856  20.095   0.356  10.946
95133W        W58857  36.356  16.291  10.412
95134W        W58858  12.832  20.267  11.858
95135W        W58859  43.293  25.142  10.532
95136W        W58860  25.048  42.398  11.398
95137W        W58861  24.230   7.384   9.977
95138W        W58862  43.824  43.927   4.252
95139W        W58863  35.926  14.822  14.463
95140W        W58864  32.546  19.042   2.237
95141W        W58865  33.400  14.661  13.442
95142W        W58866  34.425  25.161   0.862
95143W        W58867   9.213  16.180   3.209
95144W        W58868  16.793  21.730  11.120
95145W        W58869  16.191  11.128  11.920
95146W        W58870   0.767  39.890   4.706
95147W        W58871   6.761  29.557  14.796
95148W        W58872  13.634  24.222   1.780
95149W        W58873  17.162  19.125   0.891
95150W        W58874   2.737  33.452   2.778
95151W        W58875   7.862  41.538   1.430
95152W        W58876  34.484  43.357  10.421
95153W        W58877  28.575  20.670  14.889
95154W        W58878  18.224  22.641   2.240
95155W        W58879  30.656   2.299   1.900
95156W        W58880  28.650  41.418  12.873
95157W        W58881  24.701   4.911   1.854
95158W        W58882  30.443  13.619  11.995
95159W        W58883  25.539   5.389  14.809
95160W        W58884  12.711  16.133   0.441
95161W        W58885  35.541  35.536   0.844
95162W        W58886  32.566  34.015  11.982
95163W        W58887  44.789  19.648  10.463
95164W        W58888  44.477  20.735  12.989
95165W        W58889   3.837  16.801   4.282
95166W        W58890  42.974  30.472   2.747
95167W        W58891  13.141  37.483  12.052
95168W        W58892  38.072  35.366  11.015
95169W        W58893  32.402  29.587   4.702
95170W        W58894  43.375  24.077  13.816
95171W        W58895  22.224  29.026  14.281
95172W        W58896  37.947  39.513   1.892
95173W        W58897  15.325  19.209  14.465
95174W        W58898  11.328   1.821  14.774
95175W        W58899  19.547  42.429   1.434
95176W        W58900  34.377  43.373   1.325
95177W        W58901  13.149  32.398   0.330
95178W        W58902  13.197  16.310  14.338
95179W        W58903  19.197  21.136   0.912
95180W        W58904  15.275  41.515   3.809
95181W        W58905  32.552   1.758   0.960
95182W        W58906   4.722  24.669   2.280
95183W        W58907  20.567  42.299  13.324
95184W        W58908  13.676   7.216  11.964
95185W        W58909  24.481  43.382   1.842
95186W        W58910  44.839  31.058   0.786
95187W        W58911  22.737  20.537   3.173
95188W        W58912  38.545  15.778   0.839
95189W        W58913  40.862  35.588   3.730
95190W        W58914  33.059  42.001  13.955
95191W        W58915  21.536  14.174  13.524
95192W        W58916  43.995  32.420  12.427
95193W        W58917   2.286   4.289   0.417
95194W        W58918  27.644  29.545   4.160
95195W        W58919  10.245  27.656   0.744
95196W        W58920   1.340  19.045  11.069
95197W        W58921  31.530  13.733  11.925
95198W        W58922  18.598  23.156   0.349
95199W        W58923  33.129  39.848  14.760
95200W        W58924  27.992  13.323  11.923
95201W        W58925   0.808  11.768  13.529
95202W        W58926  17.596  29.638  10.011
95203W        W58927  39.468   5.856   0.455
95204W        W58928   5.754  22.203   0.756
95205W        W58929  15.632  30.090  12.061
95206W        W58930  22.218   5.364  13.006
95207W        W58931  23.507  35.954   2.350
95208W        W58932  33.979  36.056  13.404
95209W        W58933  17.625  21.584  10.528
95210W        W58934  31.465  16.680   3.856
95211W        W58935   8.788  39.008  14.871
95212W        W58936  40.438  30.052   2.752
95213W        W58937  32.952  18.137  14.015
95214W        W58938  26.042  39.901   0.353
95215W        W58939   8.728   7.356   0.332
95216W        W58940  42.863   1.845   4.138
95217W        W58941  28.083  18.233  13.335
95218W        W58942  38.039  25.677   4.210
95219W        W58943  28.480  20.606  10.418
95220W        W58944   2.781  38.021   3.830
95221W        W58945  28.576   6.921   2.387
95222W        W58946  11.281   0.458  12.888
95223W        W58947  30.952   9.865  10.419
95224W        W58948  42.020  39.945  12.426
95225W        W58949  12.729  22.624   3.810
95226W        W58950   6.246  15.693  12.829
95227W        W58951  39.824  34.450  10.049
95228W        W58952   9.754  27.191  10.492
95229W        W58953  38.011   9.857   2.295
95230W        W58954  18.136  11.245   3.773
95231W        W58955  16.244  32.635   4.673
95232W        W58956  29.921  29.477   3.271
95233W        W58957  19.687  32.960  14.785
95234W        W58958   8.853   7.773   3.687
95235W        W58959  18.712  35.932  12.514
95236W        W58960  37.365  15.764  12.921
95237W        W58961   9.778  11.366   1.932
95238W        W58962   8.796   9.723   2.417
95239W        W58963  28.936  24.713   1.864
95240W        W58964  10.678   2.734   0.833
95241W        W58965  18.659   8.799   0.276
95242W        W58966  14.650  13.617  11.449
95243W        W58967  29.635  31.500   1.819
95244W        W58968  18.166  19.733   0.957
95245W        W58969  36.585  29.471  12.578
95246W        W58970  36.545  15.098   3.805
95247W        W58971  39.948  27.190  14.843
95248W        W58972  31.629   3.332  13.475
95249W        W58973  33.131  43.283   3.350
95250W        W58974  19.206   5.904  10.911
95251W        W58975   9.274  39.326   0.386
95252W        W58976   6.193  29.155   3.709
95253W        W58977  22.517  26.065  10.587
95254W        W58978  19.220  25.209   2.863
95255W        W58979  40.381  30.130   1.704
95256W        W58980   9.218  37.011  10.931
95257W        W58981  33.620  43.505   3.805
95258W        W58982  16.208  41.478  10.974
95259W        W58983  14.144  27.187  10.503
95260W        W58984  15.323   4.265  13.966
95261W        W58985  35.567  41.425  11.388
95262W        W58986  42.392  31.638   2.416
95263W        W58987  31.094  20.224  11.548
95264W        W58988  11.178  42.444  13.392
95265W        W58989  10.756  28.125  11.041
95266W        W58990   4.233  33.472  12.426
95267W        W58991  13.289  12.770  14.867
95268W        W58992  11.324  39.418   2.848
95269W        W58993  33.431  13.644  11.474
95270W        W58994  19.599  35.452  14.022
95271W        W58995  19.633  31.040  12.905
95272W        W58996  28.001  33.929  12.529
95273W        W58997  41.868  42.483  11.479
95274W        W58998  43.987  38.343   3.682
95275W        W58999  18.758   4.819  11.507
95276W        W59000  28.114  44.995   0.414
95277W        W59001  11.862  26.116  14.334
95278W        W59002  16.635  39.033   2.878
95279W        W59003  42.788  31.083  12.970
95280W        W59004   9.172   5.198  14.942
95281W        W59005  35.479   4.839   4.720
95282W        W59006  13.118  27.531   0.404
95283W        W59007  36.571  18.256  11.862
95284W        W59008  20.101  20.673   1.279
95285W        W59009   3.861   4.374  11.007
95286W        W59010   5.262   2.774   3.838
95287W        W59011   3.902   0.900   1.298
95288W        W59012  37.859  11.342   3.846
95289W        W59013  30.123  31.470   2.352
95290W        W59014  21.594  10.795  12.087
95291W        W59015  31.057  34.874   2.689
95292W        W59016   0.879  11.346  13.427
95293W        W59017  22.514   8.863  11.877
95294W        W59018  30.536  11.696  13.034
95295W        W59019   8.820  21.150  14.497
95296W        W59020  25.154  11.284   5.205
95297W        W59021  33.926   6.223   0.330
95298W        W59022  10.247   3.934  14.289
95299W        W59023  29.044   6.764   5.285
95300W        W59024   3.329   4.937  14.275
95301W        W59025  43.790  39.479   0.828
95302W        W59026  30.541   7.730  10.509
95303W        W59027  11.759  24.532  13.384
95304W        W59028  44.261   4.905  12.555
95305W        W59029   0.351   1.471   3.853
95306W        W59030  10.333  13.789   2.268
95307W        W59031  39.021   8.370  11.039
95308W        W59032  26.566  11.824  10.504
95309W        W59033  27.078  43.943  13.802
95310W        W59034  12.676   9.165   1.879
95311W        W59035  21.572  20.747   3.770
95312W        W59036  31.536  15.681   1.218
95313W        W59037  28.452  36.407   0.843
95314W        W59038  31.603   6.725   3.716
95315W        W59039  31.613  19.117  12.064
95316W        W59040  36.068  14.641  14.855
95317W        W59041  32.620  34.409   0.928
95318W        W59042   7.777  26.702   0.771
95319W        W59043  14.304   8.208   4.641
95320W        W59044  35.930  31.413  12.835
95321W        W59045  31.129  42.403  13.532
95322W        W59046  34.905  43.365   2.697
95323W        W59047   3.232  31.099  11.594
95324W        W59048   8.251  40.518  12.018
95325W        W59049  41.318  26.952   1.894
95326W        W59050  27.004   7.388   4.820
95327W        W59051  32.975  13.269  11.470
95328W        W59052  29.066  23.515  12.007
95329W        W59053  20.649  22.218  10.949
95330W        W59054  39.938  36.846   2.759
95331W        W59055  33.533  31.520   3.837
95332W        W59056  36.897  27.944   0.902
95333W        W59057  35.391  17.585  12.472
95334W        W59058  25.515  22.609  13.354
95335W        W59059   5.933  36.970   3.214
95336W        W59060   6.858  42.422   4.288
95337W        W59061  12.829  25.219   4.240
95338W        W59062  24.999  23.121   2.892
95339W        W59063  43.386  26.619  12.446
95340W        W59064  16.751  44.460   3.778
95341W        W59065  29.650  16.574   4.614
95342W        W59066   4.255  34.011  13.456
95343W        W59067  11.820  16.800   2.220
95344W        W59068   1.439  17.093   0.295
95345W        W59069  25.976  29.487  13.316
95346W        W59070  24.220  32.002   5.236
95347W        W59071  11.679  40.828   2.797
95348W        W59072  19.614   8.834   1.269
95349W        W59073  38.948  44.429   1.934
95350W        W59074  38.523   1.478  13.335
95351W        W59075  22.033  17.655  10.429
95352W        W59076  29.961   8.808  12.349
95353W        W59077  36.465  44.289   1.449
95354W        W59078  30.563   8.880  12.539
95355W        W59079  13.685  10.228  12.393
95356W        W59080   2.814  21.077  10.588
95357W        W59081  40.419  14.634   2.210
95358W        W59082  26.636  41.931   5.083
95359W        W59083  16.283  14.294   2.332
95360W        W59084  18.554  10.648  13.491
95361W        W59085   0.968  38.847   2.211
95362W        W59086   6.705   5.700  12.514
95363W        W59087  32.598   0.745  12.483
95364W        W59088   0.365  12.685   0.429
95365W        W59089  12.280  41.832   4.732
95366W        W59090   7.201  25.035  11.029
95367W        W59091  41.523  31.953   4.719
95368W        W59092  26.518  23.634   2.712
95369W        W59093  15.749  37.505  14.310
95370W        W59094  23.090  38.866   0.966
95371W        W59095  16.191  23.211  13.925
95372W        W59096  43.930  36.913  10.602
95373W        W59097  34.095  16.103  10.066
95374W        W59098   3.376  12.762  10.148
95375W        W59099  14.797  18.680  11.385
95376W        W59100  26.128  13.754   3.823
95377W        W59101  35.463  38.060   1.277
95378W        W59102  26.009  11.634   3.348
95379W        W59103  27.585   1.254   3.188
95380W        W59104   7.209  44.790   1.814
95381W        W59105  40.828   9.310   4.209
95382W        W59106  25.514  40.029   1.251
95383W        W59107  26.658  43.943   4.759
95384W        W59108  17.274  26.158  11.937
95385W        W59109  35.061  11.161   4.296
95386W        W59110  39.424  15.149   2.414
95387W        W59111   7.813  26.574   1.376
95388W        W59112  30.533  30.438  11.452
95389W        W59113  33.598  33.392  10.035
95390W        W59114   6.697  17.248  11.982
95391W        W59115   9.680  10.217  12.507
95392W        W59116   8.763  15.213   4.312
95393W        W59117  11.139   4.873  11.059
95394W        W59118  25.712  38.037  12.486
95395W        W59119  43.399  20.085  10.531
95396W        W59120  24.067  32.975  14.375
95397W        W59121  35.480   1.756  12.510
95398W        W59122   7.366  21.651  10.970
95399W        W59123  23.057  28.173   3.664
95400W        W59124  22.706  37.002  14.510
95401W        W59125   5.917  26.677  10.027
95402W        W59126  31.436  11.743  12.557
95403W        W59127  34.014  20.533   4.198
95404W        W59128   8.852  14.700  14.463
95405W        W59129  31.107  15.133   1.433
95406W        W59130  42.018  38.951   3.188
95407W        W59131  43.432  35.931   5.268
95408W        W59132   5.816   4.252  13.487
95409W        W59133  21.118  15.300   1.784
95410W        W59134   5.866  35.064  12.919
95411W        W59135  28.979  25.130  14.773
95412W        W59136  35.389  21.557  13.490
95413W        W59137  23.662  35.514   2.713
95414W        W59138  28.953  33.508   0.315
95415W        W59139  15.721   2.761   3.698
95416W        W59140  11.154   9.394  10.602
95417W        W59141  16.733  18.096  12.941
95418W        W59142  17.253  23.207   1.929
95419W        W59143  44.503   9.836  12.465
95420W        W59144  39.841   3.931  11.602
95421W        W59145  44.002  26.975  14.460
95422W        W59146   8.285  20.638  12.959
95423W        W59147  34.549  33.931  12.510
95424W        W59148  11.676  20.624  11.449
95425W        W59149  41.921   0.411  14.504
95426W        W59150  10.802  31.018  12.385
95427W        W59151   8.339  14.672   1.331
95428W        W59152  36.886  12.189   2.179
95429W        W59153  15.266   1.870   0.777
95430W        W59154  24.531   4.318   0.243
95431W        W59155  17.239   7.407  12.886
95432W        W59156  10.384   9.791   2.776
95433W        W59157  21.565   9.807  13.495
95434W        W59158  29.665  28.076  14.979
95435W        W59159  10.381  44.303  14.862
95436W        W59160  42.910  43.313  14.922
95437W        W59161   3.257  36.429  10.607
95438W        W59162  42.983  18.787   1.368
95439W        W59163  29.923  23.223  13.805
95440W        W59164  31.060  38.514   3.688
95441W        W59165   2.230  35.588   4.275
95442W        W59166  38.335  19.162   1.237
95443W        W59167  35.395  35.455   4.271
95444W        W59168  32.456  34.965  10.130
95445W        W59169  35.589   3.741   0.940
95446W        W59170  34.467  39.407  12.425
95447W        W59171  32.982   7.835  12.504
95448W        W59172  37.057  15.314   5.242
95449W        W59173   2.374  19.625   1.402
95450W        W59174  12.612  21.677   1.413
95451W        W59175  24.605   9.343   4.746
95452W        W59176   6.335  26.553  13.938
95453W        W59177  30.109  43.814  12.010
95454W        W59178  30.652   8.807   0.257
95455W        W59179  22.738  19.745  14.497
95456W        W59180  25.565   0.925   4.604
95457W        W59181  27.195  38.072   2.229
95458W        W59182   2.873   9.275   1.288
95459W        W59183   1.262   4.935   2.291
95460W        W59184  32.607  33.380  14.031
95461W        W59185   6.236  39.357   4.649
95462W        W59186  31.938  21.229   1.770
95463W        W59187  29.930   6.749   3.683
95464W        W59188  37.928  41.924   1.795
95465W        W59189  19.145  13.313   2.226
95466W        W59190   7.869  27.690   2.837
95467W        W59191   6.321   6.819  10.029
95468W        W59192  14.281   2.417  11.463
95469W        W59193  26.648   8.686   1.845
95470W        W59194  36.581  12.835  10.440
95471W        W59195  24.067  19.228  13.022
95472W        W59196  39.877  35.464  12.050
95473W        W59197   1.900  15.153   1.286
95474W        W59198   5.435  41.478   4.228
95475W        W59199  42.021   8.201  14.766
95476W        W59200   2.259  18.176  14.482
95477W        W59201  18.194   3.218  12.093
95478W        W59202  43.326  18.674   2.804
95479W        W59203  20.207  21.739  10.477
95480W        W59204  17.645  14.220   0.296
95481W        W59205  23.674   6.204   3.279
95482W        W59206  43.989   4.392   0.329
95483W        W59207  13.664  19.118  14.347
95484W        W59208   2.722  38.546  11.914
95485W        W59209  27.020   5.797  12.487
95486W        W59210  43.899  27.020   4.707
95487W        W59211   6.385  10.337   5.172
95488W        W59212  17.722  32.632   4.794
95489W        W59213  39.461  31.479  13.473
95490W        W59214  23.107  16.797  12.022
95491W        W59215  41.863  16.209   4.315
95492W        W59216   5.852  19.634  12.976
95493W        W59217  32.466  29.008   0.346
95494W        W59218  33.959  13.299   1.347
95495W        W59219  44.346  16.114   3.828
95496W        W59220   9.286  14.284   2.298
95497W        W59221  21.623  27.070  12.418
95498W        W59222  15.172  22.592  11.566
95499W        W59223   5.799  21.104  12.511
95500W        W59224  29.595  22.172   2.386
95501W        W59225  21.731   5.252  14.373
95502W        W59226   8.873  16.073  12.875
95503W        W59227   4.918   9.338   0.457
95504W        W59228  43.361  24.149   4.282
95505W        W59229   4.935  40.511   2.705
95506W        W59230  29.466  14.246  12.942
95507W        W59231   5.215   7.214   4.748
95508W        W59232  43.368  36.584   3.680
95509W        W59233  16.116  15.763  14.391
95510W        W59234  43.342   3.719   2.755
95511W        W59235  34.956  21.117   4.288
95512W        W59236  14.191  40.011  13.544
95513W        W59237  19.539  21.194   0.908
95514W        W59238   2.275   6.916  14.476
95515W        W59239  34.482  10.659   2.387
95516W        W59240  37.869  15.161  12.016
95517W        W59241  34.903  29.655  13.001
95518W        W59242   0.801   1.431  14.904
95519W        W59243   1.453  20.117  13.330
95520W        W59244  35.504  23.030   2.807
95521W        W59245  34.092  15.687  12.403
95522W        W59246   0.270  22.189  11.072
95523W        W59247  23.058  44.293  12.964
95524W        W59248  18.613   1.277  12.906
95525W        W59249  31.474  17.742   4.820
95526W        W59250   5.727  27.479  13.445
95527W        W59251   3.909  21.587   3.279
95528W        W59252   1.323  18.141  12.854
95529W        W59253  11.190  41.322   3.373
95530W        W59254  43.900  22.732   0.728
95531W        W59255  39.422  27.954  11.991
95532W        W59256  22.602  25.205   2.700
95533W        W59257  21.657  13.138  14.994
95534W        W59258  32.066  24.117  11.470
95535W        W59259  22.159   3.405   2.248
95536W        W59260  27.456  41.914   3.266
95537W        W59261  33.411  15.253   1.279
95538W        W59262   0.919  24.122   0.456
95539W        W59263  34.953  31.088  14.283
95540W        W59264   1.885  34.429  14.348
95541W        W59265  25.576  33.092   0.423
95542W        W59266  17.269  27.474   4.752
95543W        W59267  14.211  37.979  11.556
95544W        W59268  25.607  22.698   1.404
95545W        W59269  26.187  41.351   4.655
95546W        W59270  15.817  11.834  10.563
95547W        W59271  36.444  26.022  14.372
95548W        W59272   1.275  40.808  11.006
95549W        W59273  18.253  24.557  13.829
95550W        W59274  26.101  23.548   3.314
95551W        W59275  42.916   6.736  10.560
95552W        W59276   2.249  26.658   3.655
95553W        W59277  27.504  28.940   3.286
95554W        W59278  27.644  32.500   2.194
95555W        W59279  15.318  33.557  14.782
95556W        W59280  44.783  23.687  12.496
95557W        W59281  19.231  40.033  13.892
95558W        W59282  18.546  16.072   4.305
95559W        W59283   9.199  38.335   3.814
95560W        W59284   3.754   2.721   4.136
95561W        W59285   7.828  43.342   4.611
95562W        W59286  19.099   5.846   3.239
95563W        W59287  35.427  34.951   4.729
95564W        W59288   5.876  32.096   0.249
95565W        W59289  18.145  36.005   1.789
95566W        W59290  18.779  27.083   3.235
95567W        W59291  39.430  21.561  12.519
95568W        W59292   4.223  10.362   0.316
95569W        W59293  17.143  31.506  15.000
95570W        W59294  21.557  15.176  12.958
95571W        W59295  16.293  41.336   2.662
95572W        W59296  10.278  40.493   2.841
95573W        W59297  13.246  40.029  11.924
95574W        W59298   9.861  29.002   4.705
95575W        W59299  34.010  33.474  10.645
95576W        W59300  28.651  40.475   2.411
95577W        W59301  13.185   8.828  12.341
95578W        W59302  32.439  43.376   0.741
95579W        W59303  12.279   9.272  12.527
95580W        W59304  30.010  28.575   2.733
95581W        W59305  28.028  44.842  11.016
95582W        W59306  24.162   3.840   0.363
95583W        W59307  38.840  38.855   0.387
95584W        W59308  25.647  10.676  11.500
95585W        W59309  23.074  18.705  10.939
95586W        W59310   9.395   0.474  10.487
95587W        W59311  17.177  36.554   3.665
95588W        W59312  24.101  15.128   4.691
95589W        W59313  11.686   2.450   0.811
95590W        W59314  21.219  37.062   3.345
95591W        W59315   3.804   3.232  13.384
95592W        W59316  31.902  27.559  11.028
95593W        W59317  38.930  43.862  13.395
95594W        W59318  14.677  13.622   4.706
95595W        W59319  21.208   0.835  12.373
95596W        W59320  29.505  16.217   2.383
95597W        W59321  15.761  39.929  10.984
95598W        W59322   8.311  32.964   2.202
95599W        W59323  21.183  35.005   2.379
95600W        W59324   4.256  44.924   1.890
95601W        W59325  15.666  17.588   3.684
95602W        W59326  44.874  33.547  12.873
95603W        W59327   3.306   0.406  11.496
95604W        W59328  27.687  42.793  14.821
95605W        W59329   4.450  38.975  12.414
95606W        W59330  18.752  16.710  12.918
95607W        W59331  36.905   3.892  10.571
95608W        W59332   9.294  17.129   1.715
95609W        W59333  28.512  26.024  14.903
95610W        W59334  26.202  32.573   0.866
95611W        W59335   6.315   6.219   9.952
95612W        W59336  18.641  38.825   9.923
95613W        W59337  12.324  30.506   2.826
95614W        W59338  15.202   5.280   2.740
95615W        W59339  23.697  20.253  10.478
95616W        W59340  15.198   5.364  12.895
95617W        W59341   0.867  34.556   4.122
95618W        W59342  24.105  35.536   1.340
95619W        W59343  38.941   3.347  11.501
95620W        W59344  24.023  41.830   2.833
95621W        W59345  13.819   4.302  14.353
95622W        W59346  11.674   1.335  14.761
95623W        W59347  32.459  15.098  10.038
95624W        W59348  39.542  18.068  10.448
95625W        W59349  27.660  37.368   5.277
95626W        W59350  26.103   3.365  14.028
95627W        W59351  32.539  22.574   3.642
95628W        W59352  15.094  23.671  14.371
95629W        W59353  43.389   3.356   1.389
95630W        W59354   6.424  28.970   2.384
95631W        W59355  15.746  36.386  13.854
95632W        W59356   7.359  11.214   4.708
95633W        W59357   6.765  19.763   2.882
95634W        W59358   3.283  43.945  10.994
95635W        W59359  30.097  35.596   1.833
95636W        W59360  21.684   6.914  13.984
95637W        W59361  33.603  42.023   4.776
95638W        W59362  14.280  35.421  14.371
95639W        W59363   8.201  22.039   3.729
95640W        W59364  16.731   7.841   4.316
95641W        W59365  23.622  16.717  12.848
95642W        W59366  17.735  24.719   3.377
95643W        W59367  28.519   5.691   3.715
95644W        W59368  41.962  19.279   2.722
95645W        W59369  42.333  18.109   4.170
95646W        W59370  13.801  31.075  13.439
95647W        W59371   9.336  34.587  10.577
95648W        W59372  26.015   5.765   0.790
95649W        W59373  38.011  33.513   1.697
95650W        W59374  16.308  43.380   0.905
95651W        W59375  21.737  17.116   2.362
95652W        W59376   5.382   0.353   4.350
95653W        W59377  16.288   9.868  11.932
95654W        W59378  27.594  30.509  13.929
95655W        W59379   6.258  14.768  13.872
95656W        W59380  14.118  21.088   2.816
95657W        W59381  39.023  35.598  13.812
95658W        W59382  23.171   0.928   0.779
95659W        W59383  34.568   4.244   1.445
95660W        W59384  37.340  40.399   2.342
95661W        W59385   9.815  39.477   3.298
95662W        W59386  13.810   0.956  13.800
95663W        W59387   9.736   4.242   3.741
95664W        W59388  30.580   5.921   1.390
95665W        W59389  24.060  28.143  12.425
95666W        W59390  36.043  33.878  12.836
95667W        W59391  24.127  17.696  13.988
95668W        W59392   5.709   2.408   2.750
95669W        W59393   0.422  23.641   0.257
95670W        W59394  36.348  33.387  14.308
95671W        W59395  26.079  20.648  14.904
95672W        W59396  30.023  41.404   1.279
95673W        W59397  21.212  28.980   0.408
95674W        W59398  12.708  19.672   4.231
95675W        W59399  16.635  34.428  14.014
95676W        W59400  21.619  30.425   4.202
95677W        W59401   9.757   8.809   0.904
95678W        W59402   0.261  37.979  14.798
95679W        W59403  11.147  22.674  11.018
95680W        W59404  40.412  22.525   0.863
95681W        W59405  18.051  35.473  11.077
95682W        W59406  35.452  24.590   1.821
95683W        W59407  15.187   4.924   2.688
95684W        W59408  33.427  33.509   0.816
95685W        W59409  25.656  13.284   3.274
95686W        W59410  44.446  16.143  11.535
95687W        W59411   1.785  21.688   3.722
95688W        W59412   2.893   6.341   0.942
95689W        W59413  18.280  10.707   2.328
95690W        W59414  23.102  34.592   2.754
95691W        W59415  10.168  29.002  11.108
95692W        W59416  31.627  32.938   0.752
95693W        W59417  42.847   3.233  13.857
95694W        W59418  44.858  41.864  12.425
95695W        W59419  13.752   7.396  10.431
95696W        W59420   5.320  16.115  12.381
95697W        W59421  38.327  11.205   3.662
95698W        W59422  36.410   1.261   4.705
95699W        W59423  32.912  31.565   3.747
95700W        W59424  30.975  13.665  12.432
95701W        W59425  28.628   5.393   0.828
95702W        W59426  24.039  25.686   3.186
95703W        W59427  32.468   2.779  14.458
95704W        W59428   8.231  30.635  14.399
95705W        W59429   2.290  20.574  10.460
95706W        W59430  41.291   3.914  14.778
95707W        W59431  44.367   7.226  11.498
95708W        W59432  10.868  39.336   1.247
95709W        W59433  38.534  21.679  12.874
95710W        W59434  22.222  39.470   0.748
95711W        W59435   7.266  39.062   0.894
95712W        W59436  31.590   6.334  12.489
95713W        W59437  27.595  18.259  11.998
95714W        W59438  33.071  29.669  12.519
95715W        W59439  39.510  33.910   0.734
95716W        W59440   7.860  37.997   2.889
95717W        W59441  32.550   4.257  14.433
95718W        W59442   1.388  27.173   0.966
95719W        W59443  39.414  32.600   2.849
95720W        W59444  10.768  37.376   4.119
95721W        W59445  36.538  22.065   3.804
95722W        W59446  27.002  25.704   3.295
95723W        W59447  36.490  37.900  10.995
95724W        W59448  13.730  36.369  12.904
95725W        W59449   7.338  25.528   0.460
95726W        W59450  14.827   1.948   3.818
95727W        W59451  39.858  15.658   5.150
95728W        W59452  15.642  31.920   2.225
95729W        W59453  25.217  15.300  12.493
95730W        W59454  19.136  16.203  13.309
95731W        W59455  41.946   0.799   1.835
95732W        W59456  26.051   2.272   3.792
95733W        W59457   7.309  24.085   2.877
95734W        W59458  15.218  12.847  11.498
95735W        W59459   7.283   7.765  13.978
95736W        W59460  10.835  39.887   1.443
95737W        W59461  16.113  29.993  13.032
95738W        W59462  24.169  44.803  13.908
95739W        W59463   7.417  23.987  11.480
95740W        W59464   9.829  24.218  12.944
95741W        W59465   2.248  20.753   4.718
95742W        W59466   9.733  41.392   1.878
95743W        W59467  44.391  14.688   2.842
95744W        W59468   8.190  15.207   4.642
95745W        W59469  38.060  29.086  13.465
95746W        W59470   7.211  10.310  11.440
95747W        W59471  22.593  21.695  12.538
95748W        W59472   0.338  23.491  14.443
95749W        W59473   1.341  20.262   0.827
95750W        W59474   0.438  41.439   3.205
95751W        W59475  28.164  17.727   3.729
95752W        W59476   1.953  25.020   1.744
95753W        W59477  43.004  23.549  11.914
95754W        W59478   0.380  26.177  12.060
95755W        W59479  26.640  29.572  13.814
95756W        W59480  31.109  26.048  12.430
95757W        W59481   7.284  44.287   0.286
95758W        W59482   8.681  32.632   0.950
95759W        W59483  30.077  20.112   2.727
95760W        W59484  13.287  14.750  12.943
95761W        W59485  41.798  29.467  11.475
95762W        W59486  16.273  31.154  14.338
95763W        W59487  37.542  10.290   3.776
95764W        W59488  24.558   6.422   2.898
95765W        W59489  11.838  44.299   3.208
95766W        W59490  17.210   4.240  14.322
95767W        W59491  19.211  28.057   4.133
95768W        W59492   6.718  25.116  14.950
95769W        W59493  30.915  28.183   4.231
95770W        W59494  35.512  18.107   4.164
95771W        W59495  13.218  44.368   2.843
95772W        W59496  37.981  43.773   2.185
95773W        W59497   4.728  10.665  10.605
95774W        W59498  18.156  28.549   3.782
95775W        W59499  16.680   7.794  12.904
95776W        W59500  41.920   3.754   1.843
95777W        W59501  24.194  40.438  12.374
95778W        W59502  16.636  42.307   0.416
95779W        W59503   5.832  13.342  12.972
95780W        W59504  29.025  32.605  12.031
95781W        W59505   3.886   1.973   0.960
95782W        W59506  13.142  38.343   1.450
95783W        W59507   2.732  28.675  14.815
95784W        W59508  41.351  32.622   4.713
95785W        W59509  25.697  17.173   3.837
95786W        W59510  27.603  25.970  10.459
95787W        W59511  31.468  30.509  14.869
95788W        W59512  20.236  32.940   2.682
95789W        W59513  40.448  17.688   2.828
95790W        W59514   6.339  30.630   3.689
95791W        W59515  20.644  18.231   1.835
95792W        W59516  44.956  27.123   2.227
95793W        W59517   0.743  27.027  11.073
95794W        W59518  13.291  19.150   1.215
95795W        W59519  28.930  41.531   0.813
95796W        W59520   7.679  27.994   1.353
95797W        W59521  40.878  24.572  13.453
95798W        W59522  10.214  34.996  11.419
95799W        W59523  42.315  35.876  14.968
95800W        W59524  25.639  37.991   4.679
95801W        W59525  14.607  18.563  10.938
95802W        W59526  18.658  40.525   5.249
95803W        W59527  36.897   8.688  10.930
95804W        W59528  18.283  41.532  12.475
95805W        W59529  10.717  29.123   4.753
95806W        W59530  34.474  13.703   2.885
95807W        W59531   2.407   3.458   3.825
95808W        W59532  31.643  33.484   2.416
95809W        W59533  37.447  14.673   0.791
95810W        W59534  10.682  22.584   1.247
95811W        W59535  14.302  35.443  13.842
95812W        W59536  13.264  33.033   2.747
95813W        W59537  19.581  40.024   4.251
95814W        W59538  31.476  31.897  13.408
95815W        W59539  29.546  25.006  14.932
95816W        W59540  31.432  22.079  12.841
95817W        W59541  40.323   0.827  13.475
95818W        W59542   0.785  43.449  14.765
95819W        W59543  24.087  28.142  11.569
95820W        W59544  14.814  11.809  11.415
95821W        W59545  17.680  40.526   2.410
95822W        W59546  31.900  14.179   0.336
95823W        W59547   0.834   5.906   0.425
95824W        W59548  16.079   9.285  11.016
95825W        W59549  43.963  34.575   5.236
95826W        W59550  23.108   6.304  14.856
95827W        W59551   8.807  35.072  12.572
95828W        W59552   5.402   6.328  11.110
95829W        W59553   9.716  24.608  11.612
95830W        W59554  38.016  39.422   2.241
95831W        W59555  15.240  42.815   0.330
95832W        W59556  19.236   5.837   2.365
95833W        W59557  43.512  28.452  12.031
95834W        W59558   3.847   1.481   2.269
95835W        W59559   0.934  17.278   3.363
95836W        W59560  11.317  43.811  13.055
95837W        W59561   5.277  33.422  12.829
95838W        W59562   4.837  27.990   4.313
95839W        W59563  15.601  39.497  13.923
95840W        W59564  14.231  23.161   0.329
95841W        W59565  31.915  42.463  10.599
95842W        W59566  14.302  43.466  14.802
95843W        W59567  39.925  37.571  11.448
95844W        W59568  16.129  13.291  12.437
95845W        W59569  10.716  34.042  11.562
95846W        W59570  11.318  14.792  14.981
95847W        W59571   5.193  15.636  14.304
95848W        W59572  41.330  36.094  11.399
95849W        W59573  29.565  20.641  12.906
95850W        W59574   5.807  19.724   2.284
95851W        W59575  26.119  42.958  12.569
95852W        W59576  12.679  29.950   3.346
95853W        W59577  23.025  12.643  13.492
95854W        W59578  41.803  38.383   9.589
95855W        W59579  11.203   5.430   1.245
95856W        W59580   9.883   8.694   4.607
95857W        W59581  24.137  18.687   3.703
95858W        W59582  24.688   8.190  12.016
95859W        W59583  10.304  38.934   1.831
95860W        W59584  25.506  36.915   3.250
95861W        W59585   3.904  13.139   3.663
95862W        W59586   6.218   0.409   1.324
95863W        W59587  24.064  22.741  11.539
95864W        W59588  39.456  22.671  13.538
95865W        W59589  41.835  32.114  12.467
95866W        W59590  19.598  30.614   4.742
95867W        W59591   3.713  37.395   4.149
95868W        W59592  38.007  34.000   1.222
95869W        W59593   5.360  19.191  14.318
95870W        W59594  15.583  19.624  13.977
95871W        W59595  32.952  44.761   1.347
95872W        W59596   0.771  27.022   0.470
95873W        W59597  18.608  27.035  13.966
95874W        W59598  13.817  24.981   2.704
95875W        W59599  16.111   0.430   3.668
95876W        W59600  22.608  30.991  10.505
95877W        W59601  41.895   2.324  10.567
95878W        W59602  28.180  43.511   0.905
95879W        W59603  41.400   7.705  11.608
95880W        W59604  35.898   9.751  12.841
95881W        W59605   3.818  43.963   4.838
95882W        W59606  17.670  28.449   0.350
95883W        W59607   1.327  11.838   0.867
95884W        W59608   4.773   1.870   0.264
95885W        W59609  11.198  23.046   3.319
95886W        W59610   8.822   7.833   2.388
95887W        W59611   9.779  28.628  12.545
95888W        W59612  26.613  21.141   4.784
95889W        W59613  13.298  39.872   1.920
95890W        W59614  13.802  18.659  10.573
95891W        W59615   9.695   0.255  14.386
95892W        W59616  38.493  27.648   2.290
95893W        W59617  30.016  13.148   2.817
95894W        W59618  25.499  38.821   5.164
95895W        W59619   7.230  16.108  11.988
95896W        W59620  20.101  40.041  13.366
95897W        W59621  22.220  17.090  11.893
95898W        W59622  37.392  33.572  10.645
95899W        W59623  40.962   8.200  14.407
95900W        W59624  32.045  15.206   1.932
95901W        W59625  28.499  41.793  13.060
95902W        W59626  26.661  18.136  10.534
95903W        W59627   8.339   1.956  10.463
95904W        W59628  37.578  34.900  12.389
95905W        W59629  23.584   9.188  11.027
95906W        W59630   6.363  22.048  14.012
95907W        W59631   8.663   3.230   4.785
95908W        W59632   2.870  24.195   4.785
95909W        W59633  44.893  29.105  13.038
95910W        W59634  23.047  43.990  13.922
95911W        W59635  31.972  25.148  13.426
95912W        W59636  24.539  28.435  14.455
95913W        W59637  12.696  22.085   2.855
95914W        W59638   9.190  11.301   3.156
95915W        W59639   8.754  33.051  14.305
95916W        W59640   8.867  37.491  13.940
95917W        W59641  29.519  41.394   2.292
95918W        W59642  32.424   3.870   1.877
95919W        W59643  14.300  22.532   3.275
95920W        W59644   9.203   1.741  11.373
95921W        W59645  18.752   9.873   2.835
95922W        W59646  39.420  27.131   2.676
95923W        W59647  41.035  32.465   4.354
95924W        W59648  11.804   6.830  14.298
95925W        W59649  29.107  44.422  14.917
95926W        W59650   8.186  27.445  14.504
95927W        W59651  18.696  44.759   0.273
95928W        W59652  22.607   6.348  11.911
95929W        W59653   0.339  17.652   4.178
95930W        W59654  23.126  13.683   2.393
95931W        W59655  40.416  17.664  10.559
95932W        W59656   7.758  21.112  14.365
95933W        W59657  28.499  10.253  13.405
95934W        W59658   6.889  30.079  11.100
95935W        W59659  33.936   5.905   2.764
95936W        W59660  14.122  19.566   4.762
95937W        W59661  29.448  43.368  12.917
95938W        W59662  22.108  28.933  13.895
95939W        W59663   3.432  25.656  14.776
95940W        W59664  25.106  28.106  12.904
95941W        W59665  41.917  41.024   9.927
95942W        W59666   9.667  27.035   2.774
95943W        W59667   5.326  28.952   3.252
95944W        W59668  39.323   7.823  14.960
95945W        W59669  38.550  14.113  11.514
95946W        W59670  32.582  23.616   1.882
95947W        W59671   7.750   3.780  10.967
95948W        W59672  34.561  36.435  10.909
95949W        W59673  12.220  20.217   1.435
95950W        W59674  21.722  13.278   9.991
95951W        W59675   0.266  30.448  14.936
95952W        W59676  44.778  29.035   2.720
95953W        W59677   8.253  38.474   0.422
95954W        W59678  24.556  13.766  12.885
95955W        W59679  24.152  42.331  12.913
95956W        W59680  22.159  34.413  11.035
95957W        W59681  10.348  19.764   0.464
95958W        W59682  33.899  19.539   3.181
95959W        W59683  21.124  23.086  13.955
95960W        W59684  40.974  40.867   2.179
95961W        W59685  11.259  25.521   1.927
95962W        W59686  11.158  31.037   2.385
95963W        W59687  41.976  43.849  14.826
95964W        W59688  35.046  20.739  12.045
95965W        W59689  14.135   5.879  11.469
95966W        W59690  27.581  31.119   0.778
95967W        W59691  28.511  38.375   2.713
95968W        W59692  43.799  40.047   1.845
95969W        W59693   0.758  34.081  12.048
95970W        W59694  39.480  19.633   2.266
95971W        W59695  31.910   8.835  12.017
95972W        W59696  44.459  25.017  11.964
95973W        W59697   6.780  21.235   4.657
95974W        W59698  26.024  13.688  10.994
95975W        W59699  38.401  32.999  13.992
95976W        W59700  16.568  22.670   0.747
95977W        W59701  32.425  27.194  12.896
95978W        W59702  28.951  32.097  12.483
95979W        W59703   2.274  11.757  14.963
95980W        W59704  15.707  33.106  13.918
95981W        W59705  37.549   0.844  13.864
95982W        W59706   7.276   7.865   2.844
95983W        W59707  26.030  44.428  12.842
95984W        W59708   2.281  40.873   4.165
95985W        W59709  43.780  25.195  12.482
95986W        W59710  25.713  31.129   1.854
95987W        W59711  31.547  22.067  11.989
95988W        W59712  27.981  35.944   2.391
95989W        W59713  28.581  35.581  11.383
95990W        W59714  25.148  25.166   2.888
95991W        W59715   0.298   2.427  10.454
95992W        W59716  24.585  19.188   4.319
95993W        W59717  42.014   2.327  14.484
95994W        W59718  19.084  14.777   5.108
95995W        W59719  37.948  43.941   2.780
95996W        W59720   5.721  29.071  13.920
95997W        W59721  27.510  36.876  11.425
95998W        W59722  39.855  34.892   0.250
95999W        W59723   1.422   2.734  10.990
96000W        W59724  41.916  32.526   0.357
96001W        W59725  42.907  14.819   4.169
96002W        W59726  13.189  42.914   3.798
96003W        W59727  10.235  44.822  11.523
96004W        W59728   3.806  28.554   3.720
96005W        W59729  36.446  16.700  14.923
96006W        W59730  39.346   6.296  12.392
96007W        W59731  44.413  24.584  12.015
96008W        W59732  42.309  35.589   0.813
96009W        W59733   4.372  32.133   0.361
96010W        W59734   3.459  27.474   3.849
96011W        W59735  26.568  19.767  13.924
96012W        W59736  22.575  42.508   0.922
96013W        W59737  22.556  26.012   4.291
96014W        W59738  12.157  44.495  14.950
96015W        W59739  21.583  23.557  14.015
96016W        W59740   6.380  15.137   3.870
96017W        W59741  41.528  28.043  11.434
96018W        W59742  42.434  41.976  12.918
96019W        W59743   8.896  25.569  14.882
96020W        W59744  19.687   8.294  11.511
96021W        W59745  17.232  15.822  14.884
96022W        W59746  22.156  27.512   3.837
96023W        W59747  24.172   3.849   2.800
96024W        W59748   0.336   0.385   1.430
96025W        W59749  22.664  37.872   2.414
96026W        W59750  24.136  20.687   1.918
96027W        W59751   3.348  22.651  12.949
96028W        W59752  41.500   9.835   2.193
96029W        W59753  19.755   0.885  14.853
96030W        W59754  25.565  24.533   3.338
96031W        W59755  21.752  27.587  11.029
96032W        W59756   4.259  39.826  13.454
96033W        W59757  27.097   3.294  14.758
96034W        W59758   0.369  40.416  13.038
96035W        W59759  24.105  33.563  13.417
96036W        W59760   5.293   8.827   4.801
96037W        W59761  21.515  41.016   4.261
96038W        W59762  31.527  34.520  14.939
96039W        W59763  40.837  25.629  13.430
96040W        W59764  11.358   1.364  11.495
96041W        W59765  15.329  16.076   3.853
96042W        W59766  12.160   4.247   5.318
96043W        W59767  31.456  15.627   0.775
96044W        W59768  37.896   8.320   0.352
96045W        W59769  16.620  35.484   1.387
96046W        W59770  28.098   8.678  13.841
96047W        W59771  12.117  26.484  14.917
96048W        W59772   7.239  11.177  14.308
96049W        W59773   2.286  39.924  11.951
96050W        W59774  25.018  17.764  10.481
96051W        W59775   4.396  43.007   4.178
96052W        W59776  19.158  15.327  14.765
96053W        W59777  28.973   1.821  12.357
96054W        W59778  34.036  22.666  13.484
96055W        W59779   0.783  28.560  14.342
96056W        W59780  19.623  22.036   0.347
96057W        W59781   9.645  35.556  13.849
96058W        W59782  16.236   2.761   4.647
96059W        W59783  44.865  17.062  12.914
96060W        W59784  19.674   5.872   2.345
96061W        W59785   6.774  37.065  12.382
96062W        W59786  33.414  38.837  13.407
96063W        W59787  38.564   3.906   1.708
96064W        W59788  22.612  26.036   2.318
96065W        W59789  11.147  31.049   4.717
96066W        W59790   9.827  20.215   3.835
96067W        W59791  43.990  15.103   4.619
96068W        W59792  39.031  22.127   4.129
96069W        W59793  12.613  36.576   2.359
96070W        W59794  28.946  18.082  14.440
96071W        W59795  19.166  21.753  13.338
96072W        W59796  15.091  34.453   2.258
96073W        W59797  42.825  43.483  11.528
96074W        W59798  11.635  35.406   3.831
96075W        W59799   1.796  38.936   1.359
96076W        W59800   8.394  18.276  11.572
96077W        W59801  42.910  31.627   3.232
96078W        W59802  18.609   2.836   3.656
96079W        W59803   3.310  10.656  14.356
96080W        W59804  30.601  33.505   3.653
96081W        W59805  18.573  40.893   3.634
96082W        W59806  39.345  20.253  10.418
96083W        W59807  12.808  28.577  13.042
96084W        W59808   1.907  28.544  14.405
96085W        W59809  34.536  30.152  11.504
96086W        W59810   2.784  38.331   4.655
96087W        W59811   8.840  10.232  10.018
96088W        W59812   9.840  40.871  13.836
96089W        W59813  40.546  37.393  10.438
96090W        W59814   0.913  15.755   1.892
96091W        W59815  41.404  28.938  10.416
96092W        W59816  17.288   3.776  14.859
96093W        W59817  10.270   2.296   4.670
96094W        W59818  24.674   5.778  14.031
96095W        W59819   5.398  41.810  14.994
96096W        W59820  26.976  31.497   1.215
96097W        W59821  13.758  31.099  14.361
96098W        W59822   9.667  24.609   2.799
96099W        W59823  23.694  36.485   2.194
96100W        W59824  28.495  36.441  11.417
96101W        W59825  44.935   3.348  11.511
96102W        W59826  31.998   5.344  14.851
96103W        W59827  21.528  15.190  10.927
96104W        W59828  17.670   5.875   0.272
96105W        W59829  17.725  20.229   4.145
96106W        W59830  36.956  19.550  14.949
96107W        W59831  21.215   1.731   3.823
96108W        W59832  12.324  14.649   3.706
96109W        W59833  27.596  43.824   3.738
96110W        W59834  40.988  41.329   1.735
96111W        W59835  19.078  41.896   3.680
96112W        W59836  34.597  36.952   3.202
96113W        W59837  11.242  31.531  13.034
96114W        W59838  44.260  43.928  11.565
96115W        W59839   0.259  38.047  14.379
96116W        W59840  44.301   3.340  13.813
96117W        W59841  26.151   7.893  13.869
96118W        W59842  17.208  43.854  11.067
96119W        W59843  33.544  32.069   0.842
96120W        W59844   9.792  37.978   3.174
96121W        W59845  24.068  35.538  13.814
96122W        W59846  33.524  18.291  10.963
96123W        W59847  21.186  16.259  11.064
96124W        W59848  19.066   7.364   0.821
96125W        W59849  35.949  19.717  14.395
96126W        W59850  15.167  27.658   4.723
96127W        W59851  10.745  32.006  12.899
96128W        W59852  27.110  30.582  14.774
96129W        W59853  11.833  26.015   0.805
96130W        W59854  10.197   4.710  11.981
96131W        W59855  13.669  34.029   0.736
96132W        W59856  16.283   9.855   4.742
96133W        W59857  20.244  35.503  13.417
96134W        W59858  40.934  23.718   2.740
96135W        W59859  16.207  25.623   2.259
96136W        W59860  11.162  20.093  14.012
96137W        W59861  20.554  11.672  11.556
96138W        W59862   6.724   3.872  14.313
96139W        W59863  21.652  34.544  13.830
96140W        W59864  31.455   3.719   4.278
96141W        W59865  24.526  38.450   5.285
96142W        W59866  40.544  20.548  14.925
96143W        W59867  29.078  28.640  12.076
96144W        W59868  34.104  14.160   1.876
96145W        W59869   4.867  44.350  12.839
96146W        W59870  44.782   5.855   4.601
96147W        W59871  38.934   6.778  12.936
96148W        W59872  11.695   1.939   2.826
96149W        W59873  28.491   6.215   3.161
96150W        W59874   2.261   8.371   4.716
96151W        W59875  21.525  10.810   0.301
96152W        W59876   4.352   9.687  13.495
96153W        W59877  36.989  20.596   3.203
96154W        W59878  16.704  32.470  12.011
96155W        W59879  33.103  35.101  12.850
96156W        W59880  41.996  37.578  10.989
96157W        W59881  42.370  14.164  12.502
96158W        W59882  32.477  38.034  12.547
96159W        W59883   1.799  17.203   2.241
96160W        W59884   5.430   7.396  11.950
96161W        W59885   2.430  34.396   0.368
96162W        W59886  19.093   1.401  13.943
96163W        W59887   6.745   9.809   5.630
96164W        W59888   4.811  31.620  12.555
96165W        W59889  18.650  37.509  14.331
96166W        W59890  37.376  29.132   2.376
96167W        W59891  35.105  10.740   4.338
96168W        W59892   4.837  33.974   2.262
96169W        W59893   9.671  19.201   3.356
96170W        W59894  21.122  38.067   4.335
96171W        W59895   6.190  22.114   4.287
96172W        W59896   1.952  44.899  14.397
96173W        W59897  35.487  31.408   1.215
96174W        W59898  25.484  11.711   4.627
96175W        W59899  26.117   7.223   2.787
96176W        W59900  31.931  31.451   2.190
96177W        W59901   2.949  32.029   1.866
96178W        W59902  20.070  30.534  13.445
96179W        W59903   7.319  26.077   4.769
96180W        W59904  15.167  42.832  11.513
96181W        W59905   5.763  10.733  12.529
96182W        W59906  22.676  31.579   2.681
96183W        W59907  42.859  16.252   1.363
96184W        W59908  42.017  13.299   3.801
96185W        W59909  22.568  11.253  13.463
96186W        W59910  28.969  14.739   2.240
96187W        W59911   5.687  37.904  13.343
96188W        W59912  32.563  34.115   0.259
96189W        W59913  26.049  38.874   4.696
96190W        W59914  14.224  25.555   0.426
96191W        W59915  43.408  42.290  12.354
96192W        W59916  15.119  31.965  13.455
96193W        W59917  16.098  40.506  12.351
96194W        W59918  11.128   7.376  10.618
96195W        W59919  16.708   6.893   0.337
96196W        W59920  35.449  15.329  13.408
96197W        W59921   7.249  17.166   0.954
96198W        W59922   3.884   4.779   1.269
96199W        W59923  34.540  38.048  14.391
96200W        W59924  39.976  38.025   3.676
96201W        W59925  10.361  27.499   4.224
96202W        W59926  15.817  10.179  13.802
96203W        W59927  18.664   5.346   2.222
96204W        W59928   6.894  40.818   2.755
96205W        W59929  43.863   6.849  13.797
96206W        W59930  38.486  37.053  12.970
96207W        W59931   6.815  41.465   4.290
96208W        W59932   3.415  34.114  11.489
96209W        W59933  27.941  32.406  10.149
96210W        W59934  31.899  11.328  12.833
96211W        W59935  32.500  18.187  13.363
96212W        W59936  28.092  34.867   1.419
96213W        W59937   8.747  36.909  12.979
96214W        W59938   1.328  26.006   3.696
96215W        W59939  20.215   5.344   2.208
96216W        W59940   5.699  32.911  13.803
96217W        W59941  44.934   9.832   1.757
96218W        W59942  16.674  19.765  13.034
96219W        W59943  16.091  12.855   4.650
96220W        W59944  37.382  17.251  14.338
96221W        W59945  44.868  35.904  12.487
96222W        W59946   1.955   1.925   2.300
96223W        W59947  11.338  15.144   1.716
96224W        W59948  16.255  34.917  14.827
96225W        W59949  36.885  29.115  11.446
96226W        W59950   4.243   1.309   4.639
96227W        W59951  20.074   8.840   2.273
96228W        W59952   2.376  40.543  12.081
96229W        W59953  26.512   2.721   2.767
96230W        W59954  21.062  43.879   3.213
96231W        W59955  24.500   7.254  11.042
96232W        W59956  10.837  18.753   1.228
96233W        W59957   7.294  30.034   0.910
96234W        W59958  12.319  17.686  14.489
96235W        W59959  27.529  10.322  11.480
96236W        W59960   1.881   9.704   4.682
96237W        W59961  12.798  32.927   4.237
96238W        W59962  11.199   6.860  13.429
96239W        W59963  27.950  26.595  13.327
96240W        W59964   7.180  11.195  10.604
96241W        W59965  17.686  11.327  13.867
96242W        W59966  13.311  28.458   0.443
96243W        W59967  41.898  30.951  11.929
96244W        W59968   4.398   5.735   0.961
96245W        W59969  26.996   4.367  14.760
96246W        W59970  38.412  28.610   3.196
96247W        W59971  24.642  33.464  11.514
96248W        W59972  23.579   4.878  14.414
96249W        W59973  41.440  34.434   4.176
96250W        W59974  42.473   9.707  14.022
96251W        W59975  26.586  24.615   0.843
96252W        W59976  34.991  44.401   2.309
96253W        W59977  19.119  16.583   0.783
96254W        W59978   1.330   9.384  12.559
96255W        W59979  20.682  12.353  11.973
96256W        W59980  27.557  14.161   1.709
96257W        W59981   1.973  14.771   0.855
96258W        W59982  37.528  27.587   3.664
96259W        W59983  32.470  13.127  12.888
96260W        W59984  39.557  28.655   2.213
96261W        W59985  42.374  38.404   2.196
96262W        W59986  35.418  19.191  13.499
96263W        W59987   4.940  16.285   1.378
96264W        W59988  28.459  26.665  14.963
96265W        W59989  30.506   1.424   3.163
96266W        W59990  44.402  12.351   2.211
96267W        W59991  35.971  26.027   2.350
96268W        W59992  20.693  19.208  11.375
96269W        W59993  41.326  37.339   5.783
96270W        W59994  40.340  13.706  13.351
96271W        W59995  32.556  11.333   4.759
96272W        W59996  15.645  40.406  14.915
96273W        W59997   5.845  11.859  12.857
96274W        W59998   1.833   9.240   3.670
96275W        W59999  13.633   3.748  10.568
96276W        W60000  30.646  41.529   3.335
96277W        W60001  43.876  30.985   1.334
96278W        W60002  25.082  39.874   2.751
96279W        W60003  32.078   2.814  11.920
96280W        W60004  44.773  17.295  14.311
96281W        W60005  42.302  24.635   4.754
96282W        W60006  14.135   6.344   0.261
96283W        W60007  33.904  23.621   4.333
96284W        W60008  37.977  32.988   2.211
96285W        W60009   1.852   6.243   1.394
96286W        W60010  44.873  42.409   2.373
96287W        W60011  21.533  28.564   4.800
96288W        W60012   1.941  25.510  14.858
96289W        W60013  24.721  28.610   2.399
96290W        W60014  21.611  31.029   3.350
96291W        W60015   9.319  38.392  10.554
96292W        W60016   7.303   3.436  14.836
96293W        W60017  27.515   2.274   0.462
96294W        W60018  38.065  27.486  14.287
96295W        W60019  27.011  25.699   1.287
96296W        W60020  16.178  13.126   2.224
96297W        W60021  23.065  10.737   3.693
96298W        W60022  21.616  40.887  12.844
96299W        W60023  11.166   5.300  13.042
96300W        W60024   5.744  25.082   1.855
96301W        W60025  42.507   8.276   3.260
96302W        W60026  25.022  17.789  12.502
96303W        W60027  13.175  25.673   0.951
96304W        W60028  22.592  14.096   3.211
96305W        W60029  17.610  32.399  10.506
96306W        W60030  16.796  36.972  11.556
96307W        W60031  11.848  43.964  13.485
96308W        W60032  14.757  19.200   2.370
96309W        W60033  43.968  14.156  14.424
96310W        W60034  40.490   7.806  13.892
96311W        W60035  14.650  22.125   3.634
96312W        W60036  44.495  12.723  12.047
96313W        W60037   7.746  44.951   3.867
96314W        W60038  33.982  42.419   2.764
96315W        W60039  26.495  29.993  14.394
96316W        W60040   7.288  37.552  12.532
96317W        W60041  24.031  16.170  10.572
96318W        W60042   1.832  16.289  14.478
96319W        W60043  10.192  43.799   2.265
96320W        W60044  32.023  34.078   4.614
96321W        W60045  25.143   9.702  10.083
96322W        W60046  37.357  13.750  11.007
96323W        W60047  43.350  35.509   2.725
96324W        W60048   4.417  41.845  14.950
96325W        W60049  22.103  22.079  11.939
96326W        W60050  36.541  33.426  11.421
96327W        W60051   2.943  32.933   2.709
96328W        W60052  42.427  26.165   1.363
96329W        W60053  15.816  22.028  11.388
96330W        W60054   6.194   9.832   2.218
96331W        W60055   5.218  14.192   3.810
96332W        W60056  11.681  23.496   0.813
96333W        W60057  41.523   2.362   2.849
96334W        W60058  39.428  12.647   2.836
96335W        W60059  19.074  37.361  12.027
96336W        W60060  32.960  25.147  11.928
96337W        W60061  43.772   7.317   2.391
96338W        W60062   9.805  21.190   0.465
96339W        W60063  26.076  35.909   3.300
96340W        W60064   0.346  14.750  10.947
96341W        W60065  19.713  10.372  10.628
96342W        W60066  32.143   5.238   4.188
96343W        W60067  43.850  37.408  14.294
96344W        W60068   4.799  22.234  10.553
96345W        W60069  32.939  43.490  14.767
96346W        W60070  19.154   0.377  13.396
96347W        W60071  26.553  30.491  10.613
96348W        W60072  14.628  30.149  14.961
96349W        W60073  36.547  32.936   4.126
96350W        W60074  31.031   7.312   2.366
96351W        W60075  34.897  24.570   1.839
96352W        W60076  32.930   6.296   2.713
96353W        W60077  37.898   7.796  11.537
96354W        W60078  35.038  44.292   4.234
96355W        W60079  34.913  37.082  12.388
96356W        W60080  36.924  12.146  10.457
96357W        W60081  43.373  35.892  13.980
96358W        W60082  31.978  22.681  12.577
96359W        W60083   7.358  32.452  11.386
96360W        W60084  36.986  14.655  12.549
96361W        W60085  18.692  13.756  10.971
96362W        W60086  23.024  39.910   2.886
96363W        W60087  43.354   1.455  14.429
96364W        W60088  13.732  35.367   1.829
96365W        W60089  21.735  32.400  12.974
96366W        W60090  14.171  40.359  13.995
96367W        W60091  15.244   6.266  12.375
96368W        W60092  42.304  42.458   2.382
96369W        W60093  13.837   9.878  14.276
96370W        W60094   6.287  20.236   1.426
96371W        W60095  44.326   8.240   2.260
96372W        W60096  19.570  13.791  11.389
96373W        W60097  39.883  25.587  13.010
96374W        W60098  42.820  11.189  14.835
96375W        W60099  34.518  25.074   4.835
96376W        W60100  34.908  21.676  13.510
96377W        W60101  32.031  34.065   2.197
96378W        W60102   9.222  42.851   0.884
96379W        W60103  29.544  22.705   2.738
96380W        W60104   3.316   8.201  12.980
96381W        W60105  16.811   9.341  11.542
96382W        W60106   9.293  10.787   1.255
96383W        W60107   0.902  23.667  11.494
96384W        W60108   7.717  34.374   4.729
96385W        W60109  40.860  34.593  14.325
96386W        W60110  14.680  25.655  12.348
96387W        W60111  27.512   7.297  12.876
96388W        W60112  17.230  30.092  13.827
96389W        W60113  42.477  23.002   1.906
96390W        W60114   5.305  20.167   4.264
96391W        W60115  13.285   4.764   2.303
96392W        W60116  33.120  11.846  12.433
96393W        W60117  35.063  20.697  11.523
96394W        W60118   7.171  35.998  12.002
96395W        W60119  12.781   5.198   3.709
96396W        W60120  33.500  20.240   3.864
96397W        W60121  44.267  19.707   4.707
96398W        W60122  30.645  15.230   0.855
96399W        W60123  44.300  28.540   1.297
96400W        W60124  35.103  29.104  12.541
96401W        W60125  37.017  40.016  11.512
96402W        W60126   9.726   5.818   1.425
96403W        W60127   1.414  10.169  10.514
96404W        W60128   4.890  27.639   2.884
96405W        W60129  26.169  11.663  10.907
96406W        W60130  11.655  34.874   3.260
96407W        W60131  31.609  41.343   3.317
96408W        W60132  28.081   1.327  14.021
96409W        W60133  41.852  25.017  11.404
96410W        W60134  16.304   2.274  10.896
96411W        W60135  33.469  15.599   2.215
96412W        W60136  18.599  23.029   1.787
96413W        W60137  15.662   4.228   1.334
96414W        W60138   2.349  39.347  11.012
96415W        W60139   7.349  31.501   0.329
96416W        W60140  24.585   0.878   3.666
96417W        W60141   8.228   9.340   3.361
96418W        W60142   5.781  40.881   0.866
96419W        W60143  33.495  20.152   2.763
96420W        W60144  26.618  29.159  10.499
96421W        W60145   0.318  40.916  11.561
96422W        W60146   1.289  14.658  13.407
96423W        W60147  29.628  19.564  11.883
96424W        W60148  34.375  18.288   3.321
96425W        W60149  15.818  23.676   1.716
96426W        W60150   9.175  14.155  11.455
96427W        W60151  18.563  15.643  13.328
96428W        W60152  15.776  40.370  11.097
96429W        W60153  18.570  40.992   2.251
96430W        W60154  25.622  41.814   3.639
96431W        W60155   8.835  44.405   2.750
96432W        W60156  38.411  22.235  10.583
96433W        W60157  15.803  43.890   9.979
96434W        W60158   9.720  18.231  10.637
96435W        W60159  12.646  35.597  10.964
96436W        W60160   5.712  22.673   0.947
96437W        W60161  35.970  18.772   4.767
96438W        W60162  44.428  13.315   3.649
96439W        W60163   2.426   3.311  12.922
96440W        W60164  40.949  26.525  11.890
96441W        W60165  21.690  17.628  14.285
96442W        W60166  30.005  39.362   3.327
96443W        W60167  38.993   5.873   0.929
96444W        W60168   8.321  19.101  13.464
96445W        W60169  22.093  23.605  12.420
96446W        W60170  39.491  15.228   1.925
96447W        W60171  18.262  15.646   0.755
96448W        W60172  19.695  31.525  11.970
96449W        W60173  41.023  15.638  10.408
96450W        W60174  42.507  28.071  12.362
96451W        W60175  31.647  42.902  10.404
96452W        W60176  21.228   8.655  12.055
96453W        W60177  20.071  19.612  11.084
96454W        W60178  14.149  19.714   3.660
96455W        W60179  11.361  30.056  12.065
96456W        W60180  14.714  30.997   0.766
96457W        W60181  23.024  14.275   2.385
96458W        W60182  33.961   3.431   1.312
96459W        W60183  24.641  11.171  14.945
96460W        W60184  32.076   4.728  11.912
96461W        W60185  33.983  40.990  10.593
96462W        W60186   9.711   2.308  12.529
96463W        W60187   0.960  42.981   2.313
96464W        W60188  13.605  27.941   0.912
96465W        W60189  23.524  36.993   3.741
96466W        W60190   2.964  22.531   3.380
96467W        W60191  27.044  42.886   0.824
96468W        W60192  39.351  32.106   1.218
96469W        W60193  36.010   4.263   2.746
96470W        W60194  19.716  13.202   3.162
96471W        W60195  15.214   6.798  11.569
96472W        W60196  17.690  28.159  11.869
96473W        W60197  19.687  10.291  14.434
96474W        W60198  29.460   5.695   0.751
96475W        W60199  12.829  18.197   3.199
96476W        W60200  11.799  19.576   5.195
96477W        W60201  31.136  15.166  10.994
96478W        W60202   1.866   5.762   0.468
96479W        W60203  10.839  23.176   1.293
96480W        W60204  19.567  42.478   0.287
96481W        W60205  15.273  20.149  11.535
96482W        W60206  37.495  35.021   0.958
96483W        W60207   3.840  35.930  11.994
96484W        W60208   1.443  43.374  10.889
96485W        W60209  39.841   4.846   1.264
96486W        W60210  33.482  43.018  13.027
96487W        W60211   1.937  12.706  10.540
96488W        W60212  25.634   5.306  11.988
96489W        W60213  41.994   9.758   0.827
96490W        W60214  15.730  34.915   4.179
96491W        W60215  19.591  33.539  11.603
96492W        W60216   4.701  29.921   4.317
96493W        W60217   6.290  10.868   1.270
96494W        W60218  41.294  29.963  11.938
96495W        W60219   0.447  13.742   0.870
96496W        W60220  34.916  11.630  12.461
96497W        W60221  17.203  25.054   1.756
96498W        W60222  29.136  23.225  10.945
96499W        W60223  20.664  26.051   2.220
96500W        W60224   6.757  13.733  10.492
96501W        W60225   6.842   2.767  10.971
96502W        W60226   8.718   6.683  11.111
96503W        W60227  28.520  20.096   3.223
96504W        W60228  20.653  24.578   3.771
96505W        W60229   4.700  42.890   1.222
96506W        W60230   7.738  36.924   0.861
96507W        W60231  27.054  32.570  13.971
96508W        W60232  16.655  19.778  10.615
96509W        W60233  13.302  44.494  11.557
96510W        W60234   0.290  10.182  12.554
96511W        W60235  13.346  39.896  14.372
96512W        W60236  25.971  41.525  14.878
96513W        W60237  31.899  19.222   3.353
96514W        W60238   5.275  32.569  14.815
96515W        W60239  21.187   9.316  11.102
96516W        W60240   6.731  15.624   3.823
96517W        W60241  15.763   2.904  13.342
96518W        W60242  27.942  12.614  12.342
96519W        W60243  28.091   2.725  14.850
96520W        W60244  43.011  40.015  10.404
96521W        W60245   1.898  35.503  11.521
96522W        W60246   9.281  28.673   3.220
96523W        W60247  25.494   6.708  12.021
96524W        W60248  19.137  24.566  13.819
96525W        W60249  18.784   8.218   4.284
96526W        W60250  21.555  29.920   0.366
96527W        W60251  29.002  41.814  14.764
96528W        W60252  44.945  16.661  12.375
96529W        W60253  38.917  30.082  11.074
96530W        W60254   8.783  10.212   4.188
96531W        W60255  28.171  30.552  11.491
96532W        W60256   4.417  23.638  11.414
96533W        W60257  41.840  23.546  13.984
96534W        W60258   7.362  34.463  13.842
96535W        W60259  30.627  24.108   0.793
96536W        W60260  23.608  39.826   4.200
96537W        W60261  19.636  20.179   5.258
96538W        W60262  34.076  17.223   0.299
96539W        W60263  28.009   0.373  10.577
96540W        W60264   0.269  10.177  13.477
96541W        W60265  32.919  15.741   2.290
96542W        W60266  25.710   4.259   3.188
96543W        W60267  20.163  31.074  13.385
96544W        W60268  43.277  25.182   4.221
96545W        W60269   4.410   0.786   4.257
96546W        W60270  13.336  36.579  13.864
96547W        W60271   1.445  38.845  12.028
96548W        W60272  41.959   8.356  12.417
96549W        W60273  38.912  30.060  13.837
96550W        W60274  10.801  36.464   2.782
96551W        W60275   3.283  36.010  13.873
96552W        W60276  21.735   4.310  12.846
96553W        W60277  25.989  23.052  14.931
96554W        W60278  33.606  40.855   0.735
96555W        W60279   2.734   8.241   3.253
96556W        W60280  29.101  22.590  11.973
96557W        W60281  25.509  20.677   4.644
96558W        W60282   1.286  16.662   2.185
96559W        W60283  30.104  24.546  10.967
96560W        W60284  30.011  41.918  10.972
96561W        W60285  36.086  40.839   3.650
96562W        W60286  24.723  12.746  13.420
96563W        W60287   5.833  24.602  14.802
96564W        W60288  24.570   7.299   3.850
96565W        W60289   4.319  29.633   2.686
96566W        W60290  40.009   0.374  11.563
96567W        W60291  18.769  42.466   1.752
96568W        W60292   7.332  26.195  11.398
96569W        W60293  34.477  16.242  11.120
96570W        W60294  18.773  10.332   0.823
96571W        W60295   2.737   0.904   4.605
96572W        W60296  26.132  37.406   4.711
96573W        W60297  38.561   3.316   0.435
96574W        W60298  40.007  24.713  10.518
96575W        W60299  32.110  10.164   3.660
96576W        W60300   5.339  15.617   2.343
96577W        W60301  23.613   7.865  12.947
96578W        W60302  14.642  15.645   4.245
96579W        W60303  33.056   6.343   4.724
96580W        W60304  26.483  10.737   1.377
96581W        W60305  22.123  17.138  10.493
96582W        W60306   4.743   0.879   3.828
96583W        W60307  20.249  42.951  13.518
96584W        W60308  42.445  19.081  12.058
96585W        W60309  19.214   2.851   3.714
96586W        W60310   4.388  36.538   1.776
96587W        W60311  21.594   4.288   2.274
96588W        W60312   3.940  31.032  13.033
96589W        W60313  42.823  36.425   4.782
96590W        W60314  41.890  30.450   3.668
96591W        W60315  33.916  20.738  14.823
96592W        W60316  34.998  15.752   3.286
96593W        W60317  18.249  21.030   2.286
96594W        W60318  11.272  41.507   4.685
96595W        W60319   8.799   2.846   4.736
96596W        W60320  23.550  37.423  14.351
96597W        W60321   3.779  21.670  11.857
96598W        W60322  16.593  21.559  12.509
96599W        W60323  44.853  44.861  11.128
96600W        W60324   3.910  22.604  12.004
96601W        W60325  24.652  33.111  12.952
96602W        W60326  36.031  31.490  14.339
96603W        W60327  11.740  33.108  11.937
96604W        W60328  26.170  39.379   4.266
96605W        W60329  11.219  25.644   4.758
96606W        W60330  22.547  10.175  14.406
96607W        W60331   5.275  23.014   3.221
96608W        W60332   0.946  42.327  12.026
96609W        W60333  27.578  41.331   3.300
96610W        W60334   0.276   6.397   2.351
96611W        W60335   7.195  28.624   4.350
96612W        W60336   0.436  34.023   1.708
96613W        W60337  43.927  23.031   1.407
96614W        W60338  43.000  24.544  14.432
96615W        W60339  43.347   3.723  13.837
96616W        W60340  37.537  25.671   4.634
96617W        W60341  42.837  30.920   0.791
96618W        W60342  38.518  29.466   3.215
96619W        W60343  34.103  33.944  12.448
96620W        W60344  13.739  32.435   4.213
96621W        W60345  28.599  25.047  12.374
96622W        W60346  24.224  16.813   2.341
96623W        W60347  32.132  35.106  13.044
96624W        W60348  20.083  25.568   4.335
96625W        W60349  28.108  16.772  13.039
96626W        W60350  29.963  30.432  10.549
96627W        W60351  43.378   8.199  11.496
96628W        W60352  25.685  37.938  13.041
96629W        W60353  23.684   7.859   3.823
96630W        W60354  41.861  27.604  13.878
96631W        W60355  17.159  27.687   2.744
96632W        W60356   6.902  32.506  14.316
96633W        W60357  36.843  20.237   4.170
96634W        W60358   3.785  19.751   0.451
96635W        W60359  29.142  42.922   2.797
96636W        W60360   7.257  28.563   0.426
96637W        W60361   0.880  38.824   3.212
96638W        W60362  29.017  42.452  12.561
96639W        W60363  31.030  39.964  11.107
96640W        W60364  30.953  31.991  11.126
96641W        W60365   0.328  22.253   2.832
96642W        W60366  31.535  25.016  12.397
96643W        W60367   3.900  11.219   2.200
96644W        W60368   9.798  24.216  14.873
96645W        W60369  44.320   4.432   2.702
96646W        W60370   2.906  13.790   3.690
96647W        W60371  21.753  33.876   3.340
96648W        W60372  11.166  27.689   0.268
96649W        W60373   5.844  34.017  10.525
96650W        W60374  34.011   6.768  10.458
96651W        W60375  24.566  30.923  14.999
96652W        W60376  15.183  25.502   0.840
96653W        W60377  16.169  18.204   3.370
96654W        W60378   6.245  12.131  11.548
96655W        W60379  37.546  27.101  12.948
96656W        W60380  32.982   1.736   2.418
96657W        W60381   7.768  34.387   2.713
96658W        W60382  39.365  32.919  12.442
96659W        W60383   8.389  15.708   0.738
96660W        W60384  21.578  43.353   2.677
96661W        W60385  41.013   1.852  10.423
96662W        W60386  39.412  14.678   4.338
96663W        W60387  28.058  44.871  13.387
96664W        W60388  34.919  39.358  13.003
96665W        W60389  21.106  10.850   3.719
96666W        W60390  16.077  30.462   2.187
96667W        W60391  12.204   4.877   4.667
96668W        W60392  42.289   7.254   1.302
96669W        W60393  35.928  40.486  12.487
96670W        W60394  18.052   3.786   4.635
96671W        W60395  15.297  41.986  10.598
96672W        W60396  30.991  27.130   1.710
96673W        W60397  13.265  19.145  12.542
96674W        W60398  26.509  42.337  14.368
96675W        W60399  13.807  21.090   0.888
96676W        W60400   7.285  12.221  11.980
96677W        W60401  20.681  25.671  10.935
96678W        W60402  19.556  40.423  13.983
96679W        W60403   8.748  24.513  13.445
96680W        W60404  38.342  37.050  13.995
96681W        W60405   1.890  28.507  14.999
96682W        W60406  25.215   5.374   1.879
96683W        W60407  18.217  10.682   4.316
96684W        W60408  29.496  31.551  13.469
96685W        W60409   2.897   0.910   0.482
96686W        W60410   6.212  36.352   1.394
96687W        W60411  27.616  11.221  14.320
96688W        W60412  39.475  29.614   1.249
96689W        W60413  34.082   3.750   0.838
96690W        W60414   6.423  23.573   1.326
96691W        W60415   8.776   2.243  14.991
96692W        W60416  29.157  41.411  11.894
96693W        W60417   6.425  36.960   0.361
96694W        W60418  44.288  13.233  14.502
96695W        W60419   9.820   3.381   0.735
96696W        W60420  44.287  10.870  13.816
96697W        W60421   7.741   7.675   1.392
96698W        W60422  14.671  37.959  14.992
96699W        W60423  31.143  11.715  10.616
96700W        W60424  18.622  37.883   4.224
96701W        W60425  17.094   6.355   0.826
96702W        W60426   3.887  11.741  10.622
96703W        W60427  20.648  36.533  11.574
96704W        W60428  31.922  27.000  13.325
96705W        W60429  28.165  24.499   4.775
96706W        W60430  10.878   8.296   0.811
96707W        W60431  25.701  32.929  10.638
96708W        W60432  10.854  38.913   0.369
96709W        W60433  20.198   4.212  13.053
96710W        W60434  38.054  40.875   1.739
96711W        W60435  13.775  41.501  13.867
96712W        W60436  33.097  10.146   0.959
96713W        W60437  38.366  24.700   0.818
96714W        W60438  11.829  44.494   3.825
96715W        W60439  40.816  14.280   2.698
96716W        W60440  40.996  38.450  14.476
96717W        W60441  24.698  43.953   1.426
96718W        W60442  19.114  39.922   1.360
96719W        W60443  42.295  22.691   0.835
96720W        W60444  21.659  27.985   1.429
96721W        W60445  10.856  35.411  13.495
96722W        W60446  33.889   8.279   3.667
96723W        W60447  24.567  12.138  11.116
96724W        W60448  20.103  43.350  13.542
96725W        W60449  31.455  11.741  11.123
96726W        W60450   4.311  37.980  11.932
96727W        W60451  39.485  35.572   2.372
96728W        W60452  42.325   6.709   4.158
96729W        W60453  44.849   5.714   0.754
96730W        W60454   8.238  22.181   3.257
96731W        W60455  40.503  16.218  11.060
96732W        W60456  37.946  17.761   0.279
96733W        W60457  12.156  25.635   2.219
96734W        W60458   1.344   4.815  14.307
96735W        W60459  12.199  41.533   3.215
96736W        W60460  44.304  37.842   0.931
96737W        W60461   9.725  25.526  12.931
96738W        W60462  30.537  22.651  10.940
96739W        W60463  13.227  23.132   4.751
96740W        W60464  11.273  34.600  14.959
96741W        W60465  10.642  30.443  11.946
96742W        W60466  26.654  26.989  11.376
96743W        W60467   4.932   0.379  14.893
96744W        W60468  32.059  29.025  14.353
96745W        W60469  44.468  14.302  11.563
96746W        W60470  36.371  26.497  11.576
96747W        W60471  27.660  11.694   0.477
96748W        W60472  39.832  37.054   2.278
96749W        W60473  39.057   5.409  13.361
96750W        W60474  18.168  32.408  12.460
96751W        W60475  11.775  12.273   2.826
96752W        W60476  43.883  12.185   2.685
96753W        W60477  34.986  17.261   4.725
96754W        W60478   4.349   8.742   0.366
96755W        W60479   4.731  10.711  12.568
96756W        W60480   8.681  27.680   3.359
96757W        W60481   5.889   5.760  12.355
96758W        W60482   2.894  32.549  11.880
96759W        W60483  23.185  34.041   0.963
96760W        W60484  12.247  38.463  14.281
96761W        W60485  39.879  20.114  10.890
96762W        W60486  37.975  36.934  13.033
96763W        W60487   4.898  27.991   3.670
96764W        W60488  17.221  10.266   3.220
96765W        W60489   8.206  24.111   1.317
96766W        W60490   7.281  39.461  14.786
96767W        W60491  44.297  30.483  14.988
96768W        W60492  40.967  43.504  14.490
96769W        W60493  27.155   5.887  10.593
96770W        W60494  40.494  16.305   4.825
96771W        W60495  26.992  17.254   0.964
96772W        W60496  37.495  27.960  14.780
96773W        W60497  34.484  31.620  13.963
96774W        W60498  44.894  40.313   2.689
96775W        W60499   4.741  44.953   2.771
96776W        W60500  26.549  43.900  14.890
96777W        W60501  32.035   1.400   3.858
96778W        W60502  30.114  43.422  13.501
96779W        W60503   9.740  23.030   3.158
96780W        W60504  40.964  24.084  12.525
96781W        W60505  23.628  18.079  10.493
96782W        W60506  17.217  37.848   2.208
96783W        W60507  21.640  36.519   2.828
96784W        W60508  10.830  15.681   9.983
96785W        W60509  33.035  34.451   0.943
96786W        W60510  13.669  23.194  11.865
96787W        W60511   1.791  30.438   3.866
96788W        W60512  11.772  36.540  13.341
96789W        W60513  13.756  28.164   3.783
96790W        W60514   8.762  30.488   1.782
96791W        W60515  42.327  38.507  13.494
96792W        W60516  17.573  27.534  13.354
96793W        W60517   7.739  35.872   0.288
96794W        W60518  37.060   3.258  14.970
96795W        W60519  37.946  30.534   1.830
96796W        W60520   0.397  14.737   1.744
96797W        W60521  28.601  41.370   0.390
96798W        W60522   2.271   4.843  12.994
96799W        W60523   9.842  30.039   4.188
96800W        W60524   3.409  38.452   3.281
96801W        W60525   3.764  35.016   4.120
96802W        W60526   9.305  28.639  14.868
96803W        W60527  30.604  12.815   4.833
96804W        W60528  36.424   3.918   3.829
96805W        W60529  20.083  15.696  14.909
96806W        W60530  28.138  38.418   0.481
96807W        W60531   5.218  22.015   3.848
96808W        W60532  30.142  23.517  12.578
96809W        W60533  15.610  10.353   3.676
96810W        W60534  21.084  27.478   2.213
96811W        W60535  44.929  44.878  13.909
96812W        W60536  15.236   8.876  14.308
96813W        W60537  22.562   2.273  14.765
96814W        W60538  31.905   3.931  11.374
96815W        W60539  23.033  17.703   1.430
96816W        W60540  10.212  34.996   1.409
96817W        W60541   1.264  38.979  14.363
96818W        W60542  44.764   4.936  13.850
96819W        W60543  38.490  32.396   0.808
96820W        W60544  36.974   1.412  10.992
96821W        W60545  14.296   0.293  12.430
96822W        W60546   7.719  18.783  10.469
96823W        W60547   6.250   9.753  14.853
96824W        W60548   3.736  16.154  11.377
96825W        W60549  33.385  37.563   3.829
96826W        W60550  30.598   4.379  12.025
96827W        W60551  32.924  39.014   3.827
96828W        W60552  11.728   1.369   2.205
96829W        W60553  38.487  35.574   4.199
96830W        W60554  16.182  24.123  11.012
96831W        W60555  22.614  15.788   2.370
96832W        W60556   4.726  16.681   0.898
96833W        W60557  44.867   8.798   1.718
96834W        W60558  14.729  30.450   2.723
96835W        W60559   3.431  13.299   2.315
96836W        W60560  19.058  43.939   3.798
96837W        W60561   8.660  26.553  12.872
96838W        W60562  42.800  43.963  13.862
96839W        W60563  38.965  40.479  11.395
96840W        W60564  41.342  16.110   1.748
96841W        W60565  30.072  30.997   0.298
96842W        W60566   5.803  25.041   4.739
96843W        W60567   7.805  32.947  12.909
96844W        W60568   4.818  14.294  10.055
96845W        W60569  24.221  39.463   0.915
96846W        W60570  37.461  28.497   4.199
96847W        W60571  15.214   0.847   3.185
96848W        W60572  16.234  33.575  13.465
96849W        W60573  31.479  28.098   2.339
96850W        W60574  19.250   9.732  14.370
96851W        W60575  31.049  20.718   2.261
96852W        W60576  14.310  41.414   2.370
96853W        W60577  43.319  28.536   2.740
96854W        W60578  17.092  17.304  14.473
96855W        W60579  44.364   3.304   2.729
96856W        W60580  29.537  40.498  10.521
96857W        W60581  25.575  34.610   3.756
96858W        W60582   2.275  42.482   0.385
96859W        W60583  43.431   0.843   0.287
96860W        W60584  10.202  27.658  13.031
96861W        W60585  35.530  39.500   1.741
96862W        W60586  25.050  40.410   4.800
96863W        W60587  26.021  19.275  10.612
96864W        W60588  36.394  25.645   2.324
96865W        W60589   0.884  41.536  14.026
96866W        W60590  23.066  17.274   2.246
96867W        W60591  27.023  14.630  13.844
96868W        W60592  10.711  28.049   3.853
96869W        W60593  13.648   8.841  11.029
96870W        W60594  28.996   1.416   3.214
96871W        W60595  38.850  10.844  13.395
96872W        W60596  13.638   1.392   3.644
96873W        W60597  38.028  15.616  12.361
96874W        W60598  29.542  18.255   3.733
96875W        W60599  13.773  20.221  14.430
96876W        W60600  37.070  13.261   3.362
96877W        W60601  15.328   1.791   3.192
96878W        W60602  42.032  44.403  14.025
96879W        W60603   3.231  31.469   3.832
96880W        W60604  20.100   6.238   1.858
96881W        W60605  34.039  41.349   2.862
96882W        W60606   6.702   6.789  14.475
96883W        W60607  41.934  19.717   2.234
96884W        W60608  35.371   0.820  14.367
96885W        W60609  44.858  17.175   4.233
96886W        W60610   4.819  41.030  11.006
96887W        W60611   1.376  33.508   4.653
96888W        W60612  15.621  16.639   2.829
96889W        W60613  19.762  40.544  12.397
96890W        W60614  17.560  21.630   4.786
96891W        W60615  15.115  21.078   0.412
96892W        W60616  24.085  39.446   1.303
96893W        W60617  13.333  42.470   4.311
96894W        W60618  30.147  44.881  11.569
96895W        W60619  34.553  35.926   1.929
96896W        W60620  39.011  44.395   2.900
96897W        W60621  17.610   7.708  14.812
96898W        W60622   4.340  37.512  10.921
96899W        W60623   9.249  35.874  10.508
96900W        W60624  34.073  17.288   5.211
96901W        W60625  23.082  38.941  13.421
96902W        W60626  28.466  37.965  12.517
96903W        W60627  37.537  29.586  11.067
96904W        W60628  21.600   5.342  10.989
96905W        W60629   7.365  33.595   4.340
96906W        W60630  26.613  28.657   1.883
96907W        W60631  29.093  39.054   2.786
96908W        W60632  35.005  38.889   0.793
96909W        W60633   2.361   6.284   1.816
96910W        W60634   6.210  34.384  10.505
96911W        W60635  16.150  27.159   3.308
96912W        W60636   0.805  14.227  12.929
96913W        W60637  36.375  44.855  14.869
96914W        W60638   4.875  30.446  14.415
96915W        W60639  19.579  44.306  14.364
96916W        W60640   6.755   3.353   2.393
96917W        W60641  36.935   1.954   0.301
96918W        W60642  32.422   4.449  10.474
96919W        W60643  41.334  21.226  13.477
96920W        W60644  20.193  15.613   3.248
96921W        W60645  20.070  19.211   0.851
96922W        W60646   8.705  18.249   1.264
96923W        W60647  26.078  21.525   2.350
96924W        W60648  17.286  17.782   3.704
96925W        W60649   3.251  25.598  14.019
96926W        W60650  39.547  18.168   3.166
96927W        W60651  43.894  38.900  10.912
96928W        W60652  25.062  42.516   1.719
96929W        W60653   9.356  12.700   5.214
96930W        W60654  29.553  17.634  12.856
96931W        W60655  28.966   9.712  12.082
96932W        W60656  10.281  41.521  12.889
96933W        W60657  32.495  20.248   1.221
96934W        W60658  20.248  22.011  13.002
96935W        W60659  14.749  19.187  11.391
96936W        W60660  11.203  27.147  11.540
96937W        W60661  44.441   7.344  11.958
96938W        W60662  14.114  34.582   3.211
96939W        W60663  27.676   1.252  12.033
96940W        W60664   5.920   5.928   1.803
96941W        W60665  38.501  41.018   3.862
96942W        W60666  28.507  37.831  12.861
96943W        W60667  41.454   2.759  10.514
96944W        W60668   2.406  39.986  11.475
96945W        W60669  20.567  29.510  14.417
96946W        W60670  22.215  36.467  11.888
96947W        W60671  44.485  17.126   4.651
96948W        W60672  31.140  32.921  10.481
96949W        W60673  43.767  26.634   2.842
96950W        W60674  31.153  13.160   4.259
96951W        W60675  38.839  26.086  11.059
96952W        W60676   3.787  17.668  14.909
96953W        W60677  17.640  41.495  11.103
96954W        W60678  23.227  38.917  10.969
96955W        W60679  14.600  12.320  14.016
96956W        W60680   9.334   5.277  13.829
96957W        W60681  27.951  21.160  10.892
96958W        W60682   5.817  44.800  12.992
96959W        W60683  37.357  35.858  11.869
96960W        W60684  12.360  18.202   2.320
96961W        W60685  27.966  20.753  12.866
96962W        W60686  30.582  31.599  13.831
96963W        W60687   4.838  31.141  10.473
96964W        W60688  13.195  12.329  12.932
96965W        W60689  30.997  35.427   3.837
96966W        W60690  22.694  12.854   4.222
96967W        W60691  35.411  12.265   1.895
96968W        W60692  14.740  16.148   1.827
96969W        W60693  14.171   1.966  12.448
96970W        W60694  41.809  27.001   1.347
96971W        W60695  23.010  31.068  13.025
96972W        W60696  17.642   6.699   3.650
96973W        W60697  25.133  41.446   4.153
96974W        W60698  39.436   7.850   4.695
96975W        W60699  31.026  15.596   9.979
96976W        W60700  11.710  31.439   3.666
96977W        W60701  23.171  21.072  13.411
96978W        W60702  18.116  23.047   2.383
96979W        W60703  38.031  43.935   5.153
96980W        W60704   6.855  31.937   2.221
96981W        W60705   0.271   3.838  14.412
96982W        W60706  44.841  20.713  13.375
96983W        W60707   4.854   5.389   1.297
96984W        W60708  20.055  30.055  12.889
96985W        W60709   7.327  44.923   3.695
96986W        W60710   1.338  23.006  12.525
96987W        W60711  13.237  28.087  12.528
96988W        W60712  42.933  15.672   1.869
96989W        W60713  44.310  22.704   1.240
96990W        W60714   8.300   6.761  14.937
96991W        W60715   3.953  24.026   1.721
96992W        W60716  15.607  17.264  14.828
96993W        W60717   3.372  44.999  10.612
96994W        W60718  32.966  29.630  11.007
96995W        W60719  17.732  14.796   2.755
96996W        W60720   2.268  33.017   3.339
96997W        W60721  28.080  19.246   1.896
96998W        W60722  30.930   9.816  13.356
96999W        W60723  10.766  18.191   4.800
97000W        W60724  27.150  22.531   3.373
97001W        W60725  40.384   1.319  10.990
97002W        W60726  11.840  31.580   1.401
97003W        W60727  17.563  10.262   0.469
97004W        W60728  21.140  18.741   3.237
97005W        W60729  30.034  30.109   0.861
97006W        W60730   1.369  13.802  13.050
97007W        W60731  16.797  14.257   1.220
97008W        W60732  12.145   6.223   3.377
97009W        W60733  29.647  44.338   4.621
97010W        W60734  39.824  26.171  12.466
97011W        W60735  30.494   2.336   3.151
97012W        W60736  12.238  37.571  10.480
97013W        W60737  37.543  42.857   4.637
97014W        W60738  34.903  29.509   4.650
97015W        W60739  39.388  16.766   0.947
97016W        W60740  11.848   9.389  10.565
97017W        W60741  13.831  36.091   2.359
97018W        W60742   0.792  31.096   0.954
97019W        W60743   9.793  36.511   1.448
97020W        W60744  15.804  14.716  12.359
97021W        W60745   0.848  23.672  13.514
97022W        W60746  11.349  40.950   1.900
97023W        W60747  40.933  29.941   3.368
97024W        W60748  14.594  32.054   1.790
97025W        W60749  25.085  24.564   3.678
97026W        W60750  23.009   2.239  13.385
97027W        W60751  19.575  28.540   3.340
97028W        W60752  11.691  33.588  10.553
97029W        W60753  40.819   0.327   1.305
97030W        W60754  21.611  10.729  12.873
97031W        W60755   9.644  13.643  12.940
97032W        W60756   6.910   1.815   0.794
97033W        W60757  40.806  39.365   0.745
97034W        W60758   9.327   0.385   0.300
97035W        W60759  16.782   4.808   2.717
97036W        W60760  16.587  16.764   9.556
97037W        W60761  11.777   9.706  11.547
97038W        W60762  11.162   7.676  12.833
97039W        W60763  38.971  30.052  12.351
97040W        W60764  22.066  44.943   2.245
97041W        W60765  17.254  22.247   1.322
97042W        W60766  19.677   4.760   1.323
97043W        W60767   4.738  33.442   1.271
97044W        W60768  40.508   5.878  13.351
97045W        W60769  26.525  19.672  13.459
97046W        W60770   7.669  43.004  13.004
97047W        W60771  26.654  44.360  11.578
97048W        W60772   4.887   4.797  10.100
97049W        W60773  19.610  35.496   0.336
97050W        W60774  23.170  17.577  14.418
97051W        W60775   2.944  40.921   1.419
97052W        W60776   8.261  41.884  12.838
97053W        W60777  34.061  12.213   3.726
97054W        W60778  34.945  42.449   1.752
97055W        W60779  26.113  16.673   0.877
97056W        W60780  19.262  14.787  11.421
97057W        W60781  44.975   2.306  14.357
97058W        W60782   3.879  26.181   3.639
97059W        W60783  33.387  40.452   1.704
97060W        W60784  29.077  21.583  14.492
97061W        W60785   0.945  27.454  12.027
97062W        W60786  41.965  15.716   4.785
97063W        W60787  27.682  35.862   4.689
97064W        W60788   3.812  30.039   1.358
97065W        W60789  28.531   2.961   3.208
97066W        W60790  26.541  25.980   3.189
97067W        W60791  16.692   5.350   3.819
97068W        W60792  35.018  44.417  14.391
97069W        W60793  27.614  28.564   3.777
97070W        W60794  18.288  32.038  12.054
97071W        W60795  12.233  10.673  12.540
97072W        W60796  24.162   0.912  10.552
97073W        W60797  42.830  19.164  14.885
97074W        W60798  19.130  31.068  14.349
97075W        W60799  19.154  21.564   2.414
97076W        W60800  18.145  30.444   2.400
97077W        W60801  27.192  15.744   1.879
97078W        W60802  37.875  30.078   1.744
97079W        W60803  30.520  35.085   0.248
97080W        W60804  30.585  38.533   2.827
97081W        W60805  23.208  39.983  14.483
97082W        W60806  40.507  31.945  14.376
97083W        W60807  10.320  42.851  11.590
97084W        W60808  28.517  35.041   3.275
97085W        W60809   0.470  44.836  11.976
97086W        W60810  32.115  16.139   0.878
97087W        W60811  25.600   2.918  12.576
97088W        W60812   3.294  37.339   0.269
97089W        W60813   3.942  15.718   0.361
97090W        W60814  33.100  43.333  11.414
97091W        W60815  31.955   3.357  12.051
97092W        W60816  12.832  11.632  12.923
97093W        W60817  24.715   9.340  12.049
97094W        W60818  30.581  14.267  14.445
97095W        W60819  28.524   5.708  14.483
97096W        W60820   2.829  40.330  14.898
97097W        W60821  11.284   1.325  13.400
97098W        W60822  41.861   9.863  13.960
97099W        W60823  17.798  13.136   3.277
97100W        W60824  23.154  34.522   3.718
97101W        W60825   4.231  38.373   4.226
97102W        W60826  12.734  11.649   3.245
97103W        W60827  38.030  16.596   3.233
97104W        W60828   9.317  27.639   4.811
97105W        W60829   0.347  27.457  11.933
97106W        W60830  21.569  28.473  10.437
97107W        W60831  34.114   3.936  11.973
97108W        W60832  30.597  31.434   4.207
97109W        W60833  26.505  17.238   4.152
97110W        W60834  25.033  20.558   3.259
97111W        W60835  43.447  42.896  12.410
97112W        W60836  40.433   0.321   2.263
97113W        W60837  13.214   1.359   3.719
97114W        W60838  37.925  29.103  10.054
97115W        W60839  30.584  34.452  14.464
97116W        W60840  31.982   2.353  13.532
97117W        W60841  41.330  35.520   2.288
97118W        W60842   6.911  39.557   4.628
97119W        W60843  20.198  36.591  11.402
97120W        W60844  24.646  33.036   2.403
97121W        W60845  44.502   6.319   2.843
97122W        W60846  31.523   8.898  13.996
97123W        W60847  30.598  15.605  13.397
97124W        W60848  32.058  37.939   3.833
97125W        W60849  42.402  29.951   1.305
97126W        W60850  19.711  42.973   3.223
97127W        W60851  38.534  32.453  13.924
97128W        W60852  29.587  10.762  10.139
97129W        W60853  15.174  28.631   0.273
97130W        W60854  24.068  21.696   3.290
97131W        W60855   0.907  27.655   2.288
97132W        W60856  31.558   5.344  13.355
97133W        W60857  16.193  28.066   3.348
97134W        W60858  26.015   2.732   1.368
97135W        W60859  20.151   9.340   3.374
97136W        W60860   8.221  13.816   2.410
97137W        W60861   5.720   8.749   4.775
97138W        W60862  12.298  24.186  14.850
97139W        W60863  38.917   1.942   4.626
97140W        W60864   0.404  25.190  13.042
97141W        W60865  15.678  26.127  10.148
97142W        W60866   6.382  26.120   2.181
97143W        W60867   7.409   3.832   2.742
97144W        W60868  27.662   8.372   4.210
97145W        W60869  36.460  30.925  14.766
97146W        W60870  29.455  44.924  10.428
97147W        W60871   3.417  37.542  14.763
97148W        W60872  36.983  24.530  11.919
97149W        W60873  29.097  23.557   4.678
97150W        W60874  14.775  41.404   3.314
97151W        W60875   0.460   2.856  13.496
97152W        W60876  19.737  30.591  14.281
97153W        W60877  35.508  43.362  11.027
97154W        W60878  34.606  43.875  11.907
97155W        W60879  13.669  36.071  14.310
97156W        W60880  41.932  30.470  14.769
97157W        W60881  12.274  24.172   1.840
97158W        W60882  13.728  33.579  14.966
97159W        W60883   6.352  12.657   2.231
97160W        W60884  32.930   2.742   0.439
97161W        W60885  38.346  36.952  11.549
97162W        W60886  20.636  26.683  12.866
97163W        W60887  34.467   4.342  14.812
97164W        W60888   9.187   7.271   4.657
97165W        W60889  43.316   4.721   2.347
97166W        W60890  32.967   6.813  13.502
97167W        W60891  36.947  13.773   4.280
97168W        W60892  18.117  39.987   4.633
97169W        W60893   4.426   2.917   1.362
97170W        W60894  33.603  19.242   3.650
97171W        W60895  39.843   0.888  10.554
97172W        W60896   5.298  41.476  13.872
97173W        W60897   9.833   9.219   1.872
97174W        W60898  37.549  21.029  13.015
97175W        W60899   1.391  34.876   3.175
97176W        W60900  39.822  29.167  11.105
97177W        W60901  12.248   4.416  12.983
97178W        W60902  12.783  38.944   0.948
97179W        W60903  28.679  41.815   2.211
97180W        W60904  34.061  34.436  14.311
97181W        W60905  43.898   9.292   3.674
97182W        W60906  19.084  20.121  11.496
97183W        W60907  32.991   7.240  10.949
97184W        W60908  30.014  42.966   3.653
97185W        W60909  28.587  22.043   1.244
97186W        W60910  25.482  30.554  11.375
97187W        W60911   8.780   7.367  11.547
97188W        W60912  44.918  13.106  14.832
97189W        W60913   8.372  34.585  14.410
97190W        W60914  12.149   4.237   1.726
97191W        W60915  14.621  21.550  11.435
97192W        W60916  43.449  34.046  10.024
97193W        W60917   8.822  42.905  11.465
97194W        W60918  20.210  43.316  12.409
97195W        W60919  11.260  24.638   0.377
97196W        W60920  38.366  21.514   4.250
97197W        W60921  39.051  16.617  14.030
97198W        W60922  20.712  38.563  14.494
97199W        W60923  34.868  38.843  12.063
97200W        W60924  28.636  23.544  13.337
97201W        W60925  38.422  16.663  12.019
97202W        W60926  32.516   5.904   4.165
97203W        W60927  31.959  40.356   5.158
97204W        W60928  18.065  36.454   1.695
97205W        W60929  10.299   1.336   0.320
97206W        W60930   6.807  15.163  12.424
97207W        W60931   7.184  27.954  14.399
97208W        W60932  36.045  38.016  12.547
97209W        W60933   0.293  33.400   1.704
97210W        W60934  11.744  43.961  14.841
97211W        W60935  37.925  26.466  12.937
97212W        W60936  12.198   7.251  13.060
97213W        W60937  32.549   4.345   2.843
97214W        W60938   1.779  42.974   3.744
97215W        W60939  21.129   0.301   3.660
97216W        W60940  29.563  30.933   3.768
97217W        W60941  17.747  38.440  11.065
97218W        W60942  32.393  19.694   2.671
97219W        W60943  19.728  14.743   4.272
97220W        W60944  33.420  22.242  13.025
97221W        W60945  27.509  31.959  10.461
97222W        W60946  28.492  25.093   3.853
97223W        W60947  23.626  29.098   1.296
97224W        W60948  32.399   0.904  11.923
97225W        W60949  13.634  18.559   2.290
97226W        W60950  31.940  12.744   4.114
97227W        W60951  39.481  27.152  13.408
97228W        W60952   5.305  16.101  12.057
97229W        W60953  20.581  24.614   0.392
97230W        W60954  11.672  12.815  11.385
97231W        W60955   4.269   6.827   1.410
97232W        W60956  29.088  28.486  13.510
97233W        W60957   3.730  44.450   4.709
97234W        W60958  16.711  44.935  11.455
97235W        W60959  44.479   1.932  10.006
97236W        W60960  34.994   8.760  14.438
97237W        W60961  15.769  14.668   4.260
97238W        W60962  42.333  40.984   4.721
97239W        W60963  15.766  33.583   1.307
97240W        W60964  19.758  31.575   2.333
97241W        W60965   3.891  19.272   3.760
97242W        W60966  38.027   0.929  13.339
97243W        W60967  27.153  41.005  11.420
97244W        W60968   5.901  23.588   3.725
97245W        W60969  24.667  15.325  13.980
97246W        W60970  39.524  22.638   3.223
97247W        W60971  36.483  39.897   3.721
97248W        W60972   2.257  34.025  13.392
97249W        W60973  31.993  20.730  14.815
97250W        W60974  28.176  15.718   4.194
97251W        W60975   3.371  31.117   1.767
97252W        W60976   2.390   7.315  11.432
97253W        W60977  35.508  41.512  14.379
97254W        W60978  27.990  40.969  14.297
97255W        W60979  14.186  26.174  11.602
97256W        W60980  20.236  13.626  11.541
97257W        W60981   0.346  40.975   2.778
97258W        W60982  32.567  16.232  12.012
97259W        W60983   9.286  19.743   2.261
97260W        W60984  35.992  40.303   2.890
97261W        W60985  36.407  31.453   0.959
97262W        W60986  22.148  32.531   1.405
97263W        W60987  30.508  20.736   4.734
97264W        W60988  24.586  37.933  13.455
97265W        W60989  21.156  28.933  11.403
97266W        W60990  23.714   3.710  12.942
97267W        W60991  19.184  15.809   0.467
97268W        W60992  21.028   9.843  11.454
97269W        W60993  37.045  14.239  12.900
97270W        W60994  26.109   2.758  13.333
97271W        W60995   5.750  25.097  13.444
97272W        W60996  26.464  32.078   3.720
97273W        W60997  33.993  18.058  14.906
97274W        W60998  38.834   4.872   0.406
97275W        W60999  38.886  28.095  11.920
97276W        W61000  13.121  12.276   0.294
97277W        W61001  27.461   6.683  10.467
97278W        W61002  43.328  20.184   4.273
97279W        W61003  29.590   4.286  11.481
97280W        W61004  22.538  19.129  14.486
97281W        W61005  22.192   3.430  13.815
97282W        W61006  30.431  12.855  11.613
97283W        W61007   1.870  33.465   1.270
97284W        W61008  37.463  35.512   1.799
97285W        W61009  26.701  20.269  10.407
97286W        W61010  44.887  16.675  10.564
97287W        W61011  37.530  26.189  12.044
97288W        W61012  33.112  42.018   2.820
97289W        W61013   9.307  29.591   0.481
97290W        W61014   6.915  16.197   3.746
97291W        W61015  32.413  44.788   4.837
97292W        W61016  12.686  16.254   2.697
97293W        W61017  26.480   1.825   4.227
97294W        W61018  43.900  26.682  10.944
97295W        W61019  17.697  18.148   2.866
97296W        W61020  21.118  42.986  10.459
97297W        W61021   4.700  16.315  11.914
97298W        W61022  33.100  26.082  12.473
97299W        W61023  43.010  10.293   0.243
97300W        W61024  18.190  34.611  14.368
97301W        W61025   1.264  30.466  11.543
97302W        W61026  18.293  10.770  13.331
97303W        W61027  42.898  26.463   4.760
97304W        W61028   2.837  12.628  14.861
97305W        W61029  40.525  42.518   4.251
97306W        W61030   0.849  38.002   1.367
97307W        W61031  37.494  26.587   1.362
97308W        W61032  12.314  15.601   1.300
97309W        W61033  39.495  24.590   0.411
97310W        W61034  14.308  21.147  11.579
97311W        W61035  26.049  13.601   3.243
97312W        W61036  26.021  18.613   4.686
97313W        W61037   0.812  14.099  10.129
97314W        W61038  17.745  39.496   1.928
97315W        W61039   1.456  20.765   4.655
97316W        W61040   0.255  34.030  12.008
97317W        W61041  16.718   0.750  13.905
97318W        W61042  30.119  31.553  12.892
97319W        W61043  25.139  10.140  13.372
97320W        W61044  13.289  41.298   4.304
97321W        W61045  22.601  14.607   0.957
97322W        W61046   6.892  10.165  14.958
97323W        W61047  20.041  20.220  13.343
97324W        W61048  10.709  17.637  14.807
97325W        W61049  32.001  18.707  11.076
97326W        W61050  16.697   0.950   2.280
97327W        W61051  16.797  27.530   1.703
97328W        W61052  30.458  17.300  11.449
97329W        W61053  19.066  41.824   0.358
97330W        W61054  27.158  19.727   4.618
97331W        W61055  18.161  44.819  13.480
97332W        W61056  13.719  30.450   0.942
97333W        W61057  23.547  24.531   4.342
97334W        W61058  38.945  16.700  11.923
97335W        W61059  17.610  43.386  10.473
97336W        W61060  39.362  10.871   1.779
97337W        W61061  30.969   5.283   0.828
97338W        W61062  41.002  26.035  12.365
97339W        W61063  15.672  28.486  14.435
97340W        W61064  28.149  25.478   1.244
97341W        W61065   0.330  18.056  14.976
97342W        W61066  37.512  14.207  11.549
97343W        W61067  10.229  15.742  10.511
97344W        W61068  29.616  26.552   1.770
97345W        W61069  37.952   0.457  14.957
97346W        W61070  32.048  27.605  12.459
97347W        W61071  32.457   0.978   1.763
97348W        W61072  34.994  27.029  11.471
97349W        W61073   2.311  33.895  14.435
97350W        W61074  32.418  37.857  13.354
97351W        W61075  34.564   8.758  11.911
97352W        W61076  23.012  24.481   2.776
97353W        W61077  23.234   7.206  13.495
97354W        W61078  11.354   9.367   1.282
97355W        W61079  19.121  17.070   5.126
97356W        W61080  32.403   6.783   0.397
97357W        W61081  36.348  27.181   3.829
97358W        W61082  20.573  22.135  11.402
97359W        W61083  13.721  32.603   2.826
97360W        W61084  40.932  10.289  10.465
97361W        W61085  34.555  30.640  12.865
97362W        W61086  38.340  19.209  10.477
97363W        W61087   6.343  36.490   4.162
97364W        W61088  35.436  37.396   1.360
97365W        W61089  30.421  28.603   2.729
97366W        W61090   2.855  35.435  11.989
97367W        W61091  24.977  26.477  14.971
97368W        W61092  20.080  34.097   0.470
97369W        W61093   2.457  10.282   3.338
97370W        W61094   3.794  43.838   1.274
97371W        W61095   3.247  36.952  11.878
97372W        W61096  42.341  38.503   0.362
97373W        W61097  23.567  27.650  12.072
97374W        W61098  13.159  42.949  12.074
97375W        W61099  10.208  44.955  12.512
97376W        W61100  19.747  14.187  14.442
97377W        W61101  40.341  33.128   0.311
97378W        W61102  43.978  25.644  14.012
97379W        W61103  35.507  32.062  12.845
97380W        W61104  19.769  32.597  11.536
97381W        W61105   0.459  34.882  12.934
97382W        W61106   2.852  40.475   0.439
97383W        W61107  24.135  24.996  12.932
97384W        W61108  34.527  23.724  11.036
97385W        W61109  39.831  22.035  12.418
97386W        W61110  22.007  38.925  12.555
97387W        W61111  28.618  39.824   4.668
97388W        W61112  15.605   2.905   0.925
97389W        W61113  28.672   1.433   0.808
97390W        W61114  42.470  15.273   0.335
97391W        W61115  20.645  26.114   0.872
97392W        W61116  30.424   0.773  12.365
97393W        W61117  34.377  17.735   1.745
97394W        W61118  35.008  31.614  13.983
97395W        W61119   1.973  28.166   1.875
97396W        W61120  15.738  35.087   1.733
97397W        W61121  12.359  29.490  12.913
97398W        W61122  25.066  33.116  13.458
97399W        W61123  43.900  33.468   0.346
97400W        W61124  31.054   7.736  14.495
97401W        W61125  28.008  18.140  12.566
97402W        W61126  27.516   9.229   1.935
97403W        W61127  22.048  21.544  13.342
97404W        W61128  10.153   9.208   1.891
97405W        W61129  18.785  18.693  14.020
97406W        W61130  28.632   1.843  14.980
97407W        W61131  23.008  28.461  11.869
97408W        W61132  18.582  38.824   1.744
97409W        W61133   1.354   1.924   0.954
97410W        W61134  21.571  22.214  11.063
97411W        W61135  22.588   2.865   2.303
97412W        W61136   4.808  38.344  11.895
97413W        W61137  26.113  10.840   3.245
97414W        W61138  35.504  19.697  13.456
97415W        W61139  14.297  44.302   2.855
97416W        W61140  30.593  32.616  10.631
97417W        W61141  42.391   1.826   4.702
97418W        W61142  25.043   8.390  14.021
97419W        W61143  12.648  33.611  10.612
97420W        W61144   7.224   1.944   2.714
97421W        W61145  33.982  13.311  11.502
97422W        W61146  10.363  27.457  14.446
97423W        W61147  12.337  21.079   4.782
97424W        W61148  39.543   8.330   0.773
97425W        W61149   2.939  34.948  11.089
97426W        W61150  37.019  33.081  13.497
97427W        W61151  44.428  21.258  14.441
97428W        W61152  40.500  42.431  14.349
97429W        W61153   0.279   3.459   2.252
97430W        W61154  33.875  15.215  11.929
97431W        W61155   2.762  29.017  11.070
97432W        W61156  32.624  22.578   2.412
97433W        W61157  38.873   9.717   3.634
97434W        W61158  27.967  23.625  14.992
97435W        W61159  44.383  25.681   1.245
97436W        W61160  37.365  29.471   1.339
97437W        W61161  15.131  18.232   0.901
97438W        W61162  12.139  37.854   0.865
97439W        W61163   7.712  13.725  12.875
97440W        W61164  44.364   9.223   0.813
97441W        W61165  34.918  33.918  14.494
97442W        W61166  19.564   5.731   0.367
97443W        W61167   1.927   4.440  11.443
97444W        W61168  33.117  18.572   0.738
97445W        W61169   0.463  42.859  14.870
97446W        W61170  40.474   4.329   2.371
97447W        W61171  40.807   8.225   2.777
97448W        W61172  37.833  42.455   2.832
97449W        W61173  42.973  33.025  13.929
97450W        W61174  25.963  37.548  10.611
97451W        W61175  32.992   8.393  12.477
97452W        W61176   0.820  20.231   0.450
97453W        W61177  31.091  37.913  12.945
97454W        W61178  38.511   6.342   2.236
97455W        W61179  42.020  31.996  12.971
97456W        W61180  12.738  23.064   1.779
97457W        W61181  25.127  10.188  11.495
97458W        W61182  16.575   7.180   0.763
97459W        W61183  27.082  29.941   0.868
97460W        W61184  16.627  34.550  12.834
97461W        W61185   8.715  37.831  11.929
97462W        W61186  10.236  26.562   1.758
97463W        W61187  32.569  43.949  12.350
97464W        W61188  12.298  35.016  12.885
97465W        W61189   6.251  16.584  14.858
97466W        W61190  14.177   2.797   5.247
97467W        W61191  22.613  10.739   3.373
97468W        W61192  22.232  39.360  11.982
97469W        W61193  15.628  10.749   1.784
97470W        W61194  14.313  29.622   4.299
97471W        W61195  22.128  34.077   2.831
97472W        W61196  27.448  42.453   1.306
97473W        W61197   9.318  14.264   4.662
97474W        W61198  10.159  13.285   3.862
97475W        W61199  39.856   1.387  14.286
97476W        W61200  42.906   3.454  10.644
97477W        W61201  32.964  33.942  11.507
97478W        W61202  42.383  14.662   1.327
97479W        W61203  34.107  37.903  14.384
97480W        W61204   8.379  20.169  12.475
97481W        W61205  13.770   2.457   5.123
97482W        W61206  28.674  36.955   1.907
97483W        W61207  41.800  36.464  11.932
97484W        W61208  43.339  44.783  13.935
97485W        W61209  41.342  21.675   0.901
97486W        W61210  37.948  23.659   4.155
97487W        W61211  33.097   9.758  13.537
97488W        W61212  41.039  34.930  11.408
97489W        W61213  35.095  42.807  12.885
97490W        W61214   6.214  36.910   4.684
97491W        W61215   1.968   3.802  12.428
97492W        W61216  44.275  44.813  11.076
97493W        W61217  22.050  38.326  10.634
97494W        W61218  28.072  40.322   4.655
97495W        W61219  26.972   1.929  10.570
97496W        W61220   1.452  35.419   2.373
97497W        W61221  19.560  33.052  14.403
97498W        W61222  40.408  20.744  13.040
97499W        W61223  20.055  21.713  12.983
97500W        W61224  11.786   7.389  10.959
97501W        W61225  18.610   2.913  12.405
97502W        W61226  38.027  35.485   4.767
97503W        W61227  32.991  11.156  13.946
97504W        W61228  42.443  24.632  12.012
97505W        W61229  37.841  14.778  13.343
97506W        W61230  34.031  30.534   0.796
97507W        W61231  22.998   0.899  13.914
97508W        W61232   0.381  27.044  12.514
97509W        W61233  26.074  40.546   4.251
97510W        W61234  25.582   7.759  13.327
97511W        W61235  10.872  32.001  13.896
97512W        W61236   2.916  21.644   4.682
97513W        W61237  29.965  42.889   2.366
97514W        W61238  29.036   2.880   4.815
97515W        W61239   5.795   7.350  13.794
97516W        W61240  13.778  28.588   1.775
97517W        W61241   4.910  25.992   0.364
97518W        W61242  27.026  16.731   2.811
97519W        W61243  42.433  20.588   3.236
97520W        W61244  37.435   6.717   2.678
97521W        W61245  20.129  34.094  11.860
97522W        W61246  44.803   8.824  14.844
97523W        W61247  44.399  14.685   3.306
97524W        W61248  33.952  15.295  11.105
97525W        W61249  23.140   8.279  14.434
97526W        W61250  43.486  11.832  14.897
97527W        W61251  20.256  38.879  13.941
97528W        W61252  30.996  31.969   4.747
97529W        W61253   2.433  37.057  13.923
97530W        W61254  43.500  32.485  12.518
97531W        W61255  30.637   1.789   1.890
97532W        W61256   9.302  21.211  12.373
97533W        W61257  42.368   6.312  12.367
97534W        W61258  12.629  44.279   0.427
97535W        W61259   3.755  37.402   0.351
97536W        W61260  27.988   0.804   2.809
97537W        W61261  30.653   1.968  12.907
97538W        W61262  22.171   9.274   0.451
97539W        W61263  19.215  37.466   1.718
97540W        W61264  42.442  35.509  11.068
97541W        W61265  22.523  44.275  11.600
97542W        W61266  42.388  37.407   0.779
97543W        W61267  18.599  32.945  14.781
97544W        W61268  34.456  19.214  12.371
97545W        W61269  40.915  42.874   2.374
97546W        W61270  19.666   4.760  10.902
97547W        W61271  18.633   4.279   3.231
97548W        W61272  33.910  21.055   3.319
97549W        W61273   6.780   2.721   3.861
97550W        W61274   5.797  34.888   0.370
97551W        W61275  16.180  14.304  12.423
97552W        W61276  25.036  35.892  13.468
97553W        W61277  21.222  34.377  11.481
97554W        W61278  29.977  40.928   4.118
97555W        W61279   6.745   0.939   4.781
97556W        W61280  42.338  11.185   2.766
97557W        W61281  19.760   7.862   3.217
97558W        W61282  39.951  10.169  11.121
97559W        W61283  33.127   1.287  10.951
97560W        W61284  28.467  22.062   2.714
97561W        W61285  29.584  38.046   4.721
97562W        W61286   0.294  20.589  13.438
97563W        W61287  12.663   5.234  12.013
97564W        W61288  20.639  37.367   3.734
97565W        W61289   6.920  11.265  12.841
97566W        W61290  37.943  13.733   4.278
97567W        W61291   5.905  16.710  11.917
97568W        W61292   7.200   5.912   1.365
97569W        W61293  33.540  41.814  11.877
97570W        W61294  26.590  41.840  13.834
97571W        W61295  43.913  14.297  13.348
97572W        W61296  29.631  12.251   4.204
97573W        W61297   1.281  37.869  11.407
97574W        W61298   9.806  44.877  13.896
97575W        W61299  36.370  38.995   2.703
97576W        W61300  37.443  16.199   3.845
97577W        W61301  30.046  27.955   3.669
97578W        W61302  25.037   5.789   1.399
97579W        W61303  20.747  12.244   1.733
97580W        W61304  44.378  42.926   3.360
97581W        W61305  34.479  32.113  10.953
97582W        W61306   5.357  24.627  12.525
97583W        W61307  28.121  10.792  14.877
97584W        W61308   1.409  26.068  14.371
97585W        W61309   0.791  40.961  13.507
97586W        W61310   0.334  32.566   2.217
97587W        W61311  40.009  16.670  11.060
97588W        W61312  27.602  17.142   0.877
97589W        W61313  13.612   3.338   5.258
97590W        W61314   7.286  37.995  11.517
97591W        W61315   7.230  28.076   0.927
97592W        W61316   0.869  10.821   0.398
97593W        W61317  27.131   6.344  14.906
97594W        W61318   8.894  27.067   0.758
97595W        W61319  16.190  15.647  12.569
97596W        W61320   0.915  36.037   0.816
97597W        W61321  26.961  14.135  10.465
97598W        W61322  35.542  22.738  13.886
97599W        W61323  31.568  36.444   1.828
97600W        W61324  20.064  43.504   4.117
97601W        W61325   8.878  10.749  10.084
97602W        W61326   6.751  29.077   2.225
97603W        W61327  27.121  17.216   9.954
97604W        W61328  34.368  26.009   2.280
97605W        W61329  42.484  31.428  11.435
97606W        W61330  27.078  19.204   0.447
97607W        W61331  18.277  36.539  11.520
97608W        W61332   3.354   0.773   0.844
97609W        W61333  44.446  40.047   1.778
97610W        W61334  35.051  34.570  10.570
97611W        W61335  24.190  25.987  12.829
97612W        W61336  37.578   7.389   1.388
97613W        W61337   8.356  35.916   4.778
97614W        W61338  20.239   1.471  14.906
97615W        W61339   9.149   0.446  11.397
97616W        W61340  20.123  30.915   0.918
97617W        W61341  31.504   4.391  12.896
97618W        W61342  22.604  14.254   1.793
97619W        W61343  12.266   1.294   1.388
97620W        W61344  28.666  24.556   0.355
97621W        W61345  29.982  40.862   2.794
97622W        W61346  39.387  44.423  13.996
97623W        W61347  23.099  13.140  11.092
97624W        W61348  42.871  14.648   3.243
97625W        W61349   3.790   1.449  14.362
97626W        W61350  37.554  23.079   1.331
97627W        W61351  38.842  17.255  11.985
97628W        W61352   9.218   9.290   4.691
97629W        W61353  29.935  13.251  11.992
97630W        W61354  38.061  28.045   1.307
97631W        W61355  23.103  37.452  13.375
97632W        W61356   2.253  18.750   1.210
97633W        W61357  25.502  42.522  10.912
97634W        W61358  29.029  33.960   3.268
97635W        W61359  35.586  14.650   3.153
97636W        W61360   7.865  36.060   4.337
97637W        W61361   7.377  18.654  11.993
97638W        W61362  43.360  36.559   1.709
97639W        W61363   4.706  14.170   0.279
97640W        W61364  39.058  34.588   0.864
97641W        W61365   9.387  17.277   2.792
97642W        W61366   8.822  38.472  12.064
97643W        W61367   7.297  18.270   1.699
97644W        W61368   3.331  35.869  10.621
97645W        W61369  34.418   4.761   1.274
97646W        W61370  10.353  44.915  13.857
97647W        W61371  39.986  33.425  10.893
97648W        W61372  17.078  29.571  11.446
97649W        W61373   8.174  26.993   1.820
97650W        W61374  30.530  33.417   2.712
97651W        W61375  18.163   0.958   1.885
97652W        W61376  41.995  14.615  14.337
97653W        W61377   1.945  25.091   5.284
97654W        W61378  17.145   4.919  11.523
97655W        W61379  11.352   9.699   0.811
97656W        W61380  39.057   7.841   5.152
97657W        W61381  17.620  38.535   4.814
97658W        W61382  44.004  23.122   0.436
97659W        W61383  13.760  24.065  14.439
97660W        W61384   9.312  18.231  14.899
97661W        W61385  25.484  27.482   4.151
97662W        W61386  29.924   9.858   0.807
97663W        W61387   9.281  14.192  14.792
97664W        W61388  21.253  40.428  10.523
97665W        W61389  31.998  12.655  10.582
97666W        W61390   3.780  10.221  10.923
97667W        W61391   4.332  34.078   2.190
97668W        W61392  10.300  29.580   3.153
97669W        W61393  14.787  34.021  10.926
97670W        W61394  10.258  39.461   4.636
97671W        W61395  29.977  39.345  13.495
97672W        W61396  43.775  19.684  14.503
97673W        W61397  17.144   6.710  11.527
97674W        W61398  42.897  33.524  14.303
97675W        W61399   4.865  21.083   2.782
97676W        W61400  24.584   0.372  10.440
97677W        W61401   8.289  27.460   1.750
97678W        W61402  16.168   6.753  13.448
97679W        W61403  16.601  40.880   2.889
97680W        W61404  14.600  43.993  12.347
97681W        W61405  31.112  33.942   0.938
97682W        W61406  43.913  12.154  14.388
97683W        W61407  42.865  33.923   4.693
97684W        W61408  26.536   2.458  14.358
97685W        W61409  24.142   8.275   1.817
97686W        W61410  42.891  38.953   3.842
97687W        W61411   6.336   5.292   0.355
97688W        W61412  31.138   5.691   0.330
97689W        W61413  23.230  43.322   4.273
97690W        W61414  22.726  36.389   5.130
97691W        W61415  29.506  40.438   5.155
97692W        W61416  19.116  11.698   2.765
97693W        W61417  32.463   1.859   0.397
97694W        W61418   7.352  35.906  14.784
97695W        W61419  21.207  23.164  12.899
97696W        W61420  14.274  28.458   2.894
97697W        W61421  41.386  28.125  14.933
97698W        W61422  27.608  29.015  14.415
97699W        W61423  25.661   1.351  11.606
97700W        W61424  28.017  12.139   0.262
97701W        W61425   1.829  18.750   3.717
97702W        W61426  11.314   9.271   3.649
97703W        W61427   5.248   6.319  11.591
97704W        W61428  44.949  21.079   1.709
97705W        W61429   7.353  31.476   1.273
97706W        W61430  37.838  18.580  10.572
97707W        W61431  35.476  22.696  11.536
97708W        W61432  32.483  37.871   3.807
97709W        W61433  12.165  21.523   4.335
97710W        W61434  16.589  28.495  14.812
97711W        W61435  41.477   7.280   0.257
97712W        W61436  14.155  18.112   0.339
97713W        W61437  27.615  19.723  13.821
97714W        W61438  25.623  23.128   0.729
97715W        W61439   3.299   8.873   5.299
97716W        W61440  32.592  18.081   1.408
97717W        W61441  42.990  39.892   0.322
97718W        W61442  43.302  36.054   2.791
97719W        W61443   8.403  26.675  12.040
97720W        W61444   8.282  28.511   2.844
97721W        W61445  36.935  30.147   2.235
97722W        W61446   6.818   7.773   3.861
97723W        W61447   3.437  31.526   2.216
97724W        W61448   9.675  35.966  12.879
97725W        W61449  37.448   3.236  12.077
97726W        W61450  27.448  12.726   2.781
97727W        W61451  11.343  16.285  12.462
97728W        W61452   4.798  39.036  11.439
97729W        W61453  37.948  15.305   3.259
97730W        W61454  44.319   0.489   3.303
97731W        W61455  28.158   8.331  13.009
97732W        W61456  39.427  21.060   4.618
97733W        W61457  43.370  38.374  14.808
97734W        W61458  22.103  16.256   5.274
97735W        W61459   7.191  15.756  12.957
97736W        W61460  14.262  23.692   4.179
97737W        W61461  36.564   7.335  10.552
97738W        W61462  22.598  39.390  12.958
97739W        W61463   9.870   9.317   0.727
97740W        W61464  24.055  23.134  14.405
97741W        W61465  26.192  24.501  13.025
97742W        W61466   7.884  36.556   1.756
97743W        W61467  43.359  37.565   1.399
97744W        W61468  26.013  37.034   1.404
97745W        W61469  30.964   6.381  14.943
97746W        W61470  32.533   0.266   3.220
97747W        W61471  32.448   5.814  14.353
97748W        W61472  27.523   0.272   0.254
97749W        W61473  10.725  12.744  11.930
97750W        W61474  24.652   2.954  13.488
97751W        W61475  18.759   8.299   4.630
97752W        W61476  15.593  41.842   0.388
97753W        W61477  20.711  22.142  13.425
97754W        W61478  38.902   4.353  11.056
97755W        W61479  44.841   8.342   0.365
97756W        W61480  27.022  29.637  11.372
97757W        W61481  34.395  12.643   4.822
97758W        W61482  17.577   8.818   4.313
97759W        W61483  33.444  43.780   2.379
97760W        W61484  27.665  13.118   3.729
97761W        W61485  23.176  44.871  11.903
97762W        W61486  26.484  44.957  11.866
97763W        W61487  18.708  37.982  11.047
97764W        W61488   4.833   3.284  13.880
97765W        W61489  11.251  41.404  13.444
97766W        W61490   6.234  40.044  10.459
97767W        W61491  43.834  14.681  11.906
97768W        W61492  44.452   3.900   2.372
97769W        W61493  15.260  43.833   3.301
97770W        W61494  19.218  41.829   2.308
97771W        W61495  16.670   6.855   2.821
97772W        W61496   1.241   4.368  13.917
97773W        W61497  25.514  36.071  12.001
97774W        W61498  22.205   1.855  13.512
97775W        W61499  22.996  15.610  10.630
97776W        W61500  28.170  15.767   0.398
97777W        W61501  18.249  13.648   0.796
97778W        W61502   5.857   6.699  13.998
97779W        W61503   5.798  23.031  12.367
97780W        W61504  42.363  19.194   4.819
97781W        W61505  42.029  30.006  13.866
97782W        W61506  13.778   1.893   2.811
97783W        W61507  22.685  30.650   4.628
97784W        W61508  28.182  39.896  10.613
97785W        W61509  12.649   2.935  14.423
97786W        W61510  17.569  40.388   4.268
97787W        W61511   5.892  12.191  10.479
97788W        W61512  36.402  25.526  14.424
97789W        W61513  30.549  18.612  14.997
97790W        W61514  36.097  12.198   4.800
97791W        W61515  13.159   2.338   0.412
97792W        W61516  16.581  11.127  13.813
97793W        W61517  32.534  17.636   2.240
97794W        W61518  33.987  26.634   0.254
97795W        W61519  30.035  41.821  13.320
97796W        W61520  31.082  23.603  12.425
97797W        W61521  22.670  34.023   3.384
97798W        W61522  29.509  26.570   4.331
97799W        W61523   3.780  11.673   2.330
97800W        W61524  18.690   9.178   2.238
97801W        W61525   9.807  15.256  11.413
97802W        W61526  43.833  43.794   3.189
97803W        W61527  32.554  17.112  11.081
97804W        W61528  33.044  28.639   2.796
97805W        W61529  25.042  44.954   1.809
97806W        W61530  39.037  37.939   0.343
97807W        W61531  12.306  18.131  12.012
97808W        W61532  11.195  27.143   3.253
97809W        W61533  32.056   6.336   2.325
97810W        W61534  40.026  21.150  11.961
97811W        W61535  33.395   0.473  14.470
97812W        W61536  34.876  28.441  13.903
97813W        W61537  14.596  30.534  12.056
97814W        W61538  20.571  29.071  13.005
97815W        W61539  40.838   6.225   0.926
97816W        W61540  39.033  35.080  12.365
97817W        W61541  26.954  10.155  11.872
97818W        W61542   1.774  13.115  12.500
97819W        W61543  39.359  22.594  10.948
97820W        W61544   1.239  14.332   1.861
97821W        W61545  26.688  39.823  14.991
97822W        W61546   2.946  43.456   1.239
97823W        W61547  41.385   0.846   2.862
97824W        W61548   9.664  28.043   1.705
97825W        W61549  40.002  30.618   3.233
97826W        W61550  31.607   5.283  11.547
97827W        W61551  42.876  13.839   1.709
97828W        W61552  38.475  23.026  12.842
97829W        W61553   2.904  13.286   1.330
97830W        W61554  29.581   3.385   3.276
97831W        W61555  41.534  35.376  10.631
97832W        W61556   3.354  35.059  11.397
97833W        W61557  17.769  30.089   0.801
97834W        W61558  21.076  31.999   2.715
97835W        W61559  21.624   7.257  14.850
97836W        W61560  20.546  10.311  11.457
97837W        W61561  26.589   3.773  14.825
97838W        W61562  16.203   8.363  14.764
97839W        W61563  10.651  20.177   0.873
97840W        W61564  24.028   8.755   2.866
97841W        W61565  17.704  17.179  10.404
97842W        W61566   6.717  25.070  12.859
97843W        W61567  34.578  34.538   4.147
97844W        W61568  22.504  24.680   0.734
97845W        W61569  41.446   7.327  11.416
97846W        W61570  12.687  28.521   3.762
97847W        W61571  16.286  20.606   3.801
97848W        W61572   2.233  10.344  14.776
97849W        W61573  20.130  24.073  12.394
97850W        W61574  11.306  17.144  12.082
97851W        W61575   5.401  19.261  12.016
97852W        W61576  12.265   0.963  10.628
97853W        W61577  41.452  25.981  14.859
97854W        W61578  40.041  31.452   3.240
97855W        W61579  30.608  15.623   3.326
97856W        W61580  23.594  41.487  14.432
97857W        W61581   5.694  10.854  12.057
97858W        W61582   1.463  38.538   1.240
97859W        W61583  16.780  22.562   2.665
97860W        W61584   3.232   2.885  14.801
97861W        W61585   7.768   2.402  14.460
97862W        W61586  13.750  36.479   1.742
97863W        W61587  19.748  31.957  14.985
97864W        W61588  39.497  20.041   3.317
97865W        W61589  28.494  24.719  12.560
97866W        W61590   2.245  33.463  14.897
97867W        W61591  33.064  27.549   2.851
97868W        W61592  21.651  12.656   2.401
97869W        W61593  17.601  31.061   0.762
97870W        W61594  30.992  29.153   2.204
97871W        W61595  17.287   5.885  10.413
97872W        W61596  23.149  43.350   2.314
97873W        W61597  26.185  28.464  12.453
97874W        W61598  39.930  24.650   1.916
97875W        W61599   4.443   6.243  14.764
97876W        W61600  35.005  26.971   4.787
97877W        W61601  35.370   1.394   3.745
97878W        W61602   5.435  37.343  14.780
97879W        W61603  41.827  24.559  14.923
97880W        W61604  10.826   0.860   4.738
97881W        W61605  21.669  12.360   0.292
97882W        W61606  24.005  44.320  12.836
97883W        W61607  23.677   3.799  12.090
97884W        W61608  29.996  27.468   2.397
97885W        W61609   7.245  20.564   4.761
97886W        W61610  13.246  14.128   5.215
97887W        W61611  35.974   1.304  14.806
97888W        W61612  28.548  12.643  11.094
97889W        W61613   2.243   1.893  13.835
97890W        W61614  41.424  12.214   0.956
97891W        W61615  15.147  10.258   1.816
97892W        W61616   6.383   7.902  14.320
97893W        W61617   4.234  42.979  11.105
97894W        W61618  26.112  14.696   4.599
97895W        W61619  20.043  30.975  12.553
97896W        W61620   4.881  29.515  13.925
97897W        W61621  26.592   4.843   4.813
97898W        W61622   8.211  10.170   2.235
97899W        W61623  39.902  35.558  11.415
97900W        W61624   2.357   6.214   5.247
97901W        W61625  25.081  13.759   1.360
97902W        W61626  21.156  11.212  14.950
97903W        W61627  44.401  44.902  12.570
97904W        W61628  18.755  32.929  11.021
97905W        W61629   5.892  26.500   1.794
97906W        W61630  32.474  38.330  14.781
97907W        W61631  29.934  24.039  13.529
97908W        W61632   3.941  13.707   0.820
97909W        W61633  13.775  43.431   1.801
97910W        W61634   9.360  29.952  10.902
97911W        W61635  28.935  10.696   4.144
97912W        W61636  16.721  33.574   2.736
97913W        W61637  34.559  39.970   2.188
97914W        W61638  42.796  43.323   0.779
97915W        W61639  43.901  21.078   0.746
97916W        W61640  26.153  14.205  14.372
97917W        W61641  18.176  40.926  13.472
97918W        W61642  42.323  23.618  11.496
97919W        W61643  15.624  38.042  12.838
97920W        W61644  39.991  28.174  12.445
97921W        W61645  35.499   3.259   3.657
97922W        W61646  31.401   7.877   2.415
97923W        W61647  29.530  34.592  11.557
97924W        W61648  39.326  24.002  10.899
97925W        W61649  22.115   4.403  12.401
97926W        W61650  11.761  25.107   4.151
97927W        W61651  29.036   7.380   3.358
97928W        W61652  17.109   8.216  12.348
97929W        W61653  28.076  42.348  11.914
97930W        W61654   7.257  15.323   3.251
97931W        W61655  38.325  13.706   1.723
97932W        W61656  35.000  40.414   4.645
97933W        W61657  25.177  44.494   0.804
97934W        W61658  19.185  15.824   3.319
97935W        W61659  37.007   0.892   4.675
97936W        W61660   5.808  24.498  12.012
97937W        W61661  18.100   1.829  12.379
97938W        W61662   1.263  41.535  12.345
97939W        W61663   0.317  35.390  13.026
97940W        W61664  32.394  30.604   3.305
97941W        W61665  37.938  42.287   3.660
97942W        W61666  18.602  34.573   4.615
97943W        W61667  28.465  21.147   4.326
97944W        W61668  12.244  39.483  14.796
97945W        W61669   4.381  31.503  13.836
97946W        W61670  26.180   0.821  13.321
97947W        W61671  15.655  28.941  13.839
97948W        W61672  28.467   7.699  12.891
97949W        W61673  34.084  24.614  12.498
97950W        W61674  18.223  26.200   4.796
97951W        W61675  27.978  13.819   4.355
97952W        W61676   3.344   8.354   1.321
97953W        W61677  17.672  21.514  13.492
97954W        W61678   5.776   3.385  10.009
97955W        W61679  27.586  14.752  11.535
97956W        W61680  20.553  43.004  13.354
97957W        W61681   6.411  19.115   0.765
97958W        W61682  44.942  28.522  13.913
97959W        W61683  17.137  26.070  11.102
97960W        W61684  23.175  21.664   4.192
97961W        W61685  32.442  41.885   3.659
97962W        W61686  22.120  11.193   4.820
97963W        W61687   9.824  36.381  14.372
97964W        W61688   3.340  41.514   4.745
97965W        W61689  40.375  16.237  14.401
97966W        W61690  19.753  33.127  12.997
97967W        W61691  41.498   7.407  13.806
97968W        W61692  41.388  31.522   3.257
97969W        W61693   5.296   7.759   1.779
97970W        W61694  33.087  22.590  11.517
97971W        W61695  26.622  28.563   0.896
97972W        W61696  25.558   6.331   0.903
97973W        W61697  20.527  10.784  10.505
97974W        W61698  41.872   8.188  10.611
97975W        W61699   9.318  18.137   0.434
97976W        W61700   1.462   7.241   4.232
97977W        W61701  13.649   6.250  12.980
97978W        W61702  37.564   4.912   1.792
97979W        W61703   6.334  26.467  12.558
97980W        W61704  34.000  20.606  12.895
97981W        W61705  21.683  22.738  13.849
97982W        W61706  44.981  39.857  10.943
97983W        W61707  44.312  24.526   2.866
97984W        W61708  29.433  27.134  13.820
97985W        W61709   2.948  37.978  11.537
97986W        W61710  30.588  36.943  13.795
97987W        W61711  35.399  27.648   4.602
97988W        W61712  43.303  40.846   1.876
97989W        W61713  33.901  12.630  10.451
97990W        W61714  28.134  21.070   4.245
97991W        W61715   8.739  38.882   4.174
97992W        W61716  16.727  23.625   4.716
97993W        W61717  29.143  24.183   3.662
97994W        W61718  14.692  44.398  10.089
97995W        W61719  34.977  27.513   0.475
97996W        W61720  32.633   7.355   0.295
97997W        W61721  15.183  24.553  12.953
97998W        W61722  36.985  27.458   1.389
97999W        W61723  37.361  20.189  14.445
98000W        W61724  22.100  42.789  10.576
98001W        W61725  33.977  16.169   5.109
98002W        W61726   6.745  18.174  10.996
98003W        W61727   7.766  38.472   1.359
98004W        W61728  24.093  24.985  10.583
98005W        W61729  40.309  24.713   0.743
98006W        W61730  28.044  29.612   2.773
98007W        W61731  29.600  25.165  10.556
98008W        W61732   9.269  39.457   1.224
98009W        W61733  23.560  27.600   3.732
98010W        W61734  22.131  26.049   3.164
98011W        W61735   9.228  22.507  10.575
98012W        W61736  20.729  40.851   3.838
98013W        W61737  15.639  38.838   3.780
98014W        W61738  24.221  35.938   4.627
98015W        W61739  13.111  28.160   5.188
98016W        W61740  33.010   0.330   0.421
98017W        W61741  28.948  12.361   2.730
98018W        W61742   4.789   4.840   5.210
98019W        W61743  19.671  25.640   3.346
98020W        W61744   7.801  42.825   3.373
98021W        W61745  15.120  14.204  12.483
98022W        W61746  29.643  12.248   2.802
98023W        W61747  28.970  11.849   2.222
98024W        W61748  36.925  30.070  14.339
98025W        W61749  40.838  41.337   0.483
98026W        W61750   7.887  16.669  13.874
98027W        W61751  31.610  19.139  13.399
98028W        W61752  23.991   7.370  13.055
98029W        W61753  43.862   6.291  12.444
98030W        W61754  27.557  29.448   1.437
98031W        W61755  30.622  19.260   2.687
98032W        W61756   7.768   1.777  14.822
98033W        W61757  39.977  37.837  10.597
98034W        W61758  10.316  15.729   4.647
98035W        W61759  29.632  16.807   3.154
98036W        W61760  44.275  10.705   4.155
98037W        W61761  44.267   7.231   3.194
98038W        W61762  12.724  14.319  10.595
98039W        W61763  26.100  28.561   2.383
98040W        W61764  41.499  20.574  12.411
98041W        W61765  10.869  31.004   2.816
98042W        W61766  20.720  33.533  13.942
98043W        W61767   4.736  38.864   0.867
98044W        W61768  34.482  31.135  14.983
98045W        W61769  19.203  20.570   3.339
98046W        W61770  20.047  18.719   0.383
98047W        W61771   3.401  37.400   1.789
98048W        W61772  38.985  31.036  11.049
98049W        W61773  13.157   0.762  10.442
98050W        W61774   1.313  25.672  14.928
98051W        W61775  37.370  43.973   0.332
98052W        W61776  33.415  34.572  12.056
98053W        W61777  40.863  24.015  13.373
98054W        W61778  10.695  17.664   4.837
98055W        W61779  25.182  24.639   3.150
98056W        W61780   7.901  21.574  14.377
98057W        W61781  29.003   9.165   0.353
98058W        W61782  40.839  30.138   1.342
98059W        W61783  41.786  15.210   2.876
98060W        W61784  41.374  29.100  13.414
98061W        W61785   3.933  23.509  14.341
98062W        W61786  27.563  17.084  12.446
98063W        W61787  26.597  10.253  13.984
98064W        W61788   3.287  23.495  12.455
98065W        W61789  25.135   0.813  13.317
98066W        W61790  40.421  44.295   4.195
98067W        W61791  22.647   0.919  12.535
98068W        W61792  41.042  28.186  13.315
98069W        W61793  40.983  17.667  12.474
98070W        W61794  17.134  16.714   3.863
98071W        W61795  31.961  27.504   0.431
98072W        W61796   3.449  40.362   4.635
98073W        W61797  25.575  23.663  10.118
98074W        W61798   3.861   8.292   3.761
98075W        W61799  19.582  17.696  13.800
98076W        W61800  43.915  14.694  13.425
98077W        W61801  22.614   9.815   2.714
98078W        W61802  38.465   7.773  11.494
98079W        W61803  30.510  21.525   3.172
98080W        W61804  43.852  28.608  14.427
98081W        W61805  28.056  15.248  11.608
98082W        W61806   3.820  36.562   2.305
98083W        W61807   0.844  15.783   2.180
98084W        W61808  21.758  43.971   1.249
98085W        W61809  31.464  16.741  13.509
98086W        W61810  26.142  42.913   2.701
98087W        W61811  23.183  28.167   9.951
98088W        W61812  18.603  28.471   0.406
98089W        W61813  22.084  32.457  13.529
98090W        W61814   7.840  12.167  11.056
98091W        W61815  11.740  22.553  10.557
98092W        W61816  32.055  37.546   2.795
98093W        W61817  15.131  34.062  12.872
98094W        W61818  13.137  13.241  11.083
98095W        W61819   4.910  40.860  14.953
98096W        W61820  15.800  42.941   0.465
98097W        W61821  37.939  29.082  14.499
98098W        W61822  31.087  22.530  12.986
98099W        W61823  33.517  43.893  14.386
98100W        W61824  10.651  23.685   2.278
98101W        W61825  11.277   2.847   3.278
98102W        W61826   2.904  29.480  12.567
98103W        W61827   9.159   4.850  12.365
98104W        W61828  11.669  18.637  10.930
98105W        W61829   1.919  41.807   0.415
98106W        W61830  38.029  40.467   4.776
98107W        W61831  14.599  30.113  14.489
98108W        W61832  26.196   4.921   3.870
98109W        W61833   8.789  29.664  11.435
98110W        W61834   9.726  15.329   1.844
98111W        W61835  37.493  20.668   4.276
98112W        W61836  22.103  24.056   2.238
98113W        W61837  12.330   8.287   0.441
98114W        W61838  38.941  31.434  14.030
98115W        W61839   3.853  29.147  14.418
98116W        W61840  35.561  20.038   3.662
98117W        W61841  13.124  10.208  14.777
98118W        W61842  30.606  30.501   4.189
98119W        W61843  14.628  41.805  11.572
98120W        W61844  26.481   1.752  12.911
98121W        W61845  12.347  16.099  13.510
98122W        W61846   7.905   7.731  14.808
98123W        W61847  31.097   6.786  14.307
98124W        W61848   3.735  30.600   0.885
98125W        W61849  11.284  27.170  12.834
98126W        W61850  11.708  13.226   5.249
98127W        W61851  15.719   0.915   0.847
98128W        W61852  18.725  24.172  10.136
98129W        W61853   6.908  25.620  13.387
98130W        W61854  21.038  25.213   2.317
98131W        W61855   9.282  21.668  14.952
98132W        W61856  36.878  19.576   1.757
98133W        W61857   6.827   6.379   4.199
98134W        W61858  13.159  44.991  13.463
98135W        W61859  35.553  35.373   3.363
98136W        W61860  32.522  28.121   4.746
98137W        W61861   6.919  25.561   0.859
98138W        W61862   4.768  10.179  10.898
98139W        W61863  41.490   0.871   4.141
98140W        W61864  18.671   5.430  11.979
98141W        W61865  18.280  31.510  13.416
98142W        W61866  29.559   4.843   1.397
98143W        W61867   0.949  32.117  12.550
98144W        W61868  39.821   4.315   0.474
98145W        W61869  23.235  27.070  10.542
98146W        W61870  26.097  37.843  13.040
98147W        W61871  11.301  42.866   0.910
98148W        W61872  25.174   2.899  10.982
98149W        W61873  41.965  38.536  11.902
98150W        W61874  42.903  42.801   4.276
98151W        W61875  20.658  25.074  10.535
98152W        W61876  19.108  36.950  14.787
98153W        W61877  34.596  41.028   0.804
98154W        W61878  23.163   0.783   2.261
98155W        W61879  38.324  39.000  10.978
98156W        W61880  33.048   6.821  12.072
98157W        W61881  29.559   1.800   1.848
98158W        W61882  23.608  35.065   3.200
98159W        W61883  35.527  37.902  14.311
98160W        W61884   9.367  16.176  13.952
98161W        W61885   0.801   0.856  12.350
98162W        W61886  23.500  22.530  11.956
98163W        W61887  19.677   7.245  13.382
98164W        W61888  13.130  33.969  13.310
98165W        W61889   3.291   2.319   0.290
98166W        W61890   2.364   3.263  10.950
98167W        W61891  28.145  24.169   3.859
98168W        W61892   3.291   5.776   4.240
98169W        W61893   2.319  43.823   4.665
98170W        W61894   3.317  30.608  14.318
98171W        W61895  19.236  13.260   3.160
98172W        W61896  41.517  33.471   0.461
98173W        W61897  37.489  36.421   1.327
98174W        W61898  40.840  24.580   5.601
98175W        W61899  37.906  34.401  11.007
98176W        W61900  16.165   1.821  10.974
98177W        W61901  17.274  22.211   4.720
98178W        W61902  17.220  43.942  12.032
98179W        W61903  31.016  15.626  13.387
98180W        W61904  35.513  35.489   3.676
98181W        W61905  39.521  42.943   3.199
98182W        W61906  41.486   8.655   2.228
98183W        W61907  39.012  28.098  13.049
98184W        W61908  12.169  14.609  11.966
98185W        W61909  18.594  23.502   0.282
98186W        W61910  19.284   3.730  11.393
98187W        W61911  18.678   2.368  10.902
98188W        W61912   2.786  12.636   1.734
98189W        W61913  22.554  34.108   3.732
98190W        W61914  12.156  21.603  12.043
98191W        W61915   0.395  42.498  12.417
98192W        W61916  16.628  11.732   2.758
98193W        W61917   4.805  13.177  13.000
98194W        W61918  41.854  15.194  10.492
98195W        W61919  17.697  26.150   0.342
98196W        W61920  41.403  22.068  10.984
98197W        W61921  27.047  22.585   2.766
98198W        W61922  10.816   8.692   4.189
98199W        W61923  29.513  38.550  11.512
98200W        W61924   3.710   9.732  11.001
98201W        W61925  23.718  41.859   1.372
98202W        W61926  12.803  39.859   3.354
98203W        W61927  29.979   7.833  14.899
98204W        W61928  42.781  10.828   1.831
98205W        W61929  42.932  27.610   2.217
98206W        W61930  11.289  23.703  13.885
98207W        W61931   0.332   6.408  12.897
98208W        W61932  37.407   0.411  10.498
98209W        W61933  22.123  33.550   3.384
98210W        W61934  29.498  26.494  12.570
98211W        W61935   4.208  42.871   1.256
98212W        W61936   5.397  20.267   1.778
98213W        W61937  43.422  37.014   0.808
98214W        W61938  39.011   0.937  11.890
98215W        W61939  12.803  14.111  13.386
98216W        W61940  38.946   1.927   2.768
98217W        W61941  14.117  43.844   4.262
98218W        W61942  26.683  31.446   1.932
98219W        W61943  30.540  18.108   4.259
98220W        W61944  25.008  10.191  13.838
98221W        W61945   7.294  15.112   2.377
98222W        W61946  31.035  36.484  13.795
98223W        W61947  42.500  39.955  11.915
98224W        W61948  10.873   4.433   3.807
98225W        W61949  20.082  35.881   4.828
98226W        W61950  40.375  35.467   2.353
98227W        W61951  41.788  35.873   0.741
98228W        W61952  35.008  28.986   0.917
98229W        W61953   4.278  10.792   9.541
98230W        W61954  22.251  16.728  12.573
98231W        W61955  33.598  18.687   0.412
98232W        W61956  15.701  34.548  11.549
98233W        W61957  28.560  23.722  11.576
98234W        W61958  22.500  32.606   3.190
98235W        W61959  18.203  36.017  13.937
98236W        W61960  44.454  29.022   1.830
98237W        W61961  18.241   6.860   1.376
98238W        W61962  41.035  12.234  12.997
98239W        W61963   4.208  40.408  10.441
98240W        W61964  12.726  28.535   4.308
98241W        W61965  26.542  10.366  11.413
98242W        W61966   3.222  39.465  12.431
98243W        W61967  30.965   9.868   2.294
98244W        W61968  35.977   3.260  14.309
98245W        W61969   6.734  39.965  11.075
98246W        W61970   7.220  20.704  11.421
98247W        W61971  42.948   2.353   0.328
98248W        W61972  29.577  24.083  10.643
98249W        W61973  44.931   0.801  11.527
98250W        W61974  31.014   9.795  11.535
98251W        W61975  34.540  15.691   1.703
98252W        W61976  12.149  36.015   3.790
98253W        W61977  26.055  16.236  14.889
98254W        W61978  19.538  15.711   0.371
98255W        W61979  19.155  36.575   2.790
98256W        W61980  35.941  43.847   4.774
98257W        W61981  32.966  30.631   4.144
98258W        W61982  27.454  23.107  14.886
98259W        W61983  37.454  16.621   1.253
98260W        W61984  22.537   5.413   1.713
98261W        W61985   1.742  23.172  14.403
98262W        W61986  30.066   9.223   3.216
98263W        W61987  20.044  11.664   3.651
98264W        W61988  42.467  17.064  13.943
98265W        W61989  25.004  24.180  13.064
98266W        W61990  27.183  18.613   2.671
98267W        W61991  36.388  20.269  11.506
98268W        W61992  36.468  22.545   4.224
98269W        W61993  14.171  30.935  14.512
98270W        W61994  17.556   9.696   4.751
98271W        W61995  31.563   1.372   3.269
98272W        W61996  38.959  27.022   2.376
98273W        W61997  42.442   5.792  14.491
98274W        W61998  17.581   8.832   0.745
98275W        W61999  30.960  39.554  14.814
98276W        W62000   0.385  27.051   2.691
98277W        W62001  23.006  15.161   0.429
98278W        W62002  33.976  20.565  13.410
98279W        W62003   5.921  14.335   1.717
98280W        W62004  40.888  33.461  13.885
98281W        W62005  28.060   7.236  13.016
98282W        W62006  33.554  23.667   4.756
98283W        W62007  44.811  12.295  10.943
98284W        W62008  23.086  16.262  13.509
98285W        W62009  36.979   0.393   1.870
98286W        W62010  11.668  41.797  12.516
98287W        W62011   5.793  12.720   4.744
98288W        W62012  31.030  32.011  10.512
98289W        W62013  35.912  14.101   3.191
98290W        W62014  44.808  11.264   3.699
98291W        W62015   5.789  32.392  12.922
98292W        W62016   4.213  28.951  11.098
98293W        W62017  40.940   4.296  11.036
98294W        W62018  36.558   9.238   3.253
98295W        W62019  33.998  41.537   4.676
98296W        W62020  34.937  10.203  12.428
98297W        W62021  11.806  38.507  10.499
98298W        W62022  38.880  15.112   0.803
98299W        W62023  28.132  33.007   0.472
98300W        W62024  21.638   5.298  11.464
98301W        W62025  19.568  33.904  12.507
98302W        W62026  43.438  43.008   4.287
98303W        W62027   3.338   0.448  10.944
98304W        W62028  22.018   7.319  11.608
98305W        W62029  41.942   6.233  10.645
98306W        W62030  41.472  26.569  12.512
98307W        W62031  15.251  30.585   4.814
98308W        W62032  17.780  40.302   3.213
98309W        W62033  37.996  13.337   2.873
98310W        W62034   8.272  24.980  13.396
98311W        W62035   9.277  28.104   4.707
98312W        W62036  32.482   7.231   5.312
98313W        W62037  44.910  13.621   2.759
98314W        W62038  31.917  32.958  13.916
98315W        W62039  39.925  33.564   4.766
98316W        W62040  39.064  10.297   2.725
98317W        W62041  35.364  31.487   0.924
98318W        W62042  39.486  13.139   2.854
98319W        W62043   4.835  29.019  10.117
98320W        W62044  16.605  32.546  13.310
98321W        W62045  27.520   8.842   4.235
98322W        W62046   1.466  12.135   1.797
98323W        W62047   8.716  26.071   2.303
98324W        W62048   9.214  35.479   0.453
98325W        W62049  14.826   1.462   2.340
98326W        W62050  41.296  15.286  12.026
98327W        W62051  26.649  37.424   4.622
98328W        W62052  21.206  26.110   3.256
98329W        W62053  34.576   8.209   3.833
98330W        W62054   6.898  10.315  13.546
98331W        W62055   5.925   1.736  14.828
98332W        W62056  41.830   8.219   2.739
98333W        W62057  25.538  38.965   4.345
98334W        W62058   8.374   6.877   4.809
98335W        W62059  39.536  10.821   3.661
98336W        W62060  11.163  21.611  12.907
98337W        W62061  21.124   2.415   2.781
98338W        W62062  19.131  13.351   5.606
98339W        W62063  37.087  27.069   2.831
98340W        W62064   0.410  37.443   0.332
98341W        W62065  10.243  32.889  11.543
98342W        W62066  38.001  22.150   0.306
98343W        W62067   7.856   4.398   2.403
98344W        W62068   9.644  31.432   2.809
98345W        W62069   6.319  41.326   4.673
98346W        W62070   3.865   8.673  13.027
98347W        W62071   6.783  29.557   4.730
98348W        W62072  25.487  33.384   5.216
98349W        W62073  27.473   2.726   3.376
98350W        W62074  15.088  10.266   3.311
98351W        W62075  40.409  23.239  12.410
98352W        W62076  17.188   7.670  13.836
98353W        W62077  34.954  23.188  12.452
98354W        W62078  41.533  31.640  13.992
98355W        W62079  12.286  25.990   4.306
98356W        W62080  19.052  14.224  13.895
98357W        W62081   8.325  25.041  12.960
98358W        W62082  21.663  25.667   0.313
98359W        W62083  41.522   0.892   3.281
98360W        W62084   9.161  37.568  13.349
98361W        W62085  18.057  28.045  12.962
98362W        W62086  37.959  34.484   1.815
98363W        W62087  24.195  20.691  14.353
98364W        W62088  27.981  14.142   0.252
98365W        W62089  42.484  38.883   0.867
98366W        W62090  22.516  35.097   9.966
98367W        W62091  42.019  17.069   3.725
98368W        W62092  36.434  37.983   4.711
98369W        W62093  41.937  13.130  12.907
98370W        W62094  26.698   8.772   2.873
98371W        W62095  26.971  13.205   2.212
98372W        W62096  35.449  43.860   4.341
98373W        W62097  39.414  34.415   0.891
98374W        W62098  24.667  18.627   4.619
98375W        W62099   8.707  40.394  12.064
98376W        W62100   5.687  32.603   2.376
98377W        W62101  17.179  30.609   3.844
98378W        W62102  40.799  11.313   3.784
98379W        W62103  29.945  41.430  14.306
98380W        W62104   9.369  10.795   5.289
98381W        W62105  40.863  41.397   1.279
98382W        W62106  21.035  35.916  13.898
98383W        W62107  24.539  39.853   5.663
98384W        W62108  37.947   8.881  11.453
98385W        W62109  41.356  14.156  12.060
98386W        W62110  12.760  34.436  10.968
98387W        W62111  29.540  30.482   4.780
98388W        W62112  14.676  40.988  13.472
98389W        W62113  15.280  36.912  11.082
98390W        W62114  10.835  34.541   4.737
98391W        W62115  32.083  39.413  11.935
98392W        W62116  29.432  34.408   0.873
98393W        W62117  19.215  43.372  12.496
98394W        W62118  28.177  36.454  11.013
98395W        W62119  16.171  30.912  10.490
98396W        W62120   1.342  28.134  11.112
98397W        W62121  20.533  40.415  14.770
98398W        W62122  10.259  44.351  12.421
98399W        W62123  14.145  19.703   4.167
98400W        W62124   7.405   0.376  13.381
98401W        W62125  20.129  38.880   2.860
98402W        W62126  27.052  39.447   0.739
98403W        W62127   8.838   0.778  14.414
98404W        W62128  26.989  42.960  12.904
98405W        W62129   0.260  35.371  11.534
98406W        W62130  24.141   5.383   4.763
98407W        W62131  36.092  43.800  10.577
98408W        W62132   1.756   7.688   4.329
98409W        W62133  22.516  35.463  14.815
98410W        W62134  12.338  31.603   4.832
98411W        W62135  14.299   0.378  11.457
98412W        W62136   5.834  36.512  14.855
98413W        W62137  17.791  25.487   1.767
98414W        W62138  38.969  26.197   2.380
98415W        W62139  28.165  10.668  10.093
98416W        W62140  23.612  10.833  14.931
98417W        W62141  22.034  18.246   1.257
98418W        W62142  18.226  20.182  13.340
98419W        W62143  10.171  25.194   4.604
98420W        W62144  37.375  26.117  11.578
98421W        W62145  43.343  27.132  11.549
98422W        W62146   0.462  12.321   4.167
98423W        W62147  36.505  12.179  13.884
98424W        W62148  33.401  31.146  13.981
98425W        W62149   3.881  23.733   3.305
98426W        W62150  14.648  15.282  14.383
98427W        W62151   2.427  44.843   4.286
98428W        W62152  14.239  30.030  12.469
98429W        W62153  15.709  39.467   2.215
98430W        W62154   2.837  28.521   4.184
98431W        W62155  26.004  10.312   4.139
98432W        W62156   5.377  10.202   3.376
98433W        W62157   5.295  32.082   1.420
98434W        W62158  23.191  37.951  12.551
98435W        W62159  34.872  16.307   4.146
98436W        W62160   0.869  17.612   2.864
98437W        W62161  25.180  23.166   2.285
98438W        W62162  34.445  19.137   4.188
98439W        W62163  37.840  35.034  10.589
98440W        W62164  10.678  30.441  12.364
98441W        W62165  19.233  15.627   2.324
98442W        W62166  42.948   8.787  13.990
98443W        W62167   8.744   7.213  10.520
98444W        W62168  31.421  13.124  14.277
98445W        W62169  21.532   4.854  12.032
98446W        W62170   3.737  17.210  13.475
98447W        W62171  44.341  34.435   3.799
98448W        W62172  44.876  40.843  11.010
98449W        W62173  16.787  31.579   2.368
98450W        W62174  30.129  31.971  13.350
98451W        W62175   9.727  32.446   4.627
98452W        W62176  26.130  43.786  11.402
98453W        W62177  29.481  17.602  14.800
98454W        W62178  25.617  21.252  14.806
98455W        W62179  20.089   3.734  11.113
98456W        W62180  26.050   2.843  10.971
98457W        W62181  21.631   7.364   2.264
98458W        W62182  20.662  25.047  13.384
98459W        W62183  15.121   8.897  12.066
98460W        W62184  42.305  44.443  11.979
98461W        W62185  28.121  42.986   0.761
98462W        W62186  43.789  20.038   2.850
98463W        W62187  31.120  18.134  11.986
98464W        W62188  36.936  23.546   1.730
98465W        W62189  36.007  27.470  11.483
98466W        W62190   1.461   3.312   4.618
98467W        W62191  23.000  14.290   1.389
98468W        W62192  29.112   8.394   2.663
98469W        W62193  16.233   1.878   2.200
98470W        W62194  17.676  39.424  13.367
98471W        W62195  43.960   0.853   4.220
98472W        W62196   4.207  31.007  13.931
98473W        W62197  17.306  15.781  13.881
98474W        W62198   4.850  11.837  12.462
98475W        W62199  19.599  39.554   1.848
98476W        W62200  17.238   5.796  12.063
98477W        W62201  16.780  18.572  11.060
98478W        W62202  27.944  15.322   1.446
98479W        W62203  31.913  31.918   2.338
98480W        W62204  17.679  27.176   1.748
98481W        W62205  32.093  17.084   9.975
98482W        W62206  22.598   5.783  12.478
98483W        W62207   8.300  43.377  11.372
98484W        W62208   2.385  16.299   4.661
98485W        W62209  37.515  23.148  12.897
98486W        W62210  33.989  17.660  10.497
98487W        W62211  26.615   3.436  14.449
98488W        W62212  22.664  18.656   4.728
98489W        W62213   3.242  36.444  13.342
98490W        W62214   4.364  35.932  12.881
98491W        W62215   6.186  38.009  13.527
98492W        W62216  21.741   3.317   3.190
98493W        W62217  40.335  40.337  10.012
98494W        W62218  36.421  43.806   0.258
98495W        W62219  40.547  10.218  14.347
98496W        W62220  20.534   4.233   3.725
98497W        W62221  27.094   2.363  10.540
98498W        W62222  36.931  42.858  11.864
98499W        W62223  21.620  28.019  14.474
98500W        W62224  39.933  17.164   3.762
98501W        W62225  22.511  28.465  14.987
98502W        W62226  21.099  29.545  13.896
98503W        W62227  37.999  24.709   3.332
98504W        W62228  35.034  35.388  14.858
98505W        W62229  17.192   4.923   0.906
98506W        W62230  33.006  24.480  13.423
98507W        W62231  31.473  38.570   1.270
98508W        W62232  26.587   1.970   2.279
98509W        W62233  44.922  19.719   1.335
98510W        W62234  32.045  23.721  13.998
98511W        W62235  20.061   5.201  14.332
98512W        W62236  20.260  41.840  14.763
98513W        W62237  18.570  44.270  10.617
98514W        W62238  36.480  22.729   2.782
98515W        W62239  32.085  31.054  14.979
98516W        W62240  21.619  22.629   1.422
98517W        W62241  22.671  41.994  11.529
98518W        W62242  12.169  29.455  12.434
98519W        W62243   6.415   5.437  12.564
98520W        W62244  29.621  42.993   3.348
98521W        W62245   8.300  24.614  14.492
98522W        W62246  38.349  13.611   2.685
98523W        W62247  23.155  16.161   0.267
98524W        W62248   2.244  26.538  10.092
98525W        W62249  23.174   6.298  10.518
98526W        W62250  17.592   5.793  11.530
98527W        W62251   8.169   3.269  11.570
98528W        W62252   0.873  38.409  11.097
98529W        W62253  30.605  26.616   2.344
98530W        W62254  35.960  15.266  14.321
98531W        W62255  25.082  11.642   1.410
98532W        W62256  41.441  29.028  11.920
98533W        W62257  43.843   4.358   4.811
98534W        W62258  28.662  22.699  14.497
98535W        W62259   3.784   8.765  13.531
98536W        W62260  43.346  42.429   0.463
98537W        W62261  43.908  31.619   1.781
98538W        W62262  42.942   0.975   0.462
98539W        W62263  22.123   3.339   0.778
98540W        W62264  35.553   1.318  12.028
98541W        W62265  41.447   9.256   3.332
98542W        W62266  32.517  18.183  14.365
98543W        W62267   1.478  14.782   1.445
98544W        W62268  15.195  19.042   4.352
98545W        W62269  38.856   6.688   4.254
98546W        W62270   4.848  26.493   0.944
98547W        W62271  23.584   7.727  13.851
98548W        W62272  12.656  33.035  12.068
98549W        W62273   6.408  29.076   0.475
98550W        W62274  40.037  41.831   2.690
98551W        W62275   5.387  15.819  12.474
98552W        W62276  10.835   4.442   3.371
98553W        W62277  26.483  20.265   3.161
98554W        W62278  11.204  39.510  12.396
98555W        W62279  13.205  29.461  10.457
98556W        W62280  25.041  34.509  12.952
98557W        W62281   1.845   4.744   3.275
98558W        W62282   3.458   3.447   2.822
98559W        W62283  21.748  28.581  11.394
98560W        W62284  44.930  32.411  14.407
98561W        W62285  40.324  17.097   3.287
98562W        W62286   4.270  10.661  14.291
98563W        W62287   4.827  29.502   4.194
98564W        W62288  15.198  36.501  11.989
98565W        W62289  20.043   9.857   1.281
98566W        W62290  42.865  32.611  10.991
98567W        W62291  10.383  16.248  11.395
98568W        W62292  44.955  32.023   0.467
98569W        W62293  14.119  37.443   4.778
98570W        W62294   7.171  12.727  13.328
98571W        W62295   9.206   6.362  12.008
98572W        W62296  44.780  20.713   2.730
98573W        W62297  10.723   7.174  13.888
98574W        W62298  25.153  40.998  11.881
98575W        W62299  22.503  15.794  10.593
98576W        W62300  22.203  43.832   0.455
98577W        W62301  28.164  33.111   4.285
98578W        W62302  17.666   4.858  10.583
98579W        W62303  17.749  29.143   4.633
98580W        W62304  16.164  43.412   0.308
98581W        W62305  13.836  25.555   3.726
98582W        W62306  37.024  19.736   1.429
98583W        W62307  32.935   5.691   2.289
98584W        W62308   8.761  42.880  12.952
98585W        W62309  30.124  32.465   3.371
98586W        W62310  11.161   2.393  11.597
98587W        W62311  25.969  17.682  13.002
98588W        W62312   9.225  43.358   0.308
98589W        W62313  23.146  27.547  12.881
98590W        W62314  18.054  22.630  10.406
98591W        W62315  25.634  20.094  11.583
98592W        W62316   9.770  12.163   0.318
98593W        W62317  27.503  41.039  11.589
98594W        W62318  27.660  41.294   1.395
98595W        W62319   2.875  13.163   2.755
98596W        W62320   1.960  21.045   3.832
98597W        W62321  41.915  10.370  13.872
98598W        W62322   4.231   8.859  11.535
98599W        W62323  26.957  33.575   3.184
98600W        W62324  38.483   9.378  13.423
98601W        W62325  23.023  18.570  13.340
98602W        W62326  29.527  32.452   3.736
98603W        W62327  38.332  16.710  13.523
98604W        W62328   2.822  10.172   2.262
98605W        W62329  42.794   5.313  10.562
98606W        W62330   7.845  41.356  13.400
98607W        W62331  23.151  36.868   2.210
98608W        W62332  33.065  32.991   0.896
98609W        W62333  25.469  35.946   2.817
98610W        W62334  31.444   7.374   2.384
98611W        W62335   6.863  10.654  13.851
98612W        W62336  16.720  42.948   0.308
98613W        W62337  18.674  17.749  10.957
98614W        W62338  36.575  24.615  14.300
98615W        W62339   0.488  32.087  14.873
98616W        W62340  31.943  34.897  11.856
98617W        W62341  23.046  22.165   4.266
98618W        W62342  31.003   3.337   0.424
98619W        W62343   2.799   7.287   4.832
98620W        W62344  38.564  40.049   1.832
98621W        W62345  42.971  12.841  13.539
98622W        W62346  30.634   1.847  14.783
98623W        W62347  36.533  19.238  12.566
98624W        W62348  29.154  22.563  10.956
98625W        W62349  20.198  10.786   0.257
98626W        W62350  13.723   3.365   2.247
98627W        W62351  22.702   5.864   3.346
98628W        W62352  11.342  24.643  13.488
98629W        W62353  44.973  14.174  12.539
98630W        W62354  12.752  12.713  12.438
98631W        W62355  26.134   7.415   1.302
98632W        W62356  22.603  44.993  14.349
98633W        W62357  42.335  41.452  12.541
98634W        W62358  28.436  20.185  10.624
98635W        W62359  38.075   9.789   0.956
98636W        W62360  24.552  41.361   4.199
98637W        W62361  27.156  20.177   0.730
98638W        W62362  17.645   6.361   4.643
98639W        W62363  20.265  20.614   2.416
98640W        W62364  11.320  28.124   0.294
98641W        W62365  10.689  13.134   1.713
98642W        W62366  30.018  34.876   1.876
98643W        W62367   4.873  34.035  11.955
98644W        W62368  43.891  39.521  13.878
98645W        W62369   0.984  14.624   4.625
98646W        W62370  22.617  24.572  14.016
98647W        W62371  17.083   5.339   0.790
98648W        W62372  17.727  11.188   0.949
98649W        W62373  29.118   1.910   4.176
98650W        W62374  30.924  26.116  11.558
98651W        W62375  21.723   5.847  12.838
98652W        W62376  22.512  31.506   0.868
98653W        W62377  43.019   6.253  13.345
98654W        W62378  20.248  44.349  14.760
98655W        W62379  35.437  33.995   2.818
98656W        W62380   1.354  40.867  13.798
98657W        W62381  24.547   1.289   2.763
98658W        W62382  13.292   0.782   2.872
98659W        W62383   7.331  40.434  10.445
98660W        W62384  15.149  10.375   4.151
98661W        W62385  14.100  31.941  12.557
98662W        W62386  19.668  21.036   4.234
98663W        W62387  23.645   8.250   0.340
98664W        W62388   7.677  41.358  12.391
98665W        W62389  15.313  40.344   2.689
98666W        W62390  31.415  22.736   4.283
98667W        W62391  25.580  17.278  14.908
98668W        W62392   8.897  18.668   2.241
98669W        W62393  22.659  41.997  13.316
98670W        W62394  24.066   0.410  13.036
98671W        W62395  33.501  35.050  13.340
98672W        W62396  22.592   9.740  14.849
98673W        W62397  19.134  14.783  13.307
98674W        W62398  37.931  20.264  13.821
98675W        W62399  22.536  37.949   4.143
98676W        W62400  40.887  44.971  14.292
98677W        W62401  33.564   2.896  14.474
98678W        W62402  24.586  19.592   4.769
98679W        W62403  42.314  32.955   1.218
98680W        W62404  35.590  44.942   1.437
98681W        W62405  35.022   3.882   4.230
98682W        W62406  12.219   3.301  14.409
98683W        W62407  23.518  19.113  11.529
98684W        W62408  41.450  23.111   0.250
98685W        W62409  29.529  24.131   1.253
98686W        W62410  13.119   8.212  10.608
98687W        W62411  43.417  17.133   4.737
98688W        W62412  18.287  20.766  13.542
98689W        W62413  29.041  38.365  13.868
98690W        W62414  43.419  32.600  11.536
98691W        W62415  19.198  40.820   4.646
98692W        W62416  10.745  17.223   1.225
98693W        W62417  19.550  37.496  10.613
98694W        W62418   1.778   4.238  13.324
98695W        W62419  40.869  29.502  12.532
98696W        W62420  18.781  39.339  13.922
98697W        W62421  40.363  14.805   0.885
98698W        W62422  14.736  15.189   4.135
98699W        W62423   9.865  21.695  13.021
98700W        W62424  23.500   1.251  12.346
98701W        W62425  22.703  21.658  14.875
98702W        W62426  39.391  27.186   1.908
98703W        W62427   2.938  29.511   0.331
98704W        W62428   0.873  35.480  11.920
98705W        W62429  40.460  15.310  14.330
98706W        W62430   2.886   7.251   2.674
98707W        W62431  40.824   4.725   3.169
98708W        W62432  19.772  11.355  13.942
98709W        W62433  11.737  21.123   1.442
98710W        W62434  23.189  28.441  12.933
98711W        W62435  32.406  39.525   4.293
98712W        W62436  40.508   1.483   3.778
98713W        W62437   8.405   6.271  14.940
98714W        W62438  43.978  36.585   9.672
98715W        W62439  36.923  14.589   2.895
98716W        W62440   5.342  10.146   5.168
98717W        W62441  34.541  25.187  12.913
98718W        W62442  40.981  21.254   2.717
98719W        W62443  43.951  14.679  13.917
98720W        W62444  31.465   0.890  13.537
98721W        W62445   9.700  40.954  13.036
98722W        W62446  41.306  34.552   2.387
98723W        W62447   4.816  32.490  14.492
98724W        W62448   9.289   9.725   1.261
98725W        W62449   4.905  21.086   2.343
98726W        W62450  12.162  39.329  10.472
98727W        W62451  25.175  39.440   0.924
98728W        W62452  12.737  40.527   4.337
98729W        W62453  10.709  10.365  14.807
98730W        W62454   1.424  11.784   4.688
98731W        W62455  19.210  11.670   3.215
98732W        W62456  40.505   2.798   4.248
98733W        W62457   9.756  13.117  11.577
98734W        W62458  16.752  12.172   0.457
98735W        W62459  10.203  36.369   3.343
98736W        W62460  10.331   7.806  13.508
98737W        W62461  39.877   3.760   3.336
98738W        W62462   4.415  13.719   0.479
98739W        W62463  41.343   5.261   0.302
98740W        W62464   0.754  23.707   3.691
98741W        W62465  30.930  42.374  13.868
98742W        W62466   5.196  20.615  10.493
98743W        W62467  33.612  15.691   4.319
98744W        W62468  27.524  19.677  12.049
98745W        W62469  27.035  36.974  14.473
98746W        W62470   7.180   2.342  13.949
98747W        W62471  32.894  39.355   4.162
98748W        W62472  40.343   3.799   2.677
98749W        W62473  29.479  14.314   1.926
98750W        W62474  31.458  32.419  13.835
98751W        W62475   5.830   2.839  14.817
98752W        W62476  18.593  23.663  11.381
98753W        W62477  16.779  32.084  11.857
98754W        W62478  27.664  10.865   0.882
98755W        W62479  11.200  14.195   1.777
98756W        W62480   9.764   5.233   4.638
98757W        W62481   1.245  20.678  11.858
98758W        W62482   3.726  13.777   1.224
98759W        W62483  29.664  17.174  12.580
98760W        W62484  13.242  23.221   0.426
98761W        W62485   3.723  39.420   4.291
98762W        W62486  22.161  10.844   3.758
98763W        W62487  20.247  42.923  10.538
98764W        W62488  26.686   4.351   0.873
98765W        W62489  11.319   2.897   4.718
98766W        W62490   9.190  11.296   1.854
98767W        W62491  36.891  39.874  15.000
98768W        W62492  20.034  28.548   4.234
98769W        W62493  40.357  13.106   3.352
98770W        W62494  35.438  41.899   2.297
98771W        W62495  30.478  37.390   4.354
98772W        W62496  43.484   7.837  10.973
98773W        W62497   9.205   1.238   1.821
98774W        W62498  20.136  32.512   3.834
98775W        W62499   8.876  41.848  13.312
98776W        W62500  15.227  36.506  14.396
98777W        W62501  22.008  19.089  14.450
98778W        W62502   1.299   8.704   0.837
98779W        W62503  12.849  11.793   1.932
98780W        W62504   3.868  20.045  10.444
98781W        W62505  15.785  29.424  11.866
98782W        W62506  39.024  40.959  10.472
98783W        W62507   7.296  38.872   1.316
98784W        W62508  26.996   6.877  11.560
98785W        W62509  30.419  15.265  11.935
98786W        W62510  20.144  14.253  12.416
98787W        W62511  20.561  42.874   2.322
98788W        W62512  40.365   5.914  10.626
98789W        W62513  15.207  26.577   3.192
98790W        W62514  33.042   9.655   1.250
98791W        W62515   1.262  40.360   1.931
98792W        W62516   4.937   7.739   4.117
98793W        W62517  18.579  41.962  12.938
98794W        W62518   2.930  12.632  10.521
98795W        W62519   2.249   7.178   4.166
98796W        W62520   8.349  39.042  12.429
98797W        W62521  19.217  31.501  12.380
98798W        W62522  22.708  15.775  12.579
98799W        W62523   9.846  21.517   3.818
98800W        W62524  35.924  32.126   5.247
98801W        W62525  30.147  11.274  11.069
98802W        W62526   6.693  14.111  11.936
98803W        W62527   8.751   6.299   1.265
98804W        W62528  11.324  42.515   4.715
98805W        W62529  21.166  26.156  11.445
98806W        W62530  26.626  38.999  13.385
98807W        W62531   2.417  37.078  13.473
98808W        W62532  21.666   8.393   1.252
98809W        W62533  26.130   5.794  13.927
98810W        W62534  28.621  18.052   4.229
98811W        W62535  44.295  20.763  13.994
98812W        W62536  37.057   2.398  10.519
98813W        W62537  16.803  13.607   9.975
98814W        W62538   4.885  17.248  11.891
98815W        W62539  36.361   0.827   3.848
98816W        W62540   3.437  32.633   1.758
98817W        W62541  14.230  32.059  11.060
98818W        W62542  34.570  31.072   2.787
98819W        W62543  36.067  37.578  11.010
98820W        W62544   3.255   1.932  14.395
98821W        W62545  20.665   7.203   4.236
98822W        W62546   4.860  19.223  10.934
98823W        W62547  34.028  23.985   0.437
98824W        W62548  32.441  25.677   0.837
98825W        W62549  39.932  14.735   1.385
98826W        W62550  43.021  25.113   3.321
98827W        W62551  23.608   4.385  10.977
98828W        W62552  21.615  19.259  14.364
98829W        W62553  11.622  42.995  13.939
98830W        W62554  11.806  44.805   3.654
98831W        W62555  24.706  15.307   3.814
98832W        W62556  20.591  40.849  14.784
98833W        W62557  30.629  40.468  11.375
98834W        W62558  39.920   3.357   3.322
98835W        W62559  23.682  39.948  13.473
98836W        W62560  29.571  13.114  13.874
98837W        W62561  44.454  15.213   2.302
98838W        W62562   3.828  26.985  11.108
98839W        W62563  32.903  17.633   0.865
98840W        W62564  20.075  44.313  14.488
98841W        W62565  16.802  26.955   3.685
98842W        W62566  35.462  23.134  13.403
98843W        W62567  25.210   2.349  13.995
98844W        W62568  10.694  43.015   3.221
98845W        W62569  15.140  38.362  13.441
98846W        W62570  10.364  42.368  14.777
98847W        W62571  43.418  42.307   2.771
98848W        W62572  10.360  21.590  10.469
98849W        W62573   1.430  18.185  14.512
98850W        W62574  26.692  26.572  14.354
98851W        W62575  27.580  27.478  13.963
98852W        W62576   8.334  11.773  13.506
98853W        W62577  27.552  15.170   1.780
98854W        W62578  26.486  12.179   3.165
98855W        W62579   6.374  23.059  12.455
98856W        W62580  34.471  32.987   1.800
98857W        W62581   5.417  42.459  12.959
98858W        W62582  12.750  14.234   2.850
98859W        W62583  20.214  43.819  13.812
98860W        W62584  34.955   6.287   4.161
98861W        W62585   3.784  44.343   3.353
98862W        W62586   1.407  39.476   2.260
98863W        W62587  38.372  29.515  10.906
98864W        W62588  20.174   0.292   1.367
98865W        W62589  38.551  29.605   2.355
98866W        W62590  20.747  39.533  12.433
98867W        W62591   4.873  30.652   3.732
98868W        W62592  16.604  18.610   1.271
98869W        W62593  23.684  43.331  14.820
98870W        W62594  43.463  11.683  11.523
98871W        W62595  10.254   4.724  12.978
98872W        W62596  20.255   9.172   1.315
98873W        W62597  11.313  34.913  12.427
98874W        W62598  18.760  35.519   3.297
98875W        W62599  37.932   1.297  12.976
98876W        W62600  11.209   0.758   3.636
98877W        W62601  25.566  20.749  13.361
98878W        W62602  21.196  16.813   0.454
98879W        W62603   7.287  42.397  13.876
98880W        W62604  20.066  29.594   0.274
98881W        W62605  44.481  28.120  11.973
98882W        W62606  11.346  23.548  11.446
98883W        W62607  32.420  18.577   3.828
98884W        W62608  29.987  30.647   4.207
98885W        W62609  20.624   2.827   3.812
98886W        W62610   6.822  33.449  11.078
98887W        W62611  39.337   2.294  13.841
98888W        W62612   2.847  23.557   0.897
98889W        W62613  16.235  15.228  10.977
98890W        W62614  38.567   8.339   4.286
98891W        W62615  18.064  23.550   1.312
98892W        W62616  32.065  15.678   0.787
98893W        W62617  25.681  16.173   0.470
98894W        W62618  25.531  24.148   4.669
98895W        W62619  38.440   6.249  11.122
98896W        W62620   0.436   7.320  10.942
98897W        W62621  12.256  26.586   1.364
98898W        W62622  20.149  38.928   1.382
98899W        W62623  14.829  32.582   2.414
98900W        W62624  30.550   7.777   1.289
98901W        W62625  42.446  30.058  12.833
98902W        W62626  30.460  39.929   1.727
98903W        W62627   5.812  32.512  13.500
98904W        W62628  28.674  38.525   4.186
98905W        W62629  33.063  18.614  12.426
98906W        W62630  30.540   2.441  11.564
98907W        W62631  34.932  38.472  12.036
98908W        W62632  23.084  33.521   2.901
98909W        W62633  12.119   3.448  11.602
98910W        W62634  26.660   4.768  10.932
98911W        W62635  20.065   7.378   2.399
98912W        W62636  35.931  11.333   1.729
98913W        W62637  19.597  24.168  11.378
98914W        W62638  25.209   7.829   0.276
98915W        W62639  24.697  43.783   2.769
98916W        W62640  11.836  24.566   3.739
98917W        W62641  40.002  21.036   4.601
98918W        W62642  43.764   6.385   1.815
98919W        W62643  21.643   8.792  12.527
98920W        W62644  14.230  25.586   2.307
98921W        W62645  39.419   4.376  12.397
98922W        W62646   4.872   7.278   0.418
98923W        W62647  22.226   3.440  11.371
98924W        W62648   0.412  39.464   4.231
98925W        W62649  19.695  23.496   2.251
98926W        W62650  44.346   1.427  10.486
98927W        W62651   7.707   2.942  14.877
98928W        W62652  40.899  24.646   2.734
98929W        W62653   7.362   8.682   3.183
98930W        W62654  24.558  28.593  13.453
98931W        W62655  33.495  30.650  13.388
98932W        W62656  33.936  30.573  12.533
98933W        W62657  39.017  38.865  10.544
98934W        W62658  39.018  23.615   4.698
98935W        W62659   1.428  31.953  10.549
98936W        W62660   1.315  28.018  14.452
98937W        W62661  26.163  34.487   4.236
98938W        W62662  25.468  28.140   2.251
98939W        W62663  31.525   4.243  14.409
98940W        W62664  22.652  22.129  10.534
98941W        W62665  11.363  27.142  13.399
98942W        W62666  39.479   1.344   1.757
98943W        W62667  25.080  41.349  11.004
98944W        W62668  35.932  22.502   2.406
98945W        W62669   9.386  27.496  12.958
98946W        W62670   3.899  11.848   0.275
98947W        W62671  35.426  13.730  10.086
98948W        W62672  28.490  28.936  14.311
98949W        W62673  37.901  22.694   4.155
98950W        W62674  40.890  19.563   3.216
98951W        W62675  11.294  16.588   1.881
98952W        W62676  13.280  20.592   2.295
98953W        W62677  40.535   4.361  10.607
98954W        W62678  20.684  17.747  14.924
98955W        W62679  11.294   7.230   0.262
98956W        W62680  16.162   9.681  13.322
98957W        W62681  35.969  17.240   4.611
98958W        W62682  25.637  29.076  12.902
98959W        W62683  16.259  13.208   4.809
98960W        W62684   9.814  31.109   4.144
98961W        W62685   3.305  40.353  14.358
98962W        W62686  20.719   7.349   2.732
98963W        W62687  32.032  24.657  12.952
98964W        W62688   4.265  38.821  14.334
98965W        W62689  31.613   3.851   3.674
98966W        W62690  33.502  10.323   3.269
98967W        W62691  35.563  40.375  12.021
98968W        W62692  20.242   9.221  12.408
98969W        W62693   5.291  29.508  10.962
98970W        W62694  28.439  37.030  14.467
98971W        W62695   8.377   2.814  14.336
98972W        W62696  38.854   9.753  13.486
98973W        W62697  24.043   4.840   3.715
98974W        W62698  14.133  17.643   2.765
98975W        W62699  16.703   7.756   1.736
98976W        W62700  31.040  38.342   3.213
98977W        W62701  40.860  34.502  12.488
98978W        W62702  40.376  23.008   0.762
98979W        W62703  33.508  15.175  12.958
98980W        W62704  24.695  37.532  11.392
98981W        W62705  33.485  19.062   4.646
98982W        W62706  16.786   5.918  10.569
98983W        W62707   3.425  41.892  14.838
98984W        W62708  30.649  38.924  14.399
98985W        W62709  24.593   2.427   4.161
98986W        W62710   2.234  37.426   2.397
98987W        W62711  27.582  41.491   2.775
98988W        W62712  22.076  10.246   3.773
98989W        W62713   3.316  30.513  14.015
98990W        W62714  14.173  11.636  12.517
98991W        W62715  35.495  28.958   4.186
98992W        W62716   0.457   6.816   3.788
98993W        W62717  28.603  43.764  14.960
98994W        W62718  39.367  19.192   1.407
98995W        W62719  23.994  10.185   1.403
98996W        W62720  43.822  34.439   2.899
98997W        W62721  38.841  20.563   0.412
98998W        W62722  34.391  37.899   4.206
98999W        W62723  40.024  13.296   4.334
99000W        W62724  36.850  27.003   0.453
99001W        W62725  29.043  10.247   0.789
99002W        W62726  20.053  15.585   1.732
99003W        W62727   7.850  10.699  13.995
99004W        W62728  11.641  30.144  11.090
99005W        W62729  34.018  20.740   3.708
99006W        W62730  40.497  43.985   5.149
99007W        W62731  39.366   1.808  12.426
99008W        W62732  27.066   0.415   0.457
99009W        W62733  21.144  20.566  13.849
99010W        W62734  21.032  40.391   5.116
99011W        W62735  24.710   3.784  14.439
99012W        W62736  22.723  42.925  11.921
99013W        W62737  16.767  16.104   0.407
99014W        W62738  20.550  19.242   2.339
99015W        W62739  25.655  32.448  10.611
99016W        W62740  14.306  17.143  11.468
99017W        W62741  15.631  22.062   0.472
99018W        W62742  13.156  33.553   3.775
99019W        W62743   4.828  23.216   1.928
99020W        W62744  10.369  35.601   1.730
99021W        W62745   6.891   2.938   2.843
99022W        W62746  24.989  14.831  10.637
99023W        W62747  33.446  34.900  14.784
99024W        W62748  44.821  43.897  13.846
99025W        W62749  32.077  37.581  11.492
99026W        W62750  15.173   6.720   4.209
99027W        W62751  21.159  13.599  10.992
99028W        W62752  19.226  44.380  13.885
99029W        W62753   7.709  28.631  14.944
99030W        W62754  43.953  42.870  14.457
99031W        W62755  41.455  29.488   3.646
99032W        W62756   8.356  16.206  11.089
99033W        W62757   3.228  33.004  13.463
99034W        W62758  43.942   3.363   4.768
99035W        W62759  30.479  39.931   4.316
99036W        W62760  17.650  17.232   2.776
99037W        W62761   7.799  33.054  10.513
99038W        W62762  28.525  42.880   4.729
99039W        W62763  36.367  33.063  11.896
99040W        W62764   2.816  21.149  10.052
99041W        W62765  42.873  30.590   1.931
99042W        W62766  27.015  10.139   2.872
99043W        W62767  24.631  44.500  14.028
99044W        W62768  35.416  15.197   1.810
99045W        W62769  29.653   2.428   2.262
99046W        W62770  26.561  18.741  11.447
99047W        W62771   3.852  44.860   0.323
99048W        W62772  40.978  23.713   4.205
99049W        W62773  22.715  32.964   0.890
99050W        W62774   5.763  18.166  14.928
99051W        W62775   0.868  30.041   1.402
99052W        W62776   2.947   2.233  13.996
99053W        W62777  22.996   5.316  13.853
99054W        W62778  37.900  18.166  13.055
99055W        W62779  13.631   6.334   0.340
99056W        W62780  40.501  10.160   4.828
99057W        W62781  24.538   5.253  13.467
99058W        W62782  24.978  15.687   1.348
99059W        W62783  10.295   9.284  12.519
99060W        W62784  19.562  24.114   3.224
99061W        W62785  25.966  39.989  13.947
99062W        W62786  33.887   1.959  10.597
99063W        W62787  22.252  14.224   3.711
99064W        W62788  29.010  41.787  10.541
99065W        W62789  16.224  38.464   4.256
99066W        W62790   1.266  24.720  12.906
99067W        W62791  44.987   6.190  13.002
99068W        W62792  39.815   8.189   4.163
99069W        W62793  17.755  39.460   2.718
99070W        W62794  14.817  36.351   3.378
99071W        W62795  20.552  36.097   4.750
99072W        W62796  41.325  16.206  14.506
99073W        W62797  31.015  30.139  13.416
99074W        W62798  44.981  12.253  13.966
99075W        W62799  21.649   6.784   0.282
99076W        W62800  13.213  43.849   1.915
99077W        W62801   4.277  40.328   3.332
99078W        W62802  25.619   0.864   1.449
99079W        W62803  39.955  26.489   5.319
99080W        W62804  14.834  28.579   2.720
99081W        W62805  10.657  40.908  10.954
99082W        W62806  20.718  21.203  12.093
99083W        W62807   6.351   6.913   4.749
99084W        W62808  28.550  15.308   1.919
99085W        W62809   0.289  36.348   1.793
99086W        W62810  22.141   8.305   4.616
99087W        W62811  15.254  41.473   0.245
99088W        W62812  25.694  17.286   3.254
99089W        W62813  44.286   6.907   1.935
99090W        W62814  41.796  21.209  12.096
99091W        W62815  39.864   6.334  12.037
99092W        W62816   8.843  37.465  12.896
99093W        W62817   6.280  29.985  11.592
99094W        W62818  24.666  19.269   0.732
99095W        W62819  38.020  43.891  12.530
99096W        W62820  40.959  16.585   2.877
99097W        W62821  38.070  17.071  10.089
99098W        W62822   5.196  20.152  14.479
99099W        W62823  17.226  22.243   1.772
99100W        W62824   6.728   3.752   1.811
99101W        W62825  29.473  16.619   0.797
99102W        W62826  22.127  42.823   2.751
99103W        W62827  31.009   6.789  12.413
99104W        W62828  14.645  10.251  13.381
99105W        W62829  43.495  44.349  12.481
99106W        W62830  43.349  31.123  10.628
99107W        W62831  40.864  26.085   0.260
99108W        W62832  33.885  25.981  14.305
99109W        W62833  28.463  25.009   0.408
99110W        W62834  19.559  42.312   3.294
99111W        W62835  44.830   2.263   1.436
99112W        W62836  27.079  31.606   0.850
99113W        W62837  19.547  41.336  11.886
99114W        W62838  42.917  29.106  14.464
99115W        W62839  35.421  39.318   0.372
99116W        W62840  28.539  26.125   2.365
99117W        W62841  39.515  26.109  11.411
99118W        W62842  39.419  16.668   3.864
99119W        W62843  16.691  23.011  14.321
99120W        W62844  37.364   0.479   0.805
99121W        W62845  34.380  32.483   1.768
99122W        W62846  41.416  23.232   0.947
99123W        W62847  28.571  18.156  13.864
99124W        W62848   9.335   2.288   3.314
99125W        W62849  37.549   7.713   0.245
99126W        W62850  26.604  33.982   2.278
99127W        W62851  29.604  16.630   0.467
99128W        W62852  31.566  37.917  13.358
99129W        W62853  44.454  41.947  14.345
99130W        W62854  11.345  39.887   3.207
99131W        W62855   2.354  13.740   3.693
99132W        W62856  17.746  19.714  13.920
99133W        W62857  39.964  34.018  11.452
99134W        W62858   6.302  15.308   1.769
99135W        W62859  44.948   3.278   4.599
99136W        W62860  16.180   0.975   3.346
99137W        W62861  26.457  29.010  14.351
99138W        W62862  22.593  42.854   0.342
99139W        W62863  11.267  12.785   3.686
99140W        W62864  44.428  27.155  12.419
99141W        W62865   4.802  35.414  11.114
99142W        W62866   5.812  31.077   4.341
99143W        W62867  33.446  23.109   4.668
99144W        W62868  10.291   8.676  10.086
99145W        W62869  44.424  34.094  12.941
99146W        W62870  11.139  26.541  10.477
99147W        W62871  25.608  15.588  13.430
99148W        W62872   7.194  35.086  12.064
99149W        W62873  11.722  34.955  11.007
99150W        W62874  37.371  27.561   4.743
99151W        W62875  35.034  43.373   1.754
99152W        W62876   1.737   9.303  13.018
99153W        W62877  22.656  38.938  13.030
99154W        W62878   8.656   7.298   1.327
99155W        W62879  34.509  43.342  13.514
99156W        W62880  36.086  17.684  13.954
99157W        W62881   1.316  18.222   0.299
99158W        W62882  16.227   5.768   4.231
99159W        W62883  29.036  14.256   0.393
99160W        W62884   0.749   1.363  13.942
99161W        W62885  35.468  23.686   0.384
99162W        W62886  18.124  41.348   4.740
99163W        W62887  33.463   3.888  14.503
99164W        W62888  28.038  26.951  11.913
99165W        W62889  36.549  14.104  13.394
99166W        W62890  25.106  10.728   4.289
99167W        W62891  42.335  26.565   4.309
99168W        W62892  15.708  11.841   2.866
99169W        W62893   7.237  41.535  13.932
99170W        W62894  24.550  42.436  11.481
99171W        W62895   6.868  44.388  14.766
99172W        W62896  30.033  20.643   1.374
99173W        W62897  41.805  27.115  10.480
99174W        W62898  19.111  28.992   4.140
99175W        W62899  18.669  10.377   2.857
99176W        W62900  30.417  42.381   0.393
99177W        W62901  37.892  20.567   3.666
99178W        W62902   4.780  24.974   3.271
99179W        W62903  36.913  17.777   0.859
99180W        W62904  41.789  20.108  12.359
99181W        W62905   2.812  36.500   3.314
99182W        W62906  40.986   6.910   0.740
99183W        W62907  28.020  14.238   4.597
99184W        W62908  29.469  18.764  10.516
99185W        W62909  28.153  24.210   0.836
99186W        W62910  20.683   4.267  11.888
99187W        W62911  16.629  24.056   1.775
99188W        W62912   3.244   8.665  13.346
99189W        W62913   7.787   4.234   2.693
99190W        W62914   4.214  39.415  13.370
99191W        W62915  37.848  41.342   4.231
99192W        W62916  22.067   2.271  11.000
99193W        W62917  22.545  13.615  11.918
99194W        W62918  17.682   4.904  11.959
99195W        W62919  23.529   1.780   4.164
99196W        W62920   8.257  15.177  12.478
99197W        W62921   1.812  13.257   0.303
99198W        W62922  17.144  38.823   4.754
99199W        W62923  31.478  40.953  12.410
99200W        W62924  36.009  15.322   0.938
99201W        W62925  32.143  36.466  12.424
99202W        W62926  23.031   6.759  11.477
99203W        W62927  25.132  12.804  11.391
99204W        W62928   9.716   5.259   3.331
99205W        W62929  34.007  25.124   1.348
99206W        W62930  16.161   6.712  10.600
99207W        W62931  15.291  15.246   2.668
99208W        W62932  22.057  44.847   3.223
99209W        W62933  12.318  32.557   0.346
99210W        W62934  33.381  26.625   1.719
99211W        W62935  40.408  42.801  12.842
99212W        W62936  35.010  17.571   2.419
99213W        W62937  15.085   4.312   1.386
99214W        W62938  11.353  11.675  12.578
99215W        W62939  28.965  10.349   3.378
99216W        W62940  19.561  19.594  11.931
99217W        W62941  20.229  37.057  12.931
99218W        W62942  35.505  28.182  12.368
99219W        W62943  30.045  35.359  14.883
99220W        W62944  28.513  32.067  11.536
99221W        W62945  20.219  30.133   3.856
99222W        W62946  42.297  30.647   0.795
99223W        W62947  14.244  12.269  11.555
99224W        W62948   9.813   7.202   1.219
99225W        W62949  15.328  26.984  12.992
99226W        W62950  44.818  21.048  11.590
99227W        W62951   6.787   8.266  13.340
99228W        W62952  44.907  42.359   3.184
99229W        W62953   5.231   5.434  10.621
99230W        W62954  15.607  16.738  13.833
99231W        W62955  35.088   8.234   4.119
99232W        W62956  33.941  42.333  10.528
99233W        W62957  16.683  15.316  13.867
99234W        W62958  28.026  34.868   4.654
99235W        W62959  36.525  32.432  11.378
99236W        W62960   2.229  19.622  13.512
99237W        W62961  14.685  28.450   3.733
99238W        W62962   5.267  14.702   2.373
99239W        W62963  27.024   7.790  13.062
99240W        W62964   2.363  25.165  10.542
99241W        W62965  24.539  29.633   3.744
99242W        W62966  42.347  36.533   1.899
99243W        W62967  20.685  18.203  12.885
99244W        W62968   0.827  36.962   1.304
99245W        W62969  27.684  15.136  11.542
99246W        W62970  24.139  12.798  13.429
99247W        W62971  41.486  19.273  11.868
99248W        W62972   8.261  14.304  14.942
99249W        W62973   1.946  42.282   3.204
99250W        W62974   1.433   4.312  10.476
99251W        W62975  25.485  20.117  14.425
99252W        W62976  19.108  23.735  12.035
99253W        W62977   1.834  20.564   0.897
99254W        W62978   7.838  44.957   3.376
99255W        W62979   2.812  41.503   0.423
99256W        W62980  28.098   0.932   2.272
99257W        W62981  33.018   1.742  13.053
99258W        W62982  22.152  16.146  14.464
99259W        W62983  28.652   0.881   4.221
99260W        W62984   3.737  39.551   3.285
99261W        W62985  44.968  14.145  12.086
99262W        W62986   9.297  41.988   4.285
99263W        W62987  34.411  40.914   3.167
99264W        W62988   3.927  19.617   4.620
99265W        W62989   6.863   7.288  13.366
99266W        W62990  32.130  40.054  14.293
99267W        W62991  36.024  44.493  10.503
99268W        W62992  39.931  26.629  13.873
99269W        W62993  17.077  28.627  12.088
99270W        W62994  10.211  24.022  10.538
99271W        W62995   9.164  13.283  11.407
99272W        W62996  44.845  44.336  11.002
99273W        W62997   0.325  44.260  12.503
99274W        W62998   6.428  33.612  12.924
99275W        W62999  13.647   2.856   5.623
99276W        W63000  32.438   1.900   1.300
99277W        W63001  31.536  30.442  12.455
99278W        W63002  21.223  31.030   1.347
99279W        W63003  31.647  29.920   1.361
99280W        W63004  38.874   4.902   2.772
99281W        W63005  23.659  35.374  14.839
99282W        W63006  35.362   1.398   3.358
99283W        W63007  34.882  33.100   2.821
99284W        W63008  22.223  33.092  14.009
99285W        W63009  29.942   6.242  10.515
99286W        W63010   9.827  30.540   0.802
99287W        W63011  17.142  38.390  14.976
99288W        W63012  37.879   7.846   1.748
99289W        W63013   4.789   7.752  13.483
99290W        W63014  17.109  15.257  11.067
99291W        W63015  33.009  12.208  13.487
99292W        W63016  18.611  22.702   4.600
99293W        W63017  38.917  22.125  13.334
99294W        W63018   4.414  29.636   3.262
99295W        W63019  22.168  13.347   2.239
99296W        W63020  37.833  32.087  14.958
99297W        W63021   0.940  21.546  11.559
99298W        W63022  27.655  27.555  10.464
99299W        W63023  28.445   7.384  14.329
99300W        W63024  11.624   6.861  13.875
99301W        W63025  20.607  25.588   0.829
99302W        W63026  22.617   6.211   2.221
99303W        W63027   5.792  43.282   1.364
99304W        W63028  15.194  41.402  11.985
99305W        W63029  14.285  17.118   2.330
99306W        W63030  34.523  43.798  10.909
99307W        W63031  44.973   7.402  11.935
99308W        W63032  17.775  33.046  13.995
99309W        W63033  38.550  43.871  11.943
99310W        W63034  43.970   7.685  12.058
99311W        W63035  13.783  42.463   2.745
99312W        W63036  25.563  27.994  14.396
99313W        W63037   4.849  10.722   4.833
99314W        W63038  19.102  44.787   3.358
99315W        W63039   7.305   0.766   0.944
99316W        W63040  42.903  33.893   3.301
99317W        W63041  40.322  15.615   1.832
99318W        W63042  10.839  14.169  12.048
99319W        W63043   8.381  20.158  12.955
99320W        W63044  28.120  19.119  11.060
99321W        W63045  28.569   7.737   0.403
99322W        W63046  15.696   6.841   1.703
99323W        W63047  16.711  42.792   1.845
99324W        W63048  10.725  29.033   3.757
99325W        W63049  21.583  19.192   4.765
99326W        W63050   0.954  15.814   4.261
99327W        W63051  15.768  16.663  11.118
99328W        W63052  36.946  16.162  15.000
99329W        W63053   0.420   7.762   2.354
99330W        W63054  29.063  28.002  10.605
99331W        W63055  23.199  24.645  14.485
99332W        W63056  36.871  16.199  12.981
99333W        W63057  26.133  23.690   2.258
99334W        W63058  39.948  22.188   0.259
99335W        W63059  18.062  27.966  13.545
99336W        W63060   0.836  38.841  12.452
99337W        W63061  17.606  33.460  11.022
99338W        W63062   1.365  27.160  14.983
99339W        W63063   5.888  24.553  12.476
99340W        W63064   8.267  44.867  12.437
99341W        W63065  11.208  14.605   3.841
99342W        W63066  41.939  38.352  11.612
99343W        W63067   3.325  34.036   2.268
99344W        W63068  26.988  12.169   5.618
99345W        W63069   0.851   3.289  10.097
99346W        W63070  13.250  30.426   2.290
99347W        W63071   7.251  23.611   2.691
99348W        W63072  28.157  34.866  14.858
99349W        W63073   4.848  27.991  14.985
99350W        W63074  34.987  41.930  11.572
99351W        W63075  12.715  42.491   3.657
99352W        W63076  23.019  31.084  14.813
99353W        W63077  23.110  12.741   3.220
99354W        W63078  20.199  31.484   1.903
99355W        W63079  41.001  14.114   3.737
99356W        W63080  29.075   7.204   0.365
99357W        W63081  33.419   1.868  13.826
99358W        W63082  39.527   7.361  11.860
99359W        W63083  30.586  18.165   4.799
99360W        W63084  24.539  15.688  10.406
99361W        W63085  44.845  13.344   1.818
99362W        W63086  36.848  32.623  12.969
99363W        W63087  29.652   3.798  14.013
99364W        W63088  18.253  22.182  11.418
99365W        W63089   5.840   0.949   2.219
99366W        W63090  33.089  11.258  13.452
99367W        W63091  41.883  18.125  11.534
99368W        W63092   2.409  39.457  13.358
99369W        W63093  13.319  17.215   2.870
99370W        W63094  26.066   2.299   0.835
99371W        W63095  18.662  13.307   0.282
99372W        W63096  33.001  28.649  11.462
99373W        W63097  14.170   9.239   4.810
99374W        W63098  33.943   9.182  14.362
99375W        W63099  12.222  24.129   2.811
99376W        W63100  33.051  42.494   0.299
99377W        W63101  16.154  44.811  12.462
99378W        W63102  10.840  44.336  13.353
99379W        W63103  19.190  39.489   3.272
99380W        W63104   6.300  29.933   1.214
99381W        W63105  36.484  10.669  12.492
99382W        W63106   7.729  28.951  12.385
99383W        W63107  41.907  29.091  14.911
99384W        W63108  28.085   0.866  12.528
99385W        W63109  18.109  41.502   3.743
99386W        W63110  10.248   5.836  14.435
99387W        W63111  18.285  13.611   3.740
99388W        W63112   3.413  43.385   4.340
99389W        W63113   5.292  32.099   0.444
99390W        W63114  43.873  41.837  14.831
99391W        W63115  27.451  14.281   2.189
99392W        W63116  20.252   7.697   3.808
99393W        W63117  24.149   9.651  11.508
99394W        W63118  14.145  27.642  11.438
99395W        W63119  25.148   5.298   3.250
99396W        W63120  22.120  25.547   3.198
99397W        W63121  13.224  27.521  11.960
99398W        W63122   6.828  37.552  13.994
99399W        W63123  36.992   8.245  12.482
99400W        W63124  29.999  14.604  12.056
99401W        W63125  22.711  33.515   5.203
99402W        W63126  23.183  39.319  11.066
99403W        W63127  18.749  43.010  12.867
99404W        W63128   2.372  11.248  13.411
99405W        W63129   5.289  24.068  13.039
99406W        W63130  21.226  28.652   0.309
99407W        W63131   8.365   0.749   0.345
99408W        W63132  39.362  11.240   4.772
99409W        W63133  30.599  34.404   0.408
99410W        W63134  19.064  40.869   2.215
99411W        W63135  23.071  17.792  14.989
99412W        W63136  40.366  43.425   4.264
99413W        W63137  23.127   9.828   3.650
99414W        W63138  21.686  34.400  12.540
99415W        W63139  43.347  13.313  14.878
99416W        W63140  13.313   5.214  11.026
99417W        W63141  18.775   1.814   1.725
99418W        W63142  13.624   0.883   1.752
99419W        W63143  18.661   1.347   4.334
99420W        W63144  40.539  17.730  12.432
99421W        W63145  29.666   2.470  13.949
99422W        W63146  30.581   4.260   1.375
99423W        W63147   0.260  26.550  12.579
99424W        W63148  25.556  40.930  10.640
99425W        W63149  16.202  30.579   1.864
99426W        W63150   7.271   4.326   0.956
99427W        W63151   6.795   8.830   1.712
99428W        W63152   3.775   4.348  14.287
99429W        W63153  14.763  17.270  14.911
99430W        W63154  10.774  17.286   3.263
99431W        W63155  21.217  26.675   3.702
99432W        W63156  19.239  20.195  10.953
99433W        W63157  17.132   3.728  10.892
99434W        W63158  10.194  24.530   0.340
99435W        W63159  24.131  38.494  13.795
99436W        W63160  34.499  13.131  12.016
99437W        W63161  15.630  44.864  11.989
99438W        W63162  19.185  23.090   1.311
99439W        W63163  17.215  28.133  12.884
99440W        W63164  30.507  41.995   3.196
99441W        W63165  19.560   2.823  14.408
99442W        W63166  40.907   0.268  11.533
99443W        W63167  40.369  12.715   0.948
99444W        W63168  44.843  31.402  13.022
99445W        W63169  26.561  38.463  12.995
99446W        W63170   4.424   8.266  13.972
99447W        W63171  34.538  13.336  13.025
99448W        W63172   4.757  27.530  10.547
99449W        W63173  27.513  40.468  13.897
99450W        W63174  22.203  38.076  13.817
99451W        W63175  22.666  23.039   0.895
99452W        W63176  33.039   0.318  14.782
99453W        W63177  29.669  20.253   3.202
99454W        W63178  17.299  32.066  10.640
99455W        W63179  12.153  43.351  12.480
99456W        W63180  16.213  18.083  11.985
99457W        W63181  13.675  44.001  13.384
99458W        W63182  20.255  28.671  12.911
99459W        W63183  38.998  10.251  10.157
99460W        W63184  28.597  21.609  13.837
99461W        W63185  35.859  27.176   1.791
99462W        W63186  11.844   6.394   0.436
99463W        W63187  14.813  25.635   3.679
99464W        W63188   6.742  11.678  14.510
99465W        W63189   7.767   9.837  12.888
99466W        W63190   4.261  16.734  12.084
99467W        W63191   2.764  13.793   3.350
99468W        W63192  12.338  34.600  10.583
99469W        W63193  41.880   1.354   3.244
99470W        W63194  32.891  12.205  11.972
99471W        W63195  43.005   7.833   3.743
99472W        W63196  34.374   0.279  10.991
99473W        W63197  38.503  44.406   2.357
99474W        W63198  27.011  15.166  11.901
99475W        W63199  35.936  31.033   4.123
99476W        W63200  36.914  41.807  14.906
99477W        W63201  18.237  13.739  14.897
99478W        W63202  31.966  29.443   4.192
99479W        W63203  16.743  30.631   2.273
99480W        W63204  44.001  17.266   0.444
99481W        W63205  23.150  29.022   4.186
99482W        W63206   0.925   5.841   3.808
99483W        W63207  18.275  24.090  14.420
99484W        W63208  26.585  25.996   2.386
99485W        W63209  32.621  10.778  14.762
99486W        W63210   8.897  35.914  13.342
99487W        W63211  16.594   6.203   4.187
99488W        W63212  25.601   3.439  13.521
99489W        W63213  16.747  18.270   0.755
99490W        W63214  42.788  31.472  11.903
99491W        W63215  23.715  38.374  10.896
99492W        W63216   9.314  23.093  13.410
99493W        W63217   0.402  23.199  11.048
99494W        W63218  43.424  25.149   5.193
99495W        W63219  22.671  37.382   1.826
99496W        W63220  17.070  16.259   1.360
99497W        W63221  10.165  30.989   2.688
99498W        W63222  38.911  29.440   0.364
99499W        W63223   0.286  19.718  11.421
99500W        W63224  37.008  23.716  14.775
99501W        W63225  15.680   8.211   1.374
99502W        W63226   8.777  30.541  14.314
99503W        W63227  33.040  38.428  11.525
99504W        W63228   8.285  41.435  11.025
99505W        W63229  43.469   0.479   0.891
99506W        W63230  15.723  30.634   4.161
99507W        W63231   2.840  22.217   0.367
99508W        W63232  31.969   7.334   4.703
99509W        W63233  13.237   0.747   1.280
99510W        W63234  34.892  11.309  11.536
99511W        W63235   2.298  38.374   2.310
99512W        W63236  34.476  15.270  13.471
99513W        W63237  25.100   0.887  13.812
99514W        W63238  37.421  38.530  13.810
99515W        W63239  25.594  29.959   1.750
99516W        W63240  41.029  19.208   0.299
99517W        W63241  10.232  34.600  11.859
99518W        W63242   6.191  22.731  11.533
99519W        W63243  10.287  32.001   2.677
99520W        W63244  37.424  36.520  13.979
99521W        W63245   1.767  17.162   4.656
99522W        W63246  41.854  12.202  11.860
99523W        W63247  37.386  39.032  13.509
99524W        W63248  16.080   7.884  11.528
99525W        W63249  19.154   1.742  11.987
99526W        W63250   8.737   6.685   4.250
99527W        W63251  36.947  23.013  12.040
99528W        W63252  40.829  10.235   3.184
99529W        W63253  28.591  20.059   4.239
99530W        W63254  27.465  44.887  10.926
99531W        W63255  43.295  18.265   4.260
99532W        W63256  15.166  38.446  13.873
99533W        W63257  28.177  42.501  13.853
99534W        W63258  37.021  44.472   3.789
99535W        W63259   4.319   5.267  11.547
99536W        W63260  37.537  24.524   4.114
99537W        W63261   1.239  21.093  10.608
99538W        W63262  24.055   6.844   1.267
99539W        W63263  43.852  43.406   1.836
99540W        W63264  36.391  16.807   1.744
99541W        W63265  12.811   2.233  11.056
99542W        W63266  13.716   7.843  10.466
99543W        W63267  13.215  10.843  13.995
99544W        W63268  11.704  35.584  12.406
99545W        W63269  28.435   6.314  10.027
99546W        W63270  10.737  43.501   4.674
99547W        W63271  13.120  33.935   3.371
99548W        W63272  40.363  11.267   4.732
99549W        W63273  35.978  22.590  13.511
99550W        W63274  34.994  39.471  14.285
99551W        W63275  36.380   0.302  11.996
99552W        W63276  40.412   4.405   1.225
99553W        W63277  33.404  38.398   2.770
99554W        W63278  37.455  25.641  11.948
99555W        W63279  30.500  42.949   0.922
99556W        W63280   7.775  40.949   1.361
99557W        W63281  11.731  38.039   3.865
99558W        W63282  13.637  24.128  12.500
99559W        W63283  24.719  43.369   2.811
99560W        W63284  23.109  33.088   4.729
99561W        W63285   7.750  34.474   0.809
99562W        W63286   0.980   4.874   2.846
99563W        W63287   7.842  35.897   1.315
99564W        W63288  24.132  13.829  14.791
99565W        W63289  18.747  23.003   2.375
99566W        W63290  37.367  42.357   4.819
99567W        W63291  40.456  19.554  13.375
99568W        W63292   7.702   5.914  12.983
99569W        W63293  26.467  43.913  14.411
99570W        W63294   6.288   5.435   1.416
99571W        W63295  43.453  15.821   1.392
99572W        W63296   9.184  26.484  12.984
99573W        W63297   2.350  15.616   1.808
99574W        W63298  39.327   2.394   4.724
99575W        W63299  34.579  19.629   3.831
99576W        W63300  36.588  26.533   0.922
99577W        W63301   2.396  16.301   4.265
99578W        W63302  21.740  10.248  11.536
99579W        W63303  38.981  22.997  12.477
99580W        W63304  42.861  32.420   1.428
99581W        W63305   1.892  12.265   0.341
99582W        W63306   4.245   5.429   3.229
99583W        W63307   5.726  21.208   1.347
99584W        W63308  19.595  23.118   0.330
99585W        W63309  43.964  28.939  14.954
99586W        W63310  38.414  17.591   3.348
99587W        W63311   9.157  31.007  12.066
99588W        W63312  13.633  11.835  13.062
99589W        W63313  42.472   5.711  12.958
99590W        W63314  27.047  23.625   3.253
99591W        W63315  17.283  28.090   2.333
99592W        W63316   8.172   6.383  13.392
99593W        W63317   5.902  41.366   2.829
99594W        W63318  23.020   4.291   2.702
99595W        W63319   9.339  34.886  10.620
99596W        W63320  20.222   4.928   1.331
99597W        W63321  15.240  24.011   4.690
99598W        W63322  30.618  19.255  10.922
99599W        W63323  35.542  34.512  10.550
99600W        W63324  19.711  34.893  11.995
99601W        W63325  26.104  11.351   2.383
99602W        W63326   6.242  37.056  14.947
99603W        W63327  27.971  42.982   4.250
99604W        W63328   8.266  42.506   2.194
99605W        W63329  15.248  35.467   0.282
99606W        W63330  42.460  38.948  10.618
99607W        W63331  21.728   4.433   1.837
99608W        W63332  28.056  40.508   1.379
99609W        W63333  42.374   2.327  11.471
99610W        W63334  24.983  33.091   3.863
99611W        W63335   4.214   3.286  14.381
99612W        W63336  19.127  16.750  11.938
99613W        W63337  35.054  10.201  11.574
99614W        W63338  25.201  16.154   4.695
99615W        W63339   2.349   7.748  14.016
99616W        W63340   0.941  38.937   1.760
99617W        W63341  34.067   2.428  14.502
99618W        W63342   5.204  11.350   2.333
99619W        W63343  39.022  33.081   0.256
99620W        W63344  39.523  16.729   1.844
99621W        W63345   3.839   0.967   4.146
99622W        W63346   8.329  41.021   1.884
99623W        W63347  10.877  32.459  12.423
99624W        W63348  18.054  37.387   1.303
99625W        W63349  44.920  37.059   3.311
99626W        W63350  19.069  31.949   2.331
99627W        W63351  16.583  40.352   2.248
99628W        W63352  28.048  15.303   2.330
99629W        W63353  34.982  36.080   9.962
99630W        W63354  12.201  19.209  11.122
99631W        W63355  35.866  35.441  12.442
99632W        W63356  20.093  17.747   9.991
99633W        W63357  16.285  36.076   3.382
99634W        W63358  27.022  21.661  14.962
99635W        W63359  43.427  37.018  11.554
99636W        W63360   4.323  17.248   4.728
99637W        W63361  26.048  17.770  13.872
99638W        W63362  10.681   5.367   0.748
99639W        W63363   5.699  39.016  13.515
99640W        W63364  22.523  16.668  13.879
99641W        W63365  15.637  10.297   1.870
99642W        W63366   6.684  14.204  14.433
99643W        W63367  29.427  27.681   1.824
99644W        W63368  41.497  30.130  14.421
99645W        W63369  43.492  19.175  12.038
99646W        W63370  12.186  35.947   4.625
99647W        W63371  12.154  30.656  11.527
99648W        W63372  40.422  34.576   1.699
99649W        W63373  27.676   2.878  14.981
99650W        W63374  35.415  30.482   1.895
99651W        W63375   5.353   7.874   4.726
99652W        W63376  12.661  18.097  10.404
99653W        W63377  19.722  39.062  11.893
99654W        W63378   5.217  10.858  12.925
99655W        W63379  19.659  19.102  11.003
99656W        W63380  22.539  29.141  12.566
99657W        W63381   7.739  30.042  13.906
99658W        W63382  34.056  35.444   4.138
99659W        W63383  12.847  32.625  14.310
99660W        W63384  42.357  20.611  14.842
99661W        W63385  41.315  17.598  12.832
99662W        W63386  10.811  13.263   4.211
99663W        W63387  32.508  25.573   2.702
99664W        W63388  18.688  38.857  10.413
99665W        W63389  42.331  37.031   2.843
99666W        W63390  40.394  15.089  13.018
99667W        W63391  11.715  36.889  13.370
99668W        W63392  17.580  36.956   4.659
99669W        W63393   7.707   6.350   4.652
99670W        W63394   5.783  33.110  13.430
99671W        W63395  14.676  24.495   3.354
99672W        W63396  40.317   9.360  11.544
99673W        W63397  33.900  37.566   2.869
99674W        W63398   9.854  13.766  12.354
99675W        W63399  37.895  27.048   3.368
99676W        W63400  27.180  43.337  13.321
99677W        W63401   1.319  17.210  12.424
99678W        W63402  12.272  30.598   0.478
99679W        W63403   9.722  15.743   0.759
99680W        W63404  29.968  44.479  11.987
99681W        W63405  21.529   8.821   2.736
99682W        W63406  30.108  18.283  14.907
99683W        W63407   4.870  21.600  12.869
99684W        W63408  16.315  36.525  14.284
99685W        W63409   0.351  23.206  11.501
99686W        W63410  43.842   8.220  11.456
99687W        W63411  12.665   7.784   0.295
99688W        W63412  11.196  22.115   0.470
99689W        W63413  27.667  22.099   3.716
99690W        W63414  43.022   2.345  11.007
99691W        W63415  20.657  28.084   3.192
99692W        W63416   1.885   8.775   1.817
99693W        W63417  38.909  42.369   1.259
99694W        W63418   5.695  16.608  14.331
99695W        W63419   5.869  41.790   3.280
99696W        W63420   1.952   6.727   0.311
99697W        W63421  29.470  28.962  13.863
99698W        W63422  29.550   3.248  12.009
99699W        W63423  36.959  11.631   3.719
99700W        W63424  32.094  16.596   1.705
99701W        W63425   2.788  33.030  10.405
99702W        W63426  22.093   8.173   4.271
99703W        W63427  18.735  20.141   0.416
99704W        W63428  26.033  28.035  14.349
99705W        W63429  43.940  26.202   0.778
99706W        W63430  31.605  38.420   1.747
99707W        W63431  36.890  29.147   4.251
99708W        W63432  36.511  12.240  10.528
99709W        W63433  33.511  30.076  11.915
99710W        W63434  22.508   8.278   4.210
99711W        W63435  40.505  43.923   3.354
99712W        W63436  25.060   1.735  10.890
99713W        W63437  34.027  37.388   3.834
99714W        W63438   2.256  23.606   0.360
99715W        W63439  30.160  38.456   0.935
99716W        W63440  41.897  19.727   0.854
99717W        W63441   8.345  25.564  14.478
99718W        W63442   9.732  20.562   4.290
99719W        W63443   8.830  40.503  11.610
99720W        W63444  15.205  34.539  11.488
99721W        W63445  12.117  17.756   4.117
99722W        W63446  15.116  25.068  13.896
99723W        W63447  11.175   7.217  11.009
99724W        W63448   5.825   4.360   1.410
99725W        W63449  26.692  32.480  11.592
99726W        W63450  16.228  43.911   0.295
99727W        W63451  22.034  16.247  11.522
99728W        W63452   8.787  20.114  14.492
99729W        W63453  17.139  18.163  11.382
99730W        W63454   7.848  25.120   2.823
99731W        W63455   0.488  32.058  10.501
99732W        W63456   5.370  16.673   2.722
99733W        W63457  24.197  32.458  11.120
99734W        W63458  20.765  30.038  11.043
99735W        W63459  34.872   3.366   1.436
99736W        W63460  10.852  22.044   2.793
99737W        W63461  35.470  37.454  11.416
99738W        W63462  30.639   7.763   0.842
99739W        W63463  26.540  22.057   2.676
99740W        W63464   4.386  15.314   2.393
99741W        W63465  23.499  40.516   4.630
99742W        W63466  33.428   9.347   2.880
99743W        W63467  19.658  19.266   0.274
99744W        W63468   0.306  13.757  11.886
99745W        W63469  11.334  16.740  11.072
99746W        W63470  17.205  39.873   2.750
99747W        W63471  14.719  25.524  10.430
99748W        W63472  40.420  28.077  11.101
99749W        W63473  15.641  36.844  12.413
99750W        W63474  12.742  34.602   2.417
99751W        W63475  24.023  20.696   0.378
99752W        W63476  29.667   2.902   3.852
99753W        W63477   2.753  23.653  10.424
99754W        W63478   1.333  37.010   3.298
99755W        W63479  27.995  16.573  14.852
99756W        W63480  29.638  18.603   5.264
99757W        W63481  29.150  11.323  10.588
99758W        W63482  35.102  27.110   0.427
99759W        W63483  40.996   0.784   4.183
99760W        W63484   9.264   1.803   2.822
99761W        W63485  37.011  13.173  14.895
99762W        W63486  20.749  36.045  11.538
99763W        W63487   8.731  31.452   3.268
99764W        W63488  44.335   6.856  12.828
99765W        W63489  30.961  14.246   0.962
99766W        W63490  18.769  16.683  13.362
99767W        W63491   9.306  39.898   1.368
99768W        W63492  17.234  12.665  10.913
99769W        W63493   3.316  19.183  13.045
99770W        W63494   6.771  18.196  12.886
99771W        W63495   3.714   3.857   4.616
99772W        W63496   5.852  13.777   3.355
99773W        W63497  37.437  23.228  14.362
99774W        W63498  32.434  25.681   4.286
99775W        W63499  40.364  33.994  10.930
99776W        W63500  20.668  42.442   4.638
99777W        W63501  44.832  14.227   1.763
99778W        W63502  38.537  39.885   0.776
99779W        W63503  42.465  12.132   0.339
99780W        W63504   1.379  19.202  11.946
99781W        W63505  40.521  44.848   1.900
99782W        W63506  17.770  16.759   1.302
99783W        W63507  15.322  44.323  12.841
99784W        W63508   8.695   6.808   3.722
99785W        W63509   5.290  39.438   2.787
99786W        W63510  24.020  32.577   0.293
99787W        W63511  28.544  42.364   3.780
99788W        W63512  31.478  22.574   3.148
99789W        W63513  37.515  32.003  14.298
99790W        W63514  25.633  29.588  11.433
99791W        W63515   7.404   6.198  11.017
99792W        W63516  23.578  27.967   9.595
99793W        W63517   6.681  13.749  11.551
99794W        W63518   0.826   5.196  11.001
99795W        W63519   2.346  16.783   4.605
99796W        W63520  36.978  32.597  11.450
99797W        W63521  22.556  27.964   5.254
99798W        W63522   5.317  43.958   0.802
99799W        W63523   5.204  44.439  11.554
99800W        W63524  30.540  27.030  10.623
99801W        W63525  41.786  29.088   2.738
99802W        W63526   6.920  27.158  13.967
99803W        W63527  23.716  25.626   3.327
99804W        W63528  24.086  12.828  10.434
99805W        W63529   4.942  10.772   0.752
99806W        W63530  31.119  32.578   4.118
99807W        W63531  39.507  27.626  10.971
99808W        W63532  29.024  26.673   0.441
99809W        W63533  38.507  17.115   4.776
99810W        W63534   9.851  13.797   3.305
99811W        W63535  41.489  38.006   3.687
99812W        W63536  29.513  34.896   4.293
99813W        W63537  32.453   3.287   2.238
99814W        W63538  29.645  30.070  10.615
99815W        W63539   5.926  21.187  11.986
99816W        W63540  39.930  17.752  13.538
99817W        W63541   6.799   9.183   4.641
99818W        W63542  41.397  40.442  10.505
99819W        W63543  17.741   0.833   3.313
99820W        W63544  11.774   2.437  12.979
99821W        W63545  39.837   7.416  11.101
99822W        W63546  23.188  38.961  14.969
99823W        W63547  44.825   9.310  11.607
99824W        W63548   1.796  38.522   1.780
99825W        W63549  20.063  40.329   3.633
99826W        W63550   2.828  44.307   2.668
99827W        W63551  38.421  36.022   4.217
99828W        W63552  42.353   7.397  12.447
99829W        W63553  26.988  31.609  11.521
99830W        W63554  40.798  29.165   0.882
99831W        W63555  39.941  14.823   2.229
99832W        W63556  27.666   9.730  10.446
99833W        W63557   0.887  27.988   5.118
99834W        W63558  18.715   1.973   4.155
99835W        W63559  11.829  12.348   4.305
99836W        W63560  21.263  39.865  12.447
99837W        W63561   3.940  20.181   4.677
99838W        W63562  21.566  20.258   1.388
99839W        W63563   3.919  38.074  11.997
99840W        W63564  44.925  11.830   2.202
99841W        W63565  30.143  18.114   1.799
99842W        W63566  25.508  42.932  11.869
99843W        W63567  24.599  25.471  13.402
99844W        W63568  43.872  17.654  13.981
99845W        W63569  13.621  24.176   2.787
99846W        W63570   8.674  24.570  11.430
99847W        W63571  24.619  21.559   2.683
99848W        W63572  20.757   9.805  13.800
99849W        W63573  36.919   0.970   0.318
99850W        W63574  21.174  39.371   0.330
99851W        W63575   3.758  37.432  11.436
99852W        W63576  37.921  11.699   3.210
99853W        W63577  39.898  37.019   4.752
99854W        W63578  38.990   0.429  12.926
99855W        W63579  42.346  10.817  12.393
99856W        W63580  10.208  33.078   1.429
99857W        W63581  37.391  25.584   3.671
99858W        W63582   6.198  25.215  13.391
99859W        W63583  22.598  33.542  11.043
99860W        W63584  38.042  16.110   1.811
99861W        W63585  24.223   0.343   1.326
99862W        W63586  38.393   4.208   3.235
99863W        W63587  17.143   0.953   5.101
99864W        W63588   1.316   9.831   3.280
99865W        W63589  34.586  27.019  12.528
99866W        W63590  10.727  37.526   1.305
99867W        W63591   6.220  36.465  13.917
99868W        W63592  11.859   6.839   4.249
99869W        W63593  24.478   7.894   4.148
99870W        W63594  26.021   8.251   1.310
99871W        W63595   0.366   5.300   0.460
99872W        W63596  16.601  15.146   0.335
99873W        W63597  20.178  19.735   1.304
99874W        W63598  39.486   1.904  11.046
99875W        W63599  18.129  40.324   4.171
99876W        W63600   5.351  25.694   4.748
99877W        W63601  41.413  22.099  13.516
99878W        W63602  39.383  20.232   2.677
99879W        W63603  40.327  27.547   3.663
99880W        W63604  23.632  13.822  14.882
99881W        W63605  32.406  36.384   0.848
99882W        W63606  16.575  18.653  10.493
99883W        W63607  20.634  42.016  13.331
99884W        W63608  27.556  39.055   4.114
99885W        W63609  21.253  21.137   1.829
99886W        W63610  26.570  42.432  13.854
99887W        W63611  10.696   1.898  13.372
99888W        W63612  24.493  23.162   2.758
99889W        W63613  11.622   7.265  13.421
99890W        W63614  25.972  11.358  12.987
99891W        W63615  18.201  10.636  14.833
99892W        W63616  32.507  32.497  14.477
99893W        W63617  31.563   5.923   0.793
99894W        W63618  11.831  22.224  11.931
99895W        W63619  24.580   4.348  11.495
99896W        W63620   2.957   6.370   3.797
99897W        W63621  42.844   7.859   4.789
99898W        W63622  34.954  10.807   3.813
99899W        W63623  40.016  39.356  12.057
99900W        W63624  38.878  25.468  10.566
99901W        W63625  38.398  33.880  12.547
99902W        W63626  18.133  18.058  13.957
99903W        W63627  40.843  18.131  11.518
99904W        W63628  34.556  37.347   4.248
99905W        W63629  23.540  26.071   5.579
99906W        W63630  13.168  32.074  10.640
99907W        W63631  23.157  41.459   1.862
99908W        W63632  35.458   6.326   1.450
99909W        W63633   5.815  10.742  11.127
99910W        W63634  40.033   0.837   4.231
99911W        W63635  32.933  20.208  11.983
99912W        W63636   0.298  31.969   0.391
99913W        W63637  11.767  11.844  10.455
99914W        W63638  20.121  36.462  13.867
99915W        W63639  37.854  30.045   0.822
99916W        W63640  30.984  14.805  13.496
99917W        W63641   6.279  44.422   2.689
99918W        W63642  27.608  41.501   1.816
99919W        W63643  14.781  44.335   4.286
99920W        W63644  18.684  14.267  11.439
99921W        W63645  15.797  25.012   3.849
99922W        W63646  18.226  14.630   3.150
99923W        W63647  42.359  27.529  12.508
99924W        W63648  16.655   3.910   2.226
99925W        W63649  25.607  19.750  11.468
99926W        W63650  31.644  28.929   3.350
99927W        W63651  34.504  18.226  13.991
99928W        W63652  43.298  27.680  12.964
99929W        W63653   8.727  43.463   2.250
99930W        W63654   8.252  10.809  14.307
99931W        W63655  43.777  33.113  14.870
99932W        W63656  21.741  17.115  11.094
99933W        W63657  36.582  18.258   0.932
99934W        W63658  43.827   3.778  10.551
99935W        W63659  26.009   5.268  11.891
99936W        W63660  37.416  15.186   0.316
99937W        W63661  31.140  35.023   0.893
99938W        W63662  27.620  25.095  11.585
99939W        W63663  10.688   6.845   1.225
99940W        W63664  21.597  30.102   4.675
99941W        W63665  40.873  41.408  12.894
99942W        W63666  13.121  31.952   1.931
99943W        W63667  42.855  25.971  13.985
99944W        W63668   7.738  39.947   9.992
99945W        W63669  44.007   2.763   2.307
99946W        W63670  22.162  21.613   0.812
99947W        W63671  40.867  40.500  12.088
99948W        W63672  40.323  26.545   1.239
99949W        W63673  16.654  31.920   1.384
99950W        W63674  29.977  16.785   4.282
99951W        W63675  24.580  11.848   3.639
99952W        W63676  39.558  26.529   4.810
99953W        W63677  26.524  19.769  14.943
99954W        W63678   1.239  13.648  11.423
99955W        W63679  33.087   4.789   3.670
99956W        W63680  21.747  36.547  10.070
99957W        W63681  10.722  27.634   0.833
99958W        W63682  13.321  36.405   0.251
99959W        W63683   5.772  25.612   0.852
99960W        W63684  23.115   4.716  12.880
99961W        W63685  27.010   7.272  14.497
99962W        W63686   5.805   6.900  11.961
99963W        W63687  41.346   5.837   1.352
99964W        W63688  10.243   2.298   0.853
99965W        W63689  29.984  33.571   1.768
99966W        W63690  40.409  28.948  12.907
99967W        W63691  25.501  29.573   5.742
99968W        W63692  24.205  11.335  12.566
99969W        W63693  37.540  11.164  12.469
99970W        W63694  35.874  27.518   0.412
99971W        W63695  24.492  25.012   2.739
99972W        W63696  21.524   9.826  12.002
99973W        W63697  21.111  12.701  14.478
99974W        W63698   2.736  23.143   0.277
99975W        W63699  21.041  22.537   1.797
99976W        W63700  14.622  42.291  12.906
99977W        W63701  18.601   9.362  12.371
99978W        W63702  15.312  30.911  12.091
99979W        W63703  27.969  44.270   0.902
99980W        W63704  11.280  41.011   3.793
99981W        W63705  26.193  16.658   2.820
99982W        W63706   9.734  29.918   3.847
99983W        W63707  24.186   1.851   2.380
99984W        W63708  41.332  30.104   3.174
99985W        W63709  21.729   4.395   2.878
99986W        W63710  28.680   2.455   2.749
99987W        W63711  36.059  27.176   3.192
99988W        W63712  11.778  17.670  14.823
99989W        W63713  36.526  35.429  12.870
99990W        W63714  22.175  26.643   1.225
99991W        W63715  37.578   0.794   2.667
99992W        W63716   5.216  20.059  13.426
99993W        W63717  28.656  32.398   3.170
99994W        W63718  12.697   6.334  14.839
99995W        W63719  11.756  39.466   1.289
99996W        W63720   7.673   7.895   4.815
99997W        W63721   4.213  14.107  13.942
99998W        W63722  34.907  41.876   2.703
99999W        W63723  14.233  42.514  11.423
    0W        W63724  33.951  36.510   0.793
    1W        W63725   0.441   2.906   4.656
    2W        W63726   9.370   1.342   4.731
    3W        W63727  29.932  25.550   1.747
    4W        W63728  33.466  41.994   0.417
    5W        W63729  30.647  18.665  10.942
    6W        W63730  19.242  42.828   4.323
    7W        W63731  20.152  42.791   2.784
    8W        W63732   9.780  18.779   4.665
    9W        W63733  21.259  15.624   3.804
   10W        W63734  16.073  26.638   1.276
   11W        W63735  35.473  11.334   1.389
   12W        W63736  38.892   3.940  11.061
   13W        W63737  12.759  25.680   2.737
   14W        W63738   2.313  19.248   1.782
   15W        W63739  11.718  44.324  14.301
   16W        W63740  16.131   1.351  12.545
   17W        W63741   5.900   1.434  10.968
   18W        W63742   6.920   0.425   0.341
   19W        W63743  19.534  14.761  13.951
   20W        W63744  20.721   1.959  12.373
   21W        W63745  21.153   5.897   2.885
   22W        W63746  33.131  15.116   9.529
   23W        W63747  29.086  32.015  11.101
   24W        W63748  14.719  42.807  10.160
   25W        W63749  32.051   4.707  11.377
   26W        W63750  31.536  10.382   1.827
   27W        W63751   5.438  35.388   0.763
   28W        W63752  44.473  10.183   3.365
   29W        W63753  23.634  32.109   3.193
   30W        W63754   9.733  25.654   1.865
   31W        W63755  10.177  28.164  13.404
   32W        W63756   6.744  12.162   0.916
   33W        W63757   6.346  17.256  14.325
   34W        W63758  34.085  25.604   0.297
   35W        W63759  14.766  31.483  14.321
   36W        W63760  30.633  26.974  13.919
   37W        W63761  18.293  21.619   0.896
   38W        W63762  15.163  16.746  11.523
   39W        W63763  37.058   8.756  11.573
   40W        W63764   3.379  18.749   3.793
   41W        W63765  43.347  16.249   1.848
   42W        W63766  13.343  38.977  11.869
   43W        W63767  24.167   5.204   3.317
   44W        W63768  29.560   4.306  14.284
   45W        W63769   5.919   2.428  13.922
   46W        W63770  17.225  41.962   1.746
   47W        W63771  42.978  40.050  12.474
   48W        W63772  12.305  14.797  12.923
   49W        W63773  27.628  11.722   1.818
   50W        W63774  36.368  11.158   3.320
   51W        W63775   5.374  33.071   2.672
   52W        W63776  21.542   7.182  12.077
   53W        W63777  24.139  31.040   0.786
   54W        W63778  25.643  16.081   3.811
   55W        W63779  32.131  43.425   5.171
   56W        W63780  15.607  15.602   5.266
   57W        W63781  33.417   7.273  13.943
   58W        W63782  16.165  37.413  12.047
   59W        W63783  38.484   2.846   2.217
   60W        W63784  11.207  15.755  10.028
   61W        W63785  36.975  22.035   2.207
   62W        W63786  24.683  21.263  13.881
   63W        W63787   1.421  37.923  13.445
   64W        W63788  36.009   0.767   2.225
   65W        W63789  10.688   8.227  12.421
   66W        W63790  41.941  32.938   2.780
   67W        W63791  31.522   7.238   4.692
   68W        W63792  37.373  23.107   0.945
   69W        W63793  26.174  33.069  10.597
   70W        W63794   7.801  12.789  12.435
   71W        W63795  31.144   4.723  10.421
   72W        W63796  16.748   7.791  11.517
   73W        W63797  20.067   1.950  14.925
   74W        W63798   8.278  38.969   3.862
   75W        W63799  26.465  25.013   4.625
   76W        W63800  21.044  19.061   3.812
   77W        W63801  32.032   6.797   0.282
   78W        W63802  12.762  38.354  13.344
   79W        W63803  28.175  32.981   2.801
   80W        W63804   4.400   2.297   4.174
   81W        W63805  18.241  21.733   2.812
   82W        W63806  18.066  43.806   4.327
   83W        W63807  20.708  44.401  12.985
   84W        W63808  18.224  42.813  14.502
   85W        W63809   5.728  33.498  12.454
   86W        W63810   4.241   4.239   4.334
   87W        W63811   9.702   7.227  14.982
   88W        W63812  20.036  24.227   4.806
   89W        W63813   2.431  36.019   4.334
   90W        W63814  12.171   9.351  10.890
   91W        W63815  23.540  42.028   0.419
   92W        W63816  39.543  29.526  10.919
   93W        W63817  40.833  21.086  10.071
   94W        W63818  28.088  41.310   0.912
   95W        W63819  18.547   5.352   3.331
   96W        W63820  37.967  15.322   1.383
   97W        W63821  38.332  12.780   2.780
   98W        W63822   3.417  38.973   0.936
   99W        W63823   2.329  25.639  13.443
  100W        W63824  12.739   0.377   4.723
  101W        W63825  23.001  40.811   4.678
  102W        W63826  16.605  11.858   2.271
  103W        W63827   0.772  33.885   2.384
  104W        W63828  28.674  32.629   4.706
  105W        W63829  26.526  12.324  10.641
  106W        W63830  12.777   6.825   3.726
  107W        W63831  39.462  18.680   3.305
  108W        W63832  32.064  32.571  13.813
  109W        W63833  15.133  23.166  11.916
  110W        W63834  22.574  16.298  11.480
  111W        W63835  13.608  31.412  11.935
  112W        W63836  43.467  24.496  14.969
  113W        W63837  15.729   1.434   2.267
  114W        W63838  16.581  42.284   0.883
  115W        W63839   9.665  32.116  10.993
  116W        W63840  42.027   6.701   4.284
  117W        W63841  44.994   1.455  12.446
  118W        W63842   3.292  43.001   1.731
  119W        W63843  16.656  19.623   4.191
  120W        W63844  11.158  34.874   4.151
  121W        W63845  18.704  21.207   5.087
  122W        W63846   4.364  36.548   0.821
  123W        W63847   2.267  23.099   1.329
  124W        W63848  19.768  27.980   1.213
  125W        W63849  23.689   3.749   0.823
  126W        W63850  16.701   7.677   4.803
  127W        W63851  42.510  15.700   2.858
  128W        W63852   8.333   8.869   3.269
  129W        W63853  13.238  14.310   0.292
  130W        W63854  31.147  42.431   4.337
  131W        W63855  15.784   0.279  11.566
  132W        W63856   1.269  43.854  13.422
  133W        W63857  44.327  24.214   1.450
  134W        W63858  42.392  19.760  11.398
  135W        W63859  38.926  15.166   4.619
  136W        W63860   6.880  28.586   0.479
  137W        W63861   2.349  24.192  10.455
  138W        W63862  32.090  22.615   1.253
  139W        W63863   1.418  39.949   1.388
  140W        W63864  33.957  12.847  12.388
  141W        W63865  38.037  27.683  10.609
  142W        W63866  28.175  30.546  13.947
  143W        W63867  35.438  15.593  12.495
  144W        W63868  25.173  30.616   2.213
  145W        W63869  24.706  31.618   4.159
  146W        W63870  42.507  29.575   2.315
  147W        W63871   7.221  32.125   5.302
  148W        W63872   2.751  24.532  11.872
  149W        W63873  14.199  21.244  10.428
  150W        W63874  29.982  37.058   0.864
  151W        W63875  21.081  44.901  13.004
  152W        W63876  22.555   5.339  10.405
  153W        W63877   5.792  30.018   0.358
  154W        W63878  29.955   3.891   3.210
  155W        W63879  13.123  17.111   5.278
  156W        W63880  38.068  37.883   3.198
  157W        W63881  29.548  13.348  11.594
  158W        W63882   8.404  44.312  11.428
  159W        W63883  28.456  15.117  11.528
  160W        W63884  18.194  23.668  14.337
  161W        W63885  25.636   5.388   2.694
  162W        W63886   4.895  27.600  11.881
  163W        W63887  37.853  38.002   4.223
  164W        W63888  26.080  12.224   0.920
  165W        W63889  41.334  36.588   4.208
  166W        W63890  17.581   2.436  14.825
  167W        W63891  27.587   8.200  11.965
  168W        W63892  40.358  41.446  10.047
  169W        W63893  19.739  32.890  10.602
  170W        W63894   2.863  32.923  11.937
  171W        W63895   9.775  32.123  11.922
  172W        W63896  38.342   0.765   2.281
  173W        W63897   5.866  21.540  12.974
  174W        W63898  10.228   4.294  14.366
  175W        W63899  32.103  19.662  12.490
  176W        W63900  34.425   9.851  14.410
  177W        W63901  18.605  44.895  14.484
  178W        W63902  20.175  14.314   3.803
  179W        W63903  44.453  23.601  11.949
  180W        W63904  18.785   2.725  13.913
  181W        W63905  39.463  13.666  11.907
  182W        W63906  13.326   2.859   4.627
  183W        W63907   6.715  15.202  10.957
  184W        W63908   9.235  17.256  12.382
  185W        W63909   4.425  28.452  14.928
  186W        W63910   7.908   4.886   1.424
  187W        W63911  25.115   1.881   1.332
  188W        W63912   3.443  19.110  11.475
  189W        W63913  38.408  29.051  13.834
  190W        W63914  20.741  34.930  11.419
  191W        W63915  25.474  10.832   3.631
  192W        W63916  23.169  33.482  13.975
  193W        W63917   3.359  11.650  10.602
  194W        W63918  36.883   9.313  11.081
  195W        W63919  11.283  11.703   4.156
  196W        W63920  30.562  10.294   0.479
  197W        W63921  24.185  31.637   2.390
  198W        W63922  25.190  24.590   4.765
  199W        W63923  28.646  18.297   3.765
  200W        W63924  14.703  35.407   4.289
  201W        W63925   2.894  44.949  13.493
  202W        W63926  44.348   0.461  14.949
  203W        W63927  40.536   7.368  14.283
  204W        W63928  15.750  29.043  12.490
  205W        W63929  41.844  11.267  14.384
  206W        W63930  39.428  16.639  12.378
  207W        W63931  41.840  35.489   0.839
  208W        W63932  28.502  32.926   2.336
  209W        W63933  11.758   2.270   1.918
  210W        W63934  20.561  21.599  14.962
  211W        W63935  29.040  42.876   0.811
  212W        W63936  10.844  22.239   1.907
  213W        W63937  39.889  21.689  14.980
  214W        W63938  20.121  15.114  13.868
  215W        W63939   5.198  20.199   1.258
  216W        W63940  41.397  32.971   0.280
  217W        W63941  40.453  44.911  10.547
  218W        W63942  36.967  20.264  12.913
  219W        W63943  19.564  39.890   1.431
  220W        W63944  15.167   0.454  10.963
  221W        W63945  41.400  17.122   4.136
  222W        W63946   3.451  28.165  13.861
  223W        W63947  19.624  37.052  13.003
  224W        W63948  14.799  11.347  13.516
  225W        W63949  23.677   8.233   3.378
  226W        W63950  29.645  21.548   2.375
  227W        W63951  37.063  28.472  12.380
  228W        W63952  25.204  28.589  11.926
  229W        W63953  32.465  39.019  10.425
  230W        W63954  11.184  40.819  12.829
  231W        W63955   2.441  29.546  12.477
  232W        W63956  43.806   0.492  13.406
  233W        W63957   0.426  35.542   2.661
  234W        W63958  21.101  37.878   2.286
  235W        W63959  17.756  41.420  12.040
  236W        W63960   0.881  37.906   1.860
  237W        W63961  29.443  42.939  10.600
  238W        W63962  24.100  18.118  11.044
  239W        W63963  23.638  15.120   1.242
  240W        W63964  13.614  36.473  10.928
  241W        W63965  31.432  11.128  14.276
  242W        W63966  22.131  16.764   4.320
  243W        W63967  17.648  41.938  13.992
  244W        W63968  19.116  25.541  13.002
  245W        W63969   0.757  34.985  12.005
  246W        W63970  22.592  14.797  12.984
  247W        W63971  12.696  22.616  14.506
  248W        W63972   4.931  42.338  14.486
  249W        W63973  19.146  12.706  12.919
  250W        W63974  31.100   3.393  10.000
  251W        W63975   7.706  33.379  13.011
  252W        W63976  36.378   5.225  14.021
  253W        W63977  34.591  31.434   4.666
  254W        W63978  16.316  33.478  11.997
  255W        W63979  36.396   2.776  13.999
  256W        W63980  39.906   0.266  10.597
  257W        W63981  31.625   9.673   2.333
  258W        W63982  18.686  29.555   0.792
  259W        W63983  20.626  17.798   3.816
  260W        W63984  28.173  25.685  13.361
  261W        W63985   4.769   8.200   4.792
  262W        W63986  31.930   8.364   0.381
  263W        W63987  41.826  37.481  13.002
  264W        W63988  30.497  41.873   2.718
  265W        W63989  11.341  11.817  11.541
  266W        W63990  31.622   9.783  10.638
  267W        W63991  44.323   0.923   1.350
  268W        W63992  20.753  24.143   4.663
  269W        W63993  28.004  26.187  14.334
  270W        W63994  23.175   8.706  11.477
  271W        W63995   7.752   0.374   4.249
  272W        W63996  27.134  35.952   1.870
  273W        W63997  18.682  19.602   1.440
  274W        W63998  22.691   9.877  12.091
  275W        W63999   0.438  19.773  10.562
  276W        W64000   8.335  23.665  13.884
  277W        W64001   1.331  26.523   2.751
  278W        W64002  14.285  41.899   4.640
  279W        W64003  34.607   1.924   4.123
  280W        W64004  13.776  29.433  12.890
  281W        W64005  33.580  20.237  13.442
  282W        W64006  14.701   0.285   4.185
  283W        W64007  33.550  18.079   2.303
  284W        W64008  37.940  29.541   2.872
  285W        W64009  14.110  31.082  12.837
  286W        W64010  43.337  41.028  13.493
  287W        W64011   3.764   7.847   0.741
  288W        W64012  25.511   5.807   2.408
  289W        W64013   4.744  19.140   1.344
  290W        W64014  31.532  34.008  12.529
  291W        W64015  24.185  34.383   3.161
  292W        W64016  10.842  41.406  10.483
  293W        W64017   4.341  20.733   0.319
  294W        W64018  29.921  11.260   1.786
  295W        W64019  38.932  15.087  12.937
  296W        W64020  43.843  17.718   4.204
  297W        W64021  43.827  10.778  14.880
  298W        W64022  36.059   0.387  13.043
  299W        W64023  25.656  36.353   0.772
  300W        W64024  11.157  15.140   4.755
  301W        W64025  26.658  13.670   0.297
  302W        W64026  23.236  17.681  14.000
  303W        W64027  27.561   0.867  13.841
  304W        W64028  27.482  32.056  10.110
  305W        W64029  41.024  25.078   0.923
  306W        W64030  34.539  44.382  13.436
  307W        W64031  37.854  42.297  10.923
  308W        W64032  17.102  37.831   0.440
  309W        W64033   7.794  11.686  11.379
  310W        W64034  17.064   4.340   5.287
  311W        W64035  11.304  19.132   0.764
  312W        W64036   0.835  34.946   3.342
  313W        W64037  41.866  13.132   2.697
  314W        W64038  34.925  27.069   4.185
  315W        W64039  32.453  38.903   1.357
  316W        W64040  17.134  16.266   0.907
  317W        W64041   1.831   5.387  11.991
  318W        W64042   9.207  12.146  11.483
  319W        W64043  15.593  11.726  13.986
  320W        W64044  34.952  43.838   3.281
  321W        W64045  33.419  29.170  13.913
  322W        W64046  15.680  22.689   2.713
  323W        W64047   7.309   8.758  12.942
  324W        W64048   5.933  41.303  14.799
  325W        W64049  10.370  16.224   3.850
  326W        W64050  42.994  26.676   5.251
  327W        W64051  11.339  38.333  13.060
  328W        W64052  14.201  28.129  13.859
  329W        W64053   0.385   1.742   0.378
  330W        W64054  14.735  16.604  14.419
  331W        W64055  41.953  20.695  11.944
  332W        W64056  25.688  37.950   4.219
  333W        W64057  14.123  24.137   0.965
  334W        W64058  42.901  43.432  13.518
  335W        W64059  34.053  24.548  13.801
  336W        W64060  36.980  11.156  12.850
  337W        W64061  31.152  29.929  11.883
  338W        W64062  26.656  37.464  10.959
  339W        W64063   9.648   0.748  12.474
  340W        W64064  39.842   8.356   4.715
  341W        W64065  36.350  35.955  12.953
  342W        W64066  12.215  40.342  12.906
  343W        W64067  13.200  11.630   1.853
  344W        W64068  16.784  11.744  10.602
  345W        W64069   1.907  21.686  13.939
  346W        W64070  26.063   8.186   3.373
  347W        W64071   9.380   6.791  13.002
  348W        W64072  32.460  12.824   2.745
  349W        W64073  16.792  17.246   1.250
  350W        W64074  21.061  19.560   0.279
  351W        W64075  22.162  40.971   0.327
  352W        W64076   5.792  43.307   0.468
  353W        W64077  37.989  27.584   1.317
  354W        W64078  26.209   4.294   3.198
  355W        W64079  33.548  14.251  14.010
  356W        W64080  42.911  19.155   4.213
  357W        W64081  16.133   6.236  14.006
  358W        W64082   3.799  23.223  10.998
  359W        W64083  43.337  10.251   1.412
  360W        W64084  40.797  38.949   0.938
  361W        W64085  41.501  18.557  12.390
  362W        W64086  37.538  11.283   0.878
  363W        W64087  21.117  23.728   0.789
  364W        W64088   7.711   4.879  11.892
  365W        W64089  11.211  17.686   1.902
  366W        W64090  20.742  42.370   4.121
  367W        W64091   7.732   4.849  13.342
  368W        W64092   9.716  27.477  12.947
  369W        W64093   0.368  41.958   2.240
  370W        W64094  31.451  40.363  13.462
  371W        W64095  25.179  19.194  13.406
  372W        W64096  13.221  38.332  12.999
  373W        W64097   9.667   8.366   1.418
  374W        W64098  24.091  21.228  14.388
  375W        W64099  22.135  10.870   1.332
  376W        W64100  34.919  26.691   1.236
  377W        W64101  32.513  10.743  13.496
  378W        W64102  18.724  17.189   2.752
  379W        W64103  41.847  35.394   4.351
  380W        W64104   7.770  39.032   5.135
  381W        W64105   1.265  38.567  11.096
  382W        W64106   1.882   7.842  13.349
  383W        W64107  23.207  25.124  14.766
  384W        W64108  42.462   6.752   3.215
  385W        W64109   7.840   1.257  14.025
  386W        W64110  12.813  25.982  10.936
  387W        W64111  28.546   3.406  10.945
  388W        W64112   3.927  17.664   4.145
  389W        W64113  23.614   2.273   1.715
  390W        W64114  32.949  13.625   3.187
  391W        W64115  37.013  36.572   3.666
  392W        W64116   4.793  31.002  13.309
  393W        W64117  14.780  41.520   4.192
  394W        W64118  17.161  37.956   2.861
  395W        W64119  32.136  27.056   4.213
  396W        W64120  12.720   8.737   4.299
  397W        W64121  18.147  30.087  11.976
  398W        W64122  28.630  40.035   1.723
  399W        W64123  31.464  13.324   3.770
  400W        W64124  23.091  40.933  11.464
  401W        W64125  37.065  38.344   3.640
  402W        W64126  27.593  43.019  13.505
  403W        W64127  19.079  33.919  13.528
  404W        W64128  38.500  44.262   4.286
  405W        W64129  13.150  37.427   0.775
  406W        W64130  15.102  29.554   3.650
  407W        W64131  14.738   2.862   0.956
  408W        W64132  26.138  21.579  12.560
  409W        W64133  42.942  35.361   0.379
  410W        W64134  32.080  42.810   3.157
  411W        W64135  29.027  35.053  11.878
  412W        W64136  26.192  19.112   2.394
  413W        W64137  18.198   3.392   2.697
  414W        W64138  43.400  14.209  13.373
  415W        W64139   2.297  42.026  13.512
  416W        W64140  15.604  39.891  14.841
  417W        W64141  31.539   9.295  10.931
  418W        W64142  30.453  14.745  12.489
  419W        W64143   0.455  18.720  12.493
  420W        W64144  15.261  30.019   2.235
  421W        W64145  18.681  24.496   0.306
  422W        W64146  42.328  40.357   3.747
  423W        W64147  38.397   8.286   0.953
  424W        W64148  21.624  39.973   3.289
  425W        W64149  27.535   3.314  13.885
  426W        W64150  27.970  35.906  10.151
  427W        W64151  19.558  40.009  11.930
  428W        W64152  44.780   0.467   2.336
  429W        W64153  20.681  36.001  11.971
  430W        W64154   1.783  38.392   3.237
  431W        W64155   6.428  10.751   0.435
  432W        W64156  15.275  38.526  11.865
  433W        W64157  33.890  13.234  12.461
  434W        W64158  30.416  41.367  12.487
  435W        W64159   3.883   5.278  12.482
  436W        W64160  35.998  11.252   2.343
  437W        W64161  16.201  12.133  13.849
  438W        W64162  41.003  21.525   2.215
  439W        W64163  23.128  27.676  12.366
  440W        W64164  27.161   6.718   1.421
  441W        W64165  30.059   6.220  14.938
  442W        W64166  15.234   1.437  13.902
  443W        W64167  35.558  36.051  10.916
  444W        W64168   4.750  11.326  14.364
  445W        W64169  10.729  17.147  13.049
  446W        W64170   5.247  31.914   1.857
  447W        W64171   6.339  38.068  14.509
  448W        W64172  20.687  14.195  14.902
  449W        W64173  22.743  25.186   0.878
  450W        W64174  22.552   4.727   5.314
  451W        W64175  17.563   5.279  12.391
  452W        W64176  40.011  28.496  13.848
  453W        W64177  16.620  19.652  14.798
  454W        W64178  21.051  21.022  11.473
  455W        W64179  37.864  16.318   4.192
  456W        W64180  15.172  10.823  10.484
  457W        W64181   3.753  34.471   2.870
  458W        W64182  20.580  15.176   0.906
  459W        W64183  32.083   3.403   0.963
  460W        W64184  20.203   8.232   4.651
  461W        W64185   7.211  27.097  14.287
  462W        W64186   7.867  40.837  13.828
  463W        W64187  11.170   4.327   0.792
  464W        W64188  30.034  43.779  10.635
  465W        W64189  36.963  38.957   3.254
  466W        W64190  34.409  36.356  11.502
  467W        W64191  38.917  39.978  11.940
  468W        W64192  33.542  41.031   3.867
  469W        W64193   7.349   7.784   4.129
  470W        W64194  18.565   1.820  12.528
  471W        W64195  28.530  39.885   2.410
  472W        W64196  17.121  39.042   1.872
  473W        W64197  40.897  28.466  13.980
  474W        W64198  34.953  36.356   0.473
  475W        W64199  13.614  25.499  11.866
  476W        W64200  28.008   6.780  12.580
  477W        W64201  29.493  10.873   0.844
  478W        W64202   3.876  32.887   4.262
  479W        W64203  32.424  39.489  11.047
  480W        W64204  20.100   9.329   2.346
  481W        W64205  37.963  30.615  13.837
  482W        W64206  11.275  43.862   0.935
  483W        W64207  11.782  34.060  12.340
  484W        W64208   7.199  20.239  13.522
  485W        W64209  15.654  15.204   0.346
  486W        W64210  34.486  25.612   3.349
  487W        W64211  12.620  10.318  12.940
  488W        W64212  26.042  30.148  13.391
  489W        W64213  20.658  37.475   4.246
  490W        W64214  27.589  40.863   2.670
  491W        W64215  44.451   1.923  10.950
  492W        W64216   5.797  21.144  13.406
  493W        W64217  16.246   3.222   0.742
  494W        W64218   9.644  28.565   2.195
  495W        W64219  28.630   9.378   1.327
  496W        W64220  23.734  26.042  13.314
  497W        W64221  16.727   7.375   1.217
  498W        W64222  26.172  23.515   0.927
  499W        W64223  25.110  34.940   1.749
  500W        W64224   7.704  38.963   4.298
  501W        W64225  28.041  44.370  12.014
  502W        W64226  25.595   5.786  12.048
  503W        W64227  15.122  20.548   0.753
  504W        W64228  23.550  43.494  12.856
  505W        W64229  39.556  20.109   1.835
  506W        W64230  17.624  15.630  10.632
  507W        W64231  37.012  10.310  10.054
  508W        W64232  33.532  36.957  12.009
  509W        W64233  35.913  38.062   4.248
  510W        W64234  34.088   1.859  13.040
  511W        W64235   5.205  28.524  12.380
  512W        W64236  41.020  42.882  11.505
  513W        W64237  14.700   2.305  10.897
  514W        W64238  36.533  20.622  10.907
  515W        W64239  26.685  34.449   0.911
  516W        W64240   7.712  33.606   3.263
  517W        W64241  43.980  29.604   4.726
  518W        W64242   1.375  44.859   4.693
  519W        W64243  13.650  13.785   2.178
  520W        W64244   4.890  40.812   2.336
  521W        W64245  34.430  29.166   4.295
  522W        W64246  13.206   8.351  13.972
  523W        W64247   5.796  40.839   2.758
  524W        W64248  19.192   3.739  13.810
  525W        W64249  21.260  30.559   2.325
  526W        W64250   5.334   0.395  10.547
  527W        W64251   1.801  34.514  12.433
  528W        W64252  21.573   5.433  11.957
  529W        W64253   8.901  32.045  10.936
  530W        W64254   2.841  39.863  13.914
  531W        W64255  42.461  39.491   4.188
  532W        W64256  13.169   5.289   3.659
  533W        W64257  40.409  29.551  13.937
  534W        W64258  22.134   9.877  10.985
  535W        W64259  30.572  31.017  11.973
  536W        W64260   4.759  14.315   1.870
  537W        W64261  13.619  31.565   2.813
  538W        W64262  21.039  42.498  12.467
  539W        W64263  36.918   0.744   0.823
  540W        W64264  36.366  42.947  13.375
  541W        W64265  18.663  25.494  14.315
  542W        W64266  32.068  24.015   3.237
  543W        W64267  41.893   7.876   4.242
  544W        W64268   3.880  25.192  10.038
  545W        W64269   7.721  43.816  11.007
  546W        W64270  10.809  14.174   3.821
  547W        W64271  24.174  38.357  13.045
  548W        W64272   6.853   6.410  10.481
  549W        W64273  35.057  40.449  12.369
  550W        W64274  37.031  26.606   4.776
  551W        W64275   5.878  34.886  14.413
  552W        W64276  33.475  32.541  12.867
  553W        W64277  15.585  15.289  10.536
  554W        W64278  19.728  21.049   9.986
  555W        W64279  29.988  38.961   1.802
  556W        W64280   9.726   2.932   0.775
  557W        W64281  40.825  22.174   2.309
  558W        W64282  19.588   5.437  14.921
  559W        W64283  44.978   1.852  12.495
  560W        W64284  31.583  42.301  13.388
  561W        W64285  14.692  30.470   4.146
  562W        W64286  39.891  22.170   2.796
  563W        W64287  11.746  36.439  13.054
  564W        W64288  29.669  24.536   1.423
  565W        W64289  30.532   5.821   1.865
  566W        W64290  30.055  35.853   3.744
  567W        W64291  21.728  24.997  11.933
  568W        W64292  26.022  22.040  13.307
  569W        W64293  37.557  42.898   2.228
  570W        W64294  14.253  43.295  12.550
  571W        W64295  44.795  23.993  13.371
  572W        W64296  13.158  42.446   3.819
  573W        W64297  11.134  34.005  12.369
  574W        W64298  31.985  14.117  14.988
  575W        W64299   6.811  24.977   3.364
  576W        W64300  31.633  43.022   1.703
  577W        W64301   9.888   8.214   3.360
  578W        W64302  38.897   6.899   3.229
  579W        W64303  34.501  41.983  11.002
  580W        W64304  14.274  34.959   0.286
  581W        W64305  22.657  10.368  10.989
  582W        W64306  43.863  27.662   2.894
  583W        W64307   6.771  17.659   3.224
  584W        W64308  28.141  21.236   2.288
  585W        W64309  17.224  20.658   4.178
  586W        W64310  31.583  43.306   3.811
  587W        W64311   5.925  13.338  11.007
  588W        W64312  14.731  28.159   2.797
  589W        W64313  31.906   9.238   1.232
  590W        W64314  29.175   3.339  11.540
  591W        W64315  21.235  33.462   1.866
  592W        W64316  26.492  40.946  14.845
  593W        W64317  41.947  42.301   1.238
  594W        W64318  14.098  39.435   3.320
  595W        W64319  19.269  18.640   1.901
  596W        W64320  32.482  42.350   3.238
  597W        W64321   9.741  26.093   1.882
  598W        W64322  42.006  38.422   0.963
  599W        W64323  35.565  28.151   0.898
  600W        W64324   3.295  28.050   2.347
  601W        W64325  44.965  25.188   2.272
  602W        W64326  30.641  28.546  10.420
  603W        W64327   5.393  20.604  10.923
  604W        W64328  26.461  26.047   4.747
  605W        W64329   8.753  33.932   2.794
  606W        W64330  39.411   0.375   3.192
  607W        W64331  38.962  36.375   5.312
  608W        W64332   4.704  24.069  14.332
  609W        W64333   1.961  38.410   1.246
  610W        W64334  27.491  25.676   2.724
  611W        W64335  39.885  15.583   1.903
  612W        W64336  10.787   4.441   0.457
  613W        W64337  24.033   9.152   3.285
  614W        W64338  35.467  43.769  11.566
  615W        W64339   6.799  16.745   4.742
  616W        W64340   5.819  28.645   0.957
  617W        W64341  30.073  16.571  13.541
  618W        W64342  31.402   3.229   4.169
  619W        W64343  21.634   2.440  11.492
  620W        W64344  40.859  22.736   0.378
  621W        W64345   9.768   4.919  14.429
  622W        W64346  19.238   9.388  14.909
  623W        W64347  40.397  22.066   0.265
  624W        W64348  41.485  30.596  13.356
  625W        W64349  40.476   8.193  14.303
  626W        W64350  36.974   4.442  11.097
  627W        W64351  37.878  21.566  13.465
  628W        W64352  38.531  15.810  13.924
  629W        W64353  17.268  38.975  14.982
  630W        W64354   5.301  36.033  14.890
  631W        W64355  40.907  25.151  12.506
  632W        W64356  33.093  19.246  10.890
  633W        W64357  13.172  43.800  12.348
  634W        W64358  15.689  14.177   1.233
  635W        W64359  16.114  40.461  10.948
  636W        W64360  14.774   6.742  14.363
  637W        W64361  14.647  42.813   0.278
  638W        W64362  34.470  16.682   2.754
  639W        W64363  24.523  37.387   4.796
  640W        W64364  23.218  34.872  13.896
  641W        W64365  41.800  13.691  13.797
  642W        W64366  39.908  41.299  11.013
  643W        W64367   8.818  38.076  12.445
  644W        W64368   7.403  35.414   2.356
  645W        W64369  43.508  27.941   2.742
  646W        W64370  30.996  15.160   4.661
  647W        W64371   6.345  21.098   2.768
  648W        W64372  35.380  27.006  14.476
  649W        W64373  24.630  11.350  10.623
  650W        W64374  24.089  23.691  13.960
  651W        W64375  19.535  24.218   4.637
  652W        W64376   8.345  12.734  11.049
  653W        W64377   6.792  34.453   4.745
  654W        W64378  40.348  25.116  12.866
  655W        W64379   9.775  31.142   3.318
  656W        W64380   5.775   1.250   0.780
  657W        W64381  32.533  30.632   1.897
  658W        W64382   7.759  24.507   3.805
  659W        W64383  40.493  23.709   1.253
  660W        W64384  43.871   3.349   1.751
  661W        W64385  11.726  37.869   1.281
  662W        W64386  30.108  26.001  13.912
  663W        W64387  13.152  17.073  13.311
  664W        W64388  28.997   4.746  14.792
  665W        W64389  10.161   3.896  14.984
  666W        W64390  13.257  13.333  13.855
  667W        W64391   1.797  29.487  11.000
  668W        W64392  37.552  33.904   1.395
  669W        W64393  21.238  42.847   1.790
  670W        W64394  39.435  36.398  13.370
  671W        W64395  13.296  28.451   2.783
  672W        W64396  36.477  42.864  13.868
  673W        W64397  42.843   7.863   2.781
  674W        W64398  31.403  23.083   3.268
  675W        W64399   8.656  19.238   1.931
  676W        W64400  26.652  42.929  12.430
  677W        W64401  34.542  25.979  12.563
  678W        W64402  33.520  22.669   0.449
  679W        W64403  17.620   0.797   0.787
  680W        W64404  20.240  27.081  11.069
  681W        W64405   6.771  28.568   3.829
  682W        W64406  13.815  14.293  13.359
  683W        W64407  10.375  35.032   4.228
  684W        W64408   6.905  15.227  14.838
  685W        W64409  24.492   2.280  14.895
  686W        W64410  13.320  20.612   2.876
  687W        W64411  28.995  13.276  12.441
  688W        W64412   0.473  32.069   4.255
  689W        W64413  23.037  14.261  13.323
  690W        W64414  27.942  36.523  14.440
  691W        W64415  16.667   6.293  11.973
  692W        W64416   6.397  20.681  10.997
  693W        W64417  14.249  31.615  11.011
  694W        W64418   5.932  12.297  12.842
  695W        W64419  18.675  43.862   0.913
  696W        W64420   3.802   7.668  10.567
  697W        W64421  14.683   0.422   1.867
  698W        W64422  38.370  24.100  10.470
  699W        W64423   7.176  31.478  11.505
  700W        W64424  14.209  37.002  12.896
  701W        W64425  10.275  14.678  11.552
  702W        W64426  26.139  23.516   1.441
  703W        W64427  10.188  27.049   3.352
  704W        W64428  21.131  43.912   1.801
  705W        W64429  31.526  40.797   1.299
  706W        W64430  19.696   7.173  14.842
  707W        W64431  16.677   5.261   2.761
  708W        W64432  42.409   6.209   0.765
  709W        W64433  29.463  35.453   3.244
  710W        W64434  30.600  17.300   2.722
  711W        W64435  21.092   0.817  11.109
  712W        W64436  25.120   9.648   1.214
  713W        W64437  25.988  38.051  11.952
  714W        W64438  14.094  12.795  14.909
  715W        W64439  36.975   9.177   2.263
  716W        W64440  31.049  14.799  13.988
  717W        W64441  21.173  10.664  12.005
  718W        W64442  15.589  37.031   9.950
  719W        W64443  18.654   7.276   2.265
  720W        W64444  14.105  38.044  14.409
  721W        W64445  32.477  14.725   3.298
  722W        W64446  13.151  14.803  11.580
  723W        W64447   5.762  25.969  14.024
  724W        W64448  10.269  41.328   4.818
  725W        W64449  25.126   0.371   1.790
  726W        W64450  22.626  31.975   0.730
  727W        W64451  43.920   0.767   2.328
  728W        W64452  20.266  34.960  10.421
  729W        W64453   7.255  10.157  10.919
  730W        W64454  38.457  20.670  11.998
  731W        W64455  36.377   2.878   2.316
  732W        W64456   9.390   2.372  11.069
  733W        W64457   1.253  29.933   0.362
  734W        W64458   5.895  35.058   0.788
  735W        W64459  44.498  27.469   3.641
  736W        W64460  14.781  15.194  12.918
  737W        W64461  32.459  41.020  13.423
  738W        W64462   0.397  12.757  10.473
  739W        W64463  38.888  33.550   4.345
  740W        W64464  37.483  20.646  12.439
  741W        W64465  11.753  17.709  11.440
  742W        W64466  35.511  11.306  14.360
  743W        W64467  19.206  14.632   2.789
  744W        W64468  26.054  14.131  11.946
  745W        W64469  20.226  12.799  11.600
  746W        W64470   6.279   9.822  11.053
  747W        W64471   4.227  44.294  11.504
  748W        W64472  13.800   4.432   3.630
  749W        W64473  39.830  42.786  12.989
  750W        W64474  20.192  21.533   3.707
  751W        W64475   7.287  23.198   1.211
  752W        W64476  33.938   0.963  10.469
  753W        W64477  14.203   3.243   1.228
  754W        W64478  38.876  19.246  11.870
  755W        W64479  23.705  37.478  12.398
  756W        W64480  40.437  37.872   1.217
  757W        W64481  43.307  34.067  13.483
  758W        W64482  20.531  13.722   4.622
  759W        W64483  28.459  41.859  11.570
  760W        W64484  12.811  33.438  13.407
  761W        W64485   9.645  40.944  11.001
  762W        W64486  32.636  29.007   2.726
  763W        W64487  43.997  12.199  11.565
  764W        W64488  26.043  43.887  10.590
  765W        W64489   6.768  42.896   4.807
  766W        W64490  19.114   5.896  14.414
  767W        W64491  23.073  27.022   3.815
  768W        W64492  38.530   1.264  12.086
  769W        W64493  41.950  26.143   2.693
  770W        W64494   3.265  35.959  11.591
  771W        W64495  39.955  44.338  12.825
  772W        W64496  25.008  30.952   5.254
  773W        W64497  25.067  35.877   1.837
  774W        W64498   7.908  25.179  14.402
  775W        W64499  34.528  39.492   1.438
  776W        W64500  35.569  27.985   2.388
  777W        W64501  41.404  43.334  12.512
  778W        W64502  35.407  22.654   2.367
  779W        W64503   0.949  22.597  11.449
  780W        W64504   0.964  21.616  14.930
  781W        W64505  38.447  27.953   2.718
  782W        W64506   6.229  17.141   0.876
  783W        W64507   6.900  30.907   1.892
  784W        W64508   9.720  24.973   1.878
  785W        W64509  26.185  27.450   3.700
  786W        W64510   0.953  40.312   4.140
  787W        W64511  29.640  28.162  11.380
  788W        W64512  39.503  16.594  11.514
  789W        W64513  11.804  35.406   1.247
  790W        W64514  25.055  19.688   4.249
  791W        W64515  26.173  41.441   3.171
  792W        W64516  29.994  43.872   1.839
  793W        W64517  39.464  40.341  11.030
  794W        W64518  17.568  15.125   3.268
  795W        W64519  29.148  23.555   4.253
  796W        W64520  21.208  30.131   4.149
  797W        W64521  19.538  36.521  12.459
  798W        W64522  32.410   4.420  11.553
  799W        W64523   4.407  10.763   2.827
  800W        W64524  37.357  25.049   1.390
  801W        W64525  23.050  39.459  12.382
  802W        W64526  10.251  38.040   1.933
  803W        W64527  39.387  35.602   4.246
  804W        W64528  31.918  20.676   4.790
  805W        W64529  20.150   5.766  14.836
  806W        W64530  18.151   8.786   2.739
  807W        W64531  25.172  39.953   0.829
  808W        W64532  22.999  27.052  14.999
  809W        W64533  29.079  26.160  11.860
  810W        W64534   1.868  18.618  13.361
  811W        W64535   0.407  44.891  14.027
  812W        W64536  15.649  39.463   1.923
  813W        W64537  37.009  11.367  14.852
  814W        W64538  32.484  42.990   0.282
  815W        W64539  39.051  11.269  14.909
  816W        W64540  44.365   9.388   3.775
  817W        W64541  10.859  44.762  10.549
  818W        W64542  38.934  27.573   3.725
  819W        W64543  41.427  38.386   1.770
  820W        W64544  34.067   6.229   1.747
  821W        W64545  11.647  39.057  10.599
  822W        W64546  40.545  40.996  12.079
  823W        W64547  25.081  25.186  14.345
  824W        W64548  16.743   7.396  11.099
  825W        W64549   8.234   8.830  12.435
  826W        W64550  41.488  29.040  14.419
  827W        W64551  27.098   9.299  11.480
  828W        W64552  27.134  10.154  12.574
  829W        W64553   2.941  10.171  11.015
  830W        W64554  38.365  12.302  14.950
  831W        W64555  17.081   1.465   4.316
  832W        W64556  32.996  17.268   0.811
  833W        W64557  19.595  13.264  12.375
  834W        W64558  17.074  28.141  11.086
  835W        W64559  42.400  40.357   1.709
  836W        W64560  26.072  43.006   1.413
  837W        W64561   0.330  14.138   2.818
  838W        W64562  31.586   3.742   1.336
  839W        W64563  15.296   5.700   5.626
  840W        W64564  20.727  26.669   3.697
  841W        W64565  42.024  35.380   2.210
  842W        W64566   7.739   5.819   3.362
  843W        W64567  34.586  32.552   4.233
  844W        W64568  44.906  39.007   3.213
  845W        W64569   2.429  32.988  11.442
  846W        W64570   5.326   9.172  12.539
  847W        W64571  27.999  12.144   4.690
  848W        W64572  17.710  18.753  10.644
  849W        W64573  23.990  28.477   4.115
  850W        W64574  33.571  40.996   1.931
  851W        W64575  42.435  43.958   1.312
  852W        W64576  38.046  44.983   2.338
  853W        W64577  38.037   8.180   3.234
  854W        W64578  10.733   4.802   4.743
  855W        W64579   1.919  10.638   3.199
  856W        W64580  24.139   0.989   3.258
  857W        W64581  39.961  30.645  13.915
  858W        W64582   5.267  35.871  12.871
  859W        W64583   7.878  12.749   4.701
  860W        W64584  15.760  25.986  11.602
  861W        W64585   8.273  35.372  13.438
  862W        W64586  18.560   3.223   1.697
  863W        W64587  31.997  44.278  11.469
  864W        W64588  23.657  32.462  10.007
  865W        W64589  20.729   6.405  10.546
  866W        W64590   5.380   9.747   0.749
  867W        W64591  26.006  18.669   2.730
  868W        W64592   1.733   7.184   1.698
  869W        W64593   3.848  38.501   0.355
  870W        W64594  29.556  23.655  13.061
  871W        W64595  24.061  22.502   4.648
  872W        W64596   3.765   2.456   1.914
  873W        W64597  17.796   8.696  13.972
  874W        W64598   4.253  25.677  10.944
  875W        W64599  35.908  11.373  12.382
  876W        W64600   3.932  24.065   3.733
  877W        W64601  35.886   6.298  14.474
  878W        W64602  24.156  32.142  14.769
  879W        W64603  17.074  36.025   0.772
  880W        W64604  18.258  22.249  14.295
  881W        W64605  14.721   7.181   9.990
  882W        W64606   6.395  31.501  10.060
  883W        W64607  42.803   7.394   1.278
  884W        W64608  25.709  34.511   0.771
  885W        W64609   0.477  14.818   4.683
  886W        W64610  43.480  33.043   0.798
  887W        W64611   9.178  22.071   2.774
  888W        W64612  18.707   5.196   4.331
  889W        W64613  31.442  16.729  11.932
  890W        W64614  28.679  25.973   3.207
  891W        W64615  38.517  13.290  10.939
  892W        W64616  36.384  33.625   1.236
  893W        W64617  29.937  41.377  13.848
  894W        W64618  12.748  44.336  10.524
  895W        W64619   2.728  35.379   3.253
  896W        W64620  29.007  30.937   1.796
  897W        W64621  42.885  10.635  14.767
  898W        W64622   6.378   7.713   4.805
  899W        W64623  39.843  44.500  10.140
  900W        W64624  20.262  40.982   3.727
  901W        W64625  27.154  38.868  12.521
  902W        W64626  21.613   3.327  14.877
  903W        W64627  23.625  44.866   2.738
  904W        W64628  26.168  26.085  11.980
  905W        W64629  35.474  31.457   3.662
  906W        W64630   3.378  39.325  14.942
  907W        W64631  31.034   0.360   2.721
  908W        W64632  31.414  33.490   4.317
  909W        W64633   9.807   9.232   3.274
  910W        W64634  44.281  43.302  13.894
  911W        W64635  30.021  35.049   0.853
  912W        W64636   3.941  33.989  10.622
  913W        W64637   1.821   8.346   3.275
  914W        W64638   4.316   4.208  13.021
  915W        W64639  24.136  22.557  13.407
  916W        W64640  15.763  25.563  10.404
  917W        W64641  44.318  39.486  11.954
  918W        W64642  41.870  36.545  13.825
  919W        W64643  26.642  25.474  14.415
  920W        W64644   4.863  41.969   0.331
  921W        W64645  28.585  29.550  14.985
  922W        W64646  38.948  28.632   1.890
  923W        W64647  31.153  24.172   2.776
  924W        W64648  22.643  24.550   4.834
  925W        W64649  44.951  13.660  10.954
  926W        W64650   5.248  15.702  11.063
  927W        W64651  22.998  22.698   2.256
  928W        W64652  27.093   3.748  11.493
  929W        W64653  13.228  29.075  11.069
  930W        W64654  42.449  32.497  13.015
  931W        W64655   0.481   3.761  11.963
  932W        W64656  18.127  44.858   1.254
  933W        W64657   4.415  42.340  12.525
  934W        W64658  33.615  13.167  10.890
  935W        W64659  11.714  29.105  14.767
  936W        W64660  24.588  42.982  14.430
  937W        W64661  34.865  29.602  10.997
  938W        W64662  42.886  27.961   1.224
  939W        W64663  17.266  29.984  12.891
  940W        W64664  22.203  18.614  11.961
  941W        W64665  12.718   7.857  13.941
  942W        W64666  15.579  19.233  12.908
  943W        W64667  38.469  31.965  11.404
  944W        W64668  34.392   0.914   0.450
  945W        W64669  32.544   1.860  12.823
  946W        W64670  18.129   4.898  13.367
  947W        W64671  11.189  43.310   1.844
  948W        W64672  43.291  42.938  10.926
  949W        W64673  22.112  20.185  14.881
  950W        W64674  23.214  25.595  13.962
  951W        W64675  33.620  14.622   2.762
  952W        W64676   9.846  34.370   3.333
  953W        W64677  40.946  36.056   1.228
  954W        W64678  12.273   3.412   2.276
  955W        W64679  43.972  36.490   0.860
  956W        W64680  31.946   6.345  14.930
  957W        W64681  36.547  25.038   4.713
  958W        W64682  13.616  31.152   3.202
  959W        W64683  36.020  14.327  13.014
  960W        W64684   5.893  19.734   4.234
  961W        W64685   1.272  44.910   2.196
  962W        W64686  34.577   8.227   4.671
  963W        W64687  11.300  17.192  13.424
  964W        W64688  29.627  36.975   1.761
  965W        W64689  27.641  12.142  13.944
  966W        W64690  15.581   3.727   5.194
  967W        W64691  13.128  26.647  13.316
  968W        W64692   2.964  34.063  10.999
  969W        W64693  15.764  12.838  12.037
  970W        W64694  22.130   1.781  14.484
  971W        W64695  37.470  44.825  12.020
  972W        W64696  41.467  33.594  11.467
  973W        W64697   3.423  11.768   4.627
  974W        W64698  12.264  44.878   3.199
  975W        W64699   3.395  16.268  13.037
  976W        W64700  24.526   5.833   2.712
  977W        W64701  38.348  39.460  11.099
  978W        W64702  32.053  23.097   2.396
  979W        W64703  31.421  12.143   2.182
  980W        W64704  40.868   1.967   4.677
  981W        W64705  16.803  26.034   4.274
  982W        W64706  37.900  25.596  14.362
  983W        W64707  21.738  39.827  13.487
  984W        W64708  27.162  40.956   1.829
  985W        W64709  32.985  29.144  14.339
  986W        W64710  44.378  37.445   5.286
  987W        W64711  36.481   0.797  14.444
  988W        W64712  43.825   2.953  13.061
  989W        W64713   1.800   3.245  13.424
  990W        W64714  41.821  16.215  10.642
  991W        W64715  13.116  28.128  10.487
  992W        W64716  34.528  24.722   1.823
  993W        W64717  32.948  11.316   2.878
  994W        W64718  26.651  21.605   4.795
  995W        W64719  40.547   0.308   1.295
  996W        W64720   7.233  31.468  12.057
  997W        W64721  12.259  17.243   0.867
  998W        W64722   4.263  25.986   4.186
  999W        W64723  39.965  42.526  14.931
 1000W        W64724  30.617   8.674  12.984
 1001W        W64725   8.365   7.282  12.021
 1002W        W64726  28.132   3.787   5.272
 1003W        W64727   9.275   5.910  11.943
 1004W        W64728   7.247  43.768  12.382
 1005W        W64729  40.494  43.836   4.295
 1006W        W64730   2.782  19.280  13.796
 1007W        W64731  25.655   7.909   4.316
 1008W        W64732   0.968  13.711   0.296
 1009W        W64733  11.704  35.964  10.996
 1010W        W64734  40.383  19.600  13.024
 1011W        W64735  17.217  37.990  14.880
 1012W        W64736  11.779   3.888   0.359
 1013W        W64737  27.559  20.238  13.435
 1014W        W64738  16.252   2.893   1.876
 1015W        W64739  15.663  35.066  10.574
 1016W        W64740  38.396  22.135  11.481
 1017W        W64741   5.932  11.324   1.352
 1018W        W64742  17.218  18.139   4.830
 1019W        W64743   8.812  13.226  14.855
 1020W        W64744   7.868  30.082  12.069
 1021W        W64745  40.470  17.262  12.555
 1022W        W64746  42.366  34.043  14.867
 1023W        W64747  42.450  37.900  10.506
 1024W        W64748  35.545   0.865   4.750
 1025W        W64749  37.908  18.672  12.408
 1026W        W64750  25.607  18.243  13.919
 1027W        W64751  18.217   0.833   3.807
 1028W        W64752   6.743   0.471  10.551
 1029W        W64753  21.027  40.433   1.313
 1030W        W64754  28.528   2.401  10.523
 1031W        W64755  29.131  38.923  13.982
 1032W        W64756   9.692   8.205  10.982
 1033W        W64757  28.445  33.936   4.290
 1034W        W64758  14.647  42.298   0.851
 1035W        W64759  17.564   2.914  14.893
 1036W        W64760  33.019  39.819   0.326
 1037W        W64761   9.704  28.011  11.558
 1038W        W64762   0.968   3.344  14.937
 1039W        W64763   3.422   6.354  11.125
 1040W        W64764  27.078  24.131  13.804
 1041W        W64765  44.916  19.244  13.795
 1042W        W64766  37.349  18.780  12.448
 1043W        W64767  35.045  26.616   9.986
 1044W        W64768  14.654  20.207   4.774
 1045W        W64769  41.466   8.304  13.326
 1046W        W64770  30.601  38.922  13.520
 1047W        W64771  32.097   8.901  13.880
 1048W        W64772  41.844  38.376   5.602
 1049W        W64773   8.290  21.682   2.280
 1050W        W64774  11.680   6.403   4.260
 1051W        W64775  23.521  42.389  11.023
 1052W        W64776  16.734  15.098   4.762
 1053W        W64777  17.715  13.793   0.352
 1054W        W64778  30.452  25.053  12.911
 1055W        W64779  34.493  15.129   3.847
 1056W        W64780  43.986   5.277   0.939
 1057W        W64781  25.560  17.700  13.803
 1058W        W64782  12.147  33.490  11.025
 1059W        W64783  12.129  36.490   1.431
 1060W        W64784  34.912  14.711   3.636
 1061W        W64785  44.383  43.776   3.380
 1062W        W64786   1.797  26.157  11.027
 1063W        W64787  40.451  37.409  12.914
 1064W        W64788  21.251  21.217  10.150
 1065W        W64789  15.722   9.315   3.227
 1066W        W64790  22.231  35.522   0.854
 1067W        W64791   1.393  41.488   2.880
 1068W        W64792  37.397  12.178   2.358
 1069W        W64793  24.604  30.515  12.411
 1070W        W64794  10.790  11.348  10.945
 1071W        W64795   3.929  41.436   5.142
 1072W        W64796  37.842  38.443  13.950
 1073W        W64797  26.489   1.375  14.030
 1074W        W64798  29.032  18.282   3.811
 1075W        W64799  38.919  13.280   5.228
 1076W        W64800  14.625  24.648  10.897
 1077W        W64801   3.251  28.085  11.518
 1078W        W64802  26.049  29.928   5.198
 1079W        W64803  17.567  15.616  11.050
 1080W        W64804   0.976  41.473   1.935
 1081W        W64805   5.429  41.862  12.032
 1082W        W64806  17.732  22.159   1.252
 1083W        W64807   3.292  37.881   0.757
 1084W        W64808   4.247   8.824  12.859
 1085W        W64809  42.400  22.187  10.488
 1086W        W64810  30.426  43.770  14.023
 1087W        W64811  41.385  33.084   3.631
 1088W        W64812  35.383   7.396  12.867
 1089W        W64813  24.138  31.093   4.155
 1090W        W64814  17.781  20.256  12.001
 1091W        W64815  34.935  27.635   2.388
 1092W        W64816  19.120  38.330   4.800
 1093W        W64817  16.812   4.428  10.919
 1094W        W64818  26.570  39.454   1.889
 1095W        W64819  16.639   8.218   4.781
 1096W        W64820  31.537  12.221  12.921
 1097W        W64821  21.058  37.042  11.901
 1098W        W64822  32.607   5.848   4.612
 1099W        W64823  27.538  11.725   4.751
 1100W        W64824  36.541  10.374   2.858
 1101W        W64825  27.142  14.604   3.637
 1102W        W64826  15.809  41.482   4.164
 1103W        W64827  44.258  10.830  11.993
 1104W        W64828  11.827   2.866  13.376
 1105W        W64829  23.147  39.451  13.880
 1106W        W64830  18.652  28.937   3.204
 1107W        W64831  32.591  16.179   1.793
 1108W        W64832  22.501   0.351   2.318
 1109W        W64833  15.766   0.899  13.308
 1110W        W64834  32.064   2.403   0.328
 1111W        W64835  18.083  36.876  10.995
 1112W        W64836   0.254   3.730  11.064
 1113W        W64837  13.755  19.136   3.278
 1114W        W64838   8.401  15.211   1.727
 1115W        W64839   0.908  34.993   0.443
 1116W        W64840  26.017  21.604  11.086
 1117W        W64841  10.377  20.036  12.428
 1118W        W64842  34.569  40.832  12.009
 1119W        W64843   8.835  13.791  13.345
 1120W        W64844   5.311  21.587   4.749
 1121W        W64845  44.379  14.738   0.739
 1122W        W64846  40.360  28.607  14.863
 1123W        W64847   0.284  37.427  13.506
 1124W        W64848  24.534   6.864  14.322
 1125W        W64849  15.095  14.746   3.173
 1126W        W64850  33.946  38.420   0.790
 1127W        W64851  37.833  13.680   0.435
 1128W        W64852  25.563  13.826  12.353
 1129W        W64853  40.914  40.541  11.051
 1130W        W64854   7.360   1.876   0.429
 1131W        W64855   5.795  37.950  10.566
 1132W        W64856  16.797  18.607  13.014
 1133W        W64857  11.642  21.109  12.079
 1134W        W64858  30.081  10.296  11.414
 1135W        W64859   9.389  41.986  10.482
 1136W        W64860   7.911  24.661   0.778
 1137W        W64861  43.997  23.593  11.504
 1138W        W64862   3.286  14.191  10.645
 1139W        W64863  15.589   7.391   1.809
 1140W        W64864   6.339  10.702   2.812
 1141W        W64865   3.728  10.789   1.258
 1142W        W64866   8.770  41.935   5.232
 1143W        W64867  34.437  16.116   3.148
 1144W        W64868  32.000  37.975   1.753
 1145W        W64869   9.264  42.383  13.920
 1146W        W64870   4.824  14.245  14.500
 1147W        W64871  26.154  25.707  13.432
 1148W        W64872  22.679  23.017   2.742
 1149W        W64873  34.475  32.537   4.723
 1150W        W64874  30.050  36.398   0.729
 1151W        W64875  17.120  39.447   0.274
 1152W        W64876  25.641  26.184   4.688
 1153W        W64877  17.749  18.684  11.978
 1154W        W64878  37.582  13.248   0.811
 1155W        W64879  12.728  21.222  11.379
 1156W        W64880  44.498  20.568   1.837
 1157W        W64881  14.286  10.175  11.392
 1158W        W64882  20.556  15.094   1.409
 1159W        W64883  29.531  40.390  13.924
 1160W        W64884  20.231   7.740  12.063
 1161W        W64885  22.019   4.332  11.401
 1162W        W64886  22.078  13.230  13.341
 1163W        W64887  13.698   7.899  14.500
 1164W        W64888  42.441   5.759   2.727
 1165W        W64889  24.573   9.738  10.503
 1166W        W64890  42.431  17.184   3.791
 1167W        W64891   8.243  17.120   2.332
 1168W        W64892  19.135  18.699  13.496
 1169W        W64893   6.340  29.960   4.310
 1170W        W64894  43.898  22.550   4.823
 1171W        W64895  23.151  17.175  11.567
 1172W        W64896  32.962  14.604   3.644
 1173W        W64897  26.137  27.192  11.418
 1174W        W64898  23.183  21.692  12.453
 1175W        W64899  18.652  33.573   1.736
 1176W        W64900   6.184  23.536   2.856
 1177W        W64901  36.902  27.103   2.345
 1178W        W64902   5.386  38.362   3.726
 1179W        W64903  37.965  21.745   2.685
 1180W        W64904   5.756   5.362   4.145
 1181W        W64905  41.861  28.436   3.379
 1182W        W64906  26.123   4.222  11.877
 1183W        W64907  37.057   7.743  13.492
 1184W        W64908  42.956  10.272   5.293
 1185W        W64909  39.388  44.823   0.346
 1186W        W64910  38.379   0.964   4.719
 1187W        W64911   1.481  20.713   1.796
 1188W        W64912  16.221  42.833   3.212
 1189W        W64913  19.616  42.792   1.813
 1190W        W64914   4.935   1.801   1.298
 1191W        W64915   1.253  18.180   4.130
 1192W        W64916  41.348  41.532   3.275
 1193W        W64917  16.734  42.925   4.260
 1194W        W64918   2.301  34.877   0.913
 1195W        W64919   9.218  30.042   0.860
 1196W        W64920   4.730  10.670   1.751
 1197W        W64921  33.497  19.134   0.940
 1198W        W64922  19.544   6.880   4.320
 1199W        W64923  19.215  34.487  10.554
 1200W        W64924  14.126  32.551   4.298
 1201W        W64925  41.518  42.956   0.805
 1202W        W64926   5.439   7.184   3.276
 1203W        W64927  40.828  28.518   0.756
 1204W        W64928  28.469  33.543  12.998
 1205W        W64929  34.415  10.280   0.317
 1206W        W64930  10.368  40.907   2.208
 1207W        W64931  24.570   0.349  13.548
 1208W        W64932  33.534   7.880  10.943
 1209W        W64933  34.080  22.248  11.910
 1210W        W64934  30.926  37.420   2.672
 1211W        W64935  38.923  25.007   3.304
 1212W        W64936  33.515  16.734  11.423
 1213W        W64937  23.507   6.678  12.037
 1214W        W64938   0.342  19.676   3.692
 1215W        W64939  10.802  34.885  11.399
 1216W        W64940  44.921  24.064   4.252
 1217W        W64941  38.049  28.969  11.100
 1218W        W64942   1.944   8.662  11.424
 1219W        W64943   2.839  23.086   2.700
 1220W        W64944  25.033   9.324  11.116
 1221W        W64945   5.319  10.768  14.838
 1222W        W64946  31.516  31.013  12.080
 1223W        W64947  25.115  19.717   1.893
 1224W        W64948  34.554   5.217  13.422
 1225W        W64949  25.510  36.875   0.357
 1226W        W64950  21.036  25.039   4.600
 1227W        W64951  26.597  30.633  12.948
 1228W        W64952  35.488  13.186   5.319
 1229W        W64953  43.463  18.649   3.321
 1230W        W64954  34.040   2.751  13.904
 1231W        W64955  11.826   7.896   2.406
 1232W        W64956  29.029  26.014  11.069
 1233W        W64957  18.212  33.934  11.956
 1234W        W64958  12.757  30.569  10.502
 1235W        W64959   7.389   5.200  11.425
 1236W        W64960  29.962  17.283  11.608
 1237W        W64961   6.744  12.771  12.368
 1238W        W64962   0.762  39.338  11.947
 1239W        W64963  17.678  17.692   4.130
 1240W        W64964   5.291   4.288  13.475
 1241W        W64965  43.385   2.782  10.600
 1242W        W64966   1.968  12.233   2.780
 1243W        W64967  35.522  19.648   1.441
 1244W        W64968  29.979  42.457  14.787
 1245W        W64969   7.897  36.467  13.995
 1246W        W64970  33.944   0.942   2.258
 1247W        W64971  24.693  30.147   2.861
 1248W        W64972  13.815  31.919   0.355
 1249W        W64973  33.618  12.842  13.900
 1250W        W64974  27.560   1.970  10.907
 1251W        W64975   6.895  17.595   3.814
 1252W        W64976  24.113   0.412  11.068
 1253W        W64977  26.042  42.400   3.313
 1254W        W64978  36.005  14.724  11.593
 1255W        W64979  34.029  15.327  14.931
 1256W        W64980  39.500   5.303  14.970
 1257W        W64981  39.920  23.029   0.956
 1258W        W64982  39.519  26.964   4.655
 1259W        W64983  36.055  42.319   1.449
 1260W        W64984  30.986  29.448  12.422
 1261W        W64985  23.231  42.986  11.009
 1262W        W64986  42.490  17.665  12.542
 1263W        W64987  28.084  17.094   2.716
 1264W        W64988  39.460   2.234   3.699
 1265W        W64989  31.924  30.650   0.897
 1266W        W64990   7.358   3.847  10.925
 1267W        W64991   6.787  35.072  11.422
 1268W        W64992  14.621   5.383  14.821
 1269W        W64993  44.380  19.123  14.359
 1270W        W64994  14.095  38.825  12.506
 1271W        W64995  34.892  43.337  11.565
 1272W        W64996   2.779  31.565  14.977
 1273W        W64997  13.747  37.014   1.423
 1274W        W64998  29.140  32.919   1.904
 1275W        W64999  18.199  38.985  13.832
 1276W        W65000  15.143  21.166  11.094
 1277W        W65001  31.595  17.615   2.788
 1278W        W65002   9.234  26.045  10.890
 1279W        W65003  34.894   2.825   4.243
 1280W        W65004   8.721  40.039   2.291
 1281W        W65005  25.547  27.072   4.640
 1282W        W65006  40.924  13.824  10.931
 1283W        W65007  31.927   0.425   1.884
 1284W        W65008   4.788  39.818  14.851
 1285W        W65009  30.060   5.388  14.801
 1286W        W65010  17.725  28.670   2.182
 1287W        W65011   7.172   3.416  10.946
 1288W        W65012  42.834  38.953  14.330
 1289W        W65013  36.897  13.602   4.771
 1290W        W65014  17.280  44.970   0.330
 1291W        W65015  43.970  37.506   4.738
 1292W        W65016  20.741  23.995   0.422
 1293W        W65017   1.448  14.721   4.156
 1294W        W65018  12.165   4.859  14.456
 1295W        W65019  41.923  14.247  13.793
 1296W        W65020  43.321   8.736  13.934
 1297W        W65021  22.637  19.625  12.864
 1298W        W65022   0.318  31.540  12.031
 1299W        W65023  12.787  12.249  11.124
 1300W        W65024  34.377  24.229  14.456
 1301W        W65025  10.264  14.608   0.902
 1302W        W65026   9.238  20.265  12.550
 1303W        W65027  25.962  20.124  10.496
 1304W        W65028  41.909  36.567   1.875
 1305W        W65029  25.213  38.548   4.624
 1306W        W65030  36.969  25.154  10.624
 1307W        W65031  23.124  15.182   1.798
 1308W        W65032   1.904  20.698   2.314
 1309W        W65033  18.067  28.599   1.338
 1310W        W65034  24.130  15.580  10.442
 1311W        W65035  16.141  39.862  12.930
 1312W        W65036   4.698  16.703  12.417
 1313W        W65037  26.482  34.422  10.558
 1314W        W65038  26.011  19.252   2.813
 1315W        W65039  11.750   6.688  11.980
 1316W        W65040  44.008  13.673   2.402
 1317W        W65041  15.172  22.041   1.782
 1318W        W65042  40.815  32.558  13.926
 1319W        W65043  25.125  38.568   0.780
 1320W        W65044   8.851  37.034  14.877
 1321W        W65045  17.561  42.929  13.373
 1322W        W65046  30.015  12.304   1.258
 1323W        W65047  17.243  44.832   1.824
 1324W        W65048  11.263  43.900  11.018
 1325W        W65049  11.705  31.452   2.361
 1326W        W65050  42.859  42.460   0.269
 1327W        W65051  33.963  42.293  11.965
 1328W        W65052   3.236  12.806   4.231
 1329W        W65053  15.816  39.860  11.461
 1330W        W65054  10.343  40.842   4.754
 1331W        W65055  32.103   3.896  12.917
 1332W        W65056  11.315  42.928   0.322
 1333W        W65057  18.293  15.590  13.320
 1334W        W65058   5.751  21.198   3.796
 1335W        W65059  39.557  20.629   2.358
 1336W        W65060  22.668  29.648   0.798
 1337W        W65061  26.472   1.898  11.884
 1338W        W65062  24.208   8.282   2.243
 1339W        W65063  19.141   7.385  12.468
 1340W        W65064   6.920  13.283   1.695
 1341W        W65065   7.299  31.049  13.390
 1342W        W65066  15.630  12.705   0.451
 1343W        W65067  36.043  33.130   4.653
 1344W        W65068  32.433  14.695  13.811
 1345W        W65069   9.843  11.229   3.165
 1346W        W65070  31.986   8.871  11.042
 1347W        W65071  36.486  21.656  10.553
 1348W        W65072  26.171  38.917   1.255
 1349W        W65073  34.382  41.516  13.922
 1350W        W65074   7.786   4.834   9.967
 1351W        W65075  27.681  33.568  14.784
 1352W        W65076  33.434  37.850  14.491
 1353W        W65077   5.266  41.301   0.731
 1354W        W65078  36.898  28.560  12.947
 1355W        W65079  37.487   6.909  14.828
 1356W        W65080   1.481  22.101   4.354
 1357W        W65081  10.233   6.391  13.962
 1358W        W65082  37.382  10.828  13.022
 1359W        W65083  23.112  29.505   0.409
 1360W        W65084   9.819   3.408   4.345
 1361W        W65085  43.851   5.401  13.055
 1362W        W65086  44.826  28.995   2.201
 1363W        W65087  30.113  44.358   0.435
 1364W        W65088  19.208   9.246   2.366
 1365W        W65089  32.427  36.974   0.430
 1366W        W65090  22.172  37.087   3.374
 1367W        W65091   1.412  25.108   3.212
 1368W        W65092  32.527  10.289   2.892
 1369W        W65093   8.222  26.641   3.154
 1370W        W65094  28.139  37.460   0.380
 1371W        W65095  24.006   4.259  11.580
 1372W        W65096   2.835  30.115   2.717
 1373W        W65097  38.861  12.837  13.044
 1374W        W65098  24.633  27.614  11.612
 1375W        W65099  33.420  20.716   2.793
 1376W        W65100   1.898  35.989   3.864
 1377W        W65101  26.116  25.497   1.810
 1378W        W65102  40.007   9.350   4.834
 1379W        W65103  10.671  11.731   0.923
 1380W        W65104  42.029  26.102   5.307
 1381W        W65105  36.582  37.442  13.042
 1382W        W65106  42.888   6.919   4.342
 1383W        W65107  36.546  34.942  10.558
 1384W        W65108   1.357  19.216  11.538
 1385W        W65109  34.904  22.502   5.244
 1386W        W65110  40.878  30.563  11.958
 1387W        W65111  21.181  37.024   0.923
 1388W        W65112  40.941  21.542  10.049
 1389W        W65113  38.536  30.437  14.467
 1390W        W65114   2.404  12.753   0.468
 1391W        W65115  20.099  17.635  11.963
 1392W        W65116   2.414  37.487  13.544
 1393W        W65117  27.502  23.679  13.519
 1394W        W65118  29.067  43.883  13.489
 1395W        W65119  27.536  20.106   4.129
 1396W        W65120  17.647  20.633   3.648
 1397W        W65121  40.439  12.211  10.429
 1398W        W65122   7.870   2.233  14.805
 1399W        W65123  18.176  35.544  12.862
 1400W        W65124   8.301  15.135   0.436
 1401W        W65125  12.138   8.332   4.186
 1402W        W65126   9.217  21.576  14.474
 1403W        W65127  35.049  12.200  10.934
 1404W        W65128  28.127  38.433  12.921
 1405W        W65129  40.818   9.735  13.403
 1406W        W65130  30.413  29.524   5.154
 1407W        W65131  35.087  41.329   1.305
 1408W        W65132  42.920   0.944   2.349
 1409W        W65133  25.654  38.473   4.661
 1410W        W65134  19.283   4.719   4.771
 1411W        W65135  24.102  12.161  14.480
 1412W        W65136  23.148  34.112   4.130
 1413W        W65137  34.460  35.084  14.807
 1414W        W65138  11.627  25.627   4.325
 1415W        W65139   0.858   6.715   0.264
 1416W        W65140  24.570  25.116   2.255
 1417W        W65141  28.016  36.026  11.887
 1418W        W65142   8.288  21.708   1.729
 1419W        W65143  17.589  23.585   4.311
 1420W        W65144  12.851  24.524   0.445
 1421W        W65145  13.815   8.265   3.252
 1422W        W65146  40.471  31.914  10.515
 1423W        W65147  37.991   6.703   0.426
 1424W        W65148  43.412  38.543  10.597
 1425W        W65149  15.686  40.540   4.816
 1426W        W65150   4.256  22.132  10.551
 1427W        W65151   7.318  39.919   4.838
 1428W        W65152  29.615  44.398  14.960
 1429W        W65153  34.050  38.904  10.442
 1430W        W65154  14.335  21.192   5.181
 1431W        W65155  33.956   2.750   4.274
 1432W        W65156  23.121  19.581  11.123
 1433W        W65157  30.082  34.902  12.456
 1434W        W65158  44.986  44.400   0.446
 1435W        W65159  35.477  17.201  12.406
 1436W        W65160  33.903  12.165   2.236
 1437W        W65161  32.016   1.821   2.367
 1438W        W65162  43.293  28.539   2.238
 1439W        W65163   3.766  25.656   3.204
 1440W        W65164  32.127  18.688  11.447
 1441W        W65165  15.673   1.302  12.924
 1442W        W65166  10.856  11.333  13.968
 1443W        W65167  27.600  38.000   3.342
 1444W        W65168  24.590  29.636  11.098
 1445W        W65169  11.796  21.156   1.886
 1446W        W65170   7.870  24.143   5.093
 1447W        W65171  33.033  32.084  12.380
 1448W        W65172  41.019  12.810   0.951
 1449W        W65173  40.392  28.116  10.434
 1450W        W65174   2.465  28.115  14.447
 1451W        W65175  35.052   8.836  13.908
 1452W        W65176  31.107  16.789   4.214
 1453W        W65177  21.586  16.261   2.390
 1454W        W65178  12.789  25.203  11.900
 1455W        W65179  19.677   0.841  13.953
 1456W        W65180  16.103   2.431  11.493
 1457W        W65181  15.600  42.797   4.264
 1458W        W65182  15.272  18.197  11.406
 1459W        W65183  10.332  26.642   2.670
 1460W        W65184  15.307  18.107  13.403
 1461W        W65185   0.877  31.504  13.390
 1462W        W65186  23.625  29.602   0.767
 1463W        W65187  33.014  43.952  10.604
 1464W        W65188  28.557  23.721  12.405
 1465W        W65189  27.575   1.887  13.892
 1466W        W65190  40.045  31.940  12.996
 1467W        W65191  41.808  44.403  13.547
 1468W        W65192   2.314  12.272  14.469
 1469W        W65193  28.592  30.600  10.489
 1470W        W65194  33.565  17.705   1.301
 1471W        W65195  14.620   6.871   5.725
 1472W        W65196  36.008  12.797   3.813
 1473W        W65197   0.460  17.560   2.714
 1474W        W65198  25.486  27.589  13.421
 1475W        W65199  17.604   6.871  10.985
 1476W        W65200  41.433  24.995   1.727
 1477W        W65201   3.753  32.489  13.831
 1478W        W65202   1.466  36.990  11.610
 1479W        W65203  22.022  26.995   4.195
 1480W        W65204   1.284  39.325   2.680
 1481W        W65205   7.818   6.704   1.786
 1482W        W65206   5.836  30.633  12.559
 1483W        W65207  27.526  18.085  10.901
 1484W        W65208  14.704  19.650   1.359
 1485W        W65209   8.765  34.047  10.630
 1486W        W65210  25.006  31.407   2.817
 1487W        W65211  33.461  27.122   3.859
 1488W        W65212  28.178  18.591  10.968
 1489W        W65213  13.636  28.643  12.080
 1490W        W65214  21.592  15.763  10.549
 1491W        W65215  31.446  25.122   2.276
 1492W        W65216  12.354  14.173   4.281
 1493W        W65217  37.498   8.698   2.259
 1494W        W65218  18.069   7.337  14.802
 1495W        W65219  44.420  35.987  11.919
 1496W        W65220  43.357  23.212  11.106
 1497W        W65221  35.893  19.666   0.777
 1498W        W65222   2.760  31.008   2.820
 1499W        W65223  40.433  16.270   0.886
 1500W        W65224  40.990   1.754   0.382
 1501W        W65225  13.684  40.048   2.259
 1502W        W65226   1.480  12.621  12.465
 1503W        W65227  17.158  24.676   1.858
 1504W        W65228  38.460  22.592   1.310
 1505W        W65229  27.109  41.813  11.595
 1506W        W65230  40.322  38.464   0.846
 1507W        W65231  13.247  18.605  14.762
 1508W        W65232   7.219  11.180  13.012
 1509W        W65233   8.362  38.933  13.368
 1510W        W65234  41.928  29.947  11.607
 1511W        W65235  10.354  28.129   1.896
 1512W        W65236  14.310  31.034   1.707
 1513W        W65237  42.456  12.323  14.331
 1514W        W65238  27.997   3.865   0.383
 1515W        W65239   1.878  42.989   0.799
 1516W        W65240  36.592  21.249   1.220
 1517W        W65241  28.561  31.429  14.447
 1518W        W65242  35.387  37.507   4.769
 1519W        W65243  24.007  37.530   2.817
 1520W        W65244  15.267  23.050   1.799
 1521W        W65245  32.090   2.950   2.238
 1522W        W65246  34.892  38.897  11.534
 1523W        W65247   6.688  40.483  12.880
 1524W        W65248   4.889  32.623  11.941
 1525W        W65249  20.152  40.409   4.812
 1526W        W65250  28.048  24.665   2.409
 1527W        W65251  37.860  35.510  14.463
 1528W        W65252  43.894  14.182  10.414
 1529W        W65253  34.384  16.251   2.751
 1530W        W65254  23.137  35.498  11.415
 1531W        W65255  37.970  17.073  10.988
 1532W        W65256  23.082  19.172   4.601
 1533W        W65257   4.773  31.954  14.292
 1534W        W65258  20.744  10.834   1.293
 1535W        W65259   2.390  14.614  11.372
 1536W        W65260  25.517  26.468  14.388
 1537W        W65261   3.940   3.712  13.458
 1538W        W65262   5.422  41.004  14.444
 1539W        W65263  37.848  27.949  14.357
 1540W        W65264  27.964  18.573  14.452
 1541W        W65265  37.390  28.092   0.814
 1542W        W65266  10.719   8.276   0.352
 1543W        W65267  39.328  21.138   3.862
 1544W        W65268   1.774  16.072   3.383
 1545W        W65269   9.847  12.287  10.627
 1546W        W65270  42.032  22.548  12.931
 1547W        W65271   4.242  13.306  10.414
 1548W        W65272   3.716  24.099  14.359
 1549W        W65273  19.598  41.419  13.938
 1550W        W65274  10.745  27.952  10.441
 1551W        W65275  40.378  26.135   4.252
 1552W        W65276   9.716  40.885   0.910
 1553W        W65277  37.832  26.630  13.932
 1554W        W65278  11.867  10.347  10.562
 1555W        W65279  28.568  40.457  10.954
 1556W        W65280  21.669  26.954   4.651
 1557W        W65281   3.449  41.983  13.366
 1558W        W65282  40.303   3.766   4.752
 1559W        W65283  22.521  44.347  13.331
 1560W        W65284  13.199  15.593  12.962
 1561W        W65285  35.943  27.072  11.968
 1562W        W65286  34.008  36.374   1.448
 1563W        W65287  13.687  43.958  14.800
 1564W        W65288   2.438  11.138   2.898
 1565W        W65289  16.566  13.734  11.041
 1566W        W65290  21.685  34.592  10.422
 1567W        W65291  25.506  44.945   4.201
 1568W        W65292  31.602  21.027  14.508
 1569W        W65293  27.138  19.616   4.175
 1570W        W65294  26.152  39.359  12.024
 1571W        W65295  20.720  32.131  10.556
 1572W        W65296  41.502  26.594   2.862
 1573W        W65297   5.719  12.690  12.029
 1574W        W65298  44.997  10.876   3.664
 1575W        W65299  18.562  13.755  14.318
 1576W        W65300  11.693  18.162  11.477
 1577W        W65301  42.006   1.748   2.748
 1578W        W65302  20.180  29.490  14.941
 1579W        W65303  30.157  36.446   1.303
 1580W        W65304  30.498  37.020  14.415
 1581W        W65305   7.874  31.038  12.873
 1582W        W65306  40.889  32.505  14.493
 1583W        W65307  11.849  37.423  11.473
 1584W        W65308  13.776  42.991   4.795
 1585W        W65309   3.350  24.098  10.565
 1586W        W65310  30.003  38.357   1.234
 1587W        W65311  32.128  13.618   0.803
 1588W        W65312  36.396  12.296  11.049
 1589W        W65313  11.331  37.419  12.503
 1590W        W65314  11.372   2.793  12.057
 1591W        W65315  23.569  18.620   0.834
 1592W        W65316  41.503  25.969  12.486
 1593W        W65317   1.265  40.910   1.709
 1594W        W65318  25.049  11.135   0.244
 1595W        W65319  27.612  28.084   4.615
 1596W        W65320  16.759  44.847   4.780
 1597W        W65321  13.153  40.513  13.951
 1598W        W65322  19.761  10.751  12.391
 1599W        W65323  20.143  18.604   3.651
 1600W        W65324  43.917  36.861  12.919
 1601W        W65325  13.642  15.683  12.905
 1602W        W65326   0.763  19.598  11.043
 1603W        W65327   7.864  12.833   5.199
 1604W        W65328  20.704   2.269   4.634
 1605W        W65329   8.811  26.137  14.366
 1606W        W65330   8.217  10.245   3.380
 1607W        W65331   2.308  17.106   3.659
 1608W        W65332  14.813   4.403  11.941
 1609W        W65333  13.833  36.506   4.663
 1610W        W65334  31.095  24.493   3.166
 1611W        W65335  15.191  34.480   2.708
 1612W        W65336  28.679  27.004  11.418
 1613W        W65337   8.375   0.937   3.781
 1614W        W65338  27.512  39.476  11.507
 1615W        W65339  44.448  40.868  12.946
 1616W        W65340  33.485  43.479  10.008
 1617W        W65341  30.111  12.293   2.244
 1618W        W65342   5.812  33.057  13.059
 1619W        W65343  35.073   7.809  11.126
 1620W        W65344  12.758  21.722  13.888
 1621W        W65345  41.489  11.743   2.694
 1622W        W65346  28.177  31.588  10.033
 1623W        W65347  34.999  29.511   3.675
 1624W        W65348   7.767  18.691   2.315
 1625W        W65349  43.933  27.091   3.860
 1626W        W65350  12.616  24.483  13.372
 1627W        W65351  10.254  37.412   4.774
 1628W        W65352  38.063  40.546   1.383
 1629W        W65353  10.237  27.683  10.505
 1630W        W65354  14.650  27.588  10.635
 1631W        W65355   5.221  34.460  11.034
 1632W        W65356   3.355  37.866  14.936
 1633W        W65357  21.590   4.747  14.421
 1634W        W65358  38.018   2.332  11.125
 1635W        W65359  44.350  36.063  12.377
 1636W        W65360  11.742  32.093  10.104
 1637W        W65361  19.630  29.988   1.260
 1638W        W65362  37.062   7.834  12.394
 1639W        W65363   9.758   2.343  13.901
 1640W        W65364  10.667   2.462  14.302
 1641W        W65365  24.549   3.423   1.224
 1642W        W65366  39.418   8.788  11.440
 1643W        W65367  23.114   1.827  13.041
 1644W        W65368  11.652  19.052   4.623
 1645W        W65369  41.480  10.271  12.451
 1646W        W65370  38.542  26.994  10.973
 1647W        W65371  23.582   4.809   3.853
 1648W        W65372  14.152  39.404   2.211
 1649W        W65373  43.956  22.207   4.613
 1650W        W65374  15.664   1.483  14.434
 1651W        W65375  43.381  41.010  11.029
 1652W        W65376  20.123  22.598   3.180
 1653W        W65377   0.265  38.960   0.772
 1654W        W65378  42.866  44.807  12.575
 1655W        W65379  20.177  17.736   5.606
 1656W        W65380  13.676  30.642  12.409
 1657W        W65381   2.248  19.071  11.434
 1658W        W65382  39.557  29.922  13.979
 1659W        W65383  39.348  28.951   1.889
 1660W        W65384  26.201   9.750  13.851
 1661W        W65385   4.204   7.759   0.738
 1662W        W65386  38.929  13.618  13.897
 1663W        W65387  38.894  28.465   0.819
 1664W        W65388  33.566   3.236  13.546
 1665W        W65389  28.573  25.679  11.009
 1666W        W65390  10.805  12.350   2.694
 1667W        W65391  41.026   5.777  14.798
 1668W        W65392  20.582  10.142  14.772
 1669W        W65393  33.558  44.477  14.941
 1670W        W65394   2.385   6.341  10.022
 1671W        W65395   2.232  34.609  11.010
 1672W        W65396  24.615  23.171   2.178
 1673W        W65397  14.249  22.045  13.469
 1674W        W65398  42.031   7.767   2.201
 1675W        W65399  29.532  29.077   2.377
 1676W        W65400  30.959  25.074   3.751
 1677W        W65401  27.989  29.992   4.301
 1678W        W65402  35.877  21.209   4.744
 1679W        W65403  42.005   7.415  11.544
 1680W        W65404   3.955  32.427  11.124
 1681W        W65405   5.704  22.044   1.275
 1682W        W65406   8.811  17.175   3.205
 1683W        W65407  17.572  32.628   1.750
 1684W        W65408  26.091  11.647   0.854
 1685W        W65409  42.386  30.427  11.025
 1686W        W65410  20.648  13.791  12.495
 1687W        W65411  27.008  26.493   2.249
 1688W        W65412  10.874  24.182  12.393
 1689W        W65413  14.620  37.007  14.310
 1690W        W65414  11.291   3.439  12.843
 1691W        W65415   4.286   4.787  11.463
 1692W        W65416  36.517   7.215  11.889
 1693W        W65417  23.061   7.758  11.979
 1694W        W65418  44.990  10.275  13.029
 1695W        W65419  10.878  41.007  14.977
 1696W        W65420   6.357  32.506   4.114
 1697W        W65421  38.873  18.248   3.680
 1698W        W65422  44.460  16.129  14.426
 1699W        W65423   6.739   5.924  14.759
 1700W        W65424  33.117   0.287  13.945
 1701W        W65425  26.985  38.985  12.957
 1702W        W65426  17.073  41.503   3.254
 1703W        W65427   9.751  44.847  14.453
 1704W        W65428  20.121  14.208   2.307
 1705W        W65429  22.073  19.132   0.802
 1706W        W65430  14.163  37.067  14.349
 1707W        W65431  11.693  10.254  14.437
 1708W        W65432  13.290  28.075  11.051
 1709W        W65433  30.082  18.274   4.824
 1710W        W65434  25.509  41.000   1.291
 1711W        W65435  24.981  17.175   0.883
 1712W        W65436  44.838  16.294   3.297
 1713W        W65437  27.505  13.620  10.969
 1714W        W65438  17.588  16.702   1.916
 1715W        W65439  43.516  27.011   4.322
 1716W        W65440  18.703  25.714  14.816
 1717W        W65441  19.087   3.926  12.986
 1718W        W65442   3.754  33.431   4.649
 1719W        W65443  40.515  18.075   4.249
 1720W        W65444  27.474   4.705   3.649
 1721W        W65445   9.866  44.851   4.155
 1722W        W65446  38.503   6.301   0.895
 1723W        W65447  25.697  12.721   0.293
 1724W        W65448   8.873   6.838   4.718
 1725W        W65449   0.285  30.425  12.924
 1726W        W65450  32.529   2.887   0.246
 1727W        W65451  21.026  31.937   0.926
 1728W        W65452  11.730  26.667   1.720
 1729W        W65453   0.436  44.271   4.130
 1730W        W65454   6.814  32.984   0.297
 1731W        W65455  43.895  22.517  11.545
 1732W        W65456  12.718  27.153   3.750
 1733W        W65457  30.127  25.572  13.003
 1734W        W65458  28.174   1.310   1.727
 1735W        W65459  23.994  29.005  11.069
 1736W        W65460   8.657  19.175  12.076
 1737W        W65461  38.989  32.121   4.223
 1738W        W65462   1.315  17.304  11.950
 1739W        W65463  39.931  36.037  11.930
 1740W        W65464  35.460  23.990  11.125
 1741W        W65465  18.564   5.806  12.396
 1742W        W65466  15.289  21.700   0.262
 1743W        W65467  36.920   1.753  13.805
 1744W        W65468  28.580  25.571   0.785
 1745W        W65469  37.008  43.821  11.998
 1746W        W65470  17.689   6.186   2.329
 1747W        W65471  11.743  29.612   3.710
 1748W        W65472  21.698  33.514  10.066
 1749W        W65473  15.289  33.879   1.380
 1750W        W65474   0.312   5.835  14.810
 1751W        W65475  12.628  34.884  10.419
 1752W        W65476  41.299   1.781   0.408
 1753W        W65477  29.468  40.350  11.583
 1754W        W65478  13.726  39.846  14.933
 1755W        W65479  35.543  19.558  13.017
 1756W        W65480  20.769  21.560   0.798
 1757W        W65481  44.994   4.277  12.523
 1758W        W65482   4.751  26.590  12.358
 1759W        W65483  18.623   8.195  11.443
 1760W        W65484  18.101  11.263  12.390
 1761W        W65485  16.113  30.436   1.220
 1762W        W65486   7.788  13.740   0.771
 1763W        W65487   2.269  14.314  13.406
 1764W        W65488  37.888  37.961   4.623
 1765W        W65489   5.824  27.519   1.874
 1766W        W65490  15.193  34.505  13.848
 1767W        W65491  39.046  18.784   3.278
 1768W        W65492  22.608   4.746   4.223
 1769W        W65493   0.803  44.308   3.199
 1770W        W65494  17.662   2.964  13.981
 1771W        W65495  28.528  27.036   2.280
 1772W        W65496  28.653  23.547  14.863
 1773W        W65497  24.578   5.798   1.406
 1774W        W65498  32.057  15.153  12.909
 1775W        W65499  43.282  33.113  12.093
 1776W        W65500  11.643   0.817  14.830
 1777W        W65501   0.813  17.686   0.273
 1778W        W65502  23.200  30.951   1.236
 1779W        W65503  42.864  15.641   2.784
 1780W        W65504   0.760  43.391   0.330
 1781W        W65505  30.093  19.121   1.756
 1782W        W65506  39.551  17.272  11.435
 1783W        W65507   0.832   1.825   4.662
 1784W        W65508  44.767   5.277  14.307
 1785W        W65509  15.751   6.283  12.952
 1786W        W65510  15.652  16.237   3.159
 1787W        W65511   1.741  22.616  11.908
 1788W        W65512  35.996  44.457  12.852
 1789W        W65513  27.526   2.780   1.446
 1790W        W65514  38.995  38.394  14.957
 1791W        W65515  31.418  41.035   1.882
 1792W        W65516  42.940  38.394   3.186
 1793W        W65517  44.285   1.292   1.696
 1794W        W65518  39.391  17.308   0.248
 1795W        W65519  23.028  24.978   2.673
 1796W        W65520  23.554  37.041   2.735
 1797W        W65521  24.579  24.198   3.760
 1798W        W65522  43.771   5.211  10.459
 1799W        W65523  44.796  29.633  14.028
 1800W        W65524   4.258   5.721  12.068
 1801W        W65525   5.787  10.672   9.460
 1802W        W65526  35.914  37.357  13.958
 1803W        W65527  29.048  10.649   1.389
 1804W        W65528  33.128  12.773   3.859
 1805W        W65529   9.374  34.973  10.961
 1806W        W65530  41.863  26.661   3.217
 1807W        W65531   5.410  35.947  14.428
 1808W        W65532  27.629  12.183   5.258
 1809W        W65533  42.986  35.862   4.277
 1810W        W65534   5.728  39.333  13.466
 1811W        W65535  14.334  39.014  11.585
 1812W        W65536  12.338  11.800   3.673
 1813W        W65537  43.009   6.889  14.326
 1814W        W65538  11.836   3.338  11.601
 1815W        W65539  21.103  33.428   4.227
 1816W        W65540  36.016  34.579   0.794
 1817W        W65541  32.531  10.874   2.821
 1818W        W65542  21.174   1.330  12.910
 1819W        W65543  31.613   5.860   4.607
 1820W        W65544  36.349  33.930  12.557
 1821W        W65545  15.644  22.026  12.371
 1822W        W65546  32.086   1.944  13.317
 1823W        W65547  27.102  29.126   3.147
 1824W        W65548  25.119  35.424   4.160
 1825W        W65549   8.279  33.047  12.372
 1826W        W65550  20.620  21.664   2.871
 1827W        W65551  43.891  36.857   1.278
 1828W        W65552  22.236  29.543   1.428
 1829W        W65553   8.300  12.251  12.975
 1830W        W65554  21.610  13.189  12.018
 1831W        W65555  19.777  35.584   4.182
 1832W        W65556  15.199   5.721   3.730
 1833W        W65557  18.255  13.611   0.444
 1834W        W65558  43.806  28.467   1.441
 1835W        W65559  17.737  16.210   5.185
 1836W        W65560  39.925  25.082  14.954
 1837W        W65561  14.793   6.181  14.027
 1838W        W65562   6.716  16.697   1.773
 1839W        W65563  24.577  38.913  14.028
 1840W        W65564   1.831  21.548   3.243
 1841W        W65565  26.000  42.385  13.514
 1842W        W65566  23.501  39.465  14.028
 1843W        W65567  17.755   9.148  12.420
 1844W        W65568  41.817  29.943   0.275
 1845W        W65569  43.001  25.186  12.044
 1846W        W65570  10.298  42.490  14.512
 1847W        W65571  21.695  21.569  10.509
 1848W        W65572  24.571  13.152  14.386
 1849W        W65573   7.236  36.905  14.894
 1850W        W65574  31.537  27.594   3.689
 1851W        W65575  44.378   9.688   3.852
 1852W        W65576  27.548  24.042  12.364
 1853W        W65577  31.003   1.399  11.103
 1854W        W65578  13.804  24.624   2.880
 1855W        W65579  35.365  15.771  10.502
 1856W        W65580  36.487   3.951  14.895
 1857W        W65581  23.065  20.247  10.942
 1858W        W65582   2.435   5.698  12.827
 1859W        W65583  29.572   6.389   3.183
 1860W        W65584   6.316  27.057   4.314
 1861W        W65585   7.900  20.060   2.376
 1862W        W65586  19.060  24.632   0.415
 1863W        W65587  35.483  20.263  12.469
 1864W        W65588  17.686  26.678   4.796
 1865W        W65589  24.595  22.038  13.431
 1866W        W65590  32.127   9.653   1.259
 1867W        W65591  15.698  26.633  13.314
 1868W        W65592   6.879  42.451   0.896
 1869W        W65593  44.298  28.541   1.886
 1870W        W65594  18.660   8.247  12.455
 1871W        W65595  40.973  39.451   2.245
 1872W        W65596  37.363  40.020  13.810
 1873W        W65597  22.134  32.452   2.254
 1874W        W65598   6.792  22.676   3.687
 1875W        W65599  42.380  17.680  13.313
 1876W        W65600  22.179  30.079  10.404
 1877W        W65601  22.504  16.213  14.972
 1878W        W65602  38.021  41.407   1.708
 1879W        W65603  19.217  20.208   1.345
 1880W        W65604  16.097  27.687  13.948
 1881W        W65605  13.168  16.803   1.451
 1882W        W65606  23.163  37.480  10.463
 1883W        W65607  18.159  34.529   4.194
 1884W        W65608  17.172  23.595   0.967
 1885W        W65609  24.603   9.346   4.207
 1886W        W65610  34.384  25.578  12.548
 1887W        W65611  19.152  17.740  14.994
 1888W        W65612  17.187  16.271   0.457
 1889W        W65613   7.325  35.103  11.123
 1890W        W65614   2.799  14.217  10.526
 1891W        W65615  38.468  39.491   0.392
 1892W        W65616  12.196  22.632  11.579
 1893W        W65617  25.569  14.131  14.931
 1894W        W65618  28.497   9.887   0.398
 1895W        W65619   9.847  40.909   1.818
 1896W        W65620   1.363  10.717  12.077
 1897W        W65621  38.973  36.562   2.343
 1898W        W65622   9.348   4.281   4.663
 1899W        W65623   3.250   0.475  13.467
 1900W        W65624  27.469  17.734   2.694
 1901W        W65625   0.948  25.162   0.951
 1902W        W65626   0.251  32.913  14.361
 1903W        W65627  35.064  19.671  11.028
 1904W        W65628  31.099  24.201   0.480
 1905W        W65629  38.342  22.053  11.095
 1906W        W65630  40.913   5.235   0.953
 1907W        W65631  35.016  37.414  11.553
 1908W        W65632  31.449  11.701   4.141
 1909W        W65633  20.766  39.949  11.984
 1910W        W65634  19.596  39.346  10.607
 1911W        W65635  22.152  40.860   5.774
 1912W        W65636  25.124  14.611   5.255
 1913W        W65637   2.795  44.971   0.901
 1914W        W65638  44.973  24.596   0.913
 1915W        W65639  23.624  44.835   4.773
 1916W        W65640  13.319  14.290  10.447
 1917W        W65641   3.239   2.230  11.562
 1918W        W65642  28.949  23.180   2.712
 1919W        W65643   6.226   4.781   1.786
 1920W        W65644   2.843  17.706  14.401
 1921W        W65645  37.481   1.966  13.434
 1922W        W65646  43.431  13.270  11.856
 1923W        W65647  27.080   9.784   0.368
 1924W        W65648  28.971  27.978  11.875
 1925W        W65649  28.445   5.725   4.310
 1926W        W65650  31.568   7.360  10.573
 1927W        W65651  35.469  37.996  11.986
 1928W        W65652  42.441  36.955   3.659
 1929W        W65653  34.931  26.113  13.975
 1930W        W65654  38.499  20.132   4.264
 1931W        W65655  18.061  27.607  10.525
 1932W        W65656  14.800  21.693  14.813
 1933W        W65657  36.993  18.654  11.031
 1934W        W65658  27.550  36.018   0.424
 1935W        W65659   0.936  14.622  13.964
 1936W        W65660  10.357  39.825  13.506
 1937W        W65661  44.501   0.939  12.891
 1938W        W65662  43.507  13.726   2.758
 1939W        W65663  41.022  34.034  13.884
 1940W        W65664  44.891  37.949   4.670
 1941W        W65665  13.828  13.271  12.553
 1942W        W65666   7.409  40.873   1.827
 1943W        W65667  25.626  29.456  14.970
 1944W        W65668  18.598  40.497   1.409
 1945W        W65669  21.161   6.200  12.399
 1946W        W65670  14.638  34.912  11.934
 1947W        W65671  18.224  41.037  12.379
 1948W        W65672  32.914  44.428  14.444
 1949W        W65673  18.224   1.959  10.526
 1950W        W65674  35.544  15.592  12.872
 1951W        W65675  28.949   1.364  11.477
 1952W        W65676  40.963   0.748  10.918
 1953W        W65677  14.310  29.076  11.870
 1954W        W65678   6.351  26.172   4.337
 1955W        W65679  39.487   2.841   0.826
 1956W        W65680  33.401  20.529   4.311
 1957W        W65681  34.086  12.857   0.965
 1958W        W65682  19.588  12.202   4.758
 1959W        W65683   2.346  26.587  12.381
 1960W        W65684  31.133  22.016   0.835
 1961W        W65685  31.429  38.404  13.354
 1962W        W65686  18.172  32.574  10.527
 1963W        W65687  11.701  25.522  11.430
 1964W        W65688   3.904   4.260  12.017
 1965W        W65689  34.097   5.289   2.826
 1966W        W65690  14.273   9.268   5.318
 1967W        W65691   7.417  33.065   1.906
 1968W        W65692  43.859  16.683   2.781
 1969W        W65693  38.831  43.949   4.731
 1970W        W65694  15.101  17.297   4.796
 1971W        W65695  23.037   0.981   4.794
 1972W        W65696  33.886   4.752   2.666
 1973W        W65697  36.467  24.699   0.480
 1974W        W65698   9.349   6.379   1.776
 1975W        W65699  21.091   5.885  13.322
 1976W        W65700  35.045  27.973   2.300
 1977W        W65701  33.923  30.585   0.276
 1978W        W65702  44.292  24.649  11.612
 1979W        W65703  37.896   5.235   4.191
 1980W        W65704  11.679  31.526   4.740
 1981W        W65705  24.689  21.642   4.662
 1982W        W65706   6.193  24.528  10.613
 1983W        W65707  24.523  23.554  12.831
 1984W        W65708  20.245   0.920   2.340
 1985W        W65709  27.514  42.853   4.324
 1986W        W65710  38.898   6.844  11.495
 1987W        W65711  32.042  44.974   3.337
 1988W        W65712  25.488  19.071   3.309
 1989W        W65713  36.062  42.310  11.005
 1990W        W65714  18.589  24.499  13.016
 1991W        W65715  36.900  35.873   0.760
 1992W        W65716  22.682  41.457  14.434
 1993W        W65717   6.387  30.588   2.899
 1994W        W65718   5.871  41.020  11.589
 1995W        W65719  24.061  42.021   5.775
 1996W        W65720   4.204  44.918   2.384
 1997W        W65721   9.860  27.480   2.219
 1998W        W65722  13.167  19.124   0.877
 1999W        W65723   4.356  18.726   1.695
 2000W        W65724  22.744   4.315   3.146
 2001W        W65725  22.512  44.418  12.442
 2002W        W65726  27.192  10.207   1.325
 2003W        W65727  11.253  12.175   3.227
 2004W        W65728   3.899  19.544   2.220
 2005W        W65729  34.082  42.353  11.066
 2006W        W65730  16.786  21.624  12.932
 2007W        W65731  42.516  19.729  12.511
 2008W        W65732  11.349  19.536  14.813
 2009W        W65733  25.036  18.172  11.938
 2010W        W65734  21.620   3.371   4.295
 2011W        W65735  33.048   7.790   3.219
 2012W        W65736  30.598  15.644   4.149
 2013W        W65737  19.060  16.157   9.463
 2014W        W65738  37.467  24.015   5.257
 2015W        W65739  32.967  10.839   3.223
 2016W        W65740  11.675  17.651   3.318
 2017W        W65741   1.354  20.102  14.299
 2018W        W65742  21.077  37.529  13.023
 2019W        W65743  41.361  39.428   4.660
 2020W        W65744  41.346  12.360   1.410
 2021W        W65745  41.401   5.290  11.888
 2022W        W65746  17.253  13.827   4.730
 2023W        W65747   0.295  21.162   0.248
 2024W        W65748  31.110  38.824   4.161
 2025W        W65749  25.581  43.894  12.996
 2026W        W65750  33.878  18.073   0.732
 2027W        W65751  34.916  11.330   2.674
 2028W        W65752  13.180  26.960   0.375
 2029W        W65753  28.976  32.035  11.398
 2030W        W65754   6.312   2.960   4.153
 2031W        W65755  16.659   5.911   2.418
 2032W        W65756   5.893  29.951  14.963
 2033W        W65757  34.956  13.309  13.334
 2034W        W65758  23.496  33.450   1.899
 2035W        W65759  15.577  40.863   3.698
 2036W        W65760   8.812  26.502   4.261
 2037W        W65761  36.399   1.385  14.974
 2038W        W65762  41.009  32.501  11.856
 2039W        W65763  37.891  16.723  11.038
 2040W        W65764  30.105   0.896   0.452
 2041W        W65765  38.040   2.932  11.114
 2042W        W65766   7.379  26.994   3.384
 2043W        W65767   3.762  34.116  14.866
 2044W        W65768  41.420   3.283  10.949
 2045W        W65769  19.758   7.682  10.440
 2046W        W65770   2.944  34.087   0.786
 2047W        W65771  32.954   9.760   2.725
 2048W        W65772  14.611  17.217  12.485
 2049W        W65773  23.576  28.166  14.902
 2050W        W65774  19.626  27.457   4.115
 2051W        W65775  35.039  10.255   3.261
 2052W        W65776   5.832  44.425   4.715
 2053W        W65777  20.152  15.783   0.909
 2054W        W65778  37.845   5.342   0.295
 2055W        W65779  11.283   3.431   2.829
 2056W        W65780  14.291  29.648  14.774
 2057W        W65781  38.490   6.721  13.442
 2058W        W65782  42.499   3.757   2.399
 2059W        W65783  33.951  29.160  14.902
 2060W        W65784   0.909  12.852   3.232
 2061W        W65785  15.179  44.303   3.811
 2062W        W65786  41.982  10.646   3.343
 2063W        W65787   7.865  17.256   0.414
 2064W        W65788  25.481   6.305  12.555
 2065W        W65789   9.177  16.130   3.741
 2066W        W65790  26.581  16.667   2.192
 2067W        W65791  36.841  12.764   1.715
 2068W        W65792  26.957  37.850  11.395
 2069W        W65793   8.848  36.467   3.293
 2070W        W65794  25.519  10.258  14.811
 2071W        W65795  12.842  39.924  11.007
 2072W        W65796   8.839  34.568  14.344
 2073W        W65797  41.323   2.359  11.055
 2074W        W65798   2.746  42.489  11.384
 2075W        W65799   8.169  42.327   1.218
 2076W        W65800  44.759   0.438  12.347
 2077W        W65801  40.969  31.903  14.808
 2078W        W65802  44.877  33.003  14.818
 2079W        W65803  18.279  28.010   3.362
 2080W        W65804  30.589  27.993   3.671
 2081W        W65805   3.806  13.277   5.273
 2082W        W65806  35.573  41.534   4.273
 2083W        W65807   0.760   8.665   5.224
 2084W        W65808   1.973  11.270   3.762
 2085W        W65809  21.712  12.690  11.104
 2086W        W65810  29.032  18.091   4.671
 2087W        W65811   6.226  32.052  14.420
 2088W        W65812  19.066  36.584   1.379
 2089W        W65813  42.345  38.499   1.772
 2090W        W65814   5.909  44.505   3.644
 2091W        W65815  18.548  38.565   2.799
 2092W        W65816   4.943   4.919   1.327
 2093W        W65817  21.718  35.377   4.262
 2094W        W65818  42.864  41.848  13.454
 2095W        W65819  19.574  16.696   2.322
 2096W        W65820  38.356  22.650   0.839
 2097W        W65821   6.744  12.743   2.283
 2098W        W65822  15.681  24.188  10.638
 2099W        W65823  16.163  28.118  10.026
 2100W        W65824  36.912  12.167  13.060
 2101W        W65825  22.997  27.968   2.799
 2102W        W65826  37.497  30.496   2.870
 2103W        W65827   0.758   3.407   2.743
 2104W        W65828  16.793  23.087   3.690
 2105W        W65829  18.707  18.053   1.872
 2106W        W65830  19.190   2.912  12.346
 2107W        W65831  39.888  22.995   1.747
 2108W        W65832  27.686  35.076  11.065
 2109W        W65833  11.857  13.601   3.236
 2110W        W65834  24.497  15.271   0.406
 2111W        W65835  17.068  19.267  14.506
 2112W        W65836  33.469  40.976  10.429
 2113W        W65837  26.698  11.759  12.961
 2114W        W65838  24.994   7.836  11.922
 2115W        W65839  23.058  30.435  14.305
 2116W        W65840  11.820  18.241  13.911
 2117W        W65841  31.426  28.944  14.402
 2118W        W65842  41.896   0.766  11.420
 2119W        W65843  44.829  18.148   2.796
 2120W        W65844   9.757  23.163  11.054
 2121W        W65845   7.761  12.295  11.396
 2122W        W65846   2.366   7.355  12.400
 2123W        W65847  16.762  16.171  13.897
 2124W        W65848  21.166   9.804   3.846
 2125W        W65849  13.144   0.425  12.500
 2126W        W65850   2.788  27.129  11.474
 2127W        W65851  39.552   7.410   2.387
 2128W        W65852  18.749  15.259  13.543
 2129W        W65853  21.117  42.432   1.929
 2130W        W65854  14.200  38.441   1.851
 2131W        W65855  21.220  10.767  10.903
 2132W        W65856  22.163  39.540   0.393
 2133W        W65857   1.744  36.565  11.555
 2134W        W65858  16.110  35.408  14.357
 2135W        W65859   0.881  40.871   4.805
 2136W        W65860  24.121  18.292   3.819
 2137W        W65861   8.688   6.251  14.001
 2138W        W65862  27.534  36.538  14.459
 2139W        W65863   3.378  38.414  12.096
 2140W        W65864   8.205  39.910   4.299
 2141W        W65865   1.853  37.337   4.757
 2142W        W65866  38.380   4.439   1.815
 2143W        W65867  30.452   1.296  11.448
 2144W        W65868  13.807  36.404  10.614
 2145W        W65869  21.093  10.868   2.417
 2146W        W65870  36.422  37.486  11.940
 2147W        W65871  16.160  43.867  12.467
 2148W        W65872  33.452  38.887   0.800
 2149W        W65873  39.061  25.041   3.863
 2150W        W65874  42.920  32.961  12.963
 2151W        W65875  28.479  39.009   9.934
 2152W        W65876  23.537  10.783   0.344
 2153W        W65877   9.181  18.587  13.336
 2154W        W65878  21.163  38.353  14.876
 2155W        W65879   3.904  21.227   1.834
 2156W        W65880   1.816  13.190   2.889
 2157W        W65881  24.043  25.607  14.023
 2158W        W65882  21.644  12.259   4.142
 2159W        W65883  26.045  42.468   0.825
 2160W        W65884  43.491  27.179   1.922
 2161W        W65885  15.688  12.291   4.306
 2162W        W65886  29.109  36.874  14.908
 2163W        W65887   9.323  13.189   0.896
 2164W        W65888  10.239  44.776  14.809
 2165W        W65889  32.042  24.622   0.932
 2166W        W65890  31.111  22.041   3.306
 2167W        W65891  43.313  38.065   3.681
 2168W        W65892  21.658  13.227  13.884
 2169W        W65893   3.341  28.669  12.553
 2170W        W65894   4.711   8.245  12.447
 2171W        W65895  19.164   1.410  14.881
 2172W        W65896  10.208  36.969  11.018
 2173W        W65897  32.130   3.855   2.698
 2174W        W65898  11.743  38.966  11.512
 2175W        W65899  27.162  33.615  10.160
 2176W        W65900  28.471  10.715  11.007
 2177W        W65901  15.815  22.747  12.498
 2178W        W65902   5.256   9.151   1.921
 2179W        W65903  24.153  44.787  14.850
 2180W        W65904   1.356   9.847   0.863
 2181W        W65905  28.122  32.069   3.674
 2182W        W65906   2.315  27.117  13.455
 2183W        W65907  40.426   0.818  14.514
 2184W        W65908   2.299  25.560  12.551
 2185W        W65909  31.979   8.290   4.760
 2186W        W65910   1.839  35.901  13.900
 2187W        W65911  16.240  11.837  14.342
 2188W        W65912  14.685  30.479  11.505
 2189W        W65913   7.685  26.619   0.274
 2190W        W65914   2.256   9.357   2.414
 2191W        W65915   1.466  19.573   0.432
 2192W        W65916  32.467  31.485   3.261
 2193W        W65917  15.698  25.575   1.836
 2194W        W65918  27.630  10.729   5.568
 2195W        W65919   6.842  34.583  13.027
 2196W        W65920  16.703  16.173  13.475
 2197W        W65921   5.306  40.306   2.805
 2198W        W65922  30.162  10.291  11.911
 2199W        W65923   4.339  38.369  11.541
 2200W        W65924  43.955   3.731   3.696
 2201W        W65925  23.043  12.316   4.242
 2202W        W65926  32.961  33.498   0.778
 2203W        W65927   9.344  27.477  10.412
 2204W        W65928  21.568   9.889   4.818
 2205W        W65929  43.504  29.061  13.891
 2206W        W65930   8.244   2.371  14.379
 2207W        W65931  28.090   5.235  12.475
 2208W        W65932  36.519  26.665  12.917
 2209W        W65933  39.975  36.871  10.096
 2210W        W65934   7.378  19.213   0.825
 2211W        W65935  34.507  39.919   1.446
 2212W        W65936  39.555  34.480   1.385
 2213W        W65937   1.315   4.818  12.567
 2214W        W65938  26.111  30.109   2.248
 2215W        W65939  35.906  35.102   2.715
 2216W        W65940  13.232  34.463  12.858
 2217W        W65941  39.359  25.676   4.609
 2218W        W65942  31.144  26.679   5.133
 2219W        W65943  11.368  28.158  14.010
 2220W        W65944   3.728  31.540  12.955
 2221W        W65945  31.633  27.071   0.735
 2222W        W65946  37.870  43.870   4.348
 2223W        W65947  22.040   6.896  14.413
 2224W        W65948  39.976  43.854  13.061
 2225W        W65949   3.291  28.636   3.761
 2226W        W65950  34.882   3.402  14.801
 2227W        W65951  21.665  20.603   0.353
 2228W        W65952  27.618  12.202  10.963
 2229W        W65953  42.985  15.616   1.278
 2230W        W65954  26.098  37.531   1.883
 2231W        W65955   4.940   7.315   4.692
 2232W        W65956  29.041  35.366  10.472
 2233W        W65957   4.717  30.588   3.187
 2234W        W65958  19.550   4.359   0.403
 2235W        W65959  36.047  11.623   1.803
 2236W        W65960  11.258  43.862   2.378
 2237W        W65961  32.549  27.988   4.271
 2238W        W65962  38.074  24.530  13.867
 2239W        W65963   6.359  26.514   1.797
 2240W        W65964  20.099  25.548  11.396
 2241W        W65965  15.133  12.702  14.828
 2242W        W65966   0.989   6.192   3.840
 2243W        W65967  19.735  32.018   3.708
 2244W        W65968   6.684  14.206   3.800
 2245W        W65969  23.234  21.234   4.190
 2246W        W65970  15.135  31.561  10.974
 2247W        W65971  10.826  14.673   0.424
 2248W        W65972  24.126  24.980   0.418
 2249W        W65973   7.674  32.469  13.816
 2250W        W65974   1.969  25.628  13.849
 2251W        W65975  25.987  27.664   1.401
 2252W        W65976  15.642   3.792  14.769
 2253W        W65977  32.890  24.673  12.019
 2254W        W65978  25.192  43.911   1.270
 2255W        W65979  23.184  18.235  11.448
 2256W        W65980  37.880  31.044  14.896
 2257W        W65981   4.311  40.517  14.321
 2258W        W65982  39.510  11.694  12.056
 2259W        W65983  43.853  40.418  12.503
 2260W        W65984  23.233  44.778   4.268
 2261W        W65985  31.130   5.421   2.292
 2262W        W65986  36.853  33.478  12.036
 2263W        W65987  27.487  33.941   4.760
 2264W        W65988   7.324  20.566  11.990
 2265W        W65989  34.992   8.194   2.727
 2266W        W65990  30.933  25.614  12.557
 2267W        W65991   9.685  22.694   0.878
 2268W        W65992   2.921   8.870   4.830
 2269W        W65993  40.798  18.225   1.775
 2270W        W65994   4.729  19.631  12.069
 2271W        W65995  15.679  16.304   0.244
 2272W        W65996  35.915  12.706  11.910
 2273W        W65997  23.676  15.326   1.725
 2274W        W65998  39.483  18.571   2.255
 2275W        W65999  39.931   2.303   2.292
 2276W        W66000  16.699  13.632  11.600
 2277W        W66001  31.129  34.882  10.432
 2278W        W66002   3.721  19.224  14.859
 2279W        W66003  10.276  38.945  13.937
 2280W        W66004  24.986   6.232   1.907
 2281W        W66005  10.736  20.713  12.540
 2282W        W66006  27.587  27.539   0.482
 2283W        W66007  23.225  42.846  13.993
 2284W        W66008   0.428  17.294  12.340
 2285W        W66009  25.016  35.530  12.833
 2286W        W66010  35.373   0.344  10.902
 2287W        W66011  38.496  16.272  12.415
 2288W        W66012  32.411  39.001   3.718
 2289W        W66013   1.892  36.448   5.301
 2290W        W66014  23.567  29.998   2.285
 2291W        W66015  25.533  40.536   0.355
 2292W        W66016  29.583  26.639  13.405
 2293W        W66017  39.906  13.350   0.392
 2294W        W66018  29.957  35.581  10.632
 2295W        W66019  15.099  16.663   3.857
 2296W        W66020  39.508  15.788  12.964
 2297W        W66021  43.016  39.559   1.342
 2298W        W66022  43.296  30.951   0.277
 2299W        W66023  38.866  38.894   4.339
 2300W        W66024  11.751  23.240  13.907
 2301W        W66025  18.582  13.778   2.198
 2302W        W66026  10.187  36.347  10.644
 2303W        W66027   1.830  15.613   2.276
 2304W        W66028  38.484  39.427   2.382
 2305W        W66029  13.808   9.361   3.274
 2306W        W66030  17.196  41.953  12.834
 2307W        W66031  13.215   5.777   2.334
 2308W        W66032  16.615  15.221   0.782
 2309W        W66033  26.999  26.491   0.756
 2310W        W66034  39.859  28.623   2.363
 2311W        W66035  25.676  19.265   0.367
 2312W        W66036  16.262  18.766   3.235
 2313W        W66037  11.769  27.030  13.063
 2314W        W66038   2.766   0.317  11.072
 2315W        W66039  19.552  26.033  12.487
 2316W        W66040  34.503  15.704  13.985
 2317W        W66041  26.608   0.279  14.821
 2318W        W66042  30.953   4.365   1.834
 2319W        W66043  26.512  37.899  14.841
 2320W        W66044  12.803   9.348   3.165
 2321W        W66045   9.172  33.107  14.431
 2322W        W66046  14.152   2.343  14.764
 2323W        W66047  25.159   1.740   1.909
 2324W        W66048  11.370   4.345  10.420
 2325W        W66049  12.705   7.204   2.689
 2326W        W66050  31.905   6.840  10.970
 2327W        W66051   5.921  42.787  13.316
 2328W        W66052  23.019   5.884   3.246
 2329W        W66053  14.757  28.937  13.834
 2330W        W66054  17.776  10.850   2.413
 2331W        W66055  23.563  44.296  11.578
 2332W        W66056  17.130  35.073  13.440
 2333W        W66057  14.723   4.898   2.708
 2334W        W66058  36.352  14.112  12.866
 2335W        W66059  39.529  19.226   4.181
 2336W        W66060  38.417   1.430   1.760
 2337W        W66061  27.644  36.503   3.816
 2338W        W66062  17.603  27.017   2.678
 2339W        W66063  34.927  41.374  13.842
 2340W        W66064  14.602  17.694   2.745
 2341W        W66065  41.502  30.974  14.799
 2342W        W66066  34.487  22.206  13.057
 2343W        W66067  14.717  14.281   0.884
 2344W        W66068  14.334  43.437   2.856
 2345W        W66069  31.098   0.258   9.960
 2346W        W66070  26.027   6.825  12.562
 2347W        W66071  38.899   0.409   4.236
 2348W        W66072  13.127  37.939   2.257
 2349W        W66073  44.923  23.696  14.867
 2350W        W66074  19.694  21.209  12.930
 2351W        W66075  35.106   6.702  14.450
 2352W        W66076  35.075  31.472   4.142
 2353W        W66077  12.303  33.116  14.441
 2354W        W66078  19.552  12.788  12.063
 2355W        W66079  22.662   8.890   3.260
 2356W        W66080  18.556  19.740  12.829
 2357W        W66081  21.611  15.222   4.176
 2358W        W66082   8.763   4.242   1.923
 2359W        W66083   5.713  40.347  14.501
 2360W        W66084  25.183  32.419  12.038
 2361W        W66085  23.047  44.267  11.908
 2362W        W66086   1.367  20.571  13.490
 2363W        W66087   0.815  28.597   0.297
 2364W        W66088  34.480  38.898   3.376
 2365W        W66089  30.434  38.942  13.941
 2366W        W66090  18.781   4.437   4.143
 2367W        W66091  41.008  14.640   4.798
 2368W        W66092  34.007  13.272   5.152
 2369W        W66093  24.682  15.710   2.897
 2370W        W66094  34.451   5.780   4.337
 2371W        W66095  23.721  15.117  11.933
 2372W        W66096   3.745  35.578  13.026
 2373W        W66097  40.475  27.678  14.317
 2374W        W66098  43.358  34.008   0.752
 2375W        W66099  43.399  42.003  14.018
 2376W        W66100  42.778  15.620  12.007
 2377W        W66101  32.995  41.907   3.723
 2378W        W66102  43.876  19.229  14.828
 2379W        W66103   4.926  28.582   0.968
 2380W        W66104  14.139  27.502   2.891
 2381W        W66105  12.141  27.027   0.859
 2382W        W66106   0.828  36.478   4.808
 2383W        W66107   8.376  23.718  11.880
 2384W        W66108  34.896  29.117   4.165
 2385W        W66109   8.689   6.726   0.380
 2386W        W66110   8.253  16.743   4.286
 2387W        W66111  44.476  20.538  11.601
 2388W        W66112   4.301  42.785  11.872
 2389W        W66113  22.017  10.854  12.478
 2390W        W66114  13.238  41.379  14.934
 2391W        W66115   6.897  30.941   0.319
 2392W        W66116  31.568  43.816   1.349
 2393W        W66117   3.302  14.193   1.399
 2394W        W66118  24.188  44.826  11.498
 2395W        W66119  24.220  36.084  12.511
 2396W        W66120  37.343  16.087  13.386
 2397W        W66121  16.087  10.877   1.319
 2398W        W66122  18.127  35.878   3.208
 2399W        W66123  33.960  29.171   2.204
 2400W        W66124  35.603  43.299   2.299
 2401W        W66125  40.853   4.406  12.473
 2402W        W66126  10.187   1.813   2.390
 2403W        W66127  12.233   5.733  12.852
 2404W        W66128  19.548  24.488   3.844
 2405W        W66129  32.443  26.527   1.826
 2406W        W66130  41.321  10.234  11.102
 2407W        W66131  29.482   5.293  11.080
 2408W        W66132  17.658  30.506   0.385
 2409W        W66133   5.874  31.126   0.399
 2410W        W66134   6.814   2.901   2.252
 2411W        W66135   3.779  23.634   3.699
 2412W        W66136  24.175  26.473  13.410
 2413W        W66137  34.987   9.317  11.959
 2414W        W66138  35.509   5.213  12.527
 2415W        W66139  31.932  20.230  12.889
 2416W        W66140  18.643  17.220   1.324
 2417W        W66141   2.361  10.857   2.239
 2418W        W66142  32.004  38.493   3.335
 2419W        W66143  23.121   1.910  13.437
 2420W        W66144  31.466  10.773   0.808
 2421W        W66145  18.172  32.597   2.854
 2422W        W66146  44.461   3.751   3.742
 2423W        W66147  31.528   4.421   0.337
 2424W        W66148  43.874  41.926  11.020
 2425W        W66149  11.647  13.140  11.573
 2426W        W66150  36.439  16.577  12.370
 2427W        W66151  39.824  13.302  10.492
 2428W        W66152  28.047  24.585  14.370
 2429W        W66153  33.067  27.475   4.662
 2430W        W66154  31.904  33.591   5.306
 2431W        W66155  10.311  39.996  13.898
 2432W        W66156   7.912  25.474  10.957
 2433W        W66157  42.484  22.729  13.404
 2434W        W66158  25.609   0.286   0.905
 2435W        W66159  33.393  22.520   4.124
 2436W        W66160  22.092   7.739  12.004
 2437W        W66161  15.652  25.099   5.127
 2438W        W66162  28.584  37.429   1.850
 2439W        W66163  32.104   7.697  14.431
 2440W        W66164  14.234  25.647  11.005
 2441W        W66165   9.862  44.500  11.599
 2442W        W66166  10.639  24.566   3.802
 2443W        W66167  36.576  39.378  13.363
 2444W        W66168  24.067  44.358   4.683
 2445W        W66169  38.352   2.879  14.340
 2446W        W66170  12.186  18.287  14.976
 2447W        W66171  14.687  30.589   3.156
 2448W        W66172  12.610  28.541   3.211
 2449W        W66173  30.948  23.173   2.182
 2450W        W66174  20.749   3.255  12.419
 2451W        W66175   0.803  29.513   0.282
 2452W        W66176  23.700  37.454   1.339
 2453W        W66177   4.744  17.280   3.654
 2454W        W66178  21.548  40.330  10.045
 2455W        W66179   9.811  19.208  12.921
 2456W        W66180  33.901  16.623  10.440
 2457W        W66181  18.238  30.555  10.982
 2458W        W66182  29.456  12.651   1.895
 2459W        W66183  19.593  27.576  10.599
 2460W        W66184  19.536  36.567  13.856
 2461W        W66185   0.972  31.084  12.864
 2462W        W66186  23.139  30.149  10.952
 2463W        W66187  17.685  30.999  12.531
 2464W        W66188  21.077  14.814   1.800
 2465W        W66189  44.890  35.862   2.842
 2466W        W66190  34.055  12.156  12.097
 2467W        W66191  12.193   6.387  12.492
 2468W        W66192  17.591  34.521   4.199
 2469W        W66193  22.675  11.264  14.483
 2470W        W66194  40.993  19.561  12.531
 2471W        W66195  22.248  30.557  11.496
 2472W        W66196   8.868   7.257  14.498
 2473W        W66197  41.025  36.588   3.819
 2474W        W66198   9.215  40.535  10.522
 2475W        W66199  28.593   6.838  13.371
 2476W        W66200  19.542  24.219  11.074
 2477W        W66201   9.792   3.223  12.906
 2478W        W66202  20.630  22.115  10.596
 2479W        W66203  13.172  30.459   2.840
 2480W        W66204  37.474  19.585   4.212
 2481W        W66205  36.361   1.771  10.974
 2482W        W66206   1.913   3.899  14.825
 2483W        W66207   4.788  31.064   0.919
 2484W        W66208  23.630  44.770   3.738
 2485W        W66209   0.797  28.618   3.176
 2486W        W66210  22.726  37.895   3.790
 2487W        W66211   8.684  40.448  12.389
 2488W        W66212  29.464  18.635  12.894
 2489W        W66213  39.812  43.918   9.965
 2490W        W66214   8.847   7.383  14.958
 2491W        W66215  32.394  35.015   2.786
 2492W        W66216   6.819  32.885  14.966
 2493W        W66217   0.252  27.156  14.917
 2494W        W66218   6.875  21.734   1.326
 2495W        W66219  14.146   0.333   4.733
 2496W        W66220  29.138  21.747  11.571
 2497W        W66221  34.545   5.421   4.733
 2498W        W66222  25.470   0.803   3.258
 2499W        W66223   1.308  35.038  11.081
 2500W        W66224   0.976  28.132   1.249
 2501W        W66225  31.638  22.091  13.961
 2502W        W66226  11.258   5.303   0.961
 2503W        W66227  44.830  27.660   1.294
 2504W        W66228  37.436  20.151  12.002
 2505W        W66229   9.382  30.524   4.118
 2506W        W66230  19.080  22.553  10.409
 2507W        W66231  15.103  42.506   1.746
 2508W        W66232  19.055  36.589   3.320
 2509W        W66233  13.642   9.839   1.881
 2510W        W66234   2.943  27.498  10.605
 2511W        W66235  15.085   9.292  11.104
 2512W        W66236  19.175   7.188  14.899
 2513W        W66237  31.626  21.590   4.330
 2514W        W66238  36.529   6.874  12.552
 2515W        W66239   3.712  42.009  10.907
 2516W        W66240  31.409  20.686   4.818
 2517W        W66241  44.361  37.408   0.910
 2518W        W66242  33.563  44.756   1.808
 2519W        W66243  44.286  43.997   3.857
 2520W        W66244  41.818  41.434  10.913
 2521W        W66245  15.290  42.488  10.579
 2522W        W66246  10.175  14.835  13.480
 2523W        W66247  33.472  15.752  13.404
 2524W        W66248  26.468  29.969  11.507
 2525W        W66249   9.720  21.127  12.369
 2526W        W66250  40.003  22.547   9.603
 2527W        W66251  22.996  31.486   1.924
 2528W        W66252   0.325   9.643  14.761
 2529W        W66253  16.567  17.570   0.867
 2530W        W66254  38.503  42.293  11.089
 2531W        W66255  40.483  40.027  13.516
 2532W        W66256   6.814  18.286   0.847
 2533W        W66257   7.407  37.924   4.804
 2534W        W66258  36.347  13.189   0.308
 2535W        W66259  15.789  11.864   1.781
 2536W        W66260  23.591  18.062  11.576
 2537W        W66261  33.511   5.713  10.553
 2538W        W66262  11.866  26.034  11.610
 2539W        W66263  28.149  34.102   4.162
 2540W        W66264  43.005  11.751   3.787
 2541W        W66265  26.027  38.414   1.445
 2542W        W66266   7.723  14.695  13.326
 2543W        W66267  36.884  17.774   4.675
 2544W        W66268  29.001  15.100   2.182
 2545W        W66269   8.217  38.482  13.318
 2546W        W66270  25.122   2.892  12.888
 2547W        W66271  21.116   5.833  14.369
 2548W        W66272   6.400  39.511   2.901
 2549W        W66273   4.450   2.326  12.057
 2550W        W66274  22.506  36.956   3.697
 2551W        W66275  15.123  21.025  12.983
 2552W        W66276  42.430  44.898  10.640
 2553W        W66277   9.296  33.449  12.535
 2554W        W66278  41.407  14.711  13.910
 2555W        W66279  25.982   0.969   2.745
 2556W        W66280  30.635  36.432   3.289
 2557W        W66281  18.589  30.071   2.802
 2558W        W66282  42.859  42.974   3.683
 2559W        W66283  35.958  16.289  14.358
 2560W        W66284  17.186   3.216  11.402
 2561W        W66285  33.910  28.540   3.169
 2562W        W66286  42.401  34.503   0.904
 2563W        W66287  28.145  32.529   1.860
 2564W        W66288  36.393  31.898   2.671
 2565W        W66289  42.499  17.690  12.882
 2566W        W66290  35.600  11.145  13.923
 2567W        W66291  15.701   1.283   2.800
 2568W        W66292  32.583  17.570  13.406
 2569W        W66293  38.502   7.402  14.837
 2570W        W66294  41.510  40.845   1.338
 2571W        W66295  30.659  36.902  13.481
 2572W        W66296  32.971  33.424  12.089
 2573W        W66297  10.643  24.013  11.531
 2574W        W66298  10.862  37.574   4.693
 2575W        W66299  16.271   7.379  10.963
 2576W        W66300  34.001  13.802   1.833
 2577W        W66301  36.016  40.318   3.307
 2578W        W66302  42.855  24.067  14.008
 2579W        W66303  19.549  16.164   1.718
 2580W        W66304  42.864  41.371   3.213
 2581W        W66305  22.171   0.840   1.221
 2582W        W66306   4.713   4.381  10.604
 2583W        W66307  16.693  12.748   0.384
 2584W        W66308   2.423  32.468  11.410
 2585W        W66309  19.588   2.870  11.012
 2586W        W66310  40.440  13.630   3.232
 2587W        W66311  10.268  35.071  14.031
 2588W        W66312  16.796   0.485  13.311
 2589W        W66313  22.241  21.745  12.567
 2590W        W66314  16.678  36.953   2.406
 2591W        W66315   7.377  38.912   1.916
 2592W        W66316  36.437   6.353  10.087
 2593W        W66317  42.824   8.854   0.372
 2594W        W66318  17.737  37.391   3.862
 2595W        W66319  26.696  16.164  11.004
 2596W        W66320  10.853   9.708   0.410
 2597W        W66321  15.197   4.318  14.357
 2598W        W66322  31.961   6.297   1.441
 2599W        W66323   9.168  39.985  11.048
 2600W        W66324  41.035  41.818  12.969
 2601W        W66325  28.026  25.982  13.467
 2602W        W66326  13.121  44.927  14.783
 2603W        W66327  17.743  38.836   4.239
 2604W        W66328  35.362  25.508   3.183
 2605W        W66329  30.042   6.818   1.322
 2606W        W66330   0.319  41.788   2.706
 2607W        W66331  25.104  31.429   1.877
 2608W        W66332  20.221  15.742  13.822
 2609W        W66333  37.562  18.201   4.839
 2610W        W66334  41.912   4.313  13.990
 2611W        W66335  14.617  33.619   3.851
 2612W        W66336  32.618  40.360  13.497
 2613W        W66337  26.464  32.470   2.285
 2614W        W66338  16.688   2.412  11.476
 2615W        W66339  44.471  38.040  13.001
 2616W        W66340   0.934  17.785   4.659
 2617W        W66341   5.812  43.805   0.758
 2618W        W66342  31.014  35.944  14.768
 2619W        W66343   5.253  15.643  10.122
 2620W        W66344  43.986  18.552   0.853
 2621W        W66345  21.688  23.174   4.342
 2622W        W66346  15.794   6.263   3.698
 2623W        W66347  38.913  38.349  12.481
 2624W        W66348   9.309  24.082   1.315
 2625W        W66349  27.554   3.302  11.903
 2626W        W66350   8.173  39.948   3.705
 2627W        W66351  41.387  30.657  10.592
 2628W        W66352  27.492  41.895   2.739
 2629W        W66353   4.918  13.136   2.761
 2630W        W66354  37.453  40.984   0.456
 2631W        W66355   9.173   3.451   2.414
 2632W        W66356  37.964  10.228  10.572
 2633W        W66357  38.864  18.609   1.446
 2634W        W66358  21.655  32.417   3.256
 2635W        W66359  26.038   3.890   2.744
 2636W        W66360  39.375   9.758  11.910
 2637W        W66361  22.659  30.518  14.963
 2638W        W66362  43.333  21.040  11.594
 2639W        W66363  23.649  11.271   4.350
 2640W        W66364  15.148  17.639   3.634
 2641W        W66365  35.891  28.504  14.954
 2642W        W66366  43.434  31.048   2.726
 2643W        W66367   8.793   8.897  14.823
 2644W        W66368   7.189   1.752   1.349
 2645W        W66369  15.748  14.287  10.901
 2646W        W66370  40.906  43.943   1.935
 2647W        W66371   9.341  10.141  12.960
 2648W        W66372  44.388   7.197  10.966
 2649W        W66373   3.930  28.947   3.302
 2650W        W66374  32.423  25.972  13.359
 2651W        W66375  23.627   0.460   3.266
 2652W        W66376  18.064  14.799  11.570
 2653W        W66377  37.997   5.853  12.964
 2654W        W66378   6.331  11.185   3.656
 2655W        W66379  24.102  27.951   0.741
 2656W        W66380  18.230  39.868   3.204
 2657W        W66381   7.870   6.896  13.825
 2658W        W66382   1.948   3.777  14.318
 2659W        W66383   3.268  35.434  13.940
 2660W        W66384  44.821  34.454   5.182
 2661W        W66385   9.299  15.664   0.891
 2662W        W66386   4.911  42.485   1.218
 2663W        W66387  15.791   5.725  13.822
 2664W        W66388  28.575  27.454   0.931
 2665W        W66389  38.410  12.319   1.835
 2666W        W66390  33.539  21.529   0.886
 2667W        W66391  14.257  42.510   3.339
 2668W        W66392  21.570  33.971  13.519
 2669W        W66393  35.095  31.918  13.495
 2670W        W66394  29.174   9.664   3.370
 2671W        W66395  10.866  39.009   4.285
 2672W        W66396  35.871  24.008  11.552
 2673W        W66397  13.739  33.497  13.975
 2674W        W66398  40.894   0.966  12.950
 2675W        W66399  42.825   4.243  13.002
 2676W        W66400  42.358  40.039   1.861
 2677W        W66401  29.075  21.159  13.378
 2678W        W66402  44.004  37.964  10.543
 2679W        W66403  38.948  16.122   3.677
 2680W        W66404  33.501   5.254   0.895
 2681W        W66405  17.219  38.855   0.786
 2682W        W66406  36.543  38.025   0.833
 2683W        W66407  20.187   7.308   1.356
 2684W        W66408  30.080  29.021   2.372
 2685W        W66409   8.773   7.264   4.310
 2686W        W66410   3.759  44.790  10.552
 2687W        W66411  14.726  23.199  11.387
 2688W        W66412   1.330   5.291  11.911
 2689W        W66413  10.328  40.489  12.460
 2690W        W66414   5.802  42.944  14.299
 2691W        W66415  28.937  22.130  11.564
 2692W        W66416   5.779   9.387   4.154
 2693W        W66417   6.797  44.885  12.939
 2694W        W66418  21.186   2.931  13.947
 2695W        W66419  28.586  30.059   4.232
 2696W        W66420  23.008  34.039   0.399
 2697W        W66421  19.692  13.610   5.120
 2698W        W66422  36.077  25.199   1.424
 2699W        W66423  16.219  19.140  14.440
 2700W        W66424  30.979  15.754   3.179
 2701W        W66425  35.855   0.958   1.695
 2702W        W66426  43.824  42.913  12.386
 2703W        W66427   4.745  33.605   4.652
 2704W        W66428   8.731  11.640   2.395
 2705W        W66429  42.355  33.559  12.342
 2706W        W66430  36.966   9.329  14.962
 2707W        W66431   6.342  39.325  13.385
 2708W        W66432  10.245  41.832   2.297
 2709W        W66433  10.349   9.368  13.472
 2710W        W66434  30.501   4.704  14.761
 2711W        W66435  43.509  14.257   5.266
 2712W        W66436  27.177  41.875  11.857
 2713W        W66437  26.056  13.728   1.279
 2714W        W66438   0.349  18.269   2.403
 2715W        W66439   3.402  42.395   2.849
 2716W        W66440   2.251  38.325  13.492
 2717W        W66441  30.656  40.892   2.279
 2718W        W66442   0.760  27.088   2.344
 2719W        W66443  39.816   8.778  12.946
 2720W        W66444  17.653   2.964  10.441
 2721W        W66445  29.666  16.272   1.708
 2722W        W66446   9.246  17.696  12.848
 2723W        W66447  25.648  32.897   4.259
 2724W        W66448  37.889   6.403  10.001
 2725W        W66449  28.126  36.915  11.498
 2726W        W66450  27.154  28.526  11.423
 2727W        W66451  26.657  11.139   1.240
 2728W        W66452  25.073  26.195  13.805
 2729W        W66453  31.114   3.924  13.853
 2730W        W66454  21.674   5.311  14.898
 2731W        W66455  13.283  10.242  14.339
 2732W        W66456   9.232  32.997   0.930
 2733W        W66457  33.574  12.790  14.814
 2734W        W66458  35.451  35.862   0.853
 2735W        W66459  20.122  35.924   2.734
 2736W        W66460  34.905  36.956  14.957
 2737W        W66461   1.921  37.083  13.883
 2738W        W66462  22.534  27.126   0.821
 2739W        W66463  23.144  22.552   0.815
 2740W        W66464  16.117   8.382  13.031
 2741W        W66465  36.950  15.703  11.405
 2742W        W66466   4.821  20.622   5.187
 2743W        W66467   7.221   0.926   1.317
 2744W        W66468  44.908  19.649   5.262
 2745W        W66469   3.382   4.747  11.398
 2746W        W66470   8.743  42.835  10.482
 2747W        W66471  42.840   5.729  12.068
 2748W        W66472  30.549  29.063  14.800
 2749W        W66473  44.932   9.390  10.962
 2750W        W66474  31.602  35.401   4.199
 2751W        W66475  33.500   8.871  14.761
 2752W        W66476  14.760  41.375   0.784
 2753W        W66477   0.824  27.161  14.877
 2754W        W66478   6.365  37.850   0.853
 2755W        W66479   7.226  28.647   2.387
 2756W        W66480  22.996  16.573   1.818
 2757W        W66481  26.539  28.475   2.357
 2758W        W66482  31.566  25.051   3.643
 2759W        W66483  11.834  20.100   4.307
 2760W        W66484  44.355   8.777   2.340
 2761W        W66485  18.779  21.126   3.176
 2762W        W66486  10.176  41.836   0.924
 2763W        W66487  37.371  42.483   5.142
 2764W        W66488  12.298  15.787   2.876
 2765W        W66489  33.422   2.882  13.975
 2766W        W66490   4.779  10.321  13.007
 2767W        W66491  44.879   8.354  12.852
 2768W        W66492  37.571  36.866   2.192
 2769W        W66493  15.601  11.192   0.954
 2770W        W66494  27.677  38.828   0.912
 2771W        W66495  37.001  38.011   1.353
 2772W        W66496   9.219  12.744  11.925
 2773W        W66497  37.971   5.820  11.470
 2774W        W66498   2.449  15.666  11.893
 2775W        W66499  43.832   2.440   1.846
 2776W        W66500  11.354   8.241   2.189
 2777W        W66501  29.493  28.605   3.177
 2778W        W66502  10.266   8.759  13.988
 2779W        W66503  15.766  31.477   1.816
 2780W        W66504  27.101  39.454  12.395
 2781W        W66505  15.171   8.368   3.864
 2782W        W66506  15.736  20.114  14.859
 2783W        W66507  35.025  40.798   0.374
 2784W        W66508  22.228  35.092  14.350
 2785W        W66509  16.766  43.479  10.626
 2786W        W66510   9.189  30.958   4.294
 2787W        W66511   2.791  41.823   1.274
 2788W        W66512  37.009   3.327   3.211
 2789W        W66513  40.984  38.386   3.866
 2790W        W66514  38.942   4.316   2.247
 2791W        W66515  33.443   8.325  14.347
 2792W        W66516  22.555  20.531   2.390
 2793W        W66517  36.492   2.458  14.024
 2794W        W66518   5.381   2.941  10.946
 2795W        W66519  19.110   8.870  10.520
 2796W        W66520   9.716  36.442   2.231
 2797W        W66521  44.896  22.034  12.999
 2798W        W66522  31.901  35.035   1.886
 2799W        W66523   0.867   0.967   3.243
 2800W        W66524  29.121  44.350   4.201
 2801W        W66525  21.593  25.583   1.715
 2802W        W66526  31.493   0.254   3.841
 2803W        W66527   0.449  17.783  14.899
 2804W        W66528  27.652  21.671  11.022
 2805W        W66529  17.147  14.194  14.848
 2806W        W66530   5.911  32.621   4.711
 2807W        W66531  30.529  12.339   0.909
 2808W        W66532  36.393  11.211   2.903
 2809W        W66533  17.272  10.217  14.803
 2810W        W66534  44.973  31.647  12.490
 2811W        W66535   4.904  22.746   1.391
 2812W        W66536  23.091  38.006  14.374
 2813W        W66537  39.877  15.619  14.969
 2814W        W66538  30.111   8.225  10.049
 2815W        W66539  41.977  16.191   3.333
 2816W        W66540  22.046   1.914  14.873
 2817W        W66541   5.852  27.027   3.693
 2818W        W66542   8.783  36.440  14.301
 2819W        W66543  31.954  14.163  13.952
 2820W        W66544  35.601  38.966  12.568
 2821W        W66545  20.636   7.245  11.039
 2822W        W66546  40.958  40.535  12.511
 2823W        W66547  30.574  33.520  12.427
 2824W        W66548  36.082  34.496   4.296
 2825W        W66549   6.348   1.401  11.555
 2826W        W66550  10.671  26.686   2.216
 2827W        W66551   8.776  22.022  13.960
 2828W        W66552  26.196  25.651   2.698
 2829W        W66553  30.126   2.413  13.891
 2830W        W66554  32.561  42.473   2.730
 2831W        W66555  37.042  42.850   5.216
 2832W        W66556   2.955  15.203   0.773
 2833W        W66557  40.008  27.679  10.588
 2834W        W66558  18.585  15.706   0.351
 2835W        W66559   0.865  10.353   1.862
 2836W        W66560  19.578  23.186  11.101
 2837W        W66561  26.195  11.792   5.219
 2838W        W66562  18.194  15.123   2.388
 2839W        W66563  28.591  32.632   3.648
 2840W        W66564  34.979   8.260   3.653
 2841W        W66565  25.060   8.688   2.359
 2842W        W66566  41.818  17.562   1.361
 2843W        W66567  25.082  10.790  14.887
 2844W        W66568  27.682   1.350   0.934
 2845W        W66569  12.309  12.170  13.797
 2846W        W66570  43.791  13.345  10.570
 2847W        W66571  25.210  16.663  11.371
 2848W        W66572  22.161  28.449  14.338
 2849W        W66573  35.418  18.120   3.387
 2850W        W66574  17.239  40.920  12.825
 2851W        W66575  42.404  43.308   4.724
 2852W        W66576   9.286  44.338   3.313
 2853W        W66577   7.253  44.318   4.781
 2854W        W66578  37.560   4.304  14.307
 2855W        W66579  33.409  39.556   2.871
 2856W        W66580  13.605   4.739   2.806
 2857W        W66581   4.342   2.756  11.580
 2858W        W66582  14.334   0.751  11.477
 2859W        W66583  33.564   4.445  14.818
 2860W        W66584  14.306  37.076   3.688
 2861W        W66585  17.127  22.557  14.911
 2862W        W66586  30.912  35.921  13.532
 2863W        W66587   4.906   4.298  14.350
 2864W        W66588  19.758   1.443  10.555
 2865W        W66589  12.815   9.828  12.504
 2866W        W66590  17.697   4.837   2.758
 2867W        W66591   7.372   0.460  12.449
 2868W        W66592   5.890  22.127  12.829
 2869W        W66593  14.337  33.469  13.311
 2870W        W66594  10.179  44.368   1.877
 2871W        W66595  17.168  15.208  13.440
 2872W        W66596  44.270  15.201   1.438
 2873W        W66597   5.257  27.057   3.772
 2874W        W66598  16.118  29.980   3.709
 2875W        W66599   5.230  44.331  10.441
 2876W        W66600   7.270  28.653  14.866
 2877W        W66601   9.287  43.887  14.832
 2878W        W66602   9.190  36.469  11.570
 2879W        W66603   7.176   4.787  12.580
 2880W        W66604   3.822  23.712  13.826
 2881W        W66605   6.411   2.820  14.969
 2882W        W66606   8.740  35.057   3.314
 2883W        W66607  31.907   8.891   0.453
 2884W        W66608   4.907  31.472  14.492
 2885W        W66609  18.785   0.866   2.857
 2886W        W66610  37.470  17.643  13.534
 2887W        W66611  23.019  35.894   4.762
 2888W        W66612   7.678  21.705   0.829
 2889W        W66613   2.401   7.897  12.039
 2890W        W66614   4.337  30.990  11.469
 2891W        W66615  11.812  14.598   1.297
 2892W        W66616  18.750  21.189   0.966
 2893W        W66617  15.156  27.618   2.822
 2894W        W66618   1.970  26.609   3.754
 2895W        W66619  29.573  14.665  14.797
 2896W        W66620   8.743  27.049  11.581
 2897W        W66621   7.390  28.651  14.503
 2898W        W66622  31.051  19.136   0.865
 2899W        W66623  35.462  21.512  12.867
 2900W        W66624  24.617  44.926   0.313
 2901W        W66625  42.369  42.955  13.064
 2902W        W66626  38.468   3.323   1.828
 2903W        W66627  13.600  39.481   3.708
 2904W        W66628  32.539   6.723   3.736
 2905W        W66629  12.822   7.412   1.935
 2906W        W66630  11.222  43.823  14.822
 2907W        W66631  20.262  42.421   4.291
 2908W        W66632  31.629  14.301  11.442
 2909W        W66633  36.867  42.287  13.371
 2910W        W66634   9.387  15.090   2.771
 2911W        W66635  30.568   5.796  14.512
 2912W        W66636  16.313  22.559  14.486
 2913W        W66637  35.023  17.781  13.857
 2914W        W66638  37.996  32.490   0.763
 2915W        W66639  42.492   6.325   2.748
 2916W        W66640   8.331  22.226  11.892
 2917W        W66641   0.417   7.284  13.941
 2918W        W66642  22.242  43.331  10.907
 2919W        W66643  24.124  40.462   3.380
 2920W        W66644   3.831  33.399  10.901
 2921W        W66645  23.024  32.610   0.830
 2922W        W66646  40.429  40.947   1.839
 2923W        W66647  43.435  44.490  12.930
 2924W        W66648   1.251  34.591  14.972
 2925W        W66649  29.054  24.991   4.676
 2926W        W66650   5.789  16.199  13.452
 2927W        W66651  39.938  37.552  11.976
 2928W        W66652  34.116  37.461   3.242
 2929W        W66653  18.696  33.893   2.683
 2930W        W66654  16.247  19.188   0.736
 2931W        W66655  41.969  28.981   0.359
 2932W        W66656  33.583  22.101  13.316
 2933W        W66657  35.543   0.927  11.954
 2934W        W66658   6.694  42.478  13.321
 2935W        W66659  16.209  10.143   1.801
 2936W        W66660  30.131  38.539  12.866
 2937W        W66661   0.907  44.977   4.131
 2938W        W66662  40.515  18.169  11.018
 2939W        W66663  43.429  17.662  13.829
 2940W        W66664   1.814  37.372  14.994
 2941W        W66665  33.096  27.125   0.328
 2942W        W66666  22.662  11.776   0.807
 2943W        W66667   0.883  24.134   1.235
 2944W        W66668  12.630   5.770  11.564
 2945W        W66669  34.075  16.081   1.419
 2946W        W66670  22.065  29.956   4.244
 2947W        W66671  22.131  18.789   4.667
 2948W        W66672  39.870  26.023  10.989
 2949W        W66673  13.679  16.269   2.672
 2950W        W66674  39.040   7.748   1.700
 2951W        W66675  21.555  42.848  14.316
 2952W        W66676  17.613  23.123  13.408
 2953W        W66677  37.336  23.653   1.286
 2954W        W66678  40.968  22.652   4.256
 2955W        W66679  11.221   0.483  11.553
 2956W        W66680   3.322   6.361  13.393
 2957W        W66681  32.104  32.989   4.763
 2958W        W66682  43.283   1.945   2.814
 2959W        W66683  14.311  32.922  14.807
 2960W        W66684   4.780  20.110   2.731
 2961W        W66685  24.120  44.319   4.134
 2962W        W66686  34.534  19.753   3.293
 2963W        W66687  30.584  29.151  13.391
 2964W        W66688  22.572  43.295   3.664
 2965W        W66689  44.970  37.525  13.376
 2966W        W66690  40.840   8.745   0.316
 2967W        W66691   5.306  44.434   0.730
 2968W        W66692  29.101  33.601   4.158
 2969W        W66693   1.798   7.668  11.556
 2970W        W66694  29.443  24.494  10.564
 2971W        W66695  27.514   8.223   1.383
 2972W        W66696   4.930  19.132   2.373
 2973W        W66697  43.343   0.933   0.872
 2974W        W66698  29.113  43.336   4.261
 2975W        W66699   5.784   3.886  11.066
 2976W        W66700  18.224  41.952   1.749
 2977W        W66701  33.973  42.819  12.434
 2978W        W66702  22.118  19.196  13.540
 2979W        W66703  15.206  44.861   2.395
 2980W        W66704   2.359  31.561  13.409
 2981W        W66705  34.587  12.263   1.919
 2982W        W66706  24.150  35.989  13.311
 2983W        W66707  43.952  26.028  14.415
 2984W        W66708  43.771  11.366   0.444
 2985W        W66709  10.779   9.763   3.372
 2986W        W66710  37.469  21.554   4.210
 2987W        W66711  35.014  20.211  12.943
 2988W        W66712  17.128  11.676  13.041
 2989W        W66713  33.052   5.298   1.904
 2990W        W66714  18.124  21.711  12.075
 2991W        W66715   7.905  43.929  14.898
 2992W        W66716  25.003  21.753   3.629
 2993W        W66717  24.998  13.666  14.828
 2994W        W66718  35.523  30.066  12.980
 2995W        W66719  32.136  36.431   4.300
 2996W        W66720  43.970  25.609   4.180
 2997W        W66721   3.323  38.926  12.999
 2998W        W66722  10.650   7.773   4.169
 2999W        W66723  10.252  14.623   1.410
 3000W        W66724  14.114  39.437  13.485
 3001W        W66725   4.788  39.495   4.653
 3002W        W66726  16.808  28.147  14.351
 3003W        W66727   5.207  43.328   4.655
 3004W        W66728  27.071  31.026  10.001
 3005W        W66729   7.878  18.657  11.941
 3006W        W66730  40.031  16.639   4.678
 3007W        W66731  19.143  28.641  12.912
 3008W        W66732  28.104   8.313  11.379
 3009W        W66733  33.445  32.529  12.489
 3010W        W66734  30.010  32.496  11.491
 3011W        W66735  10.822   8.868   0.453
 3012W        W66736  16.723   5.733   0.908
 3013W        W66737  26.038   7.683  10.572
 3014W        W66738  44.995  20.176  14.381
 3015W        W66739  42.317   3.333  10.983
 3016W        W66740  15.728   8.688  10.988
 3017W        W66741   0.478  36.435   4.232
 3018W        W66742  14.111  22.670  13.466
 3019W        W66743  20.755  34.906  10.633
 3020W        W66744   4.728  44.435  14.839
 3021W        W66745  27.615  40.491  10.626
 3022W        W66746  40.538  28.546   4.837
 3023W        W66747   9.824   7.195   4.598
 3024W        W66748  19.157  18.656  12.011
 3025W        W66749   9.706  21.146  14.306
 3026W        W66750  37.862   9.648  10.444
 3027W        W66751  21.225   6.392   3.837
 3028W        W66752  25.088  30.039   3.651
 3029W        W66753  16.106  13.721  12.470
 3030W        W66754  26.564  18.586  12.367
 3031W        W66755   5.379  34.969  10.501
 3032W        W66756  11.245   6.402  12.402
 3033W        W66757   9.826  14.736   4.199
 3034W        W66758  30.001  31.633  14.324
 3035W        W66759  37.569  26.955  11.039
 3036W        W66760  43.906  23.205   2.759
 3037W        W66761  40.047  26.001   4.625
 3038W        W66762  28.168  16.269   3.816
 3039W        W66763   7.306   4.236   2.190
 3040W        W66764  38.067  23.583   3.850
 3041W        W66765   4.896  36.485   1.726
 3042W        W66766  39.423  31.444   3.790
 3043W        W66767   4.212   5.344  13.353
 3044W        W66768  39.374  10.285  13.370
 3045W        W66769  28.978   8.391   9.996
 3046W        W66770  32.982   2.832  12.926
 3047W        W66771  44.350  21.182   3.834
 3048W        W66772   6.292  26.502  10.911
 3049W        W66773  37.004  22.653  13.341
 3050W        W66774  41.387  43.810  12.573
 3051W        W66775  41.346  28.677  13.792
 3052W        W66776  35.958   1.887  11.963
 3053W        W66777  31.406  11.205   2.239
 3054W        W66778  31.614  23.240   1.292
 3055W        W66779  39.034  27.164  14.317
 3056W        W66780  38.979  28.971   2.374
 3057W        W66781   0.261  21.224  11.548
 3058W        W66782  23.041  17.610   3.659
 3059W        W66783  13.130  15.223  13.837
 3060W        W66784  41.344  15.104   4.260
 3061W        W66785  35.357  31.067   2.846
 3062W        W66786  40.484  20.152   2.191
 3063W        W66787   7.753  37.883   0.953
 3064W        W66788  11.631  17.798  13.868
 3065W        W66789  22.052   5.721   2.208
 3066W        W66790  18.697   7.281   9.937
 3067W        W66791  41.509   0.405  12.019
 3068W        W66792   8.188   6.771   3.787
 3069W        W66793   7.226  28.937  10.425
 3070W        W66794  27.664  22.697   4.625
 3071W        W66795  23.647  37.984   1.215
 3072W        W66796  43.513  39.483   0.298
 3073W        W66797  34.878  33.411  13.396
 3074W        W66798  10.212  40.054  14.848
 3075W        W66799   5.237   4.943  10.116
 3076W        W66800  18.096  30.654  13.543
 3077W        W66801  37.428  17.295   1.704
 3078W        W66802  17.100   8.792   5.196
 3079W        W66803  33.075  24.006   2.810
 3080W        W66804  11.241   1.948  12.434
 3081W        W66805  16.642  36.396   4.766
 3082W        W66806  18.165  41.456   3.240
 3083W        W66807   9.758  29.542  10.486
 3084W        W66808   3.234   6.252   1.259
 3085W        W66809  42.398  44.480  14.449
 3086W        W66810   4.910  23.050   1.379
 3087W        W66811  30.925  38.986  12.837
 3088W        W66812  28.082  41.363   0.406
 3089W        W66813  17.659  15.133   0.776
 3090W        W66814  39.938  29.609  11.863
 3091W        W66815  35.976  31.900  14.391
 3092W        W66816  44.951  37.868   0.481
 3093W        W66817  32.948  26.053   3.254
 3094W        W66818  32.086  34.499   3.705
 3095W        W66819  22.069   7.200  13.855
 3096W        W66820   1.752  42.358  12.045
 3097W        W66821  36.406   5.202   0.401
 3098W        W66822  33.499  18.769  11.428
 3099W        W66823  34.406  10.250   1.329
 3100W        W66824  10.242  42.847   1.773
 3101W        W66825   5.827  44.796   0.772
 3102W        W66826  40.534  38.064   3.339
 3103W        W66827  44.292  25.586   3.360
 3104W        W66828  21.028  40.381   1.816
 3105W        W66829   8.183  12.812   4.704
 3106W        W66830  11.813   8.821  10.014
 3107W        W66831  14.666  42.411   1.241
 3108W        W66832  12.705  21.100  12.572
 3109W        W66833  20.194  10.784   2.331
 3110W        W66834  33.090   4.278  11.526
 3111W        W66835  14.185  12.761   4.804
 3112W        W66836  38.932  36.036   5.183
 3113W        W66837  33.079  26.047  12.845
 3114W        W66838  10.753  41.924  12.427
 3115W        W66839   2.870  44.467   1.702
 3116W        W66840  25.548  16.142   2.862
 3117W        W66841  19.762   0.298   1.326
 3118W        W66842  31.116  42.344   0.368
 3119W        W66843  11.158  32.949   2.712
 3120W        W66844  28.986  29.053  14.424
 3121W        W66845  12.810  40.863   1.362
 3122W        W66846  15.283  13.351  12.854
 3123W        W66847  15.688  33.874  13.409
 3124W        W66848  26.078   3.909   0.833
 3125W        W66849  28.154   7.704   1.921
 3126W        W66850  22.678  30.084   4.181
 3127W        W66851   2.728  29.643   3.286
 3128W        W66852  44.421   4.213   4.710
 3129W        W66853  44.431   3.849  12.531
 3130W        W66854  17.214  18.610   1.749
 3131W        W66855   2.875  17.739   4.166
 3132W        W66856  18.563  26.593  12.377
 3133W        W66857  42.429  32.399   1.213
 3134W        W66858  27.094  17.222  10.897
 3135W        W66859   8.743  20.105  11.521
 3136W        W66860  29.462  43.987  12.072
 3137W        W66861  26.206   5.281   2.196
 3138W        W66862   1.949  25.211   0.782
 3139W        W66863  31.513  22.125  11.453
 3140W        W66864  30.553  37.503   1.442
 3141W        W66865  11.330  39.390   1.761
 3142W        W66866  15.654  42.482  14.786
 3143W        W66867  23.191   2.278  10.941
 3144W        W66868   3.940  20.193   0.774
 3145W        W66869   8.309  12.636  14.908
 3146W        W66870  25.015  22.559   1.418
 3147W        W66871  32.527  32.903   2.335
 3148W        W66872  41.017  33.099   1.902
 3149W        W66873  44.490  26.104   4.327
 3150W        W66874  15.768  13.131  11.374
 3151W        W66875   7.694  44.911  11.450
 3152W        W66876  19.744  13.648   9.636
 3153W        W66877   7.216  26.621  10.447
 3154W        W66878  33.905  41.994  10.478
 3155W        W66879  24.609  13.723   2.383
 3156W        W66880  32.983   3.401  13.408
 3157W        W66881   4.415  13.195  14.983
 3158W        W66882  15.185  38.983  12.464
 3159W        W66883   1.471   4.783   3.298
 3160W        W66884  43.373  23.003   3.675
 3161W        W66885   9.851  12.281   2.401
 3162W        W66886   6.800  21.563  13.981
 3163W        W66887  28.130  21.708  12.938
 3164W        W66888   5.211  41.877   4.340
 3165W        W66889  18.774  43.904  12.919
 3166W        W66890  30.470   6.750  13.061
 3167W        W66891  23.094  26.515   2.338
 3168W        W66892   5.424   5.389   0.451
 3169W        W66893  24.017  31.557   3.171
 3170W        W66894   6.368   6.363  12.504
 3171W        W66895  17.220   3.758   5.246
 3172W        W66896  35.879  28.973  11.422
 3173W        W66897  34.593  19.223  13.350
 3174W        W66898   9.668   6.808  14.430
 3175W        W66899   8.667  11.180   1.792
 3176W        W66900  24.039   1.790  12.063
 3177W        W66901  26.103  11.720  12.518
 3178W        W66902  41.816  21.174   2.398
 3179W        W66903  22.537  38.468   1.422
 3180W        W66904   9.725  28.988   0.259
 3181W        W66905  19.738  15.227  11.969
 3182W        W66906  22.165  19.550  11.964
 3183W        W66907  14.280  26.006   4.145
 3184W        W66908   1.453  41.929  10.965
 3185W        W66909  18.245  19.613   1.218
 3186W        W66910  24.521  15.821  12.041
 3187W        W66911   4.884  22.089  14.489
 3188W        W66912  38.361  31.059   1.816
 3189W        W66913  10.228  10.804   9.585
 3190W        W66914  32.485  35.874   9.961
 3191W        W66915  11.221  44.852   3.358
 3192W        W66916  27.541  22.726  12.903
 3193W        W66917  14.595  19.161   2.856
 3194W        W66918  39.370  16.077   4.774
 3195W        W66919  22.544   8.668  12.448
 3196W        W66920   0.945  30.547  14.430
 3197W        W66921  11.661  34.394   3.173
 3198W        W66922  37.398  35.941  11.525
 3199W        W66923  14.699  11.367  13.993
 3200W        W66924  43.874  10.243  10.510
 3201W        W66925  17.168  28.481   1.775
 3202W        W66926   0.357  15.647  10.430
 3203W        W66927  19.282  12.220  10.575
 3204W        W66928  35.057  16.166   1.780
 3205W        W66929  11.782  27.965  14.301
 3206W        W66930  41.410  15.780   0.964
 3207W        W66931  18.645   8.255   2.254
 3208W        W66932  21.659   3.901  10.467
 3209W        W66933  39.887  32.067  11.578
 3210W        W66934  36.975   4.731   2.376
 3211W        W66935   2.267  10.178  14.292
 3212W        W66936  44.504  17.203  12.381
 3213W        W66937   2.878  26.688  14.281
 3214W        W66938  14.302   8.395  12.355
 3215W        W66939  22.636  29.497   0.476
 3216W        W66940   8.783  17.131  13.866
 3217W        W66941  25.523  20.623   0.374
 3218W        W66942   4.303  23.989   2.272
 3219W        W66943  32.410   0.744  12.824
 3220W        W66944  41.450  26.999  11.078
 3221W        W66945  33.024   2.871   3.676
 3222W        W66946  19.591  37.950   1.278
 3223W        W66947  12.633  19.674   2.211
 3224W        W66948   4.340  44.338   2.764
 3225W        W66949   5.783  14.192  10.606
 3226W        W66950  19.679  22.668  14.277
 3227W        W66951  10.204   3.237  12.502
 3228W        W66952  22.677   9.807  13.458
 3229W        W66953  10.318  30.109  12.030
 3230W        W66954  30.533   7.380  11.924
 3231W        W66955  40.910  43.882   1.309
 3232W        W66956  30.954   9.307  12.989
 3233W        W66957  33.889  12.652  11.039
 3234W        W66958  41.398   6.384   3.161
 3235W        W66959  15.796  27.076   0.863
 3236W        W66960  36.509  20.255   0.815
 3237W        W66961  30.923  32.486  12.076
 3238W        W66962  32.893  35.944  11.436
 3239W        W66963  28.144  34.462  13.312
 3240W        W66964  25.007  33.087  12.042
 3241W        W66965  23.703  35.529   2.231
 3242W        W66966  10.645  41.829  14.281
 3243W        W66967  27.446  20.272   0.835
 3244W        W66968  44.006  36.011  11.987
 3245W        W66969  34.048   6.254  13.540
 3246W        W66970  10.142  24.631  14.768
 3247W        W66971  20.696  39.816   4.237
 3248W        W66972  44.996   3.836  10.482
 3249W        W66973  29.120  20.756  13.845
 3250W        W66974   7.300   6.891   0.371
 3251W        W66975  18.642  26.115   3.147
 3252W        W66976  33.460  28.533   2.849
 3253W        W66977  34.003  38.555  12.410
 3254W        W66978  27.194  18.768   0.883
 3255W        W66979   3.945  40.840   4.227
 3256W        W66980   3.249  43.822   4.682
 3257W        W66981  38.413  34.913   4.599
 3258W        W66982  13.612  10.784   2.255
 3259W        W66983  29.981  25.677  10.484
 3260W        W66984  20.244  36.954  13.420
 3261W        W66985  26.973   5.217   3.327
 3262W        W66986   3.864  22.246  14.326
 3263W        W66987  32.464  19.597   4.690
 3264W        W66988  19.144  38.943   0.415
 3265W        W66989  36.905   2.468  14.379
 3266W        W66990  16.730   8.266   1.261
 3267W        W66991  26.172  32.465   2.761
 3268W        W66992  40.340  14.614  12.577
 3269W        W66993  24.195  16.207  13.977
 3270W        W66994  14.746   0.451   3.765
 3271W        W66995  38.556  16.575   2.262
 3272W        W66996  35.888   3.399   4.320
 3273W        W66997  36.451  44.967   0.749
 3274W        W66998  43.969   0.410  11.012
 3275W        W66999  28.002  33.621  11.489
 3276W        W67000  18.217  30.136   4.806
 3277W        W67001  13.702  34.938  12.569
 3278W        W67002  14.200  21.670   0.367
 3279W        W67003  36.422  20.117  10.462
 3280W        W67004   8.191   2.745  11.378
 3281W        W67005  32.606   1.463  11.393
 3282W        W67006   5.914  30.095  12.852
 3283W        W67007   7.206   2.422  14.958
 3284W        W67008   5.423   2.462   0.898
 3285W        W67009  23.712  22.685  11.058
 3286W        W67010  38.345  23.698   0.423
 3287W        W67011  10.222   6.416   1.394
 3288W        W67012   2.907  41.803  14.934
 3289W        W67013  37.063  21.696  11.400
 3290W        W67014   3.403   1.886   2.245
 3291W        W67015  36.033   7.353   3.849
 3292W        W67016   8.316  31.068   0.311
 3293W        W67017   6.219   9.224   4.728
 3294W        W67018  25.135  29.950  11.855
 3295W        W67019   8.274  31.068  13.842
 3296W        W67020  17.584   5.755  14.909
 3297W        W67021  37.536   2.953  11.548
 3298W        W67022   5.844  39.820   1.443
 3299W        W67023  41.943  42.894   3.267
 3300W        W67024   2.875   3.842  13.932
 3301W        W67025  35.075  23.075  12.085
 3302W        W67026  35.394   5.758   4.673
 3303W        W67027  13.139   7.680  14.896
 3304W        W67028  41.988  12.156  12.341
 3305W        W67029  19.760  42.351  12.917
 3306W        W67030  42.481  23.132  13.373
 3307W        W67031  11.288  41.974  11.877
 3308W        W67032  20.526  36.570  14.508
 3309W        W67033  18.552   2.790  14.832
 3310W        W67034  44.833   1.389   1.913
 3311W        W67035   4.757   4.874   3.195
 3312W        W67036  43.825   8.664   0.760
 3313W        W67037  35.493  13.332  13.928
 3314W        W67038  21.112  28.170  14.840
 3315W        W67039   7.393  41.014  10.929
 3316W        W67040  21.712  41.328   2.313
 3317W        W67041  13.170  13.317  12.411
 3318W        W67042  11.674  26.536   0.390
 3319W        W67043  36.909  26.628  11.923
 3320W        W67044  29.985  15.276  11.559
 3321W        W67045  41.036   2.368  13.799
 3322W        W67046  19.666   7.731  12.579
 3323W        W67047  35.401   8.405  10.613
 3324W        W67048  17.791  24.208  13.977
 3325W        W67049   0.450  33.964   2.809
 3326W        W67050  22.608  21.676  12.028
 3327W        W67051  33.889  31.124  12.057
 3328W        W67052  33.609  10.144   1.815
 3329W        W67053  19.152  36.401  10.496
 3330W        W67054  10.143  13.230   2.301
 3331W        W67055  34.374  26.959  10.890
 3332W        W67056  35.565   3.366   5.126
 3333W        W67057  36.504  30.589  12.358
 3334W        W67058  19.270  32.927  12.464
 3335W        W67059  38.926  14.696   4.674
 3336W        W67060  29.650   4.388  13.834
 3337W        W67061  15.142  33.454   3.311
 3338W        W67062   3.441  32.499  10.960
 3339W        W67063  42.960   3.353  12.351
 3340W        W67064  32.449  10.138   4.768
 3341W        W67065   3.310  41.331   4.246
 3342W        W67066  44.267  31.901  10.161
 3343W        W67067  26.513  26.518  10.596
 3344W        W67068  20.226   4.252  14.864
 3345W        W67069  33.110   5.352  11.570
 3346W        W67070  31.604  17.799   0.875
 3347W        W67071  13.605  37.986  11.054
 3348W        W67072  21.656  25.538  11.473
 3349W        W67073  22.547  42.839   3.674
 3350W        W67074   3.395   7.809  12.458
 3351W        W67075  28.628   3.814   3.713
 3352W        W67076   2.740  10.333  12.996
 3353W        W67077   2.271  41.803   2.381
 3354W        W67078  40.906  41.005  12.493
 3355W        W67079  15.201  16.085   2.367
 3356W        W67080  10.816  10.732   0.820
 3357W        W67081  43.297  10.697  12.380
 3358W        W67082  21.607  30.616  12.047
 3359W        W67083  14.194  15.259  14.903
 3360W        W67084  29.090  34.927  13.989
 3361W        W67085  24.683  27.524   3.719
 3362W        W67086  19.597  24.222   1.428
 3363W        W67087  25.518  38.550   4.300
 3364W        W67088  37.559  32.931   0.462
 3365W        W67089  26.610   5.392   2.399
 3366W        W67090   2.862  38.421   0.351
 3367W        W67091  41.946  18.113  10.445
 3368W        W67092  13.664   4.373  11.596
 3369W        W67093  32.086  19.229   4.353
 3370W        W67094  37.925  20.715   4.743
 3371W        W67095  19.056   4.705   1.217
 3372W        W67096  12.214   5.203  10.888
 3373W        W67097  19.773   2.766  12.531
 3374W        W67098  18.106  26.198   0.851
 3375W        W67099   5.341  22.247  13.493
 3376W        W67100  23.592  44.881   1.440
 3377W        W67101  27.578  12.779  14.790
 3378W        W67102   7.248   1.341  10.516
 3379W        W67103   6.717  15.230  13.985
 3380W        W67104   9.157   8.711   3.789
 3381W        W67105  29.023  13.226   4.119
 3382W        W67106  18.108   7.901  13.884
 3383W        W67107  27.151  29.663   1.764
 3384W        W67108   7.329   4.713  13.497
 3385W        W67109  43.405  31.594   2.215
 3386W        W67110  34.479  38.825  11.424
 3387W        W67111  17.280  34.994  14.950
 3388W        W67112  38.436  25.491  14.904
 3389W        W67113   1.461  34.106   0.916
 3390W        W67114   1.947  23.720  13.839
 3391W        W67115  32.929  32.436  13.440
 3392W        W67116  24.711  39.544  10.944
 3393W        W67117  21.726  24.093  14.341
 3394W        W67118   5.825  24.523   0.426
 3395W        W67119  14.240   3.295   2.893
 3396W        W67120  10.322  11.247   0.430
 3397W        W67121  29.668   8.701   4.177
 3398W        W67122  38.070  20.650  11.969
 3399W        W67123  34.476  36.486   3.328
 3400W        W67124  30.625  20.034  11.966
 3401W        W67125  16.786  26.602   2.215
 3402W        W67126  29.609  16.622   1.853
 3403W        W67127  39.501  37.452  10.464
 3404W        W67128  11.835   5.343  12.448
 3405W        W67129  13.295  31.562   3.716
 3406W        W67130  13.773  43.430   2.857
 3407W        W67131   2.425  14.663   0.408
 3408W        W67132  21.665  32.111   0.892
 3409W        W67133  18.621  14.268   0.261
 3410W        W67134  33.432  38.934   1.449
 3411W        W67135  23.240  32.948   3.224
 3412W        W67136  32.417  19.615   2.378
 3413W        W67137  20.174  11.185   1.443
 3414W        W67138   1.958  24.033   3.273
 3415W        W67139  12.267   2.912  14.856
 3416W        W67140   8.231   7.274   1.781
 3417W        W67141  23.118   5.263   0.897
 3418W        W67142  18.652   7.898   2.201
 3419W        W67143   2.889  28.018  14.867
 3420W        W67144  39.380  38.024  13.402
 3421W        W67145   4.389  23.588  14.801
 3422W        W67146  32.914  42.930  14.923
 3423W        W67147  44.484  39.416  10.412
 3424W        W67148   2.317  15.780  14.784
 3425W        W67149  17.791   1.335   3.181
 3426W        W67150  42.014  34.389   0.768
 3427W        W67151  28.934   3.243  13.540
 3428W        W67152  28.967  18.652   1.272
 3429W        W67153   2.271  24.603   4.198
 3430W        W67154   2.338  21.563   0.365
 3431W        W67155   8.167  22.198   1.434
 3432W        W67156  18.290  11.773   4.748
 3433W        W67157  10.768  17.226   0.276
 3434W        W67158  17.672   5.916  13.537
 3435W        W67159  24.566   2.761  12.396
 3436W        W67160  15.784  35.903  10.481
 3437W        W67161  34.924  12.177   0.889
 3438W        W67162  19.252  27.108   2.900
 3439W        W67163   8.798   5.296   2.799
 3440W        W67164  24.711  24.104  12.898
 3441W        W67165  34.872  14.684  14.025
 3442W        W67166  36.413   9.787   2.195
 3443W        W67167  32.632  31.021  13.386
 3444W        W67168  10.193  21.078  14.411
 3445W        W67169   4.764   7.732   3.853
 3446W        W67170  14.104   3.269  13.366
 3447W        W67171  35.440   8.249   4.179
 3448W        W67172  17.258  19.703  12.531
 3449W        W67173   0.360  35.872  14.494
 3450W        W67174  33.609   3.217  10.954
 3451W        W67175  10.829  27.454   4.192
 3452W        W67176  25.575  44.811  11.051
 3453W        W67177   4.279  32.396   0.473
 3454W        W67178   6.385  15.667   1.276
 3455W        W67179  37.919   9.392  12.561
 3456W        W67180  12.734  32.026   1.932
 3457W        W67181   2.417  37.537   0.384
 3458W        W67182  30.623   5.420  12.083
 3459W        W67183  15.582  35.585  14.480
 3460W        W67184  14.207  44.274  10.444
 3461W        W67185  11.772   9.855  12.577
 3462W        W67186   7.689  14.296   0.275
 3463W        W67187  21.617  25.669  10.637
 3464W        W67188  16.583  34.926  13.495
 3465W        W67189  21.240  28.585  14.322
 3466W        W67190  33.544   9.232  11.372
 3467W        W67191  10.738  42.994  11.469
 3468W        W67192   1.956  26.984   1.375
 3469W        W67193  17.167  19.208  11.439
 3470W        W67194  25.000  13.807   4.305
 3471W        W67195  15.612  41.879   1.725
 3472W        W67196  38.384  36.446  12.886
 3473W        W67197  37.970   4.441   3.761
 3474W        W67198  29.995  44.877   2.194
 3475W        W67199   8.288  35.864  11.026
 3476W        W67200  30.421  31.103   4.774
 3477W        W67201  40.378  34.914   0.735
 3478W        W67202  16.185  37.065  14.420
 3479W        W67203   5.755  43.901  11.045
 3480W        W67204  24.533  24.068  10.943
 3481W        W67205   8.755  37.513   2.830
 3482W        W67206   4.417   9.189  11.006
 3483W        W67207  24.616  34.093  12.922
 3484W        W67208  34.108  35.445   2.221
 3485W        W67209  23.021  35.936   0.823
 3486W        W67210  31.571  34.074  11.958
 3487W        W67211  17.270   8.891  14.991
 3488W        W67212  18.635  25.705  10.965
 3489W        W67213  30.564  44.281  13.827
 3490W        W67214   0.402   6.881   3.303
 3491W        W67215  41.447  22.226  10.500
 3492W        W67216  34.584  22.211  14.354
 3493W        W67217  40.876   0.462  13.852
 3494W        W67218  15.168  12.845  12.500
 3495W        W67219  16.638   3.233   1.278
 3496W        W67220   0.266   7.672  13.904
 3497W        W67221   5.375  40.524   3.311
 3498W        W67222  36.575  12.742   3.266
 3499W        W67223  10.207  36.455  14.031
 3500W        W67224  35.538   3.754  13.499
 3501W        W67225  35.468  40.036   3.185
 3502W        W67226  23.075  28.037   1.801
 3503W        W67227  22.504  31.988   0.264
 3504W        W67228  18.661  28.484  14.402
 3505W        W67229   2.346  44.326  11.916
 3506W        W67230  44.403   8.821   5.319
 3507W        W67231  29.962  43.019   1.308
 3508W        W67232   4.442   9.819  14.788
 3509W        W67233  32.137   8.338  11.464
 3510W        W67234  14.613  20.666  11.857
 3511W        W67235  22.124  28.638   9.635
 3512W        W67236  32.620  17.568  14.835
 3513W        W67237   8.754   4.302  13.871
 3514W        W67238  30.971  23.172  13.447
 3515W        W67239  32.451  41.465   2.765
 3516W        W67240  17.688  36.924   3.367
 3517W        W67241   5.704  34.491  10.576
 3518W        W67242  33.563  14.117   0.833
 3519W        W67243  29.077   7.248  10.497
 3520W        W67244  34.487  29.424   3.269
 3521W        W67245  41.501  33.051   2.258
 3522W        W67246  14.243  38.076   4.306
 3523W        W67247  12.309  21.533  13.005
 3524W        W67248   1.869  29.470   3.681
 3525W        W67249  40.989  17.673  13.415
 3526W        W67250   1.465  18.142  11.532
 3527W        W67251  20.267  42.461  14.891
 3528W        W67252  43.019   6.428   2.218
 3529W        W67253  12.814  35.530   0.880
 3530W        W67254   8.184  34.911   2.716
 3531W        W67255  27.483  43.893   2.732
 3532W        W67256  44.850  44.824  10.439
 3533W        W67257  34.513  24.225   2.375
 3534W        W67258  43.323  11.373   4.204
 3535W        W67259  33.416   6.783  10.941
 3536W        W67260   8.219  26.586   1.381
 3537W        W67261   2.444  30.635  10.970
 3538W        W67262  20.079   8.804  10.954
 3539W        W67263  35.958  20.068  14.872
 3540W        W67264  32.488  41.876  13.312
 3541W        W67265  44.493  44.980   4.653
 3542W        W67266  21.724  17.788  11.558
 3543W        W67267  18.648  35.899   2.193
 3544W        W67268  12.733   2.875  10.924
 3545W        W67269  16.773   9.345  13.529
 3546W        W67270  18.758  32.903  12.066
 3547W        W67271   5.801  22.547  11.475
 3548W        W67272  21.718  19.157  15.000
 3549W        W67273  17.270   9.831   3.655
 3550W        W67274  21.084  26.005   2.404
 3551W        W67275   7.391  12.342  13.312
 3552W        W67276  42.010   9.720   4.838
 3553W        W67277  15.752  18.771   3.186
 3554W        W67278   4.255   7.211  13.339
 3555W        W67279  18.229  40.050  10.451
 3556W        W67280   5.429  27.118  13.003
 3557W        W67281  33.430  33.509  14.503
 3558W        W67282  36.001  16.640   5.239
 3559W        W67283  32.974  39.347  14.503
 3560W        W67284   3.434  35.508   3.167
 3561W        W67285  40.431  22.146   4.126
 3562W        W67286  19.713  15.725   3.169
 3563W        W67287  23.064  24.100   0.825
 3564W        W67288  36.519  15.797  12.344
 3565W        W67289  12.663  22.159   4.294
 3566W        W67290  16.124  23.007   0.336
 3567W        W67291   1.879  36.908   0.877
 3568W        W67292   3.311  43.358   4.822
 3569W        W67293   7.709  40.974  11.540
 3570W        W67294  31.991  40.849   0.745
 3571W        W67295  32.086  26.139  12.825
 3572W        W67296   1.885  33.524  14.959
 3573W        W67297   3.397  23.651  14.964
 3574W        W67298   3.393  22.555   3.756
 3575W        W67299  23.715  32.068   1.425
 3576W        W67300  12.207  26.111   3.335
 3577W        W67301  30.441   5.330  11.475
 3578W        W67302   7.763  14.708   3.256
 3579W        W67303  15.318  18.289   1.413
 3580W        W67304  22.101  42.894   2.244
 3581W        W67305  44.311  15.735  13.876
 3582W        W67306  20.081  36.423  12.887
 3583W        W67307  29.079  23.626  10.575
 3584W        W67308   0.792   1.458  12.031
 3585W        W67309  21.589  10.281   3.323
 3586W        W67310  15.245   7.384  11.111
 3587W        W67311  10.685  26.626   1.918
 3588W        W67312  33.894  19.693  12.877
 3589W        W67313   4.770  11.247   2.680
 3590W        W67314  18.579  17.162  14.505
 3591W        W67315  13.788   9.321   1.835
 3592W        W67316  19.119  29.011  13.422
 3593W        W67317  42.518  18.552   3.732
 3594W        W67318  41.340  12.134   4.240
 3595W        W67319   6.403  42.317  12.528
 3596W        W67320   1.448  22.549   1.808
 3597W        W67321   1.439   4.895   1.932
 3598W        W67322  12.332  12.340  14.508
 3599W        W67323  31.144  41.510  11.988
 3600W        W67324  28.529  23.690  14.359
 3601W        W67325  29.092  15.196  13.400
 3602W        W67326  41.850  44.322  12.446
 3603W        W67327  26.110  37.437   0.890
 3604W        W67328  20.675  32.972   2.388
 3605W        W67329  44.998  15.295  13.337
 3606W        W67330  25.511  36.870  10.463
 3607W        W67331  42.498   9.739   0.440
 3608W        W67332  23.661  15.580   4.270
 3609W        W67333   7.690  13.632  12.515
 3610W        W67334  40.518  26.686  10.025
 3611W        W67335   8.328  21.755   4.710
 3612W        W67336  38.404   4.314  13.048
 3613W        W67337  19.077   9.259  10.602
 3614W        W67338  19.630  43.953   3.640
 3615W        W67339   9.725   0.820  12.991
 3616W        W67340  41.343   2.353  12.377
 3617W        W67341  28.501  18.768   3.277
 3618W        W67342  20.038  31.542   2.884
 3619W        W67343  13.198  26.625  14.320
 3620W        W67344  23.619  21.224  14.347
 3621W        W67345  39.829   4.217  13.534
 3622W        W67346  24.165  14.752   2.192
 3623W        W67347  31.088  30.450  13.941
 3624W        W67348   8.884   5.858   4.261
 3625W        W67349   4.337  28.649   2.251
 3626W        W67350  19.133   6.254   4.772
 3627W        W67351   3.918   5.317   4.314
 3628W        W67352   3.253  30.072   1.376
 3629W        W67353   5.688  33.455  14.936
 3630W        W67354  13.743  31.405  14.418
 3631W        W67355  15.634   7.692  11.466
 3632W        W67356   1.292   6.800  12.461
 3633W        W67357  18.145  15.164  13.482
 3634W        W67358   8.727  10.825   3.353
 3635W        W67359  31.148  23.239   3.707
 3636W        W67360  33.522  37.521   5.257
 3637W        W67361  36.381  24.037  11.517
 3638W        W67362  14.705  19.111  10.481
 3639W        W67363  37.515  23.008  13.803
 3640W        W67364   9.259  38.855  11.977
 3641W        W67365  29.136   8.355  14.433
 3642W        W67366   4.882  20.615   0.847
 3643W        W67367  38.075   6.262  14.826
 3644W        W67368  15.091  15.640  11.999
 3645W        W67369  29.529  32.908   3.776
 3646W        W67370  38.864   9.821   1.437
 3647W        W67371  35.439  36.513  14.819
 3648W        W67372   6.324  22.221   2.773
 3649W        W67373  15.671  21.023  11.500
 3650W        W67374  23.545  32.635   0.382
 3651W        W67375  15.694  22.216   3.322
 3652W        W67376  43.893  37.939  12.510
 3653W        W67377  40.516  15.122   2.866
 3654W        W67378  25.642  31.602   0.288
 3655W        W67379  37.961  43.910  10.990
 3656W        W67380   3.892  33.032   0.837
 3657W        W67381   7.219   7.408  11.563
 3658W        W67382  10.154   2.467   1.911
 3659W        W67383  15.686  41.428   0.285
 3660W        W67384  29.650  12.746  13.884
 3661W        W67385   1.784  44.482  10.942
 3662W        W67386   0.397  34.379   4.120
 3663W        W67387  33.603   4.894  14.337
 3664W        W67388  39.919  31.606  11.374
 3665W        W67389   2.945  20.251  14.353
 3666W        W67390  25.591  16.098  10.631
 3667W        W67391  35.038  21.114  14.347
 3668W        W67392  19.078  27.067   2.387
 3669W        W67393  43.772  26.056   1.430
 3670W        W67394  30.493   7.366   0.256
 3671W        W67395  21.515  32.955   2.396
 3672W        W67396  36.981  32.571   2.310
 3673W        W67397  36.096  38.854  11.605
 3674W        W67398  43.355  33.107   2.760
 3675W        W67399   5.229  30.481   3.211
 3676W        W67400  24.573  36.972  13.337
 3677W        W67401  42.845  41.411   9.989
 3678W        W67402  21.625  14.248  14.815
 3679W        W67403  37.067  29.968  13.876
 3680W        W67404  20.706   5.214   0.889
 3681W        W67405  20.745  10.166   1.402
 3682W        W67406  17.126  21.688  13.944
 3683W        W67407  41.912  13.136   4.819
 3684W        W67408  26.048  25.179   0.362
 3685W        W67409  44.373  28.113   3.791
 3686W        W67410  20.141  32.071   0.366
 3687W        W67411  40.878  23.184   0.430
 3688W        W67412  29.507   7.827   1.703
 3689W        W67413  36.571  28.936  12.436
 3690W        W67414  28.672   7.673   0.816
 3691W        W67415  15.649  14.792   5.103
 3692W        W67416  26.532   4.419   2.880
 3693W        W67417  28.003  16.105   0.805
 3694W        W67418   7.862  43.471  12.860
 3695W        W67419  13.792  23.121  10.965
 3696W        W67420  38.951  43.786  10.590
 3697W        W67421  11.283  20.764   1.934
 3698W        W67422   1.822  39.490   0.351
 3699W        W67423  13.807  40.882  13.848
 3700W        W67424  43.789  43.461   0.933
 3701W        W67425  29.640  21.574   0.389
 3702W        W67426  37.462   1.920  10.625
 3703W        W67427  18.282   6.239  10.435
 3704W        W67428  35.508  20.195  14.927
 3705W        W67429  26.991  29.606   2.201
 3706W        W67430  18.279  32.503   1.809
 3707W        W67431  31.404  44.849  11.879
 3708W        W67432   9.371  28.533  13.812
 3709W        W67433   5.791   8.246  12.084
 3710W        W67434   0.330   6.215  11.432
 3711W        W67435  37.388  35.542   0.805
 3712W        W67436  34.446  12.817   2.709
 3713W        W67437  31.573  15.705  11.099
 3714W        W67438   0.415   7.836  11.924
 3715W        W67439   6.873  41.905   4.667
 3716W        W67440   1.451   8.386  13.022
 3717W        W67441   9.675  42.825   3.293
 3718W        W67442  18.147  32.488   4.608
 3719W        W67443   9.227  34.422   2.701
 3720W        W67444  31.474  12.166  12.431
 3721W        W67445  33.990  16.287   0.902
 3722W        W67446  33.969  34.940   2.763
 3723W        W67447  30.569  30.429   0.843
 3724W        W67448   1.753  41.041   1.336
 3725W        W67449  43.303  40.380   4.189
 3726W        W67450   2.270  19.087  13.989
 3727W        W67451  22.725   6.342  14.789
 3728W        W67452  38.503   9.160  11.434
 3729W        W67453  16.631  33.483  12.984
 3730W        W67454  41.941  14.649   0.927
 3731W        W67455   9.321   8.795   1.288
 3732W        W67456  12.262  19.236  13.350
 3733W        W67457  20.633  14.309  12.348
 3734W        W67458   6.270  29.561   2.850
 3735W        W67459   5.750  44.422  12.465
 3736W        W67460  34.007  23.146   2.744
 3737W        W67461  40.917  17.241  12.976
 3738W        W67462  18.773   0.304  12.363
 3739W        W67463  44.893   8.663  14.382
 3740W        W67464  23.124  30.442  12.554
 3741W        W67465  33.541  13.210  12.866
 3742W        W67466  36.923   3.836   4.296
 3743W        W67467  37.512  15.595  11.411
 3744W        W67468  25.671  16.746   1.289
 3745W        W67469   9.308  40.844  13.439
 3746W        W67470  39.394  39.505   1.211
 3747W        W67471  41.491   5.208   1.790
 3748W        W67472  18.566  10.383  12.445
 3749W        W67473  23.093   3.737  13.519
 3750W        W67474  34.038  38.920  13.010
 3751W        W67475  24.480  11.740   4.267
 3752W        W67476  26.027  17.266  10.951
 3753W        W67477   5.858   5.425   2.813
 3754W        W67478  17.197   9.256  14.985
 3755W        W67479  38.979   4.879   4.652
 3756W        W67480  25.965   4.276  13.401
 3757W        W67481  35.432  12.622   4.775
 3758W        W67482  27.178  34.087  10.994
 3759W        W67483  26.614  29.076   1.733
 3760W        W67484  15.298  14.648  12.059
 3761W        W67485  23.697   7.237   2.888
 3762W        W67486  23.109  43.399  11.012
 3763W        W67487  20.121  44.476  13.965
 3764W        W67488   4.714  19.144   2.785
 3765W        W67489  34.022  22.733  12.957
 3766W        W67490  33.878  36.980   0.430
 3767W        W67491  30.919  25.081  11.535
 3768W        W67492  31.472   6.199   2.766
 3769W        W67493   8.365  24.602   1.831
 3770W        W67494   6.196   6.845   0.907
 3771W        W67495  33.532  42.403  11.551
 3772W        W67496  34.936  42.344  13.047
 3773W        W67497   3.238  38.042  13.872
 3774W        W67498  10.162  33.879   4.272
 3775W        W67499  36.547  23.126   3.866
 3776W        W67500  14.696  27.111   3.757
 3777W        W67501  43.001  20.566   2.854
 3778W        W67502  28.441  14.678  11.057
 3779W        W67503   9.322  28.130  12.923
 3780W        W67504  26.644   7.747   9.442
 3781W        W67505  29.953   4.893   2.261
 3782W        W67506  15.598  25.489   3.739
 3783W        W67507  31.446  30.532  10.407
 3784W        W67508  36.957  35.088  10.563
 3785W        W67509  17.795   8.848  10.514
 3786W        W67510  41.436   4.910  12.044
 3787W        W67511  13.264  22.634   2.283
 3788W        W67512  14.226  22.116   1.252
 3789W        W67513  38.971   5.826   4.714
 3790W        W67514  18.233  19.628  10.404
 3791W        W67515  10.826  30.455   2.810
 3792W        W67516  25.187   4.365   1.360
 3793W        W67517  23.607   9.857  12.969
 3794W        W67518  31.060   6.764   1.404
 3795W        W67519   7.357  37.424   1.426
 3796W        W67520  40.903  28.458   3.657
 3797W        W67521  20.754   3.772  10.993
 3798W        W67522  22.659  31.483  12.056
 3799W        W67523  43.777   8.772   1.825
 3800W        W67524  22.236  21.617  10.642
 3801W        W67525  22.737  42.904  14.895
 3802W        W67526  39.511  15.258  13.434
 3803W        W67527  41.032  28.081   2.363
 3804W        W67528  10.325   7.224  14.361
 3805W        W67529  33.039  14.323  12.910
 3806W        W67530   5.749  38.828   0.465
 3807W        W67531   6.259  17.660  13.307
 3808W        W67532   6.387   1.731  13.886
 3809W        W67533  29.623  21.722   3.257
 3810W        W67534   8.790  36.071   3.244
 3811W        W67535  24.026  22.065  10.524
 3812W        W67536  38.961   6.299   4.722
 3813W        W67537   7.883   8.730  11.512
 3814W        W67538  30.504   6.771   0.833
 3815W        W67539  27.023  26.614   1.426
 3816W        W67540   6.827  20.049  13.044
 3817W        W67541   7.357   5.197   1.299
 3818W        W67542  29.039  28.998  11.451
 3819W        W67543   9.234  21.669   1.426
 3820W        W67544  30.597  29.983  11.406
 3821W        W67545  32.980  34.108  13.544
 3822W        W67546  28.174  41.877  13.861
 3823W        W67547  34.104  33.480  12.571
 3824W        W67548   8.244  19.170   3.197
 3825W        W67549  38.062  34.471   4.622
 3826W        W67550  31.124  14.785   2.205
 3827W        W67551  30.065  36.870  12.383
 3828W        W67552  10.255   6.345   4.130
 3829W        W67553  13.162  44.805   3.196
 3830W        W67554  27.520  33.958   1.400
 3831W        W67555  14.141  28.645  14.779
 3832W        W67556  44.897  11.362   4.726
 3833W        W67557   3.848  22.135   0.429
 3834W        W67558  19.118  22.109   2.779
 3835W        W67559  20.588  41.954   0.940
 3836W        W67560  15.293  12.185   2.376
 3837W        W67561  25.578  43.906   3.177
 3838W        W67562  22.516  25.211  14.796
 3839W        W67563  13.122   7.202  10.455
 3840W        W67564  18.192   8.287   1.281
 3841W        W67565  32.905  13.668  11.387
 3842W        W67566   3.856  23.684  12.891
 3843W        W67567   2.446  18.560  11.028
 3844W        W67568  31.132  22.711  11.955
 3845W        W67569  13.130  25.119   2.273
 3846W        W67570  28.184   4.885   0.906
 3847W        W67571  40.026  31.964   4.217
 3848W        W67572  16.712  22.545  13.885
 3849W        W67573   9.835  13.272  14.797
 3850W        W67574  21.129  27.172   4.768
 3851W        W67575   6.685   9.672   9.981
 3852W        W67576  29.938  42.286  11.539
 3853W        W67577  19.702   3.221   2.795
 3854W        W67578  42.378   8.343  11.401
 3855W        W67579  44.420  24.032   3.231
 3856W        W67580  34.408   8.190   1.448
 3857W        W67581  43.460  21.557  13.366
 3858W        W67582  11.627  12.200   4.795
 3859W        W67583   6.841  28.483  14.462
 3860W        W67584   6.320  23.615  14.477
 3861W        W67585  31.143   1.832   0.320
 3862W        W67586   3.847  43.342   2.890
 3863W        W67587  17.136  25.563  12.413
 3864W        W67588   3.775  41.330   0.948
 3865W        W67589  43.406  26.182  12.472
 3866W        W67590  39.472  14.120  14.908
 3867W        W67591  24.160  38.419   1.799
 3868W        W67592  27.958  26.106   9.999
 3869W        W67593  15.147  28.006  11.971
 3870W        W67594  16.755  26.534   1.778
 3871W        W67595  26.066  42.026   0.405
 3872W        W67596  30.630  30.145  10.903
 3873W        W67597  43.428  39.017   4.210
 3874W        W67598  14.281  30.572  14.913
 3875W        W67599  11.150  12.145   3.721
 3876W        W67600  41.044  13.338   1.329
 3877W        W67601  37.456  19.195   4.308
 3878W        W67602  39.327  28.630   3.646
 3879W        W67603  22.533  15.795   3.310
 3880W        W67604  20.043   2.362   2.349
 3881W        W67605   1.788  20.167   2.249
 3882W        W67606  32.539  16.299   3.677
 3883W        W67607  41.378  37.926  11.583
 3884W        W67608  30.919  40.852   3.178
 3885W        W67609  14.747  14.711  13.524
 3886W        W67610  40.501  40.988   2.675
 3887W        W67611   8.212  26.127  14.765
 3888W        W67612  43.284  29.434  12.863
 3889W        W67613  38.871  42.913  12.989
 3890W        W67614  34.404  29.454   2.824
 3891W        W67615  26.475  23.103   5.196
 3892W        W67616   6.766  28.070  11.902
 3893W        W67617  10.276  15.234  14.486
 3894W        W67618  35.888   2.751  14.414
 3895W        W67619  32.624  44.401  14.028
 3896W        W67620   5.274  40.831  14.889
 3897W        W67621  42.918  35.996   1.850
 3898W        W67622  40.312   4.945   1.761
 3899W        W67623  42.291  19.233  11.486
 3900W        W67624  18.132  42.866   3.381
 3901W        W67625  30.093  28.051  12.020
 3902W        W67626  22.238   7.812   2.787
 3903W        W67627  14.814  37.840   0.878
 3904W        W67628  35.360  14.177   1.405
 3905W        W67629  15.595  11.813   3.734
 3906W        W67630  42.013  10.664   1.257
 3907W        W67631  16.631  12.629  12.032
 3908W        W67632  40.941  29.942  14.765
 3909W        W67633   4.882  21.075  11.436
 3910W        W67634  24.720  24.996   4.662
 3911W        W67635  33.065  22.244   0.941
 3912W        W67636   4.408  33.042  11.475
 3913W        W67637  16.087  40.850   3.749
 3914W        W67638  30.523  25.204   3.157
 3915W        W67639  20.698  38.003   4.765
 3916W        W67640   0.794  40.488   2.889
 3917W        W67641  12.722  41.904   0.328
 3918W        W67642   7.907  42.875  11.542
 3919W        W67643   8.195   6.905   0.263
 3920W        W67644  26.646  28.587   3.355
 3921W        W67645  17.191  25.037  14.400
 3922W        W67646   7.307  13.332  12.429
 3923W        W67647  30.995  17.123  13.469
 3924W        W67648  16.129  43.764   1.253
 3925W        W67649  34.015  35.103   2.280
 3926W        W67650  31.523  35.556  12.944
 3927W        W67651  38.379   8.249  11.943
 3928W        W67652  15.712  37.975  11.573
 3929W        W67653  43.911  21.712   1.740
 3930W        W67654  34.432   3.362  13.407
 3931W        W67655  44.892  12.707   2.853
 3932W        W67656  10.784  21.218   0.313
 3933W        W67657  11.629  28.678  12.496
 3934W        W67658  38.011  22.730  11.599
 3935W        W67659  18.663  32.130  10.645
 3936W        W67660  33.593  39.934   0.248
 3937W        W67661  32.066   3.868  11.066
 3938W        W67662  38.543  18.099   2.391
 3939W        W67663  27.611  15.785  12.019
 3940W        W67664   8.889  37.408  12.072
 3941W        W67665  34.410  23.603   3.221
 3942W        W67666  22.725  11.818   1.850
 3943W        W67667  41.991  12.773  13.809
 3944W        W67668  41.016  17.772  11.396
 3945W        W67669  36.922  15.328  14.772
 3946W        W67670  21.639  12.822  11.415
 3947W        W67671  21.564  11.341   0.913
 3948W        W67672  19.260  13.602  11.877
 3949W        W67673  10.212   7.359  12.547
 3950W        W67674  19.664  31.042   1.841
 3951W        W67675  27.561  13.622  10.537
 3952W        W67676  38.975  28.586   3.217
 3953W        W67677  40.801  26.473  14.819
 3954W        W67678   4.397  16.178  12.040
 3955W        W67679  19.769   6.380  11.430
 3956W        W67680   0.800  24.124   0.839
 3957W        W67681  31.619  17.587  14.427
 3958W        W67682  32.533   1.803  11.579
 3959W        W67683  35.974  31.500   2.723
 3960W        W67684  24.109   4.780  14.975
 3961W        W67685   4.342  21.747   3.784
 3962W        W67686   9.872  26.703   1.761
 3963W        W67687  30.640   0.783   1.277
 3964W        W67688   1.451   6.342   4.239
 3965W        W67689  18.571  44.501   5.201
 3966W        W67690  24.531  40.959  10.507
 3967W        W67691  28.955   4.333  10.454
 3968W        W67692  22.103  37.073   0.935
 3969W        W67693  32.922  13.328  12.002
 3970W        W67694  11.186  15.236  11.946
 3971W        W67695  40.930  27.460   1.739
 3972W        W67696   7.380   9.355   2.377
 3973W        W67697   2.296  22.723   5.089
 3974W        W67698  44.263  12.259  11.063
 3975W        W67699  36.908  18.179   2.815
 3976W        W67700  17.585  23.712   4.658
 3977W        W67701  42.839  12.819   3.740
 3978W        W67702  23.599   2.332  11.374
 3979W        W67703  28.550  41.792   4.724
 3980W        W67704  19.170  42.941   1.805
 3981W        W67705   2.437  30.479   2.734
 3982W        W67706  21.116  38.556  13.389
 3983W        W67707   1.895  26.068   3.807
 3984W        W67708   0.472  17.751   0.385
 3985W        W67709   7.298  34.442   4.164
 3986W        W67710  36.383   3.412  13.930
 3987W        W67711   5.244  10.193   1.280
 3988W        W67712  30.483  28.642  12.500
 3989W        W67713  40.510  26.634   0.275
 3990W        W67714  18.582  26.498   4.671
 3991W        W67715  35.517   0.837   3.711
 3992W        W67716  13.117   1.869  13.388
 3993W        W67717   9.676   2.753   3.819
 3994W        W67718  36.414  40.384   1.864
 3995W        W67719  36.373  17.695   0.347
 3996W        W67720  18.785   7.242   5.303
 3997W        W67721  18.233  15.310   3.375
 3998W        W67722   5.729  14.762   0.281
 3999W        W67723  36.414   7.778  10.426
 4000W        W67724  13.184  24.106   2.333
 4001W        W67725  22.602   5.697   1.780
 4002W        W67726  24.669  39.854  14.953
 4003W        W67727  13.646  42.469   1.300
 4004W        W67728  32.479  23.102  11.578
 4005W        W67729   7.333  30.481   2.876
 4006W        W67730  39.045  26.182  10.512
 4007W        W67731   6.306  16.799  14.460
 4008W        W67732  39.815  41.491   2.272
 4009W        W67733   2.769   1.790  11.064
 4010W        W67734  33.479  34.482   3.340
 4011W        W67735  14.659  22.556  13.316
 4012W        W67736  31.521  30.600  11.558
 4013W        W67737  17.711  20.587   1.426
 4014W        W67738  21.144  10.381   5.159
 4015W        W67739  19.537  17.689  10.012
 4016W        W67740   3.390  37.343   1.376
 4017W        W67741  27.197  12.731  12.960
 4018W        W67742  31.084  16.266  11.124
 4019W        W67743  28.085  37.391  11.577
 4020W        W67744  22.736  33.039   4.731
 4021W        W67745  22.093  37.854   9.658
 4022W        W67746   4.874  42.862  11.033
 4023W        W67747  36.445  23.680   9.988
 4024W        W67748  30.133  33.501  14.791
 4025W        W67749  20.120  40.007  10.425
 4026W        W67750  35.598  37.416  10.923
 4027W        W67751  11.646  32.478   4.810
 4028W        W67752  21.742  34.031   4.632
 4029W        W67753  30.618  25.477   0.463
 4030W        W67754  37.390  39.417  12.416
 4031W        W67755  32.455  38.969  11.967
 4032W        W67756   9.879   5.804  11.432
 4033W        W67757  40.451  19.705  14.863
 4034W        W67758   8.774   9.726  13.476
 4035W        W67759   7.356  13.691  14.815
 4036W        W67760  44.388  37.340  13.950
 4037W        W67761  14.591  37.845  12.530
 4038W        W67762  35.379  40.388   3.315
 4039W        W67763  26.080   6.342   0.426
 4040W        W67764  19.664  31.006  11.465
 4041W        W67765  11.684  42.812   4.813
 4042W        W67766  43.485  11.633   2.723
 4043W        W67767  32.925   0.968  13.318
 4044W        W67768   7.391  23.030  14.869
 4045W        W67769  18.573   9.170  13.330
 4046W        W67770  41.017  36.933   3.720
 4047W        W67771  36.067   2.907  13.834
 4048W        W67772  16.214  39.382  14.790
 4049W        W67773  42.021  29.531  12.876
 4050W        W67774  20.186  27.120   3.244
 4051W        W67775   8.370   0.974  10.943
 4052W        W67776  35.541   6.699  12.452
 4053W        W67777  15.244  24.222  10.632
 4054W        W67778  21.555  21.045   3.268
 4055W        W67779  26.134   8.335  13.999
 4056W        W67780  40.926  34.101  14.383
 4057W        W67781  16.710  30.516   0.274
 4058W        W67782   9.160  27.580  13.937
 4059W        W67783   5.895   6.749  11.033
 4060W        W67784   2.889  17.096   0.441
 4061W        W67785  39.947  32.923   3.766
 4062W        W67786  20.232  43.788  12.874
 4063W        W67787  23.491  41.358   0.298
 4064W        W67788  32.974  17.565   4.278
 4065W        W67789  10.180  40.950  13.413
 4066W        W67790   2.267  13.730  13.317
 4067W        W67791  38.016  21.045  12.021
 4068W        W67792  27.459   1.903  11.883
 4069W        W67793  28.438  37.465  13.938
 4070W        W67794   6.786  21.586  11.014
 4071W        W67795  26.576  19.093   3.202
 4072W        W67796  21.203  41.000  11.513
 4073W        W67797  22.099  11.185   3.244
 4074W        W67798   5.849  10.732   4.288
 4075W        W67799  39.839  16.723  11.864
 4076W        W67800  19.685   2.455  13.878
 4077W        W67801   1.964  35.990   4.202
 4078W        W67802  37.064  18.643  14.794
 4079W        W67803  44.964   0.963  14.968
 4080W        W67804  40.532  39.891  10.633
 4081W        W67805   5.697  25.690  12.996
 4082W        W67806  35.467  27.978   3.256
 4083W        W67807  34.964  28.062   4.759
 4084W        W67808  37.428  11.279   2.351
 4085W        W67809  12.288  43.832   2.296
 4086W        W67810  36.930  41.470   1.793
 4087W        W67811  32.026  32.464   5.141
 4088W        W67812  40.336  44.261  13.812
 4089W        W67813  15.309  27.971  14.864
 4090W        W67814  31.526  43.979   4.768
 4091W        W67815  43.910   5.413  11.904
 4092W        W67816  36.434   0.405  10.906
 4093W        W67817  10.678  18.758   0.348
 4094W        W67818   6.706  18.787  10.974
 4095W        W67819  21.028  27.556  14.459
 4096W        W67820  31.979  17.063   0.908
 4097W        W67821  15.669   8.730   1.398
 4098W        W67822   1.923  12.808   2.696
 4099W        W67823   8.748  26.662   3.289
 4100W        W67824  23.531  25.076   3.770
 4101W        W67825   4.387  29.609  13.548
 4102W        W67826  31.549  37.863  12.952
 4103W        W67827  30.487  30.639  14.475
 4104W        W67828   3.851  18.775   2.219
 4105W        W67829  40.866  39.329  12.471
 4106W        W67830   4.884   0.782  14.431
 4107W        W67831  26.003   2.372   1.321
 4108W        W67832  17.580  44.463  12.954
 4109W        W67833  23.574   4.791   2.351
 4110W        W67834  25.610  36.026  10.923
 4111W        W67835  16.278  37.537  14.992
 4112W        W67836  33.503  28.565  13.977
 4113W        W67837   7.750  19.274  13.905
 4114W        W67838  14.818  39.398   4.799
 4115W        W67839  25.584  25.623  12.061
 4116W        W67840  18.647   4.793  14.503
 4117W        W67841  30.642   3.233  12.466
 4118W        W67842   4.300  39.463   0.340
 4119W        W67843  20.561   2.313   1.262
 4120W        W67844  28.499   4.759  14.828
 4121W        W67845   1.948  23.119  12.844
 4122W        W67846  16.154  34.500   4.125
 4123W        W67847  41.991  38.532   9.988
 4124W        W67848   6.740  24.670  11.471
 4125W        W67849  12.655  10.199   4.838
 4126W        W67850  22.140  30.416  13.861
 4127W        W67851  21.162  35.525   3.364
 4128W        W67852  25.001  16.280  12.492
 4129W        W67853   7.783  15.717  13.819
 4130W        W67854  10.845  27.068   4.787
 4131W        W67855   8.187  37.456  13.034
 4132W        W67856  40.916  16.762  13.441
 4133W        W67857  28.032  20.233  12.033
 4134W        W67858   2.742  29.005  14.848
 4135W        W67859  44.324  16.247  13.506
 4136W        W67860   5.742  40.319  12.037
 4137W        W67861  25.069  38.943   1.876
 4138W        W67862  25.025   8.394  11.031
 4139W        W67863  14.224  36.017   1.895
 4140W        W67864  41.891   3.432  14.952
 4141W        W67865   5.232   2.264  11.966
 4142W        W67866   6.731  41.536  12.489
 4143W        W67867  40.457  15.089  12.084
 4144W        W67868  34.913  36.518  14.395
 4145W        W67869  32.924  15.681  14.343
 4146W        W67870  16.780  29.992   4.718
 4147W        W67871   8.343   7.249  11.098
 4148W        W67872  26.163  42.963  12.045
 4149W        W67873   2.335  43.828   3.689
 4150W        W67874  13.624  19.709   1.782
 4151W        W67875  33.575  26.511  10.137
 4152W        W67876  26.682  18.242  13.792
 4153W        W67877  33.578  36.522   2.799
 4154W        W67878  44.374  25.673  14.330
 4155W        W67879   3.871  13.200  11.544
 4156W        W67880  36.471  38.882  14.444
 4157W        W67881  14.337  10.750  13.385
 4158W        W67882  44.415  29.126  14.835
 4159W        W67883  10.178  34.057  12.461
 4160W        W67884  31.048  43.830   4.269
 4161W        W67885  18.664  36.415   0.419
 4162W        W67886   3.297  15.179   4.169
 4163W        W67887  27.972  40.408   1.834
 4164W        W67888   9.293   1.914  13.514
 4165W        W67889  27.137  16.617   3.169
 4166W        W67890  33.616   2.279   0.297
 4167W        W67891  25.037   1.921   0.773
 4168W        W67892  22.142  14.229   1.754
 4169W        W67893  34.605  35.477   4.139
 4170W        W67894  41.514  35.038   2.338
 4171W        W67895  39.465   2.885  13.434
 4172W        W67896  39.441  41.372   1.757
 4173W        W67897  29.547  18.093   9.991
 4174W        W67898   8.752  27.643  14.980
 4175W        W67899  33.489  33.960  12.512
 4176W        W67900  41.496  31.075  14.337
 4177W        W67901  15.244   5.771  14.796
 4178W        W67902   0.456  11.802  11.518
 4179W        W67903   3.855  25.099  14.421
 4180W        W67904  18.241  13.130   3.752
 4181W        W67905  40.799  22.667  14.951
 4182W        W67906  35.006  14.279  14.507
 4183W        W67907  24.512  32.983   4.343
 4184W        W67908  22.553   4.234   1.313
 4185W        W67909  12.761   6.842   1.343
 4186W        W67910  18.250   2.741  14.810
 4187W        W67911   0.940  40.915   3.263
 4188W        W67912  10.152  25.479  13.875
 4189W        W67913   3.879  39.393  12.020
 4190W        W67914  34.989  19.578   4.713
 4191W        W67915  24.699  24.174   4.779
 4192W        W67916   1.442  23.638  14.289
 4193W        W67917  16.112  39.340  11.393
 4194W        W67918   8.655  38.886  11.949
 4195W        W67919  37.066  41.505   0.322
 4196W        W67920   3.235  22.193   0.311
 4197W        W67921  41.321  22.200   9.652
 4198W        W67922  19.080   4.771  13.927
 4199W        W67923   6.821  19.543  10.552
 4200W        W67924  25.468  12.724   2.197
 4201W        W67925  26.693   8.804  13.529
 4202W        W67926  40.864  24.551   3.149
 4203W        W67927  25.141  25.990  14.325
 4204W        W67928  42.453  35.991   2.284
 4205W        W67929  17.099   2.936   4.147
 4206W        W67930  36.859  37.431   1.935
 4207W        W67931  11.140  41.818   1.416
 4208W        W67932  31.054  33.108  13.467
 4209W        W67933  37.062   5.740   0.440
 4210W        W67934  44.777  36.456  11.064
 4211W        W67935  19.100  25.667   3.813
 4212W        W67936  19.559  10.830   1.251
 4213W        W67937  41.424   1.775  11.060
 4214W        W67938  11.648  17.159   1.374
 4215W        W67939  40.965  42.947   4.271
 4216W        W67940   1.958  40.518  12.836
 4217W        W67941  20.703  27.592   3.760
 4218W        W67942   2.385  42.452  14.894
 4219W        W67943  20.717   9.835  12.953
 4220W        W67944  27.535  28.527  12.863
 4221W        W67945   6.249  15.584  14.303
 4222W        W67946  37.423  19.548   3.329
 4223W        W67947   2.327  23.114  13.827
 4224W        W67948  25.711  28.442   0.956
 4225W        W67949  41.306   4.267  13.342
 4226W        W67950  11.658  36.093  14.975
 4227W        W67951  32.923  22.164   2.737
 4228W        W67952   8.811  36.529   4.829
 4229W        W67953  43.301  15.187  13.871
 4230W        W67954  33.028  12.157   9.999
 4231W        W67955  32.032  22.249   3.158
 4232W        W67956  26.979  26.653  11.396
 4233W        W67957   9.239   9.822  12.388
 4234W        W67958  41.464  10.834  11.376
 4235W        W67959  15.173   8.290   1.352
 4236W        W67960  31.434  26.160  14.292
 4237W        W67961  21.679  43.849  12.932
 4238W        W67962  21.096  28.480  12.411
 4239W        W67963  27.121  12.347   1.403
 4240W        W67964  42.440  30.640  12.985
 4241W        W67965  27.072  25.561  14.889
 4242W        W67966  34.478  24.620  10.962
 4243W        W67967  27.667  11.657   1.383
 4244W        W67968  27.124  38.500  11.023
 4245W        W67969  24.542  10.828   1.740
 4246W        W67970  17.555  12.236  10.501
 4247W        W67971   0.936  38.032   0.294
 4248W        W67972   2.847  22.997  13.831
 4249W        W67973  25.610   4.749  10.944
 4250W        W67974  40.846  25.998   3.345
 4251W        W67975  25.647  32.897  13.870
 4252W        W67976  18.633  38.983   5.210
 4253W        W67977  11.751  44.889   2.304
 4254W        W67978  40.917  40.017   2.785
 4255W        W67979  16.706  22.689   3.174
 4256W        W67980  27.678  35.085   3.165
 4257W        W67981  30.040  11.367   2.333
 4258W        W67982  44.004   2.250  11.440
 4259W        W67983  27.050   2.833   2.662
 4260W        W67984  43.331  41.516  14.368
 4261W        W67985  24.999  33.469   0.402
 4262W        W67986  14.781  33.472  13.064
 4263W        W67987  36.889   0.403  13.013
 4264W        W67988  37.030  27.170  13.389
 4265W        W67989   1.790  23.735   2.755
 4266W        W67990  20.173  36.020  13.361
 4267W        W67991  40.860  34.479  12.850
 4268W        W67992  12.211  22.738   2.675
 4269W        W67993  20.733   5.752  13.381
 4270W        W67994  25.132  33.469   3.146
 4271W        W67995  27.454  33.448   2.189
 4272W        W67996  29.595  10.788  12.032
 4273W        W67997  43.895  41.298   1.791
 4274W        W67998  40.374  32.526  10.994
 4275W        W67999   9.228  25.604   3.738
 4276W        W68000  30.104  34.004  11.927
 4277W        W68001   1.911   1.282   0.822
 4278W        W68002   3.415  37.451  12.988
 4279W        W68003  12.251   3.312   3.312
 4280W        W68004  35.516   3.863   2.349
 4281W        W68005   5.707   0.822   3.293
 4282W        W68006   4.901  41.361   0.378
 4283W        W68007  14.637  12.348  11.596
 4284W        W68008   5.238   4.719  11.095
 4285W        W68009  26.520  26.951  12.040
 4286W        W68010  22.044  31.474  10.017
 4287W        W68011  23.150   7.908   4.196
 4288W        W68012   3.949  19.120  13.819
 4289W        W68013  27.155  27.067  12.390
 4290W        W68014  15.808  24.099   5.179
 4291W        W68015  10.292  23.231   1.375
 4292W        W68016  31.919   7.799  10.524
 4293W        W68017  25.167   7.904   3.706
 4294W        W68018  30.074  30.953  11.856
 4295W        W68019  38.944   0.815  13.492
 4296W        W68020  33.880  30.045  12.532
 4297W        W68021  17.581   5.239  14.434
 4298W        W68022  30.089  28.488   3.234
 4299W        W68023  20.752  15.210  13.010
 4300W        W68024  27.055  21.687  12.972
 4301W        W68025  41.349  21.671   3.187
 4302W        W68026  22.682  22.065   1.803
 4303W        W68027   0.803  28.151  14.899
 4304W        W68028   9.366  11.687   0.382
 4305W        W68029  25.669  41.398   4.663
 4306W        W68030  30.086  12.184  10.923
 4307W        W68031   2.251  21.624  12.464
 4308W        W68032   3.262  31.988  12.435
 4309W        W68033  34.866   7.746  11.492
 4310W        W68034  10.797  41.376  11.031
 4311W        W68035   7.365  26.159   1.255
 4312W        W68036  22.246  32.074  14.965
 4313W        W68037  25.668   1.810  10.504
 4314W        W68038  34.089  25.024   5.156
 4315W        W68039   1.255  34.377  13.985
 4316W        W68040  39.865  39.325   0.470
 4317W        W68041   1.817  32.503  11.442
 4318W        W68042   8.760   7.372   4.800
 4319W        W68043  24.644  38.928   0.967
 4320W        W68044  30.645  19.723   4.634
 4321W        W68045  35.564  26.642   0.936
 4322W        W68046  12.630  38.985  13.803
 4323W        W68047   1.334  37.002  14.293
 4324W        W68048  40.525   3.870  13.439
 4325W        W68049  27.146   3.906  12.569
 4326W        W68050   9.165  42.856  13.418
 4327W        W68051  40.436  27.632   0.904
 4328W        W68052  39.332  12.281  12.848
 4329W        W68053  38.558  32.502  11.999
 4330W        W68054  37.510   8.373  11.856
 4331W        W68055  25.474   8.843   1.398
 4332W        W68056  30.545  33.011   1.233
 4333W        W68057  35.422  25.043  12.826
 4334W        W68058  36.394   7.689   0.403
 4335W        W68059  10.295  14.672   4.673
 4336W        W68060  17.088  24.703   2.215
 4337W        W68061  39.414  42.295  11.489
 4338W        W68062   5.819  16.290   4.647
 4339W        W68063   0.379  32.036  13.819
 4340W        W68064  29.976   1.266  13.886
 4341W        W68065   1.849  31.001   3.793
 4342W        W68066  38.863  33.897   3.364
 4343W        W68067   1.791  17.125   2.663
 4344W        W68068  20.592  22.202  12.366
 4345W        W68069  22.599  28.038   4.822
 4346W        W68070   5.334  22.128  10.919
 4347W        W68071   0.449  22.010   4.323
 4348W        W68072  10.312   6.692  10.503
 4349W        W68073  40.877  28.029   1.806
 4350W        W68074  20.635  29.067   2.266
 4351W        W68075  10.857  23.641  13.884
 4352W        W68076  41.474  18.210   3.710
 4353W        W68077  33.019  40.535   4.253
 4354W        W68078  34.523  12.348   2.740
 4355W        W68079  12.247  20.561  14.984
 4356W        W68080  40.009  17.796  11.582
 4357W        W68081  18.194  39.545   1.846
 4358W        W68082  11.164  10.306   4.837
 4359W        W68083  27.690   4.830  13.521
 4360W        W68084   7.667   3.923  14.400
 4361W        W68085  24.575  29.533   1.438
 4362W        W68086   3.933   6.903   4.158
 4363W        W68087  39.905  17.164   1.339
 4364W        W68088  14.660   5.846   4.714
 4365W        W68089  22.240   8.320   3.646
 4366W        W68090  28.470  36.447  13.528
 4367W        W68091  37.043  11.720   1.216
 4368W        W68092  25.065  35.516  14.511
 4369W        W68093   0.319   8.780   1.236
 4370W        W68094  17.235  20.177   2.812
 4371W        W68095  30.058  15.189   3.315
 4372W        W68096  27.474  17.204  11.457
 4373W        W68097  26.017  23.587  12.580
 4374W        W68098   4.845  40.340  10.993
 4375W        W68099  17.674  10.672   4.220
 4376W        W68100   8.803  30.144  12.027
 4377W        W68101  32.935  28.531   1.211
 4378W        W68102  29.073  34.024  12.066
 4379W        W68103   1.369   6.817   1.910
 4380W        W68104   6.309  21.137  10.057
 4381W        W68105  14.655  20.255   1.698
 4382W        W68106  18.148   9.173  14.946
 4383W        W68107  36.398  29.631  10.470
 4384W        W68108  36.877  42.432  12.958
 4385W        W68109   8.267  36.449  12.386
 4386W        W68110  17.636  10.213   3.844
 4387W        W68111  23.632  33.884  10.632
 4388W        W68112  20.104  24.550  10.944
 4389W        W68113  14.769  24.111   3.316
 4390W        W68114  33.020   3.312   4.309
 4391W        W68115  43.485   1.793   5.218
 4392W        W68116   4.399  16.655   0.936
 4393W        W68117  35.371  22.538   0.377
 4394W        W68118  31.991  37.946  11.969
 4395W        W68119  19.124   8.901   0.851
 4396W        W68120  24.499   4.936   3.870
 4397W        W68121  39.453  30.110   0.340
 4398W        W68122  39.400  33.597  14.395
 4399W        W68123  18.181   1.827  14.882
 4400W        W68124   4.211  20.163   3.751
 4401W        W68125  42.416  29.631  12.363
 4402W        W68126  13.824  41.412  12.408
 4403W        W68127  30.502  26.008  13.341
 4404W        W68128  41.821  16.572   4.183
 4405W        W68129   9.729  19.161  12.510
 4406W        W68130  23.673  43.438   0.326
 4407W        W68131  19.607   5.228   3.716
 4408W        W68132  30.054  23.635   2.245
 4409W        W68133  42.926  25.607   4.673
 4410W        W68134  42.866   7.758  12.354
 4411W        W68135  43.432  24.118  13.308
 4412W        W68136  39.024  44.313  14.016
 4413W        W68137  44.405   7.674  14.954
 4414W        W68138  24.150   6.195   0.419
 4415W        W68139  40.867  26.022   2.194
 4416W        W68140  29.588  32.599  11.941
 4417W        W68141  19.128   6.752  14.348
 4418W        W68142  25.100   6.211  10.993
 4419W        W68143  23.676  32.499   2.326
 4420W        W68144  32.045  37.082   0.289
 4421W        W68145  38.871   8.869   0.275
 4422W        W68146  33.500  26.977  14.960
 4423W        W68147  36.846  16.094   9.527
 4424W        W68148  32.036  21.636   0.272
 4425W        W68149   2.895  36.024  14.377
 4426W        W68150  36.865   2.390   1.898
 4427W        W68151  14.286  28.946  10.581
 4428W        W68152   4.322   0.868   0.814
 4429W        W68153  16.218  34.989   1.897
 4430W        W68154   3.902  16.674  14.026
 4431W        W68155   6.867  11.650  13.422
 4432W        W68156  18.780  33.038   4.163
 4433W        W68157  10.165  17.574  13.980
 4434W        W68158  40.880   8.199   4.817
 4435W        W68159   8.398  24.502  11.972
 4436W        W68160  31.617  26.196  13.365
 4437W        W68161  26.694  34.956   2.677
 4438W        W68162  17.681  25.070  12.938
 4439W        W68163  24.059  38.379   0.443
 4440W        W68164  40.478  37.400  14.791
 4441W        W68165  33.949  10.277   3.250
 4442W        W68166  10.697  38.838  14.314
 4443W        W68167  26.081  25.483  14.890
 4444W        W68168  10.781  36.044   1.217
 4445W        W68169  25.615  20.701   4.138
 4446W        W68170  37.845  33.128  13.333
 4447W        W68171   2.452  42.852  11.389
 4448W        W68172  14.241  42.368   2.723
 4449W        W68173  16.692   8.210   4.185
 4450W        W68174  38.416  11.657  14.492
 4451W        W68175  33.560  10.336  10.105
 4452W        W68176  42.834  31.141  12.097
 4453W        W68177  28.656  13.602  10.928
 4454W        W68178   9.277  42.491   3.688
 4455W        W68179  10.848  13.758   4.199
 4456W        W68180  28.059  25.536  14.841
 4457W        W68181  11.250  38.548  13.339
 4458W        W68182  14.712  17.209   3.273
 4459W        W68183  40.533  34.920   4.275
 4460W        W68184  26.477  35.009   4.243
 4461W        W68185   0.885  10.810  14.931
 4462W        W68186  42.420  36.961  10.943
 4463W        W68187  40.423  31.641   4.798
 4464W        W68188  43.835  36.526   4.264
 4465W        W68189  42.369  21.181  12.876
 4466W        W68190  13.167  15.119   2.376
 4467W        W68191  28.578  43.906  11.548
 4468W        W68192  38.346   4.934  13.041
 4469W        W68193  42.402  17.140   1.402
 4470W        W68194   6.198  33.905  14.926
 4471W        W68195   3.442  30.502  11.994
 4472W        W68196  27.517  37.853  10.443
 4473W        W68197  32.122  32.473   0.332
 4474W        W68198  44.941  37.544   2.699
 4475W        W68199  13.602  18.219  14.970
 4476W        W68200  13.152  11.326   4.764
 4477W        W68201  15.646  25.651  11.447
 4478W        W68202   1.258   1.748   1.724
 4479W        W68203  22.235   5.704   1.774
 4480W        W68204  15.241  16.213  14.833
 4481W        W68205   8.244  32.459  13.437
 4482W        W68206  15.268   0.426   3.198
 4483W        W68207  34.515   3.845   4.811
 4484W        W68208  20.556  22.691   3.247
 4485W        W68209  22.553  41.502   4.790
 4486W        W68210  33.878  42.974   3.211
 4487W        W68211  10.731  36.041  13.382
 4488W        W68212  22.621  42.413   9.952
 4489W        W68213  18.767  30.929   3.152
 4490W        W68214  37.509  42.506  14.953
 4491W        W68215  17.251  43.012  12.544
 4492W        W68216  20.127  40.400   1.895
 4493W        W68217  32.523  11.857   1.275
 4494W        W68218  25.965  44.352  12.374
 4495W        W68219  13.233  18.203   2.357
 4496W        W68220   3.288  12.278  14.780
 4497W        W68221  31.459  17.668   3.720
 4498W        W68222  35.444  39.848  14.807
 4499W        W68223  33.458   0.329  12.419
 4500W        W68224  10.877   5.857   4.629
 4501W        W68225  32.046  42.334   1.814
 4502W        W68226  36.009  44.976  13.337
 4503W        W68227  26.685   0.978   3.768
 4504W        W68228  41.911  26.981   2.897
 4505W        W68229  19.629  40.382   1.867
 4506W        W68230  29.124  32.492   4.319
 4507W        W68231  41.039  22.659  12.003
 4508W        W68232  41.943  39.384   3.294
 4509W        W68233  15.303  19.284  10.999
 4510W        W68234  14.203  26.477  14.997
 4511W        W68235  38.516   5.783   3.832
 4512W        W68236  33.474  10.838  12.058
 4513W        W68237   6.856  18.069  12.082
 4514W        W68238  17.591   4.269   5.581
 4515W        W68239  16.777  40.359  14.968
 4516W        W68240  42.295  43.883  13.999
 4517W        W68241  13.792  22.054   0.795
 4518W        W68242   7.694  35.035  13.405
 4519W        W68243  28.053  18.600  12.837
 4520W        W68244  40.415  24.569   4.687
 4521W        W68245  43.396   2.958   1.368
 4522W        W68246  38.463  43.936   3.815
 4523W        W68247  30.568  42.389  12.073
 4524W        W68248   5.193  11.711   5.182
 4525W        W68249   5.762  36.439   2.678
 4526W        W68250  37.086  39.519   0.728
 4527W        W68251  34.478  39.930  14.978
 4528W        W68252   9.849  10.247   4.267
 4529W        W68253  37.431   3.917   3.681
 4530W        W68254  11.813  38.987   4.205
 4531W        W68255  28.623  42.453   4.749
 4532W        W68256   9.806  41.485  12.412
 4533W        W68257  25.685  44.360  12.900
 4534W        W68258   9.650  39.903   1.821
 4535W        W68259  26.642   7.362  10.521
 4536W        W68260  43.930  21.097  14.511
 4537W        W68261  15.306  13.716  13.025
 4538W        W68262  27.507  30.133  14.358
 4539W        W68263   5.925  13.662   1.436
 4540W        W68264   5.882  15.325   2.880
 4541W        W68265  23.698   7.322   1.219
 4542W        W68266  28.001  33.974  11.071
 4543W        W68267  14.619  27.118   2.831
 4544W        W68268  28.566  39.960  11.050
 4545W        W68269  27.046  27.581   3.819
 4546W        W68270  43.370  30.646  11.437
 4547W        W68271  38.862   9.204  10.156
 4548W        W68272   7.771   2.895  13.799
 4549W        W68273  14.671  12.173  12.074
 4550W        W68274  22.159  37.565   2.221
 4551W        W68275   8.365  42.873   2.246
 4552W        W68276  30.467  12.272  11.470
 4553W        W68277   0.472  32.557  14.442
 4554W        W68278  36.387   8.354  12.425
 4555W        W68279  22.998   9.779  11.061
 4556W        W68280  30.978  13.781  11.872
 4557W        W68281  31.033   7.820  13.373
 4558W        W68282  26.954  23.674  14.857
 4559W        W68283  42.321  18.251  12.386
 4560W        W68284  41.360   3.293   2.308
 4561W        W68285  24.628  43.801  11.613
 4562W        W68286  27.585   9.776  13.333
 4563W        W68287  21.139  22.735  13.368
 4564W        W68288  32.420  17.107   1.812
 4565W        W68289  34.505  20.739   1.813
 4566W        W68290  20.238  33.074  10.410
 4567W        W68291   9.234   9.292  14.320
 4568W        W68292   3.929  20.252  11.592
 4569W        W68293  20.188  38.382   5.221
 4570W        W68294  24.528   7.709  14.328
 4571W        W68295  20.717  12.824   3.701
 4572W        W68296  11.654  15.268  13.864
 4573W        W68297  43.893  43.457   4.629
 4574W        W68298  31.530   0.914  14.357
 4575W        W68299  27.524   5.335   0.783
 4576W        W68300  19.221   1.750   0.427
 4577W        W68301  42.870   9.731  11.372
 4578W        W68302   0.781  25.514   2.320
 4579W        W68303  26.020   4.918   3.174
 4580W        W68304   6.779  42.439  14.763
 4581W        W68305  18.184   7.310  14.436
 4582W        W68306  26.984  44.898   1.349
 4583W        W68307   8.178  26.687  14.859
 4584W        W68308  17.603  20.743  14.295
 4585W        W68309  30.959  37.873  13.958
 4586W        W68310  38.859  14.676   3.660
 4587W        W68311  31.070  19.749  13.054
 4588W        W68312  26.628  37.449  10.128
 4589W        W68313   6.361  35.439  12.082
 4590W        W68314  20.726   7.791   4.671
 4591W        W68315  27.131  37.410  13.046
 4592W        W68316  37.389   4.919   5.278
 4593W        W68317  42.968  38.426   1.742
 4594W        W68318  44.797  41.905  10.489
 4595W        W68319  31.595  21.723  14.285
 4596W        W68320  35.066  16.765  10.986
 4597W        W68321  11.233  21.577   2.321
 4598W        W68322  18.160  16.620  13.535
 4599W        W68323  37.354  26.153   1.211
 4600W        W68324  27.611  16.697   4.191
 4601W        W68325  22.510  33.075  14.466
 4602W        W68326  16.271  19.539  14.933
 4603W        W68327  25.518  42.347  10.460
 4604W        W68328  33.999  43.280   4.812
 4605W        W68329  44.275  12.688   3.726
 4606W        W68330  19.645   2.385  14.460
 4607W        W68331  39.365   9.890   2.753
 4608W        W68332  37.549   8.406   2.284
 4609W        W68333   4.316  31.436  12.502
 4610W        W68334  27.665  33.936  11.938
 4611W        W68335   6.747  31.980  10.409
 4612W        W68336  16.130  29.040   1.806
 4613W        W68337  16.623  38.858  11.066
 4614W        W68338  27.569  24.124  10.887
 4615W        W68339  23.194  20.194  10.625
 4616W        W68340   7.672  15.116   0.243
 4617W        W68341  41.794   8.744  13.479
 4618W        W68342  39.437  31.087   3.186
 4619W        W68343  30.106  37.504  13.883
 4620W        W68344  11.137  36.990  12.403
 4621W        W68345  13.220   4.211   2.402
 4622W        W68346  22.140   1.962   0.910
 4623W        W68347  24.538  21.636  10.568
 4624W        W68348  39.032  34.064   3.677
 4625W        W68349  19.777  41.456  10.919
 4626W        W68350  15.778  15.203   4.340
 4627W        W68351   0.972  14.805   1.908
 4628W        W68352  22.011  30.024  12.578
 4629W        W68353   6.246  40.929   2.822
 4630W        W68354   7.202  19.048  12.885
 4631W        W68355  12.304   4.721  12.925
 4632W        W68356  24.163  12.847   0.292
 4633W        W68357  13.744  29.117  10.929
 4634W        W68358   8.162  28.521  11.524
 4635W        W68359  23.600  44.960  13.403
 4636W        W68360  37.890  24.101  10.608
 4637W        W68361  17.128   5.784   1.826
 4638W        W68362  30.057  32.074  10.626
 4639W        W68363  21.126  24.621   3.742
 4640W        W68364  38.947  22.131   3.236
 4641W        W68365  32.579  41.794   4.785
 4642W        W68366   1.351  36.404  13.961
 4643W        W68367   3.346  39.490  11.055
 4644W        W68368  11.286  27.468  10.444
 4645W        W68369  20.746  44.393   3.642
 4646W        W68370   9.656   4.296  12.510
 4647W        W68371  18.706  14.100  10.896
 4648W        W68372  42.342  28.451  11.499
 4649W        W68373  12.129   1.330  11.440
 4650W        W68374  31.576  38.066   0.945
 4651W        W68375   4.257  19.272   0.843
 4652W        W68376  15.695  19.271  13.476
 4653W        W68377  44.424  23.201  13.490
 4654W        W68378   6.224  36.049   0.833
 4655W        W68379  23.060  17.065  11.926
 4656W        W68380  18.277  14.213   0.481
 4657W        W68381  24.570  19.276  10.559
 4658W        W68382  10.333  36.524  10.982
 4659W        W68383  26.541  22.127   4.202
 4660W        W68384   6.403  17.746  10.597
 4661W        W68385  16.171  38.019  14.814
 4662W        W68386   9.848   7.694  11.908
 4663W        W68387   3.307  32.636   0.395
 4664W        W68388  37.450  21.132   2.352
 4665W        W68389  29.583  43.514  11.034
 4666W        W68390  38.411  20.639  14.868
 4667W        W68391   2.850  22.743  12.893
 4668W        W68392  42.420  37.541  12.990
 4669W        W68393  16.662  34.979   3.328
 4670W        W68394  20.720  29.946  11.371
 4671W        W68395  30.595  42.440  10.475
 4672W        W68396  32.418  44.496   2.234
 4673W        W68397  20.730  28.681  12.489
 4674W        W68398  25.969  31.492  12.978
 4675W        W68399   2.325  31.039   4.340
 4676W        W68400   3.750  43.430   1.356
 4677W        W68401   8.751   2.776  12.535
 4678W        W68402  22.656  38.016  13.957
 4679W        W68403   5.767  32.055  12.851
 4680W        W68404  31.054  34.079  12.938
 4681W        W68405  37.928  25.099  14.895
 4682W        W68406   6.245  34.946   4.117
 4683W        W68407  38.345  10.729   3.799
 4684W        W68408  19.731  25.605   3.723
 4685W        W68409  23.104  40.895   3.249
 4686W        W68410   7.334  30.112  13.374
 4687W        W68411   6.409  41.932  12.095
 4688W        W68412  32.048   8.161  12.872
 4689W        W68413  38.498  19.145   3.642
 4690W        W68414  16.149  14.752   5.149
 4691W        W68415  22.189  23.134  12.883
 4692W        W68416  20.623  30.626   1.796
 4693W        W68417  20.533   1.331   3.808
 4694W        W68418  37.368   4.907  13.387
 4695W        W68419  16.801   5.334  12.495
 4696W        W68420  31.536  20.059  12.424
 4697W        W68421   7.393  37.952  11.864
 4698W        W68422  21.707   4.866   4.812
 4699W        W68423  25.569  40.431  12.548
 4700W        W68424  27.580   9.167   0.821
 4701W        W68425  42.319  35.085  13.493
 4702W        W68426  43.789  14.720   3.750
 4703W        W68427  37.438  36.860  14.307
 4704W        W68428   9.346  21.049   0.461
 4705W        W68429  27.602  35.585   1.304
 4706W        W68430  26.683  35.028  13.882
 4707W        W68431  29.481  42.973   0.879
 4708W        W68432  23.107  30.596   2.238
 4709W        W68433  41.991  13.202   1.746
 4710W        W68434  30.427  19.709  11.922
 4711W        W68435   9.348  34.978  13.391
 4712W        W68436  42.876  32.905  11.983
 4713W        W68437  40.994  33.910  14.850
 4714W        W68438  23.687  19.258  11.940
 4715W        W68439  21.170  34.913   4.226
 4716W        W68440   3.710   2.944  10.632
 4717W        W68441  43.773   9.848  13.040
 4718W        W68442  35.438  44.982   3.343
 4719W        W68443   1.804  24.973  11.899
 4720W        W68444  39.876  42.911  13.926
 4721W        W68445   0.780  43.500  13.340
 4722W        W68446  12.262   6.363  13.317
 4723W        W68447  34.518  15.816   3.741
 4724W        W68448  28.438  21.733   4.201
 4725W        W68449  43.909  31.621   2.767
 4726W        W68450  14.109  29.584  13.866
 4727W        W68451  37.520   3.758   0.894
 4728W        W68452  13.822  29.945  12.824
 4729W        W68453  25.494  20.706   1.278
 4730W        W68454  38.526  37.432   9.932
 4731W        W68455  39.394  22.605   1.778
 4732W        W68456  31.631  19.254   1.725
 4733W        W68457  37.030  42.334   2.756
 4734W        W68458   7.305  34.893  10.566
 4735W        W68459   3.830  24.695   0.397
 4736W        W68460   8.890  23.615  12.089
 4737W        W68461  31.571  43.963  12.367
 4738W        W68462  27.970  43.928   2.847
 4739W        W68463  35.969  18.545  12.832
 4740W        W68464  35.509  30.107  10.552
 4741W        W68465  12.626  19.274   1.701
 4742W        W68466  34.584  30.093   1.224
 4743W        W68467  23.066  23.533  14.803
 4744W        W68468   8.285   1.869  12.006
 4745W        W68469  16.153  22.724   4.131
 4746W        W68470   7.204  28.036  12.061
 4747W        W68471  26.679  36.373   2.724
 4748W        W68472  36.026  28.618   4.270
 4749W        W68473   5.914  38.880  13.977
 4750W        W68474  23.673  41.880   4.257
 4751W        W68475  13.826  33.554   0.834
 4752W        W68476  39.540  32.127  10.640
 4753W        W68477  42.479  36.863   4.795
 4754W        W68478  43.403  25.698  10.957
 4755W        W68479  42.019  19.604   3.712
 4756W        W68480  20.573  33.573  14.405
 4757W        W68481  22.093  31.059   4.286
 4758W        W68482   1.968  15.253   2.751
 4759W        W68483  37.046  11.776   0.946
 4760W        W68484  26.116  38.994  11.571
 4761W        W68485  39.933  21.607   0.824
 4762W        W68486  43.823   1.734  14.806
 4763W        W68487   5.362  37.979   3.253
 4764W        W68488  37.348  37.889  13.481
 4765W        W68489   2.915   0.835   4.115
 4766W        W68490  23.168  42.510  12.919
 4767W        W68491   8.269  27.986   3.214
 4768W        W68492  15.240  39.386  11.608
 4769W        W68493   4.219   7.850  10.948
 4770W        W68494  17.588  19.724   1.290
 4771W        W68495   0.396  18.268  14.449
 4772W        W68496   4.284  34.373   0.917
 4773W        W68497  34.592  13.239  10.625
 4774W        W68498  19.633   5.277   2.808
 4775W        W68499  35.560  12.765   0.408
 4776W        W68500  37.882  34.457  11.878
 4777W        W68501  38.362  20.675   3.387
 4778W        W68502  38.381  39.970  10.614
 4779W        W68503   2.423  28.469  14.482
 4780W        W68504  32.589  15.590   3.208
 4781W        W68505  43.293  17.724  10.924
 4782W        W68506   5.361  34.511  14.971
 4783W        W68507   1.275  19.693   3.752
 4784W        W68508   2.944  25.040   4.155
 4785W        W68509  44.943  13.320   4.694
 4786W        W68510  34.521  22.650   1.773
 4787W        W68511  28.497  18.605   4.827
 4788W        W68512  19.684   1.378   2.271
 4789W        W68513   5.220  22.185  12.834
 4790W        W68514  15.230  29.441   1.889
 4791W        W68515   7.707   9.190  14.996
 4792W        W68516   2.752   6.851  11.052
 4793W        W68517  25.591  24.073   2.771
 4794W        W68518   1.404  33.397   2.200
 4795W        W68519  29.534  11.678  12.966
 4796W        W68520   2.458  43.869   2.884
 4797W        W68521  41.381   6.376  14.947
 4798W        W68522  36.039  20.645   0.960
 4799W        W68523  16.072  36.447  10.608
 4800W        W68524  16.570  26.990   2.849
 4801W        W68525  44.422  20.076  12.476
 4802W        W68526   8.714   4.943  11.902
 4803W        W68527  42.331   1.884  13.963
 4804W        W68528   8.810  20.158  14.840
 4805W        W68529   3.307  13.241  11.460
 4806W        W68530  42.400  40.997  10.492
 4807W        W68531  21.190   5.704  14.780
 4808W        W68532  31.586  32.993  12.956
 4809W        W68533  41.448  43.874   3.745
 4810W        W68534   9.238   6.728  11.513
 4811W        W68535  22.157  34.970   4.790
 4812W        W68536  27.145   7.861   0.329
 4813W        W68537  34.987  19.579   1.814
 4814W        W68538  36.559  38.458  11.908
 4815W        W68539  20.691  37.853   0.913
 4816W        W68540  11.242  34.887  14.338
 4817W        W68541  15.317  18.774  10.566
 4818W        W68542  34.080  38.405  12.865
 4819W        W68543  13.654  43.934  11.459
 4820W        W68544  25.589  32.555  12.526
 4821W        W68545  18.719  15.212  13.036
 4822W        W68546  29.068  21.590   1.919
 4823W        W68547  19.079   7.731   2.718
 4824W        W68548  28.971  13.271   2.741
 4825W        W68549  13.625  24.579  14.983
 4826W        W68550  40.455  41.501  11.939
 4827W        W68551   5.233  27.664  11.417
 4828W        W68552  12.230   6.311  10.976
 4829W        W68553   8.781  16.093   4.601
 4830W        W68554  36.086   9.766   1.806
 4831W        W68555  23.000  17.254  12.521
 4832W        W68556  15.303  34.960  12.963
 4833W        W68557   5.231  26.645  13.845
 4834W        W68558  14.247   8.666  11.912
 4835W        W68559  20.650  16.306   0.833
 4836W        W68560  22.586  30.429   1.270
 4837W        W68561  36.571  23.521  13.330
 4838W        W68562  39.339   5.756  10.642
 4839W        W68563  27.463  12.651   0.901
 4840W        W68564   3.299  43.926   2.808
 4841W        W68565  33.521  33.433   4.787
 4842W        W68566  15.226  15.746   1.295
 4843W        W68567   2.421  41.409  11.404
 4844W        W68568  10.367  41.858  11.090
 4845W        W68569   4.337  36.559   3.255
 4846W        W68570   3.273  40.045  12.986
 4847W        W68571   4.212   8.812   2.789
 4848W        W68572   4.333  13.190   1.344
 4849W        W68573  28.500  27.988   0.265
 4850W        W68574  40.322  23.199   3.339
 4851W        W68575  14.107   8.216   2.727
 4852W        W68576  41.956  11.162  10.937
 4853W        W68577  23.178  17.642  12.517
 4854W        W68578  28.492  23.169   1.423
 4855W        W68579  23.637  15.580  10.574
 4856W        W68580  26.209  25.975  13.435
 4857W        W68581   8.241  13.833   4.197
 4858W        W68582   9.842  23.542  14.999
 4859W        W68583  21.618  43.946   0.328
 4860W        W68584  24.142  10.814  13.543
 4861W        W68585  20.547  34.033  13.857
 4862W        W68586  27.684   6.779   3.204
 4863W        W68587  13.156  14.748  14.780
 4864W        W68588  38.905  36.413  10.640
 4865W        W68589   5.332  27.620   4.681
 4866W        W68590  19.157  36.065  12.940
 4867W        W68591  44.818  39.822   0.904
 4868W        W68592   6.906  36.503  14.281
 4869W        W68593  34.374  11.288  11.435
 4870W        W68594   4.720   2.294  11.557
 4871W        W68595  30.116  21.210  12.056
 4872W        W68596  40.821  31.438   1.797
 4873W        W68597  39.351  10.857  10.602
 4874W        W68598  19.657  25.084   2.792
 4875W        W68599   9.698  20.062   0.306
 4876W        W68600  43.881  24.481  14.871
 4877W        W68601   2.737  37.971  13.062
 4878W        W68602  25.967  38.841   3.162
 4879W        W68603   3.898  15.782  13.415
 4880W        W68604  19.196   2.449   3.363
 4881W        W68605  24.051  42.793  11.411
 4882W        W68606  37.028  42.286   5.671
 4883W        W68607  41.324  26.072  10.996
 4884W        W68608  35.106   2.892   0.923
 4885W        W68609   8.891  34.399   0.402
 4886W        W68610   6.393   5.280   1.862
 4887W        W68611   8.671  44.399  12.492
 4888W        W68612  27.046  42.381   0.265
 4889W        W68613  38.981  16.301  12.863
 4890W        W68614  41.787  20.760   0.347
 4891W        W68615  11.691  39.417   0.730
 4892W        W68616  42.480  25.069   1.223
 4893W        W68617  31.956  11.187   0.458
 4894W        W68618  11.688   8.186   0.359
 4895W        W68619  28.095  28.621  12.951
 4896W        W68620  37.981  37.454  10.051
 4897W        W68621  13.292  16.674  14.332
 4898W        W68622  28.638  12.348   3.650
 4899W        W68623  20.685  36.530  11.951
 4900W        W68624  36.527  17.250   0.853
 4901W        W68625   1.258  38.863  10.518
 4902W        W68626  31.901  12.173   4.645
 4903W        W68627   5.871  39.055   3.834
 4904W        W68628  44.405  23.077   4.730
 4905W        W68629  34.886  20.065   2.697
 4906W        W68630  35.953   0.370   2.378
 4907W        W68631  13.182  35.412  12.413
 4908W        W68632  38.421  25.667  10.444
 4909W        W68633  15.706   2.804   1.296
 4910W        W68634  11.631  15.579   4.605
 4911W        W68635  41.471  18.601   0.861
 4912W        W68636   1.822  15.191   0.423
 4913W        W68637  12.708   9.661   4.729
 4914W        W68638   4.409   8.847  13.804
 4915W        W68639  15.635  12.838   5.268
 4916W        W68640   3.307  30.111   0.941
 4917W        W68641  32.574  19.737  10.408
 4918W        W68642   1.411  17.651   3.813
 4919W        W68643   0.842  24.500   0.390
 4920W        W68644   9.223  10.655  14.469
 4921W        W68645   7.316   6.854  13.863
 4922W        W68646  37.428  17.759   1.791
 4923W        W68647  41.484  44.455   0.774
 4924W        W68648  12.740  16.598   4.663
 4925W        W68649  18.601  41.867   1.261
 4926W        W68650  16.096   4.328  12.384
 4927W        W68651   4.450  18.579  10.612
 4928W        W68652  29.430  19.177  12.547
 4929W        W68653  30.930  35.359   3.387
 4930W        W68654  27.134  40.002  12.005
 4931W        W68655   9.362  31.499  14.964
 4932W        W68656  32.483   4.911  10.134
 4933W        W68657   0.938  13.632  11.126
 4934W        W68658  41.477   0.286  11.543
 4935W        W68659  38.839  25.562   0.862
 4936W        W68660  29.951  36.400   2.266
 4937W        W68661  29.501  26.007   1.438
 4938W        W68662  17.138  42.435  12.554
 4939W        W68663  40.916   3.895   1.728
 4940W        W68664  32.420  15.658  11.551
 4941W        W68665  10.643  14.219  11.016
 4942W        W68666  24.033  42.891  13.059
 4943W        W68667  30.500  29.643  10.890
 4944W        W68668  14.714  44.890  13.980
 4945W        W68669  26.586   0.896  12.838
 4946W        W68670  28.459   5.789   0.749
 4947W        W68671   3.457   6.916  12.391
 4948W        W68672  30.534  18.726   3.180
 4949W        W68673   8.306  22.995   1.445
 4950W        W68674  20.769  33.114  11.479
 4951W        W68675   4.924   5.318   2.273
 4952W        W68676  26.657  43.373   3.860
 4953W        W68677   6.823   3.847  11.486
 4954W        W68678  24.512  16.653  13.957
 4955W        W68679  31.643  15.620  10.408
 4956W        W68680  13.105  44.823   3.674
 4957W        W68681  44.764  14.220  12.954
 4958W        W68682  12.281  24.188   4.710
 4959W        W68683  28.091  11.282   1.733
 4960W        W68684  29.025   4.792   1.298
 4961W        W68685  35.901  32.490  10.595
 4962W        W68686  18.260  16.247   2.395
 4963W        W68687   7.750  40.488   3.375
 4964W        W68688   5.424  13.809   3.684
 4965W        W68689  42.970  37.385   1.740
 4966W        W68690   9.774  11.263  13.439
 4967W        W68691  26.093  30.113   3.299
 4968W        W68692   6.323   3.362  14.805
 4969W        W68693  39.953  41.455   1.240
 4970W        W68694  16.648  42.027  14.031
 4971W        W68695  12.163   5.912  12.489
 4972W        W68696  23.991  37.855   5.109
 4973W        W68697  30.138  17.182  13.334
 4974W        W68698  18.647   5.804  12.910
 4975W        W68699  40.314  35.878  12.891
 4976W        W68700  24.681  18.053   4.160
 4977W        W68701  20.130  38.872  12.854
 4978W        W68702   9.781  20.592  10.462
 4979W        W68703  37.406  16.733  10.552
 4980W        W68704  42.809  27.986   4.127
 4981W        W68705   3.300  31.046   3.321
 4982W        W68706   5.891  16.610   4.259
 4983W        W68707  17.575  21.557   2.259
 4984W        W68708  28.112  37.961   3.188
 4985W        W68709   7.338  31.607  12.989
 4986W        W68710  38.485  17.736   2.320
 4987W        W68711  36.431  41.904  13.333
 4988W        W68712  17.778  37.988   3.797
 4989W        W68713   9.304   0.856   2.717
 4990W        W68714   9.763  36.094   4.699
 4991W        W68715  34.082  44.484   1.377
 4992W        W68716  23.497  17.597   1.408
 4993W        W68717  11.269  11.818   1.838
 4994W        W68718  15.632  17.253   2.846
 4995W        W68719  34.565   0.777   4.818
 4996W        W68720  25.040  36.549  12.987
 4997W        W68721   5.257   1.746  13.480
 4998W        W68722  37.409   2.739  14.457
 4999W        W68723  21.521  19.278  11.970
 5000W        W68724  15.327   2.925  14.437
 5001W        W68725  19.119   7.238   2.820
 5002W        W68726   3.740  44.004   1.903
 5003W        W68727  26.574  30.012  12.863
 5004W        W68728  33.885  34.997  11.610
 5005W        W68729  34.021   2.729   2.388
 5006W        W68730   1.389  37.915  14.953
 5007W        W68731  38.991  24.631   2.732
 5008W        W68732  36.433  35.900  11.981
 5009W        W68733  27.472  16.627   0.267
 5010W        W68734  29.523  38.333   4.237
 5011W        W68735  19.285  32.962   4.208
 5012W        W68736  24.631  33.458  14.428
 5013W        W68737  29.978   0.811   2.700
 5014W        W68738  42.889   5.318  11.526
 5015W        W68739  15.216  29.600  13.041
 5016W        W68740  40.888   8.235   0.309
 5017W        W68741  37.339  44.374  11.992
 5018W        W68742  23.595   6.203  10.914
 5019W        W68743  21.040  31.970  12.870
 5020W        W68744  23.168  31.150  13.527
 5021W        W68745  11.285  19.124  11.413
 5022W        W68746   9.342  13.346  14.507
 5023W        W68747   7.667  17.246   1.339
 5024W        W68748  44.378  17.772   2.730
 5025W        W68749  42.019  32.909  10.908
 5026W        W68750   1.744  38.393   2.203
 5027W        W68751   6.300  33.055   3.381
 5028W        W68752  41.376  43.314   1.380
 5029W        W68753  25.651  26.629   0.800
 5030W        W68754   6.309  21.146  14.428
 5031W        W68755  27.579   2.250  11.410
 5032W        W68756  23.194  30.496  12.983
 5033W        W68757  41.434  28.457   4.760
 5034W        W68758  34.884  40.805  13.501
 5035W        W68759   1.332  22.158  11.955
 5036W        W68760   5.381  30.990   4.171
 5037W        W68761  27.050  21.026  14.500
 5038W        W68762  22.062  17.698   4.655
 5039W        W68763  35.881  30.954  12.440
 5040W        W68764  29.436  42.522   3.821
 5041W        W68765  15.819   7.383   2.366
 5042W        W68766  16.137  12.753   2.732
 5043W        W68767   4.851  36.519  13.355
 5044W        W68768  21.747   9.692  12.914
 5045W        W68769  30.959  13.327  14.922
 5046W        W68770   5.254  38.485   0.954
 5047W        W68771   3.224  28.008  14.886
 5048W        W68772  29.969  15.222   4.315
 5049W        W68773  39.457  21.534   0.262
 5050W        W68774  43.327  28.026   1.217
 5051W        W68775  41.448  36.038   3.202
 5052W        W68776   5.359   4.841   3.277
 5053W        W68777  28.677  34.078  12.339
 5054W        W68778  32.027  32.570  12.008
 5055W        W68779  40.812  37.862  13.009
 5056W        W68780  31.044  41.835   2.388
 5057W        W68781  10.782   3.758   0.861
 5058W        W68782  23.102  28.941   2.686
 5059W        W68783   9.649  38.368  11.056
 5060W        W68784  20.157  21.095  13.419
 5061W        W68785  31.466  20.259   1.867
 5062W        W68786   2.942  20.222   1.740
 5063W        W68787  17.637  10.337  14.983
 5064W        W68788   3.838  26.055   2.782
 5065W        W68789   7.311   9.710   4.707
 5066W        W68790   2.380  38.967  13.363
 5067W        W68791  42.984  14.140   0.816
 5068W        W68792  22.518  10.219  13.538
 5069W        W68793   4.269  29.636  14.336
 5070W        W68794  11.310  28.454  11.000
 5071W        W68795  21.656  43.857   1.795
 5072W        W68796  18.694   8.751  10.045
 5073W        W68797  18.133  11.279  13.440
 5074W        W68798  25.008  36.046  11.902
 5075W        W68799  41.486  27.571  12.438
 5076W        W68800  31.422   6.201  13.527
 5077W        W68801  40.494  13.157  12.987
 5078W        W68802  43.862   6.918   4.141
 5079W        W68803  16.112   8.368  11.091
 5080W        W68804   9.247  20.184  13.407
 5081W        W68805   9.293  34.863   2.742
 5082W        W68806  39.822   2.773  13.418
 5083W        W68807   7.713  39.357  11.023
 5084W        W68808  29.602  23.603   4.622
 5085W        W68809   2.742  32.947   0.883
 5086W        W68810  42.334  21.140  12.391
 5087W        W68811  24.087   3.454   3.733
 5088W        W68812   5.791  44.410  10.540
 5089W        W68813  25.990  11.678   2.755
 5090W        W68814  19.727  16.701   1.879
 5091W        W68815  41.856  35.431   3.356
 5092W        W68816  14.322  23.510  12.341
 5093W        W68817  37.541  35.916   3.184
 5094W        W68818  44.814  42.486  12.052
 5095W        W68819  36.388  15.687  11.590
 5096W        W68820   0.359  44.003   1.890
 5097W        W68821  29.570  26.077   3.253
 5098W        W68822  34.513  22.150  10.936
 5099W        W68823   9.827  24.589   4.325
 5100W        W68824  20.736  34.944   2.712
 5101W        W68825  22.251  20.137   0.729
 5102W        W68826  12.294  33.599  12.879
 5103W        W68827  32.888  31.414  11.953
 5104W        W68828  10.790   3.216   0.850
 5105W        W68829   1.751  26.700  14.276
 5106W        W68830  19.206  23.130   4.272
 5107W        W68831  35.575   9.243  15.000
 5108W        W68832   4.318  25.156   4.182
 5109W        W68833  30.931  18.734   2.232
 5110W        W68834   9.834  26.697  10.628
 5111W        W68835  10.741   0.326   2.764
 5112W        W68836   5.349  19.197   1.712
 5113W        W68837  34.524  23.574  12.939
 5114W        W68838  38.933  11.198  10.109
 5115W        W68839  28.122  31.445   2.873
 5116W        W68840  42.019  37.892  14.379
 5117W        W68841  34.057  42.433   4.618
 5118W        W68842  41.371  11.277   4.810
 5119W        W68843  37.549  30.926   3.789
 5120W        W68844  12.247   9.245   3.659
 5121W        W68845  26.085  19.178  11.069
 5122W        W68846  23.224  30.060  13.801
 5123W        W68847  33.451  32.401  10.012
 5124W        W68848   2.864  33.574  11.973
 5125W        W68849   9.654  28.518   4.726
 5126W        W68850  10.874  20.041  14.330
 5127W        W68851  14.208  17.680   0.430
 5128W        W68852   5.840  21.699  11.888
 5129W        W68853   3.439  33.000   2.408
 5130W        W68854  43.880  16.186   3.182
 5131W        W68855  17.230  14.784  12.005
 5132W        W68856  26.200  20.160   2.394
 5133W        W68857  21.162  10.724   1.733
 5134W        W68858  20.167  11.791  14.423
 5135W        W68859   7.292  43.974   2.734
 5136W        W68860  15.693   0.279   3.380
 5137W        W68861  10.283   2.382   4.271
 5138W        W68862  35.466  10.855  10.989
 5139W        W68863  37.875  37.966  10.997
 5140W        W68864  36.481  16.780   2.214
 5141W        W68865  21.579  22.726   4.638
 5142W        W68866  41.011  20.662   5.212
 5143W        W68867  26.023  27.946   4.175
 5144W        W68868   2.836  39.479   2.768
 5145W        W68869  43.796  13.177   0.269
 5146W        W68870  42.412  11.302  12.053
 5147W        W68871  44.472  35.026  10.120
 5148W        W68872  42.341  32.964  14.916
 5149W        W68873  42.873  43.395   3.866
 5150W        W68874  14.730  11.754   0.784
 5151W        W68875  26.175   5.767  13.408
 5152W        W68876  27.141   1.882   2.417
 5153W        W68877   1.854  38.524  12.857
 5154W        W68878  24.648  29.441  12.063
 5155W        W68879  25.585   9.349   3.726
 5156W        W68880  33.614  43.827   3.853
 5157W        W68881  39.445  35.024  14.962
 5158W        W68882  44.433  37.473   3.245
 5159W        W68883  31.542  16.686  13.801
 5160W        W68884  31.106  18.772   4.158
 5161W        W68885  39.861   8.228  11.378
 5162W        W68886   0.796  25.137  12.373
 5163W        W68887   1.861  36.520   4.260
 5164W        W68888  20.159  37.388   1.825
 5165W        W68889  13.706  21.134   2.728
 5166W        W68890  29.670  22.733  13.938
 5167W        W68891  14.727   5.393   2.261
 5168W        W68892  28.026  28.622  10.938
 5169W        W68893  13.754   1.814   5.243
 5170W        W68894  35.080  20.101  13.996
 5171W        W68895  33.082  37.346   0.843
 5172W        W68896  21.676   7.380  13.020
 5173W        W68897  42.286  33.035   5.751
 5174W        W68898   6.846  38.372   4.274
 5175W        W68899   8.230  12.209   0.910
 5176W        W68900  42.011  40.450   2.410
 5177W        W68901  17.100  34.535   4.275
 5178W        W68902  39.883   3.817  13.522
 5179W        W68903   8.697  31.105   1.924
 5180W        W68904   7.898  18.239  11.096
 5181W        W68905  25.658   2.296   0.864
 5182W        W68906  23.228  18.559  14.401
 5183W        W68907  42.958  41.463   2.258
 5184W        W68908  36.919  17.714   4.180
 5185W        W68909  37.068  36.505   4.349
 5186W        W68910  23.232   3.419   1.705
 5187W        W68911  20.651   7.181   1.326
 5188W        W68912  43.368  29.954  14.963
 5189W        W68913  15.718  17.227  10.636
 5190W        W68914  43.409  42.828   3.279
 5191W        W68915  16.721  25.568   0.277
 5192W        W68916  17.583  14.226   0.956
 5193W        W68917  43.941   3.844  11.373
 5194W        W68918  37.406  11.729   2.196
 5195W        W68919  23.596  12.330   3.263
 5196W        W68920  12.745  13.836   0.287
 5197W        W68921  27.455  39.843   4.166
 5198W        W68922  28.640  25.017  11.002
 5199W        W68923  10.658  43.313   1.823
 5200W        W68924  28.053  19.656   5.228
 5201W        W68925  11.233  31.565   2.413
 5202W        W68926  15.214   5.857   2.395
 5203W        W68927  40.949  23.087  10.919
 5204W        W68928  22.525  34.943  12.494
 5205W        W68929  22.672   3.247   2.331
 5206W        W68930   1.273   5.260   2.187
 5207W        W68931  28.615  14.335  11.578
 5208W        W68932  43.295  43.913   3.288
 5209W        W68933  37.575  42.937   3.647
 5210W        W68934  15.759  16.213   5.271
 5211W        W68935  38.986  43.778  13.806
 5212W        W68936  34.951  38.892   0.260
 5213W        W68937  40.531  32.032  14.794
 5214W        W68938  12.331   4.305   3.644
 5215W        W68939  16.145  30.472  13.004
 5216W        W68940  27.616  10.782   5.300
 5217W        W68941  14.738   8.835   5.271
 5218W        W68942  39.019  35.081  14.028
 5219W        W68943  27.577  36.904  14.333
 5220W        W68944  25.516  16.719  13.545
 5221W        W68945  39.831  36.367   5.283
 5222W        W68946   5.770  32.574  11.882
 5223W        W68947  32.598   9.676  13.904
 5224W        W68948  40.907  42.850  13.996
 5225W        W68949  22.503  28.655  11.992
 5226W        W68950  12.647   4.391  10.912
 5227W        W68951  33.970  38.395   3.350
 5228W        W68952  41.367  31.118   2.669
 5229W        W68953   7.814  13.703  12.070
 5230W        W68954  36.930   0.805   1.281
 5231W        W68955   0.480  23.079   2.213
 5232W        W68956   2.738  18.713  11.922
 5233W        W68957  27.952   0.858   3.796
 5234W        W68958  20.717  17.291  12.493
 5235W        W68959   2.809   3.814  14.374
 5236W        W68960   9.173   4.239   2.392
 5237W        W68961  29.613  23.574   1.746
 5238W        W68962   9.727   2.438   3.643
 5239W        W68963  22.687   7.275   4.167
 5240W        W68964  39.441  29.582   4.346
 5241W        W68965   4.340  32.443   3.304
 5242W        W68966   0.326  34.489   2.863
 5243W        W68967   5.759  31.925   4.157
 5244W        W68968  14.770  43.811  11.508
 5245W        W68969  11.844   3.917   3.747
 5246W        W68970   0.420  35.388  13.793
 5247W        W68971   7.244  40.826  11.962
 5248W        W68972  19.705   0.372   2.321
 5249W        W68973  23.551  34.032  11.019
 5250W        W68974   4.320  20.719  10.889
 5251W        W68975  28.021  37.924   4.230
 5252W        W68976   8.822   6.305   2.879
 5253W        W68977  16.610   2.861  13.959
 5254W        W68978   5.211   4.356  11.411
 5255W        W68979   5.391   6.192   3.824
 5256W        W68980  44.330  22.246   1.849
 5257W        W68981  15.266  18.564   2.219
 5258W        W68982  44.769  35.975  14.415
 5259W        W68983   1.422  28.435   3.168
 5260W        W68984  13.653  38.419   0.445
 5261W        W68985  10.350  14.792   3.293
 5262W        W68986  44.935  35.901   4.816
 5263W        W68987  28.043  30.652   3.195
 5264W        W68988  40.026  10.189  13.517
 5265W        W68989  15.769  30.654  14.309
 5266W        W68990   9.716   4.794   2.263
 5267W        W68991  36.872  32.411   3.796
 5268W        W68992  20.213  11.795  12.546
 5269W        W68993  34.032  34.605  13.855
 5270W        W68994   7.216  30.610  11.498
 5271W        W68995  25.607  31.641   3.773
 5272W        W68996  23.187  17.097   1.777
 5273W        W68997  20.249   4.287   1.927
 5274W        W68998  11.744  13.808  13.535
 5275W        W68999   3.227   5.302  14.387
 5276W        W69000   6.316  33.104   0.390
 5277W        W69001   2.410   2.363  12.918
 5278W        W69002  23.058  17.158   3.267
 5279W        W69003  25.627   3.911  10.522
 5280W        W69004  26.039  41.496   1.836
 5281W        W69005  11.799  11.641   3.697
 5282W        W69006  38.821  29.573   2.707
 5283W        W69007  34.585  16.072  12.350
 5284W        W69008  22.132   9.748   3.373
 5285W        W69009  43.896  37.359  10.916
 5286W        W69010  22.006  43.399  14.379
 5287W        W69011   0.782   9.877   1.926
 5288W        W69012   4.712   9.658  11.956
 5289W        W69013  25.992  17.247  10.555
 5290W        W69014  21.240  33.616   1.380
 5291W        W69015   0.295  15.628   0.757
 5292W        W69016  41.441  34.939   1.916
 5293W        W69017  42.965  20.710  13.431
 5294W        W69018  20.681  21.671  13.386
 5295W        W69019  19.571  39.882  14.874
 5296W        W69020  13.182  16.188  10.424
 5297W        W69021   1.331  43.847   1.437
 5298W        W69022   2.746   8.323  10.935
 5299W        W69023  18.659  19.576  14.346
 5300W        W69024  11.801   2.308  11.856
 5301W        W69025  40.400  26.167   4.682
 5302W        W69026  44.941  33.926  14.321
 5303W        W69027  41.461  34.881  14.275
 5304W        W69028  22.060  27.058   5.320
 5305W        W69029  29.092  41.311  13.901
 5306W        W69030  16.109  19.259   3.284
 5307W        W69031  15.324  10.782   1.264
 5308W        W69032  41.791  36.530  11.596
 5309W        W69033  28.075  11.365  14.888
 5310W        W69034  37.582  31.412   4.710
 5311W        W69035   3.773   7.336   3.201
 5312W        W69036  44.412  36.049  10.440
 5313W        W69037  38.012  16.732   2.811
 5314W        W69038  12.682   9.714   0.269
 5315W        W69039  19.117   2.758  11.532
 5316W        W69040  42.953  25.138  11.409
 5317W        W69041   1.973  40.345   2.297
 5318W        W69042  41.343  22.513   2.207
 5319W        W69043  21.699  28.087  13.309
 5320W        W69044  18.052  36.987   1.752
 5321W        W69045  31.430  30.999   3.384
 5322W        W69046   4.389  28.593  10.436
 5323W        W69047   2.881  43.856   2.807
 5324W        W69048  30.125  36.569   4.188
 5325W        W69049  17.765  22.129  14.829
 5326W        W69050  44.299  20.703  10.956
 5327W        W69051  10.690   7.703   4.801
 5328W        W69052  19.659  39.331   1.236
 5329W        W69053  44.918  19.091  11.514
 5330W        W69054  40.449  20.582   4.786
 5331W        W69055  13.726   9.675  10.891
 5332W        W69056  34.062  15.636   3.646
 5333W        W69057  44.390  41.442   5.152
 5334W        W69058  26.612   1.294  11.037
 5335W        W69059  21.658  33.569  13.027
 5336W        W69060   4.854  29.968  13.840
 5337W        W69061  37.971  27.001   0.281
 5338W        W69062  20.265  44.808  14.371
 5339W        W69063   7.881   4.433   3.775
 5340W        W69064  36.516  30.951  14.293
 5341W        W69065   9.786  28.935  12.386
 5342W        W69066  32.003   1.473  12.432
 5343W        W69067  29.514  34.380  12.477
 5344W        W69068  41.812   4.449  10.476
 5345W        W69069  25.623  15.737  14.490
 5346W        W69070  15.644   2.926   0.470
 5347W        W69071  25.563  44.900   2.825
 5348W        W69072   9.744  34.026   1.224
 5349W        W69073  27.961   9.312  14.779
 5350W        W69074   1.869  30.449  12.509
 5351W        W69075  28.636   0.978  14.453
 5352W        W69076  31.622  15.281   0.275
 5353W        W69077  31.980  18.190   3.374
 5354W        W69078  29.561  32.028  12.973
 5355W        W69079   4.229  27.460  10.505
 5356W        W69080   5.297  11.147   0.767
 5357W        W69081  11.637  32.031   0.324
 5358W        W69082  30.555   8.352  12.072
 5359W        W69083  25.585  32.470   2.295
 5360W        W69084  39.062  10.333  12.908
 5361W        W69085  29.540  33.430   0.871
 5362W        W69086  13.834   2.273   9.448
 5363W        W69087  17.786  13.660  14.941
 5364W        W69088  20.137  31.443   4.661
 5365W        W69089  31.557  41.916  12.534
 5366W        W69090   5.273  33.992  13.361
 5367W        W69091  31.152  42.846  13.521
 5368W        W69092  34.051  27.486  11.990
 5369W        W69093  28.636  25.492   0.394
 5370W        W69094  15.807  23.086   0.845
 5371W        W69095  19.551  16.314  11.068
 5372W        W69096   8.837  13.108   3.859
 5373W        W69097  43.993  37.841   4.213
 5374W        W69098  34.576  17.626   5.139
 5375W        W69099  11.130   3.832  11.506
 5376W        W69100  17.660  28.555  12.989
 5377W        W69101   1.972   1.832  13.499
 5378W        W69102  17.575   6.893  14.936
 5379W        W69103  34.515  35.050   1.391
 5380W        W69104  36.469  21.605  12.052
 5381W        W69105   1.745  24.179  10.435
 5382W        W69106   6.808   0.382  14.903
 5383W        W69107   7.376  44.332  10.412
 5384W        W69108  10.845  28.578  11.419
 5385W        W69109  24.184   9.850   4.831
 5386W        W69110  35.917  41.981  10.451
 5387W        W69111   7.909  32.624   0.743
 5388W        W69112  21.180   4.754  12.938
 5389W        W69113  41.802   7.666   0.268
 5390W        W69114   6.212  10.218   3.862
 5391W        W69115  11.193  18.103  13.544
 5392W        W69116  17.239   1.270   1.808
 5393W        W69117  37.343   1.342   0.946
 5394W        W69118  22.698  13.748  11.065
 5395W        W69119  44.364  10.732   3.672
 5396W        W69120  39.319   1.769   1.359
 5397W        W69121  12.167  23.596  13.328
 5398W        W69122  43.841  14.251  11.086
 5399W        W69123  26.565  38.365   0.913
 5400W        W69124  32.023  32.612  14.335
 5401W        W69125  40.410  12.756   3.864
 5402W        W69126   9.157   4.289   0.462
 5403W        W69127   3.239  30.022   2.746
 5404W        W69128  30.099   5.879   3.636
 5405W        W69129   0.811   7.329  10.990
 5406W        W69130  44.360  17.654   4.321
 5407W        W69131   6.295  30.550   4.275
 5408W        W69132  18.254   2.244   2.684
 5409W        W69133  37.341   2.735   0.406
 5410W        W69134  15.722   9.655  10.026
 5411W        W69135  39.978  13.624   4.653
 5412W        W69136   2.792   8.389   1.343
 5413W        W69137   8.888  16.148   4.123
 5414W        W69138  32.885  15.182  12.094
 5415W        W69139   0.375  11.334   0.881
 5416W        W69140  11.182  20.696  13.462
 5417W        W69141  26.013  15.656  11.559
 5418W        W69142  28.565  17.604   1.716
 5419W        W69143  37.085  21.725  10.492
 5420W        W69144  10.197  23.602   0.350
 5421W        W69145  42.345  16.318   3.694
 5422W        W69146  36.452  43.781   2.412
 5423W        W69147  31.123   8.269   3.217
 5424W        W69148  27.677  34.866  12.009
 5425W        W69149  19.173  35.990  14.417
 5426W        W69150   5.806   5.263   1.787
 5427W        W69151  15.201  10.331  10.912
 5428W        W69152  38.880   6.294  11.605
 5429W        W69153  29.439  44.816   4.290
 5430W        W69154  24.538   9.254   3.306
 5431W        W69155  38.878  27.611  11.984
 5432W        W69156  35.908  24.510  12.468
 5433W        W69157   6.747  39.923   1.256
 5434W        W69158  15.171  27.501   1.905
 5435W        W69159  34.574  23.231  10.634
 5436W        W69160  14.202   6.747   9.971
 5437W        W69161  42.911  33.552   0.408
 5438W        W69162  24.103  15.641   0.943
 5439W        W69163   6.217  25.976  10.057
 5440W        W69164  20.667   1.275  11.383
 5441W        W69165  18.107  28.620  12.041
 5442W        W69166  17.120  37.043   0.910
 5443W        W69167  27.077   6.297  13.993
 5444W        W69168   9.821  12.763  14.901
 5445W        W69169  12.299   6.221  10.065
 5446W        W69170  22.028   1.326  13.453
 5447W        W69171  26.147  31.962  12.467
 5448W        W69172  21.079  27.554   2.869
 5449W        W69173   3.441  37.877   2.740
 5450W        W69174   2.821  30.494   2.275
 5451W        W69175  28.534  24.175  11.546
 5452W        W69176  10.269  33.545  14.855
 5453W        W69177  31.428  23.708   0.417
 5454W        W69178  28.124   7.701  11.396
 5455W        W69179  24.698  12.151   0.956
 5456W        W69180  20.708   7.822   0.746
 5457W        W69181  41.841  44.483  14.414
 5458W        W69182  10.787   0.290  14.802
 5459W        W69183  27.009  39.021   2.745
 5460W        W69184  14.667   9.809  12.510
 5461W        W69185  29.164   5.206  10.575
 5462W        W69186  17.769  29.433  11.395
 5463W        W69187   8.385  41.891   2.872
 5464W        W69188  26.110  10.832  14.903
 5465W        W69189  39.405   2.264  11.519
 5466W        W69190  34.071  33.114   4.790
 5467W        W69191   7.186   8.266  11.858
 5468W        W69192  35.420  19.096   2.900
 5469W        W69193  22.673  31.466   0.321
 5470W        W69194  37.015  22.098  13.461
 5471W        W69195  17.720  13.755  10.145
 5472W        W69196  11.257   9.238   0.301
 5473W        W69197  27.020  10.177  13.335
 5474W        W69198   1.337  38.947  12.933
 5475W        W69199  10.701  38.038  14.827
 5476W        W69200   7.230  43.820   1.770
 5477W        W69201  29.468  13.745  11.866
 5478W        W69202  35.518  10.329  14.832
 5479W        W69203  31.511  32.630  12.563
 5480W        W69204  34.107  40.383  10.630
 5481W        W69205  31.452  36.457   3.187
 5482W        W69206  31.535  27.572  10.485
 5483W        W69207   1.289  24.714   0.816
 5484W        W69208  21.176  31.008  10.939
 5485W        W69209  38.423  33.526   2.722
 5486W        W69210   9.195  13.757  10.638
 5487W        W69211  37.959   5.357  13.466
 5488W        W69212  14.198  32.477  11.973
 5489W        W69213  12.811  34.561  11.478
 5490W        W69214  25.620   9.298  12.458
 5491W        W69215  32.904  20.129   4.678
 5492W        W69216  18.229  29.945   3.259
 5493W        W69217  27.471  41.534  11.904
 5494W        W69218  25.590  42.828  14.513
 5495W        W69219   6.844  44.417  12.562
 5496W        W69220   2.888  22.025  14.909
 5497W        W69221   7.859  15.231   1.348
 5498W        W69222  37.445  31.997  10.920
 5499W        W69223  38.475  15.737  14.823
 5500W        W69224  18.717  18.669  10.493
 5501W        W69225  44.345  24.133  13.046
 5502W        W69226  27.056  42.010  12.382
 5503W        W69227  30.144  33.415  14.514
 5504W        W69228  37.456   8.314   3.794
 5505W        W69229  15.771  36.097  11.604
 5506W        W69230  16.792  38.473  10.432
 5507W        W69231   0.487  22.607   4.291
 5508W        W69232  12.127  33.511   4.823
 5509W        W69233  44.754   5.924  11.593
 5510W        W69234  33.595  16.193   1.332
 5511W        W69235  36.941  11.864   4.790
 5512W        W69236  41.803   8.388  14.508
 5513W        W69237  12.643  27.943  11.471
 5514W        W69238  38.334   6.793   4.638
 5515W        W69239   6.354  20.034  12.448
 5516W        W69240  39.920  26.072  14.365
 5517W        W69241   7.358   8.370  10.444
 5518W        W69242   1.889  27.507   4.170
 5519W        W69243   3.353  25.133  11.945
 5520W        W69244  10.850   0.936   1.831
 5521W        W69245  20.251  34.871   1.325
 5522W        W69246  19.190  11.651  12.032
 5523W        W69247   0.443  10.283   1.881
 5524W        W69248  33.976  39.400  11.495
 5525W        W69249  13.659  37.383  12.552
 5526W        W69250  34.386  44.864   1.300
 5527W        W69251  17.644  20.085  12.404
 5528W        W69252  34.584  25.579   4.349
 5529W        W69253  26.132   7.177   3.202
 5530W        W69254  31.625  24.515  14.339
 5531W        W69255  30.540   8.879   3.860
 5532W        W69256  22.224  10.309  10.969
 5533W        W69257  36.040  24.119  14.474
 5534W        W69258  20.584  26.165  11.926
 5535W        W69259   6.415   7.390   0.726
 5536W        W69260  18.190  34.863  14.931
 5537W        W69261   0.408  43.969  12.453
 5538W        W69262   6.389  28.474  13.892
 5539W        W69263   6.226  21.711   2.823
 5540W        W69264  27.150  42.862   2.678
 5541W        W69265   2.369   2.862   1.862
 5542W        W69266   0.800   2.921  11.445
 5543W        W69267  14.187  33.552  14.294
 5544W        W69268  17.593  42.859   0.478
 5545W        W69269  21.018   4.234   2.405
 5546W        W69270  42.292  13.187  12.405
 5547W        W69271  38.367  24.724   2.345
 5548W        W69272  14.103  40.356   2.778
 5549W        W69273   1.359  33.007   4.326
 5550W        W69274  36.082  22.084  14.336
 5551W        W69275  33.534  12.610  11.483
 5552W        W69276  19.540  44.405  12.560
 5553W        W69277   4.411  16.187  13.337
 5554W        W69278  10.185  15.707  12.417
 5555W        W69279  32.892   8.737   3.865
 5556W        W69280  33.899  15.157   5.731
 5557W        W69281  10.222  38.427  12.863
 5558W        W69282  34.935  23.558  13.048
 5559W        W69283  24.557   7.312  12.841
 5560W        W69284  24.003   3.733  14.829
 5561W        W69285   8.297  25.601  13.002
 5562W        W69286  43.853  31.602   0.950
 5563W        W69287   2.304  32.441   2.892
 5564W        W69288  31.970  25.470   2.257
 5565W        W69289  26.521  12.289  13.041
 5566W        W69290  20.174  33.533   1.790
 5567W        W69291   1.764  25.662   2.338
 5568W        W69292   6.264  16.612   3.286
 5569W        W69293  26.124  26.095  12.523
 5570W        W69294   8.889  37.060   4.174
 5571W        W69295  13.298   7.831  12.505
 5572W        W69296  31.421  34.015  10.999
 5573W        W69297  33.094  36.052   1.797
 5574W        W69298  41.843  38.376  14.029
 5575W        W69299  37.071  14.306   1.770
 5576W        W69300  32.965  23.193  11.493
 5577W        W69301  32.979  30.469   3.346
 5578W        W69302  25.505  30.015  13.447
 5579W        W69303   9.863  33.422   3.721
 5580W        W69304  16.736  41.374  12.497
 5581W        W69305  13.611  32.393   2.193
 5582W        W69306  33.547  33.467   0.436
 5583W        W69307  21.755  44.953   2.848
 5584W        W69308  30.430   7.787  11.038
 5585W        W69309  12.220  32.564   3.865
 5586W        W69310  31.044  17.764  12.010
 5587W        W69311  21.753  41.998   3.214
 5588W        W69312   5.802  18.764  12.981
 5589W        W69313  32.926  17.727   2.863
 5590W        W69314  10.310  44.764   3.360
 5591W        W69315  20.686  12.662   2.275
 5592W        W69316  38.361   8.808  10.551
 5593W        W69317  27.062   6.392   4.165
 5594W        W69318  34.538  39.019   1.450
 5595W        W69319  34.543  14.704  11.585
 5596W        W69320  26.473  16.217   0.253
 5597W        W69321   2.298  35.055  12.096
 5598W        W69322  13.279  14.124  14.378
 5599W        W69323  40.833  18.153  10.947
 5600W        W69324  30.059   0.306   0.750
 5601W        W69325  35.091  28.030  12.990
 5602W        W69326  14.770   8.800  13.809
 5603W        W69327  22.732  24.600  11.383
 5604W        W69328  10.152  19.555   3.273
 5605W        W69329   8.401   8.704  13.328
 5606W        W69330  15.823  20.710   1.382
 5607W        W69331  22.078   9.292   2.690
 5608W        W69332  17.715  42.371  14.950
 5609W        W69333   7.223   7.768   0.350
 5610W        W69334  21.650  30.130   2.290
 5611W        W69335  44.475   8.891  12.943
 5612W        W69336  43.018  24.490  10.579
 5613W        W69337  32.499  28.036   1.357
 5614W        W69338  12.785  26.029   1.894
 5615W        W69339   8.662  29.014  14.510
 5616W        W69340  37.449  20.765   0.885
 5617W        W69341  28.077  24.522   1.366
 5618W        W69342  12.612  27.953  12.442
 5619W        W69343  11.663  33.572  10.008
 5620W        W69344  22.173   8.198   2.271
 5621W        W69345  42.934  34.962  10.448
 5622W        W69346  18.599  25.612   3.850
 5623W        W69347   9.229  43.776  12.030
 5624W        W69348   9.242  14.136   2.760
 5625W        W69349   4.234  24.064  13.048
 5626W        W69350   5.733   1.250   2.247
 5627W        W69351  31.943  38.496   1.812
 5628W        W69352  35.572  38.828  11.962
 5629W        W69353  41.295  25.014  10.090
 5630W        W69354  35.459  36.421   1.261
 5631W        W69355  11.181  44.941  14.022
 5632W        W69356  30.159  26.965   0.882
 5633W        W69357  26.654  29.940   0.390
 5634W        W69358   8.332  35.875  14.319
 5635W        W69359   9.182  15.710   4.684
 5636W        W69360  24.507  40.505  14.910
 5637W        W69361  17.754  24.655  14.315
 5638W        W69362  14.648   4.214   4.805
 5639W        W69363  14.233  25.110  10.082
 5640W        W69364  27.544  42.949   3.202
 5641W        W69365  20.704  43.347   1.781
 5642W        W69366  23.149   0.468  10.608
 5643W        W69367   8.839  25.115   3.680
 5644W        W69368  14.292   2.768  12.052
 5645W        W69369  33.487  32.042   1.343
 5646W        W69370  42.848  17.665   4.328
 5647W        W69371  41.524   2.249  13.913
 5648W        W69372  42.472  43.920   5.235
 5649W        W69373  15.733  42.518   1.345
 5650W        W69374  42.875   0.959   4.832
 5651W        W69375   8.242   7.386  12.441
 5652W        W69376  28.465  19.715  13.834
 5653W        W69377  22.053  25.613  14.327
 5654W        W69378   8.755   8.186  12.038
 5655W        W69379  38.550   8.387  14.383
 5656W        W69380  35.989  23.524  14.275
 5657W        W69381  43.352  44.949  14.903
 5658W        W69382  22.655  19.684   1.748
 5659W        W69383   9.334   1.904  10.567
 5660W        W69384  30.958   8.850   2.899
 5661W        W69385   4.345  20.070   1.890
 5662W        W69386  17.139  40.525  14.969
 5663W        W69387  16.603   3.419   5.258
 5664W        W69388  17.720   6.917   0.828
 5665W        W69389  28.602  40.961  14.319
 5666W        W69390  13.138  31.904   1.287
 5667W        W69391  21.641  42.301   3.366
 5668W        W69392  21.619  26.118   0.424
 5669W        W69393  30.926  26.178   0.334
 5670W        W69394  32.586  10.797   4.231
 5671W        W69395  38.915  21.580  12.951
 5672W        W69396   4.227  28.569  13.794
 5673W        W69397  28.533  11.868   3.764
 5674W        W69398  16.104  41.908   1.449
 5675W        W69399   5.812  18.645   3.861
 5676W        W69400  21.099  32.031  10.416
 5677W        W69401  30.418  27.175   0.382
 5678W        W69402  25.056  15.739   3.844
 5679W        W69403  18.732  38.921   4.660
 5680W        W69404  27.687  39.385   1.346
 5681W        W69405  35.574   6.229   3.383
 5682W        W69406   1.770  41.974  11.928
 5683W        W69407  25.470  20.174   0.910
 5684W        W69408  41.348  40.808  10.638
 5685W        W69409  21.035   6.390  11.568
 5686W        W69410  27.072  41.943   2.210
 5687W        W69411  38.982  24.596   4.800
 5688W        W69412   4.361  42.030   1.319
 5689W        W69413  41.025  25.626  13.877
 5690W        W69414  42.776  30.587  10.626
 5691W        W69415   5.229   1.391   2.219
 5692W        W69416   9.385   8.835  13.446
 5693W        W69417  14.670  21.068   2.415
 5694W        W69418  13.335  25.670   3.228
 5695W        W69419  37.552  10.702   4.157
 5696W        W69420  32.996   8.343   3.188
 5697W        W69421   8.354  14.137   3.739
 5698W        W69422  30.159  24.054   2.877
 5699W        W69423  21.743  23.627   0.762
 5700W        W69424  43.883  15.234  12.487
 5701W        W69425   7.892  17.757   3.652
 5702W        W69426  33.061  21.630   1.448
 5703W        W69427  32.004  32.957  13.490
 5704W        W69428  24.117  34.098  12.371
 5705W        W69429  34.087  27.590  11.586
 5706W        W69430  37.353  39.007  14.276
 5707W        W69431  34.584   2.384   4.158
 5708W        W69432  30.481   6.680   0.376
 5709W        W69433  39.456  11.135   4.202
 5710W        W69434   9.705  22.677  11.903
 5711W        W69435  33.911  29.108  11.985
 5712W        W69436  39.926  29.437   4.767
 5713W        W69437   9.870  35.918  14.407
 5714W        W69438  27.570  37.556  13.498
 5715W        W69439   8.758  30.423   0.382
 5716W        W69440  37.987  27.970  12.071
 5717W        W69441  21.541  19.668  14.936
 5718W        W69442  32.021  14.723   0.800
 5719W        W69443   7.264   3.824   4.219
 5720W        W69444   5.296  21.597  13.489
 5721W        W69445   9.733  33.394  12.899
 5722W        W69446  30.117  23.003   3.329
 5723W        W69447  18.717   3.724   2.814
 5724W        W69448  11.278  24.488   0.813
 5725W        W69449   2.758  28.003   1.408
 5726W        W69450  32.431  19.607   5.123
 5727W        W69451  32.025  32.535  14.938
 5728W        W69452  29.643  33.884   2.207
 5729W        W69453  42.483  31.095   3.671
 5730W        W69454  38.536  21.207  14.763
 5731W        W69455  38.499   2.872   3.783
 5732W        W69456   4.864  13.649   4.220
 5733W        W69457  39.378  25.079   4.319
 5734W        W69458  15.289   4.285   4.211
 5735W        W69459   5.835  42.339  13.812
 5736W        W69460   2.228  36.042  13.926
 5737W        W69461  15.267  42.022   4.681
 5738W        W69462  22.545   5.337  14.347
 5739W        W69463   5.324  39.501   4.778
 5740W        W69464  20.616  16.628   0.957
 5741W        W69465   4.713  20.556  10.055
 5742W        W69466  23.621  13.721   3.238
 5743W        W69467  10.166   7.412   0.813
 5744W        W69468  29.470  22.537  12.419
 5745W        W69469  38.856  29.445  14.352
 5746W        W69470  10.825  41.829  11.007
 5747W        W69471  34.927  38.884   5.271
 5748W        W69472   1.367  21.259  11.530
 5749W        W69473  17.244   7.835  10.108
 5750W        W69474  10.797  10.811   9.654
 5751W        W69475  37.452  34.101   1.814
 5752W        W69476  23.007  40.361  10.889
 5753W        W69477  18.664  41.001  10.972
 5754W        W69478  15.602  23.614   9.995
 5755W        W69479  32.142  11.330   2.367
 5756W        W69480   5.890  13.793  13.893
 5757W        W69481  39.816   5.920  12.576
 5758W        W69482   2.835  37.850   2.807
 5759W        W69483  35.996  15.285  13.401
 5760W        W69484  34.869   5.773  10.615
 5761W        W69485   9.673  42.991  12.389
 5762W        W69486  37.956  33.939  12.076
 5763W        W69487  26.553  15.664   5.320
 5764W        W69488  33.111  38.486   3.681
 5765W        W69489  43.876  15.802   1.341
 5766W        W69490  39.824   1.389   4.784
 5767W        W69491   0.777  41.471   4.188
 5768W        W69492  12.754  29.098   1.750
 5769W        W69493  21.021  17.702  11.596
 5770W        W69494  21.058  32.133  11.446
 5771W        W69495  34.611  42.500   2.180
 5772W        W69496  39.046  40.825  13.964
 5773W        W69497   7.385   9.759   5.181
 5774W        W69498  16.736  38.484   3.825
 5775W        W69499  12.690  41.317  10.488
 5776W        W69500  11.143  31.900  11.867
 5777W        W69501   8.703   5.285  14.850
 5778W        W69502   5.800  42.815   2.312
 5779W        W69503   2.930  34.480   3.177
 5780W        W69504  18.235  11.291   0.423
 5781W        W69505   4.294  43.399   1.268
 5782W        W69506  25.185   0.749   3.833
 5783W        W69507  31.560  25.514   2.258
 5784W        W69508  19.202  31.032  13.834
 5785W        W69509  19.763  15.800  12.872
 5786W        W69510  26.630  15.646  11.914
 5787W        W69511  15.656  29.125   1.329
 5788W        W69512  25.615  33.508   2.723
 5789W        W69513  13.665  42.420   0.823
 5790W        W69514   5.775   7.677   3.800
 5791W        W69515  15.310  11.223   1.812
 5792W        W69516   7.315  13.216  11.002
 5793W        W69517  21.689   3.766   1.363
 5794W        W69518  22.232  37.460   4.792
 5795W        W69519  21.601  19.197  13.417
 5796W        W69520  22.591   6.373   4.222
 5797W        W69521  43.425  44.372   0.413
 5798W        W69522   3.309  11.711  14.323
 5799W        W69523  19.753  44.441  13.368
 5800W        W69524  22.571  44.929  10.584
 5801W        W69525  24.995   3.926   4.236
 5802W        W69526  40.331  19.737   3.360
 5803W        W69527  31.501   4.397   4.140
 5804W        W69528  36.526  39.890   1.879
 5805W        W69529   0.762  22.250   1.807
 5806W        W69530  20.704  18.743   1.319
 5807W        W69531  26.106  15.202   4.711
 5808W        W69532  16.713  15.633   0.427
 5809W        W69533  36.405  29.437   0.879
 5810W        W69534   5.303  35.865  11.120
 5811W        W69535   2.257  18.129  11.033
 5812W        W69536  16.785  19.712  12.398
 5813W        W69537  19.708  21.523  11.967
 5814W        W69538  19.674  25.988  11.074
 5815W        W69539   3.320  24.522   1.350
 5816W        W69540   9.829   2.269   4.673
 5817W        W69541  34.446   4.787  11.379
 5818W        W69542  41.517   1.928   3.781
 5819W        W69543  43.937   8.893  10.641
 5820W        W69544  12.774  29.442   0.927
 5821W        W69545  16.654  40.866  12.474
 5822W        W69546   8.335   8.241  13.320
 5823W        W69547  24.573  11.147  14.471
 5824W        W69548   3.806  38.428  14.896
 5825W        W69549   1.909  35.476   2.333
 5826W        W69550   0.493  16.740   4.257
 5827W        W69551  21.561  43.892   4.255
 5828W        W69552   7.293  32.517   1.276
 5829W        W69553  24.163  17.793   4.754
 5830W        W69554  17.688  20.156   1.811
 5831W        W69555  32.913  41.387  14.286
 5832W        W69556  15.109  33.117  13.542
 5833W        W69557  31.995  34.101  10.905
 5834W        W69558  31.981  10.352   1.756
 5835W        W69559  33.495   8.290   1.446
 5836W        W69560  20.640  23.041  14.481
 5837W        W69561   9.650  31.092   2.303
 5838W        W69562  40.303  39.402  14.418
 5839W        W69563  20.656  29.071   4.762
 5840W        W69564  23.502  32.101   3.812
 5841W        W69565   0.292  41.002   4.315
 5842W        W69566   6.234  21.753   0.374
 5843W        W69567  32.616   2.817   2.207
 5844W        W69568  12.794  26.022   4.348
 5845W        W69569  31.494  10.877  13.882
 5846W        W69570  33.557  44.373  11.935
 5847W        W69571  30.011  19.705  12.034
 5848W        W69572   6.871  33.890   3.703
 5849W        W69573  14.163  41.942   2.824
 5850W        W69574  10.707  18.184   0.287
 5851W        W69575   5.802  10.661   3.756
 5852W        W69576  18.706  36.003  13.042
 5853W        W69577  10.867  42.500   2.692
 5854W        W69578  22.026  18.646  13.828
 5855W        W69579   2.816  14.663   3.790
 5856W        W69580  21.256  36.489   4.325
 5857W        W69581  20.073  16.723  10.540
 5858W        W69582  13.291  30.618   0.431
 5859W        W69583  29.483  38.480  12.407
 5860W        W69584  32.933  21.656  10.438
 5861W        W69585  32.477  37.350   0.374
 5862W        W69586   7.849  13.267   5.299
 5863W        W69587   8.761  44.339  13.916
 5864W        W69588  29.968  14.738  14.916
 5865W        W69589   8.806   0.923  10.631
 5866W        W69590  12.212   0.399   1.213
 5867W        W69591   9.717  33.947   0.755
 5868W        W69592  20.635  27.087   0.375
 5869W        W69593  40.025  10.234  10.465
 5870W        W69594  35.411   1.935  12.959
 5871W        W69595  29.996  15.117   1.866
 5872W        W69596  31.080  37.076   2.266
 5873W        W69597  23.510  35.590   3.712
 5874W        W69598  24.150  19.681  10.545
 5875W        W69599  30.086   5.790   1.295
 5876W        W69600   9.867  42.004   2.722
 5877W        W69601  28.039   3.224  14.399
 5878W        W69602  18.198  32.123   1.307
 5879W        W69603   7.735  33.030   2.286
 5880W        W69604  43.381   1.267  13.454
 5881W        W69605  12.211   2.258   4.337
 5882W        W69606  43.926  35.586   4.116
 5883W        W69607  27.945   6.367   4.144
 5884W        W69608  34.990   2.772   0.347
 5885W        W69609   7.373  36.564   3.206
 5886W        W69610  26.064  41.427   3.802
 5887W        W69611  12.788  14.153  12.960
 5888W        W69612  20.188  32.014   2.714
 5889W        W69613   1.333  30.464  14.437
 5890W        W69614  12.322  21.032  10.915
 5891W        W69615   9.748   7.877  14.026
 5892W        W69616  42.976  22.668  13.940
 5893W        W69617  35.498  13.615   4.342
 5894W        W69618  42.336  13.740   1.861
 5895W        W69619  24.681   1.741   3.337
 5896W        W69620  39.462  42.465   0.444
 5897W        W69621  33.069  19.552  10.551
 5898W        W69622   3.936  28.495  12.835
 5899W        W69623  38.545   6.398   3.260
 5900W        W69624  18.568  18.677   2.298
 5901W        W69625  32.999  24.488  10.972
 5902W        W69626  31.944   7.387   2.823
 5903W        W69627   5.409  29.094  13.542
 5904W        W69628  16.576  15.184  10.557
 5905W        W69629  40.041   0.890  11.871
 5906W        W69630  28.064  22.500   3.194
 5907W        W69631  16.596  18.277   1.345
 5908W        W69632  10.187  17.628   0.476
 5909W        W69633  12.321  13.276   1.375
 5910W        W69634  21.189  41.396   2.259
 5911W        W69635  26.631   3.810  11.870
 5912W        W69636   3.777  38.933   4.677
 5913W        W69637  27.163   3.854   4.250
 5914W        W69638  26.207  19.088   3.814
 5915W        W69639  16.115  37.457   1.753
 5916W        W69640  28.448  17.587  12.918
 5917W        W69641  26.142  42.450  11.534
 5918W        W69642  15.324  34.008  10.569
 5919W        W69643  15.094  26.697  13.812
 5920W        W69644  18.655   2.324   0.879
 5921W        W69645  26.191  26.486  13.548
 5922W        W69646  17.265  38.928  11.054
 5923W        W69647  28.120  34.407  14.884
 5924W        W69648  26.141  12.665   3.205
 5925W        W69649  19.104  30.565  12.014
 5926W        W69650  15.706  44.475  14.888
 5927W        W69651  10.201  19.248   3.230
 5928W        W69652  28.995  35.012  14.371
 5929W        W69653  44.854  16.764  12.954
 5930W        W69654   3.310  33.100   0.930
 5931W        W69655  16.110  22.132  13.495
 5932W        W69656  30.524  25.687   2.408
 5933W        W69657   4.282  18.140  13.351
 5934W        W69658  41.916  10.172  12.847
 5935W        W69659  25.661  41.978  13.314
 5936W        W69660  29.606   1.753  14.833
 5937W        W69661  27.176  22.533   9.975
 5938W        W69662   5.919   2.760   1.761
 5939W        W69663  17.576  21.057   4.316
 5940W        W69664  44.298  33.477   4.834
 5941W        W69665  21.565  21.060  12.390
 5942W        W69666   2.902  27.147   4.187
 5943W        W69667   0.805  28.151   4.626
 5944W        W69668  36.877  41.890   1.284
 5945W        W69669  12.323  43.514  14.503
 5946W        W69670   0.744  18.624   3.806
 5947W        W69671  30.644  14.151   3.752
 5948W        W69672  36.994  27.105  11.913
 5949W        W69673  11.645   7.217  11.380
 5950W        W69674  13.326  14.292  14.021
 5951W        W69675  29.596  39.954   3.818
 5952W        W69676  35.569  34.548   0.886
 5953W        W69677  38.460  38.931   4.226
 5954W        W69678  15.303  10.874  12.444
 5955W        W69679  34.471  35.583  13.848
 5956W        W69680  27.056   8.326  11.451
 5957W        W69681  42.443   7.888  14.988
 5958W        W69682  35.024  32.617  10.975
 5959W        W69683  42.345  25.476  13.467
 5960W        W69684  26.509  30.565   4.734
 5961W        W69685   8.161  28.036   4.347
 5962W        W69686  28.988  12.170   0.309
 5963W        W69687  20.544  10.208   4.835
 5964W        W69688   5.195   8.378  11.027
 5965W        W69689   0.971  30.911   3.851
 5966W        W69690  32.520   7.189  12.448
 5967W        W69691  31.113  13.200  13.930
 5968W        W69692   4.867  21.160  12.558
 5969W        W69693   4.799  34.483  14.977
 5970W        W69694   3.292   8.381   1.772
 5971W        W69695  40.944  27.942  11.068
 5972W        W69696  40.878  10.656   3.816
 5973W        W69697  11.812   0.460  11.054
 5974W        W69698   1.868  12.270   0.883
 5975W        W69699  22.103  32.885   1.262
 5976W        W69700  42.004   8.787   4.201
 5977W        W69701   7.675   7.879  12.427
 5978W        W69702  29.099  43.969   4.132
 5979W        W69703  18.552  40.849   2.746
 5980W        W69704  43.885   6.344   0.835
 5981W        W69705   9.838  16.166  12.490
 5982W        W69706   2.876  39.995  11.472
 5983W        W69707  38.441  17.685   1.890
 5984W        W69708  10.852  12.650   1.269
 5985W        W69709  36.971  31.904  14.986
 5986W        W69710  37.538  25.710   0.862
 5987W        W69711   4.826  14.616  14.888
 5988W        W69712  16.269  21.238   2.400
 5989W        W69713  25.962  17.299   2.247
 5990W        W69714   3.364   4.437   3.347
 5991W        W69715  28.015  13.648  13.441
 5992W        W69716   4.862  14.218   3.670
 5993W        W69717   3.351  10.646  11.033
 5994W        W69718  35.603  12.822  13.853
 5995W        W69719  28.957  19.246  14.457
 5996W        W69720  10.333  12.854  13.018
 5997W        W69721  38.830  24.124  13.049
 5998W        W69722  17.280   4.783  13.469
 5999W        W69723  14.118  42.881  10.408
 6000W        W69724  43.830  35.484   3.305
 6001W        W69725  20.589  42.456  13.912
 6002W        W69726  22.143   7.320  14.455
 6003W        W69727   1.279  43.910  11.110
 6004W        W69728  20.055  19.595   9.929
 6005W        W69729  42.943  34.383  12.416
 6006W        W69730  36.475  19.103   4.258
 6007W        W69731  15.746   2.281   0.856
 6008W        W69732  26.526  42.338   1.328
 6009W        W69733  23.202  28.125   9.489
 6010W        W69734   5.203   9.744  13.874
 6011W        W69735  29.100  10.265   4.645
 6012W        W69736  39.462   3.314  13.351
 6013W        W69737  17.785   1.933  13.827
 6014W        W69738  36.934  34.012  10.460
 6015W        W69739  31.602   4.416  11.488
 6016W        W69740  26.510   1.366  12.508
 6017W        W69741  10.876  38.569  12.067
 6018W        W69742  24.008  40.010  10.599
 6019W        W69743  31.928  19.203  14.469
 6020W        W69744  33.946   6.878   4.179
 6021W        W69745  17.246  24.135  13.516
 6022W        W69746  26.173  17.130   1.287
 6023W        W69747  37.077   4.715   2.687
 6024W        W69748  42.836  35.399   1.398
 6025W        W69749   9.654  20.048   1.283
 6026W        W69750  25.146   1.906  10.045
 6027W        W69751  15.244  29.059   0.744
 6028W        W69752  39.403  13.152  14.970
 6029W        W69753  20.700  18.282   4.737
 6030W        W69754  14.212  16.644   1.435
 6031W        W69755   4.722  41.502  13.310
 6032W        W69756  35.852  16.617  11.977
 6033W        W69757   9.683  19.058   0.760
 6034W        W69758  23.629  40.899  10.580
 6035W        W69759   2.453  34.053   4.300
 6036W        W69760  19.685  29.561   3.154
 6037W        W69761   3.783  36.394   1.334
 6038W        W69762  20.709  24.164   0.756
 6039W        W69763  31.984  44.002   1.885
 6040W        W69764   6.677  41.794  13.808
 6041W        W69765  41.988  24.502   0.450
 6042W        W69766  10.252  42.807  11.074
 6043W        W69767  41.839  14.659  10.626
 6044W        W69768  32.899  13.300   3.255
 6045W        W69769  15.628  22.634   4.194
 6046W        W69770  20.045   8.249   3.638
 6047W        W69771  33.617   0.425   3.318
 6048W        W69772  36.410  41.466  10.477
 6049W        W69773   6.915  38.489  10.967
 6050W        W69774  36.996   5.826  14.973
 6051W        W69775  22.599  10.250   2.674
 6052W        W69776  18.623  15.649   1.306
 6053W        W69777  37.028  17.772   2.303
 6054W        W69778   0.970  44.294  10.472
 6055W        W69779  19.693   6.257   0.885
 6056W        W69780  40.498  15.226  11.063
 6057W        W69781   4.260  33.473   3.358
 6058W        W69782  34.009  19.136  13.452
 6059W        W69783  42.971  20.155  14.504
 6060W        W69784  34.570  38.035   2.385
 6061W        W69785  39.815  12.641   4.288
 6062W        W69786  30.148  41.348  11.889
 6063W        W69787  17.711  24.108  13.346
 6064W        W69788   9.717  28.599   2.703
 6065W        W69789  13.318  41.984   4.783
 6066W        W69790  33.110   4.267  13.863
 6067W        W69791  23.174  24.481   1.815
 6068W        W69792   6.254   2.252   5.163
 6069W        W69793  20.653  28.963  11.986
 6070W        W69794  44.883  25.575  11.516
 6071W        W69795  15.591   7.896  10.426
 6072W        W69796  20.665  21.653   4.713
 6073W        W69797   3.892   0.461  14.909
 6074W        W69798  39.554  41.901   0.945
 6075W        W69799  15.700  41.427   3.807
 6076W        W69800  21.258  29.463   4.628
 6077W        W69801  10.704  10.181   1.922
 6078W        W69802  44.924  30.602  14.349
 6079W        W69803   8.267  19.040  10.423
 6080W        W69804  33.408  18.639   2.334
 6081W        W69805   9.354  37.502  13.879
 6082W        W69806  26.160  43.313  12.442
 6083W        W69807  43.334  20.611  10.972
 6084W        W69808  12.152  27.505  10.595
 6085W        W69809   3.824   6.814  10.554
 6086W        W69810   0.487  28.023   3.333
 6087W        W69811  21.248  25.021  10.556
 6088W        W69812   8.707  21.224  11.394
 6089W        W69813   6.239  42.439  13.041
 6090W        W69814   3.370  44.796  13.860
 6091W        W69815  34.466  14.743   1.780
 6092W        W69816  36.576  35.556  10.408
 6093W        W69817   9.284  28.535   2.226
 6094W        W69818  23.718  26.143   4.247
 6095W        W69819  41.299  12.642   3.708
 6096W        W69820   4.939  26.644  14.283
 6097W        W69821  17.692  28.021  13.984
 6098W        W69822   2.238  14.769  10.505
 6099W        W69823  35.030  27.464   1.923
 6100W        W69824  13.154  27.526  10.519
 6101W        W69825  41.916   2.289  14.859
 6102W        W69826  11.758  41.829  11.970
 6103W        W69827  28.516  35.420   3.211
 6104W        W69828  44.759   8.819   2.239
 6105W        W69829  44.335  19.249   4.696
 6106W        W69830   7.354  17.181   4.312
 6107W        W69831  27.654  39.863  10.519
 6108W        W69832  15.106  11.164  11.529
 6109W        W69833  35.478   0.989  14.864
 6110W        W69834  27.005  23.004   1.421
 6111W        W69835  41.384  40.996   4.836
 6112W        W69836   3.453   6.903  11.946
 6113W        W69837  33.455  29.022  11.085
 6114W        W69838  35.424  44.297  11.504
 6115W        W69839  19.112  15.132   5.133
 6116W        W69840  37.979  24.686   2.867
 6117W        W69841  29.995  34.430  10.491
 6118W        W69842   7.808  12.132  12.415
 6119W        W69843  35.947  28.975   1.343
 6120W        W69844  20.734  34.983  12.486
 6121W        W69845   5.816  18.751   4.800
 6122W        W69846   3.244  21.577  11.051
 6123W        W69847  11.325  30.932   4.351
 6124W        W69848  39.402  31.417   3.197
 6125W        W69849   0.926  37.526   3.147
 6126W        W69850   2.825  22.626  10.888
 6127W        W69851  37.363  44.763  10.430
 6128W        W69852  19.047  14.338  13.442
 6129W        W69853  13.160  38.077  13.391
 6130W        W69854  19.748  22.605  10.640
 6131W        W69855  27.620  24.157   0.363
 6132W        W69856  17.727  29.169   2.849
 6133W        W69857  28.595  40.430  11.519
 6134W        W69858  39.001  40.890  14.812
 6135W        W69859   2.285  14.333   2.677
 6136W        W69860   6.284  19.123   1.254
 6137W        W69861  26.553   3.233   3.717
 6138W        W69862  14.097  16.259  10.626
 6139W        W69863   2.936  24.133  12.993
 6140W        W69864   0.385  29.451   0.342
 6141W        W69865   5.729  14.244   0.330
 6142W        W69866  10.676  10.714  13.969
 6143W        W69867   9.235   3.950  10.431
 6144W        W69868  43.870  27.002   0.281
 6145W        W69869  22.221  39.019  13.903
 6146W        W69870  37.445  12.191   3.710
 6147W        W69871   6.301  28.936   1.803
 6148W        W69872  33.060   9.661  13.830
 6149W        W69873  44.763  21.049  14.441
 6150W        W69874  33.005   3.341   1.409
 6151W        W69875  14.308  22.060  14.967
 6152W        W69876  43.835  16.278  11.006
 6153W        W69877  19.670  19.552  11.552
 6154W        W69878  11.718  27.953  11.436
 6155W        W69879  13.167  31.045   2.287
 6156W        W69880  34.385  17.639   3.212
 6157W        W69881  12.826  43.855  10.959
 6158W        W69882   0.786  18.779   2.871
 6159W        W69883   8.741   7.742   4.821
 6160W        W69884  28.087  40.485  14.485
 6161W        W69885  14.697  17.763  12.359
 6162W        W69886  25.484   1.343  12.378
 6163W        W69887   0.932  33.075  11.450
 6164W        W69888  16.691  18.564  13.911
 6165W        W69889  11.686  34.865   2.282
 6166W        W69890  16.262   4.853   0.734
 6167W        W69891   4.728  38.981  14.318
 6168W        W69892  12.684  15.306   2.352
 6169W        W69893  25.153  41.306  12.943
 6170W        W69894  29.974   2.922   1.292
 6171W        W69895  24.691  27.470   4.728
 6172W        W69896  10.783   9.338   1.330
 6173W        W69897  32.091  23.528  12.910
 6174W        W69898  16.174  40.464   1.407
 6175W        W69899  17.580  29.012  14.452
 6176W        W69900  27.579  31.405  13.419
 6177W        W69901   0.449   6.682   4.207
 6178W        W69902  14.656  15.143   2.237
 6179W        W69903  44.799  35.877   0.352
 6180W        W69904  43.897  19.740   0.742
 6181W        W69905  32.000  23.581   0.741
 6182W        W69906  32.032   0.434   2.330
 6183W        W69907   9.678  35.006  11.956
 6184W        W69908   5.381   1.476   0.823
 6185W        W69909  30.936  20.560  13.977
 6186W        W69910  27.022  34.992  14.864
 6187W        W69911  31.055   0.336   3.300
 6188W        W69912  28.174  35.973  10.914
 6189W        W69913   7.274  13.274  14.298
 6190W        W69914  36.084  35.965  10.546
 6191W        W69915  41.355  22.606  12.025
 6192W        W69916   7.695  17.616  13.906
 6193W        W69917  19.606   4.934  14.893
 6194W        W69918  10.238  12.652   2.809
 6195W        W69919  25.514  40.443  12.969
 6196W        W69920  29.090  35.853   0.896
 6197W        W69921  17.692   5.270   3.199
 6198W        W69922  39.033  33.400  13.481
 6199W        W69923  12.673  42.522   1.783
 6200W        W69924   2.289  32.553   2.383
 6201W        W69925  18.589  41.479  10.492
 6202W        W69926  17.265   3.854  13.465
 6203W        W69927  41.359  29.129  11.595
 6204W        W69928  22.143  19.704   4.698
 6205W        W69929  17.207  24.106   2.868
 6206W        W69930  35.001   6.708   2.299
 6207W        W69931  42.022   9.806   0.375
 6208W        W69932  14.602  19.636   5.099
 6209W        W69933  21.752  14.759   4.644
 6210W        W69934  44.333  18.257  10.550
 6211W        W69935  43.369  27.095  11.002
 6212W        W69936  21.028   2.961  12.937
 6213W        W69937  24.212  29.619   2.349
 6214W        W69938  14.686  18.092   1.802
 6215W        W69939  15.221  10.633   2.244
 6216W        W69940  30.568  36.484  10.635
 6217W        W69941  15.184  41.796  12.085
 6218W        W69942  22.550   5.922   0.889
 6219W        W69943  37.083  31.097   3.827
 6220W        W69944  31.405  34.372   1.418
 6221W        W69945   2.361  31.986  12.458
 6222W        W69946  41.352  29.974  12.882
 6223W        W69947   9.383  12.244  14.917
 6224W        W69948  23.131  38.505   0.368
 6225W        W69949  21.177  30.129  14.021
 6226W        W69950  37.552  27.609  14.888
 6227W        W69951  17.289   5.891   3.383
 6228W        W69952  16.720  36.026  12.419
 6229W        W69953  22.579  17.297   3.191
 6230W        W69954   3.398   9.849  14.469
 6231W        W69955  23.043  44.376  14.492
 6232W        W69956  29.147  19.765  11.435
 6233W        W69957  13.153  39.895   0.861
 6234W        W69958  35.412  43.450   0.734
 6235W        W69959  22.132  27.064   0.908
 6236W        W69960  31.634   9.286  11.445
 6237W        W69961  11.827  37.393  13.481
 6238W        W69962   5.875  37.000  13.454
 6239W        W69963  15.287  34.444  12.832
 6240W        W69964  34.867   6.343  13.989
 6241W        W69965  35.989  23.705   4.253
 6242W        W69966  19.208  15.326  11.378
 6243W        W69967  31.150  27.145   1.376
 6244W        W69968  32.092  25.667   1.434
 6245W        W69969   9.380  29.159   2.787
 6246W        W69970  20.732  28.041   2.782
 6247W        W69971  24.520   3.274   0.358
 6248W        W69972  41.463   5.700   4.804
 6249W        W69973   0.846  32.428   4.339
 6250W        W69974   7.222  26.033  13.450
 6251W        W69975  34.402   0.358   2.666
 6252W        W69976  13.145  41.415  11.000
 6253W        W69977   0.770  32.402   3.830
 6254W        W69978  31.462  37.936  14.333
 6255W        W69979  28.951  37.078   0.318
 6256W        W69980  34.023  32.961  13.820
 6257W        W69981  40.498  44.816  12.868
 6258W        W69982  38.503   9.888   4.150
 6259W        W69983  19.040   8.285   3.704
 6260W        W69984   5.240   8.865   0.744
 6261W        W69985  41.364  15.202  12.963
 6262W        W69986   1.271  12.296   4.257
 6263W        W69987  22.129  31.022   1.832
 6264W        W69988  34.393  28.673   1.892
 6265W        W69989  23.650  31.487   0.270
 6266W        W69990  33.393  13.802   3.233
 6267W        W69991  28.602  35.986   3.843
 6268W        W69992  11.252  20.178   4.835
 6269W        W69993   7.301  14.275   1.340
 6270W        W69994  40.941  16.770   1.743
 6271W        W69995  23.514  33.879  13.383
 6272W        W69996  34.011  23.530  14.905
 6273W        W69997   5.692  36.443  13.842
 6274W        W69998  33.072  11.637  13.491
 6275W        W69999  22.238   0.325   0.846
 6276W        W70000  36.458  18.197  13.401
 6277W        W70001   4.270  30.555   0.779
 6278W        W70002  39.980  26.494  14.781
 6279W        W70003  13.328  24.590  10.556
 6280W        W70004  24.105  38.346  11.600
 6281W        W70005  29.104  15.793   0.378
 6282W        W70006   7.880  22.023   0.908
 6283W        W70007  39.440  32.117  11.480
 6284W        W70008  38.027  22.586   4.617
 6285W        W70009  22.677  28.641   4.154
 6286W        W70010   3.352  26.138  11.573
 6287W        W70011  23.065  38.821   2.892
 6288W        W70012  16.152  23.670  11.076
 6289W        W70013   0.438  34.897  11.481
 6290W        W70014  10.337  31.503  10.514
 6291W        W70015  13.293  16.094  12.966
 6292W        W70016   3.870  43.362   2.306
 6293W        W70017  10.650  41.940   4.700
 6294W        W70018  28.982  43.966  14.900
 6295W        W70019  44.813  27.964   0.386
 6296W        W70020  16.111   4.387   4.724
 6297W        W70021  19.651  39.420  10.062
 6298W        W70022  44.456  15.285  12.390
 6299W        W70023   9.787  44.504   1.815
 6300W        W70024  34.941   5.304   2.273
 6301W        W70025  29.014  39.504   1.211
 6302W        W70026   0.276   2.414   1.439
 6303W        W70027   8.348   7.797  11.879
 6304W        W70028  23.102  19.608   0.303
 6305W        W70029  28.650  11.129  14.989
 6306W        W70030  18.585  22.514  11.375
 6307W        W70031  31.408  15.290   5.108
 6308W        W70032  26.205  39.473   2.691
 6309W        W70033  16.309  30.559   5.140
 6310W        W70034  34.453  40.861  13.865
 6311W        W70035   2.341  15.257  14.891
 6312W        W70036   1.334   8.271   2.260
 6313W        W70037  33.889  43.309   0.860
 6314W        W70038   2.451  32.950  13.503
 6315W        W70039  26.032   0.415  12.552
 6316W        W70040  28.138  11.637  14.965
 6317W        W70041   9.783   2.379  12.869
 6318W        W70042  36.900  11.312  12.381
 6319W        W70043  37.473  25.676  14.759
 6320W        W70044   9.746  21.589   0.475
 6321W        W70045  41.424   0.935   2.306
 6322W        W70046  26.661  31.993  12.434
 6323W        W70047   6.244   6.681  11.039
 6324W        W70048   2.741  15.604  11.083
 6325W        W70049  42.964  30.931   1.298
 6326W        W70050  33.084  36.440  14.467
 6327W        W70051   2.854  24.115  10.618
 6328W        W70052  24.126  40.910   4.832
 6329W        W70053   5.801  37.076  14.014
 6330W        W70054  25.587  40.354   4.791
 6331W        W70055  38.414  13.646   2.308
 6332W        W70056  35.579  19.193   4.826
 6333W        W70057   4.423  16.641  14.405
 6334W        W70058  26.097  12.837  14.844
 6335W        W70059   0.885   8.280  13.024
 6336W        W70060   3.404  44.341  14.325
 6337W        W70061  36.979  10.229  14.759
 6338W        W70062  32.086  24.680  14.904
 6339W        W70063  10.665   1.919  12.487
 6340W        W70064  23.015   5.345  14.868
 6341W        W70065  13.699   8.780  11.969
 6342W        W70066  28.557   8.713   2.271
 6343W        W70067  16.243  38.391  13.930
 6344W        W70068  16.142  23.038  12.401
 6345W        W70069  39.850  20.763  13.375
 6346W        W70070  26.637  17.769   3.777
 6347W        W70071  40.861   6.917   1.428
 6348W        W70072  34.439  21.091  14.837
 6349W        W70073  17.127  24.646  10.499
 6350W        W70074  29.039  40.006  11.447
 6351W        W70075  28.532  20.154   0.439
 6352W        W70076  43.295  14.705   4.763
 6353W        W70077  18.058   1.339  10.579
 6354W        W70078   3.271  24.664  10.919
 6355W        W70079  34.373  24.118   3.657
 6356W        W70080  40.880  13.341   0.377
 6357W        W70081  23.996  24.149  12.851
 6358W        W70082  33.615  34.601  14.879
 6359W        W70083  41.839  43.466  12.379
 6360W        W70084  24.079  29.585   0.420
 6361W        W70085   4.322  11.347  11.076
 6362W        W70086   8.166   5.809  12.912
 6363W        W70087  19.270  32.510  13.019
 6364W        W70088  20.223  12.785   3.825
 6365W        W70089  44.797  24.223   4.687
 6366W        W70090  16.673  28.156   1.869
 6367W        W70091  38.433   5.256   2.864
 6368W        W70092  28.168  39.431   3.183
 6369W        W70093   0.425  16.777  14.453
 6370W        W70094  31.647  38.449  14.280
 6371W        W70095  18.119  35.085   4.338
 6372W        W70096   6.888  10.772  14.399
 6373W        W70097  37.041  31.489  11.513
 6374W        W70098  21.069  36.006   1.790
 6375W        W70099   9.835  18.593  14.399
 6376W        W70100   8.341  11.167   0.399
 6377W        W70101  34.450  27.075   3.151
 6378W        W70102  34.429  15.784  12.888
 6379W        W70103  12.196  28.948  11.538
 6380W        W70104   4.916  14.289  10.906
 6381W        W70105  10.216  15.727   3.298
 6382W        W70106   6.679  37.086  11.916
 6383W        W70107   6.901   0.858   3.682
 6384W        W70108  35.981   5.294  11.992
 6385W        W70109  22.503  17.615   2.330
 6386W        W70110   0.332  16.163  12.974
 6387W        W70111  39.968  43.908  11.423
 6388W        W70112  36.985  11.738  11.441
 6389W        W70113  38.035  37.948   0.755
 6390W        W70114  40.434  33.485  14.822
 6391W        W70115  20.189  28.149   4.144
 6392W        W70116  18.061   0.271   2.201
 6393W        W70117   9.763   2.447   4.157
 6394W        W70118  16.718  38.561  11.455
 6395W        W70119  39.476  44.371   0.952
 6396W        W70120  40.053  35.000   3.685
 6397W        W70121  26.595  29.477   3.844
 6398W        W70122  39.938  38.960  12.485
 6399W        W70123  10.333  43.927   2.685
 6400W        W70124  12.243   1.268  10.973
 6401W        W70125  15.288  15.790   3.733
 6402W        W70126  43.292  33.080  13.883
 6403W        W70127  35.063  19.172  10.620
 6404W        W70128  36.852  13.343  13.901
 6405W        W70129  23.643  44.324   0.906
 6406W        W70130  31.497  36.079   2.758
 6407W        W70131  22.237  28.548   1.722
 6408W        W70132   6.203  42.939  12.494
 6409W        W70133  31.029   2.809  11.521
 6410W        W70134  22.597  33.552  11.508
 6411W        W70135  36.947   2.936   4.809
 6412W        W70136  18.628  32.982   4.831
 6413W        W70137  12.208  13.766  11.444
 6414W        W70138  36.430  26.035  13.933
 6415W        W70139   6.806  23.616  13.986
 6416W        W70140  44.498  40.888   2.187
 6417W        W70141  18.161  40.529  13.491
 6418W        W70142  24.671  22.540   1.825
 6419W        W70143   8.199  13.674   1.423
 6420W        W70144  25.549  11.296   0.352
 6421W        W70145  39.896  14.636   2.838
 6422W        W70146  21.158  23.724   3.644
 6423W        W70147   2.867   7.772  10.555
 6424W        W70148  16.686  16.204   3.178
 6425W        W70149  20.727  29.976  10.506
 6426W        W70150  34.968  29.571  10.418
 6427W        W70151  12.303  38.982  11.071
 6428W        W70152   9.278  35.396  11.565
 6429W        W70153  30.456  16.112   0.365
 6430W        W70154   0.952  11.834   1.879
 6431W        W70155  30.416  30.996  13.464
 6432W        W70156  15.632  35.525   3.224
 6433W        W70157   9.186  35.110  13.013
 6434W        W70158  13.822  41.917  11.006
 6435W        W70159  32.563   2.842   4.316
 6436W        W70160  28.610  36.435  12.366
 6437W        W70161  33.485   7.325  10.115
 6438W        W70162  31.896  32.542  11.579
 6439W        W70163  33.477  21.605  11.980
 6440W        W70164  40.429  39.818  11.549
 6441W        W70165   1.305  29.540   0.792
 6442W        W70166  10.183  33.536   3.347
 6443W        W70167  32.111  12.219  12.998
 6444W        W70168  44.756  23.029   1.897
 6445W        W70169  38.363  30.448   1.302
 6446W        W70170   7.208   3.898   0.733
 6447W        W70171  29.555  17.642  12.576
 6448W        W70172  22.576   6.405   1.281
 6449W        W70173  38.964  29.089   4.698
 6450W        W70174  22.643  11.654   0.428
 6451W        W70175  34.606   2.394  14.919
 6452W        W70176  29.154   0.967   3.714
 6453W        W70177   5.911  33.423   3.343
 6454W        W70178  26.002  38.400  10.480
 6455W        W70179  44.010  10.848  13.006
 6456W        W70180  38.468  40.837   3.163
 6457W        W70181  25.162   8.322   1.382
 6458W        W70182  19.058   8.838  12.553
 6459W        W70183  29.648  11.639   4.120
 6460W        W70184  15.806  37.566   3.292
 6461W        W70185  30.494  12.788   0.285
 6462W        W70186  23.022   8.291  10.981
 6463W        W70187  10.828  14.216  14.886
 6464W        W70188  42.281   8.339   0.868
 6465W        W70189  37.506  18.635   0.289
 6466W        W70190  29.117  14.311   1.320
 6467W        W70191  15.140  24.998   3.852
 6468W        W70192   5.840   1.245   2.852
 6469W        W70193  15.820  12.251  12.846
 6470W        W70194  37.070  11.288  11.373
 6471W        W70195   8.685  40.842   1.225
 6472W        W70196  12.247  10.348  12.463
 6473W        W70197  35.054  11.204  12.384
 6474W        W70198  36.879   2.855   0.459
 6475W        W70199  30.160  16.581   3.655
 6476W        W70200  16.676  33.956   2.714
 6477W        W70201  35.541  36.528   2.201
 6478W        W70202  32.056  19.745   0.913
 6479W        W70203  19.261  23.526  10.621
 6480W        W70204  20.687  14.734   3.232
 6481W        W70205   4.239  16.077  14.934
 6482W        W70206  43.471  23.135   5.701
 6483W        W70207  25.610  17.718  11.904
 6484W        W70208  41.293  32.622   2.383
 6485W        W70209  15.188  40.872  14.895
 6486W        W70210  25.141  30.471  14.451
 6487W        W70211  20.744  31.983  14.492
 6488W        W70212  18.704  19.164  14.374
 6489W        W70213  28.183  17.596  13.512
 6490W        W70214   9.656  34.384  10.445
 6491W        W70215  37.873  42.500  12.401
 6492W        W70216   6.746  34.969  13.989
 6493W        W70217  16.769  17.699   1.905
 6494W        W70218  16.231  18.783  12.065
 6495W        W70219  32.022  22.726   4.270
 6496W        W70220  44.905  29.528  14.979
 6497W        W70221  42.450  22.119  14.827
 6498W        W70222  43.832  26.469  14.774
 6499W        W70223   1.395  41.842   2.358
 6500W        W70224  41.872  43.913  11.059
 6501W        W70225  20.652  11.289  10.452
 6502W        W70226  18.235  10.265   3.668
 6503W        W70227  28.665  18.596   2.299
 6504W        W70228   7.753   0.786  13.484
 6505W        W70229  24.667  41.456  11.559
 6506W        W70230   5.874  11.340  14.896
 6507W        W70231  30.532   6.201   0.257
 6508W        W70232  27.080   7.679   0.798
 6509W        W70233  23.051  22.188   3.763
 6510W        W70234  12.252   3.784  14.371
 6511W        W70235  40.418  10.842  11.373
 6512W        W70236  28.545  32.561   4.266
 6513W        W70237  19.633  21.571   4.814
 6514W        W70238  31.523  39.009   2.888
 6515W        W70239   1.734  22.721   0.824
 6516W        W70240  43.791   2.925  13.537
 6517W        W70241  34.510  37.469   1.440
 6518W        W70242  39.920  42.473  13.541
 6519W        W70243   3.304  37.921   4.812
 6520W        W70244  18.169  25.486   1.221
 6521W        W70245   7.389   8.761  14.501
 6522W        W70246  40.797  43.292   0.342
 6523W        W70247   4.262   5.851   1.446
 6524W        W70248  25.048  20.628  13.420
 6525W        W70249   5.734   2.386  12.386
 6526W        W70250  40.889   0.854  12.451
 6527W        W70251  36.065   0.830   0.279
 6528W        W70252  24.212  17.160  10.445
 6529W        W70253   2.815  13.290   0.272
 6530W        W70254  23.689  12.725   3.776
 6531W        W70255  38.008  23.093   3.792
 6532W        W70256   6.301   8.227  11.000
 6533W        W70257  14.690  39.934  11.870
 6534W        W70258  25.041  20.601  11.962
 6535W        W70259   6.857   5.803   2.902
 6536W        W70260  13.662  13.766  14.358
 6537W        W70261  27.059  42.458  14.884
 6538W        W70262  19.773  31.552  14.991
 6539W        W70263  13.183  26.467  11.547
 6540W        W70264  15.108  13.243  10.510
 6541W        W70265  26.081  36.954  10.984
 6542W        W70266  22.044  14.240  12.342
 6543W        W70267  19.142  33.472   4.641
 6544W        W70268  20.601  23.497   1.760
 6545W        W70269  29.586  19.197   2.403
 6546W        W70270  24.545  32.405  12.432
 6547W        W70271  44.897  38.888  14.789
 6548W        W70272  42.879  24.506   2.194
 6549W        W70273  43.414   4.854  14.293
 6550W        W70274  23.503  26.093   0.747
 6551W        W70275   8.185  39.911  14.359
 6552W        W70276   8.219  20.609   2.786
 6553W        W70277   7.262  19.594   2.250
 6554W        W70278  41.845  11.251  13.492
 6555W        W70279   9.834   6.308   2.370
 6556W        W70280  38.368  39.996   0.422
 6557W        W70281  31.494  15.613  11.464
 6558W        W70282  12.788  33.022  12.840
 6559W        W70283  18.614  20.139  11.056
 6560W        W70284  20.568   1.909  14.982
 6561W        W70285  38.909  43.410   2.269
 6562W        W70286  40.511   8.745   2.736
 6563W        W70287  24.015  35.414  11.567
 6564W        W70288  31.993  29.018  13.870
 6565W        W70289  43.409  31.028  12.062
 6566W        W70290  13.712  42.450   3.869
 6567W        W70291   1.831   1.896   2.897
 6568W        W70292   0.265  20.609  11.973
 6569W        W70293  23.101  41.492   1.336
 6570W        W70294   0.790   1.828  13.482
 6571W        W70295  31.942  10.715   3.637
 6572W        W70296  22.723   2.319   1.409
 6573W        W70297  36.950  30.999  13.491
 6574W        W70298  12.798  33.130   4.614
 6575W        W70299  32.413  28.480  11.444
 6576W        W70300   1.798  32.454  12.445
 6577W        W70301  37.853  28.475  11.866
 6578W        W70302  32.547   1.831  10.537
 6579W        W70303  40.457  44.302  12.352
 6580W        W70304  37.421  10.287   2.355
 6581W        W70305   2.359  43.314  10.624
 6582W        W70306   9.657  19.763   4.299
 6583W        W70307  10.334  15.148   2.756
 6584W        W70308  28.969   8.198   4.674
 6585W        W70309   4.333  17.138  11.566
 6586W        W70310  26.092  21.215  12.572
 6587W        W70311  29.085  13.840  10.483
 6588W        W70312  33.002  40.841   0.262
 6589W        W70313  34.560   0.343   0.324
 6590W        W70314  39.056   2.965   1.923
 6591W        W70315  44.327  30.536   2.843
 6592W        W70316  44.009  35.580   3.632
 6593W        W70317   5.693  15.678   1.451
 6594W        W70318  41.526  27.085  14.760
 6595W        W70319  19.719  15.760   3.749
 6596W        W70320   2.362  31.938  12.092
 6597W        W70321   5.762  41.505   1.391
 6598W        W70322  31.413  40.935   0.885
 6599W        W70323   1.261  21.635  10.919
 6600W        W70324  26.624   3.246   2.806
 6601W        W70325   6.371  40.979   2.372
 6602W        W70326  20.583  22.503   0.440
 6603W        W70327   7.735  16.266  12.965
 6604W        W70328  16.308  23.657  11.581
 6605W        W70329  23.030   2.744   2.722
 6606W        W70330  36.076  32.489  12.490
 6607W        W70331  43.829  39.438   2.191
 6608W        W70332  17.708   5.921  12.362
 6609W        W70333  15.323  12.269  13.051
 6610W        W70334  18.293   3.946  12.505
 6611W        W70335  44.310  30.149   3.351
 6612W        W70336  17.270  40.319  11.372
 6613W        W70337  23.032  18.234   0.958
 6614W        W70338  28.028   4.702   1.344
 6615W        W70339  23.573  24.564  14.909
 6616W        W70340  24.156  24.185   3.695
 6617W        W70341  30.602  13.177   1.244
 6618W        W70342  11.337   5.410  14.868
 6619W        W70343  35.956  14.108   1.260
 6620W        W70344  31.534  15.593   9.940
 6621W        W70345  33.407  12.725  12.954
 6622W        W70346  29.054  10.659  13.383
 6623W        W70347  28.678  20.254  14.423
 6624W        W70348   3.407   8.276  13.794
 6625W        W70349  41.387  39.912   2.680
 6626W        W70350  22.691  41.036   4.825
 6627W        W70351   1.343  34.592   2.679
 6628W        W70352   7.279  35.555  12.443
 6629W        W70353  34.975  23.077   0.893
 6630W        W70354  37.010  12.847  14.776
 6631W        W70355  39.053  30.938   1.839
 6632W        W70356  44.350  16.122   2.184
 6633W        W70357  27.192  29.142  12.889
 6634W        W70358   8.363  42.009   2.290
 6635W        W70359  32.577  34.512   1.727
 6636W        W70360  21.032  15.305  14.910
 6637W        W70361   2.964  22.567  14.462
 6638W        W70362  20.646  22.036   3.752
 6639W        W70363  32.392  18.206   3.168
 6640W        W70364   9.211   5.774  12.340
 6641W        W70365  21.131  41.486   1.416
 6642W        W70366   1.443  20.124   3.244
 6643W        W70367  29.150  35.468  14.834
 6644W        W70368  36.011   7.702   1.274
 6645W        W70369   8.369  34.106   2.777
 6646W        W70370  18.228  14.604   0.880
 6647W        W70371  12.291  38.827   1.437
 6648W        W70372  24.177  14.250   1.333
 6649W        W70373  17.207  17.230  11.504
 6650W        W70374   0.352  36.580   3.360
 6651W        W70375   9.749  18.204  10.890
 6652W        W70376   1.245  41.043  14.472
 6653W        W70377  35.390  27.048  10.933
 6654W        W70378  10.735  12.260   5.674
 6655W        W70379  34.499  11.650  14.461
 6656W        W70380  35.025  31.102  11.421
 6657W        W70381   9.850   0.292   2.386
 6658W        W70382  38.974  34.935   2.815
 6659W        W70383  36.364  40.457   2.368
 6660W        W70384  22.673  30.554  14.309
 6661W        W70385  36.589  21.170   3.226
 6662W        W70386  36.846   5.751   1.857
 6663W        W70387  35.430  30.626  14.794
 6664W        W70388   3.349  32.514   0.827
 6665W        W70389  15.594  14.825   4.752
 6666W        W70390  31.021   4.918   1.778
 6667W        W70391  33.956  17.086  11.081
 6668W        W70392  17.301  19.768  13.344
 6669W        W70393  17.143  36.479  11.900
 6670W        W70394  14.217  28.644   1.340
 6671W        W70395  27.996  27.629  11.480
 6672W        W70396   6.883  24.200   2.337
 6673W        W70397  38.871  25.088   1.711
 6674W        W70398  40.026  20.686  13.835
 6675W        W70399   9.358  24.029  13.838
 6676W        W70400  27.688  41.918   4.827
 6677W        W70401  34.388  33.073   0.741
 6678W        W70402   4.794  26.620   4.828
 6679W        W70403  17.074  19.045  12.462
 6680W        W70404  18.622  21.081   1.836
 6681W        W70405  42.510  18.073  10.589
 6682W        W70406  28.662  29.425  13.993
 6683W        W70407  21.744  26.139  12.980
 6684W        W70408  21.214   1.399   0.401
 6685W        W70409  17.127  24.213   3.258
 6686W        W70410  39.055   5.824  10.566
 6687W        W70411  11.312  40.549  14.787
 6688W        W70412  42.446  25.147  13.919
 6689W        W70413  25.969  33.395   3.230
 6690W        W70414   7.196  27.020   4.247
 6691W        W70415   0.288  29.073  12.869
 6692W        W70416   3.831  15.259  12.364
 6693W        W70417  41.910  27.146  11.379
 6694W        W70418  29.445  15.802  14.882
 6695W        W70419   8.347  15.794  11.021
 6696W        W70420  42.785  24.518   0.316
 6697W        W70421   9.268   4.365  12.823
 6698W        W70422   8.248   7.725   4.280
 6699W        W70423  22.675  29.669  12.859
 6700W        W70424  15.166  36.095  12.496
 6701W        W70425  36.475  36.042   4.726
 6702W        W70426  27.165  38.336  13.896
 6703W        W70427  25.032  38.929  10.542
 6704W        W70428  14.279  21.700   1.307
 6705W        W70429  22.746  38.036  12.539
 6706W        W70430   3.889  20.166   3.244
 6707W        W70431  19.694  25.131  14.358
 6708W        W70432   3.736  23.082  13.514
 6709W        W70433  18.644  26.560   2.741
 6710W        W70434  19.258  33.459  11.374
 6711W        W70435  14.272  19.682  11.862
 6712W        W70436   9.706  30.050  13.380
 6713W        W70437  20.757  15.783  12.560
 6714W        W70438   7.879  30.909  10.485
 6715W        W70439   1.383  41.292   0.474
 6716W        W70440  24.593  30.506  10.509
 6717W        W70441  43.886  37.405   1.900
 6718W        W70442  34.963   7.409  11.084
 6719W        W70443  21.109  28.461  13.513
 6720W        W70444   5.385   8.161  13.449
 6721W        W70445   9.859  11.861   3.695
 6722W        W70446  26.544  33.555   5.322
 6723W        W70447  11.635  23.593   2.203
 6724W        W70448   5.772  34.463   1.244
 6725W        W70449  44.966   1.933  14.860
 6726W        W70450  41.866  13.654  11.937
 6727W        W70451   0.444  10.872  10.968
 6728W        W70452  25.989  25.107  12.548
 6729W        W70453  25.089  10.723   1.731
 6730W        W70454  20.051  42.819   2.406
 6731W        W70455  12.759   5.917   2.716
 6732W        W70456  44.266  21.117   4.716
 6733W        W70457  16.241   7.716  13.863
 6734W        W70458  28.443  12.252   2.879
 6735W        W70459  14.108   1.880   0.254
 6736W        W70460  42.900  13.635  10.407
 6737W        W70461   2.901  36.491   1.401
 6738W        W70462  23.576   6.889  13.856
 6739W        W70463  11.773  16.100  11.601
 6740W        W70464  40.507   7.799   2.251
 6741W        W70465  23.026  37.959   1.376
 6742W        W70466  11.846  29.603  12.834
 6743W        W70467  38.052  36.858   4.684
 6744W        W70468  26.478  34.394  11.866
 6745W        W70469  26.629  44.001   3.656
 6746W        W70470  39.430  27.974  14.931
 6747W        W70471   8.726  16.792  10.426
 6748W        W70472  21.697  44.421  13.934
 6749W        W70473  16.166  14.170  12.882
 6750W        W70474  40.838   6.352   2.880
 6751W        W70475   3.799  29.061   1.276
 6752W        W70476  42.994  21.143   4.306
 6753W        W70477   3.396  41.508  10.640
 6754W        W70478  24.197   6.364   5.139
 6755W        W70479  38.907  27.123   4.182
 6756W        W70480  28.103  43.312  12.411
 6757W        W70481  44.348   9.884   4.746
 6758W        W70482   1.896  35.064   4.797
 6759W        W70483  25.021  19.246   0.780
 6760W        W70484   7.717  26.122  14.502
 6761W        W70485  22.631  43.846  13.040
 6762W        W70486  34.898   7.869  14.865
 6763W        W70487  30.032  22.090   4.829
 6764W        W70488  41.993  26.490   3.790
 6765W        W70489  33.513  34.605   0.899
 6766W        W70490  20.729   6.828   2.895
 6767W        W70491   4.857  39.001  12.569
 6768W        W70492   6.706  21.574  11.945
 6769W        W70493  34.034  41.894   2.778
 6770W        W70494  39.845  32.573   0.766
 6771W        W70495  25.683  35.883   3.174
 6772W        W70496   6.422   8.240  14.867
 6773W        W70497  37.950  39.013   4.620
 6774W        W70498   7.734  22.633   1.284
 6775W        W70499  26.114  44.950   1.323
 6776W        W70500  13.271  10.277   3.269
 6777W        W70501  19.557  24.594  12.345
 6778W        W70502  13.185  17.568   1.360
 6779W        W70503  33.443  28.591  12.948
 6780W        W70504  11.348  10.344   4.242
 6781W        W70505  35.992  38.569   0.250
 6782W        W70506  32.560  27.659   2.830
 6783W        W70507  32.593  27.521  12.926
 6784W        W70508  12.840  25.550  13.050
 6785W        W70509  20.534   5.279  14.332
 6786W        W70510  29.007  12.157  13.392
 6787W        W70511  27.578  20.124   1.364
 6788W        W70512  22.055  23.230   1.365
 6789W        W70513  27.187  15.198   1.367
 6790W        W70514  36.498  35.562   4.114
 6791W        W70515   2.800  29.643  12.028
 6792W        W70516  17.142  36.466   2.182
 6793W        W70517   2.730   4.826  12.925
 6794W        W70518  30.448   6.372   2.362
 6795W        W70519  27.033   1.344   2.364
 6796W        W70520  37.513   9.710   3.279
 6797W        W70521   1.934  41.405  10.598
 6798W        W70522  37.454  15.246   2.895
 6799W        W70523   9.314   7.369  14.790
 6800W        W70524  36.068  35.043  11.900
 6801W        W70525   4.400   8.240   3.251
 6802W        W70526  22.086  20.236  11.871
 6803W        W70527  15.701  27.172  14.863
 6804W        W70528   8.163  31.602   2.787
 6805W        W70529  44.938  19.750   3.790
 6806W        W70530   9.834  19.249  10.520
 6807W        W70531   6.858  42.875  14.911
 6808W        W70532  25.667  40.916   3.719
 6809W        W70533  36.907  43.366  14.813
 6810W        W70534  24.534  35.930   4.241
 6811W        W70535  15.780  42.367   3.746
 6812W        W70536   0.346   6.251  10.575
 6813W        W70537  39.389  22.732   0.803
 6814W        W70538  43.859  34.464   2.315
 6815W        W70539  13.348   5.391   4.146
 6816W        W70540  13.667   9.768  13.879
 6817W        W70541  21.228  30.933  13.060
 6818W        W70542  36.001  42.313   0.264
 6819W        W70543  44.468  10.868   1.364
 6820W        W70544  43.892  41.939   4.193
 6821W        W70545   8.671  24.697   0.406
 6822W        W70546  39.550  28.579   4.251
 6823W        W70547   4.940   4.709   2.198
 6824W        W70548  25.542  11.736   4.261
 6825W        W70549  26.682  22.187   1.368
 6826W        W70550  36.570  19.047   3.776
 6827W        W70551  13.720  40.355   2.292
 6828W        W70552  37.975  38.899   1.700
 6829W        W70553   8.200   1.868   1.251
 6830W        W70554  24.703   2.951   3.154
 6831W        W70555  42.817  12.747  10.429
 6832W        W70556  19.162   8.793   5.302
 6833W        W70557  10.325  31.480   1.890
 6834W        W70558  14.219  36.534   1.414
 6835W        W70559  44.378  23.993  10.434
 6836W        W70560  16.774  27.164  13.936
 6837W        W70561  38.006   5.852  10.489
 6838W        W70562  12.848   9.869   0.868
 6839W        W70563  20.040  22.552   0.726
 6840W        W70564  10.193  15.094   4.597
 6841W        W70565  41.472  30.093   2.669
 6842W        W70566   0.309  29.579  13.482
 6843W        W70567  13.228  25.104   0.843
 6844W        W70568  34.537  20.581   4.792
 6845W        W70569  20.251  21.678   4.757
 6846W        W70570  34.922  34.936   2.360
 6847W        W70571  29.049  22.714   0.739
 6848W        W70572   4.253  20.046   2.725
 6849W        W70573  20.028  42.942   1.408
 6850W        W70574  29.464  39.814   4.328
 6851W        W70575  18.167  12.280  10.102
 6852W        W70576  18.702  18.221  11.931
 6853W        W70577  20.045   2.877  14.442
 6854W        W70578  22.543  29.019   0.460
 6855W        W70579   0.261  15.165  11.428
 6856W        W70580  10.818  30.161  11.062
 6857W        W70581  38.361   1.423   4.682
 6858W        W70582  15.145  33.893  11.009
 6859W        W70583  12.815  19.541  11.874
 6860W        W70584   1.930  35.408   3.762
 6861W        W70585   5.832   9.321  12.092
 6862W        W70586  11.863  15.174  10.493
 6863W        W70587  42.021  34.048   4.806
 6864W        W70588  12.807  31.614   4.830
 6865W        W70589  23.548  11.766   1.747
 6866W        W70590   5.294   6.805  12.574
 6867W        W70591  43.391  25.607   2.683
 6868W        W70592  38.419  29.060  12.019
 6869W        W70593  17.228  36.512   0.873
 6870W        W70594   0.469  29.102   4.185
 6871W        W70595  15.673  18.292   3.167
 6872W        W70596  10.207  37.980   3.208
 6873W        W70597  29.923  27.101  11.922
 6874W        W70598  20.245   4.319   2.293
 6875W        W70599  40.532  14.302  10.133
 6876W        W70600  11.624  24.705  12.028
 6877W        W70601  12.631  26.510  12.001
 6878W        W70602   6.245  15.770   5.120
 6879W        W70603  28.040  22.745  14.782
 6880W        W70604  28.507  14.590   1.787
 6881W        W70605  26.484  11.223  14.973
 6882W        W70606  41.834  19.120   1.407
 6883W        W70607  42.498  17.786   3.817
 6884W        W70608   5.903  44.297  13.352
 6885W        W70609  11.759   9.746   4.683
 6886W        W70610  39.443  39.338  14.319
 6887W        W70611  11.282  26.629   5.115
 6888W        W70612  22.678  16.241   5.094
 6889W        W70613  38.506  23.597   1.711
 6890W        W70614  18.117   6.255   4.158
 6891W        W70615  16.290  22.140   3.302
 6892W        W70616  36.012  23.562   0.483
 6893W        W70617  41.896  15.613  11.906
 6894W        W70618  22.196  18.177   2.377
 6895W        W70619  26.093  40.940  12.436
 6896W        W70620   4.782  24.525   1.859
 6897W        W70621  14.283   8.388  14.845
 6898W        W70622  20.143  16.194  14.460
 6899W        W70623  28.653  37.960   0.431
 6900W        W70624  28.535  23.086  10.584
 6901W        W70625  15.626   8.213  13.949
 6902W        W70626  23.045  10.715  10.992
 6903W        W70627  44.814  33.478   0.834
 6904W        W70628  40.450  26.610   4.279
 6905W        W70629  39.378  44.295   3.380
 6906W        W70630  14.773   0.301  12.091
 6907W        W70631  35.472  18.254   0.385
 6908W        W70632  34.055  35.935  12.871
 6909W        W70633   9.288  32.138   2.895
 6910W        W70634  37.949  38.882   4.333
 6911W        W70635  36.859  20.224   1.843
 6912W        W70636  39.404  32.402   3.665
 6913W        W70637  43.859  34.404  12.897
 6914W        W70638   6.326  44.791  13.402
 6915W        W70639  20.613  31.492   0.254
 6916W        W70640  25.127  13.638   0.888
 6917W        W70641  11.818  40.821   4.186
 6918W        W70642  23.565  27.155   2.667
 6919W        W70643  22.511  25.626   1.213
 6920W        W70644  15.757  26.695  11.884
 6921W        W70645  19.758  12.614   0.812
 6922W        W70646  12.727  28.029   2.850
 6923W        W70647  27.559   4.753   0.329
 6924W        W70648   2.371  31.011   3.843
 6925W        W70649  41.469  26.162  13.015
 6926W        W70650   5.421   6.739   4.726
 6927W        W70651  35.441  15.244  14.976
 6928W        W70652  18.264   7.822   0.944
 6929W        W70653  42.332   5.269  11.426
 6930W        W70654  37.881  39.521  10.640
 6931W        W70655  42.797  23.095   3.321
 6932W        W70656  36.018  17.103   2.859
 6933W        W70657  20.071  38.016   1.331
 6934W        W70658  33.454   1.823   1.310
 6935W        W70659  31.577  35.545   3.680
 6936W        W70660   2.281   1.467  12.924
 6937W        W70661   9.255  20.545   1.886
 6938W        W70662  18.602  27.967   0.747
 6939W        W70663   9.395  41.506  11.372
 6940W        W70664   1.929   3.346  14.975
 6941W        W70665  44.314  42.789   4.637
 6942W        W70666  25.637  17.785   4.139
 6943W        W70667  33.997  25.558  11.951
 6944W        W70668   4.736  39.454  10.546
 6945W        W70669  43.276  43.282   1.382
 6946W        W70670   3.931  35.026   0.872
 6947W        W70671  29.460  34.391   2.685
 6948W        W70672  20.160  41.457  14.851
 6949W        W70673  13.198  27.944   4.267
 6950W        W70674  22.168   5.214   4.168
 6951W        W70675   6.378  35.979  11.966
 6952W        W70676  14.834   6.891   0.478
 6953W        W70677   5.274  33.483   1.297
 6954W        W70678  27.489  27.127  13.986
 6955W        W70679  32.469  36.582   3.822
 6956W        W70680   3.882  35.489  14.310
 6957W        W70681  32.956  15.674  12.879
 6958W        W70682  23.697  15.696   2.712
 6959W        W70683  33.518  42.398  13.948
 6960W        W70684  13.816   2.764   3.747
 6961W        W70685  22.029  16.166  10.619
 6962W        W70686  24.117  40.811  10.564
 6963W        W70687  17.290  24.508   4.225
 6964W        W70688  35.426   6.767   0.837
 6965W        W70689  44.386  25.216   0.951
 6966W        W70690  24.058  12.782   1.427
 6967W        W70691  40.494  37.864   2.368
 6968W        W70692   6.867  26.506   4.252
 6969W        W70693  39.341  34.528  12.967
 6970W        W70694  15.801  42.780  12.901
 6971W        W70695  13.634  28.089   3.227
 6972W        W70696  13.814  23.117   2.894
 6973W        W70697  38.941  28.472   4.317
 6974W        W70698  33.948   8.828  13.479
 6975W        W70699  25.683   9.796   2.354
 6976W        W70700  39.358  43.437  11.524
 6977W        W70701  40.446  10.812   4.330
 6978W        W70702  20.207  36.980   4.155
 6979W        W70703  12.234  22.241   1.305
 6980W        W70704  32.020   3.217   0.419
 6981W        W70705  36.575   7.721   4.639
 6982W        W70706  36.361   2.369   0.750
 6983W        W70707  30.909  36.865   0.418
 6984W        W70708  17.576   5.236  13.974
 6985W        W70709  36.932   1.850  11.101
 6986W        W70710  37.921  18.657  10.897
 6987W        W70711  38.822   9.235   1.379
 6988W        W70712   5.889  20.725  13.968
 6989W        W70713  32.613  44.868   0.424
 6990W        W70714  16.799  15.745  14.516
 6991W        W70715  31.606  11.751   1.232
 6992W        W70716  11.214  28.442  14.376
 6993W        W70717  27.501  15.696   0.438
 6994W        W70718  18.689   3.319   3.231
 6995W        W70719  37.349   9.717   1.312
 6996W        W70720   8.803  36.392  10.437
 6997W        W70721  29.515  41.412   4.124
 6998W        W70722  21.747  15.178   1.307
 6999W        W70723  39.841  21.571  10.492
 7000W        W70724  41.439  41.022  13.023
 7001W        W70725  20.196  23.209   3.369
 7002W        W70726  33.064  39.858  11.568
 7003W        W70727  44.793   0.310   0.382
 7004W        W70728  29.017  12.323  11.905
 7005W        W70729  29.492  25.147  13.054
 7006W        W70730  23.174  27.983   1.434
 7007W        W70731  15.254   5.333   3.701
 7008W        W70732  30.478   8.297  14.431
 7009W        W70733  35.508  27.115  13.410
 7010W        W70734  35.362  25.499   0.383
 7011W        W70735  20.165  43.334   0.363
 7012W        W70736  25.550  39.977   3.675
 7013W        W70737   0.984  11.789  13.056
 7014W        W70738  41.961  13.846   1.306
 7015W        W70739  43.783  39.354  11.092
 7016W        W70740   7.253  12.181   5.160
 7017W        W70741  23.604  12.167  11.881
 7018W        W70742  41.392  24.012   0.929
 7019W        W70743   0.911  11.211   2.233
 7020W        W70744  36.035  42.395  14.341
 7021W        W70745   4.773  13.228  11.943
 7022W        W70746  36.963  15.118   1.875
 7023W        W70747   9.308  10.192  10.465
 7024W        W70748  44.779  11.718  11.962
 7025W        W70749  39.012  27.537  13.799
 7026W        W70750   8.163  24.551  13.810
 7027W        W70751  32.605  33.072   4.229
 7028W        W70752  28.178  35.517  10.428
 7029W        W70753  15.214  14.749  10.509
 7030W        W70754  38.478  29.968  13.350
 7031W        W70755   4.855  12.274  11.891
 7032W        W70756  43.980  34.425  11.935
 7033W        W70757  23.117  13.281  12.564
 7034W        W70758  26.484  20.187   2.419
 7035W        W70759  36.579  42.507   3.676
 7036W        W70760  43.344  24.095  10.494
 7037W        W70761  31.943  28.680  12.435
 7038W        W70762  42.797  15.654  13.480
 7039W        W70763  22.029  27.955  12.059
 7040W        W70764  10.209   6.764  14.420
 7041W        W70765  40.895   6.821  12.437
 7042W        W70766  42.005  10.225  15.000
 7043W        W70767  35.999  17.587   3.222
 7044W        W70768  17.084  37.023  11.492
 7045W        W70769  12.613   8.248  13.967
 7046W        W70770  24.026  19.154   2.355
 7047W        W70771  33.879  31.915  11.573
 7048W        W70772  34.458  21.118  10.996
 7049W        W70773  11.648   0.894   2.279
 7050W        W70774  33.913  15.657   2.403
 7051W        W70775  12.785  21.262   0.327
 7052W        W70776  32.569  25.992  12.523
 7053W        W70777   0.829  25.026   1.748
 7054W        W70778  25.476  34.461  11.887
 7055W        W70779  38.540  28.948  14.401
 7056W        W70780  38.065  39.949   0.430
 7057W        W70781   3.800  44.880  13.840
 7058W        W70782  13.746  29.554  11.399
 7059W        W70783  15.645  14.793   9.963
 7060W        W70784  15.278  32.586  14.383
 7061W        W70785  15.261  36.978   2.178
 7062W        W70786  25.130  41.910   0.441
 7063W        W70787  21.654  16.777  12.897
 7064W        W70788  26.629   1.379  11.941
 7065W        W70789  34.491  44.261   0.728
 7066W        W70790  41.912  39.406  12.980
 7067W        W70791  31.538  14.337   5.674
 7068W        W70792  27.049  33.047  13.936
 7069W        W70793  12.245  36.424  14.867
 7070W        W70794  43.397  28.608   3.359
 7071W        W70795   2.256  14.171   3.167
 7072W        W70796  20.098   0.377  10.404
 7073W        W70797  38.919   2.831  12.356
 7074W        W70798  20.116  38.386  10.116
 7075W        W70799  38.865  31.411   2.736
 7076W        W70800  13.713  22.156   1.820
 7077W        W70801  10.226  41.500  14.913
 7078W        W70802   2.814   5.295  13.435
 7079W        W70803   6.839  44.284  10.974
 7080W        W70804   1.738  13.845  14.309
 7081W        W70805  44.475  31.458   4.805
 7082W        W70806  32.491  33.482  14.516
 7083W        W70807  42.394  30.960  13.310
 7084W        W70808  34.540  10.227  11.549
 7085W        W70809  41.309  21.663  11.007
 7086W        W70810  39.856  11.270  10.589
 7087W        W70811   7.855  33.923  12.476
 7088W        W70812  19.196   2.796   3.366
 7089W        W70813   2.722  32.920   4.260
 7090W        W70814  35.882   1.465  13.527
 7091W        W70815  28.439  32.473  14.395
 7092W        W70816  27.572   0.301   1.411
 7093W        W70817   4.326  13.257  12.053
 7094W        W70818  35.380   0.421  11.559
 7095W        W70819   8.373   3.287   4.722
 7096W        W70820  17.763  40.819  11.908
 7097W        W70821   6.400  39.912   1.759
 7098W        W70822  23.581  36.951  11.935
 7099W        W70823  16.245   3.767  10.511
 7100W        W70824   6.234  12.240   3.195
 7101W        W70825  20.045  37.863   2.195
 7102W        W70826  13.830  19.056  10.459
 7103W        W70827  37.338   3.236  11.509
 7104W        W70828  39.924  16.635   0.840
 7105W        W70829   2.439  30.433   1.770
 7106W        W70830  11.256  14.105  14.491
 7107W        W70831  16.590  20.164  10.962
 7108W        W70832  24.024  22.058   3.211
 7109W        W70833  26.136  20.767   0.770
 7110W        W70834  41.879  42.930  12.578
 7111W        W70835   3.943  24.585  13.884
 7112W        W70836   8.747   6.852   0.845
 7113W        W70837  41.360  16.700  13.458
 7114W        W70838  43.398  24.677   1.831
 7115W        W70839  23.637  44.389  13.848
 7116W        W70840  36.054  19.096  11.984
 7117W        W70841  20.065  43.863   3.838
 7118W        W70842  38.955   0.757   3.190
 7119W        W70843  15.254  27.102  12.568
 7120W        W70844   1.942  29.120  12.908
 7121W        W70845   9.267  23.010   3.372
 7122W        W70846  40.944   2.828   4.823
 7123W        W70847  27.950   7.290  14.453
 7124W        W70848  27.538  14.236   4.702
 7125W        W70849   4.207  43.281  13.944
 7126W        W70850  12.345  35.091  10.473
 7127W        W70851  26.489   9.305   4.142
 7128W        W70852  44.407  15.633  11.392
 7129W        W70853  11.196  18.669  11.875
 7130W        W70854  44.314   7.899   3.274
 7131W        W70855  43.787   6.724   4.713
 7132W        W70856   8.217  28.981   3.826
 7133W        W70857  12.827  19.610   3.175
 7134W        W70858   5.213  32.062  12.886
 7135W        W70859  33.072   1.381   4.765
 7136W        W70860  14.707   4.869   1.215
 7137W        W70861  43.930   2.413   1.319
 7138W        W70862  39.423  44.366  12.388
 7139W        W70863  44.955  28.467   1.401
 7140W        W70864  17.701  25.003   2.901
 7141W        W70865  21.634  38.889  13.373
 7142W        W70866  21.535   6.841  14.354
 7143W        W70867  30.131  34.486   4.287
 7144W        W70868   6.768  36.520  10.959
 7145W        W70869  36.347   9.271  13.836
 7146W        W70870  19.051   9.348   1.313
 7147W        W70871  28.108  35.534  12.960
 7148W        W70872  33.560  35.060   0.794
 7149W        W70873  21.545  14.592   3.242
 7150W        W70874   5.781   3.365  11.110
 7151W        W70875   3.710  31.909   4.330
 7152W        W70876  35.922  15.672  10.448
 7153W        W70877  24.659  27.520  13.022
 7154W        W70878  42.319  37.907  14.440
 7155W        W70879  42.822   3.749  12.417
 7156W        W70880  42.792  19.542  12.028
 7157W        W70881  44.849  33.013   4.144
 7158W        W70882  13.148  15.190  11.391
 7159W        W70883  20.562  26.136   1.368
 7160W        W70884  29.517  21.069  14.948
 7161W        W70885  40.031  32.915  13.351
 7162W        W70886  27.512  41.397   0.408
 7163W        W70887  43.003  24.071  10.092
 7164W        W70888  23.505  42.525   0.963
 7165W        W70889   2.724   2.266   2.855
 7166W        W70890  26.668  14.791   1.245
 7167W        W70891  13.621   8.806  12.536
 7168W        W70892  26.165  22.689   1.324
 7169W        W70893  42.309  40.017  12.406
 7170W        W70894  11.832  32.890  13.006
 7171W        W70895  23.704  31.516  13.940
 7172W        W70896   1.799  22.014   3.858
 7173W        W70897   5.872   5.250  14.999
 7174W        W70898  42.426  34.906  12.000
 7175W        W70899  44.356   4.276   1.757
 7176W        W70900  12.676  14.798  12.888
 7177W        W70901  27.132  28.606   3.358
 7178W        W70902  19.260  43.951   2.798
 7179W        W70903  15.134  14.237   3.733
 7180W        W70904  21.758  19.690  13.521
 7181W        W70905  14.604  15.185   3.239
 7182W        W70906  44.350  23.068  14.331
 7183W        W70907   6.892  14.279  11.567
 7184W        W70908  16.705  43.983  12.007
 7185W        W70909   3.454  38.513  12.973
 7186W        W70910  22.520  43.851  14.830
 7187W        W70911  24.007  34.958   4.132
 7188W        W70912  18.629  15.594   3.219
 7189W        W70913  37.525  37.513  11.882
 7190W        W70914  17.750  44.782  12.917
 7191W        W70915   3.408  21.248   5.115
 7192W        W70916  42.488  44.279  12.461
 7193W        W70917   7.203  42.944  13.932
 7194W        W70918  37.475  15.608   0.814
 7195W        W70919  35.428   1.295  12.910
 7196W        W70920   0.924   9.269   2.344
 7197W        W70921  26.590   9.257   0.364
 7198W        W70922  12.141  32.100  13.988
 7199W        W70923  37.418   9.763  12.084
 7200W        W70924  23.631   3.422  12.541
 7201W        W70925  22.053  30.586  14.999
 7202W        W70926  42.916  20.527  12.998
 7203W        W70927  43.846  10.381   2.378
 7204W        W70928  28.011  39.863  13.374
 7205W        W70929  12.674  23.178   1.433
 7206W        W70930  17.092  32.069  14.933
 7207W        W70931  21.707  11.196  11.074
 7208W        W70932  36.585  28.175   2.809
 7209W        W70933  11.197  43.913   3.713
 7210W        W70934  36.448  35.929   2.744
 7211W        W70935  19.683  34.495   2.891
 7212W        W70936  38.879  21.095  13.354
 7213W        W70937  39.020  35.895   3.771
 7214W        W70938  27.542  17.711  14.908
 7215W        W70939   4.944  10.784  14.934
 7216W        W70940  33.571  27.182  10.031
 7217W        W70941  24.100   8.266  10.942
 7218W        W70942   7.836  16.752  13.457
 7219W        W70943  14.198   0.259  13.833
 7220W        W70944  31.636  34.388  12.499
 7221W        W70945  18.555  23.038   4.695
 7222W        W70946   1.313  18.586  11.897
 7223W        W70947  10.748  27.527  13.879
 7224W        W70948  18.591  37.044  13.059
 7225W        W70949  11.845  40.318  11.386
 7226W        W70950  43.969  13.704   3.664
 7227W        W70951  27.028  21.087   3.837
 7228W        W70952  38.036  44.995  10.548
 7229W        W70953  40.021   9.179   2.208
 7230W        W70954  43.466  26.174   4.657
 7231W        W70955  15.682   9.213   0.726
 7232W        W70956  39.894  26.570   2.785
 7233W        W70957  29.054  21.686   0.426
 7234W        W70958  36.932  36.987   3.199
 7235W        W70959  31.609  11.795   2.221
 7236W        W70960  36.579  25.713   4.805
 7237W        W70961  12.684  13.211   2.199
 7238W        W70962  18.074  38.358   0.364
 7239W        W70963  16.791  16.657  12.552
 7240W        W70964  30.989  12.220  11.609
 7241W        W70965  31.962  26.662   2.716
 7242W        W70966  21.202  31.643  12.565
 7243W        W70967  30.128  29.049  14.358
 7244W        W70968  23.025   2.383  11.517
 7245W        W70969   2.436  23.161  11.438
 7246W        W70970  16.274  43.771  13.510
 7247W        W70971   4.909  15.695  11.900
 7248W        W70972  24.621  29.063  14.759
 7249W        W70973  21.023  20.724   3.248
 7250W        W70974  43.474  30.586   0.475
 7251W        W70975  21.050   3.931  13.056
 7252W        W70976  18.258  43.871  14.995
 7253W        W70977  28.937  40.441   1.926
 7254W        W70978   9.733  36.902   0.846
 7255W        W70979  38.840  13.191   4.766
 7256W        W70980  41.011  34.604  12.051
 7257W        W70981   9.791  29.153  11.459
 7258W        W70982  42.870  27.618   3.387
 7259W        W70983  15.608  27.623  13.368
 7260W        W70984  17.710  22.546   1.294
 7261W        W70985  43.290  23.180  13.525
 7262W        W70986  28.565  28.186   2.806
 7263W        W70987  31.469  37.563   3.316
 7264W        W70988  24.043  13.837  11.991
 7265W        W70989   4.420  12.351  14.980
 7266W        W70990  21.612   3.423   2.200
 7267W        W70991  29.434  23.181   0.470
 7268W        W70992  42.338   0.388   3.857
 7269W        W70993   7.350   1.948  14.992
 7270W        W70994   3.752  12.832  11.451
 7271W        W70995  40.475   2.456   1.813
 7272W        W70996  41.354  37.453  11.491
 7273W        W70997  11.282  38.981   1.896
 7274W        W70998   6.757  25.547   4.654
 7275W        W70999   5.269  32.010  13.894
 7276W        W71000  23.128  32.089   0.355
 7277W        W71001  11.769  24.161   5.160
 7278W        W71002  43.782   8.858  13.966
 7279W        W71003   3.246  16.084   1.389
 7280W        W71004  43.786  37.056   2.710
 7281W        W71005  42.280  31.003   4.676
 7282W        W71006  25.054  38.911   4.830
 7283W        W71007  10.663  18.095   3.780
 7284W        W71008  38.877  38.457   3.802
 7285W        W71009  37.572  34.863  14.924
 7286W        W71010  18.222  19.719  13.900
 7287W        W71011  12.310  25.705  12.490
 7288W        W71012   0.772  15.210  10.588
 7289W        W71013   7.286  26.541  14.298
 7290W        W71014  24.498  42.372  12.430
 7291W        W71015  12.839  27.949   3.649
 7292W        W71016   5.332  25.166  11.026
 7293W        W71017   9.655   1.874   1.376
 7294W        W71018  19.220  16.237  13.914
 7295W        W71019   7.665  23.602  14.786
 7296W        W71020  10.266  23.541  13.463
 7297W        W71021  44.441  36.931   4.734
 7298W        W71022  25.708  10.288  12.065
 7299W        W71023  21.113   9.770  13.013
 7300W        W71024  23.029   9.159  11.395
 7301W        W71025   6.366  15.170  11.422
 7302W        W71026  37.503  42.889  11.023
 7303W        W71027   5.698  17.766  13.391
 7304W        W71028  38.417  25.998   1.408
 7305W        W71029   8.180  16.616  10.915
 7306W        W71030  16.804  13.236  10.580
 7307W        W71031  33.915   2.837  12.459
 7308W        W71032  40.001  22.701  11.608
 7309W        W71033  13.292  13.151  11.979
 7310W        W71034   3.232   8.232  11.462
 7311W        W71035  36.079  39.873   3.255
 7312W        W71036  25.122  25.145  13.013
 7313W        W71037  12.630  24.196   1.325
 7314W        W71038  33.028  23.501  14.884
 7315W        W71039  41.508  41.402  13.961
 7316W        W71040  26.571  35.495  11.446
 7317W        W71041  37.526  21.152  11.054
 7318W        W71042   2.277  20.570   3.300
 7319W        W71043  31.962  16.592   3.667
 7320W        W71044  24.195  24.229   9.977
 7321W        W71045  24.217  19.182  10.937
 7322W        W71046  19.723  32.065  10.047
 7323W        W71047  43.299   3.255   4.599
 7324W        W71048  43.499  44.328  10.041
 7325W        W71049  40.812  19.569   0.257
 7326W        W71050  14.695  38.984  13.973
 7327W        W71051   7.202  37.351  10.992
 7328W        W71052  15.294  13.678   4.740
 7329W        W71053  31.525  43.815   0.905
 7330W        W71054  29.153   5.414  12.074
 7331W        W71055  27.124  11.164   1.723
 7332W        W71056  33.880  23.493   2.369
 7333W        W71057  11.231   2.821  13.439
 7334W        W71058   2.306  35.548  13.937
 7335W        W71059   9.652  33.910   1.802
 7336W        W71060  12.756   0.895  11.011
 7337W        W71061  28.149   0.377   0.333
 7338W        W71062   4.716  14.193  10.440
 7339W        W71063  34.074  10.372   4.674
 7340W        W71064  11.298  17.081  13.952
 7341W        W71065  11.167  17.061   0.359
 7342W        W71066  13.322   1.949  14.424
 7343W        W71067  16.600  38.449   2.212
 7344W        W71068  18.572  35.549   0.394
 7345W        W71069  22.611   0.984   2.364
 7346W        W71070  33.517  39.353   4.238
 7347W        W71071  22.229  18.600   0.291
 7348W        W71072  30.593   4.926  11.436
 7349W        W71073  32.082  42.941  10.635
 7350W        W71074  32.093  13.689   0.383
 7351W        W71075   4.294  21.205   2.289
 7352W        W71076  26.186  18.071   1.351
 7353W        W71077  22.055  22.126   3.314
 7354W        W71078  38.918   5.316  14.500
 7355W        W71079  23.053  30.976   1.931
 7356W        W71080  14.725  38.390   0.910
 7357W        W71081  29.463  18.097   2.723
 7358W        W71082  34.096  43.907  12.570
 7359W        W71083  19.179  27.637   2.857
 7360W        W71084  29.665  23.667   1.356
 7361W        W71085  26.477  16.224   3.728
 7362W        W71086  36.096  15.744   9.954
 7363W        W71087  23.563  23.007   1.363
 7364W        W71088  14.266   5.325  11.938
 7365W        W71089  26.688   7.737   1.799
 7366W        W71090   5.932  10.298   1.720
 7367W        W71091  35.867  41.841   0.793
 7368W        W71092  25.713  20.089  12.425
 7369W        W71093  12.293  44.903  14.920
 7370W        W71094   6.768  14.122   4.131
 7371W        W71095  26.970  34.555  10.615
 7372W        W71096  43.008  11.246   2.402
 7373W        W71097  33.553  35.559  14.019
 7374W        W71098  44.486  20.132  10.972
 7375W        W71099  11.773  34.428  12.022
 7376W        W71100  21.736  27.451  12.345
 7377W        W71101  14.208  31.932   3.742
 7378W        W71102  33.992  16.131   1.783
 7379W        W71103  39.884  21.143   3.801
 7380W        W71104   1.919  37.562  13.805
 7381W        W71105  20.641   1.439   1.316
 7382W        W71106   0.427   6.897  12.927
 7383W        W71107  41.356  34.431  13.918
 7384W        W71108  28.965  44.367   2.214
 7385W        W71109  41.522  24.994   2.827
 7386W        W71110  39.832  31.511   0.768
 7387W        W71111  30.499  30.933  13.977
 7388W        W71112   0.914  26.659  12.982
 7389W        W71113   5.299  33.996  10.888
 7390W        W71114   0.794  39.327   0.910
 7391W        W71115  26.530  11.834  11.900
 7392W        W71116  21.552  34.110  13.820
 7393W        W71117  10.702   8.837  11.904
 7394W        W71118  25.674   5.745   3.246
 7395W        W71119  39.439  34.901   3.699
 7396W        W71120  35.049   3.954  11.047
 7397W        W71121  36.034  40.392  10.565
 7398W        W71122   4.352  43.891   0.334
 7399W        W71123  12.329  10.817  10.487
 7400W        W71124  32.587  18.655   1.824
 7401W        W71125   0.847  38.435   0.351
 7402W        W71126  26.668  15.149  11.382
 7403W        W71127   5.388  14.168   4.764
 7404W        W71128  22.565  35.916   3.201
 7405W        W71129   1.815  36.034   1.854
 7406W        W71130   0.438  39.837  11.589
 7407W        W71131  14.270  24.698  10.934
 7408W        W71132  39.814  15.311  10.556
 7409W        W71133  20.056  32.139   3.231
 7410W        W71134  31.068  39.939   0.351
 7411W        W71135  44.396  27.055  11.044
 7412W        W71136  17.706  38.004   2.325
 7413W        W71137  34.461  24.553  14.282
 7414W        W71138  21.513   5.715  12.418
 7415W        W71139   6.294   7.243  10.563
 7416W        W71140  22.712  14.806  11.092
 7417W        W71141  18.586  43.965  14.881
 7418W        W71142  43.003  21.553   5.591
 7419W        W71143   9.762  12.147  12.853
 7420W        W71144  38.046  39.055  11.478
 7421W        W71145  24.616  31.425   0.246
 7422W        W71146  15.583  28.642  10.424
 7423W        W71147  39.482   3.445  11.124
 7424W        W71148  35.469  39.512  10.987
 7425W        W71149  41.957  43.406   0.851
 7426W        W71150  31.080   5.833   1.276
 7427W        W71151  23.090  36.947  13.509
 7428W        W71152  44.987   6.366  14.012
 7429W        W71153  22.570  35.530  14.483
 7430W        W71154  12.761  33.517   2.182
 7431W        W71155   0.263  23.642  12.877
 7432W        W71156   9.359  20.111  11.575
 7433W        W71157  44.416  19.565   2.212
 7434W        W71158   2.463  40.343   1.425
 7435W        W71159  26.180  21.583   3.677
 7436W        W71160   2.326  17.564   3.255
 7437W        W71161   0.425  15.102  11.096
 7438W        W71162   8.823  15.810  14.946
 7439W        W71163   6.313  30.009   3.247
 7440W        W71164   6.204  31.960  13.968
 7441W        W71165  12.826  40.858  12.052
 7442W        W71166   4.928  40.334  10.526
 7443W        W71167   9.811  37.007  12.381
 7444W        W71168  41.829  23.656  10.067
 7445W        W71169  18.236  22.658   1.770
 7446W        W71170  26.482  16.755  11.933
 7447W        W71171   0.340  11.358  14.786
 7448W        W71172  33.528  27.615  12.064
 7449W        W71173  38.985   3.449   3.828
 7450W        W71174  37.464  33.396   4.187
 7451W        W71175   6.243   3.356   2.889
 7452W        W71176  32.956  19.775   2.220
 7453W        W71177  26.034  41.482  12.973
 7454W        W71178  39.996  36.422   1.900
 7455W        W71179  42.418  36.518  14.870
 7456W        W71180   3.746  38.964   9.951
 7457W        W71181  42.524  13.306  14.009
 7458W        W71182  42.377  17.174  12.921
 7459W        W71183  22.123   4.770  14.856
 7460W        W71184  31.454  41.407  12.009
 7461W        W71185  32.038  20.088   4.657
 7462W        W71186  15.661  36.576   0.926
 7463W        W71187  10.356   4.403   0.293
 7464W        W71188  24.050  40.922   2.676
 7465W        W71189   8.212  13.735  12.452
 7466W        W71190  11.190   4.722   3.229
 7467W        W71191  23.115  34.870  14.470
 7468W        W71192   1.812  20.099  11.406
 7469W        W71193  26.054  34.867   3.810
 7470W        W71194   1.298  24.230   3.219
 7471W        W71195  10.230  37.920  14.988
 7472W        W71196  35.580  44.003   4.606
 7473W        W71197   3.368   7.689   2.688
 7474W        W71198  10.273  32.972   2.814
 7475W        W71199  27.136  22.670  14.369
 7476W        W71200  23.656  30.009  11.006
 7477W        W71201   6.895  42.471  14.503
 7478W        W71202   7.866   9.187  14.457
 7479W        W71203  31.544   9.289   1.857
 7480W        W71204   4.838  16.121   2.815
 7481W        W71205  27.594   3.797   1.767
 7482W        W71206  11.703  11.759   3.266
 7483W        W71207   1.756  43.906  12.520
 7484W        W71208  27.464  27.667   3.185
 7485W        W71209  13.797  15.809  10.461
 7486W        W71210   1.916  39.893  14.508
 7487W        W71211  35.076  25.539  12.848
 7488W        W71212  16.648  33.617  13.853
 7489W        W71213  12.655  14.193  13.923
 7490W        W71214  31.621  19.608   4.770
 7491W        W71215  21.026  34.892  10.529
 7492W        W71216   2.926  16.568  10.426
 7493W        W71217   1.867  43.891   3.782
 7494W        W71218  12.259  44.361  13.851
 7495W        W71219  20.608  44.464  14.960
 7496W        W71220  20.157  34.479   0.376
 7497W        W71221  27.965  15.158   1.844
 7498W        W71222  15.246  28.465  10.450
 7499W        W71223  32.517  12.622  11.917
 7500W        W71224  18.563  13.784  12.351
 7501W        W71225  19.041  34.006  11.543
 7502W        W71226   0.796  25.665  10.606
 7503W        W71227   2.269  30.014  13.793
 7504W        W71228   3.746  19.248   0.893
 7505W        W71229  23.507  37.534   4.710
 7506W        W71230  42.283  11.337  12.399
 7507W        W71231  40.488  32.487  11.889
 7508W        W71232  22.725  30.163   2.335
 7509W        W71233  19.774  39.862   2.192
 7510W        W71234   2.898  30.099  13.923
 7511W        W71235  33.007   1.339   1.382
 7512W        W71236  15.700  42.370   4.795
 7513W        W71237  14.833  26.481   2.284
 7514W        W71238  39.356  18.271  12.884
 7515W        W71239  27.668  32.116   3.306
 7516W        W71240  44.873   2.958   1.720
 7517W        W71241  34.021  44.971  11.962
 7518W        W71242  18.080   4.357   0.451
 7519W        W71243  16.593   7.385  13.473
 7520W        W71244  31.030  35.595   4.143
 7521W        W71245  35.856   1.851   0.788
 7522W        W71246  17.690  36.097   4.654
 7523W        W71247  29.527  29.970   3.828
 7524W        W71248   3.372   8.400   0.378
 7525W        W71249  39.318   5.329  12.403
 7526W        W71250  38.421  17.149   0.866
 7527W        W71251  28.134  22.135   4.316
 7528W        W71252  36.894  15.819   3.728
 7529W        W71253   4.773  37.920  13.470
 7530W        W71254   7.179  34.551  12.906
 7531W        W71255  13.260  27.495  11.459
 7532W        W71256  20.749  32.474   0.353
 7533W        W71257   7.734  32.038   0.935
 7534W        W71258  31.586  32.480  11.933
 7535W        W71259  18.122   6.315  13.039
 7536W        W71260   6.379  44.388  12.364
 7537W        W71261  18.550  40.006  10.584
 7538W        W71262  24.129  26.126   3.321
 7539W        W71263   9.744  38.979  14.437
 7540W        W71264  12.117   6.262  10.601
 7541W        W71265  38.028  17.069   4.833
 7542W        W71266  17.665  43.841   2.290
 7543W        W71267  20.225  19.258  11.993
 7544W        W71268  32.906   2.785  12.435
 7545W        W71269  38.439  27.117  11.479
 7546W        W71270  23.508  12.178  14.436
 7547W        W71271   1.475  33.458  12.960
 7548W        W71272  20.082  14.103   0.816
 7549W        W71273  36.085  15.585   2.870
 7550W        W71274  11.168  30.568  12.521
 7551W        W71275   7.287  39.052  12.031
 7552W        W71276  41.909  40.324   1.749
 7553W        W71277  38.930  39.065  13.531
 7554W        W71278  16.094  27.157   1.406
 7555W        W71279   7.177  30.595   3.174
 7556W        W71280  18.644  30.592   3.342
 7557W        W71281  27.994   3.357   0.764
 7558W        W71282   0.766  18.052   4.618
 7559W        W71283  30.466  44.759  11.429
 7560W        W71284  27.100  40.847  14.785
 7561W        W71285  14.770   4.320   0.882
 7562W        W71286   7.851  37.879  14.374
 7563W        W71287  42.907  16.262  11.529
 7564W        W71288  32.607  44.790  10.596
 7565W        W71289  41.460   8.759   3.273
 7566W        W71290   3.454  20.527  14.465
 7567W        W71291   5.224  11.203   3.225
 7568W        W71292  17.174  18.128  12.065
 7569W        W71293  15.603  42.407   0.447
 7570W        W71294  38.898   2.247  11.945
 7571W        W71295  34.511  35.892  10.599
 7572W        W71296  19.664  21.223   2.736
 7573W        W71297  34.032  38.913  13.924
 7574W        W71298  18.080  29.073  10.580
 7575W        W71299  35.499  13.344  14.296
 7576W        W71300  25.081  15.730  14.455
 7577W        W71301   5.695   4.429  14.824
 7578W        W71302   3.253   1.436  12.376
 7579W        W71303   9.666  38.490  11.467
 7580W        W71304   6.389  13.812   4.307
 7581W        W71305  43.785  13.629   3.169
 7582W        W71306   5.758   0.292   2.188
 7583W        W71307  44.405  26.098   3.704
 7584W        W71308  13.158  38.824   4.669
 7585W        W71309  24.091  23.232   4.652
 7586W        W71310   2.914  20.557   4.272
 7587W        W71311  22.242   8.692  13.798
 7588W        W71312  13.272  12.851  13.907
 7589W        W71313  16.688  38.995   3.676
 7590W        W71314  21.605  39.871   0.776
 7591W        W71315  38.355  27.045  12.066
 7592W        W71316  30.074  30.469   1.829
 7593W        W71317  40.395  35.558   1.867
 7594W        W71318  32.061  12.788   5.173
 7595W        W71319   4.433  38.431  10.482
 7596W        W71320  35.929  23.600  11.385
 7597W        W71321  10.660  44.468   2.212
 7598W        W71322  21.566  43.337  13.920
 7599W        W71323  12.647  20.100  11.524
 7600W        W71324  27.462  22.236  10.514
 7601W        W71325   0.380  31.471  10.533
 7602W        W71326  25.184  19.561   2.369
 7603W        W71327   4.866   6.852  12.929
 7604W        W71328  12.819  41.351   2.747
 7605W        W71329  37.542  10.349  14.027
 7606W        W71330  16.745  15.154  11.540
 7607W        W71331  43.453  33.440  10.410
 7608W        W71332   6.366  10.290  11.964
 7609W        W71333   2.746  23.718  13.929
 7610W        W71334   5.807   6.355  12.429
 7611W        W71335  33.601   8.221   2.824
 7612W        W71336  15.224  39.053   2.304
 7613W        W71337  13.324   0.933  11.126
 7614W        W71338   7.228  13.605   0.480
 7615W        W71339  24.085   5.299   3.649
 7616W        W71340  23.197  37.419  12.504
 7617W        W71341  20.071   2.923   2.411
 7618W        W71342   3.783  27.073  11.859
 7619W        W71343  13.254  24.561   0.438
 7620W        W71344  36.849  39.467  11.514
 7621W        W71345  31.502  44.297   2.883
 7622W        W71346  41.042  26.644   3.694
 7623W        W71347  42.406   4.273  12.924
 7624W        W71348  25.005   7.352   0.752
 7625W        W71349  34.444  16.689  11.580
 7626W        W71350  21.727  33.554  13.949
 7627W        W71351  36.847   9.163   4.305
 7628W        W71352  44.964  21.537   3.219
 7629W        W71353   9.367  24.547  13.866
 7630W        W71354  38.477  20.550   4.293
 7631W        W71355  24.521   8.656   0.830
 7632W        W71356   7.247  12.824   4.260
 7633W        W71357  29.453   4.704  11.920
 7634W        W71358  14.725   0.896   3.750
 7635W        W71359  34.883  26.540  12.978
 7636W        W71360   2.425  18.238   3.786
 7637W        W71361  13.656  12.351   0.274
 7638W        W71362  31.942  41.798  14.957
 7639W        W71363   4.357  16.139  10.936
 7640W        W71364   6.691  13.341  12.419
 7641W        W71365  10.309  31.562  13.934
 7642W        W71366  12.828  44.270   0.809
 7643W        W71367  11.176   3.801  12.537
 7644W        W71368  25.175   3.719  10.927
 7645W        W71369  34.036  34.546  13.474
 7646W        W71370   6.362  11.638   1.759
 7647W        W71371  42.031  33.599  10.013
 7648W        W71372  29.474  35.451  14.945
 7649W        W71373   2.261  25.524   4.214
 7650W        W71374   5.265  27.484  14.507
 7651W        W71375  14.145  18.188   3.849
 7652W        W71376  39.948   4.272   3.852
 7653W        W71377  28.060  30.930  14.910
 7654W        W71378  41.905  44.475   0.470
 7655W        W71379  16.582   9.333  12.019
 7656W        W71380  11.163   4.730   4.281
 7657W        W71381   6.874  43.952  11.971
 7658W        W71382  12.693   8.393  12.080
 7659W        W71383   7.814  32.460  14.800
 7660W        W71384  41.388  35.919  11.077
 7661W        W71385  19.066   5.290   2.364
 7662W        W71386  39.917  41.334   1.768
 7663W        W71387  36.018  35.900   4.142
 7664W        W71388  41.858  32.632   2.731
 7665W        W71389  43.478   1.239  12.901
 7666W        W71390  36.843   9.289  12.824
 7667W        W71391   0.804  23.997   2.887
 7668W        W71392   8.723   2.864  10.621
 7669W        W71393   9.848  28.590   4.186
 7670W        W71394  32.497   6.848   0.928
 7671W        W71395  32.920  30.908  12.495
 7672W        W71396  18.790  42.864  13.317
 7673W        W71397   1.961   3.330  11.064
 7674W        W71398  29.176  17.727  12.894
 7675W        W71399  32.509  29.427   0.400
 7676W        W71400  36.531  32.549   2.829
 7677W        W71401   8.726  31.632   0.842
 7678W        W71402  18.063   2.430  11.063
 7679W        W71403  42.002  28.545   2.199
 7680W        W71404  33.066   5.859  13.504
 7681W        W71405   9.830   3.265  10.906
 7682W        W71406  33.957  38.056   0.378
 7683W        W71407  29.471   9.824  14.812
 7684W        W71408  12.177   1.745  11.922
 7685W        W71409   3.848  24.222   0.283
 7686W        W71410  24.628   2.371   1.382
 7687W        W71411  37.446  39.012   5.133
 7688W        W71412  19.609  28.579  12.861
 7689W        W71413  28.100   0.417   1.376
 7690W        W71414  18.554   5.293  14.005
 7691W        W71415  32.950  39.950   4.185
 7692W        W71416   2.321  12.634  10.930
 7693W        W71417  30.570  43.327   3.374
 7694W        W71418  32.993  22.099   3.266
 7695W        W71419  15.140  27.141  12.023
 7696W        W71420  20.092  38.369  11.948
 7697W        W71421  11.251  25.531   0.357
 7698W        W71422  38.362  18.789   3.371
 7699W        W71423  36.465  29.534  13.872
 7700W        W71424  37.033   0.274   2.796
 7701W        W71425   0.270  21.234   4.209
 7702W        W71426   2.376  42.025  10.986
 7703W        W71427  43.814  19.754  11.870
 7704W        W71428  14.311  20.662  12.943
 7705W        W71429  24.056  39.422   4.155
 7706W        W71430   5.785  41.376   2.383
 7707W        W71431  11.300  38.926   4.770
 7708W        W71432   7.731  40.913   2.180
 7709W        W71433  35.984  16.580  13.329
 7710W        W71434   4.705  25.524  11.915
 7711W        W71435  21.072   8.317  13.957
 7712W        W71436   2.362  10.236  13.924
 7713W        W71437  34.600  33.008  12.942
 7714W        W71438   2.804   5.852   2.773
 7715W        W71439  29.091  14.240  14.988
 7716W        W71440  13.764  27.088   1.378
 7717W        W71441  38.903  13.754  11.878
 7718W        W71442  44.821  32.000  14.962
 7719W        W71443  12.198  44.435  13.343
 7720W        W71444  40.401  15.154   3.280
 7721W        W71445  36.406  27.664   0.966
 7722W        W71446  39.906  40.017   2.405
 7723W        W71447  24.161  27.122  12.058
 7724W        W71448  15.792  17.091   4.709
 7725W        W71449  41.489   3.729  13.419
 7726W        W71450   0.898  41.344  10.156
 7727W        W71451   8.849   1.756   1.276
 7728W        W71452   9.214  23.575  12.435
 7729W        W71453  12.306  27.670  12.472
 7730W        W71454  36.543  31.007   0.282
 7731W        W71455  38.455  24.980   2.342
 7732W        W71456   1.790   9.876   4.123
 7733W        W71457  10.832  14.196   0.802
 7734W        W71458  15.174  24.702  10.976
 7735W        W71459   2.903  11.731  10.979
 7736W        W71460  25.656  31.956  14.861
 7737W        W71461  19.278  10.757   0.913
 7738W        W71462  22.728   7.238  14.373
 7739W        W71463   8.897  24.216  11.474
 7740W        W71464   2.306  31.549   1.325
 7741W        W71465   5.416  43.424   4.284
 7742W        W71466  26.110  35.394   1.737
 7743W        W71467  17.561  41.035  14.328
 7744W        W71468  38.435  36.441   2.354
 7745W        W71469  26.957   2.232  12.871
 7746W        W71470   3.879  37.511  11.855
 7747W        W71471  18.063  28.964  13.521
 7748W        W71472  44.278   8.820   1.247
 7749W        W71473  41.843  18.139  12.927
 7750W        W71474  32.048  20.580  10.449
 7751W        W71475   6.768  23.986   0.397
 7752W        W71476  27.053   7.347   1.426
 7753W        W71477  27.593  39.340  14.366
 7754W        W71478  15.581  38.962   2.749
 7755W        W71479  40.835  33.398  14.365
 7756W        W71480  43.889  34.089   1.901
 7757W        W71481  31.555  32.535   0.866
 7758W        W71482  33.063   9.871   3.179
 7759W        W71483  15.322  36.077  10.488
 7760W        W71484  10.861  21.612  11.403
 7761W        W71485   6.833  21.155   0.878
 7762W        W71486   4.771  39.047  13.851
 7763W        W71487  12.711  35.555  11.514
 7764W        W71488  24.507  11.147   2.766
 7765W        W71489  33.042  10.154   2.776
 7766W        W71490  29.923  42.430  13.040
 7767W        W71491  43.361  19.178  12.560
 7768W        W71492  35.021  43.487  11.991
 7769W        W71493   6.700   9.215   5.183
 7770W        W71494  12.851  11.794   0.968
 7771W        W71495  22.607   2.951   0.291
 7772W        W71496  38.969  40.525  14.475
 7773W        W71497  15.098  36.910  12.360
 7774W        W71498  25.218  15.289  13.043
 7775W        W71499  26.660  19.114  12.472
 7776W        W71500   3.331  43.282   2.412
 7777W        W71501  27.971  43.284   3.181
 7778W        W71502  24.982  31.940  11.431
 7779W        W71503  37.405  38.335  10.578
 7780W        W71504  12.134  32.415   3.378
 7781W        W71505  37.413  27.016   2.365
 7782W        W71506   6.286  22.043  12.469
 7783W        W71507  15.681   8.403   4.141
 7784W        W71508   3.910  34.581   0.784
 7785W        W71509  10.847  20.241   4.117
 7786W        W71510  24.064   1.912   1.835
 7787W        W71511  37.429   9.288   3.290
 7788W        W71512  28.655  21.609   3.772
 7789W        W71513   6.293  12.636  11.969
 7790W        W71514  33.472  14.213   3.701
 7791W        W71515  33.396  35.415   4.241
 7792W        W71516  20.113  33.025  10.986
 7793W        W71517  11.826   4.918   4.601
 7794W        W71518  22.540   9.197  13.839
 7795W        W71519  41.807  34.008   4.121
 7796W        W71520  43.320  29.032  11.930
 7797W        W71521  18.595   8.795   2.234
 7798W        W71522  33.437  28.112   3.849
 7799W        W71523  32.614   5.436  11.036
 7800W        W71524   6.315  31.026  13.422
 7801W        W71525  41.886   5.811  12.403
 7802W        W71526   1.245  32.482  12.903
 7803W        W71527  27.115   3.289  11.930
 7804W        W71528  38.339  14.163  12.565
 7805W        W71529   5.753  20.099  14.498
 7806W        W71530   4.918   5.285   4.145
 7807W        W71531  12.836  29.031  12.444
 7808W        W71532  22.523   3.277   4.665
 7809W        W71533  16.266  32.402   3.849
 7810W        W71534  24.685  17.217   1.759
 7811W        W71535  36.591  17.721  13.987
 7812W        W71536   9.209  43.387  12.524
 7813W        W71537  22.043  41.945   4.317
 7814W        W71538  23.658  38.966  12.014
 7815W        W71539  36.370  38.902   3.770
 7816W        W71540   5.862  40.547  13.902
 7817W        W71541   0.443  38.047   0.862
 7818W        W71542  28.639  26.469  11.584
 7819W        W71543  35.493  41.361   2.685
 7820W        W71544  12.803   4.731   1.239
 7821W        W71545  15.327  37.943  13.860
 7822W        W71546   5.872   4.724   1.854
 7823W        W71547  39.417   4.339   1.351
 7824W        W71548  38.918   0.853   0.321
 7825W        W71549  35.381  31.979   3.856
 7826W        W71550  11.775   2.373   4.244
 7827W        W71551  22.604   0.461   4.264
 7828W        W71552  11.272   5.707   4.690
 7829W        W71553  17.682  28.521  14.889
 7830W        W71554  34.578  38.973   4.222
 7831W        W71555  16.759   1.311  14.357
 7832W        W71556  24.547  10.383   1.422
 7833W        W71557   6.747  40.952   0.730
 7834W        W71558  23.566  22.010  14.032
 7835W        W71559  15.117  34.889   4.173
 7836W        W71560  24.627  32.422   5.793
 7837W        W71561  21.135   0.754   0.774
 7838W        W71562   2.256   5.864  11.580
 7839W        W71563   0.368  44.484  14.427
 7840W        W71564  23.240  13.657   0.348
 7841W        W71565   4.220  37.515  11.377
 7842W        W71566  34.451  36.569   3.660
 7843W        W71567   3.373  27.596  11.548
 7844W        W71568  27.451  40.876   1.338
 7845W        W71569   7.869  22.530   4.337
 7846W        W71570  36.557  13.838   9.515
 7847W        W71571  10.812  33.896   1.341
 7848W        W71572  39.005  18.237   0.927
 7849W        W71573  14.669  35.884  14.809
 7850W        W71574  27.046  16.801  13.878
 7851W        W71575  39.387  18.649  13.056
 7852W        W71576   6.837  29.447  14.332
 7853W        W71577  38.983  25.033  14.925
 7854W        W71578  42.977  35.992  10.929
 7855W        W71579   8.245   2.242  11.090
 7856W        W71580  42.820  12.212  14.825
 7857W        W71581  39.467  25.638  11.401
 7858W        W71582  18.780  23.171  14.411
 7859W        W71583  12.129  42.336  11.435
 7860W        W71584   0.389   4.345  12.032
 7861W        W71585  16.578  32.548  13.978
 7862W        W71586  28.958   1.859  12.915
 7863W        W71587  32.909  27.001   4.251
 7864W        W71588  17.798  24.676   3.672
 7865W        W71589  18.295  38.570  13.049
 7866W        W71590  30.984  39.049  12.521
 7867W        W71591  20.618  36.035  14.840
 7868W        W71592  15.103  10.301   4.663
 7869W        W71593  36.973  11.749  14.317
 7870W        W71594  26.547  26.699  13.360
 7871W        W71595  36.021  34.373   0.443
 7872W        W71596   1.298  39.012   3.722
 7873W        W71597  35.924  33.911   1.907
 7874W        W71598  18.774  22.134  13.826
 7875W        W71599  41.534  14.814  12.033
 7876W        W71600  31.556  16.638   0.945
 7877W        W71601  17.226  27.517  12.445
 7878W        W71602  39.889  26.021   2.699
 7879W        W71603  32.053   9.352  11.426
 7880W        W71604  22.621  12.701  13.396
 7881W        W71605  18.061  20.201   2.758
 7882W        W71606   4.874  31.564   1.296
 7883W        W71607  38.560  38.353  12.013
 7884W        W71608  36.391  20.656  14.281
 7885W        W71609  41.959  37.011   0.316
 7886W        W71610  12.188   6.829   1.773
 7887W        W71611  40.029  32.500  14.826
 7888W        W71612  31.520   6.259   2.305
 7889W        W71613  10.690  39.388   4.124
 7890W        W71614  42.775  24.579   1.258
 7891W        W71615  42.520  36.019  11.112
 7892W        W71616  38.451  10.703  12.862
 7893W        W71617  16.200  12.333  14.845
 7894W        W71618  11.676  11.190   3.686
 7895W        W71619   0.820   3.330   4.246
 7896W        W71620  35.543  28.655  12.028
 7897W        W71621   5.322  18.704   0.386
 7898W        W71622  44.422  37.069  13.327
 7899W        W71623  35.441  14.831  12.417
 7900W        W71624  44.004  40.506  13.046
 7901W        W71625  42.368  23.511   1.767
 7902W        W71626  34.084   6.717   2.302
 7903W        W71627  14.099  34.476   1.287
 7904W        W71628  27.951  18.100  14.321
 7905W        W71629   5.279  18.147  14.289
 7906W        W71630  29.011  26.114   0.831
 7907W        W71631  11.228  37.478  14.470
 7908W        W71632  29.079  23.127  14.864
 7909W        W71633  20.748  31.431   0.878
 7910W        W71634  33.384  23.053   4.126
 7911W        W71635  31.001  44.892  13.008
 7912W        W71636   3.814  34.007  12.426
 7913W        W71637  17.269  37.937   3.777
 7914W        W71638  25.105  36.884   4.832
 7915W        W71639  19.129  35.469   3.385
 7916W        W71640  41.336  13.296  11.061
 7917W        W71641  43.014  23.517  13.523
 7918W        W71642  12.312  42.919  11.407
 7919W        W71643  30.158  22.194  13.419
 7920W        W71644  19.135  10.776  11.099
 7921W        W71645  10.797  27.603   2.368
 7922W        W71646  28.029  27.169   0.888
 7923W        W71647  33.040  28.185  12.343
 7924W        W71648  20.149  14.143  12.878
 7925W        W71649  38.884  38.460  10.922
 7926W        W71650  20.553  33.603   0.824
 7927W        W71651   2.760   9.732   1.408
 7928W        W71652  11.739  36.553  11.440
 7929W        W71653  36.918  11.649  10.583
 7930W        W71654  18.168   0.400  13.347
 7931W        W71655   6.908  15.680   4.204
 7932W        W71656  40.399  12.258  11.962
 7933W        W71657   5.235  31.469   4.748
 7934W        W71658  22.166  10.164   1.309
 7935W        W71659  19.777  43.402  14.412
 7936W        W71660   8.662   3.720  13.323
 7937W        W71661  25.141  28.080  11.558
 7938W        W71662  25.038  28.643  13.946
 7939W        W71663  30.103  32.615   0.833
 7940W        W71664  11.739  23.733   2.784
 7941W        W71665  39.827   6.685   1.375
 7942W        W71666  13.718  28.049   1.907
 7943W        W71667  29.452   0.766   4.692
 7944W        W71668  15.284  40.382  14.501
 7945W        W71669  27.123  14.768   0.780
 7946W        W71670   1.742   5.700  13.877
 7947W        W71671   9.645  29.439   3.151
 7948W        W71672  40.029  19.704  10.429
 7949W        W71673  27.955  27.520   3.696
 7950W        W71674  22.529  32.466  10.960
 7951W        W71675   1.482   3.875   1.765
 7952W        W71676   5.815  13.201   2.823
 7953W        W71677   8.897  39.906  12.438
 7954W        W71678  13.812   7.309  13.851
 7955W        W71679   6.383   3.459   2.186
 7956W        W71680  12.636  38.417  11.387
 7957W        W71681  22.734  35.104   2.269
 7958W        W71682   0.412  30.923   4.279
 7959W        W71683  38.061  11.692  13.812
 7960W        W71684   3.415   4.284   3.828
 7961W        W71685   4.362  25.690  13.465
 7962W        W71686  28.137   8.254   0.932
 7963W        W71687  44.288  13.742   0.357
 7964W        W71688   3.376  14.799   2.412
 7965W        W71689  43.494  26.146  11.608
 7966W        W71690  15.234  18.184   4.601
 7967W        W71691  39.847  18.171  11.402
 7968W        W71692  21.578  33.522   0.397
 7969W        W71693   1.371   0.394   0.305
 7970W        W71694   8.237   0.466  13.989
 7971W        W71695   4.296   1.857   0.387
 7972W        W71696  22.209  37.048   1.240
 7973W        W71697  43.513   9.731  13.422
 7974W        W71698  20.644  18.756  12.490
 7975W        W71699  15.674  20.603  11.590
 7976W        W71700   8.396  35.014   0.291
 7977W        W71701  39.912   0.251  12.039
 7978W        W71702  37.364  24.489  14.490
 7979W        W71703  27.082  25.139   2.244
 7980W        W71704  42.496  14.771  14.439
 7981W        W71705  16.110  16.108   5.148
 7982W        W71706  14.705  26.064  14.776
 7983W        W71707  37.018  38.479  12.078
 7984W        W71708  42.396  13.697   4.803
 7985W        W71709  36.430   7.757  13.872
 7986W        W71710  28.467  10.300   5.219
 7987W        W71711  31.036   4.342  14.828
 7988W        W71712  31.421  27.185   2.398
 7989W        W71713  30.445  12.700   2.704
 7990W        W71714  17.714  30.514   4.238
 7991W        W71715  40.401  38.875  13.433
 7992W        W71716   6.921  24.565  13.540
 7993W        W71717  26.554  30.472   3.196
 7994W        W71718  42.930  33.893  13.936
 7995W        W71719  27.187  41.486  13.888
 7996W        W71720  43.818  16.759  12.933
 7997W        W71721  34.956  22.565   1.899
 7998W        W71722  10.179  14.177   4.663
 7999W        W71723  43.288   2.326   3.751
 8000W        W71724  29.148  23.604  11.567
 8001W        W71725  27.058  34.369   3.172
 8002W        W71726  29.032  12.648   4.635
 8003W        W71727  24.991  17.682   3.647
 8004W        W71728  22.648  10.695  11.070
 8005W        W71729   3.834  31.913  12.444
 8006W        W71730   8.252  23.617   2.339
 8007W        W71731  35.476   4.389  14.407
 8008W        W71732  28.930  16.242  13.462
 8009W        W71733  20.691  30.455   1.412
 8010W        W71734  12.655   5.297   5.708
 8011W        W71735  39.906   0.766  12.450
 8012W        W71736   3.876  13.683   0.245
 8013W        W71737  39.547  10.145  12.963
 8014W        W71738  16.230   2.756   0.945
 8015W        W71739   7.417  28.573  11.422
 8016W        W71740  13.149  27.518  13.414
 8017W        W71741  13.213  14.825  14.300
 8018W        W71742   7.688  33.029  14.425
 8019W        W71743   3.944   2.914  11.069
 8020W        W71744  18.783  33.528   9.975
 8021W        W71745   2.468  39.917   4.708
 8022W        W71746  24.149  28.052   1.762
 8023W        W71747  20.744  39.867  10.952
 8024W        W71748  35.421   9.281  11.383
 8025W        W71749  26.486  13.149   1.430
 8026W        W71750  37.459  14.270   0.469
 8027W        W71751  34.520  19.559   0.949
 8028W        W71752  10.344  36.917   0.745
 8029W        W71753  17.560   4.391   5.307
 8030W        W71754   3.381  43.984  13.340
 8031W        W71755  44.787  11.733   1.903
 8032W        W71756  36.082  10.313   4.220
 8033W        W71757  21.162  44.288   4.228
 8034W        W71758   4.291  34.529   3.781
 8035W        W71759  38.834  27.142  13.886
 8036W        W71760  30.003  35.976  14.956
 8037W        W71761   1.744  14.724   2.282
 8038W        W71762  36.013  20.119   1.874
 8039W        W71763  35.448  13.833   1.792
 8040W        W71764  14.804   3.291  13.473
 8041W        W71765  10.288  29.143  10.034
 8042W        W71766   4.725  24.986   1.303
 8043W        W71767  18.625  44.395  14.758
 8044W        W71768  24.097  39.481   4.832
 8045W        W71769  17.789  27.495   1.751
 8046W        W71770   0.422   8.898  11.506
 8047W        W71771  20.550  20.532   0.269
 8048W        W71772  38.488  13.179  11.402
 8049W        W71773  11.323  35.876   1.361
 8050W        W71774  26.464  20.685   2.902
 8051W        W71775   5.709   9.690   4.135
 8052W        W71776  38.967  15.594   3.185
 8053W        W71777   5.386  30.077  11.868
 8054W        W71778  18.107  24.644  11.081
 8055W        W71779  27.617  12.316  11.596
 8056W        W71780  38.903  37.880  12.952
 8057W        W71781  25.140  17.107  12.374
 8058W        W71782  27.531  35.495   0.765
 8059W        W71783   7.719  33.495  13.799
 8060W        W71784  35.882   0.864  11.492
 8061W        W71785   2.441  43.817  12.467
 8062W        W71786  39.955  40.385   0.471
 8063W        W71787  10.725   8.700  14.936
 8064W        W71788  24.542   9.745  14.976
 8065W        W71789   2.409  16.696   0.413
 8066W        W71790  35.047  16.175  14.337
 8067W        W71791  37.018  32.625   0.314
 8068W        W71792  14.804   5.810   5.091
 8069W        W71793  23.593  27.014   4.667
 8070W        W71794   9.219  38.831  10.914
 8071W        W71795  19.753   0.316  10.485
 8072W        W71796  20.252   7.292  11.910
 8073W        W71797  32.414  13.680  10.068
 8074W        W71798  24.111   2.772   1.244
 8075W        W71799  42.793   6.807   2.407
 8076W        W71800  32.604   2.745   1.854
 8077W        W71801   8.702  41.336   2.894
 8078W        W71802  43.890  27.019  13.931
 8079W        W71803  17.239  28.950  10.489
 8080W        W71804  21.055  14.652  12.467
 8081W        W71805  33.940  31.456  11.507
 8082W        W71806   7.328  16.645  13.838
 8083W        W71807  31.468   3.297   0.392
 8084W        W71808   5.805  26.183  11.420
 8085W        W71809  26.134  28.034  13.444
 8086W        W71810  42.956  29.453   1.374
 8087W        W71811  14.640   7.710   5.225
 8088W        W71812  29.667  15.733  11.487
 8089W        W71813  30.984   9.344   3.859
 8090W        W71814  29.091  25.479   4.611
 8091W        W71815  43.817   6.782  11.395
 8092W        W71816  30.920  31.066   0.881
 8093W        W71817  11.296  41.986  12.903
 8094W        W71818  31.902  31.053   1.426
 8095W        W71819  36.545  19.086   2.741
 8096W        W71820  15.159  12.241  11.109
 8097W        W71821  16.146  34.030   3.742
 8098W        W71822   6.241  43.374  10.426
 8099W        W71823   0.325  23.052  11.856
 8100W        W71824  42.973  17.562   0.415
 8101W        W71825  25.111  31.065   2.287
 8102W        W71826   1.881  28.578   2.304
 8103W        W71827   4.928  35.389  15.000
 8104W        W71828  42.900   3.455   1.810
 8105W        W71829  12.263  17.143  10.444
 8106W        W71830   3.890  12.349   4.686
 8107W        W71831  26.089  34.573   3.195
 8108W        W71832  37.038  25.179  14.338
 8109W        W71833  42.410  43.904  14.915
 8110W        W71834  30.601  21.696  11.517
 8111W        W71835  44.329   8.805   4.728
 8112W        W71836  22.178  24.703  14.397
 8113W        W71837  17.764  32.139   3.200
 8114W        W71838   5.369   7.837  13.495
 8115W        W71839  40.037  25.576   4.325
 8116W        W71840  43.883  11.310  10.630
 8117W        W71841  35.484   3.454  12.881
 8118W        W71842  11.667  23.586  10.998
 8119W        W71843  23.553   6.864  12.445
 8120W        W71844  21.203  43.333   0.244
 8121W        W71845  37.383  26.097   3.374
 8122W        W71846  30.429  27.691   3.665
 8123W        W71847  20.711  22.518   2.296
 8124W        W71848  26.964  24.106  14.960
 8125W        W71849  32.548  22.040   1.767
 8126W        W71850   7.378  20.679   2.770
 8127W        W71851   6.834  43.852  11.085
 8128W        W71852   4.732   5.225  13.359
 8129W        W71853  22.092   1.345   3.677
 8130W        W71854  31.618  16.198   1.287
 8131W        W71855  15.232  29.628  14.847
 8132W        W71856  13.266  43.000   1.838
 8133W        W71857  30.940  33.537   3.741
 8134W        W71858  36.917  31.538  12.352
 8135W        W71859  12.815   9.222   2.359
 8136W        W71860  23.651  30.585  11.452
 8137W        W71861  20.272  20.096   0.927
 8138W        W71862  15.207  18.626  12.916
 8139W        W71863  30.459  31.952  12.443
 8140W        W71864  28.510  11.168  12.005
 8141W        W71865   5.356  34.591   2.674
 8142W        W71866   2.946  35.035  11.511
 8143W        W71867  42.478  16.129   2.214
 8144W        W71868   5.865   8.744   1.402
 8145W        W71869   3.718   5.783   1.443
 8146W        W71870  28.440  21.756   2.289
 8147W        W71871  44.881   6.792  10.954
 8148W        W71872   2.444  40.829  10.455
 8149W        W71873  27.011  31.123   1.710
 8150W        W71874   8.793  16.075  14.453
 8151W        W71875  32.895  35.099  11.970
 8152W        W71876  37.987  38.326  12.512
 8153W        W71877   0.391  29.159  12.428
 8154W        W71878  21.568   6.233   3.732
 8155W        W71879  33.002   7.391  14.968
 8156W        W71880   1.862  38.073   1.740
 8157W        W71881  26.573  24.022  11.980
 8158W        W71882  17.645  11.732   1.874
 8159W        W71883  17.129  16.677   4.137
 8160W        W71884  42.964  22.053   4.701
 8161W        W71885   8.866  28.674  11.447
 8162W        W71886  40.426  42.393   3.781
 8163W        W71887  15.317  38.448  14.992
 8164W        W71888   1.319  29.514   2.339
 8165W        W71889  36.395  11.156  14.320
 8166W        W71890   9.339  23.124  10.424
 8167W        W71891   4.237  30.025   3.838
 8168W        W71892  37.452  41.520   4.218
 8169W        W71893  41.940  10.636   0.329
 8170W        W71894  20.239  38.985   1.786
 8171W        W71895  20.173  26.557  13.893
 8172W        W71896  39.326  39.844   2.868
 8173W        W71897  11.766   6.199  12.041
 8174W        W71898  14.599  28.495   2.381
 8175W        W71899  42.018  33.073   5.216
 8176W        W71900   8.846   5.902  13.023
 8177W        W71901   4.807   1.970   0.839
 8178W        W71902  32.523  34.516  11.051
 8179W        W71903  42.346  24.618   4.283
 8180W        W71904  10.792  14.164   3.254
 8181W        W71905  41.860   6.827  10.526
 8182W        W71906  17.745   6.296   3.214
 8183W        W71907  35.463  34.895   3.732
 8184W        W71908  44.890  10.305  11.032
 8185W        W71909  11.295  37.010   0.870
 8186W        W71910  24.016  30.591   4.812
 8187W        W71911  37.439   7.912   2.236
 8188W        W71912  40.042   5.235   0.369
 8189W        W71913  12.197  36.069   0.822
 8190W        W71914  25.035  34.567   1.404
 8191W        W71915  21.572  39.406  11.980
 8192W        W71916  16.691  16.778   0.325
 8193W        W71917  27.526   5.884  11.556
 8194W        W71918  16.779  36.573  14.382
 8195W        W71919  43.775  15.746  14.313
 8196W        W71920  23.051  15.731   2.389
 8197W        W71921  19.057  11.720  10.435
 8198W        W71922  28.627  16.124  14.923
 8199W        W71923  16.788  32.612   0.741
 8200W        W71924   7.393  31.550   1.879
 8201W        W71925  11.733  10.299  12.952
 8202W        W71926  10.767   1.939   2.685
 8203W        W71927   0.929  24.132  12.581
 8204W        W71928  44.261   4.817   5.309
 8205W        W71929  20.642  35.488  11.558
 8206W        W71930  35.566  11.787  13.424
 8207W        W71931   9.162  13.727  13.911
 8208W        W71932  29.556  39.002  10.957
 8209W        W71933  38.957  26.124   3.658
 8210W        W71934   8.339  34.115  12.361
 8211W        W71935  29.934  26.570  10.589
 8212W        W71936  24.528  35.550   0.369
 8213W        W71937  37.546   3.769   4.121
 8214W        W71938   4.212   9.765   1.930
 8215W        W71939  18.056  31.425   1.843
 8216W        W71940  23.123  37.004   1.696
 8217W        W71941  20.713  15.222  10.898
 8218W        W71942  10.310  27.472   1.831
 8219W        W71943  34.469   1.354  10.520
 8220W        W71944   0.988  19.123  14.903
 8221W        W71945  42.913  34.540   5.246
 8222W        W71946   6.898  33.883  12.876
 8223W        W71947  32.443  27.125   2.871
 8224W        W71948  39.523  11.308   2.324
 8225W        W71949  10.207   7.835  12.491
 8226W        W71950   0.922  13.706   1.887
 8227W        W71951  20.683   6.876   3.284
 8228W        W71952   7.286  13.148   2.235
 8229W        W71953   1.902  11.623  13.484
 8230W        W71954  22.208  17.597  12.477
 8231W        W71955  43.866  15.105  11.474
 8232W        W71956   0.251  32.622   0.271
 8233W        W71957  43.822  14.809  12.340
 8234W        W71958  17.790  32.424  14.950
 8235W        W71959  33.479  10.709   4.234
 8236W        W71960  38.474   4.773   3.291
 8237W        W71961  43.974  26.471  13.823
 8238W        W71962   6.206   7.764  11.556
 8239W        W71963  14.234  15.199  12.539
 8240W        W71964  20.763  22.701  11.419
 8241W        W71965   1.281  40.911  13.054
 8242W        W71966  19.135   8.282  13.360
 8243W        W71967  36.967   1.348  13.039
 8244W        W71968  36.471   2.854   1.311
 8245W        W71969  29.963   2.330  11.934
 8246W        W71970  36.961  18.053  14.405
 8247W        W71971   2.747  19.685   3.188
 8248W        W71972  12.200   6.308   3.865
 8249W        W71973   7.214   8.243   3.305
 8250W        W71974   8.745  16.722   0.478
 8251W        W71975  18.086  12.686   4.653
 8252W        W71976  42.400  44.874   4.249
 8253W        W71977  37.424  43.821  10.634
 8254W        W71978   0.270  30.060  11.053
 8255W        W71979  44.344   4.914   0.773
 8256W        W71980  32.633  24.050   2.863
 8257W        W71981  10.187  20.227   0.796
 8258W        W71982  27.058  28.045   9.517
 8259W        W71983  12.788   4.884   3.631
 8260W        W71984  23.626  11.317  11.942
 8261W        W71985  19.599  27.445   1.244
 8262W        W71986   7.698  26.536  13.883
 8263W        W71987  28.026  37.075  12.381
 8264W        W71988  41.408   3.748   1.709
 8265W        W71989  35.997  19.764   0.315
 8266W        W71990  33.412   2.755  10.913
 8267W        W71991  39.038  41.985   2.308
 8268W        W71992  30.033   2.756   2.406
 8269W        W71993  21.027  19.256  13.986
 8270W        W71994  20.675  42.382   2.765
 8271W        W71995  14.640  44.481   3.754
 8272W        W71996  30.597  19.727   5.145
 8273W        W71997  13.640  28.108   1.283
 8274W        W71998   5.317   2.853  11.909
 8275W        W71999   0.252  34.432   3.694
 8276W        W72000   9.848   0.969   3.771
 8277W        W72001   6.809  31.450   1.347
 8278W        W72002  29.939  21.737   4.692
 8279W        W72003   5.315  16.687  13.949
 8280W        W72004  42.505   0.353   0.311
 8281W        W72005  37.446  29.442  10.444
 8282W        W72006  29.605  10.155   1.277
 8283W        W72007  20.701  36.583  12.580
 8284W        W72008  38.048  12.118  14.316
 8285W        W72009   7.362  23.207  14.326
 8286W        W72010  18.120  42.841   2.395
 8287W        W72011  25.539   7.306  14.026
 8288W        W72012   7.212  38.388   1.320
 8289W        W72013  29.433  24.121   1.909
 8290W        W72014  17.713  12.326  11.947
 8291W        W72015  10.781  11.678  10.462
 8292W        W72016  23.643  29.979  12.501
 8293W        W72017  14.284  23.028  14.450
 8294W        W72018  15.771  30.424   1.318
 8295W        W72019  17.630  20.203   3.350
 8296W        W72020  17.110  19.559   3.739
 8297W        W72021   1.780  41.341   4.296
 8298W        W72022   4.805  12.195   9.462
 8299W        W72023  43.899  10.381  10.922
 8300W        W72024  23.110  25.684   0.845
 8301W        W72025  15.198   4.443   3.794
 8302W        W72026  29.055   0.304   3.278
 8303W        W72027   2.447  41.377   1.385
 8304W        W72028  37.571  11.259   4.310
 8305W        W72029  13.625  18.227   0.928
 8306W        W72030  11.148  24.711   2.790
 8307W        W72031  13.209  29.643  13.976
 8308W        W72032  43.450  19.725   2.719
 8309W        W72033   4.403  35.037  14.859
 8310W        W72034   4.240  10.692   1.784
 8311W        W72035  38.976   4.397   4.743
 8312W        W72036   9.194  21.087   0.742
 8313W        W72037  32.571  38.847  14.498
 8314W        W72038  14.159  14.793   1.723
 8315W        W72039  26.546  22.063  14.030
 8316W        W72040  12.247  40.802  14.432
 8317W        W72041   8.276  21.667   0.403
 8318W        W72042  43.908  24.716   9.587
 8319W        W72043   3.956  23.051  12.518
 8320W        W72044  19.100   7.894   3.828
 8321W        W72045   8.396  42.875  13.317
 8322W        W72046  29.481  28.077  12.830
 8323W        W72047  36.411   0.284  13.483
 8324W        W72048  15.133   0.348  13.466
 8325W        W72049  35.056  36.528  12.550
 8326W        W72050   9.776  38.968  12.904
 8327W        W72051  36.407  16.228  12.830
 8328W        W72052  35.488   9.300   0.366
 8329W        W72053  23.538   7.217   2.397
 8330W        W72054  10.279  37.915   0.833
 8331W        W72055   4.351  25.592  12.085
 8332W        W72056  16.736  38.571   4.728
 8333W        W72057  15.236  43.374  11.534
 8334W        W72058  32.438   9.674   1.331
 8335W        W72059  10.347  38.065  11.029
 8336W        W72060  40.362  10.864  11.869
 8337W        W72061  38.012  43.800  12.062
 8338W        W72062  17.252  25.109  14.868
 8339W        W72063  15.250  43.349   2.223
 8340W        W72064  42.494  19.649   2.738
 8341W        W72065  19.238  32.978   4.785
 8342W        W72066  12.623  42.286   4.275
 8343W        W72067  20.630  38.831   3.185
 8344W        W72068  37.947  43.481   4.150
 8345W        W72069  15.201   8.703   4.242
 8346W        W72070   6.689  18.757   2.867
 8347W        W72071  10.681  15.636   2.738
 8348W        W72072   3.237  41.397  12.861
 8349W        W72073   5.242  14.612   0.263
 8350W        W72074  11.178  19.633   2.777
 8351W        W72075   9.689  16.116   3.293
 8352W        W72076   1.432  28.045   1.335
 8353W        W72077  28.621  27.691  11.528
 8354W        W72078  36.459  28.593  13.973
 8355W        W72079  16.194   0.961   0.292
 8356W        W72080  42.845  10.675  14.382
 8357W        W72081  21.636  41.808  10.410
 8358W        W72082   1.435  22.218  10.920
 8359W        W72083  17.726  29.465   3.279
 8360W        W72084  13.123  33.039   4.258
 8361W        W72085   5.724  28.575  12.049
 8362W        W72086   3.451  38.458  12.353
 8363W        W72087   5.870  39.374  11.897
 8364W        W72088   1.389  38.991  13.913
 8365W        W72089  35.594   0.283  14.007
 8366W        W72090  38.434   3.387  11.023
 8367W        W72091   8.709   4.804   5.268
 8368W        W72092  27.622  22.670  11.896
 8369W        W72093  25.535  13.650   1.349
 8370W        W72094  34.003  15.085  12.515
 8371W        W72095  19.051   3.376  11.857
 8372W        W72096  17.778  36.576  11.514
 8373W        W72097  39.993  11.314  13.820
 8374W        W72098  32.410  33.577   1.877
 8375W        W72099  20.146  21.541  11.393
 8376W        W72100   7.391  12.757   0.906
 8377W        W72101  35.999  35.472   2.839
 8378W        W72102  39.462  21.104  14.452
 8379W        W72103  15.303  24.639   0.300
 8380W        W72104  34.437  43.899   1.403
 8381W        W72105  22.252  35.999  13.798
 8382W        W72106   5.887  14.649  11.982
 8383W        W72107  36.095  21.133   2.867
 8384W        W72108  23.089   6.727   3.705
 8385W        W72109  29.156  30.159  13.058
 8386W        W72110  41.865   5.348  11.981
 8387W        W72111  16.571  38.027  14.310
 8388W        W72112  25.678  23.506   0.287
 8389W        W72113  10.726  36.346  13.846
 8390W        W72114  21.098   8.863  13.356
 8391W        W72115   3.758  20.041   3.731
 8392W        W72116   1.812   9.259   2.836
 8393W        W72117  23.203  30.091   4.309
 8394W        W72118   2.959  35.865  12.411
 8395W        W72119  43.846   4.295  14.868
 8396W        W72120  21.176  35.073  13.878
 8397W        W72121  12.634  44.924   2.306
 8398W        W72122  16.160  14.148   0.766
 8399W        W72123  39.341  28.674   1.377
 8400W        W72124  25.966  19.535  12.093
 8401W        W72125  27.188   2.892  11.863
 8402W        W72126  16.656  25.189   1.695
 8403W        W72127  32.417   6.291  10.969
 8404W        W72128  30.566   6.231  14.840
 8405W        W72129   8.869  25.634  14.280
 8406W        W72130   7.317  40.029  13.983
 8407W        W72131  34.990  22.706   0.266
 8408W        W72132   3.924   1.365  10.528
 8409W        W72133  33.091  27.143  11.420
 8410W        W72134   9.219  28.117  10.582
 8411W        W72135  39.836  28.640   3.671
 8412W        W72136  21.694  32.585  14.347
 8413W        W72137  37.082  32.981   4.838
 8414W        W72138  22.668  40.969  11.612
 8415W        W72139   7.892  44.300  14.847
 8416W        W72140  39.811   6.859   3.308
 8417W        W72141   1.901  39.548   4.274
 8418W        W72142  33.417  41.042  11.956
 8419W        W72143  33.877  16.278  11.390
 8420W        W72144   3.273  26.687   0.786
 8421W        W72145  33.948   9.801  13.913
 8422W        W72146  13.318  40.327   2.214
 8423W        W72147  31.499   8.840  11.531
 8424W        W72148   2.892  33.938   0.404
 8425W        W72149  36.556  21.139   0.448
 8426W        W72150  27.088   8.237   2.796
 8427W        W72151  10.330  41.373  13.851
 8428W        W72152  12.136  36.451  11.494
 8429W        W72153   6.311  21.136   1.862
 8430W        W72154   3.357  38.486   1.895
 8431W        W72155  19.778  29.005  14.427
 8432W        W72156  28.947  12.248   1.351
 8433W        W72157   8.711   9.819   4.627
 8434W        W72158  11.364  35.035   1.388
 8435W        W72159  28.138  34.509  11.101
 8436W        W72160  34.960  36.517  12.935
 8437W        W72161  28.948   5.788  10.963
 8438W        W72162   4.833  29.946   4.822
 8439W        W72163  44.492  13.759  12.407
 8440W        W72164  41.813   6.876   3.168
 8441W        W72165  44.350  23.555  10.058
 8442W        W72166  31.133   5.244   1.807
 8443W        W72167  38.404  39.959  12.473
 8444W        W72168  36.447  25.031   2.384
 8445W        W72169  32.489   2.724   3.691
 8446W        W72170  40.492  31.958   4.638
 8447W        W72171  21.550  15.618   1.350
 8448W        W72172  26.517  38.914   4.767
 8449W        W72173  30.981  12.703   2.818
 8450W        W72174  12.724  22.032   4.833
 8451W        W72175   8.378   5.207   0.470
 8452W        W72176  32.602   7.215  13.798
 8453W        W72177  26.646  20.590   4.119
 8454W        W72178  40.379   4.939   1.237
 8455W        W72179  24.520  20.609  12.443
 8456W        W72180  19.547   6.900  13.386
 8457W        W72181   5.328  37.848   4.332
 8458W        W72182   4.441  18.263  14.363
 8459W        W72183  23.535  30.519  13.979
 8460W        W72184  15.214  24.701  14.397
 8461W        W72185   8.870  36.414  13.054
 8462W        W72186  24.646  31.589  11.519
 8463W        W72187  27.037  31.570  13.836
 8464W        W72188  44.341  13.260   0.369
 8465W        W72189  36.856  41.945   3.233
 8466W        W72190  13.234  11.195   4.176
 8467W        W72191   6.717  41.987   0.456
 8468W        W72192   5.274  15.178   2.301
 8469W        W72193  43.443  37.990   0.415
 8470W        W72194  44.940  31.989   5.242
 8471W        W72195  40.846  37.895   2.317
 8472W        W72196   6.203  29.030   4.334
 8473W        W72197  39.479  39.995  10.488
 8474W        W72198  14.316  35.480  12.848
 8475W        W72199  34.415  44.753   4.679
 8476W        W72200   5.770  17.728   3.767
 8477W        W72201  10.306  20.140  13.405
 8478W        W72202  26.476   3.836   4.769
 8479W        W72203  37.936   4.709   0.932
 8480W        W72204  24.177  38.068   1.711
 8481W        W72205   0.789  43.452  12.499
 8482W        W72206   7.803   5.213  13.062
 8483W        W72207  36.502   2.915   2.806
 8484W        W72208   3.728   1.427   1.731
 8485W        W72209  37.501  12.679  13.322
 8486W        W72210  35.884  40.998  13.403
 8487W        W72211  31.044  20.098  13.037
 8488W        W72212  10.145  17.120   0.960
 8489W        W72213  18.624  20.084   4.615
 8490W        W72214  23.215   5.248  11.457
 8491W        W72215  16.267  21.516  11.090
 8492W        W72216  32.439  22.648  13.472
 8493W        W72217   1.296  26.022  13.548
 8494W        W72218   0.364  19.075  12.403
 8495W        W72219  44.843  20.623   1.437
 8496W        W72220  14.134  25.971   2.385
 8497W        W72221  19.237  35.947   4.792
 8498W        W72222  30.539  20.169  11.528
 8499W        W72223   5.343  31.088  14.762
 8500W        W72224  40.812  20.634   0.435
 8501W        W72225  26.986  25.025  11.893
 8502W        W72226   5.891   8.290   1.816
 8503W        W72227  28.122  26.021   1.797
 8504W        W72228  33.405  21.017   1.760
 8505W        W72229  29.066  34.023  11.015
 8506W        W72230  19.276   4.205   2.318
 8507W        W72231  24.637   2.231   2.298
 8508W        W72232  25.579  38.446   1.875
 8509W        W72233  12.321   2.820  12.399
 8510W        W72234   7.254  31.122  14.787
 8511W        W72235  23.117  22.200   2.684
 8512W        W72236  20.698  34.462  13.430
 8513W        W72237   7.833  33.957  12.041
 8514W        W72238   5.722  31.617  14.803
 8515W        W72239  37.918   7.778   4.339
 8516W        W72240  11.822  37.457   0.430
 8517W        W72241  12.723  40.852  13.029
 8518W        W72242  44.971   9.647  10.586
 8519W        W72243  11.712  24.518  10.113
 8520W        W72244  40.884   6.824  14.468
 8521W        W72245  20.179  32.946  13.342
 8522W        W72246  25.204  19.237  11.010
 8523W        W72247   3.739  10.669   4.182
 8524W        W72248  14.312  41.494   0.458
 8525W        W72249   9.255  30.044   3.154
 8526W        W72250  24.600  33.975  13.941
 8527W        W72251  16.205  35.955  11.527
 8528W        W72252  20.046  15.146   1.399
 8529W        W72253  43.903  34.943   1.243
 8530W        W72254   5.702  20.268   3.702
 8531W        W72255   6.404  13.702   4.610
 8532W        W72256  14.739   0.253  14.023
 8533W        W72257  30.473  17.067   4.164
 8534W        W72258  12.701  29.032   3.226
 8535W        W72259   0.395  24.484  14.363
 8536W        W72260  39.477  43.392  14.329
 8537W        W72261   5.776  31.080  12.949
 8538W        W72262  44.822  28.034  11.458
 8539W        W72263  18.558   6.690   3.647
 8540W        W72264   4.410  29.641  13.048
 8541W        W72265  25.698  25.012  10.930
 8542W        W72266  43.444  11.162   0.279
 8543W        W72267  35.515  43.299  13.906
 8544W        W72268  16.099  33.084   3.733
 8545W        W72269   1.782   5.852   3.231
 8546W        W72270  14.095  22.141   3.159
 8547W        W72271   5.362  40.009   0.773
 8548W        W72272  34.880   0.446  14.816
 8549W        W72273  31.008  23.029   4.779
 8550W        W72274  32.428  41.857  14.939
 8551W        W72275  32.995  24.552  12.471
 8552W        W72276  18.775  22.516   0.801
 8553W        W72277  42.375  35.552   2.374
 8554W        W72278  33.421   3.351   4.274
 8555W        W72279  29.548  23.088  10.523
 8556W        W72280  38.913  22.067  11.934
 8557W        W72281  13.208  16.229   3.660
 8558W        W72282  13.314  19.761  13.422
 8559W        W72283   6.365  12.819   4.179
 8560W        W72284   9.154  25.488  13.971
 8561W        W72285  31.922  15.138   5.648
 8562W        W72286  39.047  23.084   3.695
 8563W        W72287  13.106   6.283   4.833
 8564W        W72288  13.615  27.689   4.179
 8565W        W72289  24.166  30.150  12.540
 8566W        W72290  14.602  20.667   1.324
 8567W        W72291  27.076  34.896  14.286
 8568W        W72292  10.638  20.151   1.826
 8569W        W72293   4.427  36.002   1.321
 8570W        W72294  42.500   0.382   1.262
 8571W        W72295  44.832   3.294  13.373
 8572W        W72296  30.997  38.066   3.360
 8573W        W72297  26.998  41.328   3.735
 8574W        W72298  41.430  11.672  11.090
 8575W        W72299  18.143  34.117   4.732
 8576W        W72300  29.032   5.735  14.866
 8577W        W72301   5.914  17.788   1.335
 8578W        W72302  43.455  26.071   2.189
 8579W        W72303  12.721  13.225   1.346
 8580W        W72304  38.838  30.929  11.929
 8581W        W72305  23.038  24.523  12.003
 8582W        W72306  27.192  30.956   2.681
 8583W        W72307  44.999  26.545  10.994
 8584W        W72308  13.239  37.564  12.519
 8585W        W72309  38.833  15.692   5.124
 8586W        W72310  18.235  41.856  11.536
 8587W        W72311   8.163  21.731  13.862
 8588W        W72312  31.633  19.682  14.874
 8589W        W72313  20.568   1.379   2.303
 8590W        W72314   3.314  32.005  14.282
 8591W        W72315  17.094  26.560  10.468
 8592W        W72316  38.901   9.316  14.961
 8593W        W72317  43.002  16.274  13.047
 8594W        W72318  39.402   2.355  13.341
 8595W        W72319   4.741  12.826   2.752
 8596W        W72320  11.681  29.512  11.077
 8597W        W72321   0.947   8.213   2.416
 8598W        W72322   6.777  28.673   2.418
 8599W        W72323   8.312  36.873   2.725
 8600W        W72324  14.813  22.536   2.241
 8601W        W72325  34.094  10.796  11.009
 8602W        W72326  28.985   7.853   5.098
 8603W        W72327  16.100  39.016   3.277
 8604W        W72328  17.778  15.732   0.938
 8605W        W72329  24.617   9.780   1.893
 8606W        W72330  33.107  27.690   0.878
 8607W        W72331   3.428  40.934  11.925
 8608W        W72332  37.081  21.604  11.038
 8609W        W72333  37.035  27.074   0.836
 8610W        W72334  14.336  18.157   1.847
 8611W        W72335   4.392   6.731   2.758
 8612W        W72336  12.702  13.809   2.729
 8613W        W72337  21.223  37.980   1.768
 8614W        W72338  14.275  32.612  14.786
 8615W        W72339  35.462  44.318   3.250
 8616W        W72340  33.594  32.040   1.736
 8617W        W72341  31.932   6.746  10.493
 8618W        W72342  14.292   6.274  10.555
 8619W        W72343  28.472  38.479  10.459
 8620W        W72344  22.545  42.381   3.693
 8621W        W72345  34.528  39.875   0.916
 8622W        W72346   1.864  26.555   4.608
 8623W        W72347  31.034  11.143  10.533
 8624W        W72348  42.434  44.918   1.788
 8625W        W72349  41.436  38.899   0.730
 8626W        W72350  30.597  19.747   3.329
 8627W        W72351   2.739   8.318  13.959
 8628W        W72352  44.483  34.990  14.798
 8629W        W72353  32.093  44.868   2.312
 8630W        W72354  18.676  28.452   0.863
 8631W        W72355   8.685   3.864  12.938
 8632W        W72356  18.588  31.148  12.083
 8633W        W72357   8.352  37.432  12.372
 8634W        W72358  44.988  37.482  11.002
 8635W        W72359  21.597  24.624  10.926
 8636W        W72360  28.041  36.459   4.816
 8637W        W72361  15.772  35.459   0.243
 8638W        W72362   3.318  21.626  10.441
 8639W        W72363   9.202  22.077   1.436
 8640W        W72364   9.298  40.474  14.945
 8641W        W72365  29.476  32.472  10.538
 8642W        W72366  41.304  19.580   2.408
 8643W        W72367  31.648  24.160   1.447
 8644W        W72368  13.280  18.657   1.876
 8645W        W72369   2.897  16.701   3.735
 8646W        W72370   6.899  32.537   3.195
 8647W        W72371  27.469  34.451   3.198
 8648W        W72372  28.562   0.944  13.960
 8649W        W72373   7.728  39.351   1.395
 8650W        W72374  18.177  17.764   1.276
 8651W        W72375  10.796   1.832  14.309
 8652W        W72376  12.180   1.882  10.964
 8653W        W72377  12.654  23.541  11.459
 8654W        W72378  33.082  22.233   1.263
 8655W        W72379  39.063  25.191   1.262
 8656W        W72380  28.107  30.489   2.825
 8657W        W72381  16.668  14.601  10.437
 8658W        W72382  25.128  16.204   3.271
 8659W        W72383  41.892  21.665  12.392
 8660W        W72384  21.697  23.714   2.788
 8661W        W72385  26.588  33.053  13.834
 8662W        W72386  43.770  24.230   0.242
 8663W        W72387  39.521  21.140  10.087
 8664W        W72388  11.136  21.134  13.037
 8665W        W72389  20.605  33.386  13.475
 8666W        W72390  30.152  30.913   3.649
 8667W        W72391  14.628  38.564   4.791
 8668W        W72392  37.053  36.444  14.342
 8669W        W72393  13.199  31.928  14.479
 8670W        W72394   0.438  16.197  11.024
 8671W        W72395  10.286  41.450  11.020
 8672W        W72396  16.605   8.811  12.421
 8673W        W72397   8.266  20.245   0.770
 8674W        W72398  31.551  37.003  14.482
 8675W        W72399  34.395  38.878   0.247
 8676W        W72400  39.888  19.274  12.373
 8677W        W72401  28.533  27.088  12.550
 8678W        W72402  16.737  35.893   1.370
 8679W        W72403  43.997  32.609   1.858
 8680W        W72404  11.679  24.645  14.914
 8681W        W72405  21.656   3.220   1.813
 8682W        W72406  41.035   4.795   3.768
 8683W        W72407  24.584   3.925   4.227
 8684W        W72408  36.533   1.784   3.750
 8685W        W72409  22.533  24.073  11.090
 8686W        W72410  16.209   3.421   2.249
 8687W        W72411  31.057  38.450   0.297
 8688W        W72412   8.372  37.403   1.270
 8689W        W72413   8.889   2.407   3.843
 8690W        W72414  41.828  41.820   4.314
 8691W        W72415  14.115  13.225   1.855
 8692W        W72416  37.495  23.996   3.172
 8693W        W72417  13.677  32.479   4.607
 8694W        W72418   9.324  37.504   0.947
 8695W        W72419  12.135  35.983   1.865
 8696W        W72420  21.571  36.947  12.439
 8697W        W72421  14.598  21.036   4.708
 8698W        W72422   2.888  27.191  12.862
 8699W        W72423  38.511  24.644  12.867
 8700W        W72424  39.319  38.415  11.937
 8701W        W72425   7.239  38.561  14.352
 8702W        W72426  40.312  11.787   4.195
 8703W        W72427  17.639  21.048   2.814
 8704W        W72428  43.807  23.703  10.948
 8705W        W72429   3.410  22.695   5.193
 8706W        W72430  18.147  16.103  10.447
 8707W        W72431  26.965  11.669  11.872
 8708W        W72432  17.270   7.414   1.327
 8709W        W72433  10.677   7.398   3.168
 8710W        W72434  36.931  20.147   4.787
 8711W        W72435  22.635  36.484  10.471
 8712W        W72436  31.111  13.812   2.264
 8713W        W72437  18.741   6.229   4.696
 8714W        W72438  16.684  11.797  13.804
 8715W        W72439   8.781   8.781   0.919
 8716W        W72440  12.781  38.424  13.862
 8717W        W72441  18.140  17.744   4.164
 8718W        W72442   0.805  34.612  13.356
 8719W        W72443  27.678  36.576  13.500
 8720W        W72444  32.574  40.852  11.945
 8721W        W72445   7.225  12.164   4.661
 8722W        W72446  36.016  38.917  10.911
 8723W        W72447  16.600  14.105   3.249
 8724W        W72448   7.300  15.808   2.804
 8725W        W72449  42.901  19.269  10.949
 8726W        W72450  19.124  13.341  14.465
 8727W        W72451   7.284  29.614   3.220
 8728W        W72452   9.708  17.646   0.296
 8729W        W72453  14.194  30.123  10.632
 8730W        W72454  19.576  21.236  12.555
 8731W        W72455  12.178  43.843  14.020
 8732W        W72456   3.370  40.015   2.728
 8733W        W72457   0.344  25.469  11.984
 8734W        W72458  44.359   3.229   0.458
 8735W        W72459  37.876  19.594   1.410
 8736W        W72460   8.811  26.085  11.538
 8737W        W72461  33.956  23.496  14.343
 8738W        W72462  17.118  35.036   4.256
 8739W        W72463   4.814  25.503  13.802
 8740W        W72464  44.873  23.573   2.774
 8741W        W72465  15.162  28.487   1.816
 8742W        W72466  15.700   3.740   9.996
 8743W        W72467  19.611  21.705  10.905
 8744W        W72468   1.329  42.423   2.386
 8745W        W72469  13.256  39.877   1.417
 8746W        W72470  41.793   4.216   1.363
 8747W        W72471   9.265  26.537  13.482
 8748W        W72472  13.746  11.699  10.462
 8749W        W72473  43.885  24.503   5.796
 8750W        W72474  28.478  11.796   4.268
 8751W        W72475  21.058  42.853   3.361
 8752W        W72476  41.391  39.838  11.008
 8753W        W72477  26.595  18.260   0.849
 8754W        W72478   6.771  15.745   2.202
 8755W        W72479  40.841  28.943   2.681
 8756W        W72480  27.448   8.739   0.927
 8757W        W72481   3.785  12.627   4.282
 8758W        W72482  20.129  30.485   1.906
 8759W        W72483  29.161  11.683   1.736
 8760W        W72484   5.425  40.870  11.943
 8761W        W72485   7.244  23.072   0.312
 8762W        W72486  36.484  14.588  13.990
 8763W        W72487   2.944   9.234   3.201
 8764W        W72488  35.476  18.554   4.157
 8765W        W72489  27.103  39.380   1.823
 8766W        W72490   9.783  11.678  13.813
 8767W        W72491  19.217  26.663  11.978
 8768W        W72492  13.166  19.123   1.853
 8769W        W72493  42.876  34.448  11.127
 8770W        W72494  25.017  42.404   4.206
 8771W        W72495   1.823   0.912  11.057
 8772W        W72496  39.313  42.979   2.770
 8773W        W72497  30.579  38.064   3.821
 8774W        W72498  31.411  17.149   2.713
 8775W        W72499   4.371  35.060   0.960
 8776W        W72500   9.354   1.246  12.526
 8777W        W72501   3.906   4.318  12.480
 8778W        W72502  26.640  15.155  12.492
 8779W        W72503  27.628  29.551   0.424
 8780W        W72504  32.427  44.345   0.753
 8781W        W72505  18.612  11.356  13.831
 8782W        W72506  27.151  20.267  13.055
 8783W        W72507  18.105  13.752   1.447
 8784W        W72508  36.076  31.638  14.784
 8785W        W72509   2.882  32.499   1.281
 8786W        W72510  26.495  15.197  10.488
 8787W        W72511  28.036  21.640   1.730
 8788W        W72512  15.606  41.429   0.861
 8789W        W72513  22.124   5.818  13.981
 8790W        W72514  13.734  25.026  12.498
 8791W        W72515  40.542  18.776   0.272
 8792W        W72516   4.836  32.931   2.181
 8793W        W72517  29.025  13.195   0.888
 8794W        W72518   1.812  19.639  14.455
 8795W        W72519  15.726   3.815   4.288
 8796W        W72520  44.930  20.745  14.955
 8797W        W72521   3.842  12.671   1.908
 8798W        W72522  13.786  21.243   5.315
 8799W        W72523  40.381  18.630  12.872
 8800W        W72524   0.315  28.473  13.378
 8801W        W72525   1.314  42.918  13.875
 8802W        W72526  37.380  24.715  14.846
 8803W        W72527  15.118  22.679   1.220
 8804W        W72528  21.029  37.999  11.040
 8805W        W72529   5.883  29.664   0.820
 8806W        W72530  28.447   5.416   4.756
 8807W        W72531  39.472  28.671  11.888
 8808W        W72532   2.878  14.129  14.989
 8809W        W72533   6.392  40.481  13.972
 8810W        W72534  12.629  23.504   0.258
 8811W        W72535  20.611  19.254   4.625
 8812W        W72536   9.220  35.489  13.325
 8813W        W72537  38.062  32.541  11.428
 8814W        W72538  28.945   3.879  10.907
 8815W        W72539   9.738  33.096   2.821
 8816W        W72540  36.853  22.095   0.463
 8817W        W72541  37.442  42.403   3.763
 8818W        W72542   5.275   3.872   2.203
 8819W        W72543  17.588   3.837   1.243
 8820W        W72544  23.224  19.178  14.781
 8821W        W72545  29.919  15.147   3.678
 8822W        W72546  16.670   9.227  13.923
 8823W        W72547  44.998  31.111   4.688
 8824W        W72548  13.283  12.652  12.863
 8825W        W72549  30.056  40.797  13.906
 8826W        W72550  33.059  36.372   4.749
 8827W        W72551  13.108  18.241  11.433
 8828W        W72552  33.415  15.310  12.517
 8829W        W72553  38.936  28.621   2.866
 8830W        W72554  18.789  29.530   3.352
 8831W        W72555  34.037  30.051  13.429
 8832W        W72556  41.488  42.999   1.449
 8833W        W72557  43.863  27.637   1.316
 8834W        W72558  44.365  23.575   4.116
 8835W        W72559  40.413  26.206  10.937
 8836W        W72560  13.156  28.980   2.360
 8837W        W72561  23.678  26.521   2.363
 8838W        W72562  28.148  43.307  11.042
 8839W        W72563   1.889  22.099   2.893
 8840W        W72564  23.200  40.508  12.023
 8841W        W72565  38.040  17.298  14.510
 8842W        W72566  35.393  16.727   3.842
 8843W        W72567  29.634  40.019  11.586
 8844W        W72568  33.552  32.133   4.780
 8845W        W72569  43.885  30.145  13.966
 8846W        W72570   5.242  40.854   4.255
 8847W        W72571  42.982  10.274   9.961
 8848W        W72572  40.941  10.283   2.325
 8849W        W72573  23.701  37.398   4.131
 8850W        W72574  24.690  20.712   2.804
 8851W        W72575  14.800  34.011  10.455
 8852W        W72576  36.875  31.629   2.342
 8853W        W72577  36.955  24.181  11.386
 8854W        W72578  14.119  36.998  14.832
 8855W        W72579  38.064   0.893   0.321
 8856W        W72580   6.749   2.431  11.459
 8857W        W72581   4.920   7.332   3.209
 8858W        W72582  13.206  41.343  13.802
 8859W        W72583   2.250  29.004   0.759
 8860W        W72584  13.251  13.309   3.769
 8861W        W72585  23.505  41.871   5.102
 8862W        W72586  20.651  36.500  14.986
 8863W        W72587  31.036  36.990   0.873
 8864W        W72588  14.743  35.872   2.890
 8865W        W72589   0.787  15.100   4.674
 8866W        W72590  44.922  39.347   2.780
 8867W        W72591   1.355  23.223   3.802
 8868W        W72592  14.742  40.458   2.254
 8869W        W72593  25.080  13.714  10.961
 8870W        W72594   7.693   3.722  13.466
 8871W        W72595  16.194   3.268   4.142
 8872W        W72596  21.666  44.311  11.406
 8873W        W72597  14.758  33.479  11.503
 8874W        W72598  26.116  22.644  13.511
 8875W        W72599  14.781  27.532   3.775
 8876W        W72600  42.296  12.334  12.424
 8877W        W72601  44.768  33.050  13.450
 8878W        W72602   6.700   4.851   1.894
 8879W        W72603  39.534  21.588   2.777
 8880W        W72604  37.370  37.029  11.961
 8881W        W72605  31.085   6.425  13.328
 8882W        W72606  38.554  29.599  12.420
 8883W        W72607  30.567  13.162   5.231
 8884W        W72608  32.569  40.879  13.926
 8885W        W72609  42.307  41.490   0.309
 8886W        W72610  42.288  15.700   0.273
 8887W        W72611  38.520   4.248  12.534
 8888W        W72612  27.688  39.428  13.506
 8889W        W72613  11.330  10.339  11.889
 8890W        W72614  31.945  27.086   0.243
 8891W        W72615  42.940  13.162  14.355
 8892W        W72616  26.042  44.886  14.479
 8893W        W72617  20.578   4.739   0.779
 8894W        W72618  30.999  16.702  10.492
 8895W        W72619  31.130  36.559   2.222
 8896W        W72620   9.884  10.774   1.746
 8897W        W72621   4.399  36.991  13.791
 8898W        W72622  38.866  33.393  11.038
 8899W        W72623  18.759   4.224  10.563
 8900W        W72624  43.488  20.110  14.468
 8901W        W72625  42.485  27.460   4.605
 8902W        W72626  30.005  14.241   1.222
 8903W        W72627  38.882  25.479   1.884
 8904W        W72628  42.868  15.219   4.166
 8905W        W72629   0.788  26.679   4.268
 8906W        W72630  13.658  31.417   1.379
 8907W        W72631  28.085  35.020   2.824
 8908W        W72632  23.124   4.279  13.826
 8909W        W72633  19.140  24.002   2.720
 8910W        W72634   0.417  42.957   4.722
 8911W        W72635  11.182   4.742  11.879
 8912W        W72636  13.121  15.581  11.530
 8913W        W72637   8.667  19.091   4.116
 8914W        W72638  30.923  28.510   3.663
 8915W        W72639   2.785  14.631   4.698
 8916W        W72640  36.931  39.505   3.858
 8917W        W72641  27.131   2.862  14.945
 8918W        W72642  28.483   7.897  10.517
 8919W        W72643   0.745   6.806   2.275
 8920W        W72644   4.231  26.011   0.782
 8921W        W72645  23.181  27.489   2.406
 8922W        W72646   5.296  21.645  14.946
 8923W        W72647  34.535  27.633  12.033
 8924W        W72648  13.657   3.332   2.872
 8925W        W72649  24.612   3.746   0.249
 8926W        W72650   3.226   4.438   4.306
 8927W        W72651  10.384  37.930   2.889
 8928W        W72652  25.987   6.400   1.765
 8929W        W72653  38.822  13.815   2.290
 8930W        W72654  20.034  18.767  13.990
 8931W        W72655  37.882  23.177   4.638
 8932W        W72656  26.098  31.124  14.384
 8933W        W72657  43.285  43.335   3.195
 8934W        W72658  44.757  25.077  10.413
 8935W        W72659  39.833  22.150  10.543
 8936W        W72660  36.971  41.932   0.823
 8937W        W72661  14.097  34.448  14.989
 8938W        W72662   9.836  30.925  13.429
 8939W        W72663  14.831   3.368   3.658
 8940W        W72664   3.422  16.753  13.483
 8941W        W72665  27.501  13.141   2.716
 8942W        W72666  16.298  24.178  12.545
 8943W        W72667   9.390  19.151   1.917
 8944W        W72668  32.459  24.684   3.369
 8945W        W72669  11.716   4.759  12.926
 8946W        W72670  36.060  25.649  13.406
 8947W        W72671  44.348   3.290  12.556
 8948W        W72672  25.694  43.449  12.420
 8949W        W72673  17.574  35.989  14.380
 8950W        W72674  13.749  17.234   0.337
 8951W        W72675  43.911  14.707   4.174
 8952W        W72676  37.457  35.878  14.962
 8953W        W72677  19.769   4.433   3.321
 8954W        W72678  23.548   9.302  14.793
 8955W        W72679  44.503  42.402  11.918
 8956W        W72680   7.304   6.699  11.373
 8957W        W72681   6.731  16.720  12.385
 8958W        W72682  39.366  11.214  12.403
 8959W        W72683  40.454  21.610   5.087
 8960W        W72684  34.371  35.960  11.387
 8961W        W72685  21.579  26.480   1.431
 8962W        W72686   5.277  20.647   4.195
 8963W        W72687  15.623  44.801  12.359
 8964W        W72688  12.318  22.570   0.924
 8965W        W72689  40.400  20.691   2.207
 8966W        W72690  31.414  23.213  12.545
 8967W        W72691  11.312   8.306  14.411
 8968W        W72692   7.912  20.653   2.799
 8969W        W72693  10.690  14.265  13.480
 8970W        W72694  23.654   5.798  14.480
 8971W        W72695  39.549  17.291   4.726
 8972W        W72696  14.327  17.586  13.327
 8973W        W72697  39.876  14.792   1.810
 8974W        W72698  24.484  26.691   2.759
 8975W        W72699  10.640  10.178  10.606
 8976W        W72700  10.692  38.488  12.515
 8977W        W72701  13.830   5.425  12.902
 8978W        W72702  18.559  14.670  14.985
 8979W        W72703   6.322  14.824   0.786
 8980W        W72704  19.558  43.303  11.904
 8981W        W72705  36.355  30.496  13.951
 8982W        W72706  12.336  25.632   0.796
 8983W        W72707  36.526  16.317   1.370
 8984W        W72708  24.080  19.634   3.815
 8985W        W72709  12.721  18.076   1.418
 8986W        W72710  41.481  33.002   5.168
 8987W        W72711   3.259  30.415  11.604
 8988W        W72712  22.736  33.512   4.622
 8989W        W72713   7.843  31.126  11.532
 8990W        W72714   6.203   7.281   3.720
 8991W        W72715  28.140   8.893  14.916
 8992W        W72716  40.462  25.967  14.496
 8993W        W72717  31.946  14.174  12.518
 8994W        W72718  37.463   3.903  14.999
 8995W        W72719  35.501  12.820  10.889
 8996W        W72720  10.770  36.976  11.045
 8997W        W72721  40.435  23.061   2.772
 8998W        W72722   8.706   9.186   1.386
 8999W        W72723  29.593  18.553  14.351
 9000W        W72724  38.873   1.925  14.369
 9001W        W72725   5.826   9.669  13.534
 9002W        W72726  25.508   7.707   3.302
 9003W        W72727  36.931  30.654  14.927
 9004W        W72728  30.570  37.574   4.669
 9005W        W72729  36.488  13.809   2.318
 9006W        W72730  17.172  40.859   2.730
 9007W        W72731  15.610  21.060   4.317
 9008W        W72732   1.239   9.348   2.742
 9009W        W72733  25.676  43.967  11.570
 9010W        W72734  22.251  30.578  14.370
 9011W        W72735   0.918  35.516   1.733
 9012W        W72736  28.628  22.529   1.745
 9013W        W72737  10.768   6.369  10.452
 9014W        W72738  13.251   5.762  12.966
 9015W        W72739  43.001  34.547   2.731
 9016W        W72740  38.021  12.193   1.407
 9017W        W72741  19.109   4.250   2.895
 9018W        W72742  44.472   4.871  10.590
 9019W        W72743   0.938  37.374   4.790
 9020W        W72744  32.092  43.385  11.961
 9021W        W72745  42.788  33.423   3.761
 9022W        W72746  29.541  11.195  14.832
 9023W        W72747   9.750   9.662   3.371
 9024W        W72748  11.708  21.256  10.064
 9025W        W72749  27.523  38.528   0.367
 9026W        W72750   9.169   6.802   4.723
 9027W        W72751  10.745  39.882  14.934
 9028W        W72752  33.098  29.450   2.236
 9029W        W72753  13.132  43.894  11.433
 9030W        W72754  24.097   0.960   0.295
 9031W        W72755  27.654  21.692  13.408
 9032W        W72756  43.831  14.637  11.604
 9033W        W72757  18.174  44.876   1.832
 9034W        W72758  29.005  22.040   1.817
 9035W        W72759  19.104   3.946  10.557
 9036W        W72760  35.087   2.367   1.834
 9037W        W72761  39.549   2.329   2.408
 9038W        W72762   2.723  12.793   4.206
 9039W        W72763  41.824  39.889   3.224
 9040W        W72764  40.548  28.987  11.879
 9041W        W72765  42.393  22.182  11.409
 9042W        W72766  17.187  25.609   4.638
 9043W        W72767  37.952  35.095   0.297
 9044W        W72768  10.212   7.249   0.388
 9045W        W72769  25.191  21.678   0.728
 9046W        W72770   1.343  39.340  10.983
 9047W        W72771  15.107   3.377  13.975
 9048W        W72772  16.195  19.603   1.859
 9049W        W72773  26.125  14.118   2.680
 9050W        W72774  15.645  13.664   4.304
 9051W        W72775  32.039  39.340  10.895
 9052W        W72776  26.117  32.420  14.785
 9053W        W72777  17.243  43.982   3.813
 9054W        W72778  41.348  27.639  12.936
 9055W        W72779  44.913  28.534   0.446
 9056W        W72780  30.497  36.537  14.435
 9057W        W72781   2.368  10.195  10.018
 9058W        W72782  44.457  23.575   4.636
 9059W        W72783   3.318  10.145  12.465
 9060W        W72784  37.375  41.980   1.215
 9061W        W72785   3.760  37.891  14.383
 9062W        W72786  20.083  27.667  12.538
 9063W        W72787  38.354   9.783  11.428
 9064W        W72788   2.365  44.390  14.491
 9065W        W72789  41.844  42.403   1.823
 9066W        W72790   2.766  39.372   2.225
 9067W        W72791   6.183  23.595  12.849
 9068W        W72792  12.118   9.218  13.510
 9069W        W72793  22.534  18.753  13.006
 9070W        W72794   9.793  43.875   1.780
 9071W        W72795   6.744  30.426   0.951
 9072W        W72796  13.810  11.151  11.986
 9073W        W72797  22.121  21.676  10.963
 9074W        W72798  38.362  13.170  14.293
 9075W        W72799  40.307   2.736   4.823
 9076W        W72800  31.467  19.159  12.451
 9077W        W72801  32.439  13.200   1.784
 9078W        W72802  36.897  19.157   1.366
 9079W        W72803  43.871  44.401   3.179
 9080W        W72804  13.720  14.234   3.313
 9081W        W72805  28.956  22.200  12.491
 9082W        W72806  40.503   1.892  12.508
 9083W        W72807   6.813  40.968  12.915
 9084W        W72808   4.368  18.651   3.838
 9085W        W72809  28.941  20.562  11.903
 9086W        W72810  20.038  16.733   1.430
 9087W        W72811  15.595  20.142  12.396
 9088W        W72812  32.484   1.779  11.036
 9089W        W72813  44.452  19.729  10.561
 9090W        W72814  38.328  18.132  10.475
 9091W        W72815  31.008   8.873   4.828
 9092W        W72816  41.899   4.439   4.166
 9093W        W72817   4.790  24.089  12.894
 9094W        W72818  11.802  27.012   0.293
 9095W        W72819  19.182  33.984   4.760
 9096W        W72820  40.365   3.741   2.215
 9097W        W72821  35.431   5.910  14.336
 9098W        W72822  26.102  27.077   4.118
 9099W        W72823   4.304  41.302  13.363
 9100W        W72824  30.620  33.401  13.424
 9101W        W72825  32.394  31.446   3.689
 9102W        W72826   8.844  28.662   0.760
 9103W        W72827  42.342   1.346   0.898
 9104W        W72828  25.698  36.959   2.728
 9105W        W72829  13.704   0.763   0.392
 9106W        W72830  37.503  31.032  13.015
 9107W        W72831  21.219   7.772  12.500
 9108W        W72832  34.557  15.170   3.382
 9109W        W72833  13.269  23.049  12.526
 9110W        W72834  43.334  10.652   3.283
 9111W        W72835  33.131   5.213   4.772
 9112W        W72836  13.638  12.156   4.194
 9113W        W72837   6.265  19.581  11.521
 9114W        W72838  34.977  18.225  12.546
 9115W        W72839  33.391  33.544   4.130
 9116W        W72840  23.236  12.276  14.970
 9117W        W72841   6.185  32.447  12.083
 9118W        W72842  42.898  41.883  14.460
 9119W        W72843   7.849  21.223   1.708
 9120W        W72844  25.650  24.693  10.481
 9121W        W72845  44.761  38.074  14.403
 9122W        W72846  13.810  43.952  10.631
 9123W        W72847  12.713  32.923   0.747
 9124W        W72848  32.407   2.927  10.535
 9125W        W72849  27.995  10.789  12.351
 9126W        W72850  10.774  30.589   0.953
 9127W        W72851  44.916  42.827  14.793
 9128W        W72852   4.368  22.609   0.916
 9129W        W72853  11.216  22.009   2.267
 9130W        W72854  33.446  38.924  10.440
 9131W        W72855   0.472  42.313  12.077
 9132W        W72856   0.457  42.336   4.347
 9133W        W72857   0.745   4.447  13.521
 9134W        W72858   2.905  11.331   0.936
 9135W        W72859  35.889  32.514  13.465
 9136W        W72860  20.651  36.937   1.754
 9137W        W72861  13.254  40.977   2.873
 9138W        W72862  29.067  23.698   1.855
 9139W        W72863  41.398  22.053   2.676
 9140W        W72864  41.429  14.098   3.375
 9141W        W72865   4.749   2.319  13.839
 9142W        W72866  20.531  19.073  10.917
 9143W        W72867   9.223  42.882   1.251
 9144W        W72868   9.822  32.519   3.803
 9145W        W72869  28.521   2.859  13.806
 9146W        W72870   5.744   1.412  11.564
 9147W        W72871  13.642  26.183  12.872
 9148W        W72872  37.900  25.203   3.695
 9149W        W72873  35.881   0.439  13.508
 9150W        W72874   7.326  17.088   3.636
 9151W        W72875  19.560   8.714   0.833
 9152W        W72876  36.967   4.809   1.398
 9153W        W72877  30.072  19.716   3.222
 9154W        W72878  19.718  10.696   3.704
 9155W        W72879  13.233  17.736   4.772
 9156W        W72880   6.727   0.473  12.382
 9157W        W72881  28.460   4.265  10.566
 9158W        W72882  26.092  43.819   2.325
 9159W        W72883  41.888  41.460   2.188
 9160W        W72884   6.828  14.221   3.320
 9161W        W72885  14.333   0.309  11.881
 9162W        W72886  37.438  42.954   0.847
 9163W        W72887  15.757  11.736   5.197
 9164W        W72888  21.705   5.787  13.835
 9165W        W72889  19.052  17.671  13.985
 9166W        W72890  10.369  23.058   1.886
 9167W        W72891   0.267  36.072  13.836
 9168W        W72892  12.845  13.227   2.661
 9169W        W72893  11.780  40.418  11.927
 9170W        W72894  41.014   7.897  11.022
 9171W        W72895  13.617  23.707  11.557
 9172W        W72896  25.487  32.626  12.863
 9173W        W72897  35.937  30.462   0.872
 9174W        W72898  44.282  12.782  11.002
 9175W        W72899  44.908  17.641   0.389
 9176W        W72900  44.800  25.043   5.215
 9177W        W72901   0.756  30.576  13.327
 9178W        W72902   9.269  32.946   0.310
 9179W        W72903  30.928   1.958   3.868
 9180W        W72904  39.466  40.529   5.604
 9181W        W72905  18.589  36.887   1.282
 9182W        W72906  19.688  44.499   0.439
 9183W        W72907  42.431  22.999   2.203
 9184W        W72908   0.262  13.615   2.747
 9185W        W72909  28.041  20.247   2.789
 9186W        W72910  15.752  43.454   1.922
 9187W        W72911  14.658  34.935   1.246
 9188W        W72912  34.376  20.524  14.401
 9189W        W72913  29.668  16.217   0.475
 9190W        W72914  40.405   6.291   2.287
 9191W        W72915  24.061  29.014  13.507
 9192W        W72916  15.303  24.060   0.932
 9193W        W72917  24.665   2.372   1.824
 9194W        W72918  23.055  43.998   1.388
 9195W        W72919  10.375  20.761   4.319
 9196W        W72920  28.531  25.970  10.417
 9197W        W72921  16.640  35.386  11.865
 9198W        W72922  19.649  37.930   4.667
 9199W        W72923   1.331  32.033   0.818
 9200W        W72924  31.461  39.436   3.148
 9201W        W72925  15.677  35.092   5.117
 9202W        W72926  24.998  44.915  12.865
 9203W        W72927  34.517   3.322   0.338
 9204W        W72928  43.850  38.560   1.760
 9205W        W72929  39.477  19.270  12.899
 9206W        W72930  19.592  14.216   0.446
 9207W        W72931  21.613  11.848  13.402
 9208W        W72932  11.259  22.627  12.925
 9209W        W72933  37.536  15.823  10.469
 9210W        W72934  40.482  28.098  12.872
 9211W        W72935  35.555  19.550   0.824
 9212W        W72936  34.932   5.237  14.012
 9213W        W72937  34.091  19.547   0.273
 9214W        W72938  39.030  11.317  12.853
 9215W        W72939  17.615  36.460  11.027
 9216W        W72940  44.781  34.551   0.949
 9217W        W72941  28.123  37.833   0.453
 9218W        W72942  19.546  11.798   4.827
 9219W        W72943  26.531  21.585   0.857
 9220W        W72944  11.776  31.147  11.448
 9221W        W72945  13.165  19.722   3.248
 9222W        W72946  38.848  24.105  13.323
 9223W        W72947   3.329   0.935   1.841
 9224W        W72948  44.407  10.659   0.821
 9225W        W72949  40.314   5.338   3.338
 9226W        W72950  21.707  16.640   2.789
 9227W        W72951   6.724   3.245   0.906
 9228W        W72952  19.065  19.591  13.822
 9229W        W72953  40.363  42.961  13.512
 9230W        W72954   6.419  18.661   3.190
 9231W        W72955   6.826   2.275  12.912
 9232W        W72956  32.418  43.383   3.646
 9233W        W72957   8.889  23.607   2.802
 9234W        W72958   5.787  12.279  11.608
 9235W        W72959  18.230  20.036  14.890
 9236W        W72960   1.414  35.369   4.283
 9237W        W72961   8.294  34.529   0.922
 9238W        W72962  31.052   7.349   5.132
 9239W        W72963  20.753   3.799   0.744
 9240W        W72964  31.405  12.705   2.785
 9241W        W72965  13.242  12.354  12.559
 9242W        W72966   3.382   3.927  12.541
 9243W        W72967  17.566  23.613  11.587
 9244W        W72968   4.318   8.762  10.407
 9245W        W72969  25.490   6.725   4.201
 9246W        W72970   3.794  16.783   3.233
 9247W        W72971   5.727   4.782   4.296
 9248W        W72972  18.595  24.156  11.962
 9249W        W72973  36.441  31.487   1.443
 9250W        W72974   4.833  26.473  11.489
 9251W        W72975  17.161  35.499  11.865
 9252W        W72976  41.513  42.945   3.836
 9253W        W72977  16.243  40.854   0.260
 9254W        W72978  15.642  14.119   1.841
 9255W        W72979   5.862  44.803  10.531
 9256W        W72980   4.931   6.869   2.756
 9257W        W72981  29.036   2.869   2.745
 9258W        W72982  12.773  42.292   4.786
 9259W        W72983  41.826  41.003   0.367
 9260W        W72984   5.704   1.888  10.966
 9261W        W72985  19.195  14.141   2.770
 9262W        W72986  19.710  39.813   3.669
 9263W        W72987  29.134  44.316   2.827
 9264W        W72988   1.858  20.233   0.399
 9265W        W72989  18.558  35.565   2.365
 9266W        W72990  16.184   7.357   2.330
 9267W        W72991  34.465  25.205   3.640
 9268W        W72992  12.855  39.426   4.324
 9269W        W72993  16.259  44.783   2.376
 9270W        W72994   6.770  17.664  11.989
 9271W        W72995  36.034  43.820  13.318
 9272W        W72996  14.627   3.343   0.743
 9273W        W72997  22.635  42.321   2.684
 9274W        W72998   4.774   5.254  13.918
 9275W        W72999   4.292   7.329  11.973
 9276W        W73000  16.571   9.868  11.449
 9277W        W73001  29.045  38.956   3.366
 9278W        W73002  22.654  12.827   5.177
 9279W        W73003  33.451  23.205  12.538
 9280W        W73004  19.061  16.737   4.136
 9281W        W73005   4.793  24.018  11.570
 9282W        W73006  23.056  44.897  13.946
 9283W        W73007  28.155  28.041  11.959
 9284W        W73008  12.788  20.201  14.485
 9285W        W73009   3.935  28.141  12.097
 9286W        W73010  23.039  22.068   4.836
 9287W        W73011  28.073  21.720  12.351
 9288W        W73012  44.850  31.498   0.856
 9289W        W73013  33.475  41.823   1.441
 9290W        W73014  14.701   2.390  12.439
 9291W        W73015  28.072  43.930  13.015
 9292W        W73016  22.072  42.507   4.712
 9293W        W73017   5.821   3.793   1.277
 9294W        W73018  31.146  27.647   2.214
 9295W        W73019   1.262  23.126   4.115
 9296W        W73020   1.833  19.596   3.163
 9297W        W73021  13.605   8.888  13.332
 9298W        W73022  40.401  31.634   1.229
 9299W        W73023  27.113  18.296  12.375
 9300W        W73024  17.786  19.776  14.506
 9301W        W73025  10.246   4.809   0.844
 9302W        W73026  36.398  15.241   0.380
 9303W        W73027  32.620  34.427  13.866
 9304W        W73028  36.884   0.492  11.584
 9305W        W73029   9.387  15.760   1.358
 9306W        W73030  12.653  29.126   0.321
 9307W        W73031  19.116  42.952  10.024
 9308W        W73032  26.069  39.536  11.555
 9309W        W73033  44.921   1.815   4.354
 9310W        W73034  35.534  37.910  13.401
 9311W        W73035  35.868  36.056   2.743
 9312W        W73036   3.859  27.128  13.891
 9313W        W73037  15.315  22.039  13.439
 9314W        W73038   1.246   7.756   2.687
 9315W        W73039  23.508  17.120  13.908
 9316W        W73040  22.078  30.119  12.054
 9317W        W73041  11.329   5.820   3.332
 9318W        W73042  39.362  42.346   1.427
 9319W        W73043  41.483  20.155   1.847
 9320W        W73044  34.035   5.333   3.772
 9321W        W73045   7.173   2.752  11.608
 9322W        W73046  32.459  23.046  11.034
 9323W        W73047  41.019  32.914  10.403
 9324W        W73048  35.046   4.921  10.558
 9325W        W73049  25.601  14.127   4.342
 9326W        W73050  19.130  21.603   4.317
 9327W        W73051   5.402  20.637  12.938
 9328W        W73052  38.884  41.009   1.851
 9329W        W73053   6.422  40.520   3.385
 9330W        W73054  20.122   1.748   0.818
 9331W        W73055  30.556  16.211   3.220
 9332W        W73056  36.919  16.239   1.874
 9333W        W73057  30.649  41.521   3.654
 9334W        W73058   6.312  39.510   3.855
 9335W        W73059  25.503  19.260  12.570
 9336W        W73060   9.845  39.514  11.597
 9337W        W73061  12.241  27.011   0.402
 9338W        W73062  32.614  27.574   0.328
 9339W        W73063  11.202  16.607   3.825
 9340W        W73064  26.184  23.138  13.879
 9341W        W73065   1.276  37.024   0.940
 9342W        W73066  23.503  19.110   1.708
 9343W        W73067  26.630   3.265   1.287
 9344W        W73068  41.960  17.738   4.232
 9345W        W73069   7.172   1.895   2.399
 9346W        W73070  21.098  38.482   4.138
 9347W        W73071  36.879  25.204  12.369
 9348W        W73072  11.856  33.996   3.650
 9349W        W73073  19.722   8.865  13.349
 9350W        W73074  27.620  18.128  13.527
 9351W        W73075   8.247  37.852  12.544
 9352W        W73076  17.261   9.365   2.697
 9353W        W73077  10.268  40.439   1.748
 9354W        W73078   7.325  40.892  13.505
 9355W        W73079  12.298  42.462   2.193
 9356W        W73080  22.208  13.126  14.962
 9357W        W73081  30.159  18.194  14.410
 9358W        W73082   9.869   5.897  12.833
 9359W        W73083  40.498   7.864  10.512
 9360W        W73084  20.674  30.090  12.977
 9361W        W73085  16.572  25.182  12.040
 9362W        W73086   7.330   7.714  11.961
 9363W        W73087  30.010  12.254  10.608
 9364W        W73088  33.576  17.285  13.048
 9365W        W73089  38.343   5.273   4.282
 9366W        W73090  14.285  43.334   0.297
 9367W        W73091  15.806  21.754  12.389
 9368W        W73092  29.573  39.534   0.407
 9369W        W73093  19.238   5.420  14.780
 9370W        W73094  10.147  12.688   5.166
 9371W        W73095  15.599  40.360  12.059
 9372W        W73096  26.146  12.855  12.052
 9373W        W73097  22.704  24.076   4.640
 9374W        W73098  37.041  44.433   4.712
 9375W        W73099  31.081  14.182  13.009
 9376W        W73100  12.293  42.302   3.705
 9377W        W73101   0.882   0.843   1.258
 9378W        W73102  26.525  26.146   2.902
 9379W        W73103  40.876  34.566   3.157
 9380W        W73104   8.389  17.160   3.691
 9381W        W73105  40.824  12.835   3.275
 9382W        W73106  38.426  22.065   0.250
 9383W        W73107  43.890  31.444  10.940
 9384W        W73108  10.825  19.727  10.622
 9385W        W73109  11.629  43.368   1.401
 9386W        W73110   0.438   5.925   2.408
 9387W        W73111   2.334  29.032   3.332
 9388W        W73112  19.539  12.698   3.745
 9389W        W73113  44.928   0.819  13.906
 9390W        W73114  24.002  19.277   1.921
 9391W        W73115  18.101   7.405  13.830
 9392W        W73116  44.886   1.306  10.531
 9393W        W73117   3.894  42.925   4.738
 9394W        W73118  16.790  19.093   0.924
 9395W        W73119  26.674  33.429   4.117
 9396W        W73120   0.449  27.990   1.294
 9397W        W73121  17.167  29.175  14.443
 9398W        W73122  10.651  41.936   2.336
 9399W        W73123   4.895  25.590   2.181
 9400W        W73124  33.619  11.842  14.854
 9401W        W73125   5.707   2.944  11.116
 9402W        W73126  30.530   3.360  12.889
 9403W        W73127  13.190  25.662  10.524
 9404W        W73128  34.499   3.767  11.515
 9405W        W73129  32.131  12.185  11.433
 9406W        W73130  42.410  14.679  13.381
 9407W        W73131  24.510  16.753  12.556
 9408W        W73132  41.031   5.203   1.303
 9409W        W73133  12.705  42.959  12.956
 9410W        W73134   8.268  36.545  13.058
 9411W        W73135  25.093  40.842  13.032
 9412W        W73136   9.668  42.422  13.396
 9413W        W73137  44.753  19.629  14.833
 9414W        W73138  27.006  14.240  13.515
 9415W        W73139  22.035  27.679   2.717
 9416W        W73140  12.313  13.346   3.869
 9417W        W73141  39.813  36.932  12.847
 9418W        W73142   3.869  38.521   0.750
 9419W        W73143  30.945  24.184  12.445
 9420W        W73144  17.776  17.651  13.372
 9421W        W73145  13.837  34.587  10.495
 9422W        W73146  18.776  15.140  11.596
 9423W        W73147  44.914   4.221  11.404
 9424W        W73148  31.064  38.963  11.407
 9425W        W73149  33.094   4.215   1.332
 9426W        W73150  15.770  13.144   4.640
 9427W        W73151  23.186  22.135  12.952
 9428W        W73152  11.733  16.198  13.334
 9429W        W73153  16.753  29.998  10.558
 9430W        W73154  28.157  16.072  14.335
 9431W        W73155  19.249  24.515  10.610
 9432W        W73156  13.242  24.120   1.227
 9433W        W73157   8.293  40.303  13.436
 9434W        W73158  31.528  11.292  11.452
 9435W        W73159  13.654  27.064   4.174
 9436W        W73160  39.328  40.818  14.288
 9437W        W73161  36.471  15.190   5.612
 9438W        W73162  40.419  43.784   0.948
 9439W        W73163  36.096   0.372   3.632
 9440W        W73164  19.204  14.821   1.726
 9441W        W73165   0.835  26.665   1.856
 9442W        W73166  39.005  41.422  11.585
 9443W        W73167  15.589  26.171  14.368
 9444W        W73168  28.142  18.138  10.057
 9445W        W73169   0.273  11.164  13.370
 9446W        W73170  35.092   6.220  14.432
 9447W        W73171  37.958  10.830   1.395
 9448W        W73172  39.342  11.350  11.460
 9449W        W73173  29.034   6.797  10.499
 9450W        W73174  21.168  16.786   4.128
 9451W        W73175   9.664  25.546  14.937
 9452W        W73176   3.777  44.996  12.829
 9453W        W73177  19.769  26.136   1.790
 9454W        W73178  10.868   9.285  11.421
 9455W        W73179  20.675  24.556   4.242
 9456W        W73180   3.895  22.681   3.317
 9457W        W73181  39.008  20.595  12.080
 9458W        W73182  21.174  41.487   0.331
 9459W        W73183   8.164   8.292   4.742
 9460W        W73184  12.726  33.962  13.429
 9461W        W73185  37.904  21.525  14.489
 9462W        W73186  26.545  40.831  10.405
 9463W        W73187   1.832  31.549   1.818
 9464W        W73188  40.426  19.540   1.809
 9465W        W73189  27.992   5.692  10.987
 9466W        W73190  19.218   5.859  12.947
 9467W        W73191  32.607  23.156   2.347
 9468W        W73192  24.119   4.743   9.976
 9469W        W73193  22.223  13.702  10.081
 9470W        W73194  33.023  15.652   1.306
 9471W        W73195  42.325   0.933  12.546
 9472W        W73196  24.155  21.745   2.896
 9473W        W73197   2.458  26.090   0.467
 9474W        W73198  42.299   8.896   1.226
 9475W        W73199   5.330  13.787  12.414
 9476W        W73200  31.600  13.821  12.426
 9477W        W73201   7.393   0.423  14.275
 9478W        W73202  25.968  20.044  13.971
 9479W        W73203   4.322  21.085   3.773
 9480W        W73204  10.289  31.538   2.289
 9481W        W73205   4.717  25.997  13.527
 9482W        W73206  26.166  12.852   2.824
 9483W        W73207  34.083  31.132  11.410
 9484W        W73208  38.391   1.737   4.668
 9485W        W73209   5.813  36.023   1.844
 9486W        W73210  35.086   8.714  12.442
 9487W        W73211   6.807  21.132   1.323
 9488W        W73212   0.893  27.569   4.817
 9489W        W73213  26.662  40.024  10.525
 9490W        W73214  37.962   8.404   0.738
 9491W        W73215  30.436  22.599  12.900
 9492W        W73216  37.913  31.609  11.946
 9493W        W73217  18.142  12.740   1.866
 9494W        W73218  14.310   5.238  13.495
 9495W        W73219  37.892  41.995  11.462
 9496W        W73220  44.500   7.802   1.305
 9497W        W73221   1.873  10.675   1.426
 9498W        W73222  12.241  33.065  12.886
 9499W        W73223  32.094   5.361   1.431
 9500W        W73224  32.949  19.769   0.350
 9501W        W73225  14.137  18.207   2.285
 9502W        W73226  44.828   6.794   0.338
 9503W        W73227  29.451   0.901  13.370
 9504W        W73228   4.867   2.407  11.068
 9505W        W73229  17.783  11.330  12.062
 9506W        W73230   8.807   0.416   3.168
 9507W        W73231  12.715  14.653   4.607
 9508W        W73232  30.096   8.393  13.017
 9509W        W73233  37.058  19.580   4.695
 9510W        W73234  23.508  40.465   3.331
 9511W        W73235  11.627  41.302   4.296
 9512W        W73236  11.716   8.825  13.815
 9513W        W73237  20.267  21.753   1.781
 9514W        W73238  26.009  29.926  14.897
 9515W        W73239  12.261  28.580   3.199
 9516W        W73240   2.725   4.933  13.811
 9517W        W73241  26.087   8.296  11.071
 9518W        W73242  15.133   9.739   4.669
 9519W        W73243  30.008   0.304  14.409
 9520W        W73244  15.631  41.998   0.902
 9521W        W73245   5.230  34.985  12.090
 9522W        W73246  39.810   3.869  10.509
 9523W        W73247  30.645  31.465  11.587
 9524W        W73248   2.342  12.284   3.815
 9525W        W73249   6.387  23.994  12.996
 9526W        W73250   0.812  38.077   4.211
 9527W        W73251   5.765   9.338  13.419
 9528W        W73252  27.659  38.053   0.475
 9529W        W73253  22.204  15.227  11.862
 9530W        W73254  25.079  39.867  14.402
 9531W        W73255   6.220   6.782   2.319
 9532W        W73256   3.438   6.758  12.857
 9533W        W73257  35.047  16.762   1.280
 9534W        W73258  28.507  12.725  10.507
 9535W        W73259  27.591  31.488   4.677
 9536W        W73260   2.226  39.334  10.604
 9537W        W73261  20.120  12.133  14.972
 9538W        W73262   5.880  35.362  12.523
 9539W        W73263  11.180   3.236   1.434
 9540W        W73264   0.913  40.522  14.974
 9541W        W73265  18.642  42.302   2.177
 9542W        W73266  35.025  39.017  11.002
 9543W        W73267  23.732   5.900   2.776
 9544W        W73268  14.716  21.673  12.502
 9545W        W73269  10.250   8.240  11.506
 9546W        W73270  14.324  26.136   1.699
 9547W        W73271  37.925  32.434  11.055
 9548W        W73272  14.783  44.282   0.740
 9549W        W73273  42.398  18.191  14.385
 9550W        W73274  27.184  40.549   4.726
 9551W        W73275  27.490  28.579  13.363
 9552W        W73276  34.025  24.183  13.416
 9553W        W73277  44.452  16.206   4.158
 9554W        W73278  40.342  44.896  11.059
 9555W        W73279   5.781   9.736   2.181
 9556W        W73280  31.461   5.836   1.270
 9557W        W73281   0.248  22.011   0.758
 9558W        W73282  31.606  22.089  10.924
 9559W        W73283   8.710   9.282   2.419
 9560W        W73284  29.983  38.821  14.837
 9561W        W73285  17.158  21.211  12.876
 9562W        W73286  23.168   7.684   0.838
 9563W        W73287   4.266   9.761   3.660
 9564W        W73288  12.220  32.070   3.172
 9565W        W73289  21.569  21.581  12.973
 9566W        W73290   0.988   4.733  10.412
 9567W        W73291   8.732   1.294  12.399
 9568W        W73292  30.036  28.940  13.534
 9569W        W73293   7.283   7.209   2.852
 9570W        W73294  18.078  34.582  10.589
 9571W        W73295  17.105  25.068   2.863
 9572W        W73296   2.746  23.661  14.868
 9573W        W73297  24.067   5.423  12.514
 9574W        W73298  14.795  33.443   1.377
 9575W        W73299  32.075  32.570  10.486
 9576W        W73300  16.588  33.883   0.423
 9577W        W73301  10.859  37.075  14.923
 9578W        W73302  21.579  33.074   2.686
 9579W        W73303  28.168   5.819   0.950
 9580W        W73304  35.426  23.170  14.014
 9581W        W73305  35.462  32.524   0.243
 9582W        W73306  21.170   2.281  11.991
 9583W        W73307  18.628   5.708   9.968
 9584W        W73308   0.480  20.539  11.546
 9585W        W73309  28.124  43.934   0.956
 9586W        W73310   4.361   3.299  11.980
 9587W        W73311   4.872   4.300  12.430
 9588W        W73312  13.245  20.163  11.868
 9589W        W73313   3.346   3.804   4.718
 9590W        W73314   0.260  42.818   3.309
 9591W        W73315  24.641  16.290  11.574
 9592W        W73316   3.734  20.764   2.722
 9593W        W73317  40.331   7.238  11.488
 9594W        W73318  28.468  34.406   1.367
 9595W        W73319  37.997  16.682   4.313
 9596W        W73320  44.808  24.993   3.298
 9597W        W73321  39.002  16.737   3.732
 9598W        W73322  16.592  17.062  11.519
 9599W        W73323  30.971  21.721  11.447
 9600W        W73324   2.859   8.836   1.251
 9601W        W73325  25.685  10.779   2.842
 9602W        W73326  22.210  37.544  11.974
 9603W        W73327   5.330   0.446  13.352
 9604W        W73328  23.016  37.468   2.366
 9605W        W73329  22.517  28.980   3.773
 9606W        W73330  36.421   2.323   3.659
 9607W        W73331  44.831  37.905  12.394
 9608W        W73332  20.112  33.935  10.495
 9609W        W73333   9.293   5.873   1.423
 9610W        W73334  19.059  32.895   1.225
 9611W        W73335  16.187  12.298   4.266
 9612W        W73336  17.692  38.441  14.327
 9613W        W73337  12.721  25.212  11.076
 9614W        W73338   1.313  14.317   0.440
 9615W        W73339  13.107  21.679  13.797
 9616W        W73340  33.987  40.316  14.489
 9617W        W73341  23.509   9.322   0.832
 9618W        W73342  15.690  26.651   5.237
 9619W        W73343  31.551  32.908  13.885
 9620W        W73344  28.580   5.223   0.449
 9621W        W73345  19.713   5.738  12.861
 9622W        W73346  22.536   4.295  13.404
 9623W        W73347   0.985  40.317   1.801
 9624W        W73348   0.486  32.609   0.922
 9625W        W73349  15.289   1.252  12.938
 9626W        W73350  36.914  37.047  11.485
 9627W        W73351  37.969   6.743   4.780
 9628W        W73352   8.892   9.852  11.493
 9629W        W73353   4.350   7.343  11.097
 9630W        W73354   5.382  21.074   3.829
 9631W        W73355  17.152  15.757   0.900
 9632W        W73356   2.415   3.926  14.880
 9633W        W73357  44.993  32.000  13.454
 9634W        W73358  30.020  29.658  14.904
 9635W        W73359   3.954  18.264  13.922
 9636W        W73360  24.065  37.062   0.303
 9637W        W73361  30.038  17.790   3.263
 9638W        W73362  32.981  43.396   0.459
 9639W        W73363   4.345  34.958   4.693
 9640W        W73364  44.426  33.502  11.906
 9641W        W73365  34.104  25.660   3.294
 9642W        W73366  28.488   8.246  11.024
 9643W        W73367  19.633   1.351   4.215
 9644W        W73368  38.469  26.975   2.345
 9645W        W73369  44.368   0.354   4.650
 9646W        W73370  42.319  22.120   3.830
 9647W        W73371  35.913  37.504   1.358
 9648W        W73372  14.250  10.283   4.795
 9649W        W73373   4.389   6.859  12.559
 9650W        W73374  29.494  10.783   5.199
 9651W        W73375   7.698   6.199  12.096
 9652W        W73376  43.957  35.533   4.662
 9653W        W73377   7.405  34.392   1.828
 9654W        W73378  24.088  37.342   5.635
 9655W        W73379  19.672  35.948  14.788
 9656W        W73380  31.591  36.063  12.341
 9657W        W73381  42.970   9.194   1.238
 9658W        W73382  32.086   0.296   1.367
 9659W        W73383  23.007  33.956   3.728
 9660W        W73384  23.215  41.354  10.924
 9661W        W73385  41.860  42.372  13.322
 9662W        W73386  21.164   1.392   2.178
 9663W        W73387   0.895  40.307  11.856
 9664W        W73388  30.503  24.062   4.277
 9665W        W73389  23.516  32.991   0.740
 9666W        W73390  30.919  15.581   1.392
 9667W        W73391  16.619  29.439  13.873
 9668W        W73392  17.192  33.032   4.318
 9669W        W73393  30.164  21.563   3.823
 9670W        W73394  23.724  43.911   4.225
 9671W        W73395  34.970  20.622   1.792
 9672W        W73396  29.932   4.308   0.448
 9673W        W73397  11.162  37.433   1.897
 9674W        W73398  28.140  20.712   1.344
 9675W        W73399  15.127  30.117   4.635
 9676W        W73400  43.830  44.403   2.837
 9677W        W73401  38.044  36.054  10.981
 9678W        W73402   8.235  43.307  13.429
 9679W        W73403   9.861  11.348  13.005
 9680W        W73404  29.506  43.305   3.791
 9681W        W73405  43.890  37.009   0.242
 9682W        W73406  12.180   8.288   4.654
 9683W        W73407   9.710  22.101   1.355
 9684W        W73408   6.801   4.772  14.829
 9685W        W73409   5.269  29.080   4.823
 9686W        W73410   2.778  23.689  11.610
 9687W        W73411  31.474  25.144  13.955
 9688W        W73412  20.162  27.180  11.856
 9689W        W73413  27.472  40.844  12.962
 9690W        W73414  11.760   5.385  13.431
 9691W        W73415  26.682  42.780   0.347
 9692W        W73416   1.379  38.542   2.223
 9693W        W73417  33.564  44.395  11.035
 9694W        W73418  23.622  17.764  13.987
 9695W        W73419   1.813  31.991  14.911
 9696W        W73420  18.614  24.015   4.254
 9697W        W73421  28.997  17.225  14.769
 9698W        W73422  18.575   6.414  14.301
 9699W        W73423   2.273  26.679   4.809
 9700W        W73424  13.294  41.351   2.697
 9701W        W73425   4.383  42.311  14.766
 9702W        W73426  12.815  10.849   2.419
 9703W        W73427  29.018  13.191  13.062
 9704W        W73428  43.361  40.042  10.539
 9705W        W73429   1.753  29.565   4.744
 9706W        W73430   4.798  13.806   0.950
 9707W        W73431  17.773  38.982   1.767
 9708W        W73432  40.410  28.186  10.127
 9709W        W73433  26.992   2.961   0.776
 9710W        W73434  29.439  22.141  10.555
 9711W        W73435  30.156  14.772   1.369
 9712W        W73436  40.961  34.919   1.285
 9713W        W73437  10.373  22.014  13.831
 9714W        W73438  29.049  21.536  13.809
 9715W        W73439   6.182  39.021  13.852
 9716W        W73440   2.800  12.644  13.862
 9717W        W73441  11.192  25.017   3.657
 9718W        W73442  24.047   6.321   4.710
 9719W        W73443  36.938   1.267  13.335
 9720W        W73444   1.372   3.349   1.842
 9721W        W73445  10.173  39.809  14.435
 9722W        W73446  31.407  13.257   4.741
 9723W        W73447  40.492  39.401  12.353
 9724W        W73448  44.850  44.825   0.469
 9725W        W73449  28.078  40.323  11.956
 9726W        W73450  38.432  27.478  10.599
 9727W        W73451   2.364  27.466   3.677
 9728W        W73452  27.627  42.490  14.779
 9729W        W73453  25.169  36.096   3.369
 9730W        W73454  21.083  22.503   3.737
 9731W        W73455  43.909  34.908   5.715
 9732W        W73456  13.227  33.559   0.345
 9733W        W73457  23.598  26.167  14.023
 9734W        W73458   4.792  13.676  10.614
 9735W        W73459   2.289  15.812   4.207
 9736W        W73460  29.093  37.856  10.945
 9737W        W73461  11.694  23.520  12.579
 9738W        W73462  28.493  34.608  13.937
 9739W        W73463  35.101  23.489   4.709
 9740W        W73464  44.845   9.284  12.436
 9741W        W73465  10.330  18.129  10.153
 9742W        W73466  40.979  34.461   2.865
 9743W        W73467  21.520  27.570  12.832
 9744W        W73468  24.505   4.789  14.487
 9745W        W73469   9.357   0.926  10.493
 9746W        W73470   9.815  30.498  11.038
 9747W        W73471   6.768  19.651   4.744
 9748W        W73472  16.798  44.462   4.252
 9749W        W73473  41.917  12.837   3.202
 9750W        W73474   7.182  17.163   2.858
 9751W        W73475  35.854  29.948  11.536
 9752W        W73476   9.294  24.159   2.270
 9753W        W73477   7.908  31.119   4.346
 9754W        W73478  43.972   6.724   2.189
 9755W        W73479  27.609  24.640  11.424
 9756W        W73480  34.497  31.600  10.533
 9757W        W73481  30.954  41.001   2.320
 9758W        W73482   5.763  11.622  11.421
 9759W        W73483   7.811  37.457   2.377
 9760W        W73484  15.276  32.421  12.960
 9761W        W73485  12.140  36.587  12.473
 9762W        W73486  27.052  30.555   9.438
 9763W        W73487  37.492  13.251   2.229
 9764W        W73488  16.589  26.019  11.372
 9765W        W73489  35.074  41.940  12.492
 9766W        W73490  40.979  21.588   5.218
 9767W        W73491  40.408   1.405   1.706
 9768W        W73492  14.157  28.560   4.793
 9769W        W73493  43.310  21.177  13.979
 9770W        W73494  13.140   7.731   1.254
 9771W        W73495  18.544   5.279   0.306
 9772W        W73496  27.139  27.549   2.693
 9773W        W73497  34.410  11.622   3.265
 9774W        W73498  24.133  17.112  10.017
 9775W        W73499  32.985  44.849  14.303
 9776W        W73500   9.178  33.502   3.797
 9777W        W73501  14.243  43.353  10.405
 9778W        W73502  21.528  19.237   4.186
 9779W        W73503   7.841  40.047  12.414
 9780W        W73504  17.096  41.474   1.377
 9781W        W73505   3.360  32.918   3.667
 9782W        W73506  44.833   9.691  14.891
 9783W        W73507  34.055  12.780   0.331
 9784W        W73508  16.750  37.338   2.367
 9785W        W73509  26.163   3.455   3.232
 9786W        W73510  44.817  35.402  11.588
 9787W        W73511  35.048  25.559   4.669
 9788W        W73512  35.528  29.023  10.917
 9789W        W73513  36.496  21.114  13.405
 9790W        W73514   5.911  29.046   4.338
 9791W        W73515  17.130  16.126   2.406
 9792W        W73516  19.616  38.446  13.909
 9793W        W73517  25.072   7.769   4.640
 9794W        W73518   8.304  44.806   1.280
 9795W        W73519  30.653  35.046  12.982
 9796W        W73520  16.780  29.175  10.904
 9797W        W73521  14.137  40.444   3.239
 9798W        W73522  44.801  25.991   4.295
 9799W        W73523  32.094  11.629  13.836
 9800W        W73524   1.415   4.796   2.733
 9801W        W73525   3.865  18.666  12.525
 9802W        W73526   0.334  27.454   4.278
 9803W        W73527  26.079  10.842   4.126
 9804W        W73528  20.126  38.992  10.923
 9805W        W73529   0.408  23.114   4.321
 9806W        W73530  29.543  40.307   3.634
 9807W        W73531  12.222  27.639  11.071
 9808W        W73532  27.174  42.834   9.920
 9809W        W73533  13.605  42.820  14.001
 9810W        W73534   7.789  28.490  10.996
 9811W        W73535   7.370  29.958   1.774
 9812W        W73536  36.901  27.193  14.015
 9813W        W73537   9.254  43.383   1.772
 9814W        W73538  35.531   3.235  10.898
 9815W        W73539   9.824   1.467  10.492
 9816W        W73540  16.811  36.903  14.300
 9817W        W73541  34.386  27.095  10.512
 9818W        W73542  29.622  15.240  14.014
 9819W        W73543  30.529  32.408   0.405
 9820W        W73544  42.824  41.965   0.481
 9821W        W73545  13.245  15.325   3.740
 9822W        W73546  10.257   3.264   1.840
 9823W        W73547  26.116  36.983  12.573
 9824W        W73548   6.347  24.040  10.464
 9825W        W73549  10.692  13.806  12.543
 9826W        W73550  10.825  33.380  13.324
 9827W        W73551  35.392  36.450  14.448
 9828W        W73552  35.554  29.573   2.302
 9829W        W73553  44.954  22.091   4.116
 9830W        W73554  15.319  11.200   0.366
 9831W        W73555   9.692   8.254   4.643
 9832W        W73556   8.313  44.270  10.578
 9833W        W73557  11.657  22.040   4.754
 9834W        W73558  14.177   8.790   3.340
 9835W        W73559  10.204  43.462  13.433
 9836W        W73560   5.199  38.027  11.899
 9837W        W73561  12.211  22.627   0.434
 9838W        W73562  14.288  41.915   0.361
 9839W        W73563  10.195  28.572   0.320
 9840W        W73564  26.548  10.785  11.421
 9841W        W73565  32.133  29.566  12.411
 9842W        W73566  34.873  37.930   1.322
 9843W        W73567  13.609   9.853   3.296
 9844W        W73568  30.037   3.911   4.176
 9845W        W73569  44.266   4.851   4.744
 9846W        W73570  16.153  25.660   4.276
 9847W        W73571  30.085  16.144   3.251
 9848W        W73572   5.434  34.514   3.295
 9849W        W73573  30.111   5.892   2.694
 9850W        W73574  14.823  40.037   1.822
 9851W        W73575   9.349  42.291   0.874
 9852W        W73576   4.392  27.546   0.248
 9853W        W73577   7.842  15.290  11.930
 9854W        W73578  15.157  30.966  11.489
 9855W        W73579  20.065  34.385   0.840
 9856W        W73580  34.518  10.329  12.032
 9857W        W73581  43.968  29.925  14.898
 9858W        W73582  43.339   6.424  13.327
 9859W        W73583  11.716   4.289   0.917
 9860W        W73584  33.517  11.830  11.999
 9861W        W73585  23.188  40.039   1.877
 9862W        W73586  30.471  11.154  10.890
 9863W        W73587  16.199  12.316   0.799
 9864W        W73588  34.908  34.476  14.950
 9865W        W73589  35.537   5.198  11.877
 9866W        W73590  40.350  12.632  11.890
 9867W        W73591   1.932   4.810  11.057
 9868W        W73592  25.006   2.908   2.407
 9869W        W73593  20.085  21.654  13.380
 9870W        W73594  14.710  15.723   0.875
 9871W        W73595  42.363  18.267  13.518
 9872W        W73596  43.382  15.674  10.020
 9873W        W73597  11.144  27.475   3.210
 9874W        W73598   8.279  43.966  14.841
 9875W        W73599  31.978  38.535   4.245
 9876W        W73600  36.980  16.163  12.487
 9877W        W73601  13.176  15.685  13.400
 9878W        W73602  30.614  11.744  11.068
 9879W        W73603   9.652  21.570   3.196
 9880W        W73604  33.455  12.641   0.259
 9881W        W73605  18.569  28.000   4.282
 9882W        W73606   9.332  33.907  11.904
 9883W        W73607  35.442  33.504   0.862
 9884W        W73608  39.378   3.438  13.053
 9885W        W73609  16.574  24.714  11.127
 9886W        W73610  11.168   7.787  12.452
 9887W        W73611   4.315  36.066  11.020
 9888W        W73612   7.766  29.080   2.259
 9889W        W73613  19.144  25.666   2.338
 9890W        W73614  18.136   2.410   2.292
 9891W        W73615  14.613   8.251  13.856
 9892W        W73616   6.415  10.704  14.384
 9893W        W73617  14.669   0.397  11.611
 9894W        W73618  28.010  17.250   1.892
 9895W        W73619  44.392  40.902   1.219
 9896W        W73620  12.238   6.416   2.355
 9897W        W73621  33.123  34.996  13.527
 9898W        W73622  42.811   7.192  14.384
 9899W        W73623  26.657  30.637  11.044
 9900W        W73624   1.880  38.421  13.957
 9901W        W73625  32.933  42.813  13.957
 9902W        W73626  11.153  17.618   0.355
 9903W        W73627  20.766   7.902  14.793
 9904W        W73628  12.221   0.877   2.717
 9905W        W73629  18.168  23.650   2.693
 9906W        W73630   0.431   7.790  12.452
 9907W        W73631  19.075  22.639  12.850
 9908W        W73632  26.157   0.297   2.836
 9909W        W73633  44.900  18.739   3.182
 9910W        W73634  41.338  41.902  10.013
 9911W        W73635  39.379   9.204   1.399
 9912W        W73636  30.482  20.689  13.465
 9913W        W73637   0.465   3.797   2.402
 9914W        W73638  20.652  33.078   0.928
 9915W        W73639  20.661   8.828  11.884
 9916W        W73640  20.272  40.508   0.468
 9917W        W73641   8.741  24.690  14.299
 9918W        W73642  44.356  30.081  12.936
 9919W        W73643  44.847  21.746   3.648
 9920W        W73644  14.743   3.341   9.454
 9921W        W73645  23.210  41.953  12.534
 9922W        W73646   6.339  16.168  10.897
 9923W        W73647   3.732  32.578  11.867
 9924W        W73648  11.850  22.155  11.450
 9925W        W73649  36.396  35.108  12.828
 9926W        W73650  25.571  19.750  12.399
 9927W        W73651  31.109   5.727  12.400
 9928W        W73652  18.156   5.752   1.820
 9929W        W73653  23.992  17.708  12.386
 9930W        W73654  23.073  40.342   0.381
 9931W        W73655  33.912  38.396  10.990
 9932W        W73656  44.989  25.555   0.460
 9933W        W73657  38.854  35.087   2.413
 9934W        W73658  17.142   2.740   2.190
 9935W        W73659   1.308  15.088   0.838
 9936W        W73660  32.435  31.947  12.825
 9937W        W73661  28.167  16.289  10.469
 9938W        W73662   2.347  19.564   3.236
 9939W        W73663  40.025  41.511   2.866
 9940W        W73664  16.236  28.634   2.243
 9941W        W73665  29.457  22.637   1.886
 9942W        W73666   2.778   3.851   3.766
 9943W        W73667  44.865  37.947  12.984
 9944W        W73668  21.539  31.524   3.339
 9945W        W73669  42.780   5.337  14.415
 9946W        W73670  21.064   8.756   3.275
 9947W        W73671  16.662  18.081   2.348
 9948W        W73672  44.960   9.293   0.838
 9949W        W73673  29.986  21.217  14.008
 9950W        W73674  35.011  27.637   2.869
 9951W        W73675  13.813  20.757   2.728
 9952W        W73676  33.890  28.173  10.430
 9953W        W73677   9.854  14.199   0.322
 9954W        W73678  20.681  18.156  14.345
 9955W        W73679  29.640  27.575  14.773
 9956W        W73680   6.274   7.397   2.862
 9957W        W73681  42.394  18.247   0.368
 9958W        W73682  14.690   0.927  14.774
 9959W        W73683  42.299  33.498  10.586
 9960W        W73684  14.144  41.372   3.321
 9961W        W73685  33.492  44.807  11.607
 9962W        W73686  41.901  12.147  14.025
 9963W        W73687  16.694   1.811  11.520
 9964W        W73688   7.748  35.005   3.860
 9965W        W73689  30.473   4.248  13.843
 9966W        W73690  36.435  38.960   1.210
 9967W        W73691  10.796  31.411  13.372
 9968W        W73692  37.490   9.674  11.055
 9969W        W73693   7.246  36.385   4.227
 9970W        W73694  22.204  30.046   1.902
 9971W        W73695  39.524   2.722   2.742
 9972W        W73696  25.652   9.679  12.844
 9973W        W73697  33.439  22.188  10.556
 9974W        W73698  37.943  40.488  11.456
 9975W        W73699  28.555  12.342   1.304
 9976W        W73700  29.631  31.061   4.662
 9977W        W73701  39.957  22.108  14.958
 9978W        W73702  18.145  15.711  12.386
 9979W        W73703  39.856  35.052  11.876
 9980W        W73704  35.073  40.939   4.697
 9981W        W73705  24.504  40.333   4.719
 9982W        W73706  15.216  19.083  11.890
 9983W        W73707  42.915   7.781   0.873
 9984W        W73708  32.407  36.531  12.976
 9985W        W73709  26.202  16.601   3.763
 9986W        W73710  40.805   3.784   3.782
 9987W        W73711  44.265  13.122   5.247
 9988W        W73712  36.978  23.611  11.377
 9989W        W73713  25.192  19.582   2.841
 9990W        W73714   8.726  18.651   3.730
 9991W        W73715  20.117   0.415   4.288
 9992W        W73716  41.040  40.429  11.494
 9993W        W73717   8.194  40.376   2.223
 9994W        W73718  31.898  36.020   0.424
 9995W        W73719  13.139  24.561   2.201
 9996W        W73720  32.457  41.040  14.951
 9997W        W73721  38.570   7.896   4.305
 9998W        W73722  27.020  24.168   4.303
 9999W        W73723  18.276  22.725  12.424
10000W        W73724  12.243  19.214   1.826
10001W        W73725   4.363  26.187  14.918
10002W        W73726  13.346   6.319  13.970
10003W        W73727  18.268  19.156  11.569
10004W        W73728   4.356  20.247  13.965
10005W        W73729  25.657  36.543   2.189
10006W        W73730  17.296  16.805  10.620
10007W        W73731  33.616  20.144  14.831
10008W        W73732  41.839  14.597  12.858
10009W        W73733   8.331  10.250   0.965
10010W        W73734  36.022  15.241  13.870
10011W        W73735   9.881  38.069   0.379
10012W        W73736  35.422  44.817   0.340
10013W        W73737  10.150  17.265   5.120
10014W        W73738   8.234  37.540  14.934
10015W        W73739  36.394  28.120  11.071
10016W        W73740  13.611  26.601  10.449
10017W        W73741  10.811  10.337   3.787
10018W        W73742  34.056   7.812  12.509
10019W        W73743  21.663  42.336   1.332
10020W        W73744  18.284  42.020  13.411
10021W        W73745  18.666  21.585  14.996
10022W        W73746  42.339   3.446  12.522
10023W        W73747   7.707  44.430  13.453
10024W        W73748   0.266  41.492   4.714
10025W        W73749  16.125  44.466   3.756
10026W        W73750  28.655   8.848   2.716
10027W        W73751  22.689  10.671  13.356
10028W        W73752  43.468  10.341  10.922
10029W        W73753  10.322  37.554  11.055
10030W        W73754  10.684  16.115  14.849
10031W        W73755   5.279   2.855   2.900
10032W        W73756  42.979   3.405   1.412
10033W        W73757  24.545  27.066  10.555
10034W        W73758  32.142   7.675  11.052
10035W        W73759  11.719  29.092   1.358
10036W        W73760  11.694   0.251   1.233
10037W        W73761  18.218  25.022  14.994
10038W        W73762   0.306  30.054  13.512
10039W        W73763  13.221  21.083  13.057
10040W        W73764  10.824  36.976   4.128
10041W        W73765  28.503   9.390  11.516
10042W        W73766  17.070  26.078   0.286
10043W        W73767   4.424  40.853   4.724
10044W        W73768  33.498  33.922  11.968
10045W        W73769  33.467   1.420  13.429
10046W        W73770  19.564  17.065   4.824
10047W        W73771   4.707  15.320  12.861
10048W        W73772  44.788  32.627   2.188
10049W        W73773  25.710  15.097  12.355
10050W        W73774  31.091  15.239   3.680
10051W        W73775   1.765  41.894  13.827
10052W        W73776   7.235  12.744  10.443
10053W        W73777  16.268   3.215  10.956
10054W        W73778  11.864  42.400  11.023
10055W        W73779  22.682  34.922  13.000
10056W        W73780  32.068  42.463   0.467
10057W        W73781  10.147  21.150  12.366
10058W        W73782   4.875  32.123   1.426
10059W        W73783  27.154   9.162   0.461
10060W        W73784   1.351  16.801  11.873
10061W        W73785   6.407   2.259   2.794
10062W        W73786  31.093  40.951  14.032
10063W        W73787  28.067  40.026   4.804
10064W        W73788   2.329  19.245  14.759
10065W        W73789  14.164  26.642  11.987
10066W        W73790  21.685  13.751  12.043
10067W        W73791  34.433  37.867  13.340
10068W        W73792  30.047  41.337   4.165
10069W        W73793  18.061  26.546  10.582
10070W        W73794  33.072  14.592  13.840
10071W        W73795  24.143  40.365  13.469
10072W        W73796   6.721  24.986  10.450
10073W        W73797   9.358  44.989   0.786
10074W        W73798   5.751  32.419   2.771
10075W        W73799  39.480   5.804  14.498
10076W        W73800  44.914  17.654   4.156
10077W        W73801  29.039   6.825   4.725
10078W        W73802  41.849  36.429  13.330
10079W        W73803  34.402  35.401  11.441
10080W        W73804  39.839   5.328   2.859
10081W        W73805  10.648  29.654   1.712
10082W        W73806   3.832   8.743  11.471
10083W        W73807  35.604  36.426  12.913
10084W        W73808  28.575  37.086  11.442
10085W        W73809  33.986   1.878   4.242
10086W        W73810  23.646  41.015   3.670
10087W        W73811  15.294  32.129   0.331
10088W        W73812   5.283  44.981  11.442
10089W        W73813  33.920  19.540  13.533
10090W        W73814  41.870  15.752  11.024
10091W        W73815  23.108   8.695  12.425
10092W        W73816  17.106  14.334   9.971
10093W        W73817  17.734   5.838  11.095
10094W        W73818  27.972  40.948  12.939
10095W        W73819  43.773   5.781   0.825
10096W        W73820  35.924  38.373   0.857
10097W        W73821  18.718  24.144   5.251
10098W        W73822  44.854   9.796   1.222
10099W        W73823  14.303  13.746   1.436
10100W        W73824  42.888  20.054  10.490
10101W        W73825  39.322  32.970  12.857
10102W        W73826   4.709  37.446  12.424
10103W        W73827  26.470   2.869  13.871
10104W        W73828  36.418  34.607   0.861
10105W        W73829  23.586   8.301  13.546
10106W        W73830  21.061  36.411   0.807
10107W        W73831  14.771  43.972  10.534
10108W        W73832  34.968  42.784  11.582
10109W        W73833   7.723  21.538  10.620
10110W        W73834  30.522   7.709  12.946
10111W        W73835  24.658   6.773   4.628
10112W        W73836  29.472  13.340   0.412
10113W        W73837  26.958  37.871   1.799
10114W        W73838  33.548  44.425   3.770
10115W        W73839  44.421  44.813   3.210
10116W        W73840   8.385   7.828   0.948
10117W        W73841   0.898  43.923   0.886
10118W        W73842  44.438  30.920  11.453
10119W        W73843  15.182  38.971  10.515
10120W        W73844  20.572   0.475   3.723
10121W        W73845  27.465  41.973  14.419
10122W        W73846  28.554  44.476  11.419
10123W        W73847  26.635  23.659  14.352
10124W        W73848  28.612  22.638  13.446
10125W        W73849  36.426  34.051  14.418
10126W        W73850  17.188  14.785  12.559
10127W        W73851   1.391  42.945   0.868
10128W        W73852   8.855  26.586   1.867
10129W        W73853  21.625  32.456   2.787
10130W        W73854  22.019   0.941  13.925
10131W        W73855  28.008  10.280  13.036
10132W        W73856  40.521  32.981  11.083
10133W        W73857  35.384  21.516  10.945
10134W        W73858   1.308  42.381   1.306
10135W        W73859  15.299  38.330   3.254
10136W        W73860  42.830  21.226   1.405
10137W        W73861  28.058  32.514  11.054
10138W        W73862   2.769  13.195   2.346
10139W        W73863  18.193   1.797  13.896
10140W        W73864  11.198  44.417  11.894
10141W        W73865  19.117  17.617  12.526
10142W        W73866  24.720  10.727   3.739
10143W        W73867   1.879  30.546   4.330
10144W        W73868  10.873  30.963  13.970
10145W        W73869  34.955  20.258   0.380
10146W        W73870   1.344  19.101  10.612
10147W        W73871   0.887  11.822  14.898
10148W        W73872  24.061  15.762   3.683
10149W        W73873  41.033  12.228  13.475
10150W        W73874  34.571  39.341   4.276
10151W        W73875  30.437  43.862  13.380
10152W        W73876  36.866  10.270  12.418
10153W        W73877  44.384   9.887  11.925
10154W        W73878  32.606  21.027   3.146
10155W        W73879  35.513  29.662   3.347
10156W        W73880  42.864  40.323   0.423
10157W        W73881   3.368  33.909   4.295
10158W        W73882  17.603  13.133   2.802
10159W        W73883  10.720  13.730  11.474
10160W        W73884  36.031  29.111   3.247
10161W        W73885  18.787  43.511  13.950
10162W        W73886  43.866  23.623   1.913
10163W        W73887  44.941  15.226  10.586
10164W        W73888   1.266  27.473   0.759
10165W        W73889  44.278  18.270   4.790
10166W        W73890  32.961  18.619  11.458
10167W        W73891  29.551  29.534   3.630
10168W        W73892  35.458  32.928  13.524
10169W        W73893   7.865  43.830   3.640
10170W        W73894  10.693  15.767  12.921
10171W        W73895  24.181   6.908  11.038
10172W        W73896   3.356   3.735  11.041
10173W        W73897  22.221   5.345  14.853
10174W        W73898  28.128   0.416   1.759
10175W        W73899  25.082  31.993   4.772
10176W        W73900  20.558  41.001   4.800
10177W        W73901   6.783  28.030  10.526
10178W        W73902  29.079  18.703   1.773
10179W        W73903  10.252  31.148  11.893
10180W        W73904  17.557  15.220  12.495
10181W        W73905   5.853  44.988   4.210
10182W        W73906  30.120  23.199   1.393
10183W        W73907  11.835   4.758   2.843
10184W        W73908  25.696  34.397   1.299
10185W        W73909  39.920  41.462   4.124
10186W        W73910  22.532  24.490   2.352
10187W        W73911  39.317  36.535   1.450
10188W        W73912  29.942  40.991   0.358
10189W        W73913  33.039   0.262   1.323
10190W        W73914  10.141  17.615  14.320
10191W        W73915  33.423  41.973  13.886
10192W        W73916  25.069  18.743   2.247
10193W        W73917  10.718  13.244   0.747
10194W        W73918  35.524  28.020   2.850
10195W        W73919  30.027   6.396   4.698
10196W        W73920  30.615   7.231  13.486
10197W        W73921   2.888   2.300  12.947
10198W        W73922   1.734   7.671  13.853
10199W        W73923  18.632  32.979  10.530
10200W        W73924  43.803   8.378   1.425
10201W        W73925  33.893  40.887   0.804
10202W        W73926  27.176  10.708   0.781
10203W        W73927  24.040  13.254   0.336
10204W        W73928  35.379  25.651  11.034
10205W        W73929  38.413  35.508   3.340
10206W        W73930   1.322  22.998   3.277
10207W        W73931  10.705  32.496   3.152
10208W        W73932  28.460  33.429   0.456
10209W        W73933  17.135  40.919   3.862
10210W        W73934   0.394  11.365   2.237
10211W        W73935  31.546  16.187  10.559
10212W        W73936  10.384  38.403  11.555
10213W        W73937  44.851  25.061  12.926
10214W        W73938  14.649  13.614   0.319
10215W        W73939  30.921  28.984  12.057
10216W        W73940  18.241  16.749   3.730
10217W        W73941  32.104   7.762  12.578
10218W        W73942  13.617  44.355  10.994
10219W        W73943   5.723  14.267  13.995
10220W        W73944  14.214  14.143   4.609
10221W        W73945  40.887  22.601  11.611
10222W        W73946  40.400  31.464  12.021
10223W        W73947  20.029  13.684  14.310
10224W        W73948  18.186  14.245   3.323
10225W        W73949  40.538  31.441  13.866
10226W        W73950  31.989  29.002   3.179
10227W        W73951   5.721  31.911  13.825
10228W        W73952   0.932   0.885  10.421
10229W        W73953  25.053  31.020   3.678
10230W        W73954  44.002  17.268   2.239
10231W        W73955  31.645   1.248  13.940
10232W        W73956  17.293  21.147  10.558
10233W        W73957   4.853   8.857   2.237
10234W        W73958  30.043  35.868   1.710
10235W        W73959  40.037  36.477  13.818
10236W        W73960  19.743  32.060   4.800
10237W        W73961  19.772  11.690   0.251
10238W        W73962  37.087  14.729  14.025
10239W        W73963   6.700   9.652  14.893
10240W        W73964  16.695   8.348  14.947
10241W        W73965  39.390   6.732   0.451
10242W        W73966  21.179  17.208  11.569
10243W        W73967  35.088  36.434  14.920
10244W        W73968  22.597  38.992   1.331
10245W        W73969  43.463  15.579   0.782
10246W        W73970  36.453  29.611  13.315
10247W        W73971  18.563  29.060  13.963
10248W        W73972  41.890   9.750  11.560
10249W        W73973  18.562   9.390  11.047
10250W        W73974   0.909   7.665  13.449
10251W        W73975  18.677  11.206  11.570
10252W        W73976   4.243  11.854  10.603
10253W        W73977   4.789   2.441  14.823
10254W        W73978   7.335  28.439   1.375
10255W        W73979  13.618  25.518   0.942
10256W        W73980  37.392   6.850  13.931
10257W        W73981  27.593  37.936  13.994
10258W        W73982  11.238  13.676   1.837
10259W        W73983   1.410  26.554  10.040
10260W        W73984  37.492   4.307   0.456
10261W        W73985  44.313  31.606  10.542
10262W        W73986   7.824   7.257   0.920
10263W        W73987  31.917  34.524   4.631
10264W        W73988   7.885   3.235   2.758
10265W        W73989  26.668  24.150   2.265
10266W        W73990   4.874  17.284   1.880
10267W        W73991  36.873  20.248  10.913
10268W        W73992  38.822  41.353  10.631
10269W        W73993  29.521  36.589   2.896
10270W        W73994  31.978  41.995  12.443
10271W        W73995  36.459  12.224  13.052
10272W        W73996  35.955  43.987   0.386
10273W        W73997  19.545  15.753  13.352
10274W        W73998  39.881  16.747  14.841
10275W        W73999  38.434  24.217   3.698
10276W        W74000  31.431   1.890  10.997
10277W        W74001   9.320  36.043  13.943
10278W        W74002   6.398  12.837  14.883
10279W        W74003   7.343   8.362  11.067
10280W        W74004  19.260  27.633  13.451
10281W        W74005  29.133   0.767   1.740
10282W        W74006  21.537   2.791   2.232
10283W        W74007   4.263  15.638   1.397
10284W        W74008  15.128   9.772  13.988
10285W        W74009  19.237  27.965  10.947
10286W        W74010  21.582  36.018   0.901
10287W        W74011  31.025  26.620   4.137
10288W        W74012  43.881   4.263   4.283
10289W        W74013  16.789  21.703  14.992
10290W        W74014   6.796   3.839   1.229
10291W        W74015  34.873   9.824   2.877
10292W        W74016  25.670  34.097   4.134
10293W        W74017  29.492  28.112  11.047
10294W        W74018  12.224   2.347  14.466
10295W        W74019  11.622  13.737   0.277
10296W        W74020  18.752  26.005   4.676
10297W        W74021  44.767  41.798   0.358
10298W        W74022  15.186   3.795  11.446
10299W        W74023  21.168  34.024   0.883
10300W        W74024  18.236   2.424   3.669
10301W        W74025  20.564  41.981   4.791
10302W        W74026   5.343   6.343   3.346
10303W        W74027  30.447  34.408   3.348
10304W        W74028  31.028  37.423   0.418
10305W        W74029  29.117  33.486  11.464
10306W        W74030  16.079  23.634   4.153
10307W        W74031   3.871  36.443  12.515
10308W        W74032  16.152   3.762   2.273
10309W        W74033   7.192  19.266   4.634
10310W        W74034  29.064  43.480  14.317
10311W        W74035  41.824  44.796  13.935
10312W        W74036  36.841  33.443   2.872
10313W        W74037  16.267   6.392   1.900
10314W        W74038  26.053  20.744   2.180
10315W        W74039  27.099  16.682   3.683
10316W        W74040  37.419   3.231   3.791
10317W        W74041  11.746  42.775   0.754
10318W        W74042  32.067  23.134  10.423
10319W        W74043  10.282  26.122  11.456
10320W        W74044  26.658  18.656   1.722
10321W        W74045   0.477  32.094  12.095
10322W        W74046  28.940  20.158   4.746
10323W        W74047  20.219  12.237   9.611
10324W        W74048  15.110  36.912   3.218
10325W        W74049  27.574  31.097  11.034
10326W        W74050   8.656  10.265   2.323
10327W        W74051  29.507  13.201   3.822
10328W        W74052   3.318  14.137   2.297
10329W        W74053  33.455  29.592  11.028
10330W        W74054  29.044  21.596   3.329
10331W        W74055  39.380  27.010   3.674
10332W        W74056  34.391   1.893   3.303
10333W        W74057  18.226  31.426   4.627
10334W        W74058   8.196  30.632   2.190
10335W        W74059  16.096   3.768   0.760
10336W        W74060   4.258   6.252   3.832
10337W        W74061   6.917   8.270   1.376
10338W        W74062   3.403  39.811  13.419
10339W        W74063  24.595   6.330   1.300
10340W        W74064  39.813  33.577  13.895
10341W        W74065   8.228   9.727   3.352
10342W        W74066  15.105  38.329   4.349
10343W        W74067  31.035   5.751  11.586
10344W        W74068  17.209  26.184   2.676
10345W        W74069   1.849  36.905  12.018
10346W        W74070  41.932  41.421  10.484
10347W        W74071  31.489   7.769   3.761
10348W        W74072  30.134  21.212  11.449
10349W        W74073  33.034  31.006   2.741
10350W        W74074  44.371  26.995   0.747
10351W        W74075  17.773  17.782   4.672
10352W        W74076  18.225   1.275   1.822
10353W        W74077   4.769  37.002   0.431
10354W        W74078  30.036  23.501  10.526
10355W        W74079  13.127   5.801   3.152
10356W        W74080  11.682  41.434  13.825
10357W        W74081  36.844  32.598   1.882
10358W        W74082   8.184  24.629   1.387
10359W        W74083  26.007  43.443   3.236
10360W        W74084  23.646   5.718   1.735
10361W        W74085  18.156  44.491  11.012
10362W        W74086   6.792  30.114  14.461
10363W        W74087  40.431   0.946   3.333
10364W        W74088  25.676  32.602   3.751
10365W        W74089  11.629  28.661   1.912
10366W        W74090  16.096  32.409  13.320
10367W        W74091  20.154   7.174  14.515
10368W        W74092  27.513  27.128  13.492
10369W        W74093  15.581  36.918  12.095
10370W        W74094   6.799  27.035   3.365
10371W        W74095  31.543  26.181   0.881
10372W        W74096  10.756  15.579  13.359
10373W        W74097  24.202  14.256   2.406
10374W        W74098  24.560   7.348   9.996
10375W        W74099   6.726   7.335   0.431
10376W        W74100   6.197  23.173  14.894
10377W        W74101   4.844  19.090  13.867
10378W        W74102   5.895   4.881  13.431
10379W        W74103  41.911  27.035   3.234
10380W        W74104  36.857  15.110  10.990
10381W        W74105  20.266  11.832  13.892
10382W        W74106  13.778  40.535  12.529
10383W        W74107  24.667  31.933  13.910
10384W        W74108   0.425  21.221   2.368
10385W        W74109   0.435  14.792  13.933
10386W        W74110  13.638   7.819   0.300
10387W        W74111  33.490  14.195  12.942
10388W        W74112  40.402  26.164  11.882
10389W        W74113  37.969  34.957   2.301
10390W        W74114  13.801  15.281  10.622
10391W        W74115  40.030  13.653  11.914
10392W        W74116  29.007  11.328   1.338
10393W        W74117  25.574  23.530  10.413
10394W        W74118  36.452   9.888   3.160
10395W        W74119  34.392   9.865   4.786
10396W        W74120  22.610  25.146   5.204
10397W        W74121  11.234  23.647   1.380
10398W        W74122  18.584   6.709  13.326
10399W        W74123  42.449  24.499  10.893
10400W        W74124  13.790   6.760   1.827
10401W        W74125   3.755  20.690  11.485
10402W        W74126  11.636  31.995  14.472
10403W        W74127  29.944  12.182  12.548
10404W        W74128  27.507  29.931   2.748
10405W        W74129  30.573  21.741  10.491
10406W        W74130  25.106  26.678   4.163
10407W        W74131  40.453  26.171   0.246
10408W        W74132   0.816  43.930  11.920
10409W        W74133  40.325   2.822  11.914
10410W        W74134  12.252  42.396  10.995
10411W        W74135  30.420  33.415  11.507
10412W        W74136  13.623  18.069   2.376
10413W        W74137   7.346  33.901   2.378
10414W        W74138   4.756  41.936   2.824
10415W        W74139  13.127  38.017   4.329
10416W        W74140  41.875  16.224  13.883
10417W        W74141  34.060  30.161   2.295
10418W        W74142  25.514  24.015  13.849
10419W        W74143  33.018  33.480   1.725
10420W        W74144   4.360  27.963  12.880
10421W        W74145  39.357  44.854  12.097
10422W        W74146  21.618   2.262   0.794
10423W        W74147  19.175   9.804   2.782
10424W        W74148  11.136  18.651   1.878
10425W        W74149   9.760   3.763  14.502
10426W        W74150  28.660   4.418  14.859
10427W        W74151  22.614  31.648  10.002
10428W        W74152   7.830  22.080  13.006
10429W        W74153  29.087  44.979  11.029
10430W        W74154  35.480  41.863   0.906
10431W        W74155  14.658  36.088   4.158
10432W        W74156   1.451   2.228   1.219
10433W        W74157  42.421  36.924  14.940
10434W        W74158   0.469  23.545   1.275
10435W        W74159  33.041  18.750   2.267
10436W        W74160  23.195  39.033  12.059
10437W        W74161  14.291   0.338   0.802
10438W        W74162  16.301  16.099  11.016
10439W        W74163  39.459  41.309   0.753
10440W        W74164  13.685  37.030   4.159
10441W        W74165  34.077  44.487  11.114
10442W        W74166  13.737  12.284  13.059
10443W        W74167  29.473   5.787  11.956
10444W        W74168  17.294  42.940   2.887
10445W        W74169  39.485  30.063  10.928
10446W        W74170  11.703  40.956  12.830
10447W        W74171  36.851  24.697   0.265
10448W        W74172  26.999  17.647   2.301
10449W        W74173  21.252   0.749   4.761
10450W        W74174  37.989   0.930  11.543
10451W        W74175  16.587  22.143   3.804
10452W        W74176   9.830  40.849  10.503
10453W        W74177  28.520  21.199  10.938
10454W        W74178  18.112  32.440   0.242
10455W        W74179  12.762  24.064  10.971
10456W        W74180  16.235  26.099   1.390
10457W        W74181   7.864  38.829  11.035
10458W        W74182   7.395   5.815   0.246
10459W        W74183   1.793  18.732   4.636
10460W        W74184  25.973  16.629  14.918
10461W        W74185   9.264  32.439   0.843
10462W        W74186  17.115  22.033  14.459
10463W        W74187  13.724   9.308  13.802
10464W        W74188   4.796  24.117  10.440
10465W        W74189  17.130   3.243   3.686
10466W        W74190  42.455  29.120  13.938
10467W        W74191  25.547  28.083  13.387
10468W        W74192  32.606  28.183  12.951
10469W        W74193  13.733  31.535   0.791
10470W        W74194  36.003  23.099  14.023
10471W        W74195   2.902  26.561  11.043
10472W        W74196  26.162  17.154   4.319
10473W        W74197  38.393  20.569   2.272
10474W        W74198   0.751   7.228   9.998
10475W        W74199   4.398  28.602   4.294
10476W        W74200  11.818  35.545   2.340
10477W        W74201   0.461  34.437   1.792
10478W        W74202  17.082  32.588  10.538
10479W        W74203  12.720  35.031   1.449
10480W        W74204  39.329   6.809  11.444
10481W        W74205  12.244   5.204   4.676
10482W        W74206  40.441   9.831  13.963
10483W        W74207  38.053  36.413  12.426
10484W        W74208  23.675  30.087   4.135
10485W        W74209  17.170   4.821  10.129
10486W        W74210  41.886  14.136   3.181
10487W        W74211   8.695  40.892  13.358
10488W        W74212  36.452   4.877   0.286
10489W        W74213  31.090   9.243   2.321
10490W        W74214  15.630  24.656  14.403
10491W        W74215  16.266  33.541  12.997
10492W        W74216  23.170   5.389   3.866
10493W        W74217   7.727  37.571  13.920
10494W        W74218   4.383  17.660   1.295
10495W        W74219   5.430  23.111   2.252
10496W        W74220  34.467  18.707  12.878
10497W        W74221  24.691  38.940  11.474
10498W        W74222  41.962  28.946   0.875
10499W        W74223   7.375  18.270  14.836
10500W        W74224  29.453  31.548   2.755
10501W        W74225  17.156  25.551  10.091
10502W        W74226  36.972   9.216  11.405
10503W        W74227  22.602   0.831  10.625
10504W        W74228  35.543  36.955   3.313
10505W        W74229  42.455  20.195   2.871
10506W        W74230   3.923  25.541  14.974
10507W        W74231   1.386  34.102  12.340
10508W        W74232  16.627  24.044   4.252
10509W        W74233   0.445  19.116   1.260
10510W        W74234   3.928   3.766  11.902
10511W        W74235  11.729  18.085   2.786
10512W        W74236  30.085  20.564   1.737
10513W        W74237  12.716  16.271  13.345
10514W        W74238  39.380  32.075  14.762
10515W        W74239  38.392  31.132   3.856
10516W        W74240  34.976  40.425   2.829
10517W        W74241   8.210   4.701   0.348
10518W        W74242  27.554  32.061  11.511
10519W        W74243  29.074  32.576   0.383
10520W        W74244   9.216  24.560  13.475
10521W        W74245  32.456  39.972  14.378
10522W        W74246  17.276  43.479   4.193
10523W        W74247  35.600  31.148  14.016
10524W        W74248  14.140  23.226   1.858
10525W        W74249  22.613   2.339  12.539
10526W        W74250  24.217   3.317   1.886
10527W        W74251  37.425  19.269   0.788
10528W        W74252  37.370  23.223  11.915
10529W        W74253   3.223  11.171  10.049
10530W        W74254   4.828  10.223  13.977
10531W        W74255  12.228  22.016  11.053
10532W        W74256   1.457   2.816   4.803
10533W        W74257   4.699   4.762  11.506
10534W        W74258  14.212  13.300  13.962
10535W        W74259   3.265   6.780  11.428
10536W        W74260   4.432  26.191   3.674
10537W        W74261  26.095  31.951   0.426
10538W        W74262  22.706  22.240   1.443
10539W        W74263   7.286  13.628  13.366
10540W        W74264  35.982  19.215  10.598
10541W        W74265  27.499  10.778   3.745
10542W        W74266  10.791  24.505   1.930
10543W        W74267   2.454  28.051  12.078
10544W        W74268   7.318  43.299   2.854
10545W        W74269  29.553  15.279   0.835
10546W        W74270   0.755  18.598  14.278
10547W        W74271  28.651  31.972  13.912
10548W        W74272  20.068  22.140  12.525
10549W        W74273  21.176  11.327  11.517
10550W        W74274   6.716  16.122   2.405
10551W        W74275  30.129  30.012   1.429
10552W        W74276   9.368  10.681  13.466
10553W        W74277   3.364   9.814  10.428
10554W        W74278  18.094  35.088   3.309
10555W        W74279  18.625   2.463  14.770
10556W        W74280  32.977  20.034  14.433
10557W        W74281  41.904  26.490  12.966
10558W        W74282  31.606  37.900  10.933
10559W        W74283  26.209  26.134   2.382
10560W        W74284  29.103  32.088   2.700
10561W        W74285  42.019  12.732  14.326
10562W        W74286   0.388  31.467   2.248
10563W        W74287  10.721   6.237  13.054
10564W        W74288  27.054   8.328   2.371
10565W        W74289   8.900  33.542   3.152
10566W        W74290  37.085  17.082  14.863
10567W        W74291  24.676   2.899  11.091
10568W        W74292  16.790  26.971   1.791
10569W        W74293   0.907  30.549  13.962
10570W        W74294  41.410   0.746  10.945
10571W        W74295   3.233  12.853  13.997
10572W        W74296   0.290  24.681  13.330
10573W        W74297  38.867  11.632  10.517
10574W        W74298  35.080  12.300   9.973
10575W        W74299  11.639  39.522  14.772
10576W        W74300  10.270  22.650   4.117
10577W        W74301   9.186   1.939  13.026
10578W        W74302  25.478  20.590  12.824
10579W        W74303  19.173   9.203  13.426
10580W        W74304  27.685  10.652   2.180
10581W        W74305  11.205  37.027   1.864
10582W        W74306  40.799  26.960  10.968
10583W        W74307  12.146  30.649  12.390
10584W        W74308  32.445  40.029   2.270
10585W        W74309  42.877  11.764   1.302
10586W        W74310  10.853  18.108  14.348
10587W        W74311  20.575  22.666  13.464
10588W        W74312  13.626   4.235  12.984
10589W        W74313  39.820  16.723  10.544
10590W        W74314   6.780  19.120   3.285
10591W        W74315  21.148  11.347  10.985
10592W        W74316   4.749  17.237   5.143
10593W        W74317  32.635  31.040   2.897
10594W        W74318   0.429   4.410  13.527
10595W        W74319  44.504  23.549  11.012
10596W        W74320  14.749  19.173   0.946
10597W        W74321  40.994  38.050   9.609
10598W        W74322   8.731  28.503   2.300
10599W        W74323   0.830   9.348   1.764
10600W        W74324  17.224  22.506   1.430
10601W        W74325  31.460  25.194  12.950
10602W        W74326  37.874  14.336  11.456
10603W        W74327  34.438  23.027  11.572
10604W        W74328   7.247  10.360  10.080
10605W        W74329  44.944  27.082  13.955
10606W        W74330  39.827  18.106  10.630
10607W        W74331  27.463  38.825   2.269
10608W        W74332   8.345  17.776  12.942
10609W        W74333  29.107  38.475   2.780
10610W        W74334   3.874  24.595  10.453
10611W        W74335  43.424   5.782  12.065
10612W        W74336  29.537  26.549   3.641
10613W        W74337   8.759  26.470  13.918
10614W        W74338  31.466  25.033   1.728
10615W        W74339   7.271  28.991   3.630
10616W        W74340   9.325  20.642   1.437
10617W        W74341  35.975  31.122   2.673
10618W        W74342  32.101  11.863   4.121
10619W        W74343  27.583   0.850  12.888
10620W        W74344   2.757  36.071  13.537
10621W        W74345  23.031  38.958   4.147
10622W        W74346   6.315  34.021   3.371
10623W        W74347  40.333  39.919   4.166
10624W        W74348  19.683  24.555   1.443
10625W        W74349  20.757   3.392  14.978
10626W        W74350  25.192  25.080   4.317
10627W        W74351  34.999  36.513  13.430
10628W        W74352  12.703  25.074  14.804
10629W        W74353  39.937  27.186  10.466
10630W        W74354  25.612  41.864   3.204
10631W        W74355  11.628  16.303   3.256
10632W        W74356   3.381  19.577   0.826
10633W        W74357  38.554  13.227   0.959
10634W        W74358  28.493   0.902  13.483
10635W        W74359  25.712  21.535  13.895
10636W        W74360  34.108  37.087  14.444
10637W        W74361  39.887  44.387   4.248
10638W        W74362  37.915  25.648  10.641
10639W        W74363  19.079  38.906  11.110
10640W        W74364  24.066  17.102   0.911
10641W        W74365  24.689  20.533  11.429
10642W        W74366  33.573  25.989   4.159
10643W        W74367   2.361  12.781   1.812
10644W        W74368  19.652  15.229  11.381
10645W        W74369  18.253  42.977  10.047
10646W        W74370  31.982  10.677  12.397
10647W        W74371  24.180  19.635   2.237
10648W        W74372  17.593  32.089   3.734
10649W        W74373  10.355  30.658  10.424
10650W        W74374  27.478  23.620   2.283
10651W        W74375  41.787  19.556  13.818
10652W        W74376  14.773  40.394  13.394
10653W        W74377  34.023  40.824  14.921
10654W        W74378   4.720  26.028  12.533
10655W        W74379  42.454  41.456  11.447
10656W        W74380  43.439  14.620   0.323
10657W        W74381  36.588  40.052  11.458
10658W        W74382  40.901   0.431  12.521
10659W        W74383   6.351  12.183   1.721
10660W        W74384  31.520  24.988  11.406
10661W        W74385  41.460   8.203   1.781
10662W        W74386  22.103   5.808  12.525
10663W        W74387  26.682   0.942   1.334
10664W        W74388  20.647  26.951   0.945
10665W        W74389  38.560  21.144   2.681
10666W        W74390  12.666  35.070   3.164
10667W        W74391  27.606   7.740   1.872
10668W        W74392  24.060  19.112  12.489
10669W        W74393  30.137  35.016   0.292
10670W        W74394  20.162  10.316   0.474
10671W        W74395   2.845  27.156   1.750
10672W        W74396  12.211  11.819  11.421
10673W        W74397  42.321  32.070   3.166
10674W        W74398  19.739  31.003   4.245
10675W        W74399  38.008  37.505  12.368
10676W        W74400  21.162   7.683   2.671
10677W        W74401  21.162   3.234   9.937
10678W        W74402   4.727  27.149   4.173
10679W        W74403  23.667  24.485   3.866
10680W        W74404   0.949   0.845  14.376
10681W        W74405   6.763  37.387   3.194
10682W        W74406  31.032  44.872  10.514
10683W        W74407  28.154  43.995   4.768
10684W        W74408  32.446  32.987  14.397
10685W        W74409  18.168  40.324   3.352
10686W        W74410   4.282  26.563   3.837
10687W        W74411  12.302   8.332   1.778
10688W        W74412  44.982  38.514  14.951
10689W        W74413  39.041  22.637  10.444
10690W        W74414  31.572   4.740  14.336
10691W        W74415   8.835  30.627   4.739
10692W        W74416  44.305  29.424   5.277
10693W        W74417  31.993  27.481  12.831
10694W        W74418  24.010  15.315  11.124
10695W        W74419  39.892   3.248  11.056
10696W        W74420  24.714   1.238   3.761
10697W        W74421  11.651   4.426   1.888
10698W        W74422  39.536  40.508  14.410
10699W        W74423  23.605  22.509   3.321
10700W        W74424  35.857  18.716  11.550
10701W        W74425   8.690  15.113  13.446
10702W        W74426  14.107  31.137  13.444
10703W        W74427  33.073  21.617  14.935
10704W        W74428  34.869   4.415   3.696
10705W        W74429  33.991  41.827   2.239
10706W        W74430  23.571  26.118   2.699
10707W        W74431   1.388  38.943   0.814
10708W        W74432  14.122  36.593   3.240
10709W        W74433   9.324   6.331   3.734
10710W        W74434  32.098  26.565   2.200
10711W        W74435  29.975  34.093   2.858
10712W        W74436  33.010  29.927   2.834
10713W        W74437  24.703  31.621   2.662
10714W        W74438   5.230  40.321   4.695
10715W        W74439  19.551  22.683   5.311
10716W        W74440  44.000  41.830  12.536
10717W        W74441  38.523  34.916  13.377
10718W        W74442  20.154   9.765   2.277
10719W        W74443  21.707  40.923   3.315
10720W        W74444  35.080  39.314  11.495
10721W        W74445  28.034   4.380   3.316
10722W        W74446  10.276  28.602   0.767
10723W        W74447  12.270  22.238   3.785
10724W        W74448  10.353   8.236   0.277
10725W        W74449  16.274  41.922  13.500
10726W        W74450  37.565   4.795   3.799
10727W        W74451  35.468  39.822  10.975
10728W        W74452  35.522  12.689   1.712
10729W        W74453  36.535   5.719   0.736
10730W        W74454  17.132  25.166   5.222
10731W        W74455  20.230  26.000  13.323
10732W        W74456  12.356  16.638   3.725
10733W        W74457  43.413  42.875  13.539
10734W        W74458  29.128  15.701   2.380
10735W        W74459  31.499   0.957   4.301
10736W        W74460   8.365  18.127   4.796
10737W        W74461  34.391  19.215  11.520
10738W        W74462   3.359  44.465   2.762
10739W        W74463  26.539  24.143  11.443
10740W        W74464  38.367  31.540   0.959
10741W        W74465  12.127  27.092   1.358
10742W        W74466  37.843  22.531   0.792
10743W        W74467  22.686  16.691   1.870
10744W        W74468  40.894  23.044  11.955
10745W        W74469  20.638  20.766  10.467
10746W        W74470  38.958  27.179  13.464
10747W        W74471  24.486  33.564   1.742
10748W        W74472  35.867  42.899  13.509
10749W        W74473  25.013   3.321   2.339
10750W        W74474   5.436  12.780   4.273
10751W        W74475  21.132  33.416   2.183
10752W        W74476  11.821  21.720  13.435
10753W        W74477  27.513   5.690  12.540
10754W        W74478  41.988  31.516   1.892
10755W        W74479   5.247  26.150   4.822
10756W        W74480  29.979  18.660   4.250
10757W        W74481   9.190  37.539   2.281
10758W        W74482  41.400  40.904   2.408
10759W        W74483   7.339  17.748   3.158
10760W        W74484  31.554   5.264   4.346
10761W        W74485  32.508  25.092  14.969
10762W        W74486   0.835   3.435   2.325
10763W        W74487  38.011  34.402   2.358
10764W        W74488  25.211   5.839   3.807
10765W        W74489  40.012  39.062   4.236
10766W        W74490  44.359  10.344  10.043
10767W        W74491   0.299  27.184  10.934
10768W        W74492  28.949  18.633   3.870
10769W        W74493  43.951  20.647   1.219
10770W        W74494  12.133  43.918  10.436
10771W        W74495   1.806  44.265  12.961
10772W        W74496  30.098  14.221  12.977
10773W        W74497   0.789  15.265  12.350
10774W        W74498  14.299  36.904   4.788
10775W        W74499  32.536  20.602  11.954
10776W        W74500   4.297  11.149  10.645
10777W        W74501  10.654   0.808   3.658
10778W        W74502  37.420   8.879   0.247
10779W        W74503  24.597   3.778  14.960
10780W        W74504  26.027   7.312   0.385
10781W        W74505  42.918   8.732  12.902
10782W        W74506   7.364  38.354   2.685
10783W        W74507  14.639   2.846  10.576
10784W        W74508  19.709  20.593  11.510
10785W        W74509   8.729  14.648  12.375
10786W        W74510  30.637  26.526  14.931
10787W        W74511   3.430  43.270  10.436
10788W        W74512   1.254  39.049   0.388
10789W        W74513  37.867  16.238  14.909
10790W        W74514  13.694  40.821  14.972
10791W        W74515  17.570   8.395   0.392
10792W        W74516  10.251  13.682   2.758
10793W        W74517   2.454  43.515   0.244
10794W        W74518  36.897  28.630   3.152
10795W        W74519  36.947  12.809   4.758
10796W        W74520  14.316  28.463  11.465
10797W        W74521  39.861   7.326   3.165
10798W        W74522  18.761  25.045   1.447
10799W        W74523  44.896  40.979  10.610
10800W        W74524  39.529  33.409   1.403
10801W        W74525  34.416  38.008   3.210
10802W        W74526  20.167  35.432  11.120
10803W        W74527  33.934  14.200  14.455
10804W        W74528   1.946  26.130  14.449
10805W        W74529   8.839  37.497   1.715
10806W        W74530  19.619   2.967   2.412
10807W        W74531  21.588   2.872   1.215
10808W        W74532  37.534   6.333   2.353
10809W        W74533  31.068  11.756  10.942
10810W        W74534   5.314  12.709  13.821
10811W        W74535  30.623  30.613  11.928
10812W        W74536  44.462  37.368  11.858
10813W        W74537  36.987  40.472  11.593
10814W        W74538  27.529   0.253   3.812
10815W        W74539  13.661   8.334  11.429
10816W        W74540  21.613  36.409  10.557
10817W        W74541   5.341  41.466  10.598
10818W        W74542  15.588  12.311   3.718
10819W        W74543  30.595  18.784  13.975
10820W        W74544  38.399   0.773  14.352
10821W        W74545  17.124  30.462   9.975
10822W        W74546   9.192  20.252  13.045
10823W        W74547  22.222   6.767  11.532
10824W        W74548  23.202   4.223   3.777
10825W        W74549   4.907  22.518  11.546
10826W        W74550   0.489  22.076  14.494
10827W        W74551  20.071  23.096   2.178
10828W        W74552  44.007   7.274  14.991
10829W        W74553  32.431  27.558   3.284
10830W        W74554  25.190  17.092   4.602
10831W        W74555   1.306  38.396   4.751
10832W        W74556   6.893  41.909   3.672
10833W        W74557  11.184  23.065   3.759
10834W        W74558  16.636  39.488  10.404
10835W        W74559  43.871  43.006  12.038
10836W        W74560   4.854  29.944  12.087
10837W        W74561  26.532   0.948   5.238
10838W        W74562   5.796  30.947   3.362
10839W        W74563  40.306   4.408  12.567
10840W        W74564  22.741  13.276  12.411
10841W        W74565  26.139  29.576   9.509
10842W        W74566  13.794  24.510  13.825
10843W        W74567  17.763  12.719   2.356
10844W        W74568   3.858  10.791  14.448
10845W        W74569   8.304  31.444  10.589
10846W        W74570  37.453   2.409  11.569
10847W        W74571   3.800  24.630   1.314
10848W        W74572   2.437   6.335   4.155
10849W        W74573  25.640   4.766  12.444
10850W        W74574  14.602  24.511   4.821
10851W        W74575  10.747  33.592  12.919
10852W        W74576  25.146  24.977  13.498
10853W        W74577  35.413  22.195   1.863
10854W        W74578  12.180   5.280   2.418
10855W        W74579  24.153  33.983   1.363
10856W        W74580  36.527  36.079  10.590
10857W        W74581   5.751   3.935   2.252
10858W        W74582  44.972  13.619  13.822
10859W        W74583  37.523  33.055  11.049
10860W        W74584  18.121  39.529   0.786
10861W        W74585  25.491   4.248   0.273
10862W        W74586  24.510  22.509  10.918
10863W        W74587  40.435  28.963  11.029
10864W        W74588  10.815  43.350  10.444
10865W        W74589  21.150  25.691   2.332
10866W        W74590  22.113  42.840  11.994
10867W        W74591  41.026  15.819   5.276
10868W        W74592  30.125  17.207  11.902
10869W        W74593  31.073   3.424   0.880
10870W        W74594   2.342  17.698   1.700
10871W        W74595  14.729   5.216   3.723
10872W        W74596  20.670  32.986  11.965
10873W        W74597   6.785   9.743  14.496
10874W        W74598   8.374  17.069  14.438
10875W        W74599  28.498  31.580  14.798
10876W        W74600  19.562  23.731   1.786
10877W        W74601  35.567  40.841   1.417
10878W        W74602  39.907  14.641   3.307
10879W        W74603  33.089  23.628   3.646
10880W        W74604  44.327  39.040  10.081
10881W        W74605  19.544  43.272   0.425
10882W        W74606   5.284  41.511   2.791
10883W        W74607  19.226   9.864   3.704
10884W        W74608  44.824   2.278   3.640
10885W        W74609  33.026   7.898   2.262
10886W        W74610   1.406  42.807  13.054
10887W        W74611  13.226   2.805   4.221
10888W        W74612  31.447  23.578   3.679
10889W        W74613  42.889   8.405  14.006
10890W        W74614  16.234   4.738   2.412
10891W        W74615   9.887  42.402  13.976
10892W        W74616   7.719  33.984  11.012
10893W        W74617  21.236  35.595  10.567
10894W        W74618  20.648  26.651  14.327
10895W        W74619   9.178   3.350  12.363
10896W        W74620  11.158  32.041   3.784
10897W        W74621  10.851   5.329   3.794
10898W        W74622  41.983  18.737  14.452
10899W        W74623  33.403  28.480   3.163
10900W        W74624   8.754  10.358   1.743
10901W        W74625  19.237  18.688  14.908
10902W        W74626  36.071  43.013  10.468
10903W        W74627  32.539  33.985  14.277
10904W        W74628  24.992  27.104  13.886
10905W        W74629  24.043  37.874   0.471
10906W        W74630  24.066  41.434   2.226
10907W        W74631  24.604   0.904   4.306
10908W        W74632  38.565   8.883   2.764
10909W        W74633  30.446  16.790  11.995
10910W        W74634  22.250  10.744   4.325
10911W        W74635  10.348  28.563   4.320
10912W        W74636  25.712  24.162   1.716
10913W        W74637  12.296  20.258   0.926
10914W        W74638  20.159  12.705  11.943
10915W        W74639  16.261  19.101   1.722
10916W        W74640  15.677  43.452  11.390
10917W        W74641  12.246  32.606   2.903
10918W        W74642  37.565   2.388   2.194
10919W        W74643  31.957   2.761  13.308
10920W        W74644  19.553  18.053  12.952
10921W        W74645   1.780  39.939   3.232
10922W        W74646  37.989  39.953  12.956
10923W        W74647   6.900  39.850  14.403
10924W        W74648  16.687  35.532  12.845
10925W        W74649   8.308   1.872  12.527
10926W        W74650   1.851  19.281   1.300
10927W        W74651   3.255  35.561   0.847
10928W        W74652  34.906  32.448   4.353
10929W        W74653  44.404  38.021   2.777
10930W        W74654   1.902  10.169   1.914
10931W        W74655  21.183   2.270   3.377
10932W        W74656  37.552  11.689  12.449
10933W        W74657   3.898   5.313  12.894
10934W        W74658   8.889  38.440  11.017
10935W        W74659  38.565  33.520  12.045
10936W        W74660   7.827  19.200   4.808
10937W        W74661  36.849  10.852   1.709
10938W        W74662  29.524  33.536  13.838
10939W        W74663  31.603  20.142   0.357
10940W        W74664  33.039  12.359   3.285
10941W        W74665  31.618  41.799  11.875
10942W        W74666   7.319  10.739   2.751
10943W        W74667   7.218   4.216  12.469
10944W        W74668   9.656  11.737  12.857
10945W        W74669  43.851  22.539   2.341
10946W        W74670  32.466  27.674  12.341
10947W        W74671   4.292  41.381  14.865
10948W        W74672  10.728  17.308  12.426
10949W        W74673  26.652   7.700  10.964
10950W        W74674  10.161  44.916   1.252
10951W        W74675   8.266  33.057   0.271
10952W        W74676  43.513  42.933  12.007
10953W        W74677  15.788  10.763   5.190
10954W        W74678  41.795  23.570   2.351
10955W        W74679  42.471  40.412  11.607
10956W        W74680   2.303  28.084   4.647
10957W        W74681  38.958  39.492  13.446
10958W        W74682  26.072  19.099  14.316
10959W        W74683  14.111  13.816   1.877
10960W        W74684  44.455   6.395   3.820
10961W        W74685  43.769   3.219   4.151
10962W        W74686  10.728  27.054   0.938
10963W        W74687  31.435  31.022  11.062
10964W        W74688   2.396  40.808   0.275
10965W        W74689  36.900  10.704  10.983
10966W        W74690   6.217  39.338  14.274
10967W        W74691   6.401  35.062  10.955
10968W        W74692  34.551  22.728   0.429
10969W        W74693  21.189  28.044   3.764
10970W        W74694  39.523   1.904   3.291
10971W        W74695  22.235  26.169   2.724
10972W        W74696  39.414  26.553  14.417
10973W        W74697  22.684  43.397  11.427
10974W        W74698   2.857  24.113   1.808
10975W        W74699  32.394  10.770   1.368
10976W        W74700  25.702  19.182  11.068
10977W        W74701  24.127  43.429  14.910
10978W        W74702  10.170  34.469  10.126
10979W        W74703  30.071   3.429  11.531
10980W        W74704  38.826  41.498   2.710
10981W        W74705  20.051  11.847  14.771
10982W        W74706   0.321  24.487   1.889
10983W        W74707  23.115  18.112  10.444
10984W        W74708  43.366  41.450   4.150
10985W        W74709   7.760   7.220  10.590
10986W        W74710  18.096  42.405   2.355
10987W        W74711  20.672  12.632  11.494
10988W        W74712  23.708  11.761   3.661
10989W        W74713   5.871  14.230  14.368
10990W        W74714  37.513   0.888   0.845
10991W        W74715   2.360  21.156   9.978
10992W        W74716   1.295  24.175  13.533
10993W        W74717  30.046  33.546  10.623
10994W        W74718   8.852   9.246  12.571
10995W        W74719  39.853  32.122   4.741
10996W        W74720  15.790  15.692  14.803
10997W        W74721  26.503  10.767   4.720
10998W        W74722  11.230  43.300  13.311
10999W        W74723  16.150   8.223  12.341
11000W        W74724  34.577  32.996  12.006
11001W        W74725  16.298   8.745  14.853
11002W        W74726  25.144  12.216  13.924
11003W        W74727  35.505  44.766   4.720
11004W        W74728   4.383   3.857   2.308
11005W        W74729  26.064  19.119  13.977
11006W        W74730  28.068   1.865   2.851
11007W        W74731  37.547  26.975  12.061
11008W        W74732   4.435  35.420   3.833
11009W        W74733  32.911  15.635  11.431
11010W        W74734  21.193  22.726  14.879
11011W        W74735  20.547   2.400  12.836
11012W        W74736  12.633  20.748   4.693
11013W        W74737  27.682  35.407  12.919
11014W        W74738  24.066  28.443   2.208
11015W        W74739  28.060   5.430   0.857
11016W        W74740  39.331  16.619   4.635
11017W        W74741   5.253  17.101   2.245
11018W        W74742   5.322  36.074   4.302
11019W        W74743  31.513   9.782  14.299
11020W        W74744  40.977  18.557  11.520
11021W        W74745  41.302  17.264  10.577
11022W        W74746  31.987  26.978  14.276
11023W        W74747   0.433  36.012   1.272
11024W        W74748  20.538  36.954  13.956
11025W        W74749   8.828  28.620   1.797
11026W        W74750  42.359  16.195  14.442
11027W        W74751  43.466  19.711  13.940
11028W        W74752  23.997  30.433  10.012
11029W        W74753  27.028  30.529   2.290
11030W        W74754  32.493   2.302   3.829
11031W        W74755  14.137  13.771  14.800
11032W        W74756   5.882  20.668   0.288
11033W        W74757  42.788  24.075   5.223
11034W        W74758  43.928   2.428  10.595
11035W        W74759  39.032  18.773  12.439
11036W        W74760   6.717  19.756   2.247
11037W        W74761   9.337   9.230   1.410
11038W        W74762  35.496  20.031  11.062
11039W        W74763  10.163  37.476   1.831
11040W        W74764  37.083  11.199   0.776
11041W        W74765  20.614  23.005  11.973
11042W        W74766  31.477  18.253  12.363
11043W        W74767  44.902   0.846  11.034
11044W        W74768  16.218  11.320   2.219
11045W        W74769  36.900  26.605   2.900
11046W        W74770  17.192   8.677   1.387
11047W        W74771  19.106  16.721   1.417
11048W        W74772  44.893  40.042   2.703
11049W        W74773  40.927   3.326  13.856
11050W        W74774   3.942  34.518   0.299
11051W        W74775  20.066  35.941  10.061
11052W        W74776  26.464  29.484   0.300
11053W        W74777   1.250  32.572   4.324
11054W        W74778  21.647  31.096  11.464
11055W        W74779  24.648   8.266   2.385
11056W        W74780  42.826  33.007  14.878
11057W        W74781  30.020   8.712  10.610
11058W        W74782  17.743   7.329   3.742
11059W        W74783  28.020  28.951   1.348
11060W        W74784  25.621  12.653  11.991
11061W        W74785  31.589  27.027   4.182
11062W        W74786  40.022  11.361  11.866
11063W        W74787  39.003  39.549   3.698
11064W        W74788  38.921  37.547  12.344
11065W        W74789   9.382  12.728  14.401
11066W        W74790   2.234   9.316   4.727
11067W        W74791   1.395   9.845  13.524
11068W        W74792  11.738  30.585   3.160
11069W        W74793   6.341  11.153  14.971
11070W        W74794  43.013  42.318  13.968
11071W        W74795   6.870  36.900  14.434
11072W        W74796   1.831   3.338  14.328
11073W        W74797  24.123   6.399  12.840
11074W        W74798  23.147  25.467   3.765
11075W        W74799  34.876   1.916   1.704
11076W        W74800  41.814  19.228  13.000
11077W        W74801  44.886  27.943  12.405
11078W        W74802  27.527   1.450   2.756
11079W        W74803  37.907  16.233   1.253
11080W        W74804  16.183  38.500   2.412
11081W        W74805  38.359  44.850  12.470
11082W        W74806  24.033  23.229   0.916
11083W        W74807  38.861   3.772  12.392
11084W        W74808  41.958   8.312   4.335
11085W        W74809  39.047  20.183  13.952
11086W        W74810  26.067  38.433  13.501
11087W        W74811  18.210  39.828  14.916
11088W        W74812  40.315  26.489   0.795
11089W        W74813  30.938  39.065   3.290
11090W        W74814  38.512  24.518   9.592
11091W        W74815  23.522   0.771   0.315
11092W        W74816  43.396  18.228   3.804
11093W        W74817  25.511  19.251  12.865
11094W        W74818  15.252  21.556   3.205
11095W        W74819  29.086  24.665  11.975
11096W        W74820   9.878  22.065  13.430
11097W        W74821  20.038   9.156  12.830
11098W        W74822  30.488  14.282   0.433
11099W        W74823   3.453  33.542   2.370
11100W        W74824  24.152  32.139   0.298
11101W        W74825   1.756  35.003  11.910
11102W        W74826  25.208  42.887  11.919
11103W        W74827  17.731  26.554   1.857
11104W        W74828  23.551  31.134  13.343
11105W        W74829   0.866  11.680   0.935
11106W        W74830  20.242   1.418   3.795
11107W        W74831   7.763  21.751  11.401
11108W        W74832  21.068  12.155  11.860
11109W        W74833  19.710  41.434  13.004
11110W        W74834  31.997   7.811   3.315
11111W        W74835  23.033  12.224  12.502
11112W        W74836   3.264  16.203  11.486
11113W        W74837  20.721  14.187  11.109
11114W        W74838   2.760  31.606  12.978
11115W        W74839   8.836   5.275  11.938
11116W        W74840  22.999  19.040   4.146
11117W        W74841  14.221  23.707   4.662
11118W        W74842  42.513  10.251  10.406
11119W        W74843   4.890   6.780   4.204
11120W        W74844  15.722  18.787  14.423
11121W        W74845  30.448   7.363   0.895
11122W        W74846  41.837  43.382  14.293
11123W        W74847  34.473  26.503  12.557
11124W        W74848   7.334  11.325   4.295
11125W        W74849  18.121  23.133  12.493
11126W        W74850   0.271  14.801  14.766
11127W        W74851  25.473  40.868  12.477
11128W        W74852  36.003  15.772   4.352
11129W        W74853  17.207  34.044  13.528
11130W        W74854  37.066  11.199  13.477
11131W        W74855  40.499  21.142  13.824
11132W        W74856  29.464  42.324   3.214
11133W        W74857   3.730  29.504   2.273
11134W        W74858  28.112  26.471  14.835
11135W        W74859  21.590  25.087  13.033
11136W        W74860  39.335  22.508   1.410
11137W        W74861   0.312  12.824   2.677
11138W        W74862  16.182   5.875   4.785
11139W        W74863  40.914   9.272  13.354
11140W        W74864  14.234  34.369   0.413
11141W        W74865   0.412  33.428   0.852
11142W        W74866   5.742  39.983  13.838
11143W        W74867  31.099  32.910   1.229
11144W        W74868   1.277  15.647  14.834
11145W        W74869  39.374   3.837   4.837
11146W        W74870  15.210  40.356   3.269
11147W        W74871  14.172  21.181  14.396
11148W        W74872   7.293  34.041   2.852
11149W        W74873  29.638   7.313  14.447
11150W        W74874  32.560  32.942   3.220
11151W        W74875  18.107   4.435   1.307
11152W        W74876  22.084   8.243  14.009
11153W        W74877  22.625  33.536   3.201
11154W        W74878  18.263   4.275   1.777
11155W        W74879  35.418   4.782  13.858
11156W        W74880  24.098  21.564   1.877
11157W        W74881  32.939  28.187  14.972
11158W        W74882  15.175   9.771   1.434
11159W        W74883   4.898  22.591  13.468
11160W        W74884   6.231  26.584   0.370
11161W        W74885  15.290  32.118   4.199
11162W        W74886  12.845   4.338   0.947
11163W        W74887  27.101  36.423  13.536
11164W        W74888  14.595  16.631  11.902
11165W        W74889  25.156  12.131   1.285
11166W        W74890  18.714  39.404  10.975
11167W        W74891  12.250  16.245   1.428
11168W        W74892  28.510   1.459   1.799
11169W        W74893  41.522  44.885   0.781
11170W        W74894  38.887  12.356   0.273
11171W        W74895  37.530  35.512   4.118
11172W        W74896  42.895  32.013  14.378
11173W        W74897  13.816  16.165  12.525
11174W        W74898  38.393  13.761  11.438
11175W        W74899   9.709   1.395  10.927
11176W        W74900  36.876  29.083  14.330
11177W        W74901   7.900  14.793   2.321
11178W        W74902   7.667   2.938   3.826
11179W        W74903   6.347  32.009   5.277
11180W        W74904  20.121   3.931   3.228
11181W        W74905  18.057   3.938  10.936
11182W        W74906   0.435   5.408   2.897
11183W        W74907  20.764  25.501   4.290
11184W        W74908  35.497  26.496  11.053
11185W        W74909  24.621   6.326   0.273
11186W        W74910   6.832  23.554   3.382
11187W        W74911  30.971  34.944   3.847
11188W        W74912  32.100  10.356   3.156
11189W        W74913   8.674  23.154  11.984
11190W        W74914  24.569  11.814  11.921
11191W        W74915  19.226  10.362   3.251
11192W        W74916  11.712  43.460  12.916
11193W        W74917  42.511  26.060   0.406
11194W        W74918  20.706  43.837  10.466
11195W        W74919   3.755   7.761   3.173
11196W        W74920  24.519   7.860  10.111
11197W        W74921  43.876  40.882   2.242
11198W        W74922   7.690  24.991  13.481
11199W        W74923  38.464   9.271  13.855
11200W        W74924  39.850  22.511   1.770
11201W        W74925  23.730  22.563   4.247
11202W        W74926  18.634  43.335  10.462
11203W        W74927  25.024  24.116  13.503
11204W        W74928   4.371   0.465  14.390
11205W        W74929  33.898  30.420  13.794
11206W        W74930  39.840  40.851  10.088
11207W        W74931  22.134  19.189  12.459
11208W        W74932  24.192  20.252  10.440
11209W        W74933  38.344  18.237  11.606
11210W        W74934  23.512  16.601   1.298
11211W        W74935  42.333  38.341  10.965
11212W        W74936   2.768  15.321   2.812
11213W        W74937   8.717   4.432  11.114
11214W        W74938  34.591  17.097  14.349
11215W        W74939  21.716  35.034   0.825
11216W        W74940  22.718  21.613   1.253
11217W        W74941  11.641   6.403   5.263
11218W        W74942  10.681  17.787  10.552
11219W        W74943  40.972   9.726   1.250
11220W        W74944  39.403  38.348   2.674
11221W        W74945  15.238   3.771   1.312
11222W        W74946  16.788  35.359  14.506
11223W        W74947  38.874  14.139  12.373
11224W        W74948  36.477   4.243  12.454
11225W        W74949  29.153  36.875  13.835
11226W        W74950  44.286   4.410  13.798
11227W        W74951  36.059  20.658   4.165
11228W        W74952  31.981   3.916   0.827
11229W        W74953  38.957  41.922   3.635
11230W        W74954   5.820  42.406   1.860
11231W        W74955   2.891   1.357   0.750
11232W        W74956   6.768  44.833   4.340
11233W        W74957   5.761   7.291   4.647
11234W        W74958  31.920   6.770  13.315
11235W        W74959  31.899  30.644  12.078
11236W        W74960   6.279  42.384   3.206
11237W        W74961  38.472  41.465   2.250
11238W        W74962  15.110  36.400  12.345
11239W        W74963  19.762  27.527   2.223
11240W        W74964  34.930  42.873   2.812
11241W        W74965  37.033  36.522  13.437
11242W        W74966  39.906   4.298   3.361
11243W        W74967  44.807  43.284  11.420
11244W        W74968   6.750  35.484   3.258
11245W        W74969  10.823   2.839  11.372
11246W        W74970  30.586  10.359  14.483
11247W        W74971  17.306  44.857  11.901
11248W        W74972   5.762   7.322  14.852
11249W        W74973  44.397  21.077   1.435
11250W        W74974  44.862  19.224   2.256
11251W        W74975   7.874  17.260  12.993
11252W        W74976  34.409  33.606  12.852
11253W        W74977   0.280  24.024   2.777
11254W        W74978  22.634  42.926  10.971
11255W        W74979   9.708  42.400   3.160
11256W        W74980  43.892   1.897  13.877
11257W        W74981  32.509  41.912  14.443
11258W        W74982   1.285  26.182   2.869
11259W        W74983   5.918   5.434   3.687
11260W        W74984  23.658  43.805   3.812
11261W        W74985  15.730   8.348  14.795
11262W        W74986   8.664  19.696   1.279
11263W        W74987  19.237  24.997   4.183
11264W        W74988  12.725   2.895   0.242
11265W        W74989  40.000  22.519   0.270
11266W        W74990  19.161  26.545   4.776
11267W        W74991  20.556  15.633   4.660
11268W        W74992  31.998  10.744   2.890
11269W        W74993  30.911  29.978   4.817
11270W        W74994  41.967  43.430   4.337
11271W        W74995  10.140  25.208  13.530
11272W        W74996   8.273  10.153   3.801
11273W        W74997  19.196  27.648   0.322
11274W        W74998  25.200  29.987   4.125
11275W        W74999  39.002  11.254  14.442
11276W        W75000  35.046  23.999   3.691
11277W        W75001   1.470   7.189   3.753
11278W        W75002  41.788  29.935  11.004
11279W        W75003  22.141  44.844  12.086
11280W        W75004  30.447  14.600   4.767
11281W        W75005  34.430  42.975  12.960
11282W        W75006  37.358  32.135  10.144
11283W        W75007  17.704  12.672  10.964
11284W        W75008  28.075  24.648  10.405
11285W        W75009  33.462  24.661   1.931
11286W        W75010  14.264  21.525  12.842
11287W        W75011   2.723   3.726   1.850
11288W        W75012   5.771  26.575   4.186
11289W        W75013  37.956  23.171   3.336
11290W        W75014  17.743   5.769   4.179
11291W        W75015  19.213  12.241  13.806
11292W        W75016  38.891  42.981   1.799
11293W        W75017  39.000  34.993   5.261
11294W        W75018   2.311  30.487   4.271
11295W        W75019  17.162   1.408   0.918
11296W        W75020   3.823  37.557   1.415
11297W        W75021  16.096   6.246   5.308
11298W        W75022   7.875  41.029  13.545
11299W        W75023  39.383  12.241   4.736
11300W        W75024  12.674   9.166  12.343
11301W        W75025  19.682  19.166   2.863
11302W        W75026   8.326  21.704  14.415
11303W        W75027   2.908  43.921  10.890
11304W        W75028  22.664  35.889  10.455
11305W        W75029   2.340  25.651   4.643
11306W        W75030  44.407  15.134  10.950
11307W        W75031  11.336  44.336   1.260
11308W        W75032  38.563  12.732  11.576
11309W        W75033  35.897  19.689  13.040
11310W        W75034   7.764  22.743  13.389
11311W        W75035  24.000  42.855   9.946
11312W        W75036   2.283   6.677   1.258
11313W        W75037  25.646  36.082   1.367
11314W        W75038   6.880  15.207   4.630
11315W        W75039   8.857  23.016   4.289
11316W        W75040  39.466  43.359   2.783
11317W        W75041  41.366  44.806   3.254
11318W        W75042   2.836  22.204   1.809
11319W        W75043  27.156   6.691  13.467
11320W        W75044  12.686  43.987  12.047
11321W        W75045  42.495   1.813   0.912
11322W        W75046  44.367  40.385  10.426
11323W        W75047   6.373  36.491   2.791
11324W        W75048  22.025   6.814   3.192
11325W        W75049   6.205  15.216  13.899
11326W        W75050  23.490  31.413   1.824
11327W        W75051   2.934   0.344   3.307
11328W        W75052  11.722  21.597  11.926
11329W        W75053  12.118  11.147   0.474
11330W        W75054  22.050  42.967  12.992
11331W        W75055  17.294  18.759   3.326
11332W        W75056  23.152   7.411  14.775
11333W        W75057   3.439   1.363  13.432
11334W        W75058  31.075   9.342   4.824
11335W        W75059  12.636  40.897  13.320
11336W        W75060  18.115  35.517   4.649
11337W        W75061  24.186  18.284   0.942
11338W        W75062   1.967  37.021   2.758
11339W        W75063  19.677  33.456  13.871
11340W        W75064   7.217  32.443  12.983
11341W        W75065  13.294  25.212   1.451
11342W        W75066  17.079  33.028   4.683
11343W        W75067  23.220  10.211   3.719
11344W        W75068  15.169  15.637  13.006
11345W        W75069  44.844  13.641   0.424
11346W        W75070  29.463  30.960   2.386
11347W        W75071   6.777  29.030   0.343
11348W        W75072  24.017   9.173  13.490
11349W        W75073   2.385  39.895   2.242
11350W        W75074  44.963   5.241  13.511
11351W        W75075  43.996   0.375  11.608
11352W        W75076  10.281  21.720   1.845
11353W        W75077  23.086  44.908   0.253
11354W        W75078  20.206  42.323   1.259
11355W        W75079   8.730  29.059   3.731
11356W        W75080  13.197  35.092   5.106
11357W        W75081  14.093  16.667  13.064
11358W        W75082  24.162   3.234  13.489
11359W        W75083  23.118  42.510   3.313
11360W        W75084   1.848  16.111  12.936
11361W        W75085  44.309   0.394  13.446
11362W        W75086  28.185  22.162  11.057
11363W        W75087  36.930  23.119  10.570
11364W        W75088   9.819   3.919   1.847
11365W        W75089  12.150  31.616   1.743
11366W        W75090  13.319  43.483   2.235
11367W        W75091  20.108   4.349  10.506
11368W        W75092  11.675   4.898   2.188
11369W        W75093   5.430  13.610  10.430
11370W        W75094  17.756  11.335  14.386
11371W        W75095  22.014  12.248   3.717
11372W        W75096   8.837  28.540   3.247
11373W        W75097  10.202   1.336   0.807
11374W        W75098  44.289  34.477   0.310
11375W        W75099   8.867  11.707   3.715
11376W        W75100  12.676  23.581   3.708
11377W        W75101   8.780  29.655   2.272
11378W        W75102  41.454  30.500  12.826
11379W        W75103  23.705  32.957  13.952
11380W        W75104   0.776  44.294  13.793
11381W        W75105   6.419  20.681   1.348
11382W        W75106  33.963   1.449  11.544
11383W        W75107   0.891  14.700   2.349
11384W        W75108  18.698   9.240  11.384
11385W        W75109  35.908  41.335   4.828
11386W        W75110  38.063  27.671   0.386
11387W        W75111  13.810  26.463  13.313
11388W        W75112  43.989  18.217  12.016
11389W        W75113  36.879  20.669   1.724
11390W        W75114   1.939   5.394   0.353
11391W        W75115  42.782  12.610   2.265
11392W        W75116  27.062   8.687   1.904
11393W        W75117  22.176  22.717  14.421
11394W        W75118  31.574   1.738  14.917
11395W        W75119  18.096   4.820   2.850
11396W        W75120   2.814  23.141   1.361
11397W        W75121  34.604  29.625   1.213
11398W        W75122  15.769  18.767   1.793
11399W        W75123  41.484  38.042   1.927
11400W        W75124   5.372  19.122   1.425
11401W        W75125  31.475  29.102   4.262
11402W        W75126  40.490   3.427  13.024
11403W        W75127  29.639  25.177  12.393
11404W        W75128  26.059  13.761   2.279
11405W        W75129  22.621  22.156   4.221
11406W        W75130  25.014   2.861  13.472
11407W        W75131  43.375  22.598   2.816
11408W        W75132  21.622  42.385  10.973
11409W        W75133   4.944  29.124   2.866
11410W        W75134  15.203  10.381   1.399
11411W        W75135  20.149  35.885  14.419
11412W        W75136  13.120   1.386  13.799
11413W        W75137  38.545   9.662  10.955
11414W        W75138  31.402  40.810  14.387
11415W        W75139  26.462  30.544  14.935
11416W        W75140  25.581   6.350  13.795
11417W        W75141  40.424   5.293  14.433
11418W        W75142  19.740  11.715   2.883
11419W        W75143  43.878   9.170   0.852
11420W        W75144  27.949  25.017  14.332
11421W        W75145  16.794  31.106  13.963
11422W        W75146  21.034   0.263  11.488
11423W        W75147  39.384  30.160  12.505
11424W        W75148  27.685  23.497   0.901
11425W        W75149  21.041  39.390   2.899
11426W        W75150  41.326  36.579   3.354
11427W        W75151  37.909  12.163   0.368
11428W        W75152   0.842  40.373  10.624
11429W        W75153  14.644  29.514  14.311
11430W        W75154  17.802  38.887  11.092
11431W        W75155   4.320  37.034  12.400
11432W        W75156  44.942  36.395  12.426
11433W        W75157  43.941   3.853   4.330
11434W        W75158   3.244  15.214  10.481
11435W        W75159  30.144  34.424  14.503
11436W        W75160   4.344  10.164   5.251
11437W        W75161  22.592   6.714   2.392
11438W        W75162  19.595  16.734  13.343
11439W        W75163   7.833   4.440  12.025
11440W        W75164   0.973  34.448   0.379
11441W        W75165   0.849   2.257   2.840
11442W        W75166   3.315  25.562   2.271
11443W        W75167  35.383  16.130  11.403
11444W        W75168  20.143   7.360  14.926
11445W        W75169   9.799   6.800  13.892
11446W        W75170  42.428   1.472   4.827
11447W        W75171  24.125  25.481  10.557
11448W        W75172  16.746  18.288  11.939
11449W        W75173  36.485  41.897   2.196
11450W        W75174  12.201  37.534   2.853
11451W        W75175   9.826   8.768  12.066
11452W        W75176  30.461  39.830  10.959
11453W        W75177   2.379   6.295  10.904
11454W        W75178  36.878  34.375  11.577
11455W        W75179  15.759  33.094  10.629
11456W        W75180  19.696  18.126   0.268
11457W        W75181   2.244  32.102  13.466
11458W        W75182  22.043   9.676  12.362
11459W        W75183  42.333  15.172  11.540
11460W        W75184   4.767  40.948   1.734
11461W        W75185  14.815  23.672  11.520
11462W        W75186  20.578  28.067   1.752
11463W        W75187   7.839  32.010   4.765
11464W        W75188  16.286   1.438  12.994
11465W        W75189  20.233  11.866   0.774
11466W        W75190  21.543  24.558  13.812
11467W        W75191  12.783  16.794  10.488
11468W        W75192  41.882  25.059   0.895
11469W        W75193  31.051  18.265  10.523
11470W        W75194   9.676   2.324   2.274
11471W        W75195  30.532  21.682  12.409
11472W        W75196  41.994  31.403   2.679
11473W        W75197  25.550  27.655   2.368
11474W        W75198  31.480  20.686   0.480
11475W        W75199  36.514  43.360  14.397
11476W        W75200   9.255  13.636   4.795
11477W        W75201  24.109  27.095   2.204
11478W        W75202  44.870  18.189   0.328
11479W        W75203  44.425  43.387   3.367
11480W        W75204   7.791   0.251  14.318
11481W        W75205  14.681  36.072  12.395
11482W        W75206  11.651  20.263   0.444
11483W        W75207  38.488  25.484  12.972
11484W        W75208  21.237  16.750   2.843
11485W        W75209   3.391  42.894  12.978
11486W        W75210   3.809   1.783   1.795
11487W        W75211  34.927  43.837  11.868
11488W        W75212  18.126  36.512  12.966
11489W        W75213  28.969  28.494   2.724
11490W        W75214  38.554  30.504   4.801
11491W        W75215  34.991  14.140   2.342
11492W        W75216  32.612  25.664   0.410
11493W        W75217  44.902   4.231   4.161
11494W        W75218  44.387  16.608  12.387
11495W        W75219   6.409   6.369  14.474
11496W        W75220  22.692  17.264  11.577
11497W        W75221  12.729  13.832  14.782
11498W        W75222  24.219  43.469  12.388
11499W        W75223   9.277  31.107  14.968
11500W        W75224  32.609   8.203   4.171
11501W        W75225   6.686  18.087   2.356
11502W        W75226  22.625  27.087   1.330
11503W        W75227  34.876  43.490   3.769
11504W        W75228  32.956  27.976  14.282
11505W        W75229  12.726  17.695   4.187
11506W        W75230  24.578  44.889  11.979
11507W        W75231  12.725  19.571  10.908
11508W        W75232  34.982  27.090  14.884
11509W        W75233  18.207  10.262   4.143
11510W        W75234   2.383   6.844   1.934
11511W        W75235   8.271   2.891  14.993
11512W        W75236  35.938  18.151  13.315
11513W        W75237  40.473  13.196  12.403
11514W        W75238   6.810   8.374  12.089
11515W        W75239   1.357  12.139  12.989
11516W        W75240  36.847   8.338   1.782
11517W        W75241  36.918  24.006   1.215
11518W        W75242  39.351  28.552  12.540
11519W        W75243  20.594  12.737   3.210
11520W        W75244  34.451  33.128  10.525
11521W        W75245  34.420  29.448  10.543
11522W        W75246   5.204   9.763  12.039
11523W        W75247   2.959   6.183  11.867
11524W        W75248   6.340   8.732  14.900
11525W        W75249  37.000  22.022   3.688
11526W        W75250  35.457  21.240  13.061
11527W        W75251  12.328  44.877   0.789
11528W        W75252  43.835   8.396  12.893
11529W        W75253  19.696  38.929   2.285
11530W        W75254  36.506  43.918   1.878
11531W        W75255  20.195   7.789   1.781
11532W        W75256  22.675   3.767  11.960
11533W        W75257  39.405  25.665   1.811
11534W        W75258  33.984   2.282   4.793
11535W        W75259  20.069   4.805  11.995
11536W        W75260  31.568  32.514   4.170
11537W        W75261  31.501   4.852   2.354
11538W        W75262  13.277  39.460   1.232
11539W        W75263  22.555   2.395   4.335
11540W        W75264   0.270  18.764   3.382
11541W        W75265  24.581  29.122   2.232
11542W        W75266  10.874  36.030   0.932
11543W        W75267  25.088  12.301  13.478
11544W        W75268  15.262  20.685   2.319
11545W        W75269  17.193  13.706  10.004
11546W        W75270   0.904  33.417  12.341
11547W        W75271   9.713  17.617   4.186
11548W        W75272  14.602   0.292   0.306
11549W        W75273  16.266  37.412  10.434
11550W        W75274  22.062  12.753  14.456
11551W        W75275  25.632  34.872  10.489
11552W        W75276  11.158  11.728   0.367
11553W        W75277  31.417  38.474  10.582
11554W        W75278   9.812  31.081   1.721
11555W        W75279  11.719  40.810   3.654
11556W        W75280   5.329   0.854  12.003
11557W        W75281  29.497  37.408   0.927
11558W        W75282  26.006  10.178   0.320
11559W        W75283  17.290   2.378  12.421
11560W        W75284  25.204   5.836  11.507
11561W        W75285   3.714  21.220  14.885
11562W        W75286  11.324  41.810   2.859
11563W        W75287  38.062  42.377   9.632
11564W        W75288  30.630  14.692  13.504
11565W        W75289  30.613   3.721   1.259
11566W        W75290  35.602   7.783   4.785
11567W        W75291  10.847  38.432   3.850
11568W        W75292  30.453  15.614   0.799
11569W        W75293  11.749  23.148   1.828
11570W        W75294   7.876  25.468  13.349
11571W        W75295   8.322   8.673  10.561
11572W        W75296  42.907  18.056  14.325
11573W        W75297  27.465  44.303  12.508
11574W        W75298  31.926  21.536   3.344
11575W        W75299  13.127   6.788  10.427
11576W        W75300   2.751   9.660  11.014
11577W        W75301  16.787  33.562   4.199
11578W        W75302  15.279  28.075  13.367
11579W        W75303   3.286  41.789   0.727
11580W        W75304  38.459  26.467   2.391
11581W        W75305  37.025  31.959  10.531
11582W        W75306  11.755  17.787  12.889
11583W        W75307   0.984  24.610   3.674
11584W        W75308  11.185   1.923   1.790
11585W        W75309  28.491  41.964   2.746
11586W        W75310  26.534  28.094  12.854
11587W        W75311  31.632  31.562  14.011
11588W        W75312  30.547   5.781  14.845
11589W        W75313  29.615  10.646   1.431
11590W        W75314   7.886  10.221  10.539
11591W        W75315  28.651  32.539  11.492
11592W        W75316  14.594   9.850   2.304
11593W        W75317  27.060  24.496  13.373
11594W        W75318  42.824  43.430  10.406
11595W        W75319  39.554  30.470   2.357
11596W        W75320  11.336  37.545  10.911
11597W        W75321  22.596  37.995  10.917
11598W        W75322  39.349   0.942   9.990
11599W        W75323   7.891   5.353   0.904
11600W        W75324   2.939  37.359  11.445
11601W        W75325  26.078  17.779  14.471
11602W        W75326  31.567  16.099   2.717
11603W        W75327  15.667  13.609   2.901
11604W        W75328  27.049  34.025   2.330
11605W        W75329  35.399  21.610  11.504
11606W        W75330  44.327  35.032  13.944
11607W        W75331  10.822  42.396   4.219
11608W        W75332  16.721  29.018  12.970
11609W        W75333  42.415  34.436   1.771
11610W        W75334  31.925  33.415   4.682
11611W        W75335  40.939  16.236  14.844
11612W        W75336  24.033   6.720   4.692
11613W        W75337  27.951   9.195   0.856
11614W        W75338  21.144   2.787   1.888
11615W        W75339  20.143  13.143   0.420
11616W        W75340  19.225   7.831  13.962
11617W        W75341  32.921  21.181  14.788
11618W        W75342  12.756  44.293   3.382
11619W        W75343  19.139  38.413  13.804
11620W        W75344   8.671   2.870  12.857
11621W        W75345  10.653  42.516   2.269
11622W        W75346  40.497  14.818  14.465
11623W        W75347  35.555   2.469   3.663
11624W        W75348   4.212  24.623  12.551
11625W        W75349  32.632   6.912  11.425
11626W        W75350  22.181  41.511   3.207
11627W        W75351  35.030  31.129  14.818
11628W        W75352  27.070  25.167   4.141
11629W        W75353   5.769  20.174  10.941
11630W        W75354  15.633  27.492   4.640
11631W        W75355   3.260   7.764   5.318
11632W        W75356  12.851   7.413   5.676
11633W        W75357  17.706  18.695   4.182
11634W        W75358   5.415   4.809  12.001
11635W        W75359  43.913  31.499  13.865
11636W        W75360  44.346  40.395   3.168
11637W        W75361  40.333   9.763  11.558
11638W        W75362  38.824  27.059  10.566
11639W        W75363  40.383  40.968  14.900
11640W        W75364  38.945  13.803  14.485
11641W        W75365  40.459  40.970   3.829
11642W        W75366  44.903   6.377  11.504
11643W        W75367   4.382  38.050   1.769
11644W        W75368  30.116  12.655   3.710
11645W        W75369   2.853   5.198  10.556
11646W        W75370   8.802  13.689   1.341
11647W        W75371  43.456  19.120   4.785
11648W        W75372  29.541  35.571  13.440
11649W        W75373  11.677   7.802  12.463
11650W        W75374  12.778  20.125   3.678
11651W        W75375   8.756  10.310  13.829
11652W        W75376  24.136  31.547  11.936
11653W        W75377  16.792  29.659  10.933
11654W        W75378  13.807  18.727   0.335
11655W        W75379  10.659   5.305  12.071
11656W        W75380  14.161  18.098  13.416
11657W        W75381  13.744   6.289  11.128
11658W        W75382  43.516  36.059  14.871
11659W        W75383   4.856  26.627   2.777
11660W        W75384  21.253  22.601  12.396
11661W        W75385  16.711  28.125  13.539
11662W        W75386   3.257  23.618  11.466
11663W        W75387  43.944  18.573  11.966
11664W        W75388   9.295  44.467   3.692
11665W        W75389  15.598  41.898   5.311
11666W        W75390  17.250  44.865   3.205
11667W        W75391  42.830  14.807   0.931
11668W        W75392  18.739  23.529   2.230
11669W        W75393   1.744  19.583  12.347
11670W        W75394  31.568  36.450   4.630
11671W        W75395  26.972  30.580  13.437
11672W        W75396   2.734  39.383  14.911
11673W        W75397  25.530  27.635  12.830
11674W        W75398  10.311  11.761   4.149
11675W        W75399  22.663  40.873  13.418
11676W        W75400  18.158  15.609  11.548
11677W        W75401  34.878  43.305  10.613
11678W        W75402   4.704   7.307   0.774
11679W        W75403  10.229  20.554  12.861
11680W        W75404  31.487  15.657   4.671
11681W        W75405  15.661  13.206   0.742
11682W        W75406   2.399  31.604  14.848
11683W        W75407  15.297   6.830   9.937
11684W        W75408  20.740  24.616   1.878
11685W        W75409  11.180  41.292  11.968
11686W        W75410  39.976  20.530  10.469
11687W        W75411  36.510  33.111   1.298
11688W        W75412  23.628  28.099  13.008
11689W        W75413  17.140  41.360  11.534
11690W        W75414  44.275  28.620   2.900
11691W        W75415  18.192  11.625   1.859
11692W        W75416   5.691  25.084   2.225
11693W        W75417  32.953  31.007   0.401
11694W        W75418  30.413  32.439   3.365
11695W        W75419  38.885   3.274   1.815
11696W        W75420  21.082  21.233   4.329
11697W        W75421   5.271  19.212  11.104
11698W        W75422  44.300  18.687  12.847
11699W        W75423  22.609  41.353  11.538
11700W        W75424  24.517  25.109   3.787
11701W        W75425   9.655  44.903   4.801
11702W        W75426   5.749  18.092  11.953
11703W        W75427  25.683  40.812   0.454
11704W        W75428  23.164  24.997  12.474
11705W        W75429  35.046  33.623   9.936
11706W        W75430   2.731  23.201  14.814
11707W        W75431  13.209  16.720  12.460
11708W        W75432  25.709  44.935   1.371
11709W        W75433  27.491   5.854   1.379
11710W        W75434  31.062  22.056  12.421
11711W        W75435  43.015  27.491  10.621
11712W        W75436  39.314  19.772  10.426
11713W        W75437  24.102  27.194  13.926
11714W        W75438   1.348   4.332  11.372
11715W        W75439  33.524  25.027   5.173
11716W        W75440  13.312  39.914   2.775
11717W        W75441   1.927   7.690  14.371
11718W        W75442  28.468  43.359   4.235
11719W        W75443   7.674  23.565   3.229
11720W        W75444  42.803  43.289   3.260
11721W        W75445  12.853  15.701   3.366
11722W        W75446  35.597   2.772   4.685
11723W        W75447  26.687   4.415  13.337
11724W        W75448  18.647  13.746   5.711
11725W        W75449   9.374   3.878   4.261
11726W        W75450   9.203  25.661  13.481
11727W        W75451   8.299  26.013   0.457
11728W        W75452  24.500  15.715  12.505
11729W        W75453  37.015  31.566  11.894
11730W        W75454  25.497  44.371   0.349
11731W        W75455  26.475  36.971  12.403
11732W        W75456   1.403  34.883  12.833
11733W        W75457  31.632  27.059   4.615
11734W        W75458   6.235  17.639  10.924
11735W        W75459   6.297  33.483   1.837
11736W        W75460  39.500  42.969   1.839
11737W        W75461   8.801   6.848  13.441
11738W        W75462  11.760  17.619  12.524
11739W        W75463  30.535  43.375  11.520
11740W        W75464  17.164  11.758   0.728
11741W        W75465  18.563   4.387   0.927
11742W        W75466  34.121  20.627   4.666
11743W        W75467  11.730   8.381   2.878
11744W        W75468  44.755  17.787   0.745
11745W        W75469  44.891  16.257   4.313
11746W        W75470  21.623  27.065   0.334
11747W        W75471  28.486  18.611  14.925
11748W        W75472  40.885   9.363  12.861
11749W        W75473   0.432   6.314   3.215
11750W        W75474  31.568  27.193  11.511
11751W        W75475  39.538  22.576   3.761
11752W        W75476  33.471  18.102   1.852
11753W        W75477  10.693  31.069   3.277
11754W        W75478  33.965   0.448   4.631
11755W        W75479  18.715   8.213  10.892
11756W        W75480  36.446  31.077  12.341
11757W        W75481  22.681  23.535  13.826
11758W        W75482  37.510  30.635   4.197
11759W        W75483   7.412   2.863  13.424
11760W        W75484   8.658   9.677   1.846
11761W        W75485  23.643  24.099   1.290
11762W        W75486  37.878  13.308   2.412
11763W        W75487  44.496  13.162  13.035
11764W        W75488  13.111  29.996  12.944
11765W        W75489  42.872  21.613  12.577
11766W        W75490  37.968   5.341  14.462
11767W        W75491  43.973  25.641  14.794
11768W        W75492   4.863  17.779  11.050
11769W        W75493   6.724  21.182  13.794
11770W        W75494  14.635  34.028  13.007
11771W        W75495  25.703  28.973  12.075
11772W        W75496  34.551   5.822  13.401
11773W        W75497   9.203  34.491  12.046
11774W        W75498  38.846  32.401  10.420
11775W        W75499  18.743   7.285   1.349
11776W        W75500  36.523  13.126  13.505
11777W        W75501   2.291  33.408   0.253
11778W        W75502  18.746  15.728   2.699
11779W        W75503  18.294  15.610   3.260
11780W        W75504  26.123  12.672  12.536
11781W        W75505  29.102  34.465  13.919
11782W        W75506  34.867  31.954  11.543
11783W        W75507  32.906  24.093   3.759
11784W        W75508  26.651  27.476   1.822
11785W        W75509   8.724  35.444  14.858
11786W        W75510  11.829   0.482   1.912
11787W        W75511  19.147  39.821   0.359
11788W        W75512  18.273   6.921   0.371
11789W        W75513  20.586  29.039   3.303
11790W        W75514  28.969   7.825   2.771
11791W        W75515  42.386  24.633   1.227
11792W        W75516  30.500  15.246  10.590
11793W        W75517  34.418  36.916   1.381
11794W        W75518  14.607  13.767   3.202
11795W        W75519   8.871  12.780   2.332
11796W        W75520   2.876  25.681  14.463
11797W        W75521   6.805  41.422  13.413
11798W        W75522  31.128   6.745  11.493
11799W        W75523  41.818  13.695   3.367
11800W        W75524  33.070  25.983  12.072
11801W        W75525  43.998  11.258   3.672
11802W        W75526   4.889  30.422  12.892
11803W        W75527  32.897  38.006  14.462
11804W        W75528  17.568  34.923   1.398
11805W        W75529   4.356  14.830  10.426
11806W        W75530  13.623  16.575  13.316
11807W        W75531  37.836  39.837  14.317
11808W        W75532  16.619   7.701   1.409
11809W        W75533  20.079  30.096   2.410
11810W        W75534   5.759  40.339   3.202
11811W        W75535  31.519   4.362   3.848
11812W        W75536  33.990   1.375   4.623
11813W        W75537  44.844  15.141  12.021
11814W        W75538  15.096  32.074   2.315
11815W        W75539  32.995  41.334   0.822
11816W        W75540  35.084  26.101   3.228
11817W        W75541  44.316  22.722   0.286
11818W        W75542   8.825  39.316  14.977
11819W        W75543   4.350  34.054   4.162
11820W        W75544  12.267   7.205   2.207
11821W        W75545  18.755  27.055  12.430
11822W        W75546  10.707  43.829  11.571
11823W        W75547  41.434  31.622  14.977
11824W        W75548  44.879  29.032  10.439
11825W        W75549   8.770  35.361  10.900
11826W        W75550  25.564   6.691   3.732
11827W        W75551  34.891  12.766  10.438
11828W        W75552  40.465  23.068  13.426
11829W        W75553  32.448  29.545   1.876
11830W        W75554  10.679   7.348   1.355
11831W        W75555  44.302  20.247  14.977
11832W        W75556  32.443  19.674  13.454
11833W        W75557  26.184  16.738  14.344
11834W        W75558  19.745  37.420  13.986
11835W        W75559   4.223  42.952   3.361
11836W        W75560  22.556  22.014   3.384
11837W        W75561   7.827  14.112   3.197
11838W        W75562   3.796  32.019  12.977
11839W        W75563  37.459  43.009  13.027
11840W        W75564  32.060  27.654   3.244
11841W        W75565   9.369  35.882  11.985
11842W        W75566  13.730   0.302   0.905
11843W        W75567   6.326  11.131   0.375
11844W        W75568  25.093  23.733   4.252
11845W        W75569  22.558  34.953  11.431
11846W        W75570  24.070  41.421  10.521
11847W        W75571   1.358  38.011   2.851
11848W        W75572  38.348  28.954  12.876
11849W        W75573   1.785  27.445  14.516
11850W        W75574  31.063   8.378   3.674
11851W        W75575  12.125  44.480   1.697
11852W        W75576  11.139  11.860   2.322
11853W        W75577  11.633   6.347   9.988
11854W        W75578   5.411   0.757   0.874
11855W        W75579  44.403   6.255  10.128
11856W        W75580  37.074  26.673  11.396
11857W        W75581   1.277  13.350   0.951
11858W        W75582   0.836  19.687  12.364
11859W        W75583  15.746  39.046  11.919
11860W        W75584  29.601  26.152   0.311
11861W        W75585   0.258  22.596   0.460
11862W        W75586   2.741   8.716  11.119
11863W        W75587  19.139  41.531   4.626
11864W        W75588  29.921   2.249   2.872
11865W        W75589  43.509   3.413  10.585
11866W        W75590  44.479  25.166   4.730
11867W        W75591   0.941  26.185   1.775
11868W        W75592  21.193  30.424  13.416
11869W        W75593   7.717  12.640   2.203
11870W        W75594  27.104  18.222   1.804
11871W        W75595  16.279   8.874   3.212
11872W        W75596  15.640  39.340  12.087
11873W        W75597   8.403   3.774   0.852
11874W        W75598  35.875  41.959   4.610
11875W        W75599  14.721  11.314   3.755
11876W        W75600  41.517  41.844   1.832
11877W        W75601  37.440  26.458  12.962
11878W        W75602  25.039   8.361  10.458
11879W        W75603  36.935  35.107  12.550
11880W        W75604  17.129  32.962   3.198
11881W        W75605  27.448  16.279  12.853
11882W        W75606   8.857   1.750  14.398
11883W        W75607  15.219  38.998   3.816
11884W        W75608  39.560  42.355  13.469
11885W        W75609  44.271   7.183   0.783
11886W        W75610  36.375  33.940  12.966
11887W        W75611  24.977  35.093   0.921
11888W        W75612   8.883   1.286  12.998
11889W        W75613  31.461  36.029  11.035
11890W        W75614  28.074  36.466  12.489
11891W        W75615  19.659   9.171   0.474
11892W        W75616  20.528   3.414   3.807
11893W        W75617  31.492  18.596  12.834
11894W        W75618  27.488   9.264   2.828
11895W        W75619  26.156  25.654  10.454
11896W        W75620  44.306  28.990  11.384
11897W        W75621  28.478  20.260  10.912
11898W        W75622   6.359  41.852   0.808
11899W        W75623  42.405  16.798   0.732
11900W        W75624  12.648   6.233  14.315
11901W        W75625  34.000  11.673   3.246
11902W        W75626  40.461  28.940   0.962
11903W        W75627  17.162  25.140   9.977
11904W        W75628  43.914  28.596   2.858
11905W        W75629  10.633  43.481  14.834
11906W        W75630  13.625  23.635   3.763
11907W        W75631  39.453   7.229   2.715
11908W        W75632   5.747  40.328   4.619
11909W        W75633   7.771   8.336   1.912
11910W        W75634   7.690  12.192   1.340
11911W        W75635   6.194  32.008  11.947
11912W        W75636  37.848   5.831   0.354
11913W        W75637  25.145  26.634  13.529
11914W        W75638  31.944  32.960   1.238
11915W        W75639  38.903  21.686  12.051
11916W        W75640  13.754   7.387  12.550
11917W        W75641  38.847  20.637   2.704
11918W        W75642  21.638  39.008   1.780
11919W        W75643  27.009  20.730   4.603
11920W        W75644  16.141  26.648   3.190
11921W        W75645  13.265  20.662   0.309
11922W        W75646  24.503  36.585   0.762
11923W        W75647  39.999  14.734   4.123
11924W        W75648  32.909   8.887  14.837
11925W        W75649   4.271   3.784  13.317
11926W        W75650  25.089  37.377  14.281
11927W        W75651  43.787  10.341   0.289
11928W        W75652  16.214   7.253   0.394
11929W        W75653  17.591  24.578   0.419
11930W        W75654  32.561   4.299  13.841
11931W        W75655  28.124   4.847  11.388
11932W        W75656  11.661  38.524   0.417
11933W        W75657   3.803  12.331   1.215
11934W        W75658  31.012  23.577   1.252
11935W        W75659   8.296  42.854   3.260
11936W        W75660  41.837  40.823   3.814
11937W        W75661  11.836  11.163   2.822
11938W        W75662  43.418  14.323  14.427
11939W        W75663   7.226  44.303   0.760
11940W        W75664  30.964  32.424   0.946
11941W        W75665  21.034  24.511   4.830
11942W        W75666  39.413  26.026  10.607
11943W        W75667   7.319  43.939   1.220
11944W        W75668  30.619  23.708   0.438
11945W        W75669  25.687  23.636  14.895
11946W        W75670   1.916   1.472   4.355
11947W        W75671   7.410  39.385  11.606
11948W        W75672   9.290   2.929   3.714
11949W        W75673  36.942  20.613   0.245
11950W        W75674  21.531  23.110   3.195
11951W        W75675  13.342   9.739   1.892
11952W        W75676  41.883  10.346   3.828
11953W        W75677  23.162  34.474   3.178
11954W        W75678  11.812  15.099  12.941
11955W        W75679  29.954   5.836   0.271
11956W        W75680  19.114  29.436   1.766
11957W        W75681  42.395   7.303   0.856
11958W        W75682  20.566  38.530   0.370
11959W        W75683  27.487  42.926   2.290
11960W        W75684   9.772  37.546   3.717
11961W        W75685   4.869  28.467   3.846
11962W        W75686   5.246  35.989   3.792
11963W        W75687   3.729  17.231   4.707
11964W        W75688  28.474  12.805   2.209
11965W        W75689  38.541  31.495  12.944
11966W        W75690  39.895  39.061  10.952
11967W        W75691   0.475  11.694   0.743
11968W        W75692   8.248  20.035  12.013
11969W        W75693  37.524  31.088  10.464
11970W        W75694   6.229  27.580  13.366
11971W        W75695   5.698  30.964  14.421
11972W        W75696  19.563  23.621  12.073
11973W        W75697  26.951  28.069   1.926
11974W        W75698  33.053  31.607  14.392
11975W        W75699  22.527  22.036  12.443
11976W        W75700  24.718  14.157   2.245
11977W        W75701  17.135  40.440  13.354
11978W        W75702  25.479  41.299  13.973
11979W        W75703  33.434  20.261   4.613
11980W        W75704   9.380  22.021   3.337
11981W        W75705  41.307  17.634  13.375
11982W        W75706  11.325   8.743  11.114
11983W        W75707  19.240  28.176  12.088
11984W        W75708  15.219  37.338   2.668
11985W        W75709  24.027   8.701  14.506
11986W        W75710  39.422  28.099   4.115
11987W        W75711  14.207  23.220   4.170
11988W        W75712  22.135  23.183   0.457
11989W        W75713  20.739  39.810   2.702
11990W        W75714  25.977  21.694   3.198
11991W        W75715  30.943   3.406   3.257
11992W        W75716  44.965  33.925   2.335
11993W        W75717  39.021  14.798  11.961
11994W        W75718   7.269  13.318   4.346
11995W        W75719  23.152  28.586  12.569
11996W        W75720  43.980  24.672   1.913
11997W        W75721  25.659  12.359  14.386
11998W        W75722   4.426  27.645  13.486
11999W        W75723  34.957   8.794   3.348
12000W        W75724  30.607  33.524  14.854
12001W        W75725  24.189  44.816   1.903
12002W        W75726  43.480  31.062   3.715
12003W        W75727  12.202   5.817   0.752
12004W        W75728  14.222  20.058  11.400
12005W        W75729  24.613  37.913  11.946
12006W        W75730   9.791  26.188   2.751
12007W        W75731  24.590  21.190  12.896
12008W        W75732   3.924  12.627   3.364
12009W        W75733  31.437  24.067  12.840
12010W        W75734  16.789  44.759   4.248
12011W        W75735   7.289   9.274   4.766
12012W        W75736   6.714  11.665   3.232
12013W        W75737   6.342  22.506  12.883
12014W        W75738  18.669  24.667   0.893
12015W        W75739  18.626  44.390   4.809
12016W        W75740  19.169  31.062  12.095
12017W        W75741  13.155  29.504  14.277
12018W        W75742  35.947   3.368  12.969
12019W        W75743  30.632  18.661   0.951
12020W        W75744  12.803  33.515   3.700
12021W        W75745  39.418  40.307   1.888
12022W        W75746  41.518  12.292  14.013
12023W        W75747  30.538   0.286  13.471
12024W        W75748  29.476  21.260   3.760
12025W        W75749   6.884   0.951   3.181
12026W        W75750   5.743  37.521   3.173
12027W        W75751   6.913   1.273   4.350
12028W        W75752  34.955   4.704   0.928
12029W        W75753  22.181  34.539  13.478
12030W        W75754  13.662   0.320   2.672
12031W        W75755  10.750   2.446  12.350
12032W        W75756  11.269  25.570  10.972
12033W        W75757  15.670  35.526  11.601
12034W        W75758  17.219  37.936  10.600
12035W        W75759  43.780  29.963  14.377
12036W        W75760  38.343  38.837   3.376
12037W        W75761  32.996  16.132  12.361
12038W        W75762   0.350  38.848   4.183
12039W        W75763  35.908  42.913  13.968
12040W        W75764  44.476   3.309  10.941
12041W        W75765  39.330   4.357   3.375
12042W        W75766  16.626  16.270   2.686
12043W        W75767  17.679   6.412  11.873
12044W        W75768  28.990  29.529  11.113
12045W        W75769  20.622  35.980  12.341
12046W        W75770  28.634  18.246   1.315
12047W        W75771   0.420  33.053   2.786
12048W        W75772   4.738  39.883   0.262
12049W        W75773  21.741  22.571   3.786
12050W        W75774   4.292  33.466   2.899
12051W        W75775  32.593   9.207  13.330
12052W        W75776  17.607   8.747  11.875
12053W        W75777   1.383  29.635  11.601
12054W        W75778  22.517  20.034   1.256
12055W        W75779  39.548  12.781  11.086
12056W        W75780  35.027  20.093  10.994
12057W        W75781   2.864  36.926  14.789
12058W        W75782  14.728  41.338  10.151
12059W        W75783  12.157   3.775  11.060
12060W        W75784  14.182   5.234   3.679
12061W        W75785  12.270  36.377  12.036
12062W        W75786  14.095  26.514   0.288
12063W        W75787  14.304  16.083   4.246
12064W        W75788  43.834  40.825   2.847
12065W        W75789  19.620  20.124  14.471
12066W        W75790  26.579  12.347   1.395
12067W        W75791  41.861  34.978   1.328
12068W        W75792   4.919  17.578   3.297
12069W        W75793  32.043  23.095   4.716
12070W        W75794  11.786  15.621  11.087
12071W        W75795  42.791  27.645  11.973
12072W        W75796   4.242  29.100   4.622
12073W        W75797   9.748  12.770  10.625
12074W        W75798  43.823   9.818   3.732
12075W        W75799  38.559  33.560  14.459
12076W        W75800  41.969  20.739   5.122
12077W        W75801  12.353  44.499   1.424
12078W        W75802   0.412  32.098  10.903
12079W        W75803  36.475   9.854  11.984
12080W        W75804  10.824  30.613   2.295
12081W        W75805   9.393   6.302   0.456
12082W        W75806  23.068  27.686   0.898
12083W        W75807  18.591   9.179   4.829
12084W        W75808  26.606  42.813   3.816
12085W        W75809  41.937  14.682   2.895
12086W        W75810  19.777  19.743   3.693
12087W        W75811   3.731  41.350   1.883
12088W        W75812  22.220   8.787   3.249
12089W        W75813  20.079  28.651   3.194
12090W        W75814  17.155  32.633   4.605
12091W        W75815   0.248   6.769  11.924
12092W        W75816  27.016  31.923  14.858
12093W        W75817  26.465  43.474   0.374
12094W        W75818  11.758  33.522  14.947
12095W        W75819  34.574  37.548  14.989
12096W        W75820  36.927  24.986  11.532
12097W        W75821  38.357  39.529   1.392
12098W        W75822  24.707  16.182  12.464
12099W        W75823  20.622  11.312   3.261
12100W        W75824  38.927   8.780   0.922
12101W        W75825  35.082  24.606  10.934
12102W        W75826  31.041  42.460  12.496
12103W        W75827  21.644  28.932   1.422
12104W        W75828   0.775   0.287   1.223
12105W        W75829  11.781  26.501   4.680
12106W        W75830  32.894  11.225  11.898
12107W        W75831  31.041  27.668  14.409
12108W        W75832  19.268  30.650   0.775
12109W        W75833   6.686  44.433  12.884
12110W        W75834   9.153  33.521  11.553
12111W        W75835  42.502  36.916   5.270
12112W        W75836  34.408  37.350   4.770
12113W        W75837  44.299  11.179  13.873
12114W        W75838  34.388  12.836   1.353
12115W        W75839  17.715   0.430   0.757
12116W        W75840  23.731  10.825   3.246
12117W        W75841  38.060  40.518   3.214
12118W        W75842  15.228  27.506   3.220
12119W        W75843  31.562  17.276   4.777
12120W        W75844   8.770  35.938   3.758
12121W        W75845  38.969  31.094   2.676
12122W        W75846  40.021  13.712   0.438
12123W        W75847  33.983   7.846   3.170
12124W        W75848  13.295  44.882   4.208
12125W        W75849  18.095  28.070  14.914
12126W        W75850  38.858  20.745  13.890
12127W        W75851  14.151  15.617  11.885
12128W        W75852  31.468  43.778  14.840
12129W        W75853  29.924  28.618  11.440
12130W        W75854  20.665  16.779   4.138
12131W        W75855  40.474  39.997   1.765
12132W        W75856  37.886  31.640   1.879
12133W        W75857  20.653  26.457   2.378
12134W        W75858   0.251  19.706  14.831
12135W        W75859  32.409  21.225   3.705
12136W        W75860  10.358  24.131   2.352
12137W        W75861  14.717  30.967   2.247
12138W        W75862  32.427  42.490  13.853
12139W        W75863  17.792  24.138  11.480
12140W        W75864  15.688  27.473   4.198
12141W        W75865   7.390   0.762  11.445
12142W        W75866  23.181  35.959  11.897
12143W        W75867  21.725   4.722   1.717
12144W        W75868   2.266  28.949   2.881
12145W        W75869  14.762   3.939   9.643
12146W        W75870  33.599  38.906  14.884
12147W        W75871  26.104  40.961   3.202
12148W        W75872  28.124  41.988   1.335
12149W        W75873  23.156  20.639  12.378
12150W        W75874  44.425  13.764   3.662
12151W        W75875  20.131  12.359   3.745
12152W        W75876  36.504  39.519  12.871
12153W        W75877   6.185   9.647  13.540
12154W        W75878  36.467  23.085   3.383
12155W        W75879  22.057  11.264   1.340
12156W        W75880  27.545  43.957   4.625
12157W        W75881  12.779  17.208   1.786
12158W        W75882  39.446  36.063  13.918
12159W        W75883   3.400  25.198  14.810
12160W        W75884  30.414  39.418   2.382
12161W        W75885   0.832  24.159  13.435
12162W        W75886  31.090  17.112  11.863
12163W        W75887  13.605  40.836  12.580
12164W        W75888  21.706   6.859  14.865
12165W        W75889  32.511  15.275  14.461
12166W        W75890   8.307  21.135  13.944
12167W        W75891  40.863   5.299   3.159
12168W        W75892  40.513  44.372   1.913
12169W        W75893  39.383  38.905   1.356
12170W        W75894   1.249  36.431   2.261
12171W        W75895  34.006  18.635  13.879
12172W        W75896  11.758  38.943  13.839
12173W        W75897  41.408  28.063  12.433
12174W        W75898  44.274  35.013   4.766
12175W        W75899  22.727   4.761  11.436
12176W        W75900  23.652  25.644  10.415
12177W        W75901   7.777  36.379  14.461
12178W        W75902   3.752  43.962   0.395
12179W        W75903  24.100  44.962   3.242
12180W        W75904  40.988  38.051   0.446
12181W        W75905  12.617   5.302  14.514
12182W        W75906  12.258  42.368  13.914
12183W        W75907  20.545   7.824   1.272
12184W        W75908  35.994  19.099   1.419
12185W        W75909  35.393  31.431  10.462
12186W        W75910  12.614  18.773   3.239
12187W        W75911  22.112  19.716   3.673
12188W        W75912  31.067  35.862  12.062
12189W        W75913   4.305  16.094  13.041
12190W        W75914  39.810  28.103  11.909
12191W        W75915   2.912  16.681  14.490
12192W        W75916  26.194  16.199  12.931
12193W        W75917   7.303  11.135   3.203
12194W        W75918   2.471  43.925   4.261
12195W        W75919  16.777  21.720   4.324
12196W        W75920   6.235  16.214   1.246
12197W        W75921  19.742  10.764   2.735
12198W        W75922  15.219   2.382  11.504
12199W        W75923  17.252   6.806  10.894
12200W        W75924   9.153  11.699  14.994
12201W        W75925  33.595  20.115   2.317
12202W        W75926   4.746  25.500   1.896
12203W        W75927  16.162  17.796   2.757
12204W        W75928   9.645  29.510  12.997
12205W        W75929  33.512  32.407   1.752
12206W        W75930  40.015  19.260   0.841
12207W        W75931  27.134  43.503  14.352
12208W        W75932  23.112   6.223  12.033
12209W        W75933  32.999   3.914   1.351
12210W        W75934   3.786  20.751  14.869
12211W        W75935   2.797   5.377  14.407
12212W        W75936   1.436  20.726  14.490
12213W        W75937  33.572  18.759  12.988
12214W        W75938  23.610  30.657  14.834
12215W        W75939  44.866  34.955  11.095
12216W        W75940  20.063  10.219   3.819
12217W        W75941  35.601  32.093  13.953
12218W        W75942  25.592  22.622   0.881
12219W        W75943  34.455  31.059  11.076
12220W        W75944   5.340   7.184  10.465
12221W        W75945  29.103  31.486   1.330
12222W        W75946  44.400  26.134  11.538
12223W        W75947  25.176  40.434   4.201
12224W        W75948  23.569  28.557  12.393
12225W        W75949  12.238   8.901  14.419
12226W        W75950  19.182  34.116   2.184
12227W        W75951  34.467  23.989  13.908
12228W        W75952   2.843   5.814   4.276
12229W        W75953  25.521   2.924   0.462
12230W        W75954  34.551  34.913   3.167
12231W        W75955  38.967  28.582  11.905
12232W        W75956  35.977  19.079   2.179
12233W        W75957  14.283   4.298  12.944
12234W        W75958  16.639  28.550  11.035
12235W        W75959  15.114  22.079   0.423
12236W        W75960  21.193   7.708   4.736
12237W        W75961  32.473  21.033   2.383
12238W        W75962  42.367  20.561   1.742
12239W        W75963  22.709  35.405   0.245
12240W        W75964  39.446  13.629  13.820
12241W        W75965   2.959  32.409  12.980
12242W        W75966   1.880  35.890  10.983
12243W        W75967  41.916   7.337  10.629
12244W        W75968   5.324   8.314   1.355
12245W        W75969  14.670  17.676   1.261
12246W        W75970   1.975  36.097  14.847
12247W        W75971  10.804  40.457   2.849
12248W        W75972  38.373  29.473   3.675
12249W        W75973  27.455   7.856  10.442
12250W        W75974  10.363  22.177  11.540
12251W        W75975  44.394  36.470   5.643
12252W        W75976  28.525  23.547   4.680
12253W        W75977  29.975  16.183  13.354
12254W        W75978  38.940   4.854  12.402
12255W        W75979  13.133  42.022  11.390
12256W        W75980  14.743   5.759  12.573
12257W        W75981   7.758   9.308   4.230
12258W        W75982  29.029  18.615   4.307
12259W        W75983  35.860   5.867   2.397
12260W        W75984   9.733   9.702  10.486
12261W        W75985  18.243  39.349  14.504
12262W        W75986  23.585  23.574   2.182
12263W        W75987  34.532   2.828  10.533
12264W        W75988   4.714  23.572  10.429
12265W        W75989  22.639  30.150   2.684
12266W        W75990  41.984   1.463   2.352
12267W        W75991  24.597  12.325   1.694
12268W        W75992  34.568  27.599  12.419
12269W        W75993  29.994  23.996  12.573
12270W        W75994  25.143  11.165   3.779
12271W        W75995  26.484  18.659   0.967
12272W        W75996  13.305  37.490   2.412
12273W        W75997  18.717  11.671  13.322
12274W        W75998  37.470  24.502  12.071
12275W        W75999  10.367  17.278  14.484
12276W        W76000  42.941  29.515   3.176
12277W        W76001  26.634  12.153   4.173
12278W        W76002  21.588  42.467  14.850
12279W        W76003   2.246  18.562   3.849
12280W        W76004  19.608  16.701  14.369
12281W        W76005  41.029  22.026   1.228
12282W        W76006  38.928   2.922  11.905
12283W        W76007  24.079  36.505   3.277
12284W        W76008   1.392  32.598  11.393
12285W        W76009   8.786  29.115   1.401
12286W        W76010  38.037  12.150  12.550
12287W        W76011   2.255  28.601   3.769
12288W        W76012  20.746  31.048   0.811
12289W        W76013   9.874  28.104   4.801
12290W        W76014  26.116  17.202  11.520
12291W        W76015  24.030  31.115  11.574
12292W        W76016  44.826  10.284   4.300
12293W        W76017  28.107  24.651   3.870
12294W        W76018  40.479   8.255  11.913
12295W        W76019  19.678  30.147  14.414
12296W        W76020  10.689  33.127  11.924
12297W        W76021  41.911  35.552   1.784
12298W        W76022   1.419  38.556  13.396
12299W        W76023  24.048  38.066  13.455
12300W        W76024  33.096  26.114   2.332
12301W        W76025  21.735   8.797   1.363
12302W        W76026  37.505   5.806  14.023
12303W        W76027   8.210  38.490   0.818
12304W        W76028  26.588  36.389   0.252
12305W        W76029  25.994  18.131   4.743
12306W        W76030  25.084  44.350   3.385
12307W        W76031   3.369  18.646  11.977
12308W        W76032   2.323  16.579  13.348
12309W        W76033  26.138   3.930  13.927
12310W        W76034  28.039   2.429  12.541
12311W        W76035  26.106  11.737  11.904
12312W        W76036  37.452  40.934  14.427
12313W        W76037  26.117  39.972  14.825
12314W        W76038  34.593  36.541   0.337
12315W        W76039  20.622   2.806  12.580
12316W        W76040  37.406  18.548   4.354
12317W        W76041  31.568  42.372   1.730
12318W        W76042  12.234  32.414  13.980
12319W        W76043  19.533  13.159  13.002
12320W        W76044   8.300  43.463  11.861
12321W        W76045  32.517   0.311  13.417
12322W        W76046  23.727  15.208  14.420
12323W        W76047  43.288  10.775  11.603
12324W        W76048  27.033  31.566   1.793
12325W        W76049   5.212   2.848   1.706
12326W        W76050   7.850  19.539   4.713
12327W        W76051  12.163   8.824   1.817
12328W        W76052  21.512   0.881   4.629
12329W        W76053  25.664  31.537   4.243
12330W        W76054  12.293  20.114   4.622
12331W        W76055   4.890   5.690  14.301
12332W        W76056  15.630  10.726  12.439
12333W        W76057  44.284  44.398   1.784
12334W        W76058   9.226  12.189   0.465
12335W        W76059   6.254  19.632  12.910
12336W        W76060  26.053  21.078   0.422
12337W        W76061  11.260  13.188  11.600
12338W        W76062  23.574  35.429  11.922
12339W        W76063  19.139  29.431  13.346
12340W        W76064  40.302  38.902   5.262
12341W        W76065  27.178   1.936   0.759
12342W        W76066  39.848  17.194   3.195
12343W        W76067  36.407  24.059   5.164
12344W        W76068  34.538  19.147   0.860
12345W        W76069  39.007  16.613  12.520
12346W        W76070  36.994  22.697   3.268
12347W        W76071  27.580   4.836   4.628
12348W        W76072   4.436  23.066  12.578
12349W        W76073  22.120  11.680  10.980
12350W        W76074  20.125  37.581  12.829
12351W        W76075  11.264  22.570   1.837
12352W        W76076   2.273  43.783  13.884
12353W        W76077  24.599  26.471   0.291
12354W        W76078  12.133  21.547  11.447
12355W        W76079  40.465   4.923  13.450
12356W        W76080   4.702  22.733   1.848
12357W        W76081  20.626  35.569  12.031
12358W        W76082  14.669  25.494  11.865
12359W        W76083  18.088  42.502   0.887
12360W        W76084  33.907  23.133  12.979
12361W        W76085  33.615   9.363  10.622
12362W        W76086  32.400  32.508  10.573
12363W        W76087  31.066  10.836   0.372
12364W        W76088  41.416  29.170   1.734
12365W        W76089  34.929   4.233   4.836
12366W        W76090  15.791  44.783   4.734
12367W        W76091   0.443  30.461   0.833
12368W        W76092  33.032  36.368   3.781
12369W        W76093  31.623  34.374  13.014
12370W        W76094  12.720  39.315   0.816
12371W        W76095  24.526   6.382   3.699
12372W        W76096  43.315   9.273  10.513
12373W        W76097  40.337  16.200  13.449
12374W        W76098  34.953  19.727   1.419
12375W        W76099   0.934  16.575   4.811
12376W        W76100   0.415  13.191   2.269
12377W        W76101  32.033   8.303   0.912
12378W        W76102  26.600  17.127   2.845
12379W        W76103  27.554  35.853   3.722
12380W        W76104   7.890  11.276   1.869
12381W        W76105  42.367  14.730   1.878
12382W        W76106  37.508  36.024   3.833
12383W        W76107  44.844  22.065  12.096
12384W        W76108  18.261   0.847   0.761
12385W        W76109  29.589   0.769   5.202
12386W        W76110   0.266  37.056   3.715
12387W        W76111  33.426   3.917  11.555
12388W        W76112  30.533  41.872   3.794
12389W        W76113   6.822  19.653   0.447
12390W        W76114  17.790   4.216   9.637
12391W        W76115  10.726  22.596   4.167
12392W        W76116   1.908  12.319  11.955
12393W        W76117  10.666  36.373   3.635
12394W        W76118  19.270  41.840   4.187
12395W        W76119  21.630  31.474   1.402
12396W        W76120  35.087  44.867   3.187
12397W        W76121  34.112   2.357   2.883
12398W        W76122  17.098  11.712  11.987
12399W        W76123   3.323  20.590   0.376
12400W        W76124  41.786   0.364  14.815
12401W        W76125  35.869  21.685   2.269
12402W        W76126  26.483  13.343  11.548
12403W        W76127  33.439  30.435  14.931
12404W        W76128  17.627   2.943   4.215
12405W        W76129  42.465  14.168  12.954
12406W        W76130  23.156  18.726   0.835
12407W        W76131  39.032  13.189  13.331
12408W        W76132   8.835  40.946   4.633
12409W        W76133  10.853  26.139   3.803
12410W        W76134  15.110  37.846   0.746
12411W        W76135  36.990  33.072  11.967
12412W        W76136  30.422  11.635  13.974
12413W        W76137  29.129  29.957   3.231
12414W        W76138  18.766  25.657  12.509
12415W        W76139  27.479   6.389  11.958
12416W        W76140  22.566  20.527  14.286
12417W        W76141  29.599  18.265  11.045
12418W        W76142  36.950  43.514  12.385
12419W        W76143  28.054  37.510   4.263
12420W        W76144  42.328  29.008  13.001
12421W        W76145   5.298  20.538  14.449
12422W        W76146  26.998  10.832   4.714
12423W        W76147  38.975  12.141   1.350
12424W        W76148  18.741  33.564   2.364
12425W        W76149  37.496  12.225  11.482
12426W        W76150  11.147  29.070   4.243
12427W        W76151  18.780  16.578   4.261
12428W        W76152  35.879  41.995   2.263
12429W        W76153  25.033  24.619   1.392
12430W        W76154  13.678  31.502  14.778
12431W        W76155  16.204  38.538   1.758
12432W        W76156  33.430  12.204  10.986
12433W        W76157  40.527  38.463   4.138
12434W        W76158  39.332  39.541  13.453
12435W        W76159  25.615   1.332   2.842
12436W        W76160  24.605  37.968   1.738
12437W        W76161  26.598  30.606   3.844
12438W        W76162  12.700   1.386   4.644
12439W        W76163   2.316  44.907  10.436
12440W        W76164  10.317  16.805   3.652
12441W        W76165  36.885   2.421   3.754
12442W        W76166  18.067  37.400  12.000
12443W        W76167   4.439  38.877   3.219
12444W        W76168  23.993   6.301   3.270
12445W        W76169  31.978  13.264   4.679
12446W        W76170  15.701  22.720   0.457
12447W        W76171   0.292   8.830  14.835
12448W        W76172  13.643  41.932  10.440
12449W        W76173   4.784   8.265  12.906
12450W        W76174   3.805   8.312  10.980
12451W        W76175   3.432   8.257   2.723
12452W        W76176  36.033   1.443  14.320
12453W        W76177  16.798  23.508  11.875
12454W        W76178   8.174  31.091  10.630
12455W        W76179   2.812  14.173  11.606
12456W        W76180  31.581  30.983   0.881
12457W        W76181  29.941  27.066   0.328
12458W        W76182  29.599   0.431   2.256
12459W        W76183  44.363  29.064   3.298
12460W        W76184  23.651  21.725   2.859
12461W        W76185  27.447   0.796  11.396
12462W        W76186  31.619  35.519   0.334
12463W        W76187  34.388   5.756   4.794
12464W        W76188  17.150  35.535   1.441
12465W        W76189  36.850  12.196   2.830
12466W        W76190  44.271  12.840   4.678
12467W        W76191  10.147  33.594   4.207
12468W        W76192  20.217  10.760   1.909
12469W        W76193  16.649  28.037   2.789
12470W        W76194  11.701  19.696   4.719
12471W        W76195  30.955  20.268   0.895
12472W        W76196  12.176  27.042  14.400
12473W        W76197  21.172  24.484   0.877
12474W        W76198  20.231  40.853  11.975
12475W        W76199  22.109  34.502  12.019
12476W        W76200  42.460   7.293  13.548
12477W        W76201  21.640  18.762  13.986
12478W        W76202   3.778  42.327   4.804
12479W        W76203  21.587  27.601  11.583
12480W        W76204  37.572  33.012  10.102
12481W        W76205  26.188  16.251  11.502
12482W        W76206   3.279   8.832   1.894
12483W        W76207   3.718  21.177   3.306
12484W        W76208  36.486  17.172  14.311
12485W        W76209  44.307  23.115   1.755
12486W        W76210  16.596  24.003  11.411
12487W        W76211  27.078  25.057   1.848
12488W        W76212   6.265  14.320   0.382
12489W        W76213  32.416   5.370   1.366
12490W        W76214  11.371  10.301  14.384
12491W        W76215  39.530  27.458  12.879
12492W        W76216   4.879  14.721   4.715
12493W        W76217   6.306  25.094  14.384
12494W        W76218  13.202  15.753   1.852
12495W        W76219   3.857  19.052   1.350
12496W        W76220  43.919  31.906  14.804
12497W        W76221  39.056  25.075  12.067
12498W        W76222  11.631  35.516  14.970
12499W        W76223  16.705  11.744  13.331
12500W        W76224  39.474  28.440   0.738
12501W        W76225  34.997  21.139  12.093
12502W        W76226  35.490  20.539  12.553
12503W        W76227  19.555  34.902  13.445
12504W        W76228  38.522   5.705  13.971
12505W        W76229  21.625   1.434   4.664
12506W        W76230   5.320   5.834   0.965
12507W        W76231  24.651   1.845  14.828
12508W        W76232   4.839   6.352   5.140
12509W        W76233  23.104  11.858  11.025
12510W        W76234  38.046  20.753   2.781
12511W        W76235  17.123   9.370   1.340
12512W        W76236  39.977   8.716   2.273
12513W        W76237  32.980  43.399  12.950
12514W        W76238  36.464  43.786   3.745
12515W        W76239  19.557   9.219  13.339
12516W        W76240  29.113  10.774  12.568
12517W        W76241  33.079  35.550   2.680
12518W        W76242  17.585   6.723  10.416
12519W        W76243  15.270  24.565   1.837
12520W        W76244   3.386   5.878  12.371
12521W        W76245  33.086  28.534  14.442
12522W        W76246   7.838   5.423  14.424
12523W        W76247   3.734  42.991  12.986
12524W        W76248   6.915  38.840   2.700
12525W        W76249   8.804  36.411   1.762
12526W        W76250  29.124  30.036  14.321
12527W        W76251  25.975  29.956  10.094
12528W        W76252  43.018  16.087  13.842
12529W        W76253  10.656  20.545  13.060
12530W        W76254  29.112  30.617  13.802
12531W        W76255  35.053   5.350  11.928
12532W        W76256  26.097  44.387   0.948
12533W        W76257  25.047   6.246  13.509
12534W        W76258  29.969  13.191   3.206
12535W        W76259  17.741  33.968  13.378
12536W        W76260  12.322  44.355  14.379
12537W        W76261   6.796  21.177  11.422
12538W        W76262  13.699  26.620  12.357
12539W        W76263  19.680  43.976  11.934
12540W        W76264  38.886  39.381   3.309
12541W        W76265  20.535  34.395  14.928
12542W        W76266   6.248  22.073   4.732
12543W        W76267  39.496  25.546   2.687
12544W        W76268  25.475   5.435   3.721
12545W        W76269  13.792   0.805  14.384
12546W        W76270  39.030  23.537  10.427
12547W        W76271  39.848  18.758  12.339
12548W        W76272  22.535  12.787  12.045
12549W        W76273   9.716   5.829   2.741
12550W        W76274  17.065  20.058   1.793
12551W        W76275   6.709  43.873   2.782
12552W        W76276   3.217  21.144   4.620
12553W        W76277   0.440  10.818  10.547
12554W        W76278  15.597  22.227   0.950
12555W        W76279  35.080  13.334   1.930
12556W        W76280  41.425  12.784  10.527
12557W        W76281  14.784  12.696   4.332
12558W        W76282  26.000  34.403  10.963
12559W        W76283  18.255  12.817  13.902
12560W        W76284   0.758   9.875  14.817
12561W        W76285  12.763   0.977  13.867
12562W        W76286   7.196  36.097   0.412
12563W        W76287   0.749   9.226   0.958
12564W        W76288  37.923  13.245   0.958
12565W        W76289  17.768  42.487   1.852
12566W        W76290   2.953  18.195  14.457
12567W        W76291  29.147   8.306  11.028
12568W        W76292  30.418  31.949  14.487
12569W        W76293  15.727   2.407   5.235
12570W        W76294  22.077   7.348   4.799
12571W        W76295   5.759  19.605   0.467
12572W        W76296  15.702  37.373   0.948
12573W        W76297  25.021  18.062   0.340
12574W        W76298   5.890  34.981  11.404
12575W        W76299   0.882   4.411  11.903
12576W        W76300  38.382  16.107   2.747
12577W        W76301  17.720  30.506   3.782
12578W        W76302  42.781  21.677  10.977
12579W        W76303  28.025   3.451  10.410
12580W        W76304   0.979  26.696   2.242
12581W        W76305  21.739  21.663  12.437
12582W        W76306  38.506  15.655   2.389
12583W        W76307   9.200  14.834  11.039
12584W        W76308  17.195  11.347   3.315
12585W        W76309  11.353  19.280   2.385
12586W        W76310  18.193   5.762   4.338
12587W        W76311  34.527   8.733  14.486
12588W        W76312  41.318  18.626   1.440
12589W        W76313   0.972  26.096   4.231
12590W        W76314   9.367   4.940  10.961
12591W        W76315  41.347   9.841   0.901
12592W        W76316  44.446   4.764   1.286
12593W        W76317   2.396   9.240  12.373
12594W        W76318  36.041  24.029   2.900
12595W        W76319  25.678   7.302   9.964
12596W        W76320  34.480  36.379  12.534
12597W        W76321   0.439  29.441  12.017
12598W        W76322  44.009  25.004  12.000
12599W        W76323  40.004  24.494   2.314
12600W        W76324  35.890   4.277  14.369
12601W        W76325  18.254  12.621   3.295
12602W        W76326   7.266  12.723   4.810
12603W        W76327  22.542  28.967  12.945
12604W        W76328  15.596   0.374  10.908
12605W        W76329   4.839  22.707  14.804
12606W        W76330  21.253  43.368   1.728
12607W        W76331   2.460   3.400   9.973
12608W        W76332  23.724   7.245  11.051
12609W        W76333  30.994  37.973  11.954
12610W        W76334  18.220  10.746  10.938
12611W        W76335  34.404  44.007   2.758
12612W        W76336  14.803  30.625   1.219
12613W        W76337  36.992  40.320  13.461
12614W        W76338  15.262   3.855  11.061
12615W        W76339  39.911  44.757  13.990
12616W        W76340  15.633  21.030  13.342
12617W        W76341  36.389  28.533   0.745
12618W        W76342  29.624   4.918  11.492
12619W        W76343  18.208  13.839   1.801
12620W        W76344   6.262   7.382  12.916
12621W        W76345  38.928  44.952  12.579
12622W        W76346  37.919  19.718  10.416
12623W        W76347   3.370  42.339  10.953
12624W        W76348  23.545  34.607   0.243
12625W        W76349  28.538   0.250  13.409
12626W        W76350   0.443   7.285  12.012
12627W        W76351  35.871  26.044  12.852
12628W        W76352  27.507  22.188   2.306
12629W        W76353  41.330  32.561  10.455
12630W        W76354   7.840  41.523   4.784
12631W        W76355  22.518  42.382   2.269
12632W        W76356  24.625   7.793   3.689
12633W        W76357  26.470  35.480   3.166
12634W        W76358  27.610  10.637   4.744
12635W        W76359  38.437  29.429   1.873
12636W        W76360  42.464   2.805   0.337
12637W        W76361   4.402   3.423   2.262
12638W        W76362  34.414  38.371  11.990
12639W        W76363   8.221  15.648  12.090
12640W        W76364  13.170  13.292   2.289
12641W        W76365   4.270  36.368  14.004
12642W        W76366   5.864  13.699  12.881
12643W        W76367  34.472  17.170  14.835
12644W        W76368  27.634  34.120  14.899
12645W        W76369  28.613  36.015  13.438
12646W        W76370  37.979  20.243   0.956
12647W        W76371   6.798   5.711   4.744
12648W        W76372   8.899  34.106   3.658
12649W        W76373  22.044  13.767  12.354
12650W        W76374  40.993  15.644  13.379
12651W        W76375  12.169  41.379   0.799
12652W        W76376  39.488  44.311  14.871
12653W        W76377  31.585  15.606   3.343
12654W        W76378   5.760  34.009   3.806
12655W        W76379  24.207  42.848   0.477
12656W        W76380   3.941  11.237  10.552
12657W        W76381  44.891  18.147  14.015
12658W        W76382  17.158   3.815  10.123
12659W        W76383   8.295  36.905  11.990
12660W        W76384  25.189  18.716  11.110
12661W        W76385  42.861  27.997   2.802
12662W        W76386  13.206  10.299   5.140
12663W        W76387  21.661  37.559  12.989
12664W        W76388  19.671   7.699   4.344
12665W        W76389  19.676  30.543  10.951
12666W        W76390  32.057  14.297  11.958
12667W        W76391  26.468  43.934   0.907
12668W        W76392  22.578  29.546  12.067
12669W        W76393   9.800  25.708  11.476
12670W        W76394  35.543   9.263   1.760
12671W        W76395  32.085  44.331  13.548
12672W        W76396  11.848  40.392  13.427
12673W        W76397  15.107   1.374  12.377
12674W        W76398  29.119  29.489   0.309
12675W        W76399  33.397  28.597   3.753
12676W        W76400  35.012   3.423   0.754
12677W        W76401  21.096  14.337  14.924
12678W        W76402  33.931   5.313   1.742
12679W        W76403   6.274   5.260   3.777
12680W        W76404   0.922  12.614  11.406
12681W        W76405   4.736  24.721   4.636
12682W        W76406  32.559  30.061   3.196
12683W        W76407  14.742   8.345  14.822
12684W        W76408  23.667  26.994   2.185
12685W        W76409  23.222   7.262   0.281
12686W        W76410  29.566  42.883  12.493
12687W        W76411  22.195  35.521  11.901
12688W        W76412  33.481   1.427   3.660
12689W        W76413   7.686  39.962   2.666
12690W        W76414  37.019  38.542   1.294
12691W        W76415  22.706  27.562   0.373
12692W        W76416  26.583  35.571  12.340
12693W        W76417   6.775  22.131   0.447
12694W        W76418  10.747   5.810   1.924
12695W        W76419  24.128   6.362  14.819
12696W        W76420  31.046  10.223   9.964
12697W        W76421   6.397  28.170   4.347
12698W        W76422   1.242  14.125  13.892
12699W        W76423  18.644   0.321   3.149
12700W        W76424  23.634  26.482  13.874
12701W        W76425  29.156  26.643  12.943
12702W        W76426  27.469  16.626  11.536
12703W        W76427   7.257  32.452  14.980
12704W        W76428  21.050  38.479  12.974
12705W        W76429  30.051  18.753  13.920
12706W        W76430   0.933   3.878  11.885
12707W        W76431  13.195  11.839  13.415
12708W        W76432  42.864  29.040  10.569
12709W        W76433  36.433  31.935  10.139
12710W        W76434  36.589  23.139  11.916
12711W        W76435  44.760  24.514  14.315
12712W        W76436  37.867  28.610   3.659
12713W        W76437   9.840   5.414  13.998
12714W        W76438  43.400  34.601  14.003
12715W        W76439   7.720  43.975   0.398
12716W        W76440   2.802  15.086   2.234
12717W        W76441  23.663  20.255   3.369
12718W        W76442  10.806  35.893  12.922
12719W        W76443  14.184  42.960   3.301
12720W        W76444  26.626  44.792   3.238
12721W        W76445  10.735  27.126  11.515
12722W        W76446  41.309  25.966   1.798
12723W        W76447  18.283  28.019  13.969
12724W        W76448  17.644  32.555  11.466
12725W        W76449  13.298   7.905  13.949
12726W        W76450  43.513  43.826  12.894
12727W        W76451  14.720  42.904   3.236
12728W        W76452  24.672  18.170  14.758
12729W        W76453  22.608  18.149   3.802
12730W        W76454   9.779  25.707   3.755
12731W        W76455  29.034  42.924  10.904
12732W        W76456  29.986  36.903   4.153
12733W        W76457   7.208  22.021   0.445
12734W        W76458  43.019  25.048   0.327
12735W        W76459   3.952  10.296   0.430
12736W        W76460  42.340  41.473  13.379
12737W        W76461   3.876  37.445   5.215
12738W        W76462  42.784   1.894   1.257
12739W        W76463  14.620  26.553  14.291
12740W        W76464   1.766   4.316  14.031
12741W        W76465  16.171  20.734   3.354
12742W        W76466   2.770  27.518   0.951
12743W        W76467  13.228  32.088  13.012
12744W        W76468  10.771  13.616  12.967
12745W        W76469  39.020  19.760   0.277
12746W        W76470   2.732  37.884   1.258
12747W        W76471  37.978  14.729  14.870
12748W        W76472  26.187  28.625   4.136
12749W        W76473  15.259  11.837   3.251
12750W        W76474   0.450  28.512   4.795
12751W        W76475  43.378  25.178  13.955
12752W        W76476  37.004  44.271   1.738
12753W        W76477  26.136  41.436  13.456
12754W        W76478   6.375   2.291  10.471
12755W        W76479  18.629  13.654  13.999
12756W        W76480  22.082  26.476  12.952
12757W        W76481  20.656  34.069   3.644
12758W        W76482  33.503  27.034   4.675
12759W        W76483   2.389  17.274  13.866
12760W        W76484   3.875  39.858  14.860
12761W        W76485  22.146  29.058   2.395
12762W        W76486  18.219   5.797  12.089
12763W        W76487   0.262   6.768   4.634
12764W        W76488  34.426  23.491   3.729
12765W        W76489  39.486   1.951  10.629
12766W        W76490   6.704   1.240  11.977
12767W        W76491  37.563  36.501  12.942
12768W        W76492  34.009  32.443  12.466
12769W        W76493  30.970  20.691  13.035
12770W        W76494  22.026  25.476   4.742
12771W        W76495  19.064  25.599   3.380
12772W        W76496  25.527   0.335   4.739
12773W        W76497  11.846  41.524   5.320
12774W        W76498  26.064  10.240   3.179
12775W        W76499   1.733   7.761  12.941
12776W        W76500  13.227   5.691  11.942
12777W        W76501  13.318  32.084   5.265
12778W        W76502  28.147  35.430  14.394
12779W        W76503   7.323   4.362   3.319
12780W        W76504  22.998  34.369  10.896
12781W        W76505  14.127   7.774  13.005
12782W        W76506  20.557   4.802  12.579
12783W        W76507  28.014  24.040   4.118
12784W        W76508  31.567  35.448   2.801
12785W        W76509  31.503  43.998  13.448
12786W        W76510  17.213  18.275  10.536
12787W        W76511  24.110  26.518   5.269
12788W        W76512  33.942  37.421   1.821
12789W        W76513  42.019   7.318  12.825
12790W        W76514   0.868  11.318   1.392
12791W        W76515  25.126   4.215   1.711
12792W        W76516   8.727  16.574   2.782
12793W        W76517   2.819  26.489  13.524
12794W        W76518  28.082  23.647  10.539
12795W        W76519  38.043  34.905  11.079
12796W        W76520  12.169  29.508   3.357
12797W        W76521  29.439  38.454  12.926
12798W        W76522  16.775  23.147   0.955
12799W        W76523  29.425   4.404   0.292
12800W        W76524  14.337  37.852   1.352
12801W        W76525  14.603  29.494   4.347
12802W        W76526  22.557  24.992  12.839
12803W        W76527  12.813   8.200  11.063
12804W        W76528  13.252  35.452   2.411
12805W        W76529  21.645  36.419   5.802
12806W        W76530  44.361  35.887   0.852
12807W        W76531  30.135  41.871  14.999
12808W        W76532  27.959  30.094   3.265
12809W        W76533   2.956  23.575   3.701
12810W        W76534  31.460   6.731   1.248
12811W        W76535  41.904  26.088   2.201
12812W        W76536  43.384  29.451  11.542
12813W        W76537  14.290   4.335  14.424
12814W        W76538  32.504   5.739  12.017
12815W        W76539  22.089  10.288   2.671
12816W        W76540  39.330  11.720   3.226
12817W        W76541  41.459  39.981   1.414
12818W        W76542   3.250  38.560  14.305
12819W        W76543  29.983   9.840   4.285
12820W        W76544  37.846  33.982  13.054
12821W        W76545  17.083  17.103  12.417
12822W        W76546  17.086  23.166   4.665
12823W        W76547  14.817  38.394   0.372
12824W        W76548  31.438  39.971   1.892
12825W        W76549  30.114   4.376  11.485
12826W        W76550  12.241  43.425  14.997
12827W        W76551  26.080  40.482   3.252
12828W        W76552   0.421  44.292  14.023
12829W        W76553  43.513  28.050  13.932
12830W        W76554  17.072  25.592   2.408
12831W        W76555  32.052  22.193  14.887
12832W        W76556  16.673  30.547  14.989
12833W        W76557  15.223   0.766   0.253
12834W        W76558  15.257  40.394   2.209
12835W        W76559  27.185  22.582   0.303
12836W        W76560  30.938  36.046   4.800
12837W        W76561  27.192  19.706  13.341
12838W        W76562  33.582   7.314   4.810
12839W        W76563  20.563  28.531   0.756
12840W        W76564  20.577  36.890   0.888
12841W        W76565  23.496  11.300   3.219
12842W        W76566  16.121  37.016  13.981
12843W        W76567  10.284  25.514   1.897
12844W        W76568  42.412  33.439   2.394
12845W        W76569  34.057  11.211  14.951
12846W        W76570  30.130  14.286  13.834
12847W        W76571  25.115   4.815  13.885
12848W        W76572  14.194  11.659   3.631
12849W        W76573  44.979  37.061   0.329
12850W        W76574  23.727  34.069  11.551
12851W        W76575  32.996   3.933  14.373
12852W        W76576  14.331  37.510   0.320
12853W        W76577  31.100  35.883   1.794
12854W        W76578   2.838  36.902   1.353
12855W        W76579  29.918   9.836   1.698
12856W        W76580   3.892   3.878  10.423
12857W        W76581  30.458  28.454   1.924
12858W        W76582  24.225  15.644  12.410
12859W        W76583  25.490  33.460  13.982
12860W        W76584  24.708  30.592   4.258
12861W        W76585   4.803  12.355   3.758
12862W        W76586   9.776  41.488  10.538
12863W        W76587   4.295  20.540   2.833
12864W        W76588  32.961  41.424   4.136
12865W        W76589  15.615  33.480   2.856
12866W        W76590  12.753  24.663  13.950
12867W        W76591  26.640  28.567   2.680
12868W        W76592   8.247  41.404  13.517
12869W        W76593  38.850   6.806  10.643
12870W        W76594  27.011   5.208  11.561
12871W        W76595   2.832  10.727  11.520
12872W        W76596  22.664  20.661  11.947
12873W        W76597  12.633  37.912   0.281
12874W        W76598  35.399   9.307   3.647
12875W        W76599  21.597  11.193   1.214
12876W        W76600  30.991  28.993  14.779
12877W        W76601   2.424  44.296   2.326
12878W        W76602  38.827  16.298   4.133
12879W        W76603   3.825  34.107   3.634
12880W        W76604  34.942  21.642  14.949
12881W        W76605   7.312  38.895  14.475
12882W        W76606   2.426   0.807  13.916
12883W        W76607  22.047   6.687  12.950
12884W        W76608   2.229   7.320   0.420
12885W        W76609  30.438  17.695  11.463
12886W        W76610  12.206  11.241  11.096
12887W        W76611  28.128  43.398  12.840
12888W        W76612  27.571  32.033   4.665
12889W        W76613  43.014  16.115   3.640
12890W        W76614  27.977  28.485   2.739
12891W        W76615   8.658  22.631   1.380
12892W        W76616  41.350  37.834  10.524
12893W        W76617   8.258  42.920  13.929
12894W        W76618  38.371  40.898   4.201
12895W        W76619  33.442  21.077   1.351
12896W        W76620  17.789   0.943  13.348
12897W        W76621  10.325  36.087  10.090
12898W        W76622  35.546  40.310   1.432
12899W        W76623   2.736  11.813  10.419
12900W        W76624  28.042  35.465   2.864
12901W        W76625  17.696  17.110   2.406
12902W        W76626  38.453   7.203   2.318
12903W        W76627  15.695  15.621   1.909
12904W        W76628  26.694  42.838   0.875
12905W        W76629  23.994  29.529  14.279
12906W        W76630  26.650  39.895  14.513
12907W        W76631  20.252  24.680   1.218
12908W        W76632  11.268  44.857   4.672
12909W        W76633  34.952  11.848   5.128
12910W        W76634  16.210  18.764   0.439
12911W        W76635  17.125  43.912  14.347
12912W        W76636  35.382  18.586  13.355
12913W        W76637  29.637  42.379   0.412
12914W        W76638  39.425  44.775  12.426
12915W        W76639  25.511   1.401   1.738
12916W        W76640  30.112  20.206   1.403
12917W        W76641  34.505   4.754  13.539
12918W        W76642  36.441   6.377  14.511
12919W        W76643  11.717  29.454  14.367
12920W        W76644   0.401  22.537  11.944
12921W        W76645  20.764  37.383  13.018
12922W        W76646  29.022   9.769   1.384
12923W        W76647  40.379  17.618   0.365
12924W        W76648  10.719  41.843  11.506
12925W        W76649   8.224   6.689  11.374
12926W        W76650  43.773  37.375  13.342
12927W        W76651  11.145   7.802   2.725
12928W        W76652  29.159  33.490  11.006
12929W        W76653  16.609  26.570   4.606
12930W        W76654  12.123   9.195  14.774
12931W        W76655  29.011  16.644   3.661
12932W        W76656  23.056   8.698  12.922
12933W        W76657  32.597  19.075   0.321
12934W        W76658  24.009  11.136   4.246
12935W        W76659  32.511  21.708  13.955
12936W        W76660  17.225   4.254  14.919
12937W        W76661  27.669  29.036   2.331
12938W        W76662  15.325  13.195   4.323
12939W        W76663  10.751  30.424   3.784
12940W        W76664  26.066  35.445   4.792
12941W        W76665   2.834  21.655  10.449
12942W        W76666   0.328  14.293   1.337
12943W        W76667   5.741  17.698   3.194
12944W        W76668  38.993  33.626   3.278
12945W        W76669  17.305  39.338   2.252
12946W        W76670  34.077  39.541   4.342
12947W        W76671  31.532  37.880   2.410
12948W        W76672  25.195   5.348   1.380
12949W        W76673  39.897  35.998  11.066
12950W        W76674  30.447  24.492  11.485
12951W        W76675   8.707  38.394  14.831
12952W        W76676  25.012  33.391   1.698
12953W        W76677   9.883  31.988  14.515
12954W        W76678  40.031  22.522   1.302
12955W        W76679  27.625  27.973   4.162
12956W        W76680   2.917  21.545  14.979
12957W        W76681  39.941  44.850  12.464
12958W        W76682   5.322  16.703  11.487
12959W        W76683   4.769  40.343  14.981
12960W        W76684  12.611   9.837   4.129
12961W        W76685  13.196   3.738   4.231
12962W        W76686   2.929  12.134  11.028
12963W        W76687   2.764  34.476   0.424
12964W        W76688  36.909  12.686   2.287
12965W        W76689  44.949  13.691   3.829
12966W        W76690  27.158  43.285   1.264
12967W        W76691  31.630  13.738   0.355
12968W        W76692  31.468  32.485  13.024
12969W        W76693  13.793  39.867  12.560
12970W        W76694  17.281   8.815  12.887
12971W        W76695  20.175  27.117  14.870
12972W        W76696  32.445   8.672   0.900
12973W        W76697  26.492  33.891  14.998
12974W        W76698  18.726  24.988   5.269
12975W        W76699   0.867  38.902  10.961
12976W        W76700   2.923  43.896  14.015
12977W        W76701  20.737   6.300   3.652
12978W        W76702   2.456  23.093  10.903
12979W        W76703   7.387  43.498   0.283
12980W        W76704   6.897   6.898  12.361
12981W        W76705  36.059  42.517   2.850
12982W        W76706  12.118  24.491  13.469
12983W        W76707  23.583  12.715  12.901
12984W        W76708   5.348  37.435   2.674
12985W        W76709  33.955  14.783  11.998
12986W        W76710   4.216  14.679   4.728
12987W        W76711  17.663  18.294  14.826
12988W        W76712  30.466  32.927  14.342
12989W        W76713  21.166  28.107   9.986
12990W        W76714  24.683  21.734   1.791
12991W        W76715   6.383  21.088  13.055
12992W        W76716  35.852  20.148  11.020
12993W        W76717  42.926  33.507   2.806
12994W        W76718  19.263  26.128  10.894
12995W        W76719  29.116   4.875  13.900
12996W        W76720   8.361  35.460  11.460
12997W        W76721  16.156  27.012  12.916
12998W        W76722   3.345  24.569  11.872
12999W        W76723  20.593   8.160   1.443
13000W        W76724  43.990  29.512  14.888
13001W        W76725  19.208  10.245  11.587
13002W        W76726   6.860   1.973   1.887
13003W        W76727  18.789  11.651   1.847
13004W        W76728  16.152  41.013   1.303
13005W        W76729  31.536  25.705   1.767
13006W        W76730  10.719   2.295   3.188
13007W        W76731  24.988  17.240  13.378
13008W        W76732  22.557  41.320  13.406
13009W        W76733  36.494   8.869  12.878
13010W        W76734  14.269  33.615   5.255
13011W        W76735  43.499  41.337   1.750
13012W        W76736   7.231  12.163  10.485
13013W        W76737   3.725  10.333  14.853
13014W        W76738  25.086  13.331  12.845
13015W        W76739  37.980   8.713   2.319
13016W        W76740  14.128  24.109   3.712
13017W        W76741   7.893  41.487   1.846
13018W        W76742  31.922  44.758  12.443
13019W        W76743  38.547  34.895  14.501
13020W        W76744  10.821  23.155  12.496
13021W        W76745  22.214  33.472  14.960
13022W        W76746  25.170   5.263  14.480
13023W        W76747   9.801   9.151   1.287
13024W        W76748  33.513   9.293  11.908
13025W        W76749  41.843   7.279   4.789
13026W        W76750  22.035  13.166   0.924
13027W        W76751  35.601  17.723   4.181
13028W        W76752  15.269  23.988  14.956
13029W        W76753   4.287  14.108  14.770
13030W        W76754   3.897  30.635   4.123
13031W        W76755  10.277  18.266   2.856
13032W        W76756   0.408  26.538  13.972
13033W        W76757  36.445   1.765  11.400
13034W        W76758  19.699  12.297  12.533
13035W        W76759  37.556  28.620  10.639
13036W        W76760  31.018  14.228   4.644
13037W        W76761   4.384   7.182  12.965
13038W        W76762  34.525   1.788  11.009
13039W        W76763  44.839   5.890  14.003
13040W        W76764  32.141  30.549   2.413
13041W        W76765  14.295  15.140   1.221
13042W        W76766  44.834  14.661   1.798
13043W        W76767  30.458  28.577   3.694
13044W        W76768  39.046  43.295  12.041
13045W        W76769  44.466  23.680   0.778
13046W        W76770  16.784  17.085  13.440
13047W        W76771  31.589   7.347   3.372
13048W        W76772   6.290  44.259   0.939
13049W        W76773   5.315  24.977   5.208
13050W        W76774   9.337  22.026  14.780
13051W        W76775  43.970  30.138   4.823
13052W        W76776   5.816  22.047  11.881
13053W        W76777   0.430  11.358   3.331
13054W        W76778   0.753  12.361   3.667
13055W        W76779  20.029  42.961   0.898
13056W        W76780  32.124  26.185  11.862
13057W        W76781  18.753  32.114   9.934
13058W        W76782   4.797  20.044   3.163
13059W        W76783  22.113  17.173  12.511
13060W        W76784  19.697  19.626  11.085
13061W        W76785  39.901  15.632  14.484
13062W        W76786   9.180  42.928  11.106
13063W        W76787  39.824  37.069   1.395
13064W        W76788  20.193  24.700  12.427
13065W        W76789  30.439  27.627  11.868
13066W        W76790  13.648  44.268   1.840
13067W        W76791  24.051  37.485   3.662
13068W        W76792  19.656  40.931   2.390
13069W        W76793  44.266   4.431   3.250
13070W        W76794  36.456   8.163   3.660
13071W        W76795   1.475  37.397   0.297
13072W        W76796  15.187  33.431   4.693
13073W        W76797   1.962  29.513   4.178
13074W        W76798  26.547  42.903   4.186
13075W        W76799  28.041  23.153  14.359
13076W        W76800  24.524  38.937  10.102
13077W        W76801  43.390   9.816   3.183
13078W        W76802  32.517  39.879  12.410
13079W        W76803  30.010  28.610  14.008
13080W        W76804  16.798   8.401  10.910
13081W        W76805  44.937  14.234   0.891
13082W        W76806  13.244   4.223  10.933
13083W        W76807  23.705  18.147   2.763
13084W        W76808  39.971  33.915  13.862
13085W        W76809  18.763  38.497  13.940
13086W        W76810  36.928   6.215  11.071
13087W        W76811  42.451  26.669  12.343
13088W        W76812  26.651  39.827  10.070
13089W        W76813  22.132  33.985  11.607
13090W        W76814   4.252  41.935  14.330
13091W        W76815   2.387  40.517  12.974
13092W        W76816   8.678  38.452   1.871
13093W        W76817  36.451  35.589   0.297
13094W        W76818  13.259  32.134  11.586
13095W        W76819  43.385  43.285   5.646
13096W        W76820  20.643   0.948   3.314
13097W        W76821  35.415  34.567   2.861
13098W        W76822  18.655  14.741  12.388
13099W        W76823   8.183  20.580  14.365
13100W        W76824  26.141  24.157  12.840
13101W        W76825  28.108  26.467   2.289
13102W        W76826  42.403  16.726  10.636
13103W        W76827  37.399  40.544  12.964
13104W        W76828  33.052  40.919  14.326
13105W        W76829  15.643  21.551  11.973
13106W        W76830  15.091  12.311   3.304
13107W        W76831  22.719  28.051   1.256
13108W        W76832  44.498  21.523   0.446
13109W        W76833  20.124  37.050   2.201
13110W        W76834  22.217  35.425   4.663
13111W        W76835  40.375   1.420   4.699
13112W        W76836  25.474  25.661  14.897
13113W        W76837  17.132  18.217  11.113
13114W        W76838  36.863  42.488   0.359
13115W        W76839   6.759  18.106   4.666
13116W        W76840  21.708  38.326   3.317
13117W        W76841  36.374  38.059  14.280
13118W        W76842  29.160  40.903  11.505
13119W        W76843  16.665   7.738  10.997
13120W        W76844  23.681  23.191   2.850
13121W        W76845  19.592  27.017   4.232
13122W        W76846  27.511  13.643   2.702
13123W        W76847  18.104   9.751  10.894
13124W        W76848  14.275  34.481  10.136
13125W        W76849   2.928  17.732   0.851
13126W        W76850   2.431  30.993   3.255
13127W        W76851  30.980  40.332  14.825
13128W        W76852   3.885   4.825  10.940
13129W        W76853  12.320  17.094   0.472
13130W        W76854  22.690  31.087  10.926
13131W        W76855  13.159  32.132  14.806
13132W        W76856  13.200  10.697   3.734
13133W        W76857  38.465  27.446  11.506
13134W        W76858  20.176  17.190   1.931
13135W        W76859   6.799  17.094   0.798
13136W        W76860  11.260  32.064  11.041
13137W        W76861   7.867  36.433  13.414
13138W        W76862  28.021  23.494   3.834
13139W        W76863  21.191   6.714  14.797
13140W        W76864   4.879  23.596  13.329
13141W        W76865  16.724  19.148  13.511
13142W        W76866  32.414  26.549  10.926
13143W        W76867  30.483  14.118  11.585
13144W        W76868  13.789   9.157   2.245
13145W        W76869  24.012  18.242   3.164
13146W        W76870  26.573  43.511  14.950
13147W        W76871  24.491   4.828   3.313
13148W        W76872   9.170  25.147   4.159
13149W        W76873  36.568  33.028   3.757
13150W        W76874  17.723   5.755   4.792
13151W        W76875  13.291  22.706   2.790
13152W        W76876  16.130  33.049  13.479
13153W        W76877   5.344  40.395  12.871
13154W        W76878  15.584  24.598  10.923
13155W        W76879  35.544  24.974   4.609
13156W        W76880   8.170  22.517   0.954
13157W        W76881  43.903  11.743  13.979
13158W        W76882  17.249   5.926  13.055
13159W        W76883  29.924   2.348   2.396
13160W        W76884  23.507  14.795  13.014
13161W        W76885  13.137  38.924  10.465
13162W        W76886  20.724   0.908   4.693
13163W        W76887   0.343  42.504   3.629
13164W        W76888  15.578  31.929   2.855
13165W        W76889  27.518   1.469   1.814
13166W        W76890  15.746  44.338  11.575
13167W        W76891   2.885  38.854  10.643
13168W        W76892  44.450  17.142  11.904
13169W        W76893   6.777  40.368   2.372
13170W        W76894  35.866  32.622   1.396
13171W        W76895  31.534  21.183  13.506
13172W        W76896  37.455  13.111   3.797
13173W        W76897   9.300   6.918  10.564
13174W        W76898  20.608  35.109  13.314
13175W        W76899  16.735  31.069  14.486
13176W        W76900  40.339  12.816   2.230
13177W        W76901  13.126   6.316  10.563
13178W        W76902  30.457  23.576   1.768
13179W        W76903  33.940   7.209   3.687
13180W        W76904  30.062  21.242   4.319
13181W        W76905  15.798  44.773  13.324
13182W        W76906  12.816  42.809   1.918
13183W        W76907  10.656  44.905   3.657
13184W        W76908   3.337  19.671  12.067
13185W        W76909  11.136  11.357   2.331
13186W        W76910  11.264  35.014   4.711
13187W        W76911  16.617  27.656   4.702
13188W        W76912  18.668   7.241   3.293
13189W        W76913   0.489  34.049   3.149
13190W        W76914  39.019   9.709  11.590
13191W        W76915  19.738   6.772  14.790
13192W        W76916   1.849  14.113   0.288
13193W        W76917  13.613  10.673  14.810
13194W        W76918  41.483  24.718   4.147
13195W        W76919  41.023  15.588  12.493
13196W        W76920  13.654  40.360   0.778
13197W        W76921   8.185   1.805  12.895
13198W        W76922  18.635  10.216   3.847
13199W        W76923  17.160   2.467  13.369
13200W        W76924  37.866  35.984  11.862
13201W        W76925  42.287  32.079  10.596
13202W        W76926  39.404   1.893   0.282
13203W        W76927   1.398  27.656   0.342
13204W        W76928  21.227   7.794   2.255
13205W        W76929   9.738   5.394   0.364
13206W        W76930  40.377  41.952   0.921
13207W        W76931  26.457  16.592  14.861
13208W        W76932  23.029  15.774  13.335
13209W        W76933  40.439  19.618   5.279
13210W        W76934  16.595  12.712   3.327
13211W        W76935  21.090  20.754   2.405
13212W        W76936  21.513  12.683  10.629
13213W        W76937  15.155  25.187   2.276
13214W        W76938  41.355  37.850   4.169
13215W        W76939  13.309  28.096   2.203
13216W        W76940   6.866  17.288  14.808
13217W        W76941  25.101  11.280  10.151
13218W        W76942  13.659  38.926   4.200
13219W        W76943   6.364   2.930  14.425
13220W        W76944  36.349  33.970  10.486
13221W        W76945   9.756  38.918   4.833
13222W        W76946  42.839   8.230  13.485
13223W        W76947  40.429  44.761  10.025
13224W        W76948  30.003  20.151  14.962
13225W        W76949   3.368  35.096   3.643
13226W        W76950  36.877  20.179   1.241
13227W        W76951  40.438   0.468  12.456
13228W        W76952   0.377  44.481  14.992
13229W        W76953  27.165  15.148   2.389
13230W        W76954  36.465   6.755  14.309
13231W        W76955  34.033  32.469   0.441
13232W        W76956  33.623   5.866   9.945
13233W        W76957  29.639  38.461   3.719
13234W        W76958  43.355   2.810   0.293
13235W        W76959  19.663  39.400  13.491
13236W        W76960  12.339  37.471  13.058
13237W        W76961  33.018  37.023   0.946
13238W        W76962  35.926  40.989   2.179
13239W        W76963  24.550  26.629  10.043
13240W        W76964  25.050  29.492  11.419
13241W        W76965  27.687   2.456   1.771
13242W        W76966  15.766  32.970  12.367
13243W        W76967  23.678   2.898  10.441
13244W        W76968  26.091  40.476  12.826
13245W        W76969  39.516   3.723   3.303
13246W        W76970  21.234  38.442   1.899
13247W        W76971  15.196   0.326   0.405
13248W        W76972   8.757  43.270  11.005
13249W        W76973   5.722  26.665  12.474
13250W        W76974   5.873  31.468  12.078
13251W        W76975   8.342  27.024   2.867
13252W        W76976   3.382  16.635   1.742
13253W        W76977   7.768  42.798   2.715
13254W        W76978  14.807  13.801  11.920
13255W        W76979  10.770  35.466  12.007
13256W        W76980  24.230   8.343  14.804
13257W        W76981  22.639  14.175  14.029
13258W        W76982  42.923  28.589   1.358
13259W        W76983   2.357   6.913   0.730
13260W        W76984  21.552  22.233  13.424
13261W        W76985  12.612  24.638  10.492
13262W        W76986  43.345  15.303   0.738
13263W        W76987  26.503  24.131  12.847
13264W        W76988  20.106  21.157   2.764
13265W        W76989  24.619  39.912   0.389
13266W        W76990  30.433  31.054  10.549
13267W        W76991  23.510   0.979   1.295
13268W        W76992  19.610  17.134  10.573
13269W        W76993   3.357  29.048   1.802
13270W        W76994   5.418  14.236  13.796
13271W        W76995  19.126  27.062   0.252
13272W        W76996  33.407   5.711  12.428
13273W        W76997  35.959  23.592  14.921
13274W        W76998   0.886  19.545   4.774
13275W        W76999   0.330   9.828   1.716
13276W        W77000   7.182  37.479   3.707
13277W        W77001  19.571  23.211   2.848
13278W        W77002  26.679  39.935   4.346
13279W        W77003  41.996  15.116  14.475
13280W        W77004  43.494   3.902  14.287
13281W        W77005  36.524  42.459   2.891
13282W        W77006   2.302  21.050  14.801
13283W        W77007  29.521   7.884   5.211
13284W        W77008   8.297   1.400  13.346
13285W        W77009  35.032   5.193   0.410
13286W        W77010  22.243  19.249   4.191
13287W        W77011  17.283   2.346  14.439
13288W        W77012  12.157  20.237  14.454
13289W        W77013   4.869  37.031  12.856
13290W        W77014  35.893  32.020  12.841
13291W        W77015  41.294  10.325   1.324
13292W        W77016  14.205  39.865   0.939
13293W        W77017   1.459  27.061   3.230
13294W        W77018  10.161  31.119   5.192
13295W        W77019  28.173   4.784   2.801
13296W        W77020  33.938  10.786  12.825
13297W        W77021   9.837  22.083   2.374
13298W        W77022  23.233  11.237  14.943
13299W        W77023  18.093  37.575  13.049
13300W        W77024  40.492  24.608   0.334
13301W        W77025  38.906   2.352   1.852
13302W        W77026   2.286  37.337  13.802
13303W        W77027  19.194   0.464  12.353
13304W        W77028  35.376  17.706   3.681
13305W        W77029  25.677  29.973   2.314
13306W        W77030  42.494   8.250   2.279
13307W        W77031  44.269  19.611  13.410
13308W        W77032   3.840   6.900  14.925
13309W        W77033  15.804   6.741   4.719
13310W        W77034  23.540  12.616  11.015
13311W        W77035  14.688  44.825  10.460
13312W        W77036  21.597   6.755  12.851
13313W        W77037  17.679  23.612  14.345
13314W        W77038  31.978   6.724   0.850
13315W        W77039  20.076  38.402  13.904
13316W        W77040  44.987   0.457   3.337
13317W        W77041  42.521  28.167  13.412
13318W        W77042  13.171   0.361   3.340
13319W        W77043  22.221  33.061   3.680
13320W        W77044  14.819  26.019   0.396
13321W        W77045  29.465  13.844   3.830
13322W        W77046   5.769  17.117  13.834
13323W        W77047  24.518  41.878  10.609
13324W        W77048  26.698   7.318   2.364
13325W        W77049   0.329  22.011  14.004
13326W        W77050   0.361   4.371  14.383
13327W        W77051  39.011  35.858  13.923
13328W        W77052  30.448  16.131  12.050
13329W        W77053  23.212  21.177   1.317
13330W        W77054  22.118   0.974  14.458
13331W        W77055  41.848   5.315   4.829
13332W        W77056  25.982   2.892   0.940
13333W        W77057  20.688   2.828  14.313
13334W        W77058   3.411  19.641   2.293
13335W        W77059  41.492   7.853   3.289
13336W        W77060   5.256  26.594   2.272
13337W        W77061  40.510  26.089   3.756
13338W        W77062   5.826   9.384  14.277
13339W        W77063  35.574   8.873   3.827
13340W        W77064  10.256  18.549   4.715
13341W        W77065  32.590  19.229  13.413
13342W        W77066  12.854  38.381   1.391
13343W        W77067  27.079  21.641   2.311
13344W        W77068  28.039  34.043  11.470
13345W        W77069  14.121  32.977   0.293
13346W        W77070  12.736   9.318   3.785
13347W        W77071   8.199  38.348  12.478
13348W        W77072   2.407   4.287   0.772
13349W        W77073  25.148  30.038   5.093
13350W        W77074  24.137   6.683   0.321
13351W        W77075  39.460   4.270   4.663
13352W        W77076  22.117  20.675  10.583
13353W        W77077  40.822  28.088   1.335
13354W        W77078  27.139  41.292   4.834
13355W        W77079  20.134  28.126  11.107
13356W        W77080  36.855   5.899  12.549
13357W        W77081  31.570  39.405   1.220
13358W        W77082  16.762  33.077  12.469
13359W        W77083  33.382   6.387  10.498
13360W        W77084   0.857  29.962  13.512
13361W        W77085  13.713   4.853  10.928
13362W        W77086  25.109   4.794  14.905
13363W        W77087   4.757  20.577   2.260
13364W        W77088  23.502  14.306   1.740
13365W        W77089  42.931  35.604  12.976
13366W        W77090  19.257  29.966  13.979
13367W        W77091  42.904   4.366   0.289
13368W        W77092   1.824  28.055  13.043
13369W        W77093  34.087  43.494  13.988
13370W        W77094  27.561  21.127   0.811
13371W        W77095  24.202  36.382   2.395
13372W        W77096  36.349  44.339   0.808
13373W        W77097   8.845  13.775   3.364
13374W        W77098  29.126  40.918  14.281
13375W        W77099  39.487  31.576  11.510
13376W        W77100  20.187  13.269   0.777
13377W        W77101  27.095  22.239   2.859
13378W        W77102   2.828  27.081  10.931
13379W        W77103  21.566  12.127   1.915
13380W        W77104  15.219  35.096  13.453
13381W        W77105  12.325  17.583  11.113
13382W        W77106  15.650  30.144   4.733
13383W        W77107  10.217  15.167  11.539
13384W        W77108   8.820  41.427  10.938
13385W        W77109  18.598  22.182   0.301
13386W        W77110  13.846  17.254  13.923
13387W        W77111  39.505   8.318   2.290
13388W        W77112  22.055   8.768  11.903
13389W        W77113  38.035  26.951  12.931
13390W        W77114   3.398  17.218   0.292
13391W        W77115   7.888  27.115   2.813
13392W        W77116  29.601  28.130   0.330
13393W        W77117  32.121  14.136   9.511
13394W        W77118  17.686  31.981  12.485
13395W        W77119  28.500  10.709   2.306
13396W        W77120  19.751  29.484  12.940
13397W        W77121  29.125  41.352  10.409
13398W        W77122   1.817  40.324   4.146
13399W        W77123  27.005   1.414   4.821
13400W        W77124  38.825  44.336  14.841
13401W        W77125  22.050  44.505   3.653
13402W        W77126  33.071  20.722   0.949
13403W        W77127  38.993  35.546  14.336
13404W        W77128  39.453  27.946  12.964
13405W        W77129  26.622  24.695   2.809
13406W        W77130  28.137   3.451   5.151
13407W        W77131  18.586   7.275  10.978
13408W        W77132  19.624  29.137  12.998
13409W        W77133  21.669   3.387   4.639
13410W        W77134  19.106  12.271   5.085
13411W        W77135  21.711  29.985  10.084
13412W        W77136  18.192   7.732  11.427
13413W        W77137   6.837  19.696  11.023
13414W        W77138   7.723  13.164  11.969
13415W        W77139  37.400  33.555   4.806
13416W        W77140  20.236   9.192  14.841
13417W        W77141   0.916  27.135  13.923
13418W        W77142  20.541  37.448   0.436
13419W        W77143  19.626  15.798  10.931
13420W        W77144  10.679  10.639  14.393
13421W        W77145  24.627   2.331   2.844
13422W        W77146  15.209  26.640  11.584
13423W        W77147  23.508   9.872   1.229
13424W        W77148   3.354   8.787   3.644
13425W        W77149  39.058  14.180   3.249
13426W        W77150   5.341  35.016   1.329
13427W        W77151  36.353   2.966   3.664
13428W        W77152   5.908   0.954  12.376
13429W        W77153  32.581  22.172   1.335
13430W        W77154  34.461   9.165   3.812
13431W        W77155  30.040  22.057  14.455
13432W        W77156   3.353   5.411   0.823
13433W        W77157  23.721  42.824   3.180
13434W        W77158   8.829  19.596  13.986
13435W        W77159  12.702  25.024   3.375
13436W        W77160  32.452  16.076  13.798
13437W        W77161  18.241   2.829  13.437
13438W        W77162  43.992  31.024   3.840
13439W        W77163  26.092  31.559  11.995
13440W        W77164  25.115  38.930  12.862
13441W        W77165  42.019  43.961   0.370
13442W        W77166  11.708  22.095  14.959
13443W        W77167   4.797  20.035   3.695
13444W        W77168   1.428  32.894   0.358
13445W        W77169  22.607  23.544  11.066
13446W        W77170  15.759  35.938  11.034
13447W        W77171  25.037   1.344  13.448
13448W        W77172  36.916  21.544   1.339
13449W        W77173  41.472  39.341   3.652
13450W        W77174  38.862  15.765  14.870
13451W        W77175   7.380   7.380  10.631
13452W        W77176  37.981  38.501   1.811
13453W        W77177  23.614  10.144  14.426
13454W        W77178  13.757  36.924  12.093
13455W        W77179  41.317  26.689   1.297
13456W        W77180  23.550  24.981   3.242
13457W        W77181  33.618   8.663   3.851
13458W        W77182   5.727  36.977  12.440
13459W        W77183  31.083  20.767   1.381
13460W        W77184  19.269  36.916  11.471
13461W        W77185  21.159  40.009   0.820
13462W        W77186  37.456  27.561   0.952
13463W        W77187  19.140  26.524   5.315
13464W        W77188  35.500  28.576   1.885
13465W        W77189  23.058  40.877  10.968
13466W        W77190  22.167  22.550   2.852
13467W        W77191  33.578  31.154  11.073
13468W        W77192  12.351  15.089   0.346
13469W        W77193   0.407  27.495  14.344
13470W        W77194  26.668  34.064  12.572
13471W        W77195  32.457  25.601  13.848
13472W        W77196  26.693   0.266  12.470
13473W        W77197  12.706  26.462   3.647
13474W        W77198   8.668  16.690  12.075
13475W        W77199  40.462  31.568  11.056
13476W        W77200  20.194  28.608  14.948
13477W        W77201  42.790  29.493   2.723
13478W        W77202   8.188  30.460   4.182
13479W        W77203   8.708  41.832  14.352
13480W        W77204   5.934   7.898   3.269
13481W        W77205  31.531  28.450  13.471
13482W        W77206  36.548   8.698  11.383
13483W        W77207  40.513  31.027  12.442
13484W        W77208  15.730  21.712  14.499
13485W        W77209  37.905  18.679   1.305
13486W        W77210  38.921   7.381  10.161
13487W        W77211  44.846  30.051  13.022
13488W        W77212  30.976  31.439  11.445
13489W        W77213   8.397  43.795   2.764
13490W        W77214   3.816  14.324   9.998
13491W        W77215  39.932  27.085  12.571
13492W        W77216   4.413   3.827   3.719
13493W        W77217   1.246   2.232  12.402
13494W        W77218   5.871  23.565  11.079
13495W        W77219  30.464  19.092  14.510
13496W        W77220  43.963  22.614  13.058
13497W        W77221  30.971   1.456   4.689
13498W        W77222  18.290  21.226  10.494
13499W        W77223  43.892  22.518   3.317
13500W        W77224   3.368  38.503  14.953
13501W        W77225  38.004   2.328   3.651
13502W        W77226   8.774  40.828  11.511
13503W        W77227  14.255  35.957   4.293
13504W        W77228   3.929  44.328   9.940
13505W        W77229  30.591  10.822  13.359
13506W        W77230  35.901  29.159  12.396
13507W        W77231   2.899  44.900  10.415
13508W        W77232  28.930  38.831  13.534
13509W        W77233  44.477  25.669   3.870
13510W        W77234   6.209   9.276  11.455
13511W        W77235  38.357   7.834  13.990
13512W        W77236  29.529  10.660  10.607
13513W        W77237  18.717   0.778   1.326
13514W        W77238  14.256  38.435   0.813
13515W        W77239  33.949   0.426  14.326
13516W        W77240  20.054  25.104   3.306
13517W        W77241  26.200  25.992   3.382
13518W        W77242   6.428  30.505   1.791
13519W        W77243  29.566  27.660   4.606
13520W        W77244  34.598  15.682  11.418
13521W        W77245  23.065  27.035   2.790
13522W        W77246  34.882  28.166   2.865
13523W        W77247   9.185  24.673   1.741
13524W        W77248  12.755  28.952  11.524
13525W        W77249  29.637  38.373  11.106
13526W        W77250  20.588  15.234  12.574
13527W        W77251   9.337   1.356   0.264
13528W        W77252  18.178  23.105  11.861
13529W        W77253  16.210  43.871   4.140
13530W        W77254  10.331  35.041   0.349
13531W        W77255  29.101  40.528  13.007
13532W        W77256  37.834   8.869   4.598
13533W        W77257   3.326  44.294  12.578
13534W        W77258  42.897  36.880   0.936
13535W        W77259   4.447  11.771   3.366
13536W        W77260   3.843   9.879   1.438
13537W        W77261  44.289  41.514  14.439
13538W        W77262  17.681  22.542   0.830
13539W        W77263  35.070  30.482  10.081
13540W        W77264   3.910  44.499  11.474
13541W        W77265   9.350  30.480   2.686
13542W        W77266  21.551  40.423  10.613
13543W        W77267  26.087  32.904  10.964
13544W        W77268  32.449  19.081  14.456
13545W        W77269  34.496  13.145   4.748
13546W        W77270  26.090  14.237  10.442
13547W        W77271  22.226  15.322   4.816
13548W        W77272   0.969  43.994  14.374
13549W        W77273  22.027  28.671   5.109
13550W        W77274  22.153  39.467   4.824
13551W        W77275   7.348  13.350   3.318
13552W        W77276  33.113   5.912  14.462
13553W        W77277  33.089  25.520   2.802
13554W        W77278  39.431  30.468  11.519
13555W        W77279  28.564   0.414  12.442
13556W        W77280   6.888  14.612   1.882
13557W        W77281  25.084  30.973   4.285
13558W        W77282  36.937  16.089  11.881
13559W        W77283  31.605  35.449  10.640
13560W        W77284  10.299  43.377  14.931
13561W        W77285  16.127   5.710  14.510
13562W        W77286  33.468  33.599  10.609
13563W        W77287  15.625  17.648   4.167
13564W        W77288  17.600   0.908   0.288
13565W        W77289  33.905   3.815  13.915
13566W        W77290  37.359  19.250   1.276
13567W        W77291  27.976  42.330  12.842
13568W        W77292  10.315  38.560  13.525
13569W        W77293  15.599  14.124  14.889
13570W        W77294  19.134  44.299   4.127
13571W        W77295  39.477  31.033  12.361
13572W        W77296  23.138  31.613   2.739
13573W        W77297  16.286   0.361   1.297
13574W        W77298  34.611  28.113   2.882
13575W        W77299  32.479  26.106   0.355
13576W        W77300  22.538  43.328  11.092
13577W        W77301  16.099   1.245  11.606
13578W        W77302  29.589   0.856  14.461
13579W        W77303  31.020  11.370   2.318
13580W        W77304   8.342  40.025  13.307
13581W        W77305  28.647  16.082  14.005
13582W        W77306  26.099  16.149  12.567
13583W        W77307  35.987  15.650  11.060
13584W        W77308  25.034  39.376   3.828
13585W        W77309  40.338  18.053  10.643
13586W        W77310  23.602  17.681   2.379
13587W        W77311   3.266  29.096  14.357
13588W        W77312  28.182  34.415  12.030
13589W        W77313  13.746   0.284   1.310
13590W        W77314  35.384  41.838   1.897
13591W        W77315  41.377  29.069  12.358
13592W        W77316   4.245  16.157   1.339
13593W        W77317  12.737   8.404   1.799
13594W        W77318  43.905  25.619   4.827
13595W        W77319  39.463   4.421   0.882
13596W        W77320   2.387  28.457  13.046
13597W        W77321  31.602  23.505   2.868
13598W        W77322  20.725   0.806  12.917
13599W        W77323  27.540  11.718  12.352
13600W        W77324  40.868  34.074   4.263
13601W        W77325  37.422   2.884  12.512
13602W        W77326   9.749   0.298   4.669
13603W        W77327  24.173  41.430   4.334
13604W        W77328   0.880  32.962  10.445
13605W        W77329  35.408  21.540  12.498
13606W        W77330   0.805  19.096   4.232
13607W        W77331  18.753  34.918  11.596
13608W        W77332  19.632  13.299   0.927
13609W        W77333  15.816  16.567  13.311
13610W        W77334  37.368  27.175   4.660
13611W        W77335  26.203  33.074   2.869
13612W        W77336   6.809  17.720  12.894
13613W        W77337  13.116  30.929   0.357
13614W        W77338  37.438   8.406   1.731
13615W        W77339  44.418  37.940   2.256
13616W        W77340  12.837  16.801   0.824
13617W        W77341  42.437   9.354   0.371
13618W        W77342  13.717  10.158   4.141
13619W        W77343  23.143  14.798   1.438
13620W        W77344  43.793  10.230  11.414
13621W        W77345   8.733  44.919  14.282
13622W        W77346  19.590  40.517  13.432
13623W        W77347  29.670   6.912   2.900
13624W        W77348  20.645  40.403  13.837
13625W        W77349  10.851  40.306   4.597
13626W        W77350   9.307   2.915  11.593
13627W        W77351  15.721  30.584   3.763
13628W        W77352  22.526  42.802   4.661
13629W        W77353   0.906   0.773   9.933
13630W        W77354  41.488  31.083   4.652
13631W        W77355  20.211  40.877  11.586
13632W        W77356  13.640  42.390   2.210
13633W        W77357  11.748   5.894  11.595
13634W        W77358  10.367  22.027  14.793
13635W        W77359  32.574  24.058   4.222
13636W        W77360   8.745   7.171  12.947
13637W        W77361  21.122  34.076   3.225
13638W        W77362   0.825  33.496   2.734
13639W        W77363   4.906  33.488  14.449
13640W        W77364   5.369  43.510  12.989
13641W        W77365  22.225  23.084  12.370
13642W        W77366  40.454  41.912   0.475
13643W        W77367  44.952  17.714   3.668
13644W        W77368  17.114  16.720  10.056
13645W        W77369  38.007  13.265   3.269
13646W        W77370   7.755   4.937  11.091
13647W        W77371  21.736  17.566   2.331
13648W        W77372  11.328  21.660   3.217
13649W        W77373  29.948  12.696   4.228
13650W        W77374  33.469  13.839   4.202
13651W        W77375  13.276   8.661   1.425
13652W        W77376  25.479  42.398  11.516
13653W        W77377  38.937   8.269  12.022
13654W        W77378  18.241  33.883   4.338
13655W        W77379  24.683  23.146  14.770
13656W        W77380  37.437  37.981   2.258
13657W        W77381  26.552   0.767  11.372
13658W        W77382  30.970  25.038  10.999
13659W        W77383   6.680   4.211  14.407
13660W        W77384  31.527  19.111   0.436
13661W        W77385   8.718   9.171   0.442
13662W        W77386  10.221   9.284   0.779
13663W        W77387  12.319  10.648  11.010
13664W        W77388  34.972  43.765  13.846
13665W        W77389  28.483  31.410   0.325
13666W        W77390  43.378  37.530  11.558
13667W        W77391  21.211   7.860  11.466
13668W        W77392  28.149  22.723  13.337
13669W        W77393  13.827  43.806   2.207
13670W        W77394  13.144  11.193  12.501
13671W        W77395  13.107  20.208  14.946
13672W        W77396  32.105  19.670  10.146
13673W        W77397  36.512  27.150   3.211
13674W        W77398  32.106  25.708  11.064
13675W        W77399   5.796  21.211   0.402
13676W        W77400  23.602  16.784   0.936
13677W        W77401  35.037  42.990  10.006
13678W        W77402  31.016   9.343   0.261
13679W        W77403  31.481   9.385  12.559
13680W        W77404  42.314  14.679  14.800
13681W        W77405  37.035   7.385  10.638
13682W        W77406   5.199  25.575  12.562
13683W        W77407  14.601  41.481  14.028
13684W        W77408   8.691  22.582  10.945
13685W        W77409   7.741  22.112   4.687
13686W        W77410  27.062   9.857  13.379
13687W        W77411  40.376  33.594  10.045
13688W        W77412  18.644  26.546  10.537
13689W        W77413  17.232  14.269  12.854
13690W        W77414  25.480   4.753  13.391
13691W        W77415  22.638  32.631   3.865
13692W        W77416  30.140   9.728  10.558
13693W        W77417  21.555  30.606  14.452
13694W        W77418  40.333  28.083   3.685
13695W        W77419  31.905  30.113  13.312
13696W        W77420   7.715  41.005   3.227
13697W        W77421  31.139  30.445  12.385
13698W        W77422  21.524   0.784  13.041
13699W        W77423   2.765  37.975   0.245
13700W        W77424  41.357  22.562  12.827
13701W        W77425  26.495  16.782  13.845
13702W        W77426  20.136  14.156   1.806
13703W        W77427   5.918   1.740  11.495
13704W        W77428  26.528  40.842   2.724
13705W        W77429  25.051   4.351  13.473
13706W        W77430  44.933  19.661   1.892
13707W        W77431  10.851   4.273   2.258
13708W        W77432  30.038   3.765  12.964
13709W        W77433   1.434  29.477  12.384
13710W        W77434  16.252   1.752   2.836
13711W        W77435  17.650  23.239   2.861
13712W        W77436  29.635   4.318   4.644
13713W        W77437   9.886  24.569   1.879
13714W        W77438  37.065  44.917  11.112
13715W        W77439  20.179  13.680   3.676
13716W        W77440  41.441  23.186  11.498
13717W        W77441  14.599  23.506  13.436
13718W        W77442  21.684   0.759   1.316
13719W        W77443  22.521  35.054  11.949
13720W        W77444  21.079  24.113   2.734
13721W        W77445   5.728  33.051   1.878
13722W        W77446   8.810  39.025  13.435
13723W        W77447   8.201  38.355   3.286
13724W        W77448   5.888  44.977  14.515
13725W        W77449  44.407  25.985  14.499
13726W        W77450  35.390  13.728  13.485
13727W        W77451  26.664  17.791  11.438
13728W        W77452  37.014  37.981   0.378
13729W        W77453   1.354  42.425  13.868
13730W        W77454  27.498  31.941   2.377
13731W        W77455  17.238   8.331   3.201
13732W        W77456  36.493  40.966  12.924
13733W        W77457  23.128  33.103   0.899
13734W        W77458  18.666   4.914   2.291
13735W        W77459  33.003  41.447  14.938
13736W        W77460  25.476  26.053  11.053
13737W        W77461  17.766  19.040   4.765
13738W        W77462  22.503  40.339  12.938
13739W        W77463  34.464  11.670   3.843
13740W        W77464  44.293  23.582  13.542
13741W        W77465  32.407  30.515   0.887
13742W        W77466  25.562  26.585  11.605
13743W        W77467  18.058   3.955   1.303
13744W        W77468  25.093  31.954   3.666
13745W        W77469  44.836  37.906   1.892
13746W        W77470  41.494  41.444  11.579
13747W        W77471  38.047  37.537   2.389
13748W        W77472  22.620  41.361   0.449
13749W        W77473  30.558  22.155  11.383
13750W        W77474  19.198  34.422  13.496
13751W        W77475  35.922  20.531   2.789
13752W        W77476  26.010  10.824  14.502
13753W        W77477   1.926  22.182   4.307
13754W        W77478   7.780  33.030  11.013
13755W        W77479  11.201  19.198   3.228
13756W        W77480  12.343  44.336  11.569
13757W        W77481  19.251  40.032  12.449
13758W        W77482  22.070  19.222   3.330
13759W        W77483  40.933   9.725   2.679
13760W        W77484  10.315   6.680   4.674
13761W        W77485   7.401  29.549   4.656
13762W        W77486  32.396  29.126   4.830
13763W        W77487   6.185  28.020   0.932
13764W        W77488   8.721  12.847  14.495
13765W        W77489   6.195  40.889   1.401
13766W        W77490  43.358   8.809   4.835
13767W        W77491  12.267   6.245   2.754
13768W        W77492  44.771  15.648  12.980
13769W        W77493  43.946  35.446  12.011
13770W        W77494   3.417  28.032  11.022
13771W        W77495  10.347   5.215  12.086
13772W        W77496  25.111  36.894   3.361
13773W        W77497  24.164   2.434   3.850
13774W        W77498  15.588   8.844   3.232
13775W        W77499  22.736  11.769   1.421
13776W        W77500  28.978  26.468   4.140
13777W        W77501  29.518   8.657  13.322
13778W        W77502  36.901  43.447  11.113
13779W        W77503   0.958  20.132  10.943
13780W        W77504  22.503  30.556  12.017
13781W        W77505  16.792   8.830  11.584
13782W        W77506  39.894  42.979  10.513
13783W        W77507  36.048   8.219   2.734
13784W        W77508  26.669  37.907   2.840
13785W        W77509   8.656  42.293   2.332
13786W        W77510  41.370  41.846  10.533
13787W        W77511  37.385  44.350  14.802
13788W        W77512   5.690  37.473   2.376
13789W        W77513   7.698  23.235   1.226
13790W        W77514  16.616   0.479  10.624
13791W        W77515  24.076  23.051  14.864
13792W        W77516  40.520   0.414   2.897
13793W        W77517  26.151  30.555  14.784
13794W        W77518  40.974  30.990  12.510
13795W        W77519  30.100   3.396   0.305
13796W        W77520  33.912  24.528   2.760
13797W        W77521   0.450  33.454  11.465
13798W        W77522  28.450   2.413  13.897
13799W        W77523  21.186  11.289   0.935
13800W        W77524  21.557  36.027   5.241
13801W        W77525  24.540   1.398   4.677
13802W        W77526  44.493  21.237  14.995
13803W        W77527  30.626  41.968   4.660
13804W        W77528   1.400  30.089   3.837
13805W        W77529  18.636  15.746  10.097
13806W        W77530  12.184  22.090   0.325
13807W        W77531  29.670  36.427  13.451
13808W        W77532   7.339  21.022   0.845
13809W        W77533   9.857  24.519   3.782
13810W        W77534   2.787  25.981   4.270
13811W        W77535   8.183  34.917  11.017
13812W        W77536  20.546   7.247   3.182
13813W        W77537  13.126  21.052  12.554
13814W        W77538   3.777  27.579  14.399
13815W        W77539   1.341  32.421  11.025
13816W        W77540  10.237  26.953  11.112
13817W        W77541  43.482  20.570  11.992
13818W        W77542  42.307  37.369   3.789
13819W        W77543   9.801  44.877   3.736
13820W        W77544  13.622  31.412   0.392
13821W        W77545  28.621   7.229   1.708
13822W        W77546  34.874   8.844   2.368
13823W        W77547  16.665  19.602   1.755
13824W        W77548  17.779  43.996   0.911
13825W        W77549  22.220  36.028  12.096
13826W        W77550  23.615  25.001  14.788
13827W        W77551   5.704   7.173   1.422
13828W        W77552   3.347  32.600  13.820
13829W        W77553  29.036  38.925   1.695
13830W        W77554   9.158  39.321   1.862
13831W        W77555  36.841   8.850   3.265
13832W        W77556  19.680  43.790  11.064
13833W        W77557  11.269  28.089  12.017
13834W        W77558  21.226  32.090   3.776
13835W        W77559  37.432   8.304  10.589
13836W        W77560  19.626  17.688  13.314
13837W        W77561  20.704  26.688   1.853
13838W        W77562  20.753  34.996  13.924
13839W        W77563  42.347   9.316   4.342
13840W        W77564  13.239   6.303   3.782
13841W        W77565  13.715  13.253   3.314
13842W        W77566  14.720  24.724  13.500
13843W        W77567   1.393  11.340   4.273
13844W        W77568  32.589  40.946  12.431
13845W        W77569   6.402   1.854  11.385
13846W        W77570  16.113  33.610  10.404
13847W        W77571  39.513  28.650   4.674
13848W        W77572   7.326  23.691  12.509
13849W        W77573  22.199  34.964  10.521
13850W        W77574  42.999  17.296  11.888
13851W        W77575  25.069  37.846  13.839
13852W        W77576  15.583   1.287   4.760
13853W        W77577   0.287  34.063  13.356
13854W        W77578  35.535  20.533  14.336
13855W        W77579  39.843  15.748  11.456
13856W        W77580  17.674  37.853  11.467
13857W        W77581  18.073  39.031   0.858
13858W        W77582  37.390  23.140   3.336
13859W        W77583   3.893   0.430   1.863
13860W        W77584   3.896  33.115   0.417
13861W        W77585  26.978  35.052   3.200
13862W        W77586   5.370  16.588  14.848
13863W        W77587   5.240   8.799  13.390
13864W        W77588   7.857  41.400   2.407
13865W        W77589  10.807  17.267   0.747
13866W        W77590   5.767   3.431  15.000
13867W        W77591   9.177  26.538   0.767
13868W        W77592  40.836  24.716   1.830
13869W        W77593  22.548  13.248  13.479
13870W        W77594  19.544  39.541  11.037
13871W        W77595  37.462  37.025   0.308
13872W        W77596  32.550  22.209  10.539
13873W        W77597   5.418  23.690  11.049
13874W        W77598  41.322  40.035  12.940
13875W        W77599  12.350  15.171   4.707
13876W        W77600  19.642   5.377  11.927
13877W        W77601  41.355  12.652   3.263
13878W        W77602  27.985  40.865  10.492
13879W        W77603  31.416  14.276   9.984
13880W        W77604  20.608  28.984  13.832
13881W        W77605  17.740  19.128   3.847
13882W        W77606  13.724  18.597  10.908
13883W        W77607  13.137  34.437  14.962
13884W        W77608  44.869  44.300  13.343
13885W        W77609  27.682   4.848   1.765
13886W        W77610  40.461  14.605   4.154
13887W        W77611  34.611  12.682  10.506
13888W        W77612   0.914   3.741   0.345
13889W        W77613  37.830  15.608   3.669
13890W        W77614  15.280  38.852  10.915
13891W        W77615  44.980  10.786   3.325
13892W        W77616  21.533  13.616   2.219
13893W        W77617  43.999   6.696  14.345
13894W        W77618  33.923  14.763   4.715
13895W        W77619  41.038  34.096   0.291
13896W        W77620  15.808  28.490  12.009
13897W        W77621  28.006  22.677  14.456
13898W        W77622  25.181  41.365  14.395
13899W        W77623   6.831   2.253  10.919
13900W        W77624   1.340  35.492  13.827
13901W        W77625   4.940  18.052   2.189
13902W        W77626  13.148  26.490   0.416
13903W        W77627  27.092  10.246  11.525
13904W        W77628  25.213   1.754  14.886
13905W        W77629  23.518  11.665   4.192
13906W        W77630  22.659  20.561   1.297
13907W        W77631  43.915  21.546   0.437
13908W        W77632   4.826  16.279   2.331
13909W        W77633  18.641   3.431  13.458
13910W        W77634  34.072   2.915   0.810
13911W        W77635  23.500  29.953  13.361
13912W        W77636   5.399  44.302  14.949
13913W        W77637  42.521  28.169  14.013
13914W        W77638  11.238  23.515   0.290
13915W        W77639  40.529  39.937   5.192
13916W        W77640  25.625  35.526   0.356
13917W        W77641  14.155  20.581   0.774
13918W        W77642  11.357  32.536   0.938
13919W        W77643  23.700   8.400  12.839
13920W        W77644  18.278  29.432   3.252
13921W        W77645  39.855  25.106   4.261
13922W        W77646  27.061  17.745  12.490
13923W        W77647  32.041  29.131  12.377
13924W        W77648  41.934   2.879  12.036
13925W        W77649  44.337  26.525  11.883
13926W        W77650   8.297   1.898   4.285
13927W        W77651  33.535   3.411  11.945
13928W        W77652   7.195  39.553  14.500
13929W        W77653  26.208   6.214  11.865
13930W        W77654  43.365  32.625   3.225
13931W        W77655  24.577  20.257  13.877
13932W        W77656  37.895  38.863  10.130
13933W        W77657  24.646   2.877   2.303
13934W        W77658  34.954  12.136  13.854
13935W        W77659   0.434  40.884  12.382
13936W        W77660  32.969  31.547   4.700
13937W        W77661  29.153   3.333   1.702
13938W        W77662  17.237  25.687  14.961
13939W        W77663  19.772  26.649  10.942
13940W        W77664  31.017  34.950   4.753
13941W        W77665  29.595   2.937   2.902
13942W        W77666  32.567   8.237  11.457
13943W        W77667  42.845  44.989   0.427
13944W        W77668  28.119  13.804   0.888
13945W        W77669  29.095  41.945   0.763
13946W        W77670  14.173  16.722   0.412
13947W        W77671  41.924  38.895  12.394
13948W        W77672  15.312  12.178   4.233
13949W        W77673  19.112  26.593  13.361
13950W        W77674  12.307   4.260   0.379
13951W        W77675  43.433  35.968  12.871
13952W        W77676  36.914  36.901   0.836
13953W        W77677   0.746  34.974   0.905
13954W        W77678  35.914   0.988  11.011
13955W        W77679  23.129  23.556   4.150
13956W        W77680   1.261  39.019  14.802
13957W        W77681  24.665  12.244  12.840
13958W        W77682   3.343  26.155   3.317
13959W        W77683  22.609  27.595  12.400
13960W        W77684  19.077  14.206   0.761
13961W        W77685  34.394  20.095  14.453
13962W        W77686   1.386  26.034  13.953
13963W        W77687  25.123   3.929  13.533
13964W        W77688   4.248  15.328   0.834
13965W        W77689  29.114   4.883   3.252
13966W        W77690   9.240   4.863   3.315
13967W        W77691   4.379   8.204  11.401
13968W        W77692   9.184  42.860  10.532
13969W        W77693  35.495   0.913  13.446
13970W        W77694  15.612   6.922   4.230
13971W        W77695  22.696  20.722   3.852
13972W        W77696  40.030   0.985  14.988
13973W        W77697  42.454  16.772   2.367
13974W        W77698  20.655  37.542  12.017
13975W        W77699   5.307  18.747  11.579
13976W        W77700  33.884  41.019   2.222
13977W        W77701  42.998  29.587  14.508
13978W        W77702   2.777  13.186   3.790
13979W        W77703  26.676  35.939  11.103
13980W        W77704  23.521   2.845  14.398
13981W        W77705  24.039   2.893   2.245
13982W        W77706  20.108   7.738   1.373
13983W        W77707  12.144   8.169  12.364
13984W        W77708  41.330   7.845   4.324
13985W        W77709  44.414  20.735  14.793
13986W        W77710  12.678  39.495  11.533
13987W        W77711   0.328   5.277  11.476
13988W        W77712   8.225   1.923  14.914
13989W        W77713  19.606  34.467  11.971
13990W        W77714  36.393  36.397  13.493
13991W        W77715  11.274  18.126   1.406
13992W        W77716   9.250  15.603   1.833
13993W        W77717  17.088  35.916  14.008
13994W        W77718  26.193   2.227   2.320
13995W        W77719  22.175  29.533  11.018
13996W        W77720  13.306  43.276   1.718
13997W        W77721  41.292   8.175  12.833
13998W        W77722  21.602  29.607  10.610
13999W        W77723  42.915  35.099   2.251
14000W        W77724  15.676  16.258   2.874
14001W        W77725  20.644   1.912   3.360
14002W        W77726  39.334   0.322   4.287
14003W        W77727  25.137  23.239  12.347
14004W        W77728   1.902  23.645   3.326
14005W        W77729  19.259  13.820  11.461
14006W        W77730  24.610  11.733   0.810
14007W        W77731  42.873  16.240   2.851
14008W        W77732  13.333  43.295   3.285
14009W        W77733  39.014  20.541   1.278
14010W        W77734  31.077   4.444  14.287
14011W        W77735  29.149   4.450   4.694
14012W        W77736  12.136  35.469   3.344
14013W        W77737  27.488  27.155   0.334
14014W        W77738  29.436  28.666   4.287
14015W        W77739  37.503  44.423   9.467
14016W        W77740   2.301  37.521  10.107
14017W        W77741   9.389  30.538  10.482
14018W        W77742  12.652   3.316   2.408
14019W        W77743   7.255  20.722   1.833
14020W        W77744  35.524  10.874   1.741
14021W        W77745  25.570  15.301   2.408
14022W        W77746  35.940  28.652  14.336
14023W        W77747  14.321  31.593  12.023
14024W        W77748  16.747  15.190   3.801
14025W        W77749  28.590  25.203   2.699
14026W        W77750  41.020  44.885  13.828
14027W        W77751  29.452  25.033  13.881
14028W        W77752  20.237  31.984  14.954
14029W        W77753   5.778  39.388   1.243
14030W        W77754  42.514  12.119   4.702
14031W        W77755  20.148  30.582   4.315
14032W        W77756   2.418  29.554   3.154
14033W        W77757   0.480  36.866  13.419
14034W        W77758   6.775  22.196   3.318
14035W        W77759  23.592   0.935   0.926
14036W        W77760   7.403   4.384   3.748
14037W        W77761  33.106  29.978   1.253
14038W        W77762  38.866  44.442  11.526
14039W        W77763  26.965  43.912   4.749
14040W        W77764   1.904  40.006  10.563
14041W        W77765  14.211  32.887   2.775
14042W        W77766  29.440  17.279  10.432
14043W        W77767  38.858  36.353   3.301
14044W        W77768  43.957  35.979   5.795
14045W        W77769  36.582  21.601   0.302
14046W        W77770  14.681   5.847   1.836
14047W        W77771  21.221   3.841   3.724
14048W        W77772  17.709  28.930   1.342
14049W        W77773  31.570   8.297   4.326
14050W        W77774  36.933  12.777  10.942
14051W        W77775  25.051  36.095  10.071
14052W        W77776  34.383  35.439  14.965
14053W        W77777  15.206  17.739  14.871
14054W        W77778   2.292  20.655  11.047
14055W        W77779  20.715  29.431   0.370
14056W        W77780  15.234  17.745  13.384
14057W        W77781  43.800  26.520  11.420
14058W        W77782  34.075  34.399  13.009
14059W        W77783  13.725   8.329  14.987
14060W        W77784  12.833  36.985   1.700
14061W        W77785  19.615  11.710  12.393
14062W        W77786  31.578  17.111   1.824
14063W        W77787   9.871   8.795   1.777
14064W        W77788   7.739  31.046   3.774
14065W        W77789  29.921  33.934   3.371
14066W        W77790  36.350  43.365   2.788
14067W        W77791  31.954  18.152  14.438
14068W        W77792  38.957  30.417  13.439
14069W        W77793  33.127  35.392  11.127
14070W        W77794  42.825  17.707   1.370
14071W        W77795  38.412  15.200   0.929
14072W        W77796  16.764   4.339   4.692
14073W        W77797  36.586  22.242   3.375
14074W        W77798   4.407  15.703   4.278
14075W        W77799  35.892  41.907  13.011
14076W        W77800  41.458  27.572   4.220
14077W        W77801  22.627  24.494   1.908
14078W        W77802  34.952  19.199   2.334
14079W        W77803  43.321  20.147  14.834
14080W        W77804  38.842  12.281   1.862
14081W        W77805   3.419  12.311  13.791
14082W        W77806   8.871  29.139  14.825
14083W        W77807  12.129   6.340  12.045
14084W        W77808   5.820  33.381  12.940
14085W        W77809   8.863  37.884   0.742
14086W        W77810  12.154  11.274   4.750
14087W        W77811  20.754  43.312  13.341
14088W        W77812   4.414   1.846   1.783
14089W        W77813   2.334  36.371  12.878
14090W        W77814  18.675   0.350  13.956
14091W        W77815  37.513  13.111   0.464
14092W        W77816  43.473   0.379  14.015
14093W        W77817  36.861  40.878   0.412
14094W        W77818   0.471  13.144  12.891
14095W        W77819   0.278  19.588   3.167
14096W        W77820  20.062  26.963   2.269
14097W        W77821   5.821  21.118  13.843
14098W        W77822   1.944  23.568   1.377
14099W        W77823  31.411   3.716  11.067
14100W        W77824  13.152   5.734   5.215
14101W        W77825  31.441  43.451  12.879
14102W        W77826   9.683  16.219   3.740
14103W        W77827  31.555  30.496   3.765
14104W        W77828   9.866  12.189  12.470
14105W        W77829  20.166   1.380  14.401
14106W        W77830   5.823  16.138   1.717
14107W        W77831   1.879  23.717  14.378
14108W        W77832  31.603  23.985   3.254
14109W        W77833  27.568  30.636  14.279
14110W        W77834  41.801  14.335   5.244
14111W        W77835  35.481   6.705  14.436
14112W        W77836  37.566  22.673   2.707
14113W        W77837  14.612  42.866  12.576
14114W        W77838  25.123  25.145   3.862
14115W        W77839   7.852  13.201  12.438
14116W        W77840  26.621  27.549  10.596
14117W        W77841   5.854  41.309  12.031
14118W        W77842  35.020  11.727   0.262
14119W        W77843   3.848  24.004   0.875
14120W        W77844   6.860  24.652  14.854
14121W        W77845  36.018  20.545  11.488
14122W        W77846   1.269  28.121  11.558
14123W        W77847  20.117  33.439  13.038
14124W        W77848  29.067  29.083   0.867
14125W        W77849  34.017  34.590   3.207
14126W        W77850   4.289  17.277   0.937
14127W        W77851  21.702  21.257   0.363
14128W        W77852  30.598  43.803   1.867
14129W        W77853  15.648  39.990  13.009
14130W        W77854   0.936  31.909   3.231
14131W        W77855  38.427  30.564   5.149
14132W        W77856  27.542  17.170   4.246
14133W        W77857  26.108  27.943  14.774
14134W        W77858   4.370  20.248  14.980
14135W        W77859  42.848  31.039   2.751
14136W        W77860  25.158   5.196  10.595
14137W        W77861  29.004  38.496   1.795
14138W        W77862   4.762  26.630   0.426
14139W        W77863  19.039  34.443   4.822
14140W        W77864  18.155  22.016   2.748
14141W        W77865  39.425  33.554  13.000
14142W        W77866  39.976  28.108   2.835
14143W        W77867  38.003  29.075   4.269
14144W        W77868  10.852   1.349   2.682
14145W        W77869  31.927  35.484  14.445
14146W        W77870   0.416  30.934  12.513
14147W        W77871  20.703  18.719   4.604
14148W        W77872   0.468  16.266  13.348
14149W        W77873  23.600  44.274  12.976
14150W        W77874   1.777   4.734  11.381
14151W        W77875  43.419  21.184  10.905
14152W        W77876  41.354  16.268   3.744
14153W        W77877  20.762  41.469   3.803
14154W        W77878  13.235   1.923   2.199
14155W        W77879   0.359  24.191  13.025
14156W        W77880  38.844   2.860   2.725
14157W        W77881  24.633  37.568  11.864
14158W        W77882   5.917  10.697   2.246
14159W        W77883   3.440  13.710   3.170
14160W        W77884   4.408   8.286   2.888
14161W        W77885   9.776  39.321   4.734
14162W        W77886  21.549   4.427  12.353
14163W        W77887  43.279  16.687   0.943
14164W        W77888  31.534  10.861   4.599
14165W        W77889  14.145  30.105   2.684
14166W        W77890  33.525  43.292  12.877
14167W        W77891   7.669  28.667  11.937
14168W        W77892   1.868  34.895  14.344
14169W        W77893  35.538   4.713   4.318
14170W        W77894  38.515  24.069   3.178
14171W        W77895  26.698  17.790  12.544
14172W        W77896  44.370  34.885   0.823
14173W        W77897  22.997  34.375   0.471
14174W        W77898  21.102   2.269  12.414
14175W        W77899  28.086  39.391   1.760
14176W        W77900  17.739   4.356  14.466
14177W        W77901  32.948  32.895   0.333
14178W        W77902  32.456  39.365  13.524
14179W        W77903  43.912   3.789  14.894
14180W        W77904   3.929  22.647  13.506
14181W        W77905   3.319  16.613  10.936
14182W        W77906  42.889  41.474   3.820
14183W        W77907  28.538  33.582   0.913
14184W        W77908  43.989  14.221   3.806
14185W        W77909  14.675   1.828  11.582
14186W        W77910  27.187  39.816  12.880
14187W        W77911   3.829  10.220  12.466
14188W        W77912  10.287  22.628   1.276
14189W        W77913  20.752  36.926  13.418
14190W        W77914  11.658  25.623   2.406
14191W        W77915  40.986  10.205   4.134
14192W        W77916  33.986  23.018  11.499
14193W        W77917  37.464   5.227  13.398
14194W        W77918  19.648  34.996  14.962
14195W        W77919  14.647  25.709  11.373
14196W        W77920  37.434  22.593   3.241
14197W        W77921  43.363  28.498  13.412
14198W        W77922  27.027  26.536  13.537
14199W        W77923  43.791  30.130  12.531
14200W        W77924  12.301   3.747   3.246
14201W        W77925  34.071  12.745  11.438
14202W        W77926   1.402  33.959  13.932
14203W        W77927  35.986  39.982   2.306
14204W        W77928  39.456  17.574  14.372
14205W        W77929  14.643  33.093   1.228
14206W        W77930  32.904  41.027  12.946
14207W        W77931  19.132  21.174   3.659
14208W        W77932  22.126  39.555   3.695
14209W        W77933  34.453   4.781   2.236
14210W        W77934  18.709  35.373  11.981
14211W        W77935  12.248  14.769  14.990
14212W        W77936  11.373  18.550  13.536
14213W        W77937  15.297  43.404  11.071
14214W        W77938  20.562   4.436   4.179
14215W        W77939  30.452  25.479  14.769
14216W        W77940   1.890  23.115   0.286
14217W        W77941  30.036   4.763   3.691
14218W        W77942  36.380  19.103  14.803
14219W        W77943  24.532  13.312  10.476
14220W        W77944   2.775  14.198  13.914
14221W        W77945   7.198  18.659  12.575
14222W        W77946  25.521  15.253  13.000
14223W        W77947  28.513   2.286   3.215
14224W        W77948   8.823  36.394  11.021
14225W        W77949   3.887  37.399   1.699
14226W        W77950  42.455  30.523   4.174
14227W        W77951  33.534  24.230  10.951
14228W        W77952  17.213  14.618   1.446
14229W        W77953   7.356  16.692  14.992
14230W        W77954  20.718   4.348  11.395
14231W        W77955  19.108   9.658  11.859
14232W        W77956  11.688  26.582   9.926
14233W        W77957  28.077  38.466  11.072
14234W        W77958   8.843  29.593   1.776
14235W        W77959   1.912  33.412   0.846
14236W        W77960   0.355  36.902   4.323
14237W        W77961  19.738   6.867   0.729
14238W        W77962  20.578   3.928  13.838
14239W        W77963   5.231  30.039   0.282
14240W        W77964  29.018  10.183  12.369
14241W        W77965  34.068  30.013  13.854
14242W        W77966   7.415   4.844  10.141
14243W        W77967  27.592  20.662   4.762
14244W        W77968  30.573  21.570  10.994
14245W        W77969  28.158  18.603   1.365
14246W        W77970  30.506   1.935   0.412
14247W        W77971  11.814  18.203  14.508
14248W        W77972  28.478  26.049   2.868
14249W        W77973  34.550  30.609  13.372
14250W        W77974  34.495  30.573   1.783
14251W        W77975  17.743  13.734   1.323
14252W        W77976  28.551  10.363   3.846
14253W        W77977  20.560  24.511  14.814
14254W        W77978  36.555  40.396   0.824
14255W        W77979  33.547  10.683   1.821
14256W        W77980  19.098  43.987  11.067
14257W        W77981  44.837  14.773  13.913
14258W        W77982  19.043  37.024  10.493
14259W        W77983  42.298  33.112  10.922
14260W        W77984   5.774  26.130   4.786
14261W        W77985  37.457  15.252   1.698
14262W        W77986   9.312  42.996   9.969
14263W        W77987   9.703  37.452   4.288
14264W        W77988  13.841  25.668  14.803
14265W        W77989  36.456  14.327   1.856
14266W        W77990  40.972   5.710   0.318
14267W        W77991  10.876  20.678  12.014
14268W        W77992  23.124  42.428  14.406
14269W        W77993  35.579  25.126  13.424
14270W        W77994  26.563   9.353  13.361
14271W        W77995  11.768  16.573  14.406
14272W        W77996  24.629  36.064   2.230
14273W        W77997   3.331  19.238   2.399
14274W        W77998  15.644  12.256  10.957
14275W        W77999  13.122  35.861   3.377
14276W        W78000  21.729  33.984   0.731
14277W        W78001  42.943  17.680   3.767
14278W        W78002  22.175   6.298   2.347
14279W        W78003   1.868  21.118   4.334
14280W        W78004  25.571   0.854  11.871
14281W        W78005  44.937  25.588   1.907
14282W        W78006   9.702  10.206  11.597
14283W        W78007   0.414  21.716  11.516
14284W        W78008  21.241  23.655  10.541
14285W        W78009  34.046  21.024  10.984
14286W        W78010  22.064   4.249   1.842
14287W        W78011  14.591   8.779  13.326
14288W        W78012  43.768  23.131   1.753
14289W        W78013  32.921  40.374   2.334
14290W        W78014  33.879   6.902   1.260
14291W        W78015   6.201  39.825   3.346
14292W        W78016  11.859   9.317   1.257
14293W        W78017  22.171  17.264  14.355
14294W        W78018  43.932   0.367   1.835
14295W        W78019  38.482  32.634   1.752
14296W        W78020  12.849  36.403  11.565
14297W        W78021   1.738  15.329   3.336
14298W        W78022  28.549  34.896  11.513
14299W        W78023  23.568  21.753  11.988
14300W        W78024  35.044   2.368   4.838
14301W        W78025  44.770  40.433   1.786
14302W        W78026  29.576  32.580   1.330
14303W        W78027  23.017   2.465  10.631
14304W        W78028  10.326  42.517  11.083
14305W        W78029  38.466  27.551  11.941
14306W        W78030  26.513  22.171   4.658
14307W        W78031   1.827   7.327  10.935
14308W        W78032  40.433  33.415   5.273
14309W        W78033  25.542  39.428   2.402
14310W        W78034  10.773  41.316   0.933
14311W        W78035   3.276  12.809  12.982
14312W        W78036  29.032  10.253  10.564
14313W        W78037  36.559  21.062   3.859
14314W        W78038  34.474  10.232  10.939
14315W        W78039  21.522   1.910  10.887
14316W        W78040  11.246  26.115  13.422
14317W        W78041  28.541  28.155  11.562
14318W        W78042  42.906  24.617   5.261
14319W        W78043  23.720   3.842  10.635
14320W        W78044  43.277  31.050   0.897
14321W        W78045  11.688  22.570  13.845
14322W        W78046  34.101  38.492   3.697
14323W        W78047   2.377  40.424   1.916
14324W        W78048  16.762  21.216   4.306
14325W        W78049  21.758  10.311   1.730
14326W        W78050  41.004  16.788   0.252
14327W        W78051  32.110   5.346   2.689
14328W        W78052  39.917   7.379  12.084
14329W        W78053  32.048  26.501   4.612
14330W        W78054   1.860   3.422   1.371
14331W        W78055   7.344  20.211   4.798
14332W        W78056   5.319   6.290   4.320
14333W        W78057  28.526  39.029   1.337
14334W        W78058   1.469  18.096  14.956
14335W        W78059  29.942  13.350  13.540
14336W        W78060  20.201  16.138  13.383
14337W        W78061  39.499  22.174  13.928
14338W        W78062   5.716  25.076   2.769
14339W        W78063  19.185  11.844   1.860
14340W        W78064  35.867   9.339  10.632
14341W        W78065  19.773  36.931   0.748
14342W        W78066  20.684  25.513  11.404
14343W        W78067   2.862   7.823   4.809
14344W        W78068  25.548  11.858  13.482
14345W        W78069   3.907  13.290   2.325
14346W        W78070  10.314  34.509   1.342
14347W        W78071  27.154  27.685   4.717
14348W        W78072   2.341  34.594  10.441
14349W        W78073  13.686   8.670  11.437
14350W        W78074  28.097  22.220   2.277
14351W        W78075   7.889  34.982  14.981
14352W        W78076  24.125  41.522   4.826
14353W        W78077   1.279  44.385   4.204
14354W        W78078  33.493  44.985   2.807
14355W        W78079   8.161  41.335   0.329
14356W        W78080   3.268  11.272  14.888
14357W        W78081  25.506  11.339  11.966
14358W        W78082  24.076  24.722  11.052
14359W        W78083   9.167  21.183   4.305
14360W        W78084  11.332  22.050   4.712
14361W        W78085  33.463  18.748  11.943
14362W        W78086  33.926  15.242   5.219
14363W        W78087  18.263  15.742  13.975
14364W        W78088  33.093  42.822  11.118
14365W        W78089  32.077  36.843  13.439
14366W        W78090   4.716  43.494  13.051
14367W        W78091  27.056  18.120   4.672
14368W        W78092   3.284  31.505   4.704
14369W        W78093   5.916  24.134  14.911
14370W        W78094   2.372   8.839   1.925
14371W        W78095  36.406  28.020   0.860
14372W        W78096  14.713   9.836   0.449
14373W        W78097  40.965  19.668   4.167
14374W        W78098   7.737   8.221   2.294
14375W        W78099   9.364  16.787  14.814
14376W        W78100  17.120   5.295  11.473
14377W        W78101   3.312   5.754  10.404
14378W        W78102  43.947  43.795  14.001
14379W        W78103  31.961   3.731  13.392
14380W        W78104  32.515   4.375  13.038
14381W        W78105  13.206   2.847  10.641
14382W        W78106  25.088  28.638  14.496
14383W        W78107   4.927  40.810  12.418
14384W        W78108  34.400  35.449   4.644
14385W        W78109  12.766  10.793   1.432
14386W        W78110  11.170  34.385   0.363
14387W        W78111  41.352   1.258  12.417
14388W        W78112   4.425   6.374   1.833
14389W        W78113  34.541  37.020   0.948
14390W        W78114  41.852  12.144   3.159
14391W        W78115  31.636   0.373   4.164
14392W        W78116   4.246  38.468   1.416
14393W        W78117  18.549  37.335   1.216
14394W        W78118  44.304  22.562  12.920
14395W        W78119  42.000  17.610  12.854
14396W        W78120   3.822  40.492   1.310
14397W        W78121   0.255  42.808  12.431
14398W        W78122  37.069  33.558  12.392
14399W        W78123   7.319  11.147   0.370
14400W        W78124  24.996  44.387  13.916
14401W        W78125  22.165  31.407  11.958
14402W        W78126   5.869  11.743   2.772
14403W        W78127  15.190  41.452  10.478
14404W        W78128   4.239  12.264  13.845
14405W        W78129  41.003  30.514  14.360
14406W        W78130   9.808  39.429   0.883
14407W        W78131   3.216   0.302  12.518
14408W        W78132  16.619  26.995  13.514
14409W        W78133  18.238  34.044   3.387
14410W        W78134   9.873  37.980   2.304
14411W        W78135  17.281  28.515  10.427
14412W        W78136   6.851  16.622  14.336
14413W        W78137   0.760   4.357   3.827
14414W        W78138   9.247  27.524  14.862
14415W        W78139  38.345  44.956  14.402
14416W        W78140   6.792  23.535  12.034
14417W        W78141  39.011  15.683  11.030
14418W        W78142  28.020   2.954  10.136
14419W        W78143   7.845  15.723  11.407
14420W        W78144  25.109  40.414  10.510
14421W        W78145   4.731  13.612  13.934
14422W        W78146  18.680  36.901   1.806
14423W        W78147  40.538  12.225  14.882
14424W        W78148  14.694  20.655   3.197
14425W        W78149   3.742   6.279  11.442
14426W        W78150  31.064  37.929  11.077
14427W        W78151  32.541  39.430   2.858
14428W        W78152   8.298  32.977   4.763
14429W        W78153   2.826  24.098  14.982
14430W        W78154  22.550  19.204  13.535
14431W        W78155   5.690  43.928   2.396
14432W        W78156  43.912   4.808  11.530
14433W        W78157  16.763   2.908  12.827
14434W        W78158   2.287  21.573   1.234
14435W        W78159  16.607  17.179   0.337
14436W        W78160  18.557  32.418   3.817
14437W        W78161  25.116  20.139   1.862
14438W        W78162   3.910   5.796  13.496
14439W        W78163   0.770  32.985   4.646
14440W        W78164  26.177  13.783   0.395
14441W        W78165  44.462  27.484  12.423
14442W        W78166   0.453  15.311   0.818
14443W        W78167  14.736  31.640   2.703
14444W        W78168  33.572  43.840  11.059
14445W        W78169  24.678  22.579   3.171
14446W        W78170   3.246  27.963   1.293
14447W        W78171  14.218  41.340  11.442
14448W        W78172  38.387  29.955   2.225
14449W        W78173  39.361  30.044   4.675
14450W        W78174   4.724  11.857  11.428
14451W        W78175  14.133   2.815   9.945
14452W        W78176  30.093  21.240   2.883
14453W        W78177  27.085  23.525  12.863
14454W        W78178   5.244  32.030   3.246
14455W        W78179  12.783  13.254   0.842
14456W        W78180  28.083   2.809   1.344
14457W        W78181   0.290  25.142   3.266
14458W        W78182  19.061  13.765   4.237
14459W        W78183  36.051  29.167   3.858
14460W        W78184  20.052  26.192   1.237
14461W        W78185   1.860  10.776   2.194
14462W        W78186  22.015  12.322   4.662
14463W        W78187  25.676  19.651  10.001
14464W        W78188  42.932  13.229   2.223
14465W        W78189  35.561  10.237  10.466
14466W        W78190   9.337  13.227  11.981
14467W        W78191  26.979  18.285   2.825
14468W        W78192   2.870  27.600   1.414
14469W        W78193  44.926  44.473  10.503
14470W        W78194  10.725   8.865  10.452
14471W        W78195  31.941   4.348   0.739
14472W        W78196  25.135  31.458  12.002
14473W        W78197  31.631  35.401  11.457
14474W        W78198  26.131  29.045   1.250
14475W        W78199  15.655  31.968  13.037
14476W        W78200  33.517   3.730  14.787
14477W        W78201  38.902  27.979  13.994
14478W        W78202  36.030  41.866   1.762
14479W        W78203  12.275   2.936  13.353
14480W        W78204  17.701  19.662   3.162
14481W        W78205  18.775  19.223  13.875
14482W        W78206  41.530  23.177   2.317
14483W        W78207  42.986  44.472  14.342
14484W        W78208  27.001  41.954  12.893
14485W        W78209  17.223   7.819   4.133
14486W        W78210  14.173  22.567   3.811
14487W        W78211  36.458   8.285  11.028
14488W        W78212   3.365  44.910   4.336
14489W        W78213  31.929   9.706  14.946
14490W        W78214  32.885   5.259  11.990
14491W        W78215   7.288  16.120   2.735
14492W        W78216  10.179  20.228  14.003
14493W        W78217  12.856  19.667  13.380
14494W        W78218  43.454  35.430  12.079
14495W        W78219  29.625  24.176   4.317
14496W        W78220   1.892   4.227  12.895
14497W        W78221  20.243  28.106   1.284
14498W        W78222  30.159  18.070   2.704
14499W        W78223  28.041   1.772   4.806
14500W        W78224   0.325  20.220  10.928
14501W        W78225  38.929  32.127  14.484
14502W        W78226  42.018  16.780   0.807
14503W        W78227   1.475   5.890  10.550
14504W        W78228   4.431  44.484  11.856
14505W        W78229  18.718  22.078   1.788
14506W        W78230  36.866   6.727  11.086
14507W        W78231  35.901  38.397   3.669
14508W        W78232   7.810   1.927  13.447
14509W        W78233   3.915  44.876   3.255
14510W        W78234  28.148   7.189  14.916
14511W        W78235  42.818   6.323   1.405
14512W        W78236  15.292  13.237  13.835
14513W        W78237  31.499  12.817  11.033
14514W        W78238  34.118  43.460  11.967
14515W        W78239  14.711  29.668  13.444
14516W        W78240  16.789  18.716  12.510
14517W        W78241  23.227  14.109   0.440
14518W        W78242  30.152  22.134   0.800
14519W        W78243  22.996  11.202   0.357
14520W        W78244  19.232  13.840   3.339
14521W        W78245  10.686  28.095  14.340
14522W        W78246  12.213  35.056   4.236
14523W        W78247  17.717  42.964   3.338
14524W        W78248   9.666  39.442  10.450
14525W        W78249  42.505   7.265   0.285
14526W        W78250  31.457  32.910   4.348
14527W        W78251  13.246  44.952   1.781
14528W        W78252   3.273  26.177   1.286
14529W        W78253  22.095   8.730  12.941
14530W        W78254  21.526  24.037   4.713
14531W        W78255  37.412  41.318   1.222
14532W        W78256  29.642  43.401  14.483
14533W        W78257  11.205  33.585   4.249
14534W        W78258  36.508  16.226  14.012
14535W        W78259  18.644   6.272  12.497
14536W        W78260  12.337  13.756   2.280
14537W        W78261  18.261  40.985  11.886
14538W        W78262  22.662  32.952  10.548
14539W        W78263  27.042  20.628  12.874
14540W        W78264  34.383  21.758   3.236
14541W        W78265  21.031  44.806  14.278
14542W        W78266  34.449  26.069   2.865
14543W        W78267  15.295  17.654  12.960
14544W        W78268  12.800  37.889   1.218
14545W        W78269  43.863  33.386   2.298
14546W        W78270  10.708  19.122  13.928
14547W        W78271  28.642  24.564  13.040
14548W        W78272  39.462  44.354  14.285
14549W        W78273  35.974  15.734   2.397
14550W        W78274  36.930  21.132  10.445
14551W        W78275   3.806   0.435  12.346
14552W        W78276  43.783   2.760   4.679
14553W        W78277  27.088  39.327   0.453
14554W        W78278  20.740  43.474  14.004
14555W        W78279   4.357  25.593   3.231
14556W        W78280  10.751  35.955  12.527
14557W        W78281  44.853  26.953   3.805
14558W        W78282  12.118  16.750   2.707
14559W        W78283  44.426  19.663   0.802
14560W        W78284  34.119  19.221   2.817
14561W        W78285  35.090  17.715  11.595
14562W        W78286  14.769   9.344   4.303
14563W        W78287  29.633  22.223   3.235
14564W        W78288  31.549  32.626   2.328
14565W        W78289  14.745   6.803  14.010
14566W        W78290  33.578  35.034  12.432
14567W        W78291  17.193   7.800  11.993
14568W        W78292  36.061  30.657  14.959
14569W        W78293  38.485  43.843  14.885
14570W        W78294  26.566  15.698   0.399
14571W        W78295  23.562  18.791  13.335
14572W        W78296  30.537  21.646  13.957
14573W        W78297  17.572  15.318  10.917
14574W        W78298   2.949  36.457   4.221
14575W        W78299  22.221   7.899   0.813
14576W        W78300  38.866   0.274  13.471
14577W        W78301  41.994  36.894   1.397
14578W        W78302  23.094  10.215  13.427
14579W        W78303  10.224  38.966   2.759
14580W        W78304  20.538  44.437   4.690
14581W        W78305  27.653   1.899   4.709
14582W        W78306  16.692  18.177  10.608
14583W        W78307   8.675  11.180   2.186
14584W        W78308  23.526  29.119   4.273
14585W        W78309  27.972  11.721   2.694
14586W        W78310  43.391  44.814   2.367
14587W        W78311  40.360  36.963   3.368
14588W        W78312  32.411  19.271   1.292
14589W        W78313   9.160  37.362  14.812
14590W        W78314  19.594  19.269   3.690
14591W        W78315  27.963  18.213   4.345
14592W        W78316  18.548  27.462   3.371
14593W        W78317  29.173  27.027  13.950
14594W        W78318  30.441  26.543  13.423
14595W        W78319  37.378   5.754   4.173
14596W        W78320  17.297  11.302  10.430
14597W        W78321   2.334  35.361  14.794
14598W        W78322  42.399  34.964   1.264
14599W        W78323   5.747  11.313   3.793
14600W        W78324   2.789  13.638  12.348
14601W        W78325   1.449   2.300  10.425
14602W        W78326   6.791  23.052   2.846
14603W        W78327  16.117  40.832   0.808
14604W        W78328   8.713  22.157  13.547
14605W        W78329  44.964   0.410  14.341
14606W        W78330  19.191  10.759  14.025
14607W        W78331  44.332  27.553   3.385
14608W        W78332   5.349   8.166   4.146
14609W        W78333  42.799  13.821  12.381
14610W        W78334  36.452   4.875  11.990
14611W        W78335  32.528  24.132  11.033
14612W        W78336  12.626  16.249   0.931
14613W        W78337  26.531  37.525   0.304
14614W        W78338  25.492  22.050  14.367
14615W        W78339  18.253   3.245   4.779
14616W        W78340  26.153  16.291   1.794
14617W        W78341   3.931  44.452   3.839
14618W        W78342  10.759  10.665  10.532
14619W        W78343   8.685   8.382   2.184
14620W        W78344  19.249   2.894  10.433
14621W        W78345   0.335  43.893  13.835
14622W        W78346  37.849  19.099  12.972
14623W        W78347  34.013  23.709  12.005
14624W        W78348  35.943   0.862  13.818
14625W        W78349  34.103  23.060   3.169
14626W        W78350  37.087  14.265   3.662
14627W        W78351  33.424  19.227   4.338
14628W        W78352   6.410  19.224  14.020
14629W        W78353  33.384  29.149   0.284
14630W        W78354  39.446  13.326  13.940
14631W        W78355  32.534  34.415   4.275
14632W        W78356   0.474   1.757  14.314
14633W        W78357   4.251  26.003   4.617
14634W        W78358  12.784  26.141  13.043
14635W        W78359  36.002  27.466   4.166
14636W        W78360  11.690  30.508  13.819
14637W        W78361  27.190   2.340   2.745
14638W        W78362   1.394   8.732  14.864
14639W        W78363  33.934  40.841   4.147
14640W        W78364  23.081  25.636   3.337
14641W        W78365  24.018   1.280  13.441
14642W        W78366  23.702  20.641   4.263
14643W        W78367  34.418  30.636   3.668
14644W        W78368   6.291  33.070   2.250
14645W        W78369   4.301  21.030   1.807
14646W        W78370  18.150  11.335  11.516
14647W        W78371   4.713   3.316   2.873
14648W        W78372  34.470  29.151  10.419
14649W        W78373  16.598   2.335   2.367
14650W        W78374   1.850  44.344  13.513
14651W        W78375   2.835  41.442  12.952
14652W        W78376   1.792  17.797  12.558
14653W        W78377  35.049   9.351  10.458
14654W        W78378  16.187  26.026  11.594
14655W        W78379  33.552  13.806  11.049
14656W        W78380  29.099  26.012  13.934
14657W        W78381   5.714   9.821  14.811
14658W        W78382  11.362  24.023   4.837
14659W        W78383  41.317  44.321  12.514
14660W        W78384  27.113   6.358  14.382
14661W        W78385  20.765   4.233   4.776
14662W        W78386  43.368  33.546  13.793
14663W        W78387  18.791  15.189   2.834
14664W        W78388  39.957  16.235   1.284
14665W        W78389  34.443  39.990  12.388
14666W        W78390   3.240  19.764   1.307
14667W        W78391  22.653   8.785  14.326
14668W        W78392   9.198  32.010  11.078
14669W        W78393   4.358  27.633   2.791
14670W        W78394  38.863   2.722   2.265
14671W        W78395   7.408  31.592  11.017
14672W        W78396  12.246  16.729  11.495
14673W        W78397  35.430  35.937  11.975
14674W        W78398  10.803  19.188  10.518
14675W        W78399  33.048  30.468   1.697
14676W        W78400  25.145  40.306   2.814
14677W        W78401  14.180   9.703   2.327
14678W        W78402  42.967  17.145  10.891
14679W        W78403  24.567  19.048   3.771
14680W        W78404  44.284   0.420   3.648
14681W        W78405  20.632  22.087   0.746
14682W        W78406   5.747  42.290   4.296
14683W        W78407  34.512  26.031  10.983
14684W        W78408  42.862   4.848   2.261
14685W        W78409   9.680  43.467  14.029
14686W        W78410   1.419  24.017   4.609
14687W        W78411  21.021  42.517   4.301
14688W        W78412  11.841  28.165   1.862
14689W        W78413  28.520  29.427   2.891
14690W        W78414  28.545  25.608  11.550
14691W        W78415  39.947  41.356  13.339
14692W        W78416  38.072  37.522  14.393
14693W        W78417  15.732   7.173  11.464
14694W        W78418  36.951  39.340  14.460
14695W        W78419  16.221   0.824   2.793
14696W        W78420  15.773  27.043   0.280
14697W        W78421  25.063  29.171  11.875
14698W        W78422  34.429  40.494   1.814
14699W        W78423  13.209  31.017  12.475
14700W        W78424  19.271  22.646   4.245
14701W        W78425  22.516   2.460   4.775
14702W        W78426  21.546   8.285  10.423
14703W        W78427   1.808  37.556   4.291
14704W        W78428  17.123  23.587  11.608
14705W        W78429  37.058   9.359   1.367
14706W        W78430  22.245  10.650  12.849
14707W        W78431  40.360   0.467  10.989
14708W        W78432   2.958  24.978   2.254
14709W        W78433  16.192  25.657  12.529
14710W        W78434  23.624  16.216  14.436
14711W        W78435  18.086  31.427  12.424
14712W        W78436  11.264  41.821  13.851
14713W        W78437  30.072  43.909  12.510
14714W        W78438  30.113   2.362   0.287
14715W        W78439  35.501   8.341   1.431
14716W        W78440  10.258  19.176  11.588
14717W        W78441  38.417  10.730  13.548
14718W        W78442  33.590  30.090   3.663
14719W        W78443  19.721  15.266   3.635
14720W        W78444  17.601  44.009  14.813
14721W        W78445  23.222  10.183  11.981
14722W        W78446  22.223   2.902  10.979
14723W        W78447  16.658   7.371   4.286
14724W        W78448  19.104  37.433  14.337
14725W        W78449  37.003  35.599  11.611
14726W        W78450   3.750  23.496   2.215
14727W        W78451  11.845   9.733   4.130
14728W        W78452  39.975  13.238  12.857
14729W        W78453   7.244   5.706  11.920
14730W        W78454  30.931  32.468   0.290
14731W        W78455  19.731  33.465  12.904
14732W        W78456  18.560  20.732   3.380
14733W        W78457  28.619  19.160  14.993
14734W        W78458   3.896  11.250  14.023
14735W        W78459   6.798  38.565  14.769
14736W        W78460  14.661   3.896   5.573
14737W        W78461   2.253  24.017   0.904
14738W        W78462   0.829  33.430   4.301
14739W        W78463  40.466  24.710   4.196
14740W        W78464   1.429  40.391   0.296
14741W        W78465  28.105  25.659   2.231
14742W        W78466   6.758  42.438  10.923
14743W        W78467  43.509   4.855   3.188
14744W        W78468  12.202   7.757  12.968
14745W        W78469  38.356  30.611   2.702
14746W        W78470  43.398  43.895   3.853
14747W        W78471  34.932  44.486  11.034
14748W        W78472  15.699  16.179   1.262
14749W        W78473  32.888  33.031   3.709
14750W        W78474  37.509  43.919  10.005
14751W        W78475  42.844  10.305   4.234
14752W        W78476  34.585   1.411   4.271
14753W        W78477  18.657  23.025  11.386
14754W        W78478  35.958  38.355   4.274
14755W        W78479  12.274  17.559  12.052
14756W        W78480  22.518  26.585  14.950
14757W        W78481   8.827  20.094   1.884
14758W        W78482  14.707   6.251   3.363
14759W        W78483  30.578   4.900  12.515
14760W        W78484  15.317   6.909   3.662
14761W        W78485  20.177   3.923   4.301
14762W        W78486   7.323  44.948  14.505
14763W        W78487  43.963  44.932   2.760
14764W        W78488  15.577   5.222  13.043
14765W        W78489  35.994  32.563   1.798
14766W        W78490   8.897  32.889  10.570
14767W        W78491  22.077  16.596   4.785
14768W        W78492  42.928   7.745  12.824
14769W        W78493  39.374  24.667   1.282
14770W        W78494   1.373  42.793   2.190
14771W        W78495  35.439  22.999  14.879
14772W        W78496  10.718  28.126  14.815
14773W        W78497  34.511   7.795  14.446
14774W        W78498   0.369   2.822   2.853
14775W        W78499  22.731  43.918   2.801
14776W        W78500  20.099   5.220   4.274
14777W        W78501  34.970  19.552   4.249
14778W        W78502   8.270   8.786   1.923
14779W        W78503  41.403   9.320   4.333
14780W        W78504  16.218  27.991  14.840
14781W        W78505  34.069  18.246  12.866
14782W        W78506   7.808  17.085  13.400
14783W        W78507  27.691  32.914   4.814
14784W        W78508  10.361  11.833   2.758
14785W        W78509  12.307   1.821   4.819
14786W        W78510  12.254  33.419  11.887
14787W        W78511  10.824  10.163  12.474
14788W        W78512  15.595  37.050   1.844
14789W        W78513  44.322  22.520   4.702
14790W        W78514  34.025   3.409   3.164
14791W        W78515   6.867  20.190   2.878
14792W        W78516  39.366  40.449   9.437
14793W        W78517  24.504  17.083  14.327
14794W        W78518  17.608  44.784   3.639
14795W        W78519  28.577  39.546   0.967
14796W        W78520  32.945  21.694   2.689
14797W        W78521  14.191   4.794  12.031
14798W        W78522  24.142  34.401   0.400
14799W        W78523  39.042   3.877   0.893
14800W        W78524  43.291  17.597  13.414
14801W        W78525  41.923   3.945   0.890
14802W        W78526  33.975   9.649  14.476
14803W        W78527  16.282   5.751   3.168
14804W        W78528  11.724   8.161  12.842
14805W        W78529   9.659  18.651  14.831
14806W        W78530  12.119  26.107   1.803
14807W        W78531  27.009  43.484  11.481
14808W        W78532  40.431   2.467  12.931
14809W        W78533  40.322   1.279  13.380
14810W        W78534   9.706  23.579   2.755
14811W        W78535  17.094  15.182   2.249
14812W        W78536  20.195  43.502  11.926
14813W        W78537  35.421  38.373  12.963
14814W        W78538  28.032  24.570  12.476
14815W        W78539  38.544  15.263  13.854
14816W        W78540   0.784  23.007  10.977
14817W        W78541   7.362   0.913  13.913
14818W        W78542  17.118   4.772   1.315
14819W        W78543   3.717  20.744  10.599
14820W        W78544  21.641  10.786  13.496
14821W        W78545  23.624  13.111  12.445
14822W        W78546  18.280  12.731  10.520
14823W        W78547  33.493   1.935  10.939
14824W        W78548  33.577  35.020   3.254
14825W        W78549   7.304  13.664   2.315
14826W        W78550  14.813   9.193  10.510
14827W        W78551  13.643   6.897   0.332
14828W        W78552  13.636  22.536  13.975
14829W        W78553  11.289  20.083  10.919
14830W        W78554  26.594  43.409   3.172
14831W        W78555   5.891  41.462   3.351
14832W        W78556  40.353  33.007   4.303
14833W        W78557  29.091  22.582  14.889
14834W        W78558   6.414   2.813  12.089
14835W        W78559  15.816   1.327  11.006
14836W        W78560  26.611   0.296   1.422
14837W        W78561  19.072  39.030   3.197
14838W        W78562  38.834  27.552   1.381
14839W        W78563  41.496   5.216  10.496
14840W        W78564   0.490  10.183   4.341
14841W        W78565   7.271   7.221  11.899
14842W        W78566  43.460  42.341   4.119
14843W        W78567   8.897   2.795   3.786
14844W        W78568   1.429  24.515  11.024
14845W        W78569  18.546   3.822   2.295
14846W        W78570  12.172  23.605  13.939
14847W        W78571  25.539  30.156  12.952
14848W        W78572  24.568   2.449   3.670
14849W        W78573   9.168  18.587   2.352
14850W        W78574   7.724   9.802  14.801
14851W        W78575   7.186  19.279  13.526
14852W        W78576   3.363  21.582   2.263
14853W        W78577  10.765  14.657   4.724
14854W        W78578  33.393   0.794  11.068
14855W        W78579  39.893  24.987  11.861
14856W        W78580  26.991  28.186  13.854
14857W        W78581  31.941   1.264  12.019
14858W        W78582  22.028  17.196   3.186
14859W        W78583   0.475   8.689  13.531
14860W        W78584  36.860   6.875   4.723
14861W        W78585  21.017  12.819   2.376
14862W        W78586  35.552  42.781   2.902
14863W        W78587  33.597  25.497  12.902
14864W        W78588  38.523   2.961  11.457
14865W        W78589  14.786  39.337  12.904
14866W        W78590  14.632  40.387   0.278
14867W        W78591  21.259  16.791  12.456
14868W        W78592   4.916  35.509   0.900
14869W        W78593  20.758  44.921  14.800
14870W        W78594  44.876  19.776   2.410
14871W        W78595  21.083  29.032   3.689
14872W        W78596  14.130  14.341  14.848
14873W        W78597  16.786  31.987  13.938
14874W        W78598  23.991  42.857   4.825
14875W        W78599  20.111  33.413   0.870
14876W        W78600  38.008  13.220  12.404
14877W        W78601  17.281  27.500   1.850
14878W        W78602  38.329  41.830  13.321
14879W        W78603  18.629  28.166   3.810
14880W        W78604  13.630  31.627  10.966
14881W        W78605  22.527  42.775  12.347
14882W        W78606  30.067  20.589   2.330
14883W        W78607   3.757  33.522  10.091
14884W        W78608  12.241  39.918   1.788
14885W        W78609  27.182  17.783   2.674
14886W        W78610  11.314  19.673  11.037
14887W        W78611  41.959   7.307  13.880
14888W        W78612  38.441  31.486   4.802
14889W        W78613  23.227   2.310   1.738
14890W        W78614  23.159  31.045   4.274
14891W        W78615  21.152  43.298   4.622
14892W        W78616  26.577  12.649  14.316
14893W        W78617  33.599  35.450   2.318
14894W        W78618  14.136  34.983   4.718
14895W        W78619  12.340   9.765  14.873
14896W        W78620   3.916   0.345  10.981
14897W        W78621  24.210   9.225  10.988
14898W        W78622  36.018  30.648   4.615
14899W        W78623  27.007  24.015  12.071
14900W        W78624  27.687   0.300  13.521
14901W        W78625  10.337  39.835  12.476
14902W        W78626  32.125  11.157   4.669
14903W        W78627   5.724  31.612  11.519
14904W        W78628  21.522  18.690   4.114
14905W        W78629  10.146  10.792   5.752
14906W        W78630   8.723  37.553   0.858
14907W        W78631   3.721  16.204   3.155
14908W        W78632  31.920   9.718   0.447
14909W        W78633  42.978  30.048   1.719
14910W        W78634  22.638  40.908  12.875
14911W        W78635  35.021  15.659   1.853
14912W        W78636   0.389  28.452   1.332
14913W        W78637   9.643  18.058  14.962
14914W        W78638  41.904  16.119  12.511
14915W        W78639  23.644   9.367   3.217
14916W        W78640  41.988  23.120   0.285
14917W        W78641  18.702   4.788   1.710
14918W        W78642  19.130  30.110  14.339
14919W        W78643  36.078  40.336  13.062
14920W        W78644  10.287   8.388  10.626
14921W        W78645  16.663  26.176   1.277
14922W        W78646  36.874  17.798  14.818
14923W        W78647  40.393  41.321  11.505
14924W        W78648  11.640  27.555   1.293
14925W        W78649  13.303  41.472  12.496
14926W        W78650  26.985  33.926  13.983
14927W        W78651  11.671   6.898   0.831
14928W        W78652  37.356  37.365  11.428
14929W        W78653  24.174  22.153  11.014
14930W        W78654  42.426   1.819  11.865
14931W        W78655   8.775  23.190  14.990
14932W        W78656  42.408  40.851   2.349
14933W        W78657  13.720  27.161  10.473
14934W        W78658  28.468  20.720   1.886
14935W        W78659   0.413  15.649   5.176
14936W        W78660   6.294  10.804   9.473
14937W        W78661  25.532  43.303   1.758
14938W        W78662   4.928  26.156  14.978
14939W        W78663   7.901  41.914  11.882
14940W        W78664  38.968  37.515  11.931
14941W        W78665  29.117   7.720  12.494
14942W        W78666  39.464   0.819   4.337
14943W        W78667  32.533   0.900  10.898
14944W        W78668  39.383  38.517  11.457
14945W        W78669  10.340  44.911   2.838
14946W        W78670  40.054  13.670  14.355
14947W        W78671  15.319  35.591  11.090
14948W        W78672  26.544  28.680   9.970
14949W        W78673   5.374  22.112  11.538
14950W        W78674  33.072  28.949   1.403
14951W        W78675  38.484  41.014  11.572
14952W        W78676  20.047  29.613   1.316
14953W        W78677   8.300  37.953  11.436
14954W        W78678   1.463  13.195  11.095
14955W        W78679   3.258   4.338  14.951
14956W        W78680  42.520  33.077   0.844
14957W        W78681  30.508  21.192  11.417
14958W        W78682   5.272  11.365   5.642
14959W        W78683   5.203  34.384  10.525
14960W        W78684  12.831  14.207  11.545
14961W        W78685  36.413  17.634  13.334
14962W        W78686  14.286  43.987   2.202
14963W        W78687  11.309  15.307  12.886
14964W        W78688  11.643  33.904  10.034
14965W        W78689  39.425  29.973  12.033
14966W        W78690   3.913  25.212  14.832
14967W        W78691  32.492   8.179  13.343
14968W        W78692  19.047  27.121  12.916
14969W        W78693  13.297  25.644   3.805
14970W        W78694  38.421  44.813   1.866
14971W        W78695  15.116  20.743  12.939
14972W        W78696  38.440   6.313   3.677
14973W        W78697  11.360  27.188  12.396
14974W        W78698  17.152  29.077   1.298
14975W        W78699  17.741   7.282  14.455
14976W        W78700   5.807  31.542   1.283
14977W        W78701   2.873  28.066   0.244
14978W        W78702  31.147  41.442  12.517
14979W        W78703  35.002   2.821   1.756
14980W        W78704  43.373  28.034   3.867
14981W        W78705  11.223  11.639  14.277
14982W        W78706  24.051  23.635   2.369
14983W        W78707  40.822  39.819   4.254
14984W        W78708  16.174  41.939   3.681
14985W        W78709  32.574  29.959  10.618
14986W        W78710  32.059  42.986   0.847
14987W        W78711  32.522  31.074  12.511
14988W        W78712  28.950   0.418  11.382
14989W        W78713  17.100  22.735   5.188
14990W        W78714  37.444  21.215   1.816
14991W        W78715  21.049   6.680  13.431
14992W        W78716  19.178  35.076   0.409
14993W        W78717  18.050   1.801  11.915
14994W        W78718   7.793  35.928  11.988
14995W        W78719  44.782  12.140   3.334
14996W        W78720  13.823  38.395   3.169
14997W        W78721  39.491  27.159  12.090
14998W        W78722   0.382  37.445   3.238
14999W        W78723  29.543  33.025  11.570
15000W        W78724   4.920  39.315  10.897
15001W        W78725   7.679  30.130   2.273
15002W        W78726  42.358  23.998   2.198
15003W        W78727   5.261  30.934  12.874
15004W        W78728  34.885  17.712   2.785
15005W        W78729  22.162   2.908   2.365
15006W        W78730   5.210  16.698   4.291
15007W        W78731   8.354  14.104   2.264
15008W        W78732  40.312  10.876  12.470
15009W        W78733  19.643  41.299  10.519
15010W        W78734   2.425  14.279   1.305
15011W        W78735  16.259  10.351   0.943
15012W        W78736  38.073  17.577   3.670
15013W        W78737  10.661  18.685  10.465
15014W        W78738  14.784  40.009   1.256
15015W        W78739  20.664   4.886   3.774
15016W        W78740  26.568  18.227   4.770
15017W        W78741  33.523  32.895  13.864
15018W        W78742  23.556  43.985   4.612
15019W        W78743  24.166  11.202   3.153
15020W        W78744  23.116  10.367   1.277
15021W        W78745  36.559  20.652  13.979
15022W        W78746  32.962   9.268   3.206
15023W        W78747  43.401  39.958   0.751
15024W        W78748  26.635  38.408  10.511
15025W        W78749  27.614   3.903   1.303
15026W        W78750  39.907  12.293  11.124
15027W        W78751  23.214  27.062   4.213
15028W        W78752  13.752  10.687  14.016
15029W        W78753   1.254   6.758  13.504
15030W        W78754  11.729  34.914  12.827
15031W        W78755  12.697  28.621   2.838
15032W        W78756  10.204  43.504  13.799
15033W        W78757   3.365  13.804   3.769
15034W        W78758   0.827  39.991   3.313
15035W        W78759   8.294  32.521   1.392
15036W        W78760  20.676  36.564   0.771
15037W        W78761  26.115   5.429   3.286
15038W        W78762  12.771  41.450   3.824
15039W        W78763  38.952  40.969   3.369
15040W        W78764   2.830   2.367   3.364
15041W        W78765   7.906  37.487  12.498
15042W        W78766  42.978  27.998  14.015
15043W        W78767   1.469  11.700   4.206
15044W        W78768  42.478  28.131   4.782
15045W        W78769  24.688  12.344  13.821
15046W        W78770   8.163  20.679   3.330
15047W        W78771  33.976   8.367  11.566
15048W        W78772  37.363   8.404  12.430
15049W        W78773  43.931  16.260   0.438
15050W        W78774  30.028  22.248  13.907
15051W        W78775  29.996   4.906   3.341
15052W        W78776  23.636  43.887  12.046
15053W        W78777  33.968  28.100  11.531
15054W        W78778   6.852  16.778   3.178
15055W        W78779   8.359  42.844   0.824
15056W        W78780   2.439  29.986   0.742
15057W        W78781   7.696  34.010  11.398
15058W        W78782  22.057  18.114  12.487
15059W        W78783  38.077  11.795  10.510
15060W        W78784  30.941  15.708   1.715
15061W        W78785   1.396  23.233   0.330
15062W        W78786  33.622  41.813  14.289
15063W        W78787  44.860  18.758  14.385
15064W        W78788  16.110  11.780  11.947
15065W        W78789  44.762  35.985  14.790
15066W        W78790  19.093   9.820   1.290
15067W        W78791   7.876   9.302  10.640
15068W        W78792  25.660  34.502  14.876
15069W        W78793  15.194   0.387   1.792
15070W        W78794  43.782  39.004  14.955
15071W        W78795   5.378  30.620  14.392
15072W        W78796  18.698  35.563   4.600
15073W        W78797  27.082   7.399   0.931
15074W        W78798  43.285   7.701  14.781
15075W        W78799   4.441   1.833  14.949
15076W        W78800  17.780   4.222  12.934
15077W        W78801  18.727  13.733  10.011
15078W        W78802   7.170  32.004  11.595
15079W        W78803  43.924  24.223   2.304
15080W        W78804  44.291  10.211   1.824
15081W        W78805  25.214   9.809   9.606
15082W        W78806  25.473  33.623  12.076
15083W        W78807  40.531  22.207   2.665
15084W        W78808  31.587  26.650   4.138
15085W        W78809  25.184  31.958  14.992
15086W        W78810  22.145  17.099   2.319
15087W        W78811  26.965   2.277  11.430
15088W        W78812  26.125  30.568   0.397
15089W        W78813  33.524   6.803   1.279
15090W        W78814  16.605   6.905   3.357
15091W        W78815   1.829  32.399   1.911
15092W        W78816  19.172   6.261   2.669
15093W        W78817  40.812  38.919   0.265
15094W        W78818   6.920   2.745  10.598
15095W        W78819  40.511   9.738  11.097
15096W        W78820  32.089  22.621   4.797
15097W        W78821  10.741  30.636  12.936
15098W        W78822  11.257  33.539  11.874
15099W        W78823   9.183   5.838   3.832
15100W        W78824  31.549   9.872  12.889
15101W        W78825   7.236  19.222  10.995
15102W        W78826  18.755   9.808  14.888
15103W        W78827  30.478  18.068   0.440
15104W        W78828  27.055  12.680  12.009
15105W        W78829  33.403  21.057   9.934
15106W        W78830  10.699   6.920  11.026
15107W        W78831  11.285  35.910  11.603
15108W        W78832  43.478  37.883   5.741
15109W        W78833  22.615  26.567   4.789
15110W        W78834  11.306  20.733   4.819
15111W        W78835  32.921  44.939   1.841
15112W        W78836   9.187  30.959   1.315
15113W        W78837   8.367  38.978  10.420
15114W        W78838  25.181   9.184  11.983
15115W        W78839  32.129  15.724   1.341
15116W        W78840  20.059  17.595   0.402
15117W        W78841  44.991   1.474   2.714
15118W        W78842  10.671  43.802  13.470
15119W        W78843  32.101  15.101   4.337
15120W        W78844   0.787  27.594   2.742
15121W        W78845   5.735  43.961  11.586
15122W        W78846  21.128  23.669   9.929
15123W        W78847  16.622  30.463   0.928
15124W        W78848  14.775  22.038   1.326
15125W        W78849  13.806   5.196  14.279
15126W        W78850  42.882  26.564   1.323
15127W        W78851  30.475  23.655   2.203
15128W        W78852  19.255  19.607   4.291
15129W        W78853   6.711  13.732  13.836
15130W        W78854  23.532  11.680   2.779
15131W        W78855  28.465   2.445   3.781
15132W        W78856  12.731  30.069   1.369
15133W        W78857  14.765  38.427  14.899
15134W        W78858  16.210  21.251  10.914
15135W        W78859  32.017   8.888  13.442
15136W        W78860  39.342  35.983   2.206
15137W        W78861  12.291   7.387   1.694
15138W        W78862  36.347  25.962  11.481
15139W        W78863  25.694  31.952  14.344
15140W        W78864   1.753  21.038  14.483
15141W        W78865   5.704  12.704   4.314
15142W        W78866  40.543  35.451  14.382
15143W        W78867  14.187  37.532  12.913
15144W        W78868  42.919  25.539   0.901
15145W        W78869  23.505  17.207  12.830
15146W        W78870  35.543  34.514   3.800
15147W        W78871  16.605  25.166  14.790
15148W        W78872  37.062  39.384   1.716
15149W        W78873  18.100  43.430  11.011
15150W        W78874  28.616   8.871  12.514
15151W        W78875   9.238  44.353   4.125
15152W        W78876   6.203  14.165  11.479
15153W        W78877  33.583  15.594  12.461
15154W        W78878  14.808  41.508  11.051
15155W        W78879  26.022   1.393  12.485
15156W        W78880  14.120  34.015   3.163
15157W        W78881   1.791  33.388  11.462
15158W        W78882   1.451  30.624  10.467
15159W        W78883  33.947  26.593   1.419
15160W        W78884  42.802   9.156  12.351
15161W        W78885  43.766  41.021   0.762
15162W        W78886  43.281  40.869   2.826
15163W        W78887  28.441  18.601  13.878
15164W        W78888   2.381  26.973  11.474
15165W        W78889  40.973   3.378  13.532
15166W        W78890  11.251  43.468  13.945
15167W        W78891  23.708  39.533   0.442
15168W        W78892  12.797  36.974   2.293
15169W        W78893  40.315  43.335   3.328
15170W        W78894  14.260  31.506   1.368
15171W        W78895  17.105  11.342  11.892
15172W        W78896  21.552  23.657   4.714
15173W        W78897   6.892   7.328  11.006
15174W        W78898  11.184   1.898  12.040
15175W        W78899   1.394  40.882  10.527
15176W        W78900  23.151   7.363   4.339
15177W        W78901   5.706  14.331   3.276
15178W        W78902  34.100  29.122  13.790
15179W        W78903  30.014  31.970   9.943
15180W        W78904  13.318  17.300  10.962
15181W        W78905  10.804  37.070  13.328
15182W        W78906  26.177  39.839   1.858
15183W        W78907  22.598  15.759   4.694
15184W        W78908  16.809  26.011   1.736
15185W        W78909  38.947  30.549  11.088
15186W        W78910  41.924   5.282  14.886
15187W        W78911  32.936  41.359   4.814
15188W        W78912  40.976  12.622  11.542
15189W        W78913  10.277  41.325   3.862
15190W        W78914  34.565  14.312  12.411
15191W        W78915  37.405  22.684  13.458
15192W        W78916  27.957  19.738  14.464
15193W        W78917  35.078  32.038  11.078
15194W        W78918  28.037  30.908  11.002
15195W        W78919  10.274  12.277   5.646
15196W        W78920   5.399  27.558   3.284
15197W        W78921   1.868   4.871  11.889
15198W        W78922   9.377   0.787   4.260
15199W        W78923  43.381   1.437  11.385
15200W        W78924   0.360  22.251   1.866
15201W        W78925  22.546  22.731  14.463
15202W        W78926  36.409  36.891  10.965
15203W        W78927  14.259  11.207   2.183
15204W        W78928  38.988   7.789   2.178
15205W        W78929   0.370  36.985  10.939
15206W        W78930  15.657  31.490  14.388
15207W        W78931  12.626  22.514  12.960
15208W        W78932  22.697  44.760   2.667
15209W        W78933  25.069   8.702   3.333
15210W        W78934   3.756  19.063  12.518
15211W        W78935  30.440   9.785   3.188
15212W        W78936  34.567  16.306   0.306
15213W        W78937  43.861  36.022   9.632
15214W        W78938  22.250  43.916  12.396
15215W        W78939  32.067  22.602   3.176
15216W        W78940  43.384   9.745  13.823
15217W        W78941  44.309   4.289  10.498
15218W        W78942  27.609  13.640  11.518
15219W        W78943  18.608  39.861   0.893
15220W        W78944   9.288  12.717  13.882
15221W        W78945  16.142  18.165  13.406
15222W        W78946  10.319  30.478  12.373
15223W        W78947  24.492   0.975  12.962
15224W        W78948  41.037  38.514   0.379
15225W        W78949  18.259  44.001   0.834
15226W        W78950   6.771  21.665  12.501
15227W        W78951  15.712  42.525   1.842
15228W        W78952  10.335  23.726   0.945
15229W        W78953  39.033  30.624   4.684
15230W        W78954  36.584  44.844   2.276
15231W        W78955  33.522  36.089  11.967
15232W        W78956  32.501   7.231   2.805
15233W        W78957  22.670   6.892   3.631
15234W        W78958  18.117  33.383  11.075
15235W        W78959  23.215  23.641   0.359
15236W        W78960  26.630  38.380   2.709
15237W        W78961  25.142  10.800  10.152
15238W        W78962  10.683  35.955   4.737
15239W        W78963  44.899   6.223   1.868
15240W        W78964  38.562  24.055   0.300
15241W        W78965  40.846  24.585  12.996
15242W        W78966   3.442  40.460   3.304
15243W        W78967  36.965   3.842   3.235
15244W        W78968   2.415  25.174   0.820
15245W        W78969  14.816  37.086  10.498
15246W        W78970   8.183  23.704   3.253
15247W        W78971  27.013  22.103   1.767
15248W        W78972  12.702  21.635   2.752
15249W        W78973  19.592  33.077  12.563
15250W        W78974  30.471  33.103   3.732
15251W        W78975  24.575  30.428  12.091
15252W        W78976  23.508   3.727   1.784
15253W        W78977  22.551  12.135  12.084
15254W        W78978  18.548  34.957   3.262
15255W        W78979  10.252  40.886   2.829
15256W        W78980  34.546  35.875  12.575
15257W        W78981  26.508  21.539  11.507
15258W        W78982  16.664  40.467   4.338
15259W        W78983  14.622   2.750  10.020
15260W        W78984  34.600  16.642   0.264
15261W        W78985   2.467  22.169  12.929
15262W        W78986  21.651  14.322   4.733
15263W        W78987  37.451   5.923  14.468
15264W        W78988   7.229   9.807  11.992
15265W        W78989  22.190  42.846   3.839
15266W        W78990  28.163   8.239   4.323
15267W        W78991  41.836   3.781   3.313
15268W        W78992  37.930  18.211  14.419
15269W        W78993  10.634   0.922  14.961
15270W        W78994  13.183  34.498   3.755
15271W        W78995  27.108  17.609   3.314
15272W        W78996   1.859   5.758  11.544
15273W        W78997  33.006  34.543   2.382
15274W        W78998   6.880  28.159  12.436
15275W        W78999  15.711  13.147  12.984
15276W        W79000  24.141  29.135   1.252
15277W        W79001  30.549  12.289  13.893
15278W        W79002  11.214  26.991   4.647
15279W        W79003  17.116  28.959  13.518
15280W        W79004  21.222  38.884   3.702
15281W        W79005  39.991  42.909  14.814
15282W        W79006   8.372   9.170  14.982
15283W        W79007  42.959  30.494   0.346
15284W        W79008  31.913   8.336  13.533
15285W        W79009  10.743  29.542   3.293
15286W        W79010  41.001  33.574  12.346
15287W        W79011   0.376  43.893   3.272
15288W        W79012  29.659  38.895  10.508
15289W        W79013  39.396  20.224  12.471
15290W        W79014   9.288   2.345   0.945
15291W        W79015  24.660  32.576   1.914
15292W        W79016  41.830  38.010  13.461
15293W        W79017  17.074   4.229   4.655
15294W        W79018  15.716  22.086  14.907
15295W        W79019  43.964   2.348   0.769
15296W        W79020  25.553  38.937   2.772
15297W        W79021   0.972  27.544  11.027
15298W        W79022  11.142  20.179   1.804
15299W        W79023  13.717  40.978  10.543
15300W        W79024  41.895  11.746   0.949
15301W        W79025  26.590  44.844  13.029
15302W        W79026  17.091  35.956   1.444
15303W        W79027  29.625  41.984   3.675
15304W        W79028  27.461  33.925   0.268
15305W        W79029   8.819  42.844   3.829
15306W        W79030   7.710   1.329   0.287
15307W        W79031  35.452   5.845   2.185
15308W        W79032  24.213  20.556   2.845
15309W        W79033  32.570  23.207  10.499
15310W        W79034  13.214  24.538  12.968
15311W        W79035   6.326  42.364   3.831
15312W        W79036  37.538  29.154   1.220
15313W        W79037  36.348  42.507   1.437
15314W        W79038  31.615   7.803   1.833
15315W        W79039   2.834  18.748  12.856
15316W        W79040  21.257   3.759   4.763
15317W        W79041  15.641   5.219   1.271
15318W        W79042  26.553  26.151   1.218
15319W        W79043  19.680  37.480  14.967
15320W        W79044  34.116  23.698   2.673
15321W        W79045  40.524   1.804  11.407
15322W        W79046  41.025   7.819  12.097
15323W        W79047   8.803  18.155  10.994
15324W        W79048  12.349   5.888   4.663
15325W        W79049  17.770  25.114   3.775
15326W        W79050  44.271  35.874   4.216
15327W        W79051  13.658   2.465   0.734
15328W        W79052  28.616  21.651  12.996
15329W        W79053  22.515  21.702   4.719
15330W        W79054  44.796  30.466  13.885
15331W        W79055  28.585   6.885   1.841
15332W        W79056   9.866  13.830  10.451
15333W        W79057  43.363  37.874   9.549
15334W        W79058  15.087  34.449  11.059
15335W        W79059  44.381  11.711   3.762
15336W        W79060  30.021  28.039  14.874
15337W        W79061  29.142  24.622  11.518
15338W        W79062  22.139  25.031   1.352
15339W        W79063  32.927  27.480  12.090
15340W        W79064  43.450  43.867   4.215
15341W        W79065  37.839  31.939  14.433
15342W        W79066  36.452   4.213   3.347
15343W        W79067  20.238  20.719  14.913
15344W        W79068   7.245  15.261  13.532
15345W        W79069  14.280  15.137  10.474
15346W        W79070  39.988   6.728  10.578
15347W        W79071  40.341   7.707   4.711
15348W        W79072  43.904   2.779  13.887
15349W        W79073  10.741  26.063   0.258
15350W        W79074  29.660   4.705  13.048
15351W        W79075  18.658  43.357   3.761
15352W        W79076  33.066  42.775   1.415
15353W        W79077  25.622  40.494   2.701
15354W        W79078  17.106  15.805  12.439
15355W        W79079  15.797  41.874  14.015
15356W        W79080   1.479  41.934  12.093
15357W        W79081  14.185  18.731  11.002
15358W        W79082  27.996   5.213   3.237
15359W        W79083  34.102  40.980  11.910
15360W        W79084  11.684  22.625   0.249
15361W        W79085   5.343  40.997   0.396
15362W        W79086  26.603  23.100   0.347
15363W        W79087  30.652  28.083  13.965
15364W        W79088  36.042   4.368   3.307
15365W        W79089   0.785  36.064  14.485
15366W        W79090  29.107  37.341   4.708
15367W        W79091  33.006  25.711   3.195
15368W        W79092  13.154  32.395  12.376
15369W        W79093  15.316  21.523   3.747
15370W        W79094   1.385   5.271  13.005
15371W        W79095  42.018  10.768  14.299
15372W        W79096  28.493  34.003   0.305
15373W        W79097   6.367  33.513   0.944
15374W        W79098  37.072  26.637  13.881
15375W        W79099  32.599  21.216  12.935
15376W        W79100  44.401  39.025  12.404
15377W        W79101  39.534   9.717  14.309
15378W        W79102  27.689  22.037  11.436
15379W        W79103  34.587  12.248   5.602
15380W        W79104  39.835  38.044   0.862
15381W        W79105   3.949  22.229  12.089
15382W        W79106  36.992  20.261   2.182
15383W        W79107   5.246  22.530   1.748
15384W        W79108  34.977  41.490  11.479
15385W        W79109  39.391  14.608  10.641
15386W        W79110  16.302  44.407   2.738
15387W        W79111   2.436  21.737   3.862
15388W        W79112  18.148   3.734  13.888
15389W        W79113   6.313  16.109   3.707
15390W        W79114   4.781  28.442   1.839
15391W        W79115  39.420  30.638  14.910
15392W        W79116  27.959  40.328  12.529
15393W        W79117  19.041  26.686  11.429
15394W        W79118   6.774  20.184   0.277
15395W        W79119  19.756  44.957   1.305
15396W        W79120  41.299  44.272   1.736
15397W        W79121  20.768  41.522  12.055
15398W        W79122  20.662  12.618   0.263
15399W        W79123  32.416  23.609  14.846
15400W        W79124  31.546  38.876  10.506
15401W        W79125  43.381  42.467  11.946
15402W        W79126  17.174  33.472   2.675
15403W        W79127  44.820  32.426   3.828
15404W        W79128  35.563   5.904  12.947
15405W        W79129  13.683  13.833  11.384
15406W        W79130  18.290  12.240   2.798
15407W        W79131   1.263   8.834  13.917
15408W        W79132  10.687   2.904   1.819
15409W        W79133  23.618  35.556  10.636
15410W        W79134  25.014  18.073   1.302
15411W        W79135  31.464  23.088   4.817
15412W        W79136   3.328  17.568   3.148
15413W        W79137  28.490  20.540  13.400
15414W        W79138  31.434   7.329  11.411
15415W        W79139  43.770  23.052  13.006
15416W        W79140  43.925  29.600   3.196
15417W        W79141  29.134  20.047  10.632
15418W        W79142  24.144  24.983   1.839
15419W        W79143  38.556  15.095   4.211
15420W        W79144  37.086  10.689   0.890
15421W        W79145  27.490   9.216  14.948
15422W        W79146  24.167  12.143  10.629
15423W        W79147   2.800  35.470   2.815
15424W        W79148  24.058  10.217   3.379
15425W        W79149  10.315  19.167   2.368
15426W        W79150  38.549  23.493  11.410
15427W        W79151   9.279  17.071   2.293
15428W        W79152  31.936  26.981   3.817
15429W        W79153   2.747  38.327  14.365
15430W        W79154   2.442   9.673  11.118
15431W        W79155   6.315   5.317  13.320
15432W        W79156  14.256  31.099   0.744
15433W        W79157  15.626  22.681   3.354
15434W        W79158  13.842   4.744   3.277
15435W        W79159  12.135  25.691   2.724
15436W        W79160  32.475  28.103   0.947
15437W        W79161  38.827  35.458   2.216
15438W        W79162  12.628  23.144   0.340
15439W        W79163  28.184  30.422  10.455
15440W        W79164  22.020  37.947   2.242
15441W        W79165  38.959  23.629  14.839
15442W        W79166  18.207  12.255   3.788
15443W        W79167  19.619  41.905  14.360
15444W        W79168  11.749  15.713  11.533
15445W        W79169  27.007  10.855   5.090
15446W        W79170  17.591  40.413  14.838
15447W        W79171  35.852   7.897  12.552
15448W        W79172  37.920  20.209   4.716
15449W        W79173   2.963  14.232   3.818
15450W        W79174  16.587  38.476  10.998
15451W        W79175   6.346  12.150  14.820
15452W        W79176  25.706   1.869   2.876
15453W        W79177  26.075  15.278   4.247
15454W        W79178   9.809  43.318  13.014
15455W        W79179  32.483  35.445  12.962
15456W        W79180   6.390  25.677  14.008
15457W        W79181  15.229  29.082   4.598
15458W        W79182  11.770   4.866   5.158
15459W        W79183  41.926  33.030   0.771
15460W        W79184  44.892  22.159   3.342
15461W        W79185  39.991  15.233  14.025
15462W        W79186  39.328   1.744  12.849
15463W        W79187   7.179  43.361   1.719
15464W        W79188  29.925  19.617  11.060
15465W        W79189  33.130  19.224   1.423
15466W        W79190  43.005  27.022  12.960
15467W        W79191  14.632  34.117  12.428
15468W        W79192  20.256   2.257   4.293
15469W        W79193  30.912  38.557  10.420
15470W        W79194  30.969  30.914  10.597
15471W        W79195  29.990  20.608   3.297
15472W        W79196  39.960  21.755   3.818
15473W        W79197  29.598  25.592  10.628
15474W        W79198   5.839  10.333   4.623
15475W        W79199   1.841  28.493   1.916
15476W        W79200  21.711  29.167  10.611
15477W        W79201  23.156  36.416  11.607
15478W        W79202  11.695  35.976   0.338
15479W        W79203   0.874  27.644  13.494
15480W        W79204  38.840  16.153  10.530
15481W        W79205  23.496  17.691   0.339
15482W        W79206  11.785   4.851   0.949
15483W        W79207  26.154  24.023   0.248
15484W        W79208  36.567   6.346   0.833
15485W        W79209  11.183  13.819  12.350
15486W        W79210  38.972  37.527   5.118
15487W        W79211  31.031  41.844   4.793
15488W        W79212  42.849   6.297  11.855
15489W        W79213  37.495   2.268   1.767
15490W        W79214  37.341  24.664   3.241
15491W        W79215  17.169   6.310   1.216
15492W        W79216  38.032  18.060   3.842
15493W        W79217   0.743  11.287   1.719
15494W        W79218   3.348  30.017  11.608
15495W        W79219   5.319  10.645  11.008
15496W        W79220  41.031   2.868  13.997
15497W        W79221   0.360  23.681  12.489
15498W        W79222  33.543  12.235  11.855
15499W        W79223  28.071  12.778   0.474
15500W        W79224  35.450  44.461   1.365
15501W        W79225  15.279  28.023   4.344
15502W        W79226  16.664  13.123   3.834
15503W        W79227  17.110   8.296  12.848
15504W        W79228  23.671  22.686   1.400
15505W        W79229   3.872  24.604   3.384
15506W        W79230  32.128  19.588   0.391
15507W        W79231   5.439  20.210  11.488
15508W        W79232  26.496   4.345   1.388
15509W        W79233  34.580  36.445  12.888
15510W        W79234   3.376  28.955   0.329
15511W        W79235  43.769  34.378   0.933
15512W        W79236  28.169  33.475  14.963
15513W        W79237  43.920  31.477   4.223
15514W        W79238  33.498  19.171  10.931
15515W        W79239  34.542  28.521   4.628
15516W        W79240  13.838   8.363   4.174
15517W        W79241  36.541   7.223   0.465
15518W        W79242  12.279  34.425  13.016
15519W        W79243   6.791  35.030   2.182
15520W        W79244  16.647  19.149  12.363
15521W        W79245  12.221  36.451  14.310
15522W        W79246  13.152  14.303   2.207
15523W        W79247  22.697  44.444   1.773
15524W        W79248   6.313  12.654   5.298
15525W        W79249  17.593   2.964   3.642
15526W        W79250  13.626   7.380   3.229
15527W        W79251  18.621  11.713  11.885
15528W        W79252  35.001  12.342   4.819
15529W        W79253  32.616   8.809   2.241
15530W        W79254  18.235  25.509  13.340
15531W        W79255  17.232  17.094   4.657
15532W        W79256   8.262  32.537   2.697
15533W        W79257  33.939  33.063   3.202
15534W        W79258  36.986  18.103  10.633
15535W        W79259  28.521  33.617  11.450
15536W        W79260  21.262  16.146  14.868
15537W        W79261  27.568  33.499   0.916
15538W        W79262  31.082  31.557  10.483
15539W        W79263  26.015  29.039   2.846
15540W        W79264  38.972   7.186  13.332
15541W        W79265  23.187  21.594  11.461
15542W        W79266  41.924  24.004   3.172
15543W        W79267  23.209  21.033  14.979
15544W        W79268   2.296  11.764  14.361
15545W        W79269  13.233  43.485   4.716
15546W        W79270  37.432   6.865   4.261
15547W        W79271   3.313  17.689   0.952
15548W        W79272  15.604   3.238   2.365
15549W        W79273  44.477  28.967  12.890
15550W        W79274  23.587   7.172  10.505
15551W        W79275  15.648  24.028  13.921
15552W        W79276  18.091  29.562  13.795
15553W        W79277  25.208  15.679  11.592
15554W        W79278  30.558   1.852  13.802
15555W        W79279   2.961  40.535  10.497
15556W        W79280  30.577  15.256   4.218
15557W        W79281  13.251  22.607  12.033
15558W        W79282  38.939   2.359   2.817
15559W        W79283  21.194   9.223  12.498
15560W        W79284  30.641   5.283  10.976
15561W        W79285  42.505  37.072  11.546
15562W        W79286   9.670   8.770  12.389
15563W        W79287   1.893  44.492   0.424
15564W        W79288  26.561  14.150   9.927
15565W        W79289   5.310  25.207  11.898
15566W        W79290   8.326  36.062  13.404
15567W        W79291  20.121  30.584   3.361
15568W        W79292  27.545  11.228  14.830
15569W        W79293  11.864  29.473   0.419
15570W        W79294  13.347   0.799   4.605
15571W        W79295  22.018  37.363   3.295
15572W        W79296  31.115   2.793  10.466
15573W        W79297  27.147  30.912   0.441
15574W        W79298  12.668  17.105  14.446
15575W        W79299  39.849  30.551  13.315
15576W        W79300  37.951   5.219  11.029
15577W        W79301  12.796   5.383  14.909
15578W        W79302  31.943  29.944  12.444
15579W        W79303  33.528  33.972   4.753
15580W        W79304  26.650   0.376  11.507
15581W        W79305  43.466  15.205  12.435
15582W        W79306  20.133  18.180  14.782
15583W        W79307  13.112  40.452   0.441
15584W        W79308   5.282  29.063   0.268
15585W        W79309   2.255  17.717   0.341
15586W        W79310  30.024  26.693   1.726
15587W        W79311  39.479  22.506  14.515
15588W        W79312   0.463  43.970   2.271
15589W        W79313   5.276  24.580  11.947
15590W        W79314  28.523   5.890  10.592
15591W        W79315  27.526  33.895   0.742
15592W        W79316  13.228  19.169  10.935
15593W        W79317  41.335  19.550  14.500
15594W        W79318   5.821   2.820   3.239
15595W        W79319  19.209  40.802   1.883
15596W        W79320  19.196  18.086   2.260
15597W        W79321   4.913   3.414   0.413
15598W        W79322  11.860   0.787  11.389
15599W        W79323  13.124  18.251   1.810
15600W        W79324   3.262  35.918   1.715
15601W        W79325   4.900   1.884  11.093
15602W        W79326  39.912   4.397  14.363
15603W        W79327   2.963   1.446  14.835
15604W        W79328  26.170  13.764  11.379
15605W        W79329  28.470  28.052  10.044
15606W        W79330   0.467  36.940  13.957
15607W        W79331  36.468  33.460   3.179
15608W        W79332  26.093  26.006   3.654
15609W        W79333  43.419  39.819  14.360
15610W        W79334  32.126  26.562   3.869
15611W        W79335  20.074  34.058   1.791
15612W        W79336  26.104  41.407  13.867
15613W        W79337  41.930  28.012  13.389
15614W        W79338  13.713   2.760  13.838
15615W        W79339  31.612  40.419   1.728
15616W        W79340  20.526  32.966   4.600
15617W        W79341  17.680   2.296  10.555
15618W        W79342  12.628   7.329  11.062
15619W        W79343   9.872  42.872  10.572
15620W        W79344   4.337   5.743   3.848
15621W        W79345  28.115  31.949  12.834
15622W        W79346  25.657   0.312  12.517
15623W        W79347   3.296   0.915   1.380
15624W        W79348   3.940  15.602  10.617
15625W        W79349  41.502  34.609   0.951
15626W        W79350  41.904   2.444  13.355
15627W        W79351  37.512  30.575   1.883
15628W        W79352  10.650  19.553   0.312
15629W        W79353  14.278  39.828  13.845
15630W        W79354  27.099  10.633  11.539
15631W        W79355   2.751   0.868   3.291
15632W        W79356  29.439  12.757   0.808
15633W        W79357  38.068   8.770   1.238
15634W        W79358  25.115  31.966  13.919
15635W        W79359   3.243  32.105   0.324
15636W        W79360  26.626  35.858   4.831
15637W        W79361  42.431  29.040   0.307
15638W        W79362  41.889   6.332   1.726
15639W        W79363  24.060   3.259   4.198
15640W        W79364  34.950  31.435   0.425
15641W        W79365   8.258  13.178  12.427
15642W        W79366  11.215   7.731  10.645
15643W        W79367  21.175  21.196   0.828
15644W        W79368  21.030  29.991   1.859
15645W        W79369  42.288  39.063  12.490
15646W        W79370  28.630  41.459  11.936
15647W        W79371   9.850  44.893  12.912
15648W        W79372  16.784  24.087  12.496
15649W        W79373   5.856  11.187   0.244
15650W        W79374  34.524   7.185  10.550
15651W        W79375  29.086  44.928  14.770
15652W        W79376  27.455  19.633  12.572
15653W        W79377  36.387   5.269   3.205
15654W        W79378  36.488  32.636   2.348
15655W        W79379  35.003  21.550  10.931
15656W        W79380  22.048  14.779   0.786
15657W        W79381  24.715  40.987   1.360
15658W        W79382   5.249  10.238  10.431
15659W        W79383   9.660   4.224   1.294
15660W        W79384  42.385  30.463   1.886
15661W        W79385   5.398  26.979   0.758
15662W        W79386  37.415  31.640  13.906
15663W        W79387  40.046   1.878   1.390
15664W        W79388   4.916  16.204   3.833
15665W        W79389  26.576   6.787   2.736
15666W        W79390  33.063  29.947   3.285
15667W        W79391  17.185  20.271   3.240
15668W        W79392  31.422   1.380  13.045
15669W        W79393   5.744   6.912   1.318
15670W        W79394  29.519  29.575  14.899
15671W        W79395  10.735  16.103  13.958
15672W        W79396   2.356  33.078  14.848
15673W        W79397   9.816   7.234  12.007
15674W        W79398  21.598   0.755   2.298
15675W        W79399  24.585  36.928   1.831
15676W        W79400  10.382  19.112   1.353
15677W        W79401   9.337  16.202  11.969
15678W        W79402  14.638   1.898  13.426
15679W        W79403  20.058  13.722   1.776
15680W        W79404  20.651  25.026  12.865
15681W        W79405  17.781  21.081  11.989
15682W        W79406  10.714  37.048  12.031
15683W        W79407  12.835  36.587   2.811
15684W        W79408   5.927  29.541   4.798
15685W        W79409  41.422  40.319  12.494
15686W        W79410   3.216  22.641   4.143
15687W        W79411  10.675   1.353  14.513
15688W        W79412  28.060  32.622  14.772
15689W        W79413  42.390  14.740   3.327
15690W        W79414   9.370  38.434   1.720
15691W        W79415  37.355  29.152  14.830
15692W        W79416  34.887  22.209  13.855
15693W        W79417  17.171  28.981  12.997
15694W        W79418  23.126  30.546   1.793
15695W        W79419   7.876  24.600   4.186
15696W        W79420  36.411  11.344   4.701
15697W        W79421  34.993  10.282   2.218
15698W        W79422  12.806  33.578  13.969
15699W        W79423  14.614  29.007   4.788
15700W        W79424  25.550   9.157  14.432
15701W        W79425  21.173  36.500  10.087
15702W        W79426  35.441  15.803  12.052
15703W        W79427  28.468  15.219  12.825
15704W        W79428   2.895  12.756   0.397
15705W        W79429  20.712   3.421   1.253
15706W        W79430  21.149  13.229   1.929
15707W        W79431  33.407   2.874   3.198
15708W        W79432  11.155  13.258   0.375
15709W        W79433  25.071  26.185   1.439
15710W        W79434  12.297  33.070  10.430
15711W        W79435   8.397   7.309   2.892
15712W        W79436  41.027  41.987  12.489
15713W        W79437  11.867  29.167  10.121
15714W        W79438  23.518   7.370  11.414
15715W        W79439  16.730  11.817   1.390
15716W        W79440  16.140   6.846  14.512
15717W        W79441  38.441   7.351  14.018
15718W        W79442  18.716  30.589  11.410
15719W        W79443  14.618  23.652   1.319
15720W        W79444  43.435  35.062  12.885
15721W        W79445  20.116  12.304   0.408
15722W        W79446  28.011  28.567  10.004
15723W        W79447  34.033  42.896   0.307
15724W        W79448  16.205  44.332   4.117
15725W        W79449  33.611  29.938  14.878
15726W        W79450  39.923  37.501   2.816
15727W        W79451  42.821  30.081   4.829
15728W        W79452  32.985  23.044   4.725
15729W        W79453  37.920  41.532  14.383
15730W        W79454   6.398   1.407  14.959
15731W        W79455   3.375  17.779   1.237
15732W        W79456  38.440   8.672   3.186
15733W        W79457   1.963  44.287  12.469
15734W        W79458   8.673  28.502  14.818
15735W        W79459  38.934  20.724  12.996
15736W        W79460  43.378   8.772  10.914
15737W        W79461   6.811  10.179   1.234
15738W        W79462  34.040  42.923   4.668
15739W        W79463  27.042  14.257   3.228
15740W        W79464  14.125  39.523   1.710
15741W        W79465  28.932   8.852  11.855
15742W        W79466  13.626  12.840  14.924
15743W        W79467  19.122  19.188  10.517
15744W        W79468  14.662   3.278  14.922
15745W        W79469  16.260   0.435  11.564
15746W        W79470  12.770  38.482   1.836
15747W        W79471  27.647  23.126   0.850
15748W        W79472   8.859  28.024  13.965
15749W        W79473  11.373   3.804   4.638
15750W        W79474  14.221  38.485   4.792
15751W        W79475   0.433  35.977   0.754
15752W        W79476   1.889   8.342   4.624
15753W        W79477  31.910  39.991  12.072
15754W        W79478  33.607  44.386  10.591
15755W        W79479  35.099   8.335  11.921
15756W        W79480   1.383   3.835   4.827
15757W        W79481  27.686  29.089  14.021
15758W        W79482  33.528  12.124  14.940
15759W        W79483  34.086   9.214  14.981
15760W        W79484   1.467  29.139   2.398
15761W        W79485  25.114  34.520   0.883
15762W        W79486  29.508  44.952  13.337
15763W        W79487  34.870  19.605  14.296
15764W        W79488  42.982  15.322  14.797
15765W        W79489  42.904  22.565  13.455
15766W        W79490  37.065  26.506   0.852
15767W        W79491  12.148  30.519  11.127
15768W        W79492   6.234  33.556  14.315
15769W        W79493   1.406   3.829  14.886
15770W        W79494  38.067  29.032   0.737
15771W        W79495  41.443  44.414  10.965
15772W        W79496   3.928  29.992   2.744
15773W        W79497  41.426  25.981   5.299
15774W        W79498  13.831   6.728   4.761
15775W        W79499   3.439   4.840   3.760
15776W        W79500  21.651  38.890   2.247
15777W        W79501   6.871  44.853  11.437
15778W        W79502  13.643  38.831  10.644
15779W        W79503  30.461  13.644   9.965
15780W        W79504  19.106  35.551   2.416
15781W        W79505  16.679   3.229  10.917
15782W        W79506   1.890  24.058   2.344
15783W        W79507  28.946   0.475   2.866
15784W        W79508  43.851  19.645  12.519
15785W        W79509  15.190   5.262   0.365
15786W        W79510  17.753  15.220   1.888
15787W        W79511  13.178  13.254   3.190
15788W        W79512  37.909  42.787   4.351
15789W        W79513   7.342  40.418  14.768
15790W        W79514  34.537  32.076  13.360
15791W        W79515  42.947   0.353   0.849
15792W        W79516  19.598  23.096   3.829
15793W        W79517  42.854  24.666   3.177
15794W        W79518   8.820  29.580  13.441
15795W        W79519   5.812   2.426   1.312
15796W        W79520  11.143   9.231   4.780
15797W        W79521  16.740  28.934  13.903
15798W        W79522  28.029  39.333   0.450
15799W        W79523   5.352  23.620  14.888
15800W        W79524  27.637  36.861   1.901
15801W        W79525  17.769  11.788  11.461
15802W        W79526  23.719  21.096   1.294
15803W        W79527  18.159  40.533  13.906
15804W        W79528  36.443  39.922  12.384
15805W        W79529  43.885  34.386   0.463
15806W        W79530   8.669  39.990   0.893
15807W        W79531  41.467  13.147  13.993
15808W        W79532  44.927  16.783   4.820
15809W        W79533  24.024  31.459   4.223
15810W        W79534  25.035  25.978  11.463
15811W        W79535  31.080  17.713   3.646
15812W        W79536  29.128  16.626  12.349
15813W        W79537  30.536  43.951  13.041
15814W        W79538  29.663  25.123   1.290
15815W        W79539  41.367   5.358  12.834
15816W        W79540  10.226  29.551   1.413
15817W        W79541  30.479  20.120  13.518
15818W        W79542  19.611   1.965   1.395
15819W        W79543  16.305  11.660  14.961
15820W        W79544  23.019   7.729  10.407
15821W        W79545  10.308  30.476   3.766
15822W        W79546  23.679  23.644  11.583
15823W        W79547  20.233  13.279   3.689
15824W        W79548  23.664  28.131   3.760
15825W        W79549  13.159   3.784  10.568
15826W        W79550  12.261   7.260  13.810
15827W        W79551  38.026  27.077   0.877
15828W        W79552  42.369   7.788  13.435
15829W        W79553   5.882  37.031   1.707
15830W        W79554  35.019   0.956  14.931
15831W        W79555  17.695  13.212   1.401
15832W        W79556  18.549  29.449   2.748
15833W        W79557  18.698  26.684  14.786
15834W        W79558  40.862   4.741  12.958
15835W        W79559  39.326   4.401  11.503
15836W        W79560  38.876   0.316   3.637
15837W        W79561  12.125  24.044  13.529
15838W        W79562   3.324  31.985   3.739
15839W        W79563  40.548  41.331   2.824
15840W        W79564   3.750  13.307   0.891
15841W        W79565  34.959   9.295  12.549
15842W        W79566  36.934   7.226   2.862
15843W        W79567  29.005  12.782  11.458
15844W        W79568  16.652  39.950   2.305
15845W        W79569  20.664  12.164  13.496
15846W        W79570   0.308  21.091  11.042
15847W        W79571  33.913  32.538  12.866
15848W        W79572  15.184  41.960   2.781
15849W        W79573  40.798  42.314  11.611
15850W        W79574  41.293  18.057   0.885
15851W        W79575  19.101  27.174  12.025
15852W        W79576  25.063  13.770   4.757
15853W        W79577  11.802  26.496   4.133
15854W        W79578  32.435  22.525   3.275
15855W        W79579  15.787  37.848  12.066
15856W        W79580  10.273  35.972   0.880
15857W        W79581  15.645  15.291  11.584
15858W        W79582  17.129  35.000  12.031
15859W        W79583   2.456  38.431   1.257
15860W        W79584   6.376  14.234   4.818
15861W        W79585  37.376  24.987  11.920
15862W        W79586   0.258  26.547   2.895
15863W        W79587  19.761   4.212   2.877
15864W        W79588  34.559  21.249  13.944
15865W        W79589  21.050  19.663   3.211
15866W        W79590  14.199  19.270  13.390
15867W        W79591   5.812   4.853  11.122
15868W        W79592  31.481  18.716  12.493
15869W        W79593  30.067  44.814  14.947
15870W        W79594  30.645  11.831  11.419
15871W        W79595   4.435  15.252  11.026
15872W        W79596  33.390  21.173  11.381
15873W        W79597  37.840  14.804   4.253
15874W        W79598  21.254  23.545  13.002
15875W        W79599  22.136  16.293   4.806
15876W        W79600  29.163  16.134  14.980
15877W        W79601  15.598  29.537   2.903
15878W        W79602  15.595  30.564   1.753
15879W        W79603  33.481  40.962  13.310
15880W        W79604   9.746  27.672  10.598
15881W        W79605   5.893  23.507  10.576
15882W        W79606   7.309   2.842   1.841
15883W        W79607  25.585  18.573   2.863
15884W        W79608  14.235  36.967   3.265
15885W        W79609   3.439   8.813  12.402
15886W        W79610  29.058  23.696   2.874
15887W        W79611  35.022  18.185   3.682
15888W        W79612   5.234  28.556  11.871
15889W        W79613  37.409   1.780   4.666
15890W        W79614  38.985   1.779  13.997
15891W        W79615   2.266   6.394   3.662
15892W        W79616  28.607  35.411   4.149
15893W        W79617  25.217  41.894  10.441
15894W        W79618  15.692  24.998   0.262
15895W        W79619  23.187   2.928  12.999
15896W        W79620  30.417  40.311  12.997
15897W        W79621  24.672  40.549  12.846
15898W        W79622  17.614  19.707  10.901
15899W        W79623  18.266   5.298  11.608
15900W        W79624  22.106  29.503   3.192
15901W        W79625  36.923  14.803   4.724
15902W        W79626  30.602   1.948  11.461
15903W        W79627  24.194   5.711   1.439
15904W        W79628  30.457  39.030   0.262
15905W        W79629   8.338  31.639   3.776
15906W        W79630  36.583  18.189  11.482
15907W        W79631  39.419   5.328  11.079
15908W        W79632  31.624  17.299  10.914
15909W        W79633  39.337  33.955   0.260
15910W        W79634   5.734  37.345   0.361
15911W        W79635  18.716   6.854  14.472
15912W        W79636  20.672  20.211   0.837
15913W        W79637   3.229  22.016  13.436
15914W        W79638  20.184   6.339   1.215
15915W        W79639  44.383  27.676  10.954
15916W        W79640   1.269  42.988  14.414
15917W        W79641  36.459  41.885  13.813
15918W        W79642  21.536  30.925   2.359
15919W        W79643  34.428  32.978   4.633
15920W        W79644   0.352   9.698   0.938
15921W        W79645  30.988  16.766   4.831
15922W        W79646   6.740  39.021  10.578
15923W        W79647  33.973   5.710  12.857
15924W        W79648  44.294  26.467   1.790
15925W        W79649  41.463  39.489   1.450
15926W        W79650   0.481  40.802   0.854
15927W        W79651  39.899  19.208   0.335
15928W        W79652   3.772  30.015  11.860
15929W        W79653  31.457  36.971   3.776
15930W        W79654  33.428   4.389   0.386
15931W        W79655  35.413   8.376   3.312
15932W        W79656  33.980   6.802   0.785
15933W        W79657  30.619  24.019  11.423
15934W        W79658  43.287  11.687   1.329
15935W        W79659  38.887  15.770  11.856
15936W        W79660  32.923  17.701   3.665
15937W        W79661  37.967  13.106  11.445
15938W        W79662  13.729   1.307   2.308
15939W        W79663  29.965  36.037   0.842
15940W        W79664  20.750  20.726  14.995
15941W        W79665  32.930  10.140  10.524
15942W        W79666  31.573  32.627   2.757
15943W        W79667  23.526  20.028  12.867
15944W        W79668   0.337  21.196   3.755
15945W        W79669   4.825  18.746  13.519
15946W        W79670  30.455  26.612   0.462
15947W        W79671  27.066  43.974   1.424
15948W        W79672  41.317   2.444  10.524
15949W        W79673  34.526  31.419   1.414
15950W        W79674  39.935  26.680   4.353
15951W        W79675   9.645  44.860  12.415
15952W        W79676  25.107  11.860   1.928
15953W        W79677  23.506   9.264   2.720
15954W        W79678  22.634  34.930   4.815
15955W        W79679  22.597  35.591   0.781
15956W        W79680  12.361  24.617   0.865
15957W        W79681  44.289  42.892  13.450
15958W        W79682  18.671   4.298  13.454
15959W        W79683  19.551  42.902   2.830
15960W        W79684  27.965   6.861  11.907
15961W        W79685  22.182   5.227  10.475
15962W        W79686  34.379  33.577   1.407
15963W        W79687  32.563  25.151   5.206
15964W        W79688  44.277   5.375  13.414
15965W        W79689  39.314   2.326  14.849
15966W        W79690  29.427  19.137   1.373
15967W        W79691   9.874  27.105   0.942
15968W        W79692   2.399  40.346  13.331
15969W        W79693  44.777  21.191  11.937
15970W        W79694  26.670  20.154   4.264
15971W        W79695  28.564  32.432  12.989
15972W        W79696   5.332  10.665  13.888
15973W        W79697  16.152  22.164   4.200
15974W        W79698  37.837  44.302   0.355
15975W        W79699  18.140  17.634  14.994
15976W        W79700   0.770   7.396  11.564
15977W        W79701  20.244  34.882   3.309
15978W        W79702  17.667  14.292   3.729
15979W        W79703  43.320   1.753  11.089
15980W        W79704  18.706  39.006  14.311
15981W        W79705  29.002  43.874   2.364
15982W        W79706  29.579  25.189   5.239
15983W        W79707  13.105  14.160   2.747
15984W        W79708  11.328  11.199   4.279
15985W        W79709  10.800  26.024  13.510
15986W        W79710  37.040  36.077  14.422
15987W        W79711  21.519  42.032   1.277
15988W        W79712  11.339  13.729  11.032
15989W        W79713   8.755  39.496  14.355
15990W        W79714   7.680  35.552  12.441
15991W        W79715  42.397  13.350   3.181
15992W        W79716  33.050   2.912   1.412
15993W        W79717  17.073   5.693   2.217
15994W        W79718  12.290  30.570   0.910
15995W        W79719  20.654  41.368   0.417
15996W        W79720  25.492   0.321  11.951
15997W        W79721  32.096  40.923  10.515
15998W        W79722  33.036  21.173   4.159
15999W        W79723  33.095  17.624   4.746
16000W        W79724   9.861   3.940  12.375
16001W        W79725  41.318  20.523  13.040
16002W        W79726  10.300  24.668   2.274
16003W        W79727  35.441  26.953   0.889
16004W        W79728  36.439  15.589   3.287
16005W        W79729  21.621   5.697  14.375
16006W        W79730   1.863  42.944  14.867
16007W        W79731  11.280  28.987  11.975
16008W        W79732  13.150  21.236  13.470
16009W        W79733  11.724   4.342   4.231
16010W        W79734  35.947  10.859   2.862
16011W        W79735  17.608  30.539  11.561
16012W        W79736  43.318  14.292   0.418
16013W        W79737  30.507  25.212  10.564
16014W        W79738   1.858  25.570  10.568
16015W        W79739   6.827  12.133  13.055
16016W        W79740   8.844   1.955  11.060
16017W        W79741  40.815  41.535  11.047
16018W        W79742   0.323  39.521   0.439
16019W        W79743   5.846  22.068  10.581
16020W        W79744  19.116   2.913  10.914
16021W        W79745  14.328  14.620  11.546
16022W        W79746   9.235  33.414   2.272
16023W        W79747  37.977  22.729   2.758
16024W        W79748  33.092  22.624  12.456
16025W        W79749  29.470  23.997   2.400
16026W        W79750  31.001   6.898  14.885
16027W        W79751  37.547   0.946  14.461
16028W        W79752  16.306  25.695  12.995
16029W        W79753   3.270  16.216   2.733
16030W        W79754  14.216  21.702   2.413
16031W        W79755   5.407  24.526  14.775
16032W        W79756  12.189   7.358   2.883
16033W        W79757  28.088  16.685  13.453
16034W        W79758  42.305  37.486   1.926
16035W        W79759   6.217   2.248   4.203
16036W        W79760   7.674  22.601  12.559
16037W        W79761  29.096  39.395   2.769
16038W        W79762  41.413   6.340   0.755
16039W        W79763   6.344  41.311  13.928
16040W        W79764  44.358  32.125  12.017
16041W        W79765  13.168   1.836   5.271
16042W        W79766  24.666  31.910   4.782
16043W        W79767  21.609   5.731   4.792
16044W        W79768  20.578  44.871  11.513
16045W        W79769   0.953  16.585   0.847
16046W        W79770  28.117  33.110   3.720
16047W        W79771  41.799  35.040  13.823
16048W        W79772  33.930  40.377   2.276
16049W        W79773  24.128  32.958   2.365
16050W        W79774  31.898  36.907   9.995
16051W        W79775  23.508  33.413   2.752
16052W        W79776   6.423  44.472   2.263
16053W        W79777   0.305  37.018  11.373
16054W        W79778   6.407  22.583   1.876
16055W        W79779  44.919  41.302  12.515
16056W        W79780  34.948   4.292   3.271
16057W        W79781  24.025  27.979  11.983
16058W        W79782  28.641  36.931  12.523
16059W        W79783   9.721   7.731   1.888
16060W        W79784  26.543   4.896   4.303
16061W        W79785  40.020  21.638  12.364
16062W        W79786  15.674  16.216  12.012
16063W        W79787   0.256   5.714   2.869
16064W        W79788  27.017  24.630   0.365
16065W        W79789  19.071  34.000  12.041
16066W        W79790  41.026  20.135  10.487
16067W        W79791   3.739   1.426  14.881
16068W        W79792  19.163  37.525   3.798
16069W        W79793  13.198  18.695  11.910
16070W        W79794   4.748  13.267  12.473
16071W        W79795  41.990   3.925  11.980
16072W        W79796  39.870  43.495   2.293
16073W        W79797  18.680  29.156  11.088
16074W        W79798  31.540  14.738  12.936
16075W        W79799  15.719   0.265   0.455
16076W        W79800  15.752   1.880   4.129
16077W        W79801  18.250   0.416   2.828
16078W        W79802  10.178  23.654   1.731
16079W        W79803  27.077  26.031  11.539
16080W        W79804  32.887  35.905  14.833
16081W        W79805  38.543   3.254   1.243
16082W        W79806  14.629  38.395  11.525
16083W        W79807  29.662   3.216   1.270
16084W        W79808  31.530  44.937  14.322
16085W        W79809  14.698  11.339   1.823
16086W        W79810  37.492  15.624   3.745
16087W        W79811  30.040  25.046  12.445
16088W        W79812   5.426  40.976  11.471
16089W        W79813  13.201  37.475  12.959
16090W        W79814  24.616   1.829   2.186
16091W        W79815  18.663   4.915   1.275
16092W        W79816  30.966  24.019  14.864
16093W        W79817  18.099  20.271  10.508
16094W        W79818  18.216  12.300  11.932
16095W        W79819  42.411  18.256  11.525
16096W        W79820   6.716  13.628   2.863
16097W        W79821  15.258  28.033  10.533
16098W        W79822  11.128  19.749  13.498
16099W        W79823  38.343  26.476   1.803
16100W        W79824  21.602  33.546   2.736
16101W        W79825   1.307  11.820   3.655
16102W        W79826  10.759  22.506  13.985
16103W        W79827  18.235  23.116   1.696
16104W        W79828  34.472  35.989  14.944
16105W        W79829   4.708   4.936  10.469
16106W        W79830  14.719  35.035  14.851
16107W        W79831  28.048  10.162  14.982
16108W        W79832  27.141  35.403  11.388
16109W        W79833  12.777  42.335  11.577
16110W        W79834  21.023  36.937  14.006
16111W        W79835  13.767  35.464  13.385
16112W        W79836  14.206  24.698   2.699
16113W        W79837  37.453  30.039   3.243
16114W        W79838  13.289   7.191  13.009
16115W        W79839  24.214  43.333  10.640
16116W        W79840  25.481   8.193   0.964
16117W        W79841  33.102  16.671  13.466
16118W        W79842   3.310  36.003   2.753
16119W        W79843  13.651  40.819  14.338
16120W        W79844  23.201  18.766   3.636
16121W        W79845  20.210  39.400  13.495
16122W        W79846  40.485  30.594   1.856
16123W        W79847  26.198  28.679  14.826
16124W        W79848  41.353   9.799  12.514
16125W        W79849  26.537  28.976   0.733
16126W        W79850   3.353  30.957  13.889
16127W        W79851  42.391  17.777  14.448
16128W        W79852   8.845  44.482   4.658
16129W        W79853  24.055  43.378   1.820
16130W        W79854  13.703  30.111   1.412
16131W        W79855  15.716  10.877  11.584
16132W        W79856  34.025  38.980   4.207
16133W        W79857   9.322  32.489  12.907
16134W        W79858   6.905  30.582   3.167
16135W        W79859  15.720   0.789   1.725
16136W        W79860  43.766  24.114  11.425
16137W        W79861  19.679  26.699   4.685
16138W        W79862  19.757  30.598  11.470
16139W        W79863  43.846  10.872   1.226
16140W        W79864  20.636  40.452   0.884
16141W        W79865  19.251  15.812   1.725
16142W        W79866  15.803  21.043  14.761
16143W        W79867   7.341   2.390   3.196
16144W        W79868  19.537  26.668   9.990
16145W        W79869   3.835  31.441   1.415
16146W        W79870   4.253   0.767   2.902
16147W        W79871  13.684  44.382  11.983
16148W        W79872   9.388   3.793   1.231
16149W        W79873  28.017   9.656  12.420
16150W        W79874  36.513  17.087   0.353
16151W        W79875  28.608  27.046  14.767
16152W        W79876  37.011  39.973  14.314
16153W        W79877   2.828  11.755  14.429
16154W        W79878  28.599  29.477  12.339
16155W        W79879  38.062   8.315   1.889
16156W        W79880  35.858  37.352   3.846
16157W        W79881  36.415  24.711   4.686
16158W        W79882   1.840  18.066   3.329
16159W        W79883  30.024  26.646   1.220
16160W        W79884  25.070  38.393   3.781
16161W        W79885  42.449  18.696   2.712
16162W        W79886  23.620   5.406   1.434
16163W        W79887  36.586  10.871  11.397
16164W        W79888  24.220  20.135   3.692
16165W        W79889   1.881  12.707  11.015
16166W        W79890  12.138  13.732  11.990
16167W        W79891  16.161  12.794   2.302
16168W        W79892   3.920  37.005  13.516
16169W        W79893  38.859   6.809  11.089
16170W        W79894  12.221  43.885   4.139
16171W        W79895  37.439   3.228   2.671
16172W        W79896  39.967  28.975  13.417
16173W        W79897  36.859  25.205   2.305
16174W        W79898  19.155  15.164   3.767
16175W        W79899  37.016  25.198  11.038
16176W        W79900  24.606   1.963   1.808
16177W        W79901  38.061  37.350   4.119
16178W        W79902  44.903   2.906   0.780
16179W        W79903  37.423  27.977   0.311
16180W        W79904  24.580  19.687  12.941
16181W        W79905  29.563   4.782   4.136
16182W        W79906   7.345  37.014  12.391
16183W        W79907   6.234  10.201  14.893
16184W        W79908  37.351  28.512  12.459
16185W        W79909   7.356   1.379   4.138
16186W        W79910   8.774  12.313   2.297
16187W        W79911  25.633  28.474   1.909
16188W        W79912  35.048   8.185  10.478
16189W        W79913  13.792  18.752   1.777
16190W        W79914   8.823  23.133  12.380
16191W        W79915  21.638  21.522   4.139
16192W        W79916  33.018  11.835  10.477
16193W        W79917  15.599  42.942   9.968
16194W        W79918  25.552  13.625   4.628
16195W        W79919  39.511  34.943   2.281
16196W        W79920  14.765  43.795  13.053
16197W        W79921  43.943  30.628   4.182
16198W        W79922   6.380  10.854  12.495
16199W        W79923  39.842  15.118  14.775
16200W        W79924  20.259  39.874  11.018
16201W        W79925  37.978  15.098  13.360
16202W        W79926   1.480  17.562   1.861
16203W        W79927  16.750  39.923   0.350
16204W        W79928  34.598  12.352   4.703
16205W        W79929  39.907  36.511   1.314
16206W        W79930  16.123  20.237   3.707
16207W        W79931  21.069   0.376   0.480
16208W        W79932  42.801  41.925  12.977
16209W        W79933  31.899   6.360  13.383
16210W        W79934  37.989  35.419  12.951
16211W        W79935  12.245   0.826   4.800
16212W        W79936  37.413  25.097   4.326
16213W        W79937  30.090   5.275  11.885
16214W        W79938  31.517  34.874   4.193
16215W        W79939  25.217   8.403  14.313
16216W        W79940   2.422  36.478  13.386
16217W        W79941  18.785  12.344   2.266
16218W        W79942   4.259  32.464  13.977
16219W        W79943  35.458  42.440   0.795
16220W        W79944  36.030  33.998  10.411
16221W        W79945   0.390   0.269  12.539
16222W        W79946  44.845   2.362  14.954
16223W        W79947  36.382  33.973  14.955
16224W        W79948  26.461  12.320   0.884
16225W        W79949  12.341  36.409  13.907
16226W        W79950  41.437  35.373   3.808
16227W        W79951  38.359  15.261  10.932
16228W        W79952   6.816  31.450  12.895
16229W        W79953  43.011  19.213   1.367
16230W        W79954  27.555  40.321  14.302
16231W        W79955  34.492   1.759  11.987
16232W        W79956  36.081  29.032   2.882
16233W        W79957  15.274   3.810  14.955
16234W        W79958  36.410   9.199  11.466
16235W        W79959  23.095  25.485  11.597
16236W        W79960  13.725   1.401  10.957
16237W        W79961   7.831  36.965   4.313
16238W        W79962  26.961  34.591   0.390
16239W        W79963  41.434  21.567  14.471
16240W        W79964  32.933   9.702   4.189
16241W        W79965   3.245  12.155  10.957
16242W        W79966  11.722  18.722   1.788
16243W        W79967  19.550  29.019  13.928
16244W        W79968  19.715  36.483   2.357
16245W        W79969   7.190  26.979  10.555
16246W        W79970  26.628  36.351  13.427
16247W        W79971   4.426  42.782  13.808
16248W        W79972  14.230  19.154   0.757
16249W        W79973  16.240  11.289  13.028
16250W        W79974  36.899  12.632   2.801
16251W        W79975  16.667  14.692   3.779
16252W        W79976   0.876  37.394  12.016
16253W        W79977  43.766   2.454   2.254
16254W        W79978  31.568  36.559  14.279
16255W        W79979   1.255  44.433   0.786
16256W        W79980  11.659   4.346  14.841
16257W        W79981  20.225  26.599  14.491
16258W        W79982  19.538  31.087   2.348
16259W        W79983  34.992   8.811   0.279
16260W        W79984  22.061   2.924   4.621
16261W        W79985  18.269   7.343   0.343
16262W        W79986   8.308  23.661  10.510
16263W        W79987  24.070  29.986  11.577
16264W        W79988  27.657  31.522  12.038
16265W        W79989   0.285  25.006   1.838
16266W        W79990   1.803  24.717  11.013
16267W        W79991  16.624  40.924   4.137
16268W        W79992  15.103  30.476   2.736
16269W        W79993   5.718  24.479   3.728
16270W        W79994  12.315  13.219   0.822
16271W        W79995  15.299  29.490  13.844
16272W        W79996  33.460  25.553   1.355
16273W        W79997  11.759  11.808   1.916
16274W        W79998   9.793  44.310   0.335
16275W        W79999  34.065   3.939   0.249
16276W        W80000  35.600  10.793  14.377
16277W        W80001  37.073  28.964   0.450
16278W        W80002  43.008  28.145  13.006
16279W        W80003  15.184  16.131   4.168
16280W        W80004  35.924  22.023  12.980
16281W        W80005  12.358   3.713  11.400
16282W        W80006   9.163  12.657  12.871
16283W        W80007  15.192  20.573   4.795
16284W        W80008   9.391  30.997   4.738
16285W        W80009  44.427  23.590  12.849
16286W        W80010  44.309  14.666  13.885
16287W        W80011   1.290  23.490   3.689
16288W        W80012  14.658  17.137  14.426
16289W        W80013   3.806   0.784   0.890
16290W        W80014  11.250  44.847  10.621
16291W        W80015  39.485  21.542  11.613
16292W        W80016  42.321  25.467  14.820
16293W        W80017  17.713  15.198  14.790
16294W        W80018   4.893  34.864  12.387
16295W        W80019  38.559  12.663   3.782
16296W        W80020  14.171  22.536  12.505
16297W        W80021  17.624   5.309   3.669
16298W        W80022  31.534  23.019  14.479
16299W        W80023  43.430  36.508   2.813
16300W        W80024  27.645  29.449  10.921
16301W        W80025  26.517  36.558  10.981
16302W        W80026  25.647  35.517  10.618
16303W        W80027  36.997  30.067   4.799
16304W        W80028  21.638  19.606  11.101
16305W        W80029  36.053  27.092   1.421
16306W        W80030  38.823  26.677   4.719
16307W        W80031  26.510  10.715   3.354
16308W        W80032  30.001  17.788   1.241
16309W        W80033  24.166  17.182  11.937
16310W        W80034  16.301  26.549  13.486
16311W        W80035   9.178  14.208  12.491
16312W        W80036  18.549  28.933   2.807
16313W        W80037  37.839  33.623  13.535
16314W        W80038   1.835  18.595  12.346
16315W        W80039   5.751  13.138  14.833
16316W        W80040   2.743  28.949  12.415
16317W        W80041  22.110   8.791   0.303
16318W        W80042   3.300  16.772   2.343
16319W        W80043  23.722  13.309   0.902
16320W        W80044  44.860  16.679   4.221
16321W        W80045   4.779   7.900  10.920
16322W        W80046  38.842  30.136   3.769
16323W        W80047  14.125  11.638  10.485
16324W        W80048  31.605  19.257  13.857
16325W        W80049   0.389  13.112  11.405
16326W        W80050  23.619  22.648  14.866
16327W        W80051  26.591  41.346  13.902
16328W        W80052  31.635  24.574  12.011
16329W        W80053   8.312  13.628  11.568
16330W        W80054  35.432  21.725   4.808
16331W        W80055  37.508   2.763   2.799
16332W        W80056  16.778  31.066  11.089
16333W        W80057  27.636   8.807   4.650
16334W        W80058  32.401  39.848   1.776
16335W        W80059  29.019  40.860  10.444
16336W        W80060  33.552   5.797   3.205
16337W        W80061  19.115  16.217   3.230
16338W        W80062  11.643  18.197   0.433
16339W        W80063  42.850  11.860  12.373
16340W        W80064  41.832  32.566   4.638
16341W        W80065   8.401  28.957  11.077
16342W        W80066  41.523  32.016   3.348
16343W        W80067  23.496  40.319  13.443
16344W        W80068  39.509  31.443   4.609
16345W        W80069   3.330  10.342   1.370
16346W        W80070  14.324  14.204   0.728
16347W        W80071  20.185  41.936   3.337
16348W        W80072   2.755   6.253   2.776
16349W        W80073  30.615  18.290   2.672
16350W        W80074  41.485   5.729  14.363
16351W        W80075  17.109  21.151  13.965
16352W        W80076  28.054   9.222  10.032
16353W        W80077   5.844  37.931  14.311
16354W        W80078  38.917  33.404   0.360
16355W        W80079  17.096  36.891   2.736
16356W        W80080   5.436  44.776   3.869
16357W        W80081  34.872  34.086  11.593
16358W        W80082  22.652   6.228   1.713
16359W        W80083  41.997  19.708  14.897
16360W        W80084  31.122  12.138  14.928
16361W        W80085  18.769  11.235  12.094
16362W        W80086  13.822  25.512  14.422
16363W        W80087  38.009  13.635  13.464
16364W        W80088  34.535   1.473   4.793
16365W        W80089  25.153  23.006   3.233
16366W        W80090   7.265   0.924  14.771
16367W        W80091  14.242  17.148  10.600
16368W        W80092  42.777  15.716  10.411
16369W        W80093  42.322  14.258  10.947
16370W        W80094  38.047  33.030  14.502
16371W        W80095   7.184  28.942   4.180
16372W        W80096  14.302  27.472   1.912
16373W        W80097  44.400  19.738   3.333
16374W        W80098  27.074  28.065  10.412
16375W        W80099  15.726  43.282   3.668
16376W        W80100  25.140  20.575  11.510
16377W        W80101  15.727  29.518  13.841
16378W        W80102  42.985  43.320   9.596
16379W        W80103  34.052  42.329   1.388
16380W        W80104  42.957  37.030  10.427
16381W        W80105   8.168  41.362  14.425
16382W        W80106  21.543  42.885  12.934
16383W        W80107   2.402  13.204  13.438
16384W        W80108  16.123  36.871   2.788
16385W        W80109  10.333  22.692  13.993
16386W        W80110   4.449  25.042  10.969
16387W        W80111  28.681  15.095  13.871
16388W        W80112  39.925   8.224  10.572
16389W        W80113  10.707   0.795  11.950
16390W        W80114  40.940   7.219   1.841
16391W        W80115  44.297  13.697   4.272
16392W        W80116  16.306  32.091  12.575
16393W        W80117  11.750  41.415   2.358
16394W        W80118  21.143  37.001   0.253
16395W        W80119  39.910  22.193  13.818
16396W        W80120  12.126  32.078  11.518
16397W        W80121  25.560  40.985  13.404
16398W        W80122   8.239  21.053   3.850
16399W        W80123  27.640   7.879  13.885
16400W        W80124  11.835  25.194   1.328
16401W        W80125   6.702  24.040  13.325
16402W        W80126  31.058  22.575   2.364
16403W        W80127  17.263  24.559  12.459
16404W        W80128  19.723  25.506  11.868
16405W        W80129  12.857  18.162   0.252
16406W        W80130  34.572  31.502   2.202
16407W        W80131  29.049  16.152  13.881
16408W        W80132  44.291  37.385   4.143
16409W        W80133  27.468  25.076  10.625
16410W        W80134  20.725  35.010  11.099
16411W        W80135  43.308  27.649  11.531
16412W        W80136  31.999  29.487   2.250
16413W        W80137  33.129  41.452  13.957
16414W        W80138   7.254   1.770   1.845
16415W        W80139  17.276  20.271  13.035
16416W        W80140  43.333  25.082  14.299
16417W        W80141  16.292  18.166  14.384
16418W        W80142  35.026   4.740   5.156
16419W        W80143  41.906   6.248   1.273
16420W        W80144   5.697  20.620  11.468
16421W        W80145  30.577   5.384   3.361
16422W        W80146   0.382  30.560   2.665
16423W        W80147  39.317  15.727  12.485
16424W        W80148  24.194  11.772   2.837
16425W        W80149  14.223  13.251  10.540
16426W        W80150  30.498  16.757   4.684
16427W        W80151  42.906  28.137   0.842
16428W        W80152  32.129  27.950   0.954
16429W        W80153  27.153   3.357   4.657
16430W        W80154   9.697  37.909  10.888
16431W        W80155   2.443  20.187  12.431
16432W        W80156  25.194  18.545  14.511
16433W        W80157   8.658  34.098   1.435
16434W        W80158  34.876   5.696   3.641
16435W        W80159  39.989  13.142   3.645
16436W        W80160  22.176  39.010   3.809
16437W        W80161   5.723  14.155   2.694
16438W        W80162  32.462   9.361   3.191
16439W        W80163  11.350  42.898   4.622
16440W        W80164  16.724  13.834   3.843
16441W        W80165  13.225  25.980   3.357
16442W        W80166  40.510  29.581   1.909
16443W        W80167  44.976  32.913   2.711
16444W        W80168  11.185   1.322  12.450
16445W        W80169  37.003  42.332   9.659
16446W        W80170  38.463   9.298   0.804
16447W        W80171  34.533  33.465   4.281
16448W        W80172  43.939  22.587  13.445
16449W        W80173   3.925  44.924  12.464
16450W        W80174  18.623  38.943   4.342
16451W        W80175  27.467  21.673   2.243
16452W        W80176  31.032  29.475   4.800
16453W        W80177   4.399  26.542  10.980
16454W        W80178  26.464  19.622   5.311
16455W        W80179  31.419  30.566  12.089
16456W        W80180  37.904  39.039  14.988
16457W        W80181   4.279  14.650   0.482
16458W        W80182   4.393  36.848  11.436
16459W        W80183  10.368  14.125  14.515
16460W        W80184  28.979  40.423   1.424
16461W        W80185  26.105   2.263  11.106
16462W        W80186  31.580  21.703  13.958
16463W        W80187   0.819  41.493   3.666
16464W        W80188  44.872   5.927  12.916
16465W        W80189  38.466  11.654  13.012
16466W        W80190  18.769  19.628  10.030
16467W        W80191  40.460  14.336  13.041
16468W        W80192  35.538  24.158   2.283
16469W        W80193  40.939  19.152  14.824
16470W        W80194  16.776  19.277   2.306
16471W        W80195   0.326   6.768  14.997
16472W        W80196  14.124  20.101  13.938
16473W        W80197  12.627  19.544  10.581
16474W        W80198  19.142  15.208   1.315
16475W        W80199   2.272  16.665  13.949
16476W        W80200  34.093  10.232   2.257
16477W        W80201  26.162  27.556   2.713
16478W        W80202  35.442  32.009   1.795
16479W        W80203   3.832  20.758   0.300
16480W        W80204  28.498  17.283  12.904
16481W        W80205  27.464   2.821  11.515
16482W        W80206   1.324  23.155  11.973
16483W        W80207  20.584  31.508  12.991
16484W        W80208  16.112  26.969  14.315
16485W        W80209  41.369  37.945   4.625
16486W        W80210  20.594   3.366  14.383
16487W        W80211   1.902   4.943   4.303
16488W        W80212  32.926  23.546   3.372
16489W        W80213  12.805  37.353   3.323
16490W        W80214  39.358   2.793  10.437
16491W        W80215  27.613  23.696   0.280
16492W        W80216  37.394  26.664   2.380
16493W        W80217   0.483   5.797  12.859
16494W        W80218  41.367  17.573   4.149
16495W        W80219  14.154  18.661  11.425
16496W        W80220   6.709  11.691  13.829
16497W        W80221  16.174  43.891  11.500
16498W        W80222   6.851  30.164   1.722
16499W        W80223  43.462  19.689  12.474
16500W        W80224  42.299   2.431   4.622
16501W        W80225  15.200  16.573   1.701
16502W        W80226  14.835  19.281   4.174
16503W        W80227  44.910  34.013   4.265
16504W        W80228  11.334  25.593  11.863
16505W        W80229  37.503  43.351   0.295
16506W        W80230   8.784  38.328  13.499
16507W        W80231  15.084  44.961  11.922
16508W        W80232  11.857  40.867   1.305
16509W        W80233  33.484  27.492   2.228
16510W        W80234  26.117  11.198   2.798
16511W        W80235  36.558  43.771   1.322
16512W        W80236   3.460   7.368  14.006
16513W        W80237   2.391  22.154   0.450
16514W        W80238  30.423  29.110  11.479
16515W        W80239  13.270   7.787   2.706
16516W        W80240  19.552  36.360  13.011
16517W        W80241   2.878  31.963  12.404
16518W        W80242  27.155  35.925   4.807
16519W        W80243  14.632   4.437   0.265
16520W        W80244   7.819  42.776  12.513
16521W        W80245   1.758  25.555   0.737
16522W        W80246  17.693   7.411   2.678
16523W        W80247  18.214  17.143  12.573
16524W        W80248  43.017  34.505   9.933
16525W        W80249   8.299  40.331  10.932
16526W        W80250  10.805  35.096   3.678
16527W        W80251  29.435  22.669   2.240
16528W        W80252  42.489  40.454   0.765
16529W        W80253  26.616   2.729   0.759
16530W        W80254  12.695  25.487   3.648
16531W        W80255  30.118   2.856   3.356
16532W        W80256   9.724  27.599  14.321
16533W        W80257  13.245  34.884   4.346
16534W        W80258  35.908  34.865   5.096
16535W        W80259  34.507   3.428   2.765
16536W        W80260  18.723  12.732   3.253
16537W        W80261  20.577  12.122   2.769
16538W        W80262  43.316  41.832  12.973
16539W        W80263  23.121  42.382   1.261
16540W        W80264  20.042   8.175  10.584
16541W        W80265   7.400   5.260  14.819
16542W        W80266  20.748   2.410   1.815
16543W        W80267  20.263  43.918  14.312
16544W        W80268  42.442   5.342   0.771
16545W        W80269  14.179  29.011  14.018
16546W        W80270   1.241  29.982   4.273
16547W        W80271  11.659   4.909  13.315
16548W        W80272  19.705  26.551   3.739
16549W        W80273  38.333  20.113   3.707
16550W        W80274  38.925  37.542   0.836
16551W        W80275  19.062  11.150  13.448
16552W        W80276  38.411  40.054  11.597
16553W        W80277  40.954   7.706   2.900
16554W        W80278  38.858   8.895  12.890
16555W        W80279  24.168  24.187  10.466
16556W        W80280   8.219  41.886   1.924
16557W        W80281   5.376  12.335  13.823
16558W        W80282  30.919  24.664   1.284
16559W        W80283   0.379   6.281  12.088
16560W        W80284   6.425   2.329   0.948
16561W        W80285  19.595  23.538   4.647
16562W        W80286  42.366  14.132  11.583
16563W        W80287  36.993  28.637   4.300
16564W        W80288  29.009  33.969  14.447
16565W        W80289  28.531  30.981   4.191
16566W        W80290  13.808  31.552  13.404
16567W        W80291  10.796  27.124   0.410
16568W        W80292  41.392  25.615   2.414
16569W        W80293  32.018  11.242   0.933
16570W        W80294  44.784  22.648   2.679
16571W        W80295  37.509   7.856   4.644
16572W        W80296   0.285   7.268   2.847
16573W        W80297   6.840  18.721  12.887
16574W        W80298   3.241   6.226  11.956
16575W        W80299  22.599  10.674   2.812
16576W        W80300  14.808  20.204  13.983
16577W        W80301  17.694  30.526  10.973
16578W        W80302  13.638  39.526   3.336
16579W        W80303  29.145  10.233  11.900
16580W        W80304   2.780  28.026  14.476
16581W        W80305   0.272  12.856  12.946
16582W        W80306  43.452   1.317   1.251
16583W        W80307   6.682   3.341  11.387
16584W        W80308  33.887  21.665  12.504
16585W        W80309  42.889  32.136   4.681
16586W        W80310   3.824  30.914  14.938
16587W        W80311  33.381  23.720  14.879
16588W        W80312   8.162  18.249   0.787
16589W        W80313  13.116  32.532   0.862
16590W        W80314  22.687  37.429  12.481
16591W        W80315  43.933  17.070   1.912
16592W        W80316  36.921  19.690   0.743
16593W        W80317  14.112  13.678   2.696
16594W        W80318  19.101  22.189  14.879
16595W        W80319  26.508   7.870   0.752
16596W        W80320  12.847   7.802   3.364
16597W        W80321  17.144  18.554  10.499
16598W        W80322  29.991  24.535   3.352
16599W        W80323   6.356  44.757  13.890
16600W        W80324  25.556   4.421  14.439
16601W        W80325  20.171  41.461  10.972
16602W        W80326  35.899  33.110  14.333
16603W        W80327  44.282  15.234  14.978
16604W        W80328   2.467   6.864  10.570
16605W        W80329   6.732  13.331  14.324
16606W        W80330   5.332  21.519   1.907
16607W        W80331   5.439  41.995   3.317
16608W        W80332  27.624  23.126   3.196
16609W        W80333  27.495  18.591  12.531
16610W        W80334  43.274  25.691  12.842
16611W        W80335  39.335  13.742  13.329
16612W        W80336  43.943  24.003   3.757
16613W        W80337  43.466  43.389   3.807
16614W        W80338   8.827   2.450  14.407
16615W        W80339  24.193  18.577  12.577
16616W        W80340  26.678  11.178   0.406
16617W        W80341  31.059  36.371   1.270
16618W        W80342   7.362  33.110  14.966
16619W        W80343   4.378   8.743   4.775
16620W        W80344  31.932  33.924  12.507
16621W        W80345  22.516  41.291  10.469
16622W        W80346  12.298  29.435  11.999
16623W        W80347   2.317  32.564  14.287
16624W        W80348  16.717  41.015  10.922
16625W        W80349  36.376  40.372  11.865
16626W        W80350  32.432  28.970  12.038
16627W        W80351  10.266  18.237   4.118
16628W        W80352  34.051  10.692  12.344
16629W        W80353   8.278  37.344   1.828
16630W        W80354  34.511  15.189  14.785
16631W        W80355  33.613  43.270  14.472
16632W        W80356  28.050  35.914  14.774
16633W        W80357  28.069  22.702  11.119
16634W        W80358  29.072  24.063   4.766
16635W        W80359  11.779  31.575  14.403
16636W        W80360  39.034   1.436  12.866
16637W        W80361  38.473  30.592  14.883
16638W        W80362  23.035   7.810   2.355
16639W        W80363  23.645  37.998   4.217
16640W        W80364  39.860  28.053   3.733
16641W        W80365  36.543  36.543   0.915
16642W        W80366  21.079  14.629  11.472
16643W        W80367  40.503  44.775   3.369
16644W        W80368   7.229  18.183   2.772
16645W        W80369   0.334   5.917   1.340
16646W        W80370  18.096  12.314   2.248
16647W        W80371  36.853  41.301   4.610
16648W        W80372  41.516  30.583  10.935
16649W        W80373  36.017  35.549  13.025
16650W        W80374  36.519  21.533  11.576
16651W        W80375  31.589  40.864  10.962
16652W        W80376  43.286  42.513  12.989
16653W        W80377  18.654  14.733  11.603
16654W        W80378   7.330  21.733  12.575
16655W        W80379   1.741  14.169  14.853
16656W        W80380  13.325  13.119   0.777
16657W        W80381  34.483   2.940  14.003
16658W        W80382  27.621  29.655  10.454
16659W        W80383   4.822  38.965   1.811
16660W        W80384  13.780  26.199   2.369
16661W        W80385   1.786  19.235   2.386
16662W        W80386  32.490  17.654   0.880
16663W        W80387  27.022  32.092   1.841
16664W        W80388  27.455  19.281   3.170
16665W        W80389  37.448  37.446  10.103
16666W        W80390  24.062  22.631  14.406
16667W        W80391  19.598  21.565  14.956
16668W        W80392  35.918   7.411  11.445
16669W        W80393  33.420  40.313  12.899
16670W        W80394  31.107   2.951  12.091
16671W        W80395  33.042   2.434   2.335
16672W        W80396  33.555  17.749   3.268
16673W        W80397  24.479  12.296   4.735
16674W        W80398   4.837  34.444   2.706
16675W        W80399  32.066   7.753   3.724
16676W        W80400  30.654  37.016   4.742
16677W        W80401  31.478  33.522  11.964
16678W        W80402  38.000  24.479   4.306
16679W        W80403   0.494   0.304   2.340
16680W        W80404  36.980  30.579   0.408
16681W        W80405  34.898   8.689   0.956
16682W        W80406  16.766  28.465  13.975
16683W        W80407  16.657  16.106   4.345
16684W        W80408   3.426  15.585  14.792
16685W        W80409   2.368  20.637   0.342
16686W        W80410   0.818  25.186   3.200
16687W        W80411  26.544  13.658   2.320
16688W        W80412  34.048  20.055  13.523
16689W        W80413  21.154  38.513  12.036
16690W        W80414  35.897  16.623   9.997
16691W        W80415  30.119   9.355  10.547
16692W        W80416  11.656  24.643   2.689
16693W        W80417   5.868   1.435   1.736
16694W        W80418  25.603  25.156   9.944
16695W        W80419   2.936  30.035  12.487
16696W        W80420   2.892   1.314  11.898
16697W        W80421   7.719  33.013  11.950
16698W        W80422  35.857   8.273  11.027
16699W        W80423   3.327  44.762   1.851
16700W        W80424  43.501  42.914  10.023
16701W        W80425   7.316  37.350   0.843
16702W        W80426  19.221  15.680  10.070
16703W        W80427  28.517  19.677  11.373
16704W        W80428  20.566  44.491  10.934
16705W        W80429  28.551   2.814  12.900
16706W        W80430  25.143  18.163   4.696
16707W        W80431  25.190  32.081   2.732
16708W        W80432   8.781  36.933  12.570
16709W        W80433  28.021   9.334  12.910
16710W        W80434  22.616   8.727  13.919
16711W        W80435  22.060  38.537  11.066
16712W        W80436  37.005  24.570   1.393
16713W        W80437  16.762   8.270  12.911
16714W        W80438   9.312   3.347  13.369
16715W        W80439   1.352  26.153   4.145
16716W        W80440   9.852   1.828   3.217
16717W        W80441  37.026  32.017   2.277
16718W        W80442  23.494  15.325  11.371
16719W        W80443  37.000  22.097  12.846
16720W        W80444  16.165  33.521  10.101
16721W        W80445  33.098  21.259  10.409
16722W        W80446  20.255  38.860   3.779
16723W        W80447  43.956  20.227  13.891
16724W        W80448   3.787  15.747   2.698
16725W        W80449  24.181   9.785  13.405
16726W        W80450   1.339   4.853  14.909
16727W        W80451   4.848  39.343  12.918
16728W        W80452  19.043  32.978  13.501
16729W        W80453  16.146   8.289   3.219
16730W        W80454  19.143   9.390   3.381
16731W        W80455  31.581  25.607  11.575
16732W        W80456   8.257  39.397  10.405
16733W        W80457  21.086  42.335  14.909
16734W        W80458  39.009   3.377  13.525
16735W        W80459  26.494  16.121   2.699
16736W        W80460  29.014  38.505   4.757
16737W        W80461  17.120   9.745   2.724
16738W        W80462  37.366  13.282   5.108
16739W        W80463  28.478  14.670  11.431
16740W        W80464  31.106  10.329  14.902
16741W        W80465  13.697  39.364   2.748
16742W        W80466  28.594  20.675   1.345
16743W        W80467  37.569  35.035   3.697
16744W        W80468  26.471  37.387   0.827
16745W        W80469   1.844  33.486   2.353
16746W        W80470  19.281  12.634  10.476
16747W        W80471   9.327  20.585   3.175
16748W        W80472  30.079  36.405  14.278
16749W        W80473  23.645  21.614  13.359
16750W        W80474  24.706   5.287  14.769
16751W        W80475  26.177  25.163  13.943
16752W        W80476   2.313  10.316   5.241
16753W        W80477   0.982  14.318   2.255
16754W        W80478  23.659   4.383  13.810
16755W        W80479  40.910  14.695  10.443
16756W        W80480  44.498  38.016  12.026
16757W        W80481  27.560   5.848  10.630
16758W        W80482   3.243   0.437  13.042
16759W        W80483   2.893  35.954  13.962
16760W        W80484   0.280   4.750  14.790
16761W        W80485  43.400  20.274  11.562
16762W        W80486  36.072  26.684   1.345
16763W        W80487  39.533  15.139   2.668
16764W        W80488  39.915  31.093  14.858
16765W        W80489  40.019  31.459  10.629
16766W        W80490  11.156  21.191  13.831
16767W        W80491   5.748   1.445   3.284
16768W        W80492  34.920  33.984  13.908
16769W        W80493  39.366  40.811   4.203
16770W        W80494  14.337  26.508  14.001
16771W        W80495  34.529   3.417  12.918
16772W        W80496   0.988  42.025   1.376
16773W        W80497  13.280  20.194   2.179
16774W        W80498  41.403  22.104  13.049
16775W        W80499   9.850  33.131   3.859
16776W        W80500  12.681  30.590  12.355
16777W        W80501  19.215  33.033  11.086
16778W        W80502  37.502  44.837  14.344
16779W        W80503  25.137   0.816  12.572
16780W        W80504  35.533  29.490   1.334
16781W        W80505  42.967  20.258   3.243
16782W        W80506  26.560  15.758   9.948
16783W        W80507  31.031  16.086  12.027
16784W        W80508   8.226  31.402   4.135
16785W        W80509  22.036  31.510   1.727
16786W        W80510  32.430   7.406   0.928
16787W        W80511  20.767  26.135  14.000
16788W        W80512   6.774  13.146  10.621
16789W        W80513  34.107  41.456  13.402
16790W        W80514  24.111   9.353   1.310
16791W        W80515  11.350   8.839   3.772
16792W        W80516   6.881   7.225   2.218
16793W        W80517  14.750   9.751  11.503
16794W        W80518   9.372  24.547  12.010
16795W        W80519  25.618  11.245  10.966
16796W        W80520  35.020  25.217   3.678
16797W        W80521  24.150  19.188   4.168
16798W        W80522  18.191  23.490   4.735
16799W        W80523  38.400   8.231  14.805
16800W        W80524  36.025   1.376   3.173
16801W        W80525  28.545   3.456  14.430
16802W        W80526  19.147  23.542   4.224
16803W        W80527   3.368  42.933  10.405
16804W        W80528  41.371   2.445  11.401
16805W        W80529   5.193   6.727  12.967
16806W        W80530  36.045  30.506   3.211
16807W        W80531  28.484  31.094   0.804
16808W        W80532  31.508  22.530  10.966
16809W        W80533   0.884  18.185  13.467
16810W        W80534   0.987   3.951  13.012
16811W        W80535  40.357  38.383  13.995
16812W        W80536  17.132  33.046  14.429
16813W        W80537   1.370  44.913  11.483
16814W        W80538  10.778  44.984   4.164
16815W        W80539  42.777  22.163  12.096
16816W        W80540  39.400  12.633  14.979
16817W        W80541  15.799   6.738  10.896
16818W        W80542   4.873  29.105  11.012
16819W        W80543  41.877  31.105  10.970
16820W        W80544   1.837   4.304   3.822
16821W        W80545   0.892  37.482   1.350
16822W        W80546  10.791  43.479  10.906
16823W        W80547  31.035   5.799   2.748
16824W        W80548  23.649  25.059   4.690
16825W        W80549  42.523  19.207   4.323
16826W        W80550  15.145   3.365   4.299
16827W        W80551  35.034  26.068  12.066
16828W        W80552  21.087  25.039  11.964
16829W        W80553  19.727  39.996   9.533
16830W        W80554   0.266  25.057  13.444
16831W        W80555  25.128  32.938   0.811
16832W        W80556  10.777   4.433  14.306
16833W        W80557  20.633  44.001   1.394
16834W        W80558   1.850  21.745  11.981
16835W        W80559   3.952  23.030  12.015
16836W        W80560  42.916  35.400   2.901
16837W        W80561  40.002  44.872   0.304
16838W        W80562   9.851  11.225   4.319
16839W        W80563   4.903  38.873   9.927
16840W        W80564  25.021   6.204  14.799
16841W        W80565  42.805  37.984   2.209
16842W        W80566  38.882  34.416   2.198
16843W        W80567  33.935   3.811  11.022
16844W        W80568  39.868  21.554   4.708
16845W        W80569  38.397  38.870   2.839
16846W        W80570  17.800  28.093  11.050
16847W        W80571  21.750  32.519   4.211
16848W        W80572  27.041   2.891  10.977
16849W        W80573  14.094  42.866  11.871
16850W        W80574  30.553  31.491   4.797
16851W        W80575   6.706  21.518   3.258
16852W        W80576  38.028   6.855  11.433
16853W        W80577  13.219  12.827   3.221
16854W        W80578  12.150   1.782   1.713
16855W        W80579  10.767  11.639  11.861
16856W        W80580  40.887  31.523  13.349
16857W        W80581  14.684  39.913   2.256
16858W        W80582  30.089  27.634  11.526
16859W        W80583  21.173  20.147   1.309
16860W        W80584   7.221  37.876  13.842
16861W        W80585  41.296  26.129  13.391
16862W        W80586  39.016   8.822   4.598
16863W        W80587   2.809  41.357   2.381
16864W        W80588  18.291   8.880   5.147
16865W        W80589  29.026  26.959   2.883
16866W        W80590  27.081  22.670  13.803
16867W        W80591  35.376   0.297   1.847
16868W        W80592  10.810  14.794   2.292
16869W        W80593  23.521   5.852   0.447
16870W        W80594  15.259  33.537   2.803
16871W        W80595  15.658   1.741  11.901
16872W        W80596   8.778  43.338   2.796
16873W        W80597  10.716  23.032  14.764
16874W        W80598  16.123   0.867  14.871
16875W        W80599  16.153  29.098  13.984
16876W        W80600  18.260  32.981  11.560
16877W        W80601  29.063  30.499  14.470
16878W        W80602  12.719  32.445  12.932
16879W        W80603  10.278   9.707   4.616
16880W        W80604  39.011  20.522   4.167
16881W        W80605  21.670   9.659   3.262
16882W        W80606  11.266  43.955  11.559
16883W        W80607  31.629  32.122   4.784
16884W        W80608  44.880  21.706  12.965
16885W        W80609  24.481  43.956   1.702
16886W        W80610   3.381  10.203   4.683
16887W        W80611  16.116  10.681  13.988
16888W        W80612   8.297  27.626  12.836
16889W        W80613  33.949  39.845  10.948
16890W        W80614  35.012  34.441   0.877
16891W        W80615  42.848  11.805  11.474
16892W        W80616  37.965  32.051  11.402
16893W        W80617  40.391   2.855   3.728
16894W        W80618   5.701  33.415  13.360
16895W        W80619  27.967  26.053  12.441
16896W        W80620  31.125  33.996   2.385
16897W        W80621  13.325  26.996  11.889
16898W        W80622  13.803  44.429   4.833
16899W        W80623  27.462  22.119  13.033
16900W        W80624   7.750  24.168  11.074
16901W        W80625  27.633  30.031   3.354
16902W        W80626   2.383  37.356  12.910
16903W        W80627  10.716  12.677  12.552
16904W        W80628  35.529  13.603   5.149
16905W        W80629  44.322   7.865  12.849
16906W        W80630   0.781   0.480   3.729
16907W        W80631  39.927  12.665   2.847
16908W        W80632  24.635   5.358  12.562
16909W        W80633  41.861   1.368   0.758
16910W        W80634  36.018  27.996   4.295
16911W        W80635  31.592  34.936   1.263
16912W        W80636  25.988  22.622  13.009
16913W        W80637   5.277  18.580   2.892
16914W        W80638  43.338  16.287  12.058
16915W        W80639  30.423   7.835   3.688
16916W        W80640  41.881  29.070   2.335
16917W        W80641  27.499  16.138  14.318
16918W        W80642  18.277  20.598  12.977
16919W        W80643  22.080   6.811  10.415
16920W        W80644  14.186   5.840   2.279
16921W        W80645  18.652  14.741   1.393
16922W        W80646   8.882  16.156  11.074
16923W        W80647  12.636   7.698   1.882
16924W        W80648  37.503  19.170  10.960
16925W        W80649  37.582  38.053   4.754
16926W        W80650  42.470  38.998   3.237
16927W        W80651   7.346  35.962   3.860
16928W        W80652  18.559  41.958  11.478
16929W        W80653   5.852  37.479   3.785
16930W        W80654   3.272  21.222  13.500
16931W        W80655  39.445  28.157  13.512
16932W        W80656  15.302   5.892   0.726
16933W        W80657  33.878   0.466  11.870
16934W        W80658  13.163  31.618  14.303
16935W        W80659  17.688   9.205   3.827
16936W        W80660  10.814   1.449  11.445
16937W        W80661  33.540   0.330  10.464
16938W        W80662  28.041  26.464  10.413
16939W        W80663   0.911   9.813  13.313
16940W        W80664  16.258  10.850  14.431
16941W        W80665  32.481  36.874   1.331
16942W        W80666  40.354   5.718  10.889
16943W        W80667  31.429  18.081   0.312
16944W        W80668  27.451  33.104  14.770
16945W        W80669  20.679  32.401   1.329
16946W        W80670  40.327  25.569  11.379
16947W        W80671   6.870  26.056  11.399
16948W        W80672   5.786  15.257   4.244
16949W        W80673   1.956  40.811   3.664
16950W        W80674   0.358  16.158   3.255
16951W        W80675  29.517  10.246   3.633
16952W        W80676   0.456   9.662   4.803
16953W        W80677   1.814  32.624  14.291
16954W        W80678  27.576  26.041   3.254
16955W        W80679  12.226  42.310  14.428
16956W        W80680  18.171  42.393   4.185
16957W        W80681  40.433   4.776   0.271
16958W        W80682  12.616  44.755   0.474
16959W        W80683   9.686  10.205  14.418
16960W        W80684  28.580  30.657  11.548
16961W        W80685  28.555  40.992  11.385
16962W        W80686   4.288  28.973  11.461
16963W        W80687  44.006  11.843   1.881
16964W        W80688   4.785  25.613   3.168
16965W        W80689  42.788  34.065   1.353
16966W        W80690  21.659   4.245  10.940
16967W        W80691  33.973   5.689  14.290
16968W        W80692  24.011  41.509   1.451
16969W        W80693  20.033  30.137  13.995
16970W        W80694  30.484  37.921   4.767
16971W        W80695   0.885  26.136  12.007
16972W        W80696  23.725  30.574  14.318
16973W        W80697  23.142  19.568   3.838
16974W        W80698  38.913  37.074  11.061
16975W        W80699  18.689  38.959  14.989
16976W        W80700  32.999  17.751  14.277
16977W        W80701  33.103  42.473  11.065
16978W        W80702  29.465  27.125  11.954
16979W        W80703  24.119  21.677   2.381
16980W        W80704  11.686  39.933   4.334
16981W        W80705  28.179   2.954   0.864
16982W        W80706   6.767  32.008   0.407
16983W        W80707  32.995  23.178   2.238
16984W        W80708  14.640  16.209  10.577
16985W        W80709  35.570  32.565  14.969
16986W        W80710  18.217   2.290  12.914
16987W        W80711   4.890  25.022  14.451
16988W        W80712  17.222  31.011  14.374
16989W        W80713  27.998  30.133  13.027
16990W        W80714   3.944  22.693   2.398
16991W        W80715  14.598  42.842   2.866
16992W        W80716  27.583  34.095   2.306
16993W        W80717  17.726  31.094  13.347
16994W        W80718  43.336  19.133   1.240
16995W        W80719  32.004   2.903   1.309
16996W        W80720  35.091  23.566   0.867
16997W        W80721  11.299  25.605  10.440
16998W        W80722   5.731  41.811   0.735
16999W        W80723  43.374  10.296   3.291
17000W        W80724  19.081   0.260  11.430
17001W        W80725  42.824  26.049  10.466
17002W        W80726  40.925   0.283  10.106
17003W        W80727  17.185  33.523  11.430
17004W        W80728   7.252  38.976  12.975
17005W        W80729   5.402  18.620  10.586
17006W        W80730  36.845  34.493   3.730
17007W        W80731  31.139  38.400   2.799
17008W        W80732  11.263  23.996  13.055
17009W        W80733   0.395  39.061  10.461
17010W        W80734  16.717  35.433  13.331
17011W        W80735  19.663   2.472   4.814
17012W        W80736  23.088  20.737   4.246
17013W        W80737  10.753  23.669   0.734
17014W        W80738  41.793  23.628   1.816
17015W        W80739  32.415  17.071   2.836
17016W        W80740  36.928  34.461   3.149
17017W        W80741   1.358   3.886  14.474
17018W        W80742  17.766  11.699  10.593
17019W        W80743   1.410  27.455   2.416
17020W        W80744  18.264  26.593   4.259
17021W        W80745  31.609   5.436   1.899
17022W        W80746  25.138  14.728   1.777
17023W        W80747  30.461  33.424  12.847
17024W        W80748  16.667  26.510  10.958
17025W        W80749  25.989  42.890   2.334
17026W        W80750  23.010   6.815   0.735
17027W        W80751  43.002   2.957  12.835
17028W        W80752   3.308   9.369  11.056
17029W        W80753  23.671  11.351   1.325
17030W        W80754  25.169   1.896  12.889
17031W        W80755  30.465  44.280   0.296
17032W        W80756   5.276  15.198  11.914
17033W        W80757  18.685   9.358   3.789
17034W        W80758  27.148  13.806  14.395
17035W        W80759  11.248  10.692  12.843
17036W        W80760  41.014   8.885  12.420
17037W        W80761  29.670   7.847   4.631
17038W        W80762  19.244  28.525   4.733
17039W        W80763  36.400  11.161  10.914
17040W        W80764  41.854   0.438  13.861
17041W        W80765  35.008  33.550   1.415
17042W        W80766  30.614  37.459   0.750
17043W        W80767  38.963  35.071   3.701
17044W        W80768   1.807   3.777   3.766
17045W        W80769  39.893  32.554  13.409
17046W        W80770   8.846  28.668   2.666
17047W        W80771   4.283  37.874   0.796
17048W        W80772  25.621  16.784  14.982
17049W        W80773  16.573  13.346  12.962
17050W        W80774  22.070  16.721   2.897
17051W        W80775  11.176  28.493   2.187
17052W        W80776  22.522   2.287   0.727
17053W        W80777  38.433  12.612   4.299
17054W        W80778  22.532  15.803   0.422
17055W        W80779  37.003  25.694   3.835
17056W        W80780  15.762  35.047  12.939
17057W        W80781  28.961  31.436  14.875
17058W        W80782  10.361  43.346  12.364
17059W        W80783  44.307   0.838  12.373
17060W        W80784  22.509  26.497   4.218
17061W        W80785   2.306  13.157   3.209
17062W        W80786  13.322   7.765   3.695
17063W        W80787  32.571  20.230   1.878
17064W        W80788   3.427  29.582   0.290
17065W        W80789  16.214  11.247   4.283
17066W        W80790  11.197  35.935  11.879
17067W        W80791  24.722  30.651   9.992
17068W        W80792  28.460  33.934   2.696
17069W        W80793  21.632  16.246   5.252
17070W        W80794   7.334  24.550  14.402
17071W        W80795  16.136  23.166   3.769
17072W        W80796  14.212  39.443  12.050
17073W        W80797  11.750  16.786   3.847
17074W        W80798  42.894   9.175  10.468
17075W        W80799  12.717  18.064  12.983
17076W        W80800   0.254  17.154   2.272
17077W        W80801   7.676  13.230  10.887
17078W        W80802  37.515  44.333  13.966
17079W        W80803  41.523  11.221   2.358
17080W        W80804  43.275  40.956  12.833
17081W        W80805  19.093  13.110  12.346
17082W        W80806  33.436  18.117   4.242
17083W        W80807   0.248  32.971  13.521
17084W        W80808  27.155  13.292  11.103
17085W        W80809  31.064  25.086  14.829
17086W        W80810  21.558   3.820   1.899
17087W        W80811  25.533   5.356  11.490
17088W        W80812   3.215  43.794  13.005
17089W        W80813  40.477  15.741   1.210
17090W        W80814  10.308  33.539  12.028
17091W        W80815   2.744  25.973   1.317
17092W        W80816  42.391  12.201  12.078
17093W        W80817   5.374  30.090   0.948
17094W        W80818   8.738   0.821   3.356
17095W        W80819  22.605  19.227  12.076
17096W        W80820  15.724  17.733  12.027
17097W        W80821  29.140   8.695  13.422
17098W        W80822  43.979  44.889  13.902
17099W        W80823  37.381  40.423   4.668
17100W        W80824   7.704  41.386  10.439
17101W        W80825   0.801   9.862   2.361
17102W        W80826  19.236  29.077   2.204
17103W        W80827   2.424  14.779  14.292
17104W        W80828   4.748  36.558  12.342
17105W        W80829  37.521  20.551   2.758
17106W        W80830  25.022  29.106  12.924
17107W        W80831  22.663  16.294  11.902
17108W        W80832  12.344  20.669   0.467
17109W        W80833  28.016  33.926   3.648
17110W        W80834  41.462  20.721  14.024
17111W        W80835  21.131  40.951   3.251
17112W        W80836   4.330  35.950   0.312
17113W        W80837  10.338  19.547  10.553
17114W        W80838  35.953  28.161  12.399
17115W        W80839  14.246  37.998  14.000
17116W        W80840  27.637  21.650  14.469
17117W        W80841  26.988  10.749  13.050
17118W        W80842  42.283   6.282  12.047
17119W        W80843  29.046  39.446   2.412
17120W        W80844   3.438  20.041  11.455
17121W        W80845   4.335  32.088   5.236
17122W        W80846  14.629  27.620  12.006
17123W        W80847   4.829   6.343  14.315
17124W        W80848  20.696  32.018   1.887
17125W        W80849  44.999   6.385  11.974
17126W        W80850   8.852   2.775   2.778
17127W        W80851   0.935  29.923   3.737
17128W        W80852  19.643   6.271  12.051
17129W        W80853   0.941   9.265   4.236
17130W        W80854  42.515   7.176   3.177
17131W        W80855  41.453  39.434   0.395
17132W        W80856  16.211  18.173  11.499
17133W        W80857  29.634  43.438   1.338
17134W        W80858   8.852  12.660  13.043
17135W        W80859  38.052  30.642   3.774
17136W        W80860  31.018  16.741   0.361
17137W        W80861  35.492  23.706  11.087
17138W        W80862  37.903  26.653   5.227
17139W        W80863  20.768  14.787  14.281
17140W        W80864  27.002  36.842   2.775
17141W        W80865  18.622  22.679  14.864
17142W        W80866  25.970  36.560  14.414
17143W        W80867  44.924  41.807   4.343
17144W        W80868  11.636  10.869  13.824
17145W        W80869  14.200  32.031   0.425
17146W        W80870   7.703  30.022  12.562
17147W        W80871   8.781  32.979   0.401
17148W        W80872  36.410  12.615  11.575
17149W        W80873   7.225  22.180  11.528
17150W        W80874  39.366  22.188  13.374
17151W        W80875  10.253  29.545   2.786
17152W        W80876  17.148  33.561   1.392
17153W        W80877  21.224  26.537   1.401
17154W        W80878  13.137   8.255  13.403
17155W        W80879  14.272   3.394  10.102
17156W        W80880  18.603  43.976   4.143
17157W        W80881   5.379  23.152  13.396
17158W        W80882   2.246  37.046   4.297
17159W        W80883  15.199  24.074   2.899
17160W        W80884  25.643   5.300   1.733
17161W        W80885  27.032  25.994  13.893
17162W        W80886  11.674  13.710  11.928
17163W        W80887  25.034  38.561  14.805
17164W        W80888  24.018   8.701   4.661
17165W        W80889  27.523  11.657  14.371
17166W        W80890  39.997   5.728  11.554
17167W        W80891   0.359  37.559  13.812
17168W        W80892   6.378  27.012   0.798
17169W        W80893  10.261  28.002   4.642
17170W        W80894  23.715  38.562  13.893
17171W        W80895  24.016  32.405  13.457
17172W        W80896  26.495  36.446   0.833
17173W        W80897   4.392  14.612   2.833
17174W        W80898  12.756  40.865   2.898
17175W        W80899  34.997   8.699  11.565
17176W        W80900  36.432   7.845  13.363
17177W        W80901   2.736  30.101   3.273
17178W        W80902  16.644  28.644   0.254
17179W        W80903  37.937  25.525   1.800
17180W        W80904   9.797  23.065  14.510
17181W        W80905  37.364  42.910  14.769
17182W        W80906   2.442  28.088   2.199
17183W        W80907  39.957   0.769   2.825
17184W        W80908   8.863  37.084   3.357
17185W        W80909  30.581  33.128   0.901
17186W        W80910  39.970   8.712  11.542
17187W        W80911  30.540  42.991  14.422
17188W        W80912   6.787   6.803   1.440
17189W        W80913   7.414  38.884   2.224
17190W        W80914  23.228  33.875  12.976
17191W        W80915  22.032  25.705  10.637
17192W        W80916  33.500  30.488  10.533
17193W        W80917  33.970  11.286  12.890
17194W        W80918  10.178  10.647   1.264
17195W        W80919  33.922  43.416  13.516
17196W        W80920  41.438  35.024   3.145
17197W        W80921  23.183   8.845   1.227
17198W        W80922  16.245   8.318  13.945
17199W        W80923  20.201  27.126   2.881
17200W        W80924  20.701   1.250   4.690
17201W        W80925  16.666  10.362   0.906
17202W        W80926  40.841  40.530  13.457
17203W        W80927   2.865  36.861  11.376
17204W        W80928  38.961  29.657  11.511
17205W        W80929  32.583  22.101   4.805
17206W        W80930  14.684  10.698  13.842
17207W        W80931  33.607  25.100  12.526
17208W        W80932  26.029  24.116   2.264
17209W        W80933  44.452   6.711  12.479
17210W        W80934  41.535   1.285   1.891
17211W        W80935  30.992  31.425   4.734
17212W        W80936  24.488  33.903  13.526
17213W        W80937  42.823  30.017  14.382
17214W        W80938  21.742  37.539  10.892
17215W        W80939  21.067  34.460  14.422
17216W        W80940  30.631  22.571   0.447
17217W        W80941  14.821  22.169  13.320
17218W        W80942   6.820  33.385  14.988
17219W        W80943   8.190  20.240   2.668
17220W        W80944   6.859  18.755   4.610
17221W        W80945  43.785  44.840  12.975
17222W        W80946  43.915  18.166  13.465
17223W        W80947  28.135  37.074   0.891
17224W        W80948  33.919  27.159  11.379
17225W        W80949  10.854  25.481  12.888
17226W        W80950  27.005   7.865   5.802
17227W        W80951  14.297  18.745   2.885
17228W        W80952  26.060  23.066   4.692
17229W        W80953  42.829  38.448  10.923
17230W        W80954  33.085  12.298   4.322
17231W        W80955  41.881  24.201  14.792
17232W        W80956  17.098  41.964  13.331
17233W        W80957  43.003   6.805   1.927
17234W        W80958  32.081  29.510   0.327
17235W        W80959  24.501  12.615   4.797
17236W        W80960  10.871  20.231   4.724
17237W        W80961  21.062   6.300  12.909
17238W        W80962  28.659   7.776  12.566
17239W        W80963   4.375  33.490   4.161
17240W        W80964   8.249   4.707   4.269
17241W        W80965  11.276  30.016   4.679
17242W        W80966  40.542  42.498  13.888
17243W        W80967  30.977  15.752  10.578
17244W        W80968  24.979   1.330  13.945
17245W        W80969   2.812   6.806   4.790
17246W        W80970  13.623  18.209  12.835
17247W        W80971   3.440  12.795   2.744
17248W        W80972   6.269  32.104  13.541
17249W        W80973  23.091  26.162   4.303
17250W        W80974  38.954  10.834  14.768
17251W        W80975  29.101   6.386   0.800
17252W        W80976  24.040  35.076  11.432
17253W        W80977  25.076  44.988   4.794
17254W        W80978   3.404  10.650  13.994
17255W        W80979  37.080  23.037   4.261
17256W        W80980  22.074  40.806   1.811
17257W        W80981  23.145  39.346  12.035
17258W        W80982  21.686  18.699   4.625
17259W        W80983  16.760  18.078   3.282
17260W        W80984  18.174  43.769   4.745
17261W        W80985  31.079   7.716   4.820
17262W        W80986   4.762  34.523  12.920
17263W        W80987  17.061  24.167  11.568
17264W        W80988  18.055  16.318  11.514
17265W        W80989  11.624  32.417   0.409
17266W        W80990  42.004   1.761   1.751
17267W        W80991   4.293  29.087   0.937
17268W        W80992  32.051  22.077  10.456
17269W        W80993  30.956  28.515  11.551
17270W        W80994  40.458  15.739   2.826
17271W        W80995  19.614  40.389  10.529
17272W        W80996  19.704   3.322  10.551
17273W        W80997  11.676  33.896   0.796
17274W        W80998  17.791  18.129  11.981
17275W        W80999  10.744   1.933   1.221
17276W        W81000   2.842   7.291  14.778
17277W        W81001   5.693  43.909  14.886
17278W        W81002  29.034  14.714  11.459
17279W        W81003  28.450  14.673   2.323
17280W        W81004  34.899  32.397  11.475
17281W        W81005  29.623   7.808   3.255
17282W        W81006  36.500  24.035  10.958
17283W        W81007  31.421  41.999   3.292
17284W        W81008  38.820  22.588  14.312
17285W        W81009  26.667  12.301   2.793
17286W        W81010  12.647  21.077   2.667
17287W        W81011   0.264  35.398  14.426
17288W        W81012  27.946  40.317   5.316
17289W        W81013  17.141  38.454  13.437
17290W        W81014   9.717  42.831   1.864
17291W        W81015  33.496   8.793   1.396
17292W        W81016  41.977  28.069  14.787
17293W        W81017  37.499  34.370   4.125
17294W        W81018   6.310   6.847   3.187
17295W        W81019  31.019   2.846  13.333
17296W        W81020  30.616   7.311  11.491
17297W        W81021   2.282   4.766   3.211
17298W        W81022  42.522  31.629   3.201
17299W        W81023  36.866  36.535   2.677
17300W        W81024  27.471  35.925   3.365
17301W        W81025  30.496  28.114   2.669
17302W        W81026  15.681  33.496   2.338
17303W        W81027  17.082  27.499  12.857
17304W        W81028  41.976  31.086   0.749
17305W        W81029  32.610  18.123  13.059
17306W        W81030   0.279  11.249   0.305
17307W        W81031   7.364  33.547   5.205
17308W        W81032  21.543  17.660   1.387
17309W        W81033  31.605  33.092  12.442
17310W        W81034   1.315  32.482   0.809
17311W        W81035  26.471  16.256  11.882
17312W        W81036   1.821  11.824  11.581
17313W        W81037  25.517  11.679   2.822
17314W        W81038   7.313  13.278  12.049
17315W        W81039  40.330  23.157   3.689
17316W        W81040  42.472  27.122   2.806
17317W        W81041  38.900  19.765   2.418
17318W        W81042  43.301   0.897  12.447
17319W        W81043  31.994  40.450   1.898
17320W        W81044  35.104  37.029  11.405
17321W        W81045  25.485  11.246  13.988
17322W        W81046  43.996  24.715  12.425
17323W        W81047   5.321  31.494  12.361
17324W        W81048  10.804  21.162  14.335
17325W        W81049   0.370   2.244  11.047
17326W        W81050  35.898  39.995   1.766
17327W        W81051  39.452  24.153  12.447
17328W        W81052  13.826   3.955  14.917
17329W        W81053  29.967   4.932  13.411
17330W        W81054  13.116  15.595  10.518
17331W        W81055   6.902  38.455   2.315
17332W        W81056  11.699  13.789   1.763
17333W        W81057  20.201  34.444   4.179
17334W        W81058  28.604   6.213  12.364
17335W        W81059  22.622   0.789   5.149
17336W        W81060  18.208  21.133  13.909
17337W        W81061  22.161  26.992   5.678
17338W        W81062  33.588  15.657   4.782
17339W        W81063  28.153  39.057   2.236
17340W        W81064  13.826   3.774  11.118
17341W        W81065  20.208   4.918   0.467
17342W        W81066   1.947  21.205   1.934
17343W        W81067  22.039   1.370  11.987
17344W        W81068  35.041  21.212   4.755
17345W        W81069  40.392  15.717   9.985
17346W        W81070  38.419  18.088   0.351
17347W        W81071  13.285  41.420  12.940
17348W        W81072  13.611   2.247   4.193
17349W        W81073  24.979  41.917  14.908
17350W        W81074  20.047  17.802   1.399
17351W        W81075   1.919  44.791   3.844
17352W        W81076  42.820  22.055   2.348
17353W        W81077  32.415   2.809  14.962
17354W        W81078  33.613  36.951  14.842
17355W        W81079  14.635  16.654   2.190
17356W        W81080  13.298  14.736   1.300
17357W        W81081   2.833  35.977   1.316
17358W        W81082   5.756  31.604   4.638
17359W        W81083  39.924  11.793  12.980
17360W        W81084  18.546  16.084  11.436
17361W        W81085   2.324  13.615   1.388
17362W        W81086  27.069  33.462   4.727
17363W        W81087  17.574   1.310  10.925
17364W        W81088   6.426   4.936  14.384
17365W        W81089  18.257   2.387  10.612
17366W        W81090  14.620  40.514  11.564
17367W        W81091  41.908  20.252  14.326
17368W        W81092  19.680  15.259  14.393
17369W        W81093   5.739   3.711  10.441
17370W        W81094  14.224  16.698  12.524
17371W        W81095  36.404  28.112  12.063
17372W        W81096  20.260  16.114   3.839
17373W        W81097  34.114   5.204  14.016
17374W        W81098  39.853  20.049   0.332
17375W        W81099  42.522  41.862   2.765
17376W        W81100  14.137  25.040  13.992
17377W        W81101  17.598  24.126  12.951
17378W        W81102  44.278   7.300  12.959
17379W        W81103  33.598  21.649  11.424
17380W        W81104  34.562  19.759   0.325
17381W        W81105  35.890   5.723   4.806
17382W        W81106  22.191  36.538  14.458
17383W        W81107  24.981  31.526  12.523
17384W        W81108  14.167  21.194  11.868
17385W        W81109  24.538  23.626  12.443
17386W        W81110  23.029   0.777   0.402
17387W        W81111  31.421   2.930  13.450
17388W        W81112  39.834  29.944  12.829
17389W        W81113  17.242  17.757   1.736
17390W        W81114   8.274  44.923   3.195
17391W        W81115  22.538  38.042  12.899
17392W        W81116  41.458  44.388   3.745
17393W        W81117  21.670  18.209   5.266
17394W        W81118  23.093  43.278  11.955
17395W        W81119  44.444  38.506  12.501
17396W        W81120  38.922  16.234   2.252
17397W        W81121  32.398   5.720   2.858
17398W        W81122  39.531  14.818   3.174
17399W        W81123  13.669  44.290  13.025
17400W        W81124  38.330  31.036  14.358
17401W        W81125  17.123  22.699   4.645
17402W        W81126  29.489   0.309  14.483
17403W        W81127  39.054  24.180  11.556
17404W        W81128  30.473  16.717   2.290
17405W        W81129  18.195  27.952  12.452
17406W        W81130   9.749  39.902  11.041
17407W        W81131  34.480  10.142  13.982
17408W        W81132  29.116  11.648  12.517
17409W        W81133  25.046  18.564   1.336
17410W        W81134  34.583  22.085   1.778
17411W        W81135  42.305  29.522   1.429
17412W        W81136  42.934  39.557   2.872
17413W        W81137  42.358  39.842  13.020
17414W        W81138   7.208  17.617  11.068
17415W        W81139  18.178  22.523   2.733
17416W        W81140  30.507  24.001   2.741
17417W        W81141   0.279   6.226   4.603
17418W        W81142  14.286   6.777   3.315
17419W        W81143  42.967   3.271   2.870
17420W        W81144  40.809   3.746  12.573
17421W        W81145  22.637  10.327   1.920
17422W        W81146  13.285  22.046  10.405
17423W        W81147  42.840  13.324  11.902
17424W        W81148  18.152  38.959   3.197
17425W        W81149  27.034  35.905  10.557
17426W        W81150   2.299  30.111   0.287
17427W        W81151  20.232  26.526   4.352
17428W        W81152  12.200  23.186  11.400
17429W        W81153  29.496  11.187   1.318
17430W        W81154   2.821   0.338   2.207
17431W        W81155   7.689   3.230   1.216
17432W        W81156  14.330  35.078   0.746
17433W        W81157  26.985  32.554  10.587
17434W        W81158  29.498  37.359   3.739
17435W        W81159  11.315  17.083   4.118
17436W        W81160  33.932   9.319   3.260
17437W        W81161  38.916  30.048   0.866
17438W        W81162  25.687  42.445   4.600
17439W        W81163   2.252  37.032   1.899
17440W        W81164  23.657  26.045  13.032
17441W        W81165  20.135  23.618   4.284
17442W        W81166  13.136  42.934  11.402
17443W        W81167  29.510  36.496  11.951
17444W        W81168  34.368  38.515  11.544
17445W        W81169   1.756  15.774  11.428
17446W        W81170  42.319   8.181   3.860
17447W        W81171  27.953  12.117   5.231
17448W        W81172  26.113  31.602  14.983
17449W        W81173  14.743  43.298  14.454
17450W        W81174  33.131   7.319   0.912
17451W        W81175  32.919  35.523  12.533
17452W        W81176  34.566  37.576   1.700
17453W        W81177  31.500  16.127  13.053
17454W        W81178   1.790  28.952   3.203
17455W        W81179  17.247  12.688  10.409
17456W        W81180  11.155  25.992   2.227
17457W        W81181   1.946  30.541   0.267
17458W        W81182  20.089   0.252   0.836
17459W        W81183  39.390  23.203   3.686
17460W        W81184  29.463  31.137  12.857
17461W        W81185  30.643  23.670   2.822
17462W        W81186   9.828  31.960   2.840
17463W        W81187  12.217  30.150  13.937
17464W        W81188   4.346  11.324  13.977
17465W        W81189  41.787   0.771   0.339
17466W        W81190  27.681  14.194  12.943
17467W        W81191  41.485  24.023  11.954
17468W        W81192   5.340  26.598   1.885
17469W        W81193  31.143  12.716   4.827
17470W        W81194   3.216   4.268   2.899
17471W        W81195  28.519  29.012  10.919
17472W        W81196  19.098  36.889   0.467
17473W        W81197  24.033  10.247  10.048
17474W        W81198  40.814  42.315   1.890
17475W        W81199   2.885  34.497  14.297
17476W        W81200  14.598  36.402  13.956
17477W        W81201  36.880  40.491   1.934
17478W        W81202   8.740   1.311  11.384
17479W        W81203   9.651  30.448   3.303
17480W        W81204  30.462  19.543   3.769
17481W        W81205  21.249  38.902   1.371
17482W        W81206  25.219  43.885  14.773
17483W        W81207  39.394   8.221  12.539
17484W        W81208  35.503  34.066  13.517
17485W        W81209  43.896  21.599  14.890
17486W        W81210  44.261  11.772   2.682
17487W        W81211   3.741   4.223  10.579
17488W        W81212  24.090  31.597   3.833
17489W        W81213  33.002  37.550   1.281
17490W        W81214  25.142  29.662   2.298
17491W        W81215  17.626  11.701  11.939
17492W        W81216   4.753  24.588  13.885
17493W        W81217   7.752  22.589   5.288
17494W        W81218   1.420  22.530  11.055
17495W        W81219  17.616   8.279   1.322
17496W        W81220  19.194  18.069  12.021
17497W        W81221   8.309  14.288   5.178
17498W        W81222  44.766  30.612   3.199
17499W        W81223  13.329  42.983  10.452
17500W        W81224   5.782   2.382   0.855
17501W        W81225  43.954  11.823   2.378
17502W        W81226  16.804   9.340   1.918
17503W        W81227   8.402  29.096  13.836
17504W        W81228   8.253  23.579  10.988
17505W        W81229   0.951  25.531  11.467
17506W        W81230  23.022  25.586   1.444
17507W        W81231  32.426  21.751   0.415
17508W        W81232  37.939   7.205  12.913
17509W        W81233  27.645  25.605  14.824
17510W        W81234  42.954  33.060  14.294
17511W        W81235  14.255   0.425   3.376
17512W        W81236  14.692  36.979   0.433
17513W        W81237  38.342  10.256  13.309
17514W        W81238   3.224  11.315  11.971
17515W        W81239   3.357  21.153   2.208
17516W        W81240  29.046  37.543  11.474
17517W        W81241  36.473  24.124   1.810
17518W        W81242   0.404  40.489   4.753
17519W        W81243  33.471  43.436   1.877
17520W        W81244  31.058   4.433   4.189
17521W        W81245  31.086  28.156   1.264
17522W        W81246   3.346  38.854  13.469
17523W        W81247  37.853  12.614  13.443
17524W        W81248  43.350  44.787  12.392
17525W        W81249  17.102  38.483  11.976
17526W        W81250  25.029  40.469   0.388
17527W        W81251  24.623  42.911   1.789
17528W        W81252  11.849  43.280  13.541
17529W        W81253  31.483  41.451  12.431
17530W        W81254   6.899  36.418   0.450
17531W        W81255  11.211  23.696  11.080
17532W        W81256  22.179  29.632   4.241
17533W        W81257   7.812  25.211   3.378
17534W        W81258  12.667  12.680   1.881
17535W        W81259  13.705  41.928   2.744
17536W        W81260  40.044  14.260  10.505
17537W        W81261  43.480   9.196  13.363
17538W        W81262  38.031  17.115   4.130
17539W        W81263   2.960  11.150  11.988
17540W        W81264  20.653  11.778  10.545
17541W        W81265  27.942  15.322   2.734
17542W        W81266   0.394  42.850   2.324
17543W        W81267  28.578  24.017   0.276
17544W        W81268  40.933  29.600  13.900
17545W        W81269   9.747   5.902   4.793
17546W        W81270   1.820  42.847   4.155
17547W        W81271  13.801  35.869  10.973
17548W        W81272  32.073   6.883   3.634
17549W        W81273  33.979  15.740  10.972
17550W        W81274  34.585  33.550  12.482
17551W        W81275  42.384  32.428   4.711
17552W        W81276   9.690  33.094  13.828
17553W        W81277  34.080  15.183  10.493
17554W        W81278  35.486  17.248   0.305
17555W        W81279  41.852  40.008   1.243
17556W        W81280   7.897  22.689  14.964
17557W        W81281   7.414  40.962  12.978
17558W        W81282  26.456  21.021  14.914
17559W        W81283  13.221  13.700   1.345
17560W        W81284  27.190  31.490   4.647
17561W        W81285  33.559   5.713  14.867
17562W        W81286  40.368  12.185  11.438
17563W        W81287  21.029  12.137   1.373
17564W        W81288   6.262   9.773   0.328
17565W        W81289  26.999  43.341  13.993
17566W        W81290  25.561  14.274   2.745
17567W        W81291  38.450  28.604  14.360
17568W        W81292  37.833   2.950  10.522
17569W        W81293   3.454   9.653   0.740
17570W        W81294  22.148  41.793  13.356
17571W        W81295  35.539   7.677  10.493
17572W        W81296   1.407   3.355  12.420
17573W        W81297  38.530  23.024   5.123
17574W        W81298  10.238  11.269   4.767
17575W        W81299   0.440  24.085   0.913
17576W        W81300  29.573  21.662   2.857
17577W        W81301   5.890  13.291   1.837
17578W        W81302  33.895   1.239   1.419
17579W        W81303   9.672  18.190  14.332
17580W        W81304  29.139  34.368   0.924
17581W        W81305  16.108  16.186   3.806
17582W        W81306  25.589  32.887   4.618
17583W        W81307   3.422  34.438  14.826
17584W        W81308  18.245  23.173   4.258
17585W        W81309   7.339   9.695   9.933
17586W        W81310  20.606  35.358  13.983
17587W        W81311   0.862   6.798  12.365
17588W        W81312  42.502  16.302   0.247
17589W        W81313  23.069  19.134   3.716
17590W        W81314   2.888  39.887  12.014
17591W        W81315  26.061  13.209  13.003
17592W        W81316  40.373  40.406   2.667
17593W        W81317  37.038  36.918  14.433
17594W        W81318  12.223  25.495  14.328
17595W        W81319   5.217   7.387   1.320
17596W        W81320  16.804  41.515   0.345
17597W        W81321  33.483  17.079  10.442
17598W        W81322   7.333  19.052   3.253
17599W        W81323  41.811   0.897  13.835
17600W        W81324  42.426  31.093  10.527
17601W        W81325  35.080  38.870  14.822
17602W        W81326  27.586  38.328  14.760
17603W        W81327  36.528  18.270  10.048
17604W        W81328  34.463  34.940   2.330
17605W        W81329   6.272   2.301   3.151
17606W        W81330  15.601  30.472   0.918
17607W        W81331  29.927  40.464  13.878
17608W        W81332  20.052  35.600   2.833
17609W        W81333  23.507  38.475   9.987
17610W        W81334   5.804   2.961  10.607
17611W        W81335  28.677   0.473   4.160
17612W        W81336  32.892   3.850   3.774
17613W        W81337  34.006  31.964   0.799
17614W        W81338  34.430  18.551   4.317
17615W        W81339  32.896  16.603   4.756
17616W        W81340  10.780  26.603  12.572
17617W        W81341   0.371  30.556  10.906
17618W        W81342  38.547  44.488  14.816
17619W        W81343  13.141  37.977   3.696
17620W        W81344  44.904   6.334  13.410
17621W        W81345  15.730  18.173  11.925
17622W        W81346  30.536  42.514   4.786
17623W        W81347  23.662   2.894  13.894
17624W        W81348  36.061  42.009  11.483
17625W        W81349  16.093  15.606  11.871
17626W        W81350  27.135  36.373   1.439
17627W        W81351   6.249  18.569   2.893
17628W        W81352   8.657  19.230  12.881
17629W        W81353  12.791  15.213   0.761
17630W        W81354  33.977  20.232  13.975
17631W        W81355  42.461  32.633  10.536
17632W        W81356  12.138  19.086  11.940
17633W        W81357   7.755  16.657  11.386
17634W        W81358  18.217  39.547   2.245
17635W        W81359  20.631  10.279   0.926
17636W        W81360  15.173  19.589  14.453
17637W        W81361  17.288  16.302  12.367
17638W        W81362  11.127  33.093  10.976
17639W        W81363  35.485   8.188   2.189
17640W        W81364  28.622  37.058   0.350
17641W        W81365   3.271  10.742  11.978
17642W        W81366  23.566   7.385  12.460
17643W        W81367  11.181  36.349  13.481
17644W        W81368   2.839  42.964   3.840
17645W        W81369   2.844   2.295  13.406
17646W        W81370  25.032   6.901  14.818
17647W        W81371  11.675  33.881  14.984
17648W        W81372  38.880  27.999   0.330
17649W        W81373  30.000  26.587  11.593
17650W        W81374  14.668  31.606   1.706
17651W        W81375  23.681  21.589   1.756
17652W        W81376  30.065  33.517   0.358
17653W        W81377  18.583  43.512  12.896
17654W        W81378  30.521   8.656   2.783
17655W        W81379  34.008  29.625   0.800
17656W        W81380  15.720  26.113   3.331
17657W        W81381   4.901  38.433   4.142
17658W        W81382  31.561  39.542   2.237
17659W        W81383   3.245  29.611  13.404
17660W        W81384  14.264  23.985  11.056
17661W        W81385   4.736  19.147  14.829
17662W        W81386  21.094  11.731   0.825
17663W        W81387  21.611  19.251   2.192
17664W        W81388  18.675  37.837  10.419
17665W        W81389  31.600   0.488   0.462
17666W        W81390  34.988   1.829   0.366
17667W        W81391  43.015  30.975   1.737
17668W        W81392  33.447  17.641   2.901
17669W        W81393   7.222  21.156   1.366
17670W        W81394  18.145   2.760  11.110
17671W        W81395  43.451  18.634  11.045
17672W        W81396  12.118  12.239   1.352
17673W        W81397  30.037  23.087  12.538
17674W        W81398  12.183   4.901  11.417
17675W        W81399  26.142  16.768   1.921
17676W        W81400  27.472  14.228  11.377
17677W        W81401  43.284  27.467  13.945
17678W        W81402  33.392  44.853  10.894
17679W        W81403  39.523  29.587   3.774
17680W        W81404  43.286  22.175   2.814
17681W        W81405   9.800  10.305   1.881
17682W        W81406   9.282  10.786  12.978
17683W        W81407  43.387  17.570   1.272
17684W        W81408  42.856  29.475  11.107
17685W        W81409   9.801  17.075  13.857
17686W        W81410   4.273  19.587   3.827
17687W        W81411   9.845  16.130  11.904
17688W        W81412  23.497  22.250  12.364
17689W        W81413  30.044  38.060  14.995
17690W        W81414  32.466  13.721   0.364
17691W        W81415  25.529  43.476   4.642
17692W        W81416  24.174  24.549  10.570
17693W        W81417  38.893  18.055  10.969
17694W        W81418  22.028  18.647  10.980
17695W        W81419  39.889  39.450   0.821
17696W        W81420  22.235   9.263  14.394
17697W        W81421  28.093  38.969  14.821
17698W        W81422   6.273  14.153  14.891
17699W        W81423  34.874  30.436  10.980
17700W        W81424  43.865  34.873  11.408
17701W        W81425   5.251   1.873   4.617
17702W        W81426  22.078  27.497  13.391
17703W        W81427  42.310  22.997   0.352
17704W        W81428  30.956  41.354   2.812
17705W        W81429   9.361  25.524   2.288
17706W        W81430  18.170   1.325   2.725
17707W        W81431  10.663  34.117   4.148
17708W        W81432  16.642  41.796  13.020
17709W        W81433  19.672   8.735  14.993
17710W        W81434  19.112  39.452   4.706
17711W        W81435  35.975  37.380   4.647
17712W        W81436  35.395  42.786  12.987
17713W        W81437  18.289   1.389   3.837
17714W        W81438  36.893   0.341  10.937
17715W        W81439  21.205  36.891   4.129
17716W        W81440   0.818   9.237  10.570
17717W        W81441   9.807   3.377  13.541
17718W        W81442  13.702  23.095  10.613
17719W        W81443  13.689  22.243   3.783
17720W        W81444  12.344  10.266   3.699
17721W        W81445   4.905  31.043  14.312
17722W        W81446  34.420  17.292   4.199
17723W        W81447  15.293  30.094   0.825
17724W        W81448  29.473  29.470   0.447
17725W        W81449   0.777  42.483  10.976
17726W        W81450  42.354  14.835   4.782
17727W        W81451  34.983  44.294   3.207
17728W        W81452  29.140  34.068  13.894
17729W        W81453  13.637   0.824   1.381
17730W        W81454   2.248  23.600  13.308
17731W        W81455   3.232  34.593  12.848
17732W        W81456   1.782   6.728  10.936
17733W        W81457  24.605  19.716  10.995
17734W        W81458   7.863  13.837  11.529
17735W        W81459  30.530  43.919   3.182
17736W        W81460  26.008  40.307   0.373
17737W        W81461  30.654  17.064  12.074
17738W        W81462  14.693   7.382   2.752
17739W        W81463   1.321   1.876  10.930
17740W        W81464  32.948  36.547  12.899
17741W        W81465  29.135   0.746   2.759
17742W        W81466  33.517   2.904   2.726
17743W        W81467   3.459  17.218   0.878
17744W        W81468  35.902   7.821   2.817
17745W        W81469   8.773  35.456  10.466
17746W        W81470  25.713  18.086  12.561
17747W        W81471  37.475  16.662   2.235
17748W        W81472  29.946  35.431   4.744
17749W        W81473  33.466  43.459  12.454
17750W        W81474  24.134  11.223  14.950
17751W        W81475  32.586  30.080  14.938
17752W        W81476  26.476   9.243   1.377
17753W        W81477  35.363   4.906  11.005
17754W        W81478  33.561  34.092   2.746
17755W        W81479   1.367  16.166  12.093
17756W        W81480  44.401  22.009   3.374
17757W        W81481  35.069  37.421  11.947
17758W        W81482  44.765  28.136  14.324
17759W        W81483  27.103  39.927  14.313
17760W        W81484  24.046  43.305   4.719
17761W        W81485   6.779  12.161  11.468
17762W        W81486  26.097  11.751  10.480
17763W        W81487  11.814   1.739   0.834
17764W        W81488  42.283  31.128   0.858
17765W        W81489  43.923  12.793  11.896
17766W        W81490   5.754   3.728   0.402
17767W        W81491  42.003  44.773   0.819
17768W        W81492   8.351  33.492  14.326
17769W        W81493  32.989  25.545  10.578
17770W        W81494  15.201  11.128   2.800
17771W        W81495  10.379   2.365   1.281
17772W        W81496  28.970  35.101   1.283
17773W        W81497   1.342  23.233   2.308
17774W        W81498  37.479  36.988   1.325
17775W        W81499  35.031   1.390  13.936
17776W        W81500  10.296  39.859   2.207
17777W        W81501   6.917  13.146   0.265
17778W        W81502  32.607  28.150  14.284
17779W        W81503  30.966  21.165  14.850
17780W        W81504  41.004  31.046   0.767
17781W        W81505  24.592  19.551   4.342
17782W        W81506   4.746  14.785   2.866
17783W        W81507  27.506  29.028  11.860
17784W        W81508  38.534  11.816   4.675
17785W        W81509   6.766  39.373  11.611
17786W        W81510  28.940   2.275  12.842
17787W        W81511   9.277   3.336   0.460
17788W        W81512   5.435   1.268  10.547
17789W        W81513  31.054  21.517   0.955
17790W        W81514  22.092  14.634  12.972
17791W        W81515   4.725  12.817  11.026
17792W        W81516  34.547  16.595  11.890
17793W        W81517   1.964  17.676   0.282
17794W        W81518  27.635  39.483   0.415
17795W        W81519  43.361   3.895   4.677
17796W        W81520  39.977  38.507  11.966
17797W        W81521  40.806  16.675  11.098
17798W        W81522   8.784   5.693  11.487
17799W        W81523  12.235   4.384   4.778
17800W        W81524  11.682  23.132  11.883
17801W        W81525  30.607  41.417  10.591
17802W        W81526  34.444   5.330   4.127
17803W        W81527  12.714   0.892  10.477
17804W        W81528  16.238  13.134  13.539
17805W        W81529  33.459  31.609  13.435
17806W        W81530  36.938  34.478   0.751
17807W        W81531  19.145  17.145   1.385
17808W        W81532  34.103  36.981  13.956
17809W        W81533  34.521  20.151   0.328
17810W        W81534  33.975  13.715   1.249
17811W        W81535  38.453  38.495   3.309
17812W        W81536  32.508  16.254   4.353
17813W        W81537  25.493  24.159   2.352
17814W        W81538  42.520  43.004  14.443
17815W        W81539  12.129   5.811  10.493
17816W        W81540   2.836  23.123   3.870
17817W        W81541  41.378  24.003  14.458
17818W        W81542  20.109  28.969  12.078
17819W        W81543  27.128   9.308  14.851
17820W        W81544  38.426  31.557  12.058
17821W        W81545  38.505  22.159   0.942
17822W        W81546  39.529  41.912  14.494
17823W        W81547  44.286  14.194   3.695
17824W        W81548  34.612  20.618  14.923
17825W        W81549  43.959  13.732  14.494
17826W        W81550  40.356   3.765  11.606
17827W        W81551  22.168  42.290   4.339
17828W        W81552   0.927  38.935  13.952
17829W        W81553  42.429  23.600  12.970
17830W        W81554  35.047  43.273  12.936
17831W        W81555  37.899  32.929  12.996
17832W        W81556  16.657  16.781   3.212
17833W        W81557   5.239   0.419   5.134
17834W        W81558  12.152   1.877   3.180
17835W        W81559  10.788  13.194  11.599
17836W        W81560   1.869  19.677  14.838
17837W        W81561   4.329   5.436   1.444
17838W        W81562  21.672  22.713  13.378
17839W        W81563  13.250   1.881  12.035
17840W        W81564  34.505  30.116   1.925
17841W        W81565  21.669  20.209   2.811
17842W        W81566  28.122  28.495  11.455
17843W        W81567  32.012  28.146  14.339
17844W        W81568  21.745  22.101   2.678
17845W        W81569  21.674  29.040  11.915
17846W        W81570   7.396  41.398   4.302
17847W        W81571  32.102  18.627  10.629
17848W        W81572  32.567   5.925  11.599
17849W        W81573  26.071  43.498   2.395
17850W        W81574  40.917  40.415   2.275
17851W        W81575  44.980  34.579  11.504
17852W        W81576  13.130  38.875  14.285
17853W        W81577  44.380  39.911   0.379
17854W        W81578   2.380   7.229  13.413
17855W        W81579  42.324  14.799   2.342
17856W        W81580  38.503  22.216  10.054
17857W        W81581  25.655  16.123  14.989
17858W        W81582   4.421  31.468   3.218
17859W        W81583  27.179  24.555  10.890
17860W        W81584   9.330  19.262  10.407
17861W        W81585  23.061   5.705   0.390
17862W        W81586  12.340  19.661   1.377
17863W        W81587  42.403  33.427   5.739
17864W        W81588  17.629  28.471   3.154
17865W        W81589  19.252  30.550   2.288
17866W        W81590  29.594  21.261  11.386
17867W        W81591  29.976  33.130   3.827
17868W        W81592   9.721   8.700   4.162
17869W        W81593   3.280  44.819  14.376
17870W        W81594  36.458  41.303  12.999
17871W        W81595   3.777  14.336   4.794
17872W        W81596  19.663   3.304   0.304
17873W        W81597  23.587  24.479  11.381
17874W        W81598  17.712  19.091  12.420
17875W        W81599  19.114  44.427   0.457
17876W        W81600   9.811  37.844  11.440
17877W        W81601  42.367   4.864   2.721
17878W        W81602  39.993   9.752   3.334
17879W        W81603  32.462   2.453   2.834
17880W        W81604  16.593  18.107  14.326
17881W        W81605  14.220  39.969   3.327
17882W        W81606   8.322  23.007   4.179
17883W        W81607  21.172  43.941   3.776
17884W        W81608  14.111   8.278   0.452
17885W        W81609  37.088  10.379   3.289
17886W        W81610   5.370  11.703  10.543
17887W        W81611  26.073  33.010  11.926
17888W        W81612  12.200  30.530  12.004
17889W        W81613   4.819  19.156  14.347
17890W        W81614   1.317  34.037  10.624
17891W        W81615  41.817  36.046  12.901
17892W        W81616  23.991  14.186   5.124
17893W        W81617   7.677  29.991  12.957
17894W        W81618  16.803   5.880  13.412
17895W        W81619   9.220  41.895   1.698
17896W        W81620   4.890  33.483   5.267
17897W        W81621  21.551  20.104  12.348
17898W        W81622  10.720  37.514  13.359
17899W        W81623  35.382  22.610  14.988
17900W        W81624  15.669  21.186   3.846
17901W        W81625  11.269  16.179  12.954
17902W        W81626   5.266  34.506  13.345
17903W        W81627  29.608  39.542  12.091
17904W        W81628  31.410  19.586  12.093
17905W        W81629  32.533  19.039  10.562
17906W        W81630  38.055  22.560   3.706
17907W        W81631  31.924  17.268   4.290
17908W        W81632  32.940  23.518  10.635
17909W        W81633   1.969  30.007   4.682
17910W        W81634  18.107   8.212   3.260
17911W        W81635  41.534   4.822   0.927
17912W        W81636  35.382  23.734   3.254
17913W        W81637   1.440  16.169  13.034
17914W        W81638  33.984  39.411  11.063
17915W        W81639  28.557   1.313   4.647
17916W        W81640   0.315  33.941  13.810
17917W        W81641  40.520   4.935  14.316
17918W        W81642  20.264  39.554   5.621
17919W        W81643   3.355  33.113   3.146
17920W        W81644  13.807  26.975   2.707
17921W        W81645  36.902  36.361  11.863
17922W        W81646   7.858   6.403   3.796
17923W        W81647  12.287  40.843   3.201
17924W        W81648   4.820  14.607   1.427
17925W        W81649  26.085  31.608   2.787
17926W        W81650  32.068   8.711   3.733
17927W        W81651  23.493  40.970   4.825
17928W        W81652  42.312  39.046  12.938
17929W        W81653  34.101  38.067  13.422
17930W        W81654  25.053   9.860  13.907
17931W        W81655  24.585  36.049   1.421
17932W        W81656  18.094  38.832  11.991
17933W        W81657   8.227   3.322   0.424
17934W        W81658   8.694  42.837   5.262
17935W        W81659  12.313  19.149   2.739
17936W        W81660  28.502  34.524   4.767
17937W        W81661  30.145  40.515  10.516
17938W        W81662  12.133  17.305   2.248
17939W        W81663  43.457  39.367  11.009
17940W        W81664   7.912   8.856  13.986
17941W        W81665   9.285  34.054   4.837
17942W        W81666  35.510   9.758  12.445
17943W        W81667   9.360  35.892   4.334
17944W        W81668  43.294  26.113   0.755
17945W        W81669  16.732  30.577  11.114
17946W        W81670  43.988  12.734   3.671
17947W        W81671   9.709  41.881  10.967
17948W        W81672  14.181   4.233   0.764
17949W        W81673   4.698  37.893   3.307
17950W        W81674  12.354  33.883  14.825
17951W        W81675  20.739  20.148  10.522
17952W        W81676   3.383  35.556  13.498
17953W        W81677  33.416  29.962   0.774
17954W        W81678  30.649  16.720  11.604
17955W        W81679  44.354   2.865  10.571
17956W        W81680  16.801  32.014  12.400
17957W        W81681   2.899  14.708   2.764
17958W        W81682  15.815  15.714   3.360
17959W        W81683  18.288   3.774   1.748
17960W        W81684  22.039  32.008   3.283
17961W        W81685   4.381   4.827  14.879
17962W        W81686  43.415  23.090  12.020
17963W        W81687  26.493  42.882   4.723
17964W        W81688  29.430  18.057   4.242
17965W        W81689  39.365  35.904  12.924
17966W        W81690  23.500  27.660   5.804
17967W        W81691  21.080  38.505   3.297
17968W        W81692  14.675  43.818  13.310
17969W        W81693  35.479  35.577  11.098
17970W        W81694   8.360   5.228   1.788
17971W        W81695   3.276  15.199   3.720
17972W        W81696  35.507   7.752   3.215
17973W        W81697  22.127  31.491   0.889
17974W        W81698  17.628  42.003  11.545
17975W        W81699  27.964  14.788  12.078
17976W        W81700  27.578  13.616  12.056
17977W        W81701   1.304  14.306  11.123
17978W        W81702  38.547  40.488  12.940
17979W        W81703  44.306  30.658  11.007
17980W        W81704  23.686   1.903   3.685
17981W        W81705  29.078   6.796   2.282
17982W        W81706   5.220   6.251   0.463
17983W        W81707  18.631   7.812  11.530
17984W        W81708  43.863   8.167   2.862
17985W        W81709  17.163   1.282  12.893
17986W        W81710  43.398  29.519   2.890
17987W        W81711  32.404   5.253   3.715
17988W        W81712  19.268  34.523   4.330
17989W        W81713  13.236  31.556   0.776
17990W        W81714   3.345  24.546   0.847
17991W        W81715   6.883  27.469   2.760
17992W        W81716  35.901  10.671  11.559
17993W        W81717   2.768  17.220   2.394
17994W        W81718   0.352  15.605  14.439
17995W        W81719  20.044  21.110  12.971
17996W        W81720   4.928  40.506  12.391
17997W        W81721   6.388  13.314  14.942
17998W        W81722  13.181  39.315  14.931
17999W        W81723   8.675  16.808   2.278
18000W        W81724   5.219  18.245   1.333
18001W        W81725  17.230   4.703   9.607
18002W        W81726  30.941  25.009  14.350
18003W        W81727  28.672   4.747   3.712
18004W        W81728   2.388   9.796  11.489
18005W        W81729  15.690  37.366   5.204
18006W        W81730  32.104  39.384   2.820
18007W        W81731  36.015  18.680  12.551
18008W        W81732  35.378  26.099  14.894
18009W        W81733  39.459  14.217   2.768
18010W        W81734  12.282  25.183  14.467
18011W        W81735   4.922  36.028   2.181
18012W        W81736   7.412  13.676  11.606
18013W        W81737  13.325  19.205   2.895
18014W        W81738  13.201  24.489  11.540
18015W        W81739  18.550  35.004   1.735
18016W        W81740  17.239  39.393  12.921
18017W        W81741   4.735  18.097  11.092
18018W        W81742  24.062  34.469   2.882
18019W        W81743  35.458   5.331  14.936
18020W        W81744  27.182  15.140  10.461
18021W        W81745  17.770   1.881  14.293
18022W        W81746  11.262  24.200   2.404
18023W        W81747  27.681  20.071  11.949
18024W        W81748  11.653  17.700   1.261
18025W        W81749  30.596  38.423  14.765
18026W        W81750  40.900  17.278  12.390
18027W        W81751  12.130  31.018   2.355
18028W        W81752  26.517  35.934   4.347
18029W        W81753  25.602   5.422   0.829
18030W        W81754   6.888   6.319  14.344
18031W        W81755  16.101   1.878   1.757
18032W        W81756  15.304  28.467  14.951
18033W        W81757  32.506  29.460  13.839
18034W        W81758  12.304  17.648  14.864
18035W        W81759  22.038  35.393   4.341
18036W        W81760   6.234  11.817  14.301
18037W        W81761  43.891  20.247   1.860
18038W        W81762  34.422  26.494  11.024
18039W        W81763  31.520  24.479  10.417
18040W        W81764  40.952  12.140   3.258
18041W        W81765  25.175  17.291  13.017
18042W        W81766  17.306  12.358  13.824
18043W        W81767  17.682  18.648  12.857
18044W        W81768  34.578  14.297  13.876
18045W        W81769  37.900  12.788   0.913
18046W        W81770  24.621  10.759  12.834
18047W        W81771  44.872   2.733  10.918
18048W        W81772  27.543  31.141   4.620
18049W        W81773  16.592  35.521   0.318
18050W        W81774  10.655   2.732  10.955
18051W        W81775  10.804   6.764  11.929
18052W        W81776  44.465  34.522   2.824
18053W        W81777  28.048  16.154   1.217
18054W        W81778  23.665  41.466   3.653
18055W        W81779  24.068  25.587   2.276
18056W        W81780  39.898  22.525  13.795
18057W        W81781  30.092   7.381  10.609
18058W        W81782  40.407   3.268  10.100
18059W        W81783  24.983  42.389  11.954
18060W        W81784  33.551   8.828  13.497
18061W        W81785  10.638  12.648   0.347
18062W        W81786  35.027  43.830   2.184
18063W        W81787   3.910   2.795   2.209
18064W        W81788   7.183  37.487  14.285
18065W        W81789  17.210   8.400  14.944
18066W        W81790  26.699  28.578   5.726
18067W        W81791  16.800  15.807  12.850
18068W        W81792  14.697  13.838   3.786
18069W        W81793  15.707   7.415   0.246
18070W        W81794  26.139  27.183  14.428
18071W        W81795  22.662  15.692  11.581
18072W        W81796  26.100   4.336   3.686
18073W        W81797  38.840  41.498   4.747
18074W        W81798  26.065  37.857  10.531
18075W        W81799   7.756  36.551  12.003
18076W        W81800   5.397  27.147  13.936
18077W        W81801  29.473  29.431  10.548
18078W        W81802  37.894  27.195  11.088
18079W        W81803  26.094   7.294   4.750
18080W        W81804   6.280  35.397  11.036
18081W        W81805  21.174   4.925  13.850
18082W        W81806  30.514  19.611  13.491
18083W        W81807  26.169  31.554   0.308
18084W        W81808  15.091   6.780  13.012
18085W        W81809  44.449  41.791  13.363
18086W        W81810  35.479   2.424  11.599
18087W        W81811  29.009  15.120  14.924
18088W        W81812  26.158  39.399   4.762
18089W        W81813  43.876  13.334   0.889
18090W        W81814  42.511  35.975   4.120
18091W        W81815  22.247  22.126   3.748
18092W        W81816   5.268   9.200   0.423
18093W        W81817  39.522  16.609   0.357
18094W        W81818  36.525  40.833  10.456
18095W        W81819  14.302  31.600  11.511
18096W        W81820  14.817  37.442   3.662
18097W        W81821  40.371  21.657  10.075
18098W        W81822  24.603   1.969  13.506
18099W        W81823  27.961  14.171   2.353
18100W        W81824  13.823   2.441  12.996
18101W        W81825  11.841   8.764   5.230
18102W        W81826  17.170  11.317   2.824
18103W        W81827  31.946  33.538  13.452
18104W        W81828  34.006  42.518   1.765
18105W        W81829  22.107   5.347  11.909
18106W        W81830  32.485  25.676   3.320
18107W        W81831  44.963  14.809   3.156
18108W        W81832  37.402   6.382   4.231
18109W        W81833  32.085  17.733   3.642
18110W        W81834  10.293   1.863  12.935
18111W        W81835  36.443  20.596  11.550
18112W        W81836  21.521   1.419  11.560
18113W        W81837  38.465  17.187  14.384
18114W        W81838  13.114  29.138  13.333
18115W        W81839  13.252  25.586  14.018
18116W        W81840  21.140  32.557  14.382
18117W        W81841  27.029  38.916  10.161
18118W        W81842  33.995   5.220  11.522
18119W        W81843   8.196   4.398   2.213
18120W        W81844  19.617   8.720  13.972
18121W        W81845  12.199  31.061   4.348
18122W        W81846  22.548  21.053  14.906
18123W        W81847  32.637  39.909  13.401
18124W        W81848  38.366  19.619  12.942
18125W        W81849  22.722   8.303   3.221
18126W        W81850  37.085  26.174  12.395
18127W        W81851   8.791  24.572   3.195
18128W        W81852  28.094  33.473   2.199
18129W        W81853   5.304  14.802   3.773
18130W        W81854   3.266  19.750   9.934
18131W        W81855  14.784  22.031  10.450
18132W        W81856  11.691  14.218  11.892
18133W        W81857  39.029   7.909   0.931
18134W        W81858  41.989  10.683  12.057
18135W        W81859  13.763  11.312   1.745
18136W        W81860   8.253   0.251   4.741
18137W        W81861  33.105  23.577   1.890
18138W        W81862  16.673  11.676   3.850
18139W        W81863  15.300   3.917  12.065
18140W        W81864   2.375  19.779   3.790
18141W        W81865   2.828  27.631   0.449
18142W        W81866  31.036  23.151   2.763
18143W        W81867  29.533  44.968  11.025
18144W        W81868  14.802   7.881  11.019
18145W        W81869  26.600  41.982  13.507
18146W        W81870  10.142  41.797   1.234
18147W        W81871  17.574  29.501   4.322
18148W        W81872   2.901  24.084  10.984
18149W        W81873  33.923  31.913   3.269
18150W        W81874  33.537   9.349  13.949
18151W        W81875  34.576  19.208   1.934
18152W        W81876  40.409  11.860   2.403
18153W        W81877  40.347  24.102  13.799
18154W        W81878  30.028   1.818   2.820
18155W        W81879  38.399  16.654  14.911
18156W        W81880   7.180   4.768   3.354
18157W        W81881  15.722  17.159  13.924
18158W        W81882  11.833  43.341  11.117
18159W        W81883  37.461  20.039   1.745
18160W        W81884  25.089   6.254  12.986
18161W        W81885  16.607   0.808   4.651
18162W        W81886   6.916  23.585   0.435
18163W        W81887   5.253  40.306  12.382
18164W        W81888  27.103  30.623   1.895
18165W        W81889   1.915   8.381  14.376
18166W        W81890  36.057  17.078   0.458
18167W        W81891   1.765  39.467   2.282
18168W        W81892  18.652  10.735   2.749
18169W        W81893   7.355  27.588   4.271
18170W        W81894  44.880  22.997  13.894
18171W        W81895  25.978   8.333  14.855
18172W        W81896  25.119   8.207   0.349
18173W        W81897  31.948  23.554  11.009
18174W        W81898  24.198  21.577   1.352
18175W        W81899   5.861  31.636   2.372
18176W        W81900  38.446   0.853  10.485
18177W        W81901  36.494  13.327  10.611
18178W        W81902   5.439  15.164  11.572
18179W        W81903  32.130  38.912   3.654
18180W        W81904  33.481  34.910  11.398
18181W        W81905   4.706  11.672   2.217
18182W        W81906  30.461  35.075   3.688
18183W        W81907   3.776   7.826  13.450
18184W        W81908  14.141  36.039  14.429
18185W        W81909   3.382  17.291   2.249
18186W        W81910  10.780  20.212  13.850
18187W        W81911   5.369  38.447  10.569
18188W        W81912  26.023  10.792  13.528
18189W        W81913  24.056  32.481   2.826
18190W        W81914  40.951   0.409   1.864
18191W        W81915   8.179  27.177  14.908
18192W        W81916  15.171  41.808  13.006
18193W        W81917   0.411  17.278  13.948
18194W        W81918  33.550  29.983  12.409
18195W        W81919  18.628  28.981   0.823
18196W        W81920   7.701  19.604   3.188
18197W        W81921  43.364  20.584   2.774
18198W        W81922  41.364  39.391  14.964
18199W        W81923  22.735  25.561  14.410
18200W        W81924  12.722  20.063   0.924
18201W        W81925  35.046  18.162  11.097
18202W        W81926  44.854  22.161   1.439
18203W        W81927  39.427   2.455   4.123
18204W        W81928  32.429  24.117  12.971
18205W        W81929   5.410   5.931   1.242
18206W        W81930   2.933  43.447   1.883
18207W        W81931  37.080  44.792   1.775
18208W        W81932  22.141  18.201   3.217
18209W        W81933  23.641   8.803  12.397
18210W        W81934  41.942  11.700   3.362
18211W        W81935  20.206  12.742  12.399
18212W        W81936   6.384  27.637  14.001
18213W        W81937  21.699  29.119  13.985
18214W        W81938  22.740  17.664  12.847
18215W        W81939  11.678  24.148  10.413
18216W        W81940  18.108  18.750   1.857
18217W        W81941  13.778   2.379  10.025
18218W        W81942  31.455  31.590  10.561
18219W        W81943  19.658  10.677   2.285
18220W        W81944   3.887  25.161   0.437
18221W        W81945  22.594  36.856  11.388
18222W        W81946  43.935   7.235  10.941
18223W        W81947  14.806  21.097  12.969
18224W        W81948  25.675  42.319  14.823
18225W        W81949  26.655  42.324   4.277
18226W        W81950  23.058   9.353   3.387
18227W        W81951  44.853   2.910   1.439
18228W        W81952  18.618   4.724  10.592
18229W        W81953  32.602  39.895  11.431
18230W        W81954  29.455  31.899   2.757
18231W        W81955  27.602   4.828  12.553
18232W        W81956   8.860  37.471  13.476
18233W        W81957  21.210  25.143  14.293
18234W        W81958   5.877  26.663   1.235
18235W        W81959   7.787  36.495  11.371
18236W        W81960  31.909  27.625  14.373
18237W        W81961   2.793  24.670   2.303
18238W        W81962  33.103  21.739   2.373
18239W        W81963  18.175  25.468   0.951
18240W        W81964  35.581  26.157   3.268
18241W        W81965  27.002  11.343  11.934
18242W        W81966   4.278   7.378  12.462
18243W        W81967  28.940   2.411  14.996
18244W        W81968  33.879  40.391  13.472
18245W        W81969   7.741  17.582   4.825
18246W        W81970   8.282  15.811   2.743
18247W        W81971  24.541  21.753   0.276
18248W        W81972   9.708  21.162   1.863
18249W        W81973  11.799   1.252   4.128
18250W        W81974  19.127  38.886   4.739
18251W        W81975  43.515  14.810  14.908
18252W        W81976  18.231  31.080  13.342
18253W        W81977   1.972  13.752   3.680
18254W        W81978  43.821  19.235   2.359
18255W        W81979   2.839   1.790  14.941
18256W        W81980  26.688  41.500   2.731
18257W        W81981   2.353  21.163  12.353
18258W        W81982  11.720  26.072  13.059
18259W        W81983  40.804  30.958  10.910
18260W        W81984  43.899   0.443   4.638
18261W        W81985  13.703  41.504  12.050
18262W        W81986  39.384   6.256  10.458
18263W        W81987  26.958  27.975  11.929
18264W        W81988  40.914  21.709  12.521
18265W        W81989   8.674   5.825   2.261
18266W        W81990  30.049   9.818   5.577
18267W        W81991   5.687  30.990   0.753
18268W        W81992   7.202  18.704  13.882
18269W        W81993  29.102  17.298   1.720
18270W        W81994   5.393  34.029   0.441
18271W        W81995  15.320   8.231  11.548
18272W        W81996  38.332  18.068   4.256
18273W        W81997  38.029   1.890   0.274
18274W        W81998  43.874  33.515   0.918
18275W        W81999  15.200  40.536   0.877
18276W        W82000  12.169   9.742   0.364
18277W        W82001  43.385  11.352  11.538
18278W        W82002   2.331  12.738  13.834
18279W        W82003  10.302  34.379  14.512
18280W        W82004  18.625  41.987   3.307
18281W        W82005   1.765  17.211   0.279
18282W        W82006  22.128  27.479   3.356
18283W        W82007   9.703   2.450   0.845
18284W        W82008  13.670  42.374   4.782
18285W        W82009  15.654   0.864   1.380
18286W        W82010  34.569  39.968   3.687
18287W        W82011  15.605  18.659   4.307
18288W        W82012  34.110  12.294  13.858
18289W        W82013  25.219  18.779   4.837
18290W        W82014  29.068  29.620  12.393
18291W        W82015  24.177  42.793   3.685
18292W        W82016  37.967  20.613   2.413
18293W        W82017  40.323   9.359   3.675
18294W        W82018  28.156  36.512   4.123
18295W        W82019  26.011  17.234  12.517
18296W        W82020  23.610  33.916   0.283
18297W        W82021  25.602  43.289   2.211
18298W        W82022  35.063  28.962   9.941
18299W        W82023  10.655  17.211   4.217
18300W        W82024  35.966  15.812  11.593
18301W        W82025  33.382  18.722  14.511
18302W        W82026  44.992  30.012   3.772
18303W        W82027  13.116  21.147  11.918
18304W        W82028   3.234  37.535  13.912
18305W        W82029  22.551   0.253   3.325
18306W        W82030  36.059  34.925  12.556
18307W        W82031  30.910   0.807   0.810
18308W        W82032  15.152  15.278   3.212
18309W        W82033  38.368  32.429  10.529
18310W        W82034   9.261  25.701   2.681
18311W        W82035  17.778  42.793  11.592
18312W        W82036  25.536  10.167   0.302
18313W        W82037  43.893  42.459   0.430
18314W        W82038  14.230   0.767   1.428
18315W        W82039  18.660  31.599   3.244
18316W        W82040   5.407  28.642   4.663
18317W        W82041  15.759   0.461   1.911
18318W        W82042  44.796  31.098  13.871
18319W        W82043  22.233  24.145   1.365
18320W        W82044   9.153  17.708  10.527
18321W        W82045  27.603   5.863  11.102
18322W        W82046  38.325  21.176   3.291
18323W        W82047  26.040  15.812   1.793
18324W        W82048  20.603  10.858  10.942
18325W        W82049  24.552   8.756   2.679
18326W        W82050  41.978  22.251  14.406
18327W        W82051  22.169  29.106   4.350
18328W        W82052   5.835  31.040   1.869
18329W        W82053  16.163  24.515   1.734
18330W        W82054   7.788  28.991  14.883
18331W        W82055  24.706  37.437   3.210
18332W        W82056  38.495  19.219  11.449
18333W        W82057  30.134   7.388   4.628
18334W        W82058  25.483   2.737   2.382
18335W        W82059  22.745  14.218  13.371
18336W        W82060  36.497  12.250  12.540
18337W        W82061  14.301  40.331   1.824
18338W        W82062  35.029  30.095  14.014
18339W        W82063  29.965  39.929   3.752
18340W        W82064  11.160  35.868   4.341
18341W        W82065   1.449   9.227   3.656
18342W        W82066   3.404  37.542  10.481
18343W        W82067  38.450  18.133   0.770
18344W        W82068  32.525   8.762  11.442
18345W        W82069   4.272  18.715  13.351
18346W        W82070   4.329   0.757  12.519
18347W        W82071  44.931  14.610   1.242
18348W        W82072  40.464  30.072  12.556
18349W        W82073  40.381  36.502  12.072
18350W        W82074  15.602  26.033   3.633
18351W        W82075   5.200  10.847  11.896
18352W        W82076  31.943  17.066   1.879
18353W        W82077   5.228  29.641   4.680
18354W        W82078   0.324  15.186   4.719
18355W        W82079   3.421  27.013  11.944
18356W        W82080   6.866  28.568  13.466
18357W        W82081  25.543   6.778   2.320
18358W        W82082  32.125  31.105   0.833
18359W        W82083  37.411  17.727   0.424
18360W        W82084  42.407   2.383   1.352
18361W        W82085   2.429   7.818  13.529
18362W        W82086  30.029  38.424  11.467
18363W        W82087  33.105  18.072   0.380
18364W        W82088   2.472  40.468  12.389
18365W        W82089  35.095   4.273  11.916
18366W        W82090  29.552  10.154  12.890
18367W        W82091  16.582  29.556   3.816
18368W        W82092  22.505  10.817  14.288
18369W        W82093  33.885  43.842   1.821
18370W        W82094  27.986  13.842  10.918
18371W        W82095  10.161  25.043  12.854
18372W        W82096  24.144  28.610  13.490
18373W        W82097  20.576   3.457  11.460
18374W        W82098  22.044   7.266   2.847
18375W        W82099  15.644   2.325   1.856
18376W        W82100   5.844  19.661   2.768
18377W        W82101  30.121  17.718   3.871
18378W        W82102  17.184  37.844   1.442
18379W        W82103  28.465   5.885  11.374
18380W        W82104  33.387  44.352   1.239
18381W        W82105  37.443  27.590  11.599
18382W        W82106  44.852  31.419  14.331
18383W        W82107  28.151  28.985   3.219
18384W        W82108  41.905  36.936   4.267
18385W        W82109  36.065  10.640  13.312
18386W        W82110  33.511  30.119   9.992
18387W        W82111  14.200  10.242  14.928
18388W        W82112  34.892  25.126  13.475
18389W        W82113  18.575   7.799  10.616
18390W        W82114  23.604  12.124   4.198
18391W        W82115   1.449  43.425  10.565
18392W        W82116  33.059  38.897  11.524
18393W        W82117  34.413  29.162   1.326
18394W        W82118  27.527   7.378   2.249
18395W        W82119  25.207   7.685  13.855
18396W        W82120  15.818  37.024   3.849
18397W        W82121  34.058  18.292   3.843
18398W        W82122  27.587  14.320  13.974
18399W        W82123  22.137   3.262  14.987
18400W        W82124   5.818   6.832   0.760
18401W        W82125  40.466  28.498   1.905
18402W        W82126  39.390  26.194   1.762
18403W        W82127  28.576  26.097   0.731
18404W        W82128  43.345  25.170  11.046
18405W        W82129  36.361   4.818  14.934
18406W        W82130   7.213   0.798   4.757
18407W        W82131  42.456   2.859  13.922
18408W        W82132  21.251   1.825   0.764
18409W        W82133  15.783  28.473   4.171
18410W        W82134   6.718  27.515  10.965
18411W        W82135  34.370   2.894  11.878
18412W        W82136  25.483  15.092   3.333
18413W        W82137  18.262  44.500  11.450
18414W        W82138  27.034  11.352   4.218
18415W        W82139  35.048  11.279  10.470
18416W        W82140  12.329  31.595  13.847
18417W        W82141  24.002  12.854   3.637
18418W        W82142  23.634  23.719   3.315
18419W        W82143  26.181  15.807  13.309
18420W        W82144  34.448  37.935   3.661
18421W        W82145   6.351  21.519   3.864
18422W        W82146  14.301  31.987  10.124
18423W        W82147   7.219  33.573   0.325
18424W        W82148  39.439  21.034   0.796
18425W        W82149  29.657  41.323   3.337
18426W        W82150  14.776  12.800   1.715
18427W        W82151  29.158  42.377   4.833
18428W        W82152   1.756  32.932  13.828
18429W        W82153  19.577  10.660  13.355
18430W        W82154   9.676  38.506   2.682
18431W        W82155  17.294  36.495  14.441
18432W        W82156   4.720  20.224  10.548
18433W        W82157  13.670   5.711   0.379
18434W        W82158  18.688  29.128  11.563
18435W        W82159  20.542  28.066   1.436
18436W        W82160  44.906   1.270   4.261
18437W        W82161  26.973  35.893   3.862
18438W        W82162  36.522  14.296  11.574
18439W        W82163  25.649  36.395   4.275
18440W        W82164  24.553  27.105  12.946
18441W        W82165  19.057  14.218  11.992
18442W        W82166  27.453  29.502  11.977
18443W        W82167  30.607  20.053  13.047
18444W        W82168  40.942   2.835   4.189
18445W        W82169  40.387   3.265   4.628
18446W        W82170  21.623  24.181   0.386
18447W        W82171   9.237  30.100   2.847
18448W        W82172  11.865  11.856   4.276
18449W        W82173  19.714  13.799   3.203
18450W        W82174   7.417  35.055   4.143
18451W        W82175   4.931   9.349  10.463
18452W        W82176  26.653  40.967   3.179
18453W        W82177  39.043   6.425  10.453
18454W        W82178  25.161  24.481   2.207
18455W        W82179  44.315  36.462  14.840
18456W        W82180  18.562  36.055  14.803
18457W        W82181   3.872  42.424   1.341
18458W        W82182  35.529  37.851   0.385
18459W        W82183  41.934  24.996  13.800
18460W        W82184  25.152  14.251  11.442
18461W        W82185  44.375  42.303   1.214
18462W        W82186  44.995  25.503   3.690
18463W        W82187  27.020   9.215   0.810
18464W        W82188  26.030  31.119  11.443
18465W        W82189  40.932  41.314  10.607
18466W        W82190  10.267  40.926  11.396
18467W        W82191   5.313  28.471   0.747
18468W        W82192   4.400  15.244   3.232
18469W        W82193  28.162  36.062   5.150
18470W        W82194  11.744  20.725   3.754
18471W        W82195  30.507  41.378   0.908
18472W        W82196  38.912  20.652   3.835
18473W        W82197  22.583   1.768   1.839
18474W        W82198  26.070  20.740   4.602
18475W        W82199   3.332   6.782   0.730
18476W        W82200  26.975  32.901   0.473
18477W        W82201  30.544  30.565  14.766
18478W        W82202  35.888  32.397   2.855
18479W        W82203   8.166  13.107  13.316
18480W        W82204   9.850  32.511   2.735
18481W        W82205  37.840  30.040  11.597
18482W        W82206  37.843  25.518   1.254
18483W        W82207  10.158  34.465   1.885
18484W        W82208  35.937  32.104   9.963
18485W        W82209  33.614   0.355  10.101
18486W        W82210  26.074  42.978   0.362
18487W        W82211  23.720  31.438  11.467
18488W        W82212  23.598  29.648   1.279
18489W        W82213  42.946  38.952   3.160
18490W        W82214  12.776  43.432  12.051
18491W        W82215  39.451  36.994  14.374
18492W        W82216  38.557  34.027  11.121
18493W        W82217  43.468  32.030   1.400
18494W        W82218  17.265  38.980   0.268
18495W        W82219  33.591  17.556   4.605
18496W        W82220  38.851  17.579   4.809
18497W        W82221  12.735  29.567  14.014
18498W        W82222  41.403  38.956  13.914
18499W        W82223   4.904   1.283  13.479
18500W        W82224  30.495   1.850   2.848
18501W        W82225   9.255  38.953  13.820
18502W        W82226  25.199  36.985  12.020
18503W        W82227  42.791  22.036   0.358
18504W        W82228  32.949  16.601   0.376
18505W        W82229  30.413   9.371   3.850
18506W        W82230  39.812  22.077   2.337
18507W        W82231   2.255  22.049  14.859
18508W        W82232  28.561  11.240   4.159
18509W        W82233   6.773  34.565   1.786
18510W        W82234   5.208  10.138  13.851
18511W        W82235  23.001  39.888   0.867
18512W        W82236   3.250   9.686   1.820
18513W        W82237  16.659  27.081  13.059
18514W        W82238  25.519  33.487  13.479
18515W        W82239  44.770  21.145  13.441
18516W        W82240  36.029  34.865  10.559
18517W        W82241   1.901  33.405   0.466
18518W        W82242  35.553  34.408  11.924
18519W        W82243   1.378  11.155  12.529
18520W        W82244  31.628  44.440   3.656
18521W        W82245   5.407  14.737   0.950
18522W        W82246  21.121  36.352   1.344
18523W        W82247  42.432  27.643   2.700
18524W        W82248  34.102  40.886   4.723
18525W        W82249  38.887  22.036   9.958
18526W        W82250  40.452  39.322  13.370
18527W        W82251  28.976  34.539   1.914
18528W        W82252  40.373  15.159   0.805
18529W        W82253   7.399  33.492  12.849
18530W        W82254   8.276  13.124   4.191
18531W        W82255  27.628  19.209  11.553
18532W        W82256  15.613   2.903  12.979
18533W        W82257   9.776  26.109   2.313
18534W        W82258  42.002  34.544   1.881
18535W        W82259  34.943  31.974   0.846
18536W        W82260  44.490  38.538  12.911
18537W        W82261  17.612  13.248   4.254
18538W        W82262  11.800  35.395  12.922
18539W        W82263   9.781  13.247   4.291
18540W        W82264  32.962  13.208  13.501
18541W        W82265  25.005   5.729   4.630
18542W        W82266  42.929  26.110  11.110
18543W        W82267  24.717  31.106  12.396
18544W        W82268  30.035  29.553   1.308
18545W        W82269  16.655  37.904   3.692
18546W        W82270  21.224  11.679  11.380
18547W        W82271  20.212  14.760   3.679
18548W        W82272  28.074  12.289  13.457
18549W        W82273   1.351   1.310   2.798
18550W        W82274  11.290  35.482  10.905
18551W        W82275   9.235  29.078   1.776
18552W        W82276  43.351  22.729  12.840
18553W        W82277  37.970  38.892  13.011
18554W        W82278  19.778   1.408  11.580
18555W        W82279  22.548  41.446  14.966
18556W        W82280  23.155  24.984  13.965
18557W        W82281  20.246  13.180  11.085
18558W        W82282  44.858  31.102   1.694
18559W        W82283   3.897  36.561  14.956
18560W        W82284  27.106  33.438  12.044
18561W        W82285  14.138  23.497  13.831
18562W        W82286   3.820  30.036  14.977
18563W        W82287   5.691   3.750  14.362
18564W        W82288  39.517  44.295   4.188
18565W        W82289  31.479  15.275  10.602
18566W        W82290  13.263  16.794   2.296
18567W        W82291  29.580  36.525   2.357
18568W        W82292   7.194  38.503  13.448
18569W        W82293   4.759   3.867  12.423
18570W        W82294  27.990  30.138   1.272
18571W        W82295  33.611  33.033  11.565
18572W        W82296  15.316  12.695  12.951
18573W        W82297  23.522  12.229  10.617
18574W        W82298  35.556  35.494  11.608
18575W        W82299  12.675   7.685   1.268
18576W        W82300  23.619  26.470   3.280
18577W        W82301  14.666  36.889   3.193
18578W        W82302   5.720  41.398  12.824
18579W        W82303  19.081  16.764  10.585
18580W        W82304   8.841   1.236   4.838
18581W        W82305  29.057  40.834  12.976
18582W        W82306  20.524   7.317   1.794
18583W        W82307   6.862  32.139   2.749
18584W        W82308  24.648  42.497   2.196
18585W        W82309   2.786  28.142   4.603
18586W        W82310  14.256  31.986   2.773
18587W        W82311   6.731   2.791  11.513
18588W        W82312  21.517   3.768   2.893
18589W        W82313   1.364  15.669  10.033
18590W        W82314  22.239  13.657  10.616
18591W        W82315  16.137  29.060   0.750
18592W        W82316  27.449   6.217   4.647
18593W        W82317  29.623   1.410  14.964
18594W        W82318  33.015   8.725  11.862
18595W        W82319  23.995  17.736   2.800
18596W        W82320  34.995  37.496   3.371
18597W        W82321  16.314  38.884  12.340
18598W        W82322  37.561  30.111   1.360
18599W        W82323  43.510  44.372   4.605
18600W        W82324  26.589  26.508   1.725
18601W        W82325  34.551  38.377  10.896
18602W        W82326  43.803  32.936  12.054
18603W        W82327  12.643  34.540  12.844
18604W        W82328   2.814  14.792  10.629
18605W        W82329   8.256  10.161   4.330
18606W        W82330  16.271  11.256  10.429
18607W        W82331  32.051  41.431   1.766
18608W        W82332   8.859  17.757  10.553
18609W        W82333   9.721  12.695   2.419
18610W        W82334  31.013  40.888   1.727
18611W        W82335  43.831  39.517   3.863
18612W        W82336   6.780  32.499  13.438
18613W        W82337  28.011   8.188   1.843
18614W        W82338   7.247  28.642  13.337
18615W        W82339  41.425  11.690   1.294
18616W        W82340  22.164   2.367  13.858
18617W        W82341  24.191  30.145   2.829
18618W        W82342  15.239  13.694  14.443
18619W        W82343  38.882  24.122   4.768
18620W        W82344  38.424  25.080  10.513
18621W        W82345  17.106   8.213   1.405
18622W        W82346  36.365   3.301   4.745
18623W        W82347  23.504   1.324   2.885
18624W        W82348   1.467   0.757   3.254
18625W        W82349  15.747  26.586  11.431
18626W        W82350  19.704  43.450   3.247
18627W        W82351  25.159   2.296   4.774
18628W        W82352   6.362   3.713   0.261
18629W        W82353   7.331  33.021   2.883
18630W        W82354  41.438   6.909  10.976
18631W        W82355  35.576  32.980   4.636
18632W        W82356   0.806  36.026   4.745
18633W        W82357  43.435   8.874   2.861
18634W        W82358  17.574   9.172  12.875
18635W        W82359  39.852  28.533  11.528
18636W        W82360  38.424   9.230   3.770
18637W        W82361  30.982  13.837   5.219
18638W        W82362  23.984   4.241   3.378
18639W        W82363  35.021  44.967   0.751
18640W        W82364  16.804   1.916   3.860
18641W        W82365  41.041  21.090  14.372
18642W        W82366   8.774  32.895   4.626
18643W        W82367  25.536  27.989  10.619
18644W        W82368   5.881   8.223   3.780
18645W        W82369  14.233  10.780  14.790
18646W        W82370   9.284   9.808  10.109
18647W        W82371  11.623  17.773   2.325
18648W        W82372  30.520  33.122  14.008
18649W        W82373  25.031  13.836   0.416
18650W        W82374   4.858  11.792   4.643
18651W        W82375  27.565  23.553  12.455
18652W        W82376   9.175  36.558  13.402
18653W        W82377  32.076   1.261   2.207
18654W        W82378  19.607  38.472  10.950
18655W        W82379  22.010  23.568   1.330
18656W        W82380  42.999  21.583   5.137
18657W        W82381  29.920  16.294   1.855
18658W        W82382  21.216  26.131   0.899
18659W        W82383  12.201  42.362  12.083
18660W        W82384  32.007  12.621   3.291
18661W        W82385  23.071   2.404   4.816
18662W        W82386  33.472  39.834   2.863
18663W        W82387  39.055  17.077   1.394
18664W        W82388   1.742  25.484  12.541
18665W        W82389  33.963  38.527   4.780
18666W        W82390  43.933  25.634   3.826
18667W        W82391  37.923  25.139   5.245
18668W        W82392  16.203  32.134   2.384
18669W        W82393   2.758  42.361   0.261
18670W        W82394  10.372  24.045  10.906
18671W        W82395  27.074   0.932   0.425
18672W        W82396  10.824  11.218  11.931
18673W        W82397   5.696  12.766  13.874
18674W        W82398  27.505   5.404   2.846
18675W        W82399   8.165  38.882   0.757
18676W        W82400  33.996  36.548   0.399
18677W        W82401  25.500  14.678  12.544
18678W        W82402  42.300  25.556  13.017
18679W        W82403  41.970  44.768   3.801
18680W        W82404  36.972   2.755   3.326
18681W        W82405  17.302  21.107   1.249
18682W        W82406   5.725  19.594  11.887
18683W        W82407  29.108  20.208  14.900
18684W        W82408   4.880   1.397  11.440
18685W        W82409  43.955  33.058  13.996
18686W        W82410  35.385   1.905   4.287
18687W        W82411  15.123  29.499  14.414
18688W        W82412   8.242  10.709  13.992
18689W        W82413   7.833  14.594   1.398
18690W        W82414  10.253   8.169   4.279
18691W        W82415   3.942  39.953   4.140
18692W        W82416   7.240  35.970   3.248
18693W        W82417   9.680  34.604  11.424
18694W        W82418  44.888   9.780  13.355
18695W        W82419  11.360  26.543  12.044
18696W        W82420  34.869  34.953   3.764
18697W        W82421  12.157  27.612   4.632
18698W        W82422   7.826  39.314  12.916
18699W        W82423  20.113  35.963   0.792
18700W        W82424  39.527  42.798  13.815
18701W        W82425  12.799   6.813  12.415
18702W        W82426   7.215  44.378   1.345
18703W        W82427  39.399  30.577  12.510
18704W        W82428  27.190  40.988  12.572
18705W        W82429   5.237   1.409  11.449
18706W        W82430  21.646   4.219   4.769
18707W        W82431  20.768  17.134   4.717
18708W        W82432  19.559  41.402   9.920
18709W        W82433  25.563   6.778   1.367
18710W        W82434   4.405  36.922  14.411
18711W        W82435  17.212  40.476   0.964
18712W        W82436  19.624   9.340   1.773
18713W        W82437  30.438  41.929  12.487
18714W        W82438   6.824  26.614  13.488
18715W        W82439  26.654  20.029  11.528
18716W        W82440  28.540   7.204  13.378
18717W        W82441  10.660   6.727   3.333
18718W        W82442  26.670   3.232  13.982
18719W        W82443  12.706  40.021  10.423
18720W        W82444  30.502  35.401   1.872
18721W        W82445  16.217  10.773   4.301
18722W        W82446  44.967  42.376  11.585
18723W        W82447  38.008  31.489   2.750
18724W        W82448  40.485  26.081   2.240
18725W        W82449  41.348  25.652   4.277
18726W        W82450  33.449  29.460   4.116
18727W        W82451  44.950  22.637  12.431
18728W        W82452  42.468  38.008  13.884
18729W        W82453  35.361  33.068  11.946
18730W        W82454  40.480  30.432   2.203
18731W        W82455  33.980  41.801  12.925
18732W        W82456  31.638  18.716  11.474
18733W        W82457  41.017   3.862   0.337
18734W        W82458  15.661   4.843   0.731
18735W        W82459   7.763  11.226  12.824
18736W        W82460  34.601  17.773  12.440
18737W        W82461   2.776  11.352   1.443
18738W        W82462  23.051  31.619   0.903
18739W        W82463   0.251   3.722   0.377
18740W        W82464  27.612  28.978   2.880
18741W        W82465  16.291  29.572   4.728
18742W        W82466  24.050   7.336  12.463
18743W        W82467  44.819   7.869   1.223
18744W        W82468  42.947  33.987   1.885
18745W        W82469  38.013   2.857   4.762
18746W        W82470  42.008  42.432   0.761
18747W        W82471   0.385   2.457   1.925
18748W        W82472  13.212  12.709   1.923
18749W        W82473  22.233   6.204  12.360
18750W        W82474  42.824   6.266  11.584
18751W        W82475  25.079   4.224  13.911
18752W        W82476  35.553  22.743   1.334
18753W        W82477   1.799  41.916  11.581
18754W        W82478  24.169  25.548  10.917
18755W        W82479  37.067   9.796   2.339
18756W        W82480  20.167  10.721  11.395
18757W        W82481  23.696  20.737  14.900
18758W        W82482  34.559   3.455   1.363
18759W        W82483  41.425  41.299   4.135
18760W        W82484  19.064  36.948   2.876
18761W        W82485   7.709  25.182  14.814
18762W        W82486  32.579  42.361  13.471
18763W        W82487  28.995  26.494  14.876
18764W        W82488  40.520  27.507   1.414
18765W        W82489  16.110   2.862   2.289
18766W        W82490  44.945  32.396  10.955
18767W        W82491  36.474   4.868  12.968
18768W        W82492  12.223  10.814   1.885
18769W        W82493  37.453  18.744  13.363
18770W        W82494  22.086  28.048  14.385
18771W        W82495  43.377  31.437   1.736
18772W        W82496   6.757  29.449  10.991
18773W        W82497  37.880  25.645  14.881
18774W        W82498  28.959  36.021   4.290
18775W        W82499   5.690  13.795   9.563
18776W        W82500  40.907  32.477   2.354
18777W        W82501  15.086  28.494   2.273
18778W        W82502  18.659   6.266  13.401
18779W        W82503  29.664  27.638  13.513
18780W        W82504   6.278  32.590  12.480
18781W        W82505   6.230  18.733  13.516
18782W        W82506   8.169  30.110  10.472
18783W        W82507  24.658  18.662  11.534
18784W        W82508   3.882  17.676   3.231
18785W        W82509   7.724  30.971   1.747
18786W        W82510   3.830  41.013   2.225
18787W        W82511  39.958   7.224   1.784
18788W        W82512  39.822   0.955   0.964
18789W        W82513  36.865  34.067  13.455
18790W        W82514  16.670  36.500  14.930
18791W        W82515   0.869   0.333  14.479
18792W        W82516  11.791  32.085   3.643
18793W        W82517  25.967  44.358  11.533
18794W        W82518  25.163  39.333  11.970
18795W        W82519  23.234   4.375  11.052
18796W        W82520   4.210  32.405   2.826
18797W        W82521  14.673   0.470   4.687
18798W        W82522  34.563  17.792  12.831
18799W        W82523  24.133  42.407   4.146
18800W        W82524  19.131  36.051  10.565
18801W        W82525   3.270   7.188   0.350
18802W        W82526  12.352  30.443  12.940
18803W        W82527  24.502  35.395  10.629
18804W        W82528   8.812   3.278   4.329
18805W        W82529  15.583  29.455   0.729
18806W        W82530   6.205   0.467   2.280
18807W        W82531  19.578  16.622   1.248
18808W        W82532  27.944  31.419   4.757
18809W        W82533  31.628  18.290  14.368
18810W        W82534   3.230  12.216   2.836
18811W        W82535  23.550  42.833   4.195
18812W        W82536  19.648  41.887   4.294
18813W        W82537  42.913  25.594   4.130
18814W        W82538  36.095   7.850  10.433
18815W        W82539  38.513  18.140   4.716
18816W        W82540   1.444  17.760   4.618
18817W        W82541  15.190  35.435   3.637
18818W        W82542  29.510  40.374   1.887
18819W        W82543  22.086  19.209  14.771
18820W        W82544  21.096  14.236  13.523
18821W        W82545  35.570   6.747   2.250
18822W        W82546  27.482  19.584   1.830
18823W        W82547  21.147   1.958  11.464
18824W        W82548  44.390  17.748  12.847
18825W        W82549  17.248  24.707   3.378
18826W        W82550  11.295  12.742  12.510
18827W        W82551  11.627   7.908   0.733
18828W        W82552  35.451  18.617  12.029
18829W        W82553  10.214   9.206  14.284
18830W        W82554  14.129   4.404   3.179
18831W        W82555  24.683  12.635  14.835
18832W        W82556   5.221  42.898   3.783
18833W        W82557  40.855  16.650   3.176
18834W        W82558   0.286  17.796   1.832
18835W        W82559   3.949   5.217  13.358
18836W        W82560   7.884  34.083  13.484
18837W        W82561  35.879  38.326   1.393
18838W        W82562  39.917  35.093   3.311
18839W        W82563   8.193  44.985  13.998
18840W        W82564  13.617  36.514   2.882
18841W        W82565   4.283  28.032  13.421
18842W        W82566  27.471  37.083  12.547
18843W        W82567  32.919   7.207   3.663
18844W        W82568   8.784  28.990  13.966
18845W        W82569  36.917  27.970   1.716
18846W        W82570   7.873  11.723   2.404
18847W        W82571  28.148  18.176   2.410
18848W        W82572  37.053  40.505  12.001
18849W        W82573  16.589  10.722   0.445
18850W        W82574  22.712  13.326   1.785
18851W        W82575  40.925   6.283  13.846
18852W        W82576  23.235   4.865   0.964
18853W        W82577  23.190  35.881   1.268
18854W        W82578   9.192  19.767   2.757
18855W        W82579  19.749  17.586   0.453
18856W        W82580  25.587   7.907   4.674
18857W        W82581  34.475   1.295   2.852
18858W        W82582  32.477  33.084   0.244
18859W        W82583   2.782   5.743   3.227
18860W        W82584  21.246  37.402   3.738
18861W        W82585  40.523  32.421  14.917
18862W        W82586  32.989  15.127   2.409
18863W        W82587  14.290  44.927   3.209
18864W        W82588  41.967   6.895  10.942
18865W        W82589  18.269  17.656   3.811
18866W        W82590  44.369  16.287   2.900
18867W        W82591  29.435  38.511   3.279
18868W        W82592  35.375   1.877  10.616
18869W        W82593  38.545   4.798  14.017
18870W        W82594  35.852  19.209  11.564
18871W        W82595  39.525  14.733  11.991
18872W        W82596  13.814  17.754   2.343
18873W        W82597  24.679  42.345   2.752
18874W        W82598  27.460  28.164   2.792
18875W        W82599   4.865  21.678  10.617
18876W        W82600  38.073  42.804  11.518
18877W        W82601  20.572  33.564   3.243
18878W        W82602  32.521  36.081  14.320
18879W        W82603   7.306  20.600   4.296
18880W        W82604  23.121  29.507  12.933
18881W        W82605  44.926  40.479  14.402
18882W        W82606  20.081  23.585   3.663
18883W        W82607  35.572  41.515  11.076
18884W        W82608  43.461  41.516  14.826
18885W        W82609  27.063  17.145  14.335
18886W        W82610   1.919  30.422  14.821
18887W        W82611  42.342  26.085   3.271
18888W        W82612  39.859  43.400  10.504
18889W        W82613   8.372   9.648   2.898
18890W        W82614  34.455  31.497  14.860
18891W        W82615  17.609  44.477   3.806
18892W        W82616  32.928  33.558  10.639
18893W        W82617  39.513  11.369   3.162
18894W        W82618  13.771  21.713  14.004
18895W        W82619   0.396  14.635  11.596
18896W        W82620  35.871  35.398   4.113
18897W        W82621  28.147  18.155   0.928
18898W        W82622   4.764   1.778  13.004
18899W        W82623  44.979  20.138  10.893
18900W        W82624  30.930   4.880   3.200
18901W        W82625  43.470  39.465  14.758
18902W        W82626  24.514  18.655  13.518
18903W        W82627  44.883  17.674  14.445
18904W        W82628   4.214  15.729  11.471
18905W        W82629   0.463   0.743   3.308
18906W        W82630  15.273  16.258   0.729
18907W        W82631  32.022  41.971  11.489
18908W        W82632  43.320   2.428   0.799
18909W        W82633  40.799  24.542  11.992
18910W        W82634  32.511  35.499  11.543
18911W        W82635  35.035  32.078   1.883
18912W        W82636  13.108  20.063  12.920
18913W        W82637  10.664   2.845  11.943
18914W        W82638  35.365  31.539   2.822
18915W        W82639  18.621  14.116   2.409
18916W        W82640  32.432   4.367   0.818
18917W        W82641   5.812   5.304   4.610
18918W        W82642   9.213  16.710  10.553
18919W        W82643  32.628  26.177   4.343
18920W        W82644   1.926   4.805  14.426
18921W        W82645   0.918  13.832   2.385
18922W        W82646  14.725  27.034  10.559
18923W        W82647  24.707  26.024   3.823
18924W        W82648  40.901   3.229   1.423
18925W        W82649  28.483  39.925   4.206
18926W        W82650   4.207   4.870   2.366
18927W        W82651  19.046  23.551  14.001
18928W        W82652  33.567  36.882  10.419
18929W        W82653  14.261  15.100   2.793
18930W        W82654  31.509   7.238  12.508
18931W        W82655  32.986  36.874  11.456
18932W        W82656  28.602  20.042   2.318
18933W        W82657  20.099  41.017   4.838
18934W        W82658  17.664   8.160  14.872
18935W        W82659  35.372   9.247  14.286
18936W        W82660  17.788  28.523  11.383
18937W        W82661   0.895  35.405   0.939
18938W        W82662  12.856  43.397   0.386
18939W        W82663  30.082  31.898   0.368
18940W        W82664  19.235  32.575  10.591
18941W        W82665  37.942  29.506   1.857
18942W        W82666  40.325  18.102  14.302
18943W        W82667  21.103  21.103   4.639
18944W        W82668  26.554  34.485   3.297
18945W        W82669   1.916   7.905   3.792
18946W        W82670   0.956  39.928   4.123
18947W        W82671  29.089  26.167  12.456
18948W        W82672  42.912  39.551   4.652
18949W        W82673   1.795  27.482  14.023
18950W        W82674  42.492  24.576  13.992
18951W        W82675  43.970  24.609   3.346
18952W        W82676  21.164  27.467  12.938
18953W        W82677   8.735  14.755   2.833
18954W        W82678  42.941  21.215  14.804
18955W        W82679  29.983   3.793   4.791
18956W        W82680  35.901  38.979   1.388
18957W        W82681  39.015  15.676   4.707
18958W        W82682  34.514  37.070   2.321
18959W        W82683  29.511  13.688  12.406
18960W        W82684  35.535  28.960   4.618
18961W        W82685  20.757  23.573  11.989
18962W        W82686  15.778  35.065   0.423
18963W        W82687   6.860  18.699  12.343
18964W        W82688  32.550  23.024  13.831
18965W        W82689  44.833  25.072   1.724
18966W        W82690  42.325   6.762  11.009
18967W        W82691  10.781  31.026  12.888
18968W        W82692   0.387  40.493  10.439
18969W        W82693   5.835  20.029   2.241
18970W        W82694  22.661  34.436   4.328
18971W        W82695  13.126  13.760   2.407
18972W        W82696  32.467   9.684   2.875
18973W        W82697  26.463  25.596  13.030
18974W        W82698  14.618  32.106  12.916
18975W        W82699  15.138   1.324   1.252
18976W        W82700  30.488  28.603  12.925
18977W        W82701  26.650  32.140  14.435
18978W        W82702  31.083   1.368  12.879
18979W        W82703  15.657   2.395   4.757
18980W        W82704  13.295   1.408  14.829
18981W        W82705  17.716  25.639  10.982
18982W        W82706  19.272  17.620   2.329
18983W        W82707  39.417  44.903   1.239
18984W        W82708  27.470  43.846   2.260
18985W        W82709  23.586  39.057  13.858
18986W        W82710   4.259   3.285   4.254
18987W        W82711  43.935   9.857  14.873
18988W        W82712  36.007  39.012  13.912
18989W        W82713   1.237   7.698   3.194
18990W        W82714  31.064  41.864  10.558
18991W        W82715   4.758  12.360  13.898
18992W        W82716  19.151  23.008  10.443
18993W        W82717   1.798  41.479  11.856
18994W        W82718  27.593  23.037   2.691
18995W        W82719  33.452  40.374   4.287
18996W        W82720  19.710  24.980  10.908
18997W        W82721  40.302  15.155  12.352
18998W        W82722  35.540   8.329  11.889
18999W        W82723  41.534   6.875   2.768
19000W        W82724  18.104  41.834  14.290
19001W        W82725  17.114  18.551   4.615
19002W        W82726  28.680   4.275   1.370
19003W        W82727  43.992  11.724  11.383
19004W        W82728  40.312  34.406   3.304
19005W        W82729   8.879  32.609   3.353
19006W        W82730  23.665   3.236   5.245
19007W        W82731  22.568  18.684  12.487
19008W        W82732   3.373  18.226  12.879
19009W        W82733  39.902  41.881  14.782
19010W        W82734  35.412  35.440  12.865
19011W        W82735  32.125  16.217  14.344
19012W        W82736  32.013  27.621   1.221
19013W        W82737  43.939  10.220  12.828
19014W        W82738  42.389  26.111  13.006
19015W        W82739   9.829  12.707  14.280
19016W        W82740  16.799  21.729   2.237
19017W        W82741  37.832   3.860   1.340
19018W        W82742  11.171  41.967   3.650
19019W        W82743  43.805  10.781  13.411
19020W        W82744   6.808  38.337   1.803
19021W        W82745  22.164  33.584  12.480
19022W        W82746  42.383  33.527   1.325
19023W        W82747  16.181  27.032  14.009
19024W        W82748  17.254  24.658   4.665
19025W        W82749  40.918  29.120   2.272
19026W        W82750  12.290  16.111   4.329
19027W        W82751  29.616  12.764  10.527
19028W        W82752  18.266  21.749  14.013
19029W        W82753  36.027  41.863   4.263
19030W        W82754  14.313  30.123   0.763
19031W        W82755  15.810   3.772   1.405
19032W        W82756  12.758  18.712  14.345
19033W        W82757  32.123  12.288   0.878
19034W        W82758  25.042  20.096   3.784
19035W        W82759  14.720  36.457   2.851
19036W        W82760  30.950   9.217  10.550
19037W        W82761  16.732  13.189  14.455
19038W        W82762  17.109  41.371   4.259
19039W        W82763  11.188   3.827   1.703
19040W        W82764   2.226  38.424  14.364
19041W        W82765   9.170  19.713  10.980
19042W        W82766  27.172   6.683  11.121
19043W        W82767  14.260  20.047  14.873
19044W        W82768   0.256  42.336  10.409
19045W        W82769  14.297  13.726  12.836
19046W        W82770  40.412  24.589   1.404
19047W        W82771  21.540  20.706   2.267
19048W        W82772   5.877  28.661   4.148
19049W        W82773   1.344  25.112  12.865
19050W        W82774  29.103  38.385   0.318
19051W        W82775  15.657   2.889  10.622
19052W        W82776  34.869  25.192  10.105
19053W        W82777  16.264  17.799  11.923
19054W        W82778   7.882  16.737   4.319
19055W        W82779  30.158  11.755  14.794
19056W        W82780  34.510  24.159  11.527
19057W        W82781  39.444  39.449  14.024
19058W        W82782  38.942   1.904   0.760
19059W        W82783  14.208   4.806  11.106
19060W        W82784  42.844  43.497   4.825
19061W        W82785  43.423  43.331  11.442
19062W        W82786  34.464   9.341   0.945
19063W        W82787  11.693  42.935   5.230
19064W        W82788  39.438  16.085  11.509
19065W        W82789  42.519  23.048   0.960
19066W        W82790   7.815  14.698   2.666
19067W        W82791  37.947   5.383  14.829
19068W        W82792  22.541  43.784   1.414
19069W        W82793  21.052  18.110  14.845
19070W        W82794  19.200   2.471  11.114
19071W        W82795  32.975   0.912   0.312
19072W        W82796   3.461  18.113  10.643
19073W        W82797   6.919  27.197  11.072
19074W        W82798  41.393  11.257  14.023
19075W        W82799   1.414  34.565   3.152
19076W        W82800  42.896   8.766   2.210
19077W        W82801  38.065  14.788  12.456
19078W        W82802  10.332  42.456  13.020
19079W        W82803  31.991  12.213   3.757
19080W        W82804  24.668  26.132   5.160
19081W        W82805  34.927  20.763   3.777
19082W        W82806  39.531   6.844  14.806
19083W        W82807   6.861   1.732  13.804
19084W        W82808   2.904  22.063  10.629
19085W        W82809   1.847  14.671  12.850
19086W        W82810   1.748  25.666  13.469
19087W        W82811  18.051  39.365   4.267
19088W        W82812  40.469  11.790  14.845
19089W        W82813   0.420  30.012   3.313
19090W        W82814   3.408   1.398   1.417
19091W        W82815  15.111   3.334  12.905
19092W        W82816  25.971  37.434   0.483
19093W        W82817  12.117  12.844   0.852
19094W        W82818  35.501  39.997   0.444
19095W        W82819  11.635  28.043  10.440
19096W        W82820   5.271  21.068   0.870
19097W        W82821  35.514  11.248   0.292
19098W        W82822   1.304   9.174   3.277
19099W        W82823  16.705   5.712   5.178
19100W        W82824  14.601  44.261  13.042
19101W        W82825  31.621  10.867  14.821
19102W        W82826   0.914  25.042  10.421
19103W        W82827  11.167  26.190  14.853
19104W        W82828  25.569  44.502  14.933
19105W        W82829  29.097  23.708  12.448
19106W        W82830  24.524   0.826  13.889
19107W        W82831  12.161  20.608  14.363
19108W        W82832  23.163  11.739  14.437
19109W        W82833  23.137  10.350   2.764
19110W        W82834  43.414  21.125  12.851
19111W        W82835   9.223  27.115   1.439
19112W        W82836  23.151  31.530   4.661
19113W        W82837  17.110  44.987  14.476
19114W        W82838   4.849  42.381  10.423
19115W        W82839  28.434  38.003   3.173
19116W        W82840  29.930  27.637   4.133
19117W        W82841  15.302  34.993   1.245
19118W        W82842  19.205  21.127   5.132
19119W        W82843  28.472  34.100  14.420
19120W        W82844  20.153  13.228  12.053
19121W        W82845   3.933  26.693  13.458
19122W        W82846  33.608  40.415  11.023
19123W        W82847  39.878  15.093  10.995
19124W        W82848   4.376  19.558   0.853
19125W        W82849   9.177  18.625   3.788
19126W        W82850   3.806   8.351   1.413
19127W        W82851  29.554   4.242   1.337
19128W        W82852  30.964  12.122   2.760
19129W        W82853  13.778  10.284   2.238
19130W        W82854  24.057  26.036  14.865
19131W        W82855  27.082  23.991   2.192
19132W        W82856  21.246   1.954  12.889
19133W        W82857  42.520  11.841  14.291
19134W        W82858  22.629  27.015   0.252
19135W        W82859   1.390  18.751  13.817
19136W        W82860  43.001  28.616   0.740
19137W        W82861   0.908  40.940  12.405
19138W        W82862  34.996  19.754  13.532
19139W        W82863  22.739   0.935  11.944
19140W        W82864  41.907  15.254   3.840
19141W        W82865  10.172  10.354  14.910
19142W        W82866  29.439   4.895  13.855
19143W        W82867  16.711  12.212   2.250
19144W        W82868   3.359   4.751   0.829
19145W        W82869  10.209   6.324   3.782
19146W        W82870   2.279  32.053   1.226
19147W        W82871  11.287   7.208   4.664
19148W        W82872   3.216  33.525  11.998
19149W        W82873  43.945  16.632   0.350
19150W        W82874  28.179  14.620  12.577
19151W        W82875  38.471   0.308   0.324
19152W        W82876  10.269  42.906   0.426
19153W        W82877  13.170  28.185   1.419
19154W        W82878  12.626  41.013  11.056
19155W        W82879  19.776  31.647   2.771
19156W        W82880  24.623   1.770  10.580
19157W        W82881  36.029  18.202  14.383
19158W        W82882  34.979  14.224   3.776
19159W        W82883  34.464  18.086   4.680
19160W        W82884  38.836  27.480  12.828
19161W        W82885  12.717  27.570   2.250
19162W        W82886  19.218  35.542  12.419
19163W        W82887  20.668  41.395   4.839
19164W        W82888  31.039   7.761   2.760
19165W        W82889  32.561  13.123  10.564
19166W        W82890  32.585  24.198   3.860
19167W        W82891  17.240  33.614  12.003
19168W        W82892  41.323  10.378  13.434
19169W        W82893  13.292  34.372  14.492
19170W        W82894  29.943   2.949  14.926
19171W        W82895  19.220  29.128   4.723
19172W        W82896   1.768  21.251  10.974
19173W        W82897  11.297  38.055  12.077
19174W        W82898  31.012  38.543   4.194
19175W        W82899  37.384  33.929   0.343
19176W        W82900  33.524   6.718   2.740
19177W        W82901  43.433  38.864   1.868
19178W        W82902   1.483  26.957  11.025
19179W        W82903  41.412  15.218   2.403
19180W        W82904  44.964  33.626  13.867
19181W        W82905  27.156  14.741  11.001
19182W        W82906  18.150  23.985  12.850
19183W        W82907  32.944  24.035  10.439
19184W        W82908  39.856  15.813   4.181
19185W        W82909   2.835  35.359   1.755
19186W        W82910  21.144  22.182   0.258
19187W        W82911  22.564  39.471   4.196
19188W        W82912   5.817  33.039  10.573
19189W        W82913  43.296  18.686  12.428
19190W        W82914  30.450   4.802   0.764
19191W        W82915  17.084  40.975  10.543
19192W        W82916  12.213  28.026   3.841
19193W        W82917  12.773  35.860  14.373
19194W        W82918  11.360  20.632  11.112
19195W        W82919  28.943  16.102  11.503
19196W        W82920  37.486  18.199  14.875
19197W        W82921  13.623  44.407   2.764
19198W        W82922  44.385  26.595   0.950
19199W        W82923  29.436  18.706  14.926
19200W        W82924  21.703  39.560   2.731
19201W        W82925   9.198  43.950   3.659
19202W        W82926  11.782   7.170   0.765
19203W        W82927  40.859   5.687   1.218
19204W        W82928  22.520   4.717  13.348
19205W        W82929  25.110  30.007  12.973
19206W        W82930  18.653  28.521   4.734
19207W        W82931  44.401   9.837   2.819
19208W        W82932  22.213  40.837  11.924
19209W        W82933  41.835  44.815  10.894
19210W        W82934  43.768  37.349   0.761
19211W        W82935  11.705  25.110   3.295
19212W        W82936  35.391  19.636  10.991
19213W        W82937  28.496  30.994   3.752
19214W        W82938   4.447   0.455  13.503
19215W        W82939  30.437  22.544   1.253
19216W        W82940  11.209  26.124  13.861
19217W        W82941  12.246  30.494   3.295
19218W        W82942  18.767  12.736   4.264
19219W        W82943  10.303  18.737   3.793
19220W        W82944   9.704   7.706   2.868
19221W        W82945  44.463  29.159  10.969
19222W        W82946  18.575  25.560  13.800
19223W        W82947  31.993  29.528   0.957
19224W        W82948  25.077  22.110  13.343
19225W        W82949  38.005  43.432  14.280
19226W        W82950  21.595   9.153  12.974
19227W        W82951  42.781  11.140  11.467
19228W        W82952  44.480  24.046   2.364
19229W        W82953  36.381  34.121  10.926
19230W        W82954  30.128  22.561   0.865
19231W        W82955   0.450   9.869   3.229
19232W        W82956  21.198  39.917   3.272
19233W        W82957   9.870  10.173  13.925
19234W        W82958  12.314  11.224  14.799
19235W        W82959  35.919   1.850  11.582
19236W        W82960  32.621  13.135   3.358
19237W        W82961   3.310  40.313  10.412
19238W        W82962  38.442  11.722   3.270
19239W        W82963   1.734  29.941   3.254
19240W        W82964  13.165  32.407   4.310
19241W        W82965  28.532   1.289   0.250
19242W        W82966  41.518  11.129  14.497
19243W        W82967  34.525  28.578  12.465
19244W        W82968  24.698   8.194  13.014
19245W        W82969  24.686  33.611   2.791
19246W        W82970   3.440  37.521  11.606
19247W        W82971  22.218   2.898  14.023
19248W        W82972  31.601  25.526   0.284
19249W        W82973  38.820   6.333  13.873
19250W        W82974   6.268   9.250   4.292
19251W        W82975   6.318  17.125  13.893
19252W        W82976   1.899  28.028   4.670
19253W        W82977  33.589  44.784  14.790
19254W        W82978  25.083  34.434  10.614
19255W        W82979  34.451  16.192  10.095
19256W        W82980   6.834  18.747   3.273
19257W        W82981  32.050  14.599  14.864
19258W        W82982  17.215  34.935  11.509
19259W        W82983   8.854  21.721  11.471
19260W        W82984  15.676   7.362  14.333
19261W        W82985  36.395  42.353  14.319
19262W        W82986  38.979  16.774  11.541
19263W        W82987  12.328  11.865  13.998
19264W        W82988  43.016  18.292   1.814
19265W        W82989  13.841   8.761  14.479
19266W        W82990  15.627  21.736   2.228
19267W        W82991  39.004  43.876  10.129
19268W        W82992  39.441  25.096   2.370
19269W        W82993  31.898  43.794  13.898
19270W        W82994   1.824  29.007  13.543
19271W        W82995  32.088  32.557   1.250
19272W        W82996  17.632   6.852   9.632
19273W        W82997  33.493  36.436   1.781
19274W        W82998  35.966  42.472   3.698
19275W        W82999  36.573   0.926  13.904
19276W        W83000  10.857  38.466   2.272
19277W        W83001  23.009  41.336   0.741
19278W        W83002  39.894  38.977   1.287
19279W        W83003  20.045  44.483   1.442
19280W        W83004  42.953   1.467  10.970
19281W        W83005  43.004   7.845  11.484
19282W        W83006   1.883  31.520   3.194
19283W        W83007  41.501  27.968   3.193
19284W        W83008   8.711  17.798   3.856
19285W        W83009  30.505  43.276   4.176
19286W        W83010  32.486  10.362   9.936
19287W        W83011  26.671   9.888   1.706
19288W        W83012  35.095  29.120   4.814
19289W        W83013   5.370  29.057  10.545
19290W        W83014   8.751   1.941  12.570
19291W        W83015  25.628  21.209   1.290
19292W        W83016   1.922  19.241  10.995
19293W        W83017  34.914  40.329  11.032
19294W        W83018  27.626  14.798   4.174
19295W        W83019   1.924  43.859  10.503
19296W        W83020  43.927  24.128   4.745
19297W        W83021  17.777  29.078  12.033
19298W        W83022  28.483  32.517   1.251
19299W        W83023  11.342  15.659   4.235
19300W        W83024  24.511  38.874  11.879
19301W        W83025  33.382  35.565  10.543
19302W        W83026  34.924  36.437   1.907
19303W        W83027   4.922  12.797   4.631
19304W        W83028  30.156  39.935   2.399
19305W        W83029  24.029  17.672   2.255
19306W        W83030   8.846  26.562   4.621
19307W        W83031  15.320  17.640   3.234
19308W        W83032  36.541   4.260  12.059
19309W        W83033  19.158  18.113  12.846
19310W        W83034  24.541  30.078  12.996
19311W        W83035  15.596  33.522   0.473
19312W        W83036  39.948  16.088  13.923
19313W        W83037  44.876  38.003   3.327
19314W        W83038  35.442  23.551   4.713
19315W        W83039  23.636  39.329  12.493
19316W        W83040  35.405  12.169  12.395
19317W        W83041  21.584  15.682  13.508
19318W        W83042  11.277  33.916  11.572
19319W        W83043  19.779  14.759   1.241
19320W        W83044  40.035  14.184  11.442
19321W        W83045  34.051   5.850   2.301
19322W        W83046   7.711  21.724  11.037
19323W        W83047  35.555   2.827   1.273
19324W        W83048  40.427   8.803  14.904
19325W        W83049  38.508   9.328   0.357
19326W        W83050  14.219  42.991  11.019
19327W        W83051   4.416  15.678   3.237
19328W        W83052  24.635   9.834   2.901
19329W        W83053  31.537  37.980   0.440
19330W        W83054   2.358  37.541  11.067
19331W        W83055  18.123  27.455  12.841
19332W        W83056   7.381  12.245   0.253
19333W        W83057  11.220  42.818  12.420
19334W        W83058  41.992  39.515  11.045
19335W        W83059  34.085  35.589  13.846
19336W        W83060  38.381  23.056   3.213
19337W        W83061  39.929   3.395  11.548
19338W        W83062  22.574   8.223  12.894
19339W        W83063  34.892  20.729   1.301
19340W        W83064  44.929  24.561   3.720
19341W        W83065  16.609  15.646  14.880
19342W        W83066   3.856  31.646  12.021
19343W        W83067   4.312  31.433  12.859
19344W        W83068  31.080   4.736   5.234
19345W        W83069  22.110  33.032   4.812
19346W        W83070  42.413  40.987  13.512
19347W        W83071  19.084  40.876   0.349
19348W        W83072  10.632  42.782   5.310
19349W        W83073  22.036  29.532   2.825
19350W        W83074   8.173   5.241   3.254
19351W        W83075   4.738  33.113  10.147
19352W        W83076  13.156   3.396   3.387
19353W        W83077   8.826  33.978   4.725
19354W        W83078  10.823   6.423   4.124
19355W        W83079  44.498   7.281   3.779
19356W        W83080  31.093  24.559  11.384
19357W        W83081  32.448  42.438  11.528
19358W        W83082  13.666   2.398   1.704
19359W        W83083  39.056  31.483   2.190
19360W        W83084   3.871  36.929  13.034
19361W        W83085  18.222  42.858  12.016
19362W        W83086  12.274  36.951   2.888
19363W        W83087  34.875  10.153   0.273
19364W        W83088  27.644   5.311  12.031
19365W        W83089  17.588   1.440   4.229
19366W        W83090  14.202  31.917  11.945
19367W        W83091  15.262   6.883   4.756
19368W        W83092   7.286  16.708   1.757
19369W        W83093  20.256  34.082   4.742
19370W        W83094  39.835  10.219   4.311
19371W        W83095   4.317   9.722  12.880
19372W        W83096  22.590   9.381  11.940
19373W        W83097   3.221  37.387  11.048
19374W        W83098   6.303  29.433  12.991
19375W        W83099  28.013  31.097   1.381
19376W        W83100  37.367   1.753   1.414
19377W        W83101  30.495  17.633   0.920
19378W        W83102  21.257  21.719  10.551
19379W        W83103  20.255  37.907  10.406
19380W        W83104   6.329   0.302  14.500
19381W        W83105  43.884  33.106  11.441
19382W        W83106  26.567  27.146   0.311
19383W        W83107   4.415  39.869   2.300
19384W        W83108  32.602  31.973  13.793
19385W        W83109  39.374   5.343  13.470
19386W        W83110  21.556  39.820  14.451
19387W        W83111  39.997  39.451  12.898
19388W        W83112  38.498   7.276  12.545
19389W        W83113  15.582  16.103  12.525
19390W        W83114   0.343  26.088  11.108
19391W        W83115  38.406   6.860  14.020
19392W        W83116   6.270  44.325   3.660
19393W        W83117  40.881  12.747  10.502
19394W        W83118  38.061  13.220   3.838
19395W        W83119  13.787   0.779   3.314
19396W        W83120  13.260  35.472   1.428
19397W        W83121  34.427  19.240   3.304
19398W        W83122  41.410  29.980  10.432
19399W        W83123  19.067  10.325   2.682
19400W        W83124   2.314   7.234  14.370
19401W        W83125   9.173   1.758   0.817
19402W        W83126  15.171  33.099   4.136
19403W        W83127  41.919   0.389  12.888
19404W        W83128  44.942  39.553  12.064
19405W        W83129  12.667   6.769  10.594
19406W        W83130  13.247   6.823   3.317
19407W        W83131  25.056  32.106  11.024
19408W        W83132  34.578  31.153   4.777
19409W        W83133  28.001  35.445   4.791
19410W        W83134  10.766  14.591   0.792
19411W        W83135   3.305   1.974   3.704
19412W        W83136  10.179  18.573  12.873
19413W        W83137  27.078  23.078  14.765
19414W        W83138   6.726  37.440   4.618
19415W        W83139  35.389  32.591   4.150
19416W        W83140  38.428  30.419  12.412
19417W        W83141  30.486   8.665  10.925
19418W        W83142  12.318  43.462  12.920
19419W        W83143  26.960  37.964  14.857
19420W        W83144  19.569  38.349   1.781
19421W        W83145  28.038  32.590   4.751
19422W        W83146  22.525  16.167  13.316
19423W        W83147  16.612   6.837   4.737
19424W        W83148  39.513  41.429  12.901
19425W        W83149   1.864  33.998  11.039
19426W        W83150  36.445   9.647  14.801
19427W        W83151   9.864  13.680   4.618
19428W        W83152  42.453  26.167  10.542
19429W        W83153   3.737  29.469  11.549
19430W        W83154  13.761  37.537   4.710
19431W        W83155  13.210  28.557   1.733
19432W        W83156  16.786  27.043  12.412
19433W        W83157  10.212  33.526   4.656
19434W        W83158  30.009  43.818   2.340
19435W        W83159   5.900  14.188   4.277
19436W        W83160   4.377  18.079  13.929
19437W        W83161  16.674  34.001  12.891
19438W        W83162  29.056  25.666   1.696
19439W        W83163  22.096  16.724   0.299
19440W        W83164  43.424   3.384   2.866
19441W        W83165  31.052  36.573  11.975
19442W        W83166  30.933   6.258   3.214
19443W        W83167   5.723   5.832  13.886
19444W        W83168  34.493  35.909   3.157
19445W        W83169  28.955  11.715  13.959
19446W        W83170  39.390  29.524   0.774
19447W        W83171  34.462  35.982  13.519
19448W        W83172  23.581   5.435  12.015
19449W        W83173  25.470  16.642   0.856
19450W        W83174   2.458  38.564  12.039
19451W        W83175  12.354  21.120  11.521
19452W        W83176  13.114   3.871   3.282
19453W        W83177   4.373   5.295  13.885
19454W        W83178  38.899  24.659   3.332
19455W        W83179   8.234  28.949  14.494
19456W        W83180   8.658  30.521   1.237
19457W        W83181   3.432  19.688  10.553
19458W        W83182  37.916  38.364  11.097
19459W        W83183  42.970   8.360  11.889
19460W        W83184  21.521  40.963  14.442
19461W        W83185  34.379  38.876   4.760
19462W        W83186  37.379  44.897   0.244
19463W        W83187  11.829  37.967   0.251
19464W        W83188  10.746   5.779  13.793
19465W        W83189   3.282  39.915   3.386
19466W        W83190  34.957  15.787   2.703
19467W        W83191  15.304   0.813  14.808
19468W        W83192   9.193  19.071   0.816
19469W        W83193   7.771  22.675   3.283
19470W        W83194  40.849  33.025   1.435
19471W        W83195  25.616   4.407  13.821
19472W        W83196  27.540  41.033   0.304
19473W        W83197   9.298  42.878  14.464
19474W        W83198  34.538   5.874  12.977
19475W        W83199  22.591  25.037  14.408
19476W        W83200  42.823  36.510   3.731
19477W        W83201  15.156   1.850  13.368
19478W        W83202  24.196  22.118  13.018
19479W        W83203   3.282  43.463   1.299
19480W        W83204  29.490   4.856  14.293
19481W        W83205  38.369   4.326   3.721
19482W        W83206  22.502   5.712  13.389
19483W        W83207  33.493  36.436  14.382
19484W        W83208  29.472   7.700   2.276
19485W        W83209  18.228  25.025  12.369
19486W        W83210  27.542  22.024   2.756
19487W        W83211  40.429  38.557   1.398
19488W        W83212   2.842  39.440  10.600
19489W        W83213  26.651  41.423  14.338
19490W        W83214   8.276  36.414   4.708
19491W        W83215  29.471  12.759   3.364
19492W        W83216  13.184   3.860  13.052
19493W        W83217  15.585  24.017  11.499
19494W        W83218  34.027  41.869   4.187
19495W        W83219  31.005  17.090  13.816
19496W        W83220  43.888  10.331   1.268
19497W        W83221  40.982  32.135   1.446
19498W        W83222  44.963  18.751  11.394
19499W        W83223  29.017   2.728  12.011
19500W        W83224  11.771  29.549  13.469
19501W        W83225  32.504   9.192   2.273
19502W        W83226  25.677   7.751   2.843
19503W        W83227  14.604  17.276  10.013
19504W        W83228  39.344  25.207  10.528
19505W        W83229  19.730   5.254  14.017
19506W        W83230   0.934  37.453  13.004
19507W        W83231  16.801  38.451   4.354
19508W        W83232  38.984   4.206  14.370
19509W        W83233  27.490  30.085   1.260
19510W        W83234  36.095  11.849  14.340
19511W        W83235  23.714   8.723   3.645
19512W        W83236  26.536  14.678  10.636
19513W        W83237  41.832  11.262  10.519
19514W        W83238  24.684  40.487   5.297
19515W        W83239  28.977  20.537  14.828
19516W        W83240  36.383  31.941   0.728
19517W        W83241  35.973   0.819  10.435
19518W        W83242  10.300  26.087   1.280
19519W        W83243  34.929   2.873  11.105
19520W        W83244  17.695  14.150   4.643
19521W        W83245  23.172  42.401   2.720
19522W        W83246  18.789   5.335  12.364
19523W        W83247   6.213  44.399   3.245
19524W        W83248  36.527  30.448   0.821
19525W        W83249  20.595  11.201  11.459
19526W        W83250  23.034  30.535   0.790
19527W        W83251  44.803   9.716   4.722
19528W        W83252  33.547  37.524  14.505
19529W        W83253  22.131   7.715   1.837
19530W        W83254  21.079   2.902  14.403
19531W        W83255  17.754  40.011   4.803
19532W        W83256   3.332  12.340   1.298
19533W        W83257  27.130   4.709   4.167
19534W        W83258  14.699  40.837  12.880
19535W        W83259   6.749   3.875  13.841
19536W        W83260  36.562  23.022   2.668
19537W        W83261  25.538   9.823   0.428
19538W        W83262  14.143   0.415   2.809
19539W        W83263  28.113  28.659   2.349
19540W        W83264  12.685  25.567   3.183
19541W        W83265  33.932  34.879   4.331
19542W        W83266  32.634   3.279  10.473
19543W        W83267  20.585  24.076   3.230
19544W        W83268  35.481  17.657   1.424
19545W        W83269  33.381   4.248   4.724
19546W        W83270  20.662  29.478   3.352
19547W        W83271  44.500   5.260  12.479
19548W        W83272  41.930   7.667   3.768
19549W        W83273  14.645  14.691   0.824
19550W        W83274  42.918  38.843  12.466
19551W        W83275   2.860  44.755  14.370
19552W        W83276  44.299  39.436   0.965
19553W        W83277  39.946   4.399   0.791
19554W        W83278  10.665   8.345   2.852
19555W        W83279  25.116  36.527  14.882
19556W        W83280  26.671   9.342  11.578
19557W        W83281  34.870  19.573  10.603
19558W        W83282  36.854  16.659  11.393
19559W        W83283  37.356  40.370   4.173
19560W        W83284  43.387  39.942   3.833
19561W        W83285  29.507  42.814   3.738
19562W        W83286   3.808  15.610  14.886
19563W        W83287  44.283  13.635  11.501
19564W        W83288   9.734  29.115  14.913
19565W        W83289  18.722  41.853   1.763
19566W        W83290  41.996  37.856   0.788
19567W        W83291  31.405  16.143  10.978
19568W        W83292  29.504  21.522  14.943
19569W        W83293  15.759  20.188   1.872
19570W        W83294   4.398  34.031   3.850
19571W        W83295  30.952  19.590  11.513
19572W        W83296  43.491  41.317  11.606
19573W        W83297   8.303   1.847   2.776
19574W        W83298  18.670  35.058  10.454
19575W        W83299  17.563  32.585   2.293
19576W        W83300   1.330  32.025  11.039
19577W        W83301   4.938  33.999  10.533
19578W        W83302  35.400  16.676   4.144
19579W        W83303  22.076  15.226  12.929
19580W        W83304  27.194   0.438   3.301
19581W        W83305   4.836  40.369   3.256
19582W        W83306  38.908  21.193  14.835
19583W        W83307  31.520  28.126  13.028
19584W        W83308  44.331  33.882  13.952
19585W        W83309  38.504  39.986  10.940
19586W        W83310  30.587   9.244  11.600
19587W        W83311  38.345  12.132  13.995
19588W        W83312  28.530  16.594   2.871
19589W        W83313   3.736  23.079   4.735
19590W        W83314   0.273  37.554   4.183
19591W        W83315   6.888  20.626  12.871
19592W        W83316  15.125   0.873   2.292
19593W        W83317   7.828   8.875   5.178
19594W        W83318  14.614  20.561  11.526
19595W        W83319  32.903  33.935   1.740
19596W        W83320  13.179  23.539  12.431
19597W        W83321  37.038   0.934  11.882
19598W        W83322   2.958   3.887  12.829
19599W        W83323  24.229  20.722   4.692
19600W        W83324  29.050  16.174   0.965
19601W        W83325   1.824  29.645   1.435
19602W        W83326  23.012  12.267   1.733
19603W        W83327  23.669  27.114  13.490
19604W        W83328  14.217  28.110  12.914
19605W        W83329  25.174  15.686  14.844
19606W        W83330  16.245  27.015  12.426
19607W        W83331  29.642  19.568  14.464
19608W        W83332  33.454  39.321   3.716
19609W        W83333  28.957  28.580  11.100
19610W        W83334  26.595   2.840   4.250
19611W        W83335   9.758  14.721  11.119
19612W        W83336  42.858  21.622  12.950
19613W        W83337  41.911  10.281   1.305
19614W        W83338  21.224   0.489  11.956
19615W        W83339  22.581  19.569  10.015
19616W        W83340   8.212  41.967  11.030
19617W        W83341  29.471   9.245   4.700
19618W        W83342  41.467  28.158   1.919
19619W        W83343  27.167  18.604   9.932
19620W        W83344  22.105  27.119  10.446
19621W        W83345  33.381  36.892   1.844
19622W        W83346  25.694  13.608   2.204
19623W        W83347  35.599  25.123  11.493
19624W        W83348  24.655  44.447  14.803
19625W        W83349  21.126  39.435   1.272
19626W        W83350   6.920  33.504  10.589
19627W        W83351   6.770  34.587   4.154
19628W        W83352  27.680  28.468   1.409
19629W        W83353  30.582   0.743   0.912
19630W        W83354  31.510  18.629   3.669
19631W        W83355  13.134  35.005  10.645
19632W        W83356  14.257   0.323  11.070
19633W        W83357   1.371  35.939   2.242
19634W        W83358   6.319  15.809  11.059
19635W        W83359  14.746  16.097  14.920
19636W        W83360  22.652  36.889  13.009
19637W        W83361  26.628  38.964  14.430
19638W        W83362  20.222  24.596  14.375
19639W        W83363  33.899   5.250  13.528
19640W        W83364  19.548   1.901  12.867
19641W        W83365  14.130  13.346   0.862
19642W        W83366  12.823  44.965   1.224
19643W        W83367   7.715  15.228  10.506
19644W        W83368  11.227   7.685   2.245
19645W        W83369  39.891  13.337   2.290
19646W        W83370  30.643  20.239  10.589
19647W        W83371  12.645   0.427  12.417
19648W        W83372  32.945   4.718   2.269
19649W        W83373  29.103  21.062  12.872
19650W        W83374  21.130  42.321   3.168
19651W        W83375  40.859   7.763  14.891
19652W        W83376  24.053  14.807   2.820
19653W        W83377  31.596  35.451   1.857
19654W        W83378  39.902  18.635  13.426
19655W        W83379  12.172  35.071   2.875
19656W        W83380  24.023  23.496   3.302
19657W        W83381  27.013  36.894   3.768
19658W        W83382  11.815  31.153  11.084
19659W        W83383  36.085  35.483  12.025
19660W        W83384  13.208  16.276  11.020
19661W        W83385  16.086  42.441   1.313
19662W        W83386  22.189  19.061   1.881
19663W        W83387  23.986   8.347   3.348
19664W        W83388  36.923  27.997  11.532
19665W        W83389  41.848  31.473  14.853
19666W        W83390   5.763   0.759   0.895
19667W        W83391  29.111  31.604   4.808
19668W        W83392  36.403  11.732  11.547
19669W        W83393  31.970  43.782   0.930
19670W        W83394  27.688  15.202  11.060
19671W        W83395   6.893   3.373   0.382
19672W        W83396  13.728   9.726   2.180
19673W        W83397  35.481  31.108   3.787
19674W        W83398  11.632  20.589  13.480
19675W        W83399  38.935  44.862   0.815
19676W        W83400  32.625  11.741   1.812
19677W        W83401  27.047  37.944  10.974
19678W        W83402   5.692  20.523   2.315
19679W        W83403  20.136  26.578   2.214
19680W        W83404  14.596   4.256  14.769
19681W        W83405  27.629  26.202  11.044
19682W        W83406   5.419  12.811   3.728
19683W        W83407  26.204   9.647   0.275
19684W        W83408  41.400  30.970   0.751
19685W        W83409  11.356  36.061  13.973
19686W        W83410  15.256  14.311  14.503
19687W        W83411  41.467  18.607  10.897
19688W        W83412  15.160  35.049  11.115
19689W        W83413   2.285  33.917   1.224
19690W        W83414  25.553  22.586  12.043
19691W        W83415  36.948  26.975   1.444
19692W        W83416  22.189  43.836  12.990
19693W        W83417  37.563  22.134  14.280
19694W        W83418   4.328  40.045   3.161
19695W        W83419  16.304   5.754   2.738
19696W        W83420   6.744  14.624  10.486
19697W        W83421   1.883  27.617  13.515
19698W        W83422  39.375  41.465  14.402
19699W        W83423  40.458  40.878   0.270
19700W        W83424  30.040  21.677   1.785
19701W        W83425   1.366   2.311   4.663
19702W        W83426  20.574  34.485   3.669
19703W        W83427  24.213  16.264   2.323
19704W        W83428  25.508  13.634   2.880
19705W        W83429  25.477  12.277  10.910
19706W        W83430  10.343  34.003   4.608
19707W        W83431   0.348   0.808  10.551
19708W        W83432   6.323  32.437   2.323
19709W        W83433  22.545  23.089   0.479
19710W        W83434  28.026  27.162  12.464
19711W        W83435   2.795  28.479  11.002
19712W        W83436   2.290   9.165  12.058
19713W        W83437  23.668  39.503   2.728
19714W        W83438   6.298  30.521  13.849
19715W        W83439  37.427   6.415  11.580
19716W        W83440  41.376   1.429   0.419
19717W        W83441   6.219  41.847  11.469
19718W        W83442  37.999  44.768   0.398
19719W        W83443   3.372  33.432   3.259
19720W        W83444  40.529  10.275   5.242
19721W        W83445  18.730  31.946   1.225
19722W        W83446   2.334  25.189   4.316
19723W        W83447   1.782  24.576  13.326
19724W        W83448   4.932  10.362   5.153
19725W        W83449  42.363  11.711   4.241
19726W        W83450   4.424  18.578  13.804
19727W        W83451  20.618  28.438  13.845
19728W        W83452  10.638  14.261   5.226
19729W        W83453  28.043  23.702  13.962
19730W        W83454   5.335   5.376   4.604
19731W        W83455   4.437  18.242  10.580
19732W        W83456   6.215  40.007  14.790
19733W        W83457   1.249  44.843  12.906
19734W        W83458  13.108  21.659   2.389
19735W        W83459   7.696  10.373   1.887
19736W        W83460   6.204   3.804   1.793
19737W        W83461  17.769   3.324   3.857
19738W        W83462  43.423  23.571   9.616
19739W        W83463   2.237  18.732   3.158
19740W        W83464  24.562   2.930   0.403
19741W        W83465  38.447  36.048   1.808
19742W        W83466  18.146  23.064  13.480
19743W        W83467   4.836  30.460   0.287
19744W        W83468  38.953   9.321   3.722
19745W        W83469  32.128  23.082  13.539
19746W        W83470  19.140  17.646  10.640
19747W        W83471  28.093  29.468   9.933
19748W        W83472  33.999   8.760   4.612
19749W        W83473  16.299  42.282   0.851
19750W        W83474  26.495   3.924  13.921
19751W        W83475  26.057  23.034  12.550
19752W        W83476  19.654   1.922  11.000
19753W        W83477  43.418  14.145   3.325
19754W        W83478  29.131  24.007  14.283
19755W        W83479  37.471  20.768  10.891
19756W        W83480  20.651   8.391  14.788
19757W        W83481   4.774   1.926   2.241
19758W        W83482  27.587  41.499   3.813
19759W        W83483  20.153  15.612   2.238
19760W        W83484  21.099  20.140  14.885
19761W        W83485  44.344   2.734   2.862
19762W        W83486  14.301  22.223   0.272
19763W        W83487  16.098  12.321   3.746
19764W        W83488   7.300  13.142   0.248
19765W        W83489  26.607  21.524  13.375
19766W        W83490  25.969  14.629  13.351
19767W        W83491   5.881  38.960  11.436
19768W        W83492  10.190  36.072  12.868
19769W        W83493  31.501  41.358   0.381
19770W        W83494  30.586  40.901  13.007
19771W        W83495  28.106  42.021   4.181
19772W        W83496  20.269  38.024  14.445
19773W        W83497   4.402  41.491   1.365
19774W        W83498  24.495   3.935  13.320
19775W        W83499  40.367  40.477  13.802
19776W        W83500   4.801   1.272   3.332
19777W        W83501  17.683   6.425  12.442
19778W        W83502   6.715  23.688   1.321
19779W        W83503  22.183  34.970  12.993
19780W        W83504  22.155  21.160  13.500
19781W        W83505  38.571  32.137  11.071
19782W        W83506   9.678  29.453   4.743
19783W        W83507  30.934   2.765   3.825
19784W        W83508   9.754   1.313  14.329
19785W        W83509  26.640   9.264  12.957
19786W        W83510  36.431  20.209   1.819
19787W        W83511  35.402  15.206   9.616
19788W        W83512  10.210  43.993  14.919
19789W        W83513   7.340  20.068   3.670
19790W        W83514  24.119  43.303   0.786
19791W        W83515  22.548   2.231  11.913
19792W        W83516  31.051   0.951  10.588
19793W        W83517  25.695  41.818   0.811
19794W        W83518  20.147  32.594  14.963
19795W        W83519   2.753  29.112   3.756
19796W        W83520   5.799  15.798  12.447
19797W        W83521  29.540  13.821   3.180
19798W        W83522  32.525  21.739   1.331
19799W        W83523  29.441   1.339   3.751
19800W        W83524  37.448  44.772   1.833
19801W        W83525  10.195  36.468  11.927
19802W        W83526  28.536  32.576  11.101
19803W        W83527  35.858  25.654   4.822
19804W        W83528  42.427  38.541   9.932
19805W        W83529  24.191  14.251  13.332
19806W        W83530  26.557  35.056  13.029
19807W        W83531   1.927   0.263  12.388
19808W        W83532  30.116  29.455  12.000
19809W        W83533  15.241  40.409  12.575
19810W        W83534  27.476  38.479  14.445
19811W        W83535   6.770  37.501  10.074
19812W        W83536  24.211  23.565  12.034
19813W        W83537   9.256  44.451   1.435
19814W        W83538  18.084  12.265  13.001
19815W        W83539  21.654  26.499  12.392
19816W        W83540   3.866  34.036   3.172
19817W        W83541   2.746  42.854  14.794
19818W        W83542   8.805  40.926  14.363
19819W        W83543  31.986   4.788  12.469
19820W        W83544  33.096  29.018  14.831
19821W        W83545  11.642  28.526   3.250
19822W        W83546  29.604  33.011  10.543
19823W        W83547  10.668  44.755  14.377
19824W        W83548   1.895  11.860  12.465
19825W        W83549  33.464  30.126   2.194
19826W        W83550   4.292  23.155   1.806
19827W        W83551  19.696  37.994  13.896
19828W        W83552  30.499  13.336   0.747
19829W        W83553  29.520  39.509   4.226
19830W        W83554  26.992  17.184  10.516
19831W        W83555   9.343  32.627  14.947
19832W        W83556  11.131  33.956   0.242
19833W        W83557  12.248  34.863   4.746
19834W        W83558   8.871   7.815  11.894
19835W        W83559  32.446   4.794   3.184
19836W        W83560  43.837  33.041   2.419
19837W        W83561  38.565  16.267  10.508
19838W        W83562  37.055  31.103  12.889
19839W        W83563   7.385   1.349  11.053
19840W        W83564  21.022   2.381  11.404
19841W        W83565  29.138  13.755  11.953
19842W        W83566  32.487   8.689   5.156
19843W        W83567  15.230   5.800  12.073
19844W        W83568  14.149  34.965   5.322
19845W        W83569   3.377  28.066  13.038
19846W        W83570   6.848   4.350  11.861
19847W        W83571   9.149  32.490  12.017
19848W        W83572  31.507  27.974  14.283
19849W        W83573  43.895  44.323   1.878
19850W        W83574  42.877  29.538  10.504
19851W        W83575   4.701  20.219   4.326
19852W        W83576  24.666  30.643  12.911
19853W        W83577  35.498  30.919  12.394
19854W        W83578  28.153  19.240  13.334
19855W        W83579  13.711  32.922  12.468
19856W        W83580   1.462  36.510  12.403
19857W        W83581   6.798  36.050  14.804
19858W        W83582   9.195  33.503  13.790
19859W        W83583   8.244  34.372  12.859
19860W        W83584   6.189  38.052   4.670
19861W        W83585  39.058  37.351   3.313
19862W        W83586   5.197  34.035   3.666
19863W        W83587  40.359   3.863  14.759
19864W        W83588  20.102  32.620  11.413
19865W        W83589  14.618   9.280   4.834
19866W        W83590  34.972  29.106   1.297
19867W        W83591  42.480  28.125  11.005
19868W        W83592  22.584  31.439   5.243
19869W        W83593  24.178  18.766  14.410
19870W        W83594  29.427  16.184  14.337
19871W        W83595  33.518  30.462   2.744
19872W        W83596  39.816  29.095   0.431
19873W        W83597  30.926  18.629  14.936
19874W        W83598  12.180  41.370   1.429
19875W        W83599  40.798  29.668   2.398
19876W        W83600  16.643   7.785  14.941
19877W        W83601  15.116  33.891  13.522
19878W        W83602  16.763  20.759  14.487
19879W        W83603  16.218  12.219  10.465
19880W        W83604  40.049  31.037  11.503
19881W        W83605  36.902   9.681   2.737
19882W        W83606  33.516  22.086   4.220
19883W        W83607  38.526  28.455   2.324
19884W        W83608  17.208  43.430   3.843
19885W        W83609  41.525   4.301   3.265
19886W        W83610  12.671   3.855  14.764
19887W        W83611  43.797  39.005  10.468
19888W        W83612  11.362  39.412  14.805
19889W        W83613   9.363  18.195  10.587
19890W        W83614   9.705  20.171  11.006
19891W        W83615  12.160  30.490  10.560
19892W        W83616  26.070   5.766  12.343
19893W        W83617  44.888  11.147   3.260
19894W        W83618  18.731  42.791   4.680
19895W        W83619  44.421   1.821  12.410
19896W        W83620  38.500  42.963   3.780
19897W        W83621   4.733  17.787   0.278
19898W        W83622  14.751   5.692  14.301
19899W        W83623   9.788  20.686   4.597
19900W        W83624  21.043  26.558   5.160
19901W        W83625  36.537  30.414   4.271
19902W        W83626  20.748  42.445   3.658
19903W        W83627   5.272  11.767   2.190
19904W        W83628   0.776  14.768  14.445
19905W        W83629   8.308  11.635  14.488
19906W        W83630  33.922  10.235   1.442
19907W        W83631  18.698  36.846   0.457
19908W        W83632   4.445  17.684  13.018
19909W        W83633   4.763  32.611   3.246
19910W        W83634  42.297  24.679   9.965
19911W        W83635  42.291  40.797   0.456
19912W        W83636  31.093  32.414  14.831
19913W        W83637  28.183  15.674  13.428
19914W        W83638  40.843  16.189  11.482
19915W        W83639  12.204  13.138  12.375
19916W        W83640  11.809  30.125   0.391
19917W        W83641  32.896   1.943  13.963
19918W        W83642  24.497  32.425   5.203
19919W        W83643  10.183  35.373   1.312
19920W        W83644  43.894  40.000   0.877
19921W        W83645  31.587  19.599   1.411
19922W        W83646  15.324  41.500   0.780
19923W        W83647  17.202  41.851   0.770
19924W        W83648  21.720   2.446  13.539
19925W        W83649  29.624   2.322  14.459
19926W        W83650   7.234  17.146  11.564
19927W        W83651   7.380  24.002   1.381
19928W        W83652  19.262  32.515   3.188
19929W        W83653  43.340  31.956  10.583
19930W        W83654  25.119  23.172   4.255
19931W        W83655  14.592  44.963   1.894
19932W        W83656  34.508   1.400  12.529
19933W        W83657  40.840  30.517  12.477
19934W        W83658  12.143  16.131  14.376
19935W        W83659  22.728  30.033  13.840
19936W        W83660  22.564   0.842  14.370
19937W        W83661  28.072  43.984   2.363
19938W        W83662  24.133  38.477  10.006
19939W        W83663   5.417  10.716   0.873
19940W        W83664  12.236  38.537  13.057
19941W        W83665  13.112  38.005   2.729
19942W        W83666   7.673  38.010  10.974
19943W        W83667  18.747  10.814   2.256
19944W        W83668  36.449  12.649  12.347
19945W        W83669  13.704  44.783   2.869
19946W        W83670  40.004  35.901  14.803
19947W        W83671  23.585  20.203   2.800
19948W        W83672  11.682  40.482   2.829
19949W        W83673  30.520  40.036   0.295
19950W        W83674  39.886   4.342   4.197
19951W        W83675  39.883  14.286   3.786
19952W        W83676   3.780  23.562   4.673
19953W        W83677  18.137  36.037   4.204
19954W        W83678  26.480  19.251   0.452
19955W        W83679   5.279  40.362  10.419
19956W        W83680  33.488   9.387   0.942
19957W        W83681  11.267  20.731  11.570
19958W        W83682  28.125  31.902  13.501
19959W        W83683   8.364  35.991  13.798
19960W        W83684  20.544  13.145  11.932
19961W        W83685  16.098  31.588  13.934
19962W        W83686   4.388  23.617   2.691
19963W        W83687   1.737  26.166   1.421
19964W        W83688   8.393  34.997  11.466
19965W        W83689  24.557  10.647  14.447
19966W        W83690   7.309  39.883   1.370
19967W        W83691  19.139  13.645  11.005
19968W        W83692  13.154   2.420   4.274
19969W        W83693  11.246  22.694  14.312
19970W        W83694  11.839  26.574   1.408
19971W        W83695  37.021   9.786   4.644
19972W        W83696  14.185  18.187  11.555
19973W        W83697  10.210  28.029   3.778
19974W        W83698  35.363  10.715   3.685
19975W        W83699  23.533   0.338   0.376
19976W        W83700  10.138  13.233   5.308
19977W        W83701  23.191  26.472   0.435
19978W        W83702  33.424  31.069   4.188
19979W        W83703  17.740   3.350   1.295
19980W        W83704  20.045  30.947   2.376
19981W        W83705   8.284  14.594  14.402
19982W        W83706  33.897  34.437   1.226
19983W        W83707  26.023  34.084   2.724
19984W        W83708  23.199   2.786  13.370
19985W        W83709  26.644  39.836   1.890
19986W        W83710  43.771  20.659  13.349
19987W        W83711  43.317  44.840  14.425
19988W        W83712   2.899  16.158   4.734
19989W        W83713  36.861  19.603  11.612
19990W        W83714   6.753  20.585   2.302
19991W        W83715  30.093   7.725  10.126
19992W        W83716  24.533  36.918  14.903
19993W        W83717  11.281  32.916  11.447
19994W        W83718  24.032  43.839   0.735
19995W        W83719  24.073  13.256   0.912
19996W        W83720  14.800   2.293  12.011
19997W        W83721  29.964  44.268  13.325
19998W        W83722  12.842  22.997  10.486
19999W        W83723   2.893   2.793  12.898
20000W        W83724  22.189  26.016  13.941
20001W        W83725  22.555  15.295  12.430
20002W        W83726  27.642  26.634  13.961
20003W        W83727  13.165   4.763  14.864
20004W        W83728  14.274  40.922  13.796
20005W        W83729  33.035   0.785  13.996
20006W        W83730  33.444  37.408   3.196
20007W        W83731   2.308   2.790   2.261
20008W        W83732  42.927  37.554  11.923
20009W        W83733  28.965   8.668  14.977
20010W        W83734  34.469  38.468   3.336
20011W        W83735  12.719  14.099   0.442
20012W        W83736   6.715  28.575   4.690
20013W        W83737  15.716  38.071   3.760
20014W        W83738  27.650  31.912   2.693
20015W        W83739   8.839  17.079  11.001
20016W        W83740  25.095  44.829  11.064
20017W        W83741  43.927  20.169  14.998
20018W        W83742   4.242   0.342   4.612
20019W        W83743  31.447  12.648   4.122
20020W        W83744  29.558  27.171   3.789
20021W        W83745  35.464  44.373  13.050
20022W        W83746  14.096  31.060  13.797
20023W        W83747   1.317  12.836  10.429
20024W        W83748  39.326  24.597  14.303
20025W        W83749  42.395  20.232   4.780
20026W        W83750  39.844  36.857   0.314
20027W        W83751   8.762   9.848   0.479
20028W        W83752  16.132  16.181   0.453
20029W        W83753  22.577  21.731   4.187
20030W        W83754  38.042  25.610  11.423
20031W        W83755  22.573   6.331  12.374
20032W        W83756  29.156  38.548   2.189
20033W        W83757  20.599  13.702   1.329
20034W        W83758  40.455  37.394   0.457
20035W        W83759   9.765  15.772   1.913
20036W        W83760  41.950   1.466  10.997
20037W        W83761   1.933  18.638  11.107
20038W        W83762   1.961   0.396  11.897
20039W        W83763  14.287  38.949  10.490
20040W        W83764  19.235  30.154   1.283
20041W        W83765   3.348  34.379   3.683
20042W        W83766  41.813  26.504  13.390
20043W        W83767  43.346   8.194   0.462
20044W        W83768  31.451   0.320  14.396
20045W        W83769   6.191   2.889  11.567
20046W        W83770  44.372  22.219   4.305
20047W        W83771  26.206  32.982   1.315
20048W        W83772   3.749  27.177   4.671
20049W        W83773  43.296  23.673  13.435
20050W        W83774   2.228  44.500  11.571
20051W        W83775  37.488   9.862  12.439
20052W        W83776  18.651   3.243  12.503
20053W        W83777  12.160  10.345  14.856
20054W        W83778  34.908   5.385   1.293
20055W        W83779  21.254  16.598   1.215
20056W        W83780  19.153  30.609  14.352
20057W        W83781  14.628  12.213  11.098
20058W        W83782  39.922  31.595   1.282
20059W        W83783   7.911  16.275   4.342
20060W        W83784  36.486  19.708  13.053
20061W        W83785  35.922  19.556   4.120
20062W        W83786  14.141   4.441   2.317
20063W        W83787  37.339  31.002   4.644
20064W        W83788  15.263  39.835  11.550
20065W        W83789  17.077  39.514   2.855
20066W        W83790   1.360  17.078   1.908
20067W        W83791  18.729   2.422  14.480
20068W        W83792  24.534  22.163  11.952
20069W        W83793  28.966  36.454  14.278
20070W        W83794  23.592  11.290  14.485
20071W        W83795  32.504  19.739   4.163
20072W        W83796  42.832  21.259   3.278
20073W        W83797   1.260  12.329  13.482
20074W        W83798  13.604   8.733  10.525
20075W        W83799  14.262   7.772  13.322
20076W        W83800  44.271  34.904  13.421
20077W        W83801   0.292  27.668  13.834
20078W        W83802  21.250  26.642   2.763
20079W        W83803  32.889  38.380  10.441
20080W        W83804  43.941  15.799   2.372
20081W        W83805  35.443  30.943   0.344
20082W        W83806   5.862  39.436   3.677
20083W        W83807  20.151   0.301  11.597
20084W        W83808  28.536  37.031   4.211
20085W        W83809  17.292  10.193   5.291
20086W        W83810  43.798   1.926  12.991
20087W        W83811  22.057  43.451   2.725
20088W        W83812   1.885   2.396   3.250
20089W        W83813  12.787  40.033  11.931
20090W        W83814  24.565  19.560   0.409
20091W        W83815   6.782  44.963   1.450
20092W        W83816  44.948  10.195   1.871
20093W        W83817   9.790  42.800   4.209
20094W        W83818  43.388  12.787   0.886
20095W        W83819  34.921   7.730   0.740
20096W        W83820  23.133  28.943  14.506
20097W        W83821  28.100  21.559   9.937
20098W        W83822  13.228  20.592  11.889
20099W        W83823  36.962   5.216   1.255
20100W        W83824  31.153   8.347  14.881
20101W        W83825   3.917  28.064  13.808
20102W        W83826  33.499  18.071  11.471
20103W        W83827  43.902  41.480  11.057
20104W        W83828   0.812   0.821   4.654
20105W        W83829  23.496  31.558   4.266
20106W        W83830  23.231  29.615  11.871
20107W        W83831  18.167  43.005  11.478
20108W        W83832  25.107   7.900   0.814
20109W        W83833  10.731  18.235   0.885
20110W        W83834  26.052  19.681  13.876
20111W        W83835   2.778  11.342  13.312
20112W        W83836   0.755  30.470  12.958
20113W        W83837   5.890  39.482  11.061
20114W        W83838  35.032  40.460  10.428
20115W        W83839  14.605  19.579   2.389
20116W        W83840  14.114  32.452   0.347
20117W        W83841  40.396  20.706   2.762
20118W        W83842  40.819  37.893   0.918
20119W        W83843  43.326  40.004  14.839
20120W        W83844  34.068  29.146  12.500
20121W        W83845  27.664  44.792  14.794
20122W        W83846  38.499  44.774   1.239
20123W        W83847  21.721  14.815   0.268
20124W        W83848  37.505  34.495   3.260
20125W        W83849  18.226  35.062   1.824
20126W        W83850   8.162   3.248   2.871
20127W        W83851  44.952  42.954   3.281
20128W        W83852  32.394   6.319  14.412
20129W        W83853  41.384   0.416  13.037
20130W        W83854  42.499  35.020   1.715
20131W        W83855  26.471  17.718  12.079
20132W        W83856   9.209  34.955  12.550
20133W        W83857  33.940  25.705   3.706
20134W        W83858  32.437  23.526   1.398
20135W        W83859  12.352  40.330  11.094
20136W        W83860   2.896   5.327   1.842
20137W        W83861   3.291  37.007   1.885
20138W        W83862  37.916  32.630  10.607
20139W        W83863  34.480   2.393   1.763
20140W        W83864  12.726  19.197  10.946
20141W        W83865   3.289  37.887  10.586
20142W        W83866  41.848  23.155  14.887
20143W        W83867  28.567   3.240  13.350
20144W        W83868  41.932  21.151   5.083
20145W        W83869  40.308   7.746   3.732
20146W        W83870   3.884  37.004   2.692
20147W        W83871   1.260   7.696  11.518
20148W        W83872  40.333   7.183   3.335
20149W        W83873   4.260  25.471  14.850
20150W        W83874  34.097  18.576  12.086
20151W        W83875  41.533  11.216  12.560
20152W        W83876  28.125   7.870   5.220
20153W        W83877  41.376  35.381   3.244
20154W        W83878  22.506   6.364   3.634
20155W        W83879  14.665  37.955  10.620
20156W        W83880  32.910  13.723   1.245
20157W        W83881   6.704  15.142  10.446
20158W        W83882  15.204  17.583  11.072
20159W        W83883  28.591  30.058  12.454
20160W        W83884   9.365  32.403  13.518
20161W        W83885  23.719   5.292  14.840
20162W        W83886  42.330  15.227  11.004
20163W        W83887  32.432  31.932   0.802
20164W        W83888  15.677   0.792  12.837
20165W        W83889  27.557  15.240  14.371
20166W        W83890  26.586   0.402   9.946
20167W        W83891  14.721   6.356  11.871
20168W        W83892   0.443  32.027   1.314
20169W        W83893  41.038  24.629   4.218
20170W        W83894  38.074  30.930  10.966
20171W        W83895  21.676  16.763   3.346
20172W        W83896  31.900  36.560   4.686
20173W        W83897  43.307  34.940   1.910
20174W        W83898   4.329   7.254  13.947
20175W        W83899   0.831  11.673  11.085
20176W        W83900  24.505  11.227  12.411
20177W        W83901  28.502   7.873  11.547
20178W        W83902  35.056  25.538   3.754
20179W        W83903  42.014  42.294  12.426
20180W        W83904  21.191  20.671   0.292
20181W        W83905  36.482  24.143  13.060
20182W        W83906   7.798  17.656   1.780
20183W        W83907  34.469   0.270   3.267
20184W        W83908  11.150  34.957   3.658
20185W        W83909   6.427   3.943   1.319
20186W        W83910  35.540   3.218   1.733
20187W        W83911  42.832  27.106   2.802
20188W        W83912  16.647  33.966   1.402
20189W        W83913  12.672   0.459   2.354
20190W        W83914  13.632  39.035  14.936
20191W        W83915  43.997   1.779   0.791
20192W        W83916   5.931  34.566  14.351
20193W        W83917  28.068  32.945   2.390
20194W        W83918  24.199  31.044   1.349
20195W        W83919  31.569  31.542  14.469
20196W        W83920  33.548  37.359   1.750
20197W        W83921  26.134   2.442  13.893
20198W        W83922  29.174  24.666  13.467
20199W        W83923   9.768  27.124   3.368
20200W        W83924  18.651  40.004   2.677
20201W        W83925  34.071  31.589   0.256
20202W        W83926   2.785  23.214  11.442
20203W        W83927   6.820  23.500  10.463
20204W        W83928  28.184  29.162  11.440
20205W        W83929  30.934   6.311  11.568
20206W        W83930  28.599   9.286   4.238
20207W        W83931  29.979  32.614  12.989
20208W        W83932  14.736  14.189   1.715
20209W        W83933  22.622  26.970   3.752
20210W        W83934  10.762  38.881   2.223
20211W        W83935  15.113   1.969   2.367
20212W        W83936   7.811  34.526   2.212
20213W        W83937   4.770  15.185  10.053
20214W        W83938  13.296   5.720  10.536
20215W        W83939  30.638  39.014  12.090
20216W        W83940  19.156   1.810  14.423
20217W        W83941  24.705  19.075  13.999
20218W        W83942  18.101  36.438  10.561
20219W        W83943  13.717   9.235  12.415
20220W        W83944  38.878  17.228  10.578
20221W        W83945  12.284   4.828   0.328
20222W        W83946   5.196  42.395  14.340
20223W        W83947   5.226  14.241  14.408
20224W        W83948  44.774  15.275  14.962
20225W        W83949  37.013  17.801   1.804
20226W        W83950  26.657  40.886   2.284
20227W        W83951  22.588  27.061  11.968
20228W        W83952  12.732   0.814   0.331
20229W        W83953  30.925  30.143   1.774
20230W        W83954   2.863   4.887   1.272
20231W        W83955  25.599   3.857  11.879
20232W        W83956  17.698   8.845  12.959
20233W        W83957  16.633  36.849   3.635
20234W        W83958  34.400  39.393  10.481
20235W        W83959  16.231  17.235   2.349
20236W        W83960  10.814   9.789   1.869
20237W        W83961   0.817   5.218   2.217
20238W        W83962  14.276  23.705   3.843
20239W        W83963  29.511  39.378  10.991
20240W        W83964   5.364  39.957  13.825
20241W        W83965  23.583  35.028  12.552
20242W        W83966  42.496   2.842  11.987
20243W        W83967   3.757  19.648   1.861
20244W        W83968  42.472   4.333  11.558
20245W        W83969  23.566  18.154   3.673
20246W        W83970  42.486  12.809   2.746
20247W        W83971  10.317  29.949  12.491
20248W        W83972  39.475  30.420  10.493
20249W        W83973  24.157   6.735  11.911
20250W        W83974  27.660   7.673   3.836
20251W        W83975  31.909  28.986   0.422
20252W        W83976   7.252  28.567  14.003
20253W        W83977  34.917  17.098  12.518
20254W        W83978  10.335   5.805  10.013
20255W        W83979   4.838   4.404   4.742
20256W        W83980  18.593   8.174   1.215
20257W        W83981  44.863  41.839   1.853
20258W        W83982  32.076  31.517  10.946
20259W        W83983   0.299   9.767   0.257
20260W        W83984  14.684  36.501   4.825
20261W        W83985  16.650  10.234   1.443
20262W        W83986  33.605  40.997   3.346
20263W        W83987  24.664  29.569  12.351
20264W        W83988  15.200  29.057   3.261
20265W        W83989  42.435  40.051  13.805
20266W        W83990  24.094  35.926   0.905
20267W        W83991  28.533  10.228  14.495
20268W        W83992  32.929   8.259   3.767
20269W        W83993  30.951  10.172   1.935
20270W        W83994  26.184  24.135  11.504
20271W        W83995   8.302   8.792  14.439
20272W        W83996  34.034  29.959   4.249
20273W        W83997  41.395   7.280  14.920
20274W        W83998   7.733  23.525  12.030
20275W        W83999   0.850   1.891   0.827
20276W        W84000  32.894  38.981   3.342
20277W        W84001  39.530  11.358   0.851
20278W        W84002   4.324  34.906  11.588
20279W        W84003  34.498  26.508  10.499
20280W        W84004  30.531  18.070   1.424
20281W        W84005  31.586  28.534  12.447
20282W        W84006  33.942  31.629   4.764
20283W        W84007  33.082   3.815   4.631
20284W        W84008  26.050  27.646   2.394
20285W        W84009  41.369  32.108   0.822
20286W        W84010  33.025  44.441  12.910
20287W        W84011  19.696  28.473   2.696
20288W        W84012  35.437   3.294  11.409
20289W        W84013   3.330  18.748  13.015
20290W        W84014  43.470   7.353   2.740
20291W        W84015   4.800  14.221  14.924
20292W        W84016  41.314   9.356  13.831
20293W        W84017  16.101  22.713   2.364
20294W        W84018  10.372  10.645  10.160
20295W        W84019  33.062  27.472   3.185
20296W        W84020  29.162  23.212  11.570
20297W        W84021   1.457   1.956  14.828
20298W        W84022  21.179  43.284  13.037
20299W        W84023  31.541  28.094   3.843
20300W        W84024  10.351  41.802  12.554
20301W        W84025  26.503  40.892  13.914
20302W        W84026  37.871  19.534  13.398
20303W        W84027  38.028   6.688  14.378
20304W        W84028  34.012  17.768  11.019
20305W        W84029  25.470  43.925   4.196
20306W        W84030   5.295  24.067  13.931
20307W        W84031  13.790  24.592   4.738
20308W        W84032  36.961  11.158  14.298
20309W        W84033  26.956  38.923  14.925
20310W        W84034  39.994  27.149   1.755
20311W        W84035  44.773  18.168  14.402
20312W        W84036   4.357  39.880   1.309
20313W        W84037  24.576   1.924   3.689
20314W        W84038  17.106   1.277   2.671
20315W        W84039   8.900   5.746   4.620
20316W        W84040  14.792  27.582  14.494
20317W        W84041  33.049  19.237   4.142
20318W        W84042  31.534  42.449   2.814
20319W        W84043  26.542  13.293  13.543
20320W        W84044  30.457  22.068   2.406
20321W        W84045   5.725   7.884   2.350
20322W        W84046  39.065  29.471  10.483
20323W        W84047  44.776  37.486   3.368
20324W        W84048  33.583  19.177   1.764
20325W        W84049  24.717  31.501   1.424
20326W        W84050  31.086  31.026  11.535
20327W        W84051  29.978   0.854  14.768
20328W        W84052  41.907   8.855  14.831
20329W        W84053  24.716  17.149  12.045
20330W        W84054   2.390   4.745   0.733
20331W        W84055  14.173  39.988  14.973
20332W        W84056  26.595  20.592  14.482
20333W        W84057  31.537  18.196  10.538
20334W        W84058  16.311   2.455  14.763
20335W        W84059   3.391  15.228   0.816
20336W        W84060  32.477  43.949  10.578
20337W        W84061  18.591   6.782   1.241
20338W        W84062  35.412  43.928   2.789
20339W        W84063  37.015  24.480   4.796
20340W        W84064   1.781  10.318   3.634
20341W        W84065   1.418  19.199   3.819
20342W        W84066  18.647  12.711  13.056
20343W        W84067  13.190  26.097  10.904
20344W        W84068  24.511  25.576  11.572
20345W        W84069  35.362   3.902   0.305
20346W        W84070  12.648  26.546   4.724
20347W        W84071   2.941  23.095  10.899
20348W        W84072  44.928  17.308   0.832
20349W        W84073  44.303  39.425  14.994
20350W        W84074  28.151   6.277   0.370
20351W        W84075  36.380  12.784   4.814
20352W        W84076  11.665  11.633  13.530
20353W        W84077  43.835  27.510   4.727
20354W        W84078   6.216  13.272  13.875
20355W        W84079  42.436  32.528   2.813
20356W        W84080  40.320  13.170  13.519
20357W        W84081  42.874  32.450  14.442
20358W        W84082   9.880  27.460   2.752
20359W        W84083  15.730   8.766   4.666
20360W        W84084  23.537   3.296   0.439
20361W        W84085   5.377  16.247  13.418
20362W        W84086  27.607  34.875  13.451
20363W        W84087  33.404   5.306  10.505
20364W        W84088  41.466  10.155  14.005
20365W        W84089  31.599  20.057  11.871
20366W        W84090   1.743   2.806   3.741
20367W        W84091  38.496  16.606  10.614
20368W        W84092  27.471   5.438   0.453
20369W        W84093  42.925  33.909  11.515
20370W        W84094  44.436  34.042  11.108
20371W        W84095  38.934  29.656   3.867
20372W        W84096  22.104  26.562  13.815
20373W        W84097  10.707  43.994   1.720
20374W        W84098  28.537  39.498   3.308
20375W        W84099  13.671  28.667  14.311
20376W        W84100  36.068   0.420   1.402
20377W        W84101   9.344  24.217   4.644
20378W        W84102   6.796  26.658   0.424
20379W        W84103  34.469  16.239  12.024
20380W        W84104  25.708  44.318  14.390
20381W        W84105  27.522  17.114  11.991
20382W        W84106  27.661  27.127  14.420
20383W        W84107  44.298   5.933  12.990
20384W        W84108  34.549   5.262  11.611
20385W        W84109  18.157  31.438   2.324
20386W        W84110   8.897  41.821   4.325
20387W        W84111   8.887   1.794   2.303
20388W        W84112   2.770  27.561   1.764
20389W        W84113  32.486  23.555  13.035
20390W        W84114  34.888  36.097   4.158
20391W        W84115  33.932  15.103   4.210
20392W        W84116  34.906  25.142  11.527
20393W        W84117  28.119  39.978   1.826
20394W        W84118  35.908  25.520  12.041
20395W        W84119  34.916  41.334   3.806
20396W        W84120  35.522  34.529   0.247
20397W        W84121  37.398  16.083  11.418
20398W        W84122   4.415  43.934   4.602
20399W        W84123  30.483  12.269   0.431
20400W        W84124  36.392  39.384   3.667
20401W        W84125  34.533  20.231   2.410
20402W        W84126  27.053  35.010  12.571
20403W        W84127  34.539  35.515   0.321
20404W        W84128  19.670  24.658  11.609
20405W        W84129  28.514  28.082   4.316
20406W        W84130  32.116  22.617   2.819
20407W        W84131  37.892  10.655   2.708
20408W        W84132  39.323  26.676  12.363
20409W        W84133  28.634  40.323   3.693
20410W        W84134  32.026  18.218   4.619
20411W        W84135  44.886  19.744  13.309
20412W        W84136  25.177  37.028   1.397
20413W        W84137  22.076  39.961  13.986
20414W        W84138  20.217   9.716  11.001
20415W        W84139  17.147   3.406  12.056
20416W        W84140   6.300  22.644  14.966
20417W        W84141   0.467  18.096   3.289
20418W        W84142  13.145  30.450  13.344
20419W        W84143   7.685   1.282  10.947
20420W        W84144  20.561  13.839   2.892
20421W        W84145  20.691  26.474   4.793
20422W        W84146  30.020  27.020   3.344
20423W        W84147   0.810  39.360  13.386
20424W        W84148  24.502  11.133  13.931
20425W        W84149  31.023  16.756   1.245
20426W        W84150  31.605   9.270   0.866
20427W        W84151   1.936   1.381   4.716
20428W        W84152  40.005  17.079   4.810
20429W        W84153   8.164  11.164   4.306
20430W        W84154  25.197  40.480   1.227
20431W        W84155  11.761  35.437   4.756
20432W        W84156  22.713  26.132   2.689
20433W        W84157  29.620  20.665   0.369
20434W        W84158  16.633  15.581   3.385
20435W        W84159  18.051   8.826   3.151
20436W        W84160  32.458  27.560  11.918
20437W        W84161   6.810  10.228  11.112
20438W        W84162  32.572  14.318  12.060
20439W        W84163  25.173  28.637   0.373
20440W        W84164  28.084  26.144   2.736
20441W        W84165  29.624  34.445   3.304
20442W        W84166  16.800   7.782  13.323
20443W        W84167   2.802  18.108   3.168
20444W        W84168   9.314  34.602  11.402
20445W        W84169  25.480  18.119   1.411
20446W        W84170   7.857  15.125   0.923
20447W        W84171  27.652  15.245   0.251
20448W        W84172  42.464   4.736   1.278
20449W        W84173  22.239  25.600  12.020
20450W        W84174  31.001  30.163   3.642
20451W        W84175  34.502  20.638  10.582
20452W        W84176  23.605  30.109   3.771
20453W        W84177  25.114  43.938  14.369
20454W        W84178   6.322  26.051  11.570
20455W        W84179  38.477  24.711   5.320
20456W        W84180  26.045  32.067  12.900
20457W        W84181   8.815  31.928   1.292
20458W        W84182  17.105  27.125   4.145
20459W        W84183  17.288  43.904  12.379
20460W        W84184  28.118  19.065  13.017
20461W        W84185   5.700  39.875   0.906
20462W        W84186  43.951  39.039  11.471
20463W        W84187  20.616  10.660   4.320
20464W        W84188   6.761  18.246   2.828
20465W        W84189  41.430  27.961   1.240
20466W        W84190  31.946  25.010  11.549
20467W        W84191  25.180  23.082  13.871
20468W        W84192  35.429  16.204   3.655
20469W        W84193  23.146   5.401   4.147
20470W        W84194  30.002   0.309  11.541
20471W        W84195  13.647  26.651   2.246
20472W        W84196   0.939  17.646   1.860
20473W        W84197   4.355  22.160   3.832
20474W        W84198  20.138  35.909  10.518
20475W        W84199  20.224  10.775   4.742
20476W        W84200  12.201  13.216   0.326
20477W        W84201   8.889  32.082   4.760
20478W        W84202  35.447  38.419   1.449
20479W        W84203  43.863  22.036   5.758
20480W        W84204  41.788  40.939  13.401
20481W        W84205  38.020   3.343   0.768
20482W        W84206  21.685  43.389   3.328
20483W        W84207  12.791  43.367   3.848
20484W        W84208   4.889  38.343   2.414
20485W        W84209  23.991  20.681  13.821
20486W        W84210  10.700  30.659   3.285
20487W        W84211  32.627  17.583   1.430
20488W        W84212   4.342  36.960  14.869
20489W        W84213  28.036  41.838   4.665
20490W        W84214  36.582  42.813   0.284
20491W        W84215  42.500  39.912   0.756
20492W        W84216  18.563  24.692  13.855
20493W        W84217   3.394  19.552   3.328
20494W        W84218  30.985   8.297   4.148
20495W        W84219  38.347  38.547  13.913
20496W        W84220  31.422   3.799  13.372
20497W        W84221   9.730  21.116   1.226
20498W        W84222  12.648  23.083  11.512
20499W        W84223  44.935   2.935   2.736
20500W        W84224   4.714  15.109  11.490
20501W        W84225  22.597   4.400   2.270
20502W        W84226  22.072   0.270   0.396
20503W        W84227  29.070   9.296  12.913
20504W        W84228  11.368  35.032   0.851
20505W        W84229  12.162  24.515   2.362
20506W        W84230  39.381   0.820  14.391
20507W        W84231   1.784  42.521  13.531
20508W        W84232  16.779   6.266   0.303
20509W        W84233   6.333  27.591   0.789
20510W        W84234  10.178  14.794  10.633
20511W        W84235  32.023  42.822  12.070
20512W        W84236  16.247  32.636  10.942
20513W        W84237  44.362  28.978  13.310
20514W        W84238  16.144  35.856   1.416
20515W        W84239  15.701  28.644   3.304
20516W        W84240  17.619  43.384  14.282
20517W        W84241  13.619  37.008  13.325
20518W        W84242  17.154  22.744  10.514
20519W        W84243  35.886   4.765  11.106
20520W        W84244  11.648  23.223   2.824
20521W        W84245  42.993  22.125  11.537
20522W        W84246  28.654  25.125  14.502
20523W        W84247   6.814  31.527   2.701
20524W        W84248  11.340   8.872   3.350
20525W        W84249  33.621  29.588  12.959
20526W        W84250  16.283  22.711   1.803
20527W        W84251   6.229  40.321  10.990
20528W        W84252  15.087  23.033   4.653
20529W        W84253  35.440  26.672   4.206
20530W        W84254  14.311   3.942  10.462
20531W        W84255  11.292  38.443   4.124
20532W        W84256  13.663  10.653   1.362
20533W        W84257  41.868  21.109   9.572
20534W        W84258  41.378  29.444   4.316
20535W        W84259  16.617  28.975   1.791
20536W        W84260  36.504  26.483   9.947
20537W        W84261  23.498  19.180  12.828
20538W        W84262  29.000  32.400  11.435
20539W        W84263  22.570  26.006  10.982
20540W        W84264  34.542  15.666   3.382
20541W        W84265  28.605   7.855  14.995
20542W        W84266   8.199  34.981   1.896
20543W        W84267  44.419  16.208  11.876
20544W        W84268  11.186  18.148   2.765
20545W        W84269  40.402  33.996   0.795
20546W        W84270  38.942  16.079   4.621
20547W        W84271  18.152   5.929  13.792
20548W        W84272   4.284  26.627   2.682
20549W        W84273   3.229  23.036   1.789
20550W        W84274  32.020  21.208  12.446
20551W        W84275  18.210   3.833   3.815
20552W        W84276   7.261  22.064   2.222
20553W        W84277  42.346  22.554  14.799
20554W        W84278  31.104  37.394  14.873
20555W        W84279  30.502  18.218  12.416
20556W        W84280   7.289  28.957  12.981
20557W        W84281  18.252  18.083   4.130
20558W        W84282  32.618  43.378  13.965
20559W        W84283  11.811  18.641  12.346
20560W        W84284  24.033  18.253   1.751
20561W        W84285  13.739  31.973   3.762
20562W        W84286  23.716  13.325  11.099
20563W        W84287  44.330   9.825  11.093
20564W        W84288   8.844  15.612   1.423
20565W        W84289  25.109  39.559  11.517
20566W        W84290  41.890  37.512  11.395
20567W        W84291  34.535  15.252   2.691
20568W        W84292  29.647  32.107   1.364
20569W        W84293  39.472  42.487  12.392
20570W        W84294  27.952  18.177  14.763
20571W        W84295  43.980  32.485   0.262
20572W        W84296   4.290  34.867   3.352
20573W        W84297  37.909  20.074   3.783
20574W        W84298   6.311  41.383   3.822
20575W        W84299   6.196  38.013   3.633
20576W        W84300  44.344  40.342   4.282
20577W        W84301   5.729   8.856  12.028
20578W        W84302  30.150  16.272   2.865
20579W        W84303  44.355  16.716  13.961
20580W        W84304  31.948  42.319  14.963
20581W        W84305  18.639  16.222   2.242
20582W        W84306  21.567  33.981  11.438
20583W        W84307  27.137  22.117  14.018
20584W        W84308  15.596  16.131   0.890
20585W        W84309  41.926  16.186   1.310
20586W        W84310  31.500  32.115  14.771
20587W        W84311  24.641  41.803   1.709
20588W        W84312  24.552  32.043  12.353
20589W        W84313  29.662  44.358  10.059
20590W        W84314  10.151   3.378   1.399
20591W        W84315  35.569  30.983  10.903
20592W        W84316  22.134  20.590  14.794
20593W        W84317  10.747  38.455   0.352
20594W        W84318  31.619  38.887   4.147
20595W        W84319   0.779  16.305   1.371
20596W        W84320  21.223  16.102   1.871
20597W        W84321  33.951  37.487   0.424
20598W        W84322  43.016  37.962  14.414
20599W        W84323  36.438  39.489  11.540
20600W        W84324  36.440  36.578   1.336
20601W        W84325  10.803  28.112  12.411
20602W        W84326  15.733  21.571  13.333
20603W        W84327  37.385  39.469   3.775
20604W        W84328  11.263  13.313   1.891
20605W        W84329   6.406  44.302  12.892
20606W        W84330  27.131  13.664  11.472
20607W        W84331  38.888   6.306   4.115
20608W        W84332   7.214  16.618   4.603
20609W        W84333  19.091  26.964   4.762
20610W        W84334  12.327  12.352  13.052
20611W        W84335   0.938  44.330   4.117
20612W        W84336   2.748  24.987  11.603
20613W        W84337  19.623  39.814  12.965
20614W        W84338  34.606  34.430  13.062
20615W        W84339  10.371  27.048  14.832
20616W        W84340   1.737  15.270  12.892
20617W        W84341  30.633  16.791  13.884
20618W        W84342   3.953  24.068  12.084
20619W        W84343  28.583  19.550  10.494
20620W        W84344  22.662  17.076   0.881
20621W        W84345  40.961  12.269  10.499
20622W        W84346  31.941  29.013   2.670
20623W        W84347  40.853  38.412  12.972
20624W        W84348  27.161  40.444  14.317
20625W        W84349  30.974   2.232   4.314
20626W        W84350  13.322   0.853   3.698
20627W        W84351  21.049  19.065  10.620
20628W        W84352  25.977  30.119   0.333
20629W        W84353  32.521   8.838  14.763
20630W        W84354  21.150  38.486   0.883
20631W        W84355  18.605  41.876  13.391
20632W        W84356  27.948  10.226   4.669
20633W        W84357  32.394  31.902   1.761
20634W        W84358  40.369   2.744  11.553
20635W        W84359  38.854   1.348   4.711
20636W        W84360  25.064   1.880   4.155
20637W        W84361  29.936  32.049  14.379
20638W        W84362  34.978  37.453   1.318
20639W        W84363   8.177  26.585   3.829
20640W        W84364  19.179   7.292  10.542
20641W        W84365   7.380   6.693   4.182
20642W        W84366  35.447  38.374  12.451
20643W        W84367  23.617   5.372  13.003
20644W        W84368  41.497  24.025  11.529
20645W        W84369   4.723   2.859   2.813
20646W        W84370  40.844   3.286   2.734
20647W        W84371   4.881  22.049  14.987
20648W        W84372   2.322  13.725  13.945
20649W        W84373  41.433  33.090   1.710
20650W        W84374  29.513  41.524  14.779
20651W        W84375  34.447  42.442   3.274
20652W        W84376  29.081   8.230  12.443
20653W        W84377  35.447  34.463   4.607
20654W        W84378  43.856   6.701   0.407
20655W        W84379  14.831  44.832   2.745
20656W        W84380  26.656   8.829  12.879
20657W        W84381   1.736  20.627   4.188
20658W        W84382  43.333  24.624  12.955
20659W        W84383  19.074  25.004  14.961
20660W        W84384   2.305  14.254   2.191
20661W        W84385  36.878  20.674  14.479
20662W        W84386  42.989  22.561   3.336
20663W        W84387  34.099  41.848  14.452
20664W        W84388  20.665  11.304  11.127
20665W        W84389  18.110  37.991  12.001
20666W        W84390  25.667  38.570  11.915
20667W        W84391  24.490  18.603  13.841
20668W        W84392  42.948   8.825   1.913
20669W        W84393  41.869  40.870   5.120
20670W        W84394  22.652  19.679  13.426
20671W        W84395  27.544  33.459  11.900
20672W        W84396  10.251  20.247   0.439
20673W        W84397   2.236  16.646   3.314
20674W        W84398  40.947  21.655  13.387
20675W        W84399  31.451  17.150  13.959
20676W        W84400  42.406  32.030   1.733
20677W        W84401   4.942   0.258   3.850
20678W        W84402  44.468   9.782  14.962
20679W        W84403  40.474  13.801   3.682
20680W        W84404  40.433  21.602   9.635
20681W        W84405  14.254  44.309  12.543
20682W        W84406  33.393   6.876  14.364
20683W        W84407  22.016  21.246  14.290
20684W        W84408   1.844  22.597   2.734
20685W        W84409  39.926  10.844   4.137
20686W        W84410  11.761  11.210  10.508
20687W        W84411  40.908   1.477  14.904
20688W        W84412   9.196  20.161  10.503
20689W        W84413  38.043   8.366   4.683
20690W        W84414   8.692   7.174   3.728
20691W        W84415  20.244   0.417  14.499
20692W        W84416  28.599  42.492   3.194
20693W        W84417   7.674   4.708   0.737
20694W        W84418  23.235  16.664  11.488
20695W        W84419  38.029  22.599  14.803
20696W        W84420  35.572  30.983  11.893
20697W        W84421  35.421  25.683   0.826
20698W        W84422  15.322  17.121  13.504
20699W        W84423  26.062  28.636  11.129
20700W        W84424  26.612  41.973  12.451
20701W        W84425  40.024  42.286   2.395
20702W        W84426  16.586  25.207   0.399
20703W        W84427  33.029   4.699   1.888
20704W        W84428   2.958  35.521   4.121
20705W        W84429  42.877  39.043  13.420
20706W        W84430  41.995  43.339  10.149
20707W        W84431  22.595  10.366  12.563
20708W        W84432  10.804   1.771  14.931
20709W        W84433   6.890  34.444  14.280
20710W        W84434  40.439  39.939  11.933
20711W        W84435  26.015  34.587   1.908
20712W        W84436  22.614   6.223  10.436
20713W        W84437  27.172  33.045   3.778
20714W        W84438  39.453  35.864  11.121
20715W        W84439  10.862  43.780  13.810
20716W        W84440  21.045  34.578  13.487
20717W        W84441  42.999  32.596  10.596
20718W        W84442   2.239  39.347  14.839
20719W        W84443  38.937  19.746  11.084
20720W        W84444  32.586   0.296   2.262
20721W        W84445   2.795  15.134  13.006
20722W        W84446   4.746  27.590  11.121
20723W        W84447  27.455  21.222  14.480
20724W        W84448  21.671  24.987  14.027
20725W        W84449   5.719   3.249   1.392
20726W        W84450  18.568  21.145  13.517
20727W        W84451  23.179  35.584   0.345
20728W        W84452  16.077  25.656  11.998
20729W        W84453  26.637  31.439  11.983
20730W        W84454  23.668  39.511  11.604
20731W        W84455  33.490   1.788  13.033
20732W        W84456   5.782   4.377   4.631
20733W        W84457  10.332   5.287   2.864
20734W        W84458  14.122  21.030   1.901
20735W        W84459   2.237   1.974   5.155
20736W        W84460  36.994  15.263  12.845
20737W        W84461  44.847  12.737  13.821
20738W        W84462  19.142  14.798   1.442
20739W        W84463  14.717  28.452  13.502
20740W        W84464   0.938  19.706   1.919
20741W        W84465  19.103  14.820   3.668
20742W        W84466   7.274  42.356   3.262
20743W        W84467  37.420  33.885  11.873
20744W        W84468   1.777  15.707   1.825
20745W        W84469   5.300   6.400  11.960
20746W        W84470  22.158   7.351   2.253
20747W        W84471   4.733   3.853   4.788
20748W        W84472   8.688  28.603  14.004
20749W        W84473  30.942  42.431   3.766
20750W        W84474  36.431  25.007  11.599
20751W        W84475  16.304  15.177   2.761
20752W        W84476  27.182   4.349   4.606
20753W        W84477  12.163  30.416   3.638
20754W        W84478   7.849  35.964   4.771
20755W        W84479   9.715  34.894   2.848
20756W        W84480  33.993  17.135  13.033
20757W        W84481  26.510  19.631   3.820
20758W        W84482  12.644  35.952   1.720
20759W        W84483  36.358  34.543  11.921
20760W        W84484  43.797  22.556  12.552
20761W        W84485   5.919  28.089  13.885
20762W        W84486  11.722  17.162  11.413
20763W        W84487  24.033  21.032  11.957
20764W        W84488   5.812  31.406  10.961
20765W        W84489   1.445   2.376   4.297
20766W        W84490   2.286   9.745   0.334
20767W        W84491   7.800  31.973  12.009
20768W        W84492  27.532  13.349  14.804
20769W        W84493  44.476   4.817  11.432
20770W        W84494  30.457  38.349  13.048
20771W        W84495  24.214  22.617   3.148
20772W        W84496  34.057  38.052   4.720
20773W        W84497  28.575  28.985  14.006
20774W        W84498   0.387  12.724   4.768
20775W        W84499  35.966   0.861   4.785
20776W        W84500  38.487  20.572  11.482
20777W        W84501  12.287  37.363  14.305
20778W        W84502  33.039  16.767  11.605
20779W        W84503  14.742  15.187   2.683
20780W        W84504   2.407  30.143   1.842
20781W        W84505   7.791  28.044   3.208
20782W        W84506  43.485  13.197  14.471
20783W        W84507  35.386  34.934  10.515
20784W        W84508  26.003  10.819  13.833
20785W        W84509   5.317  32.022   2.669
20786W        W84510  36.384  26.612  14.821
20787W        W84511  33.440  42.960   1.375
20788W        W84512  27.653  22.111   0.373
20789W        W84513  38.405  35.439  13.425
20790W        W84514  40.980   9.158  11.605
20791W        W84515  32.417  27.192  12.548
20792W        W84516  28.453  17.176  12.503
20793W        W84517  27.192   3.235  10.018
20794W        W84518  31.476  24.083  11.453
20795W        W84519  30.496  12.707   4.121
20796W        W84520   6.892  32.093  13.328
20797W        W84521  17.196  10.247  11.379
20798W        W84522  16.284  35.051  12.985
20799W        W84523  30.577  17.648   3.169
20800W        W84524  43.996  31.915   0.350
20801W        W84525  17.304   3.748   2.402
20802W        W84526  24.029  11.340  12.907
20803W        W84527   8.273  25.503   2.242
20804W        W84528  25.686  13.665  11.051
20805W        W84529   5.399  24.094  10.564
20806W        W84530  34.062  24.512  11.127
20807W        W84531  11.850   5.432  12.012
20808W        W84532  43.996  11.147  14.770
20809W        W84533  37.014  16.784  13.527
20810W        W84534  19.114  44.270   1.694
20811W        W84535  31.131  31.978   0.783
20812W        W84536   0.375  20.624   4.288
20813W        W84537  41.425  29.080   3.330
20814W        W84538  20.267  34.872   4.598
20815W        W84539  37.444  44.863   3.769
20816W        W84540  27.957  37.963  11.590
20817W        W84541  18.217  11.714  14.009
20818W        W84542  42.465  12.688  14.766
20819W        W84543  14.732   4.257   2.795
20820W        W84544  26.955  23.618   5.088
20821W        W84545  37.893  29.579  12.082
20822W        W84546  31.594  35.567  14.441
20823W        W84547  28.041  10.144   5.260
20824W        W84548  25.017   5.198  11.001
20825W        W84549   5.741  23.519  14.319
20826W        W84550  21.725  34.917  11.929
20827W        W84551   1.390  21.611  12.453
20828W        W84552  30.945  28.986   1.711
20829W        W84553  13.791  10.289  14.862
20830W        W84554  35.406  21.057   3.817
20831W        W84555  14.763  17.562  11.940
20832W        W84556  13.793  33.546  14.290
20833W        W84557  30.054   7.808  12.544
20834W        W84558  24.040  31.579  14.004
20835W        W84559  17.172  36.916  13.938
20836W        W84560   0.929  23.709   4.608
20837W        W84561  18.563  17.221  13.971
20838W        W84562  17.682  42.949  10.478
20839W        W84563  40.959   7.382  11.469
20840W        W84564   7.708  11.788  14.364
20841W        W84565   7.210  13.791  10.102
20842W        W84566  12.362   5.255  10.561
20843W        W84567  19.202   3.885   3.269
20844W        W84568   3.313  44.844   0.283
20845W        W84569  31.979  26.646  13.398
20846W        W84570  19.205  23.171   1.873
20847W        W84571   4.905  17.793   2.302
20848W        W84572  44.400  16.768  11.535
20849W        W84573  37.536  21.747  10.605
20850W        W84574   2.290  14.793  13.812
20851W        W84575  24.014   1.340  14.334
20852W        W84576  40.536  13.349   2.745
20853W        W84577  27.512  34.978  11.545
20854W        W84578  33.883  24.090   2.863
20855W        W84579   1.306  33.897   4.824
20856W        W84580  18.057  22.701   1.448
20857W        W84581  37.042  39.368  12.355
20858W        W84582  39.511  36.855  12.438
20859W        W84583  28.656  32.140  14.408
20860W        W84584   1.904  43.437   0.303
20861W        W84585  36.547  26.960   1.897
20862W        W84586  32.543   0.907   1.279
20863W        W84587   9.317  12.270  10.591
20864W        W84588  44.282  31.434   1.285
20865W        W84589   7.261  27.119   2.346
20866W        W84590  29.922  22.195  14.859
20867W        W84591   9.278  10.688   0.408
20868W        W84592   5.920  28.581   3.321
20869W        W84593   4.387  42.288   2.359
20870W        W84594  32.895  35.992   3.705
20871W        W84595  23.180   4.732  13.432
20872W        W84596   5.877  44.371  11.591
20873W        W84597   4.262  33.055  10.438
20874W        W84598  34.112  28.991  11.448
20875W        W84599  10.335  44.924  12.863
20876W        W84600  39.925  32.464  12.916
20877W        W84601   5.274  30.950   1.715
20878W        W84602  27.627   2.738  11.913
20879W        W84603  10.247  41.859   3.828
20880W        W84604  18.756   3.923  12.950
20881W        W84605   7.305  41.840  11.030
20882W        W84606  18.695  44.991  12.515
20883W        W84607  38.858  12.831  13.974
20884W        W84608  40.328  25.695   2.818
20885W        W84609  15.781  40.803   2.309
20886W        W84610  24.158  39.881   0.363
20887W        W84611   7.274  33.000  11.040
20888W        W84612  33.435  12.622  14.382
20889W        W84613  20.628  44.435  10.504
20890W        W84614  37.990  33.968   0.767
20891W        W84615  39.946  31.928  14.991
20892W        W84616  37.520  43.481   2.709
20893W        W84617  27.014  36.586   2.742
20894W        W84618  36.518  29.037  13.968
20895W        W84619  41.869  21.130   3.642
20896W        W84620  18.648   2.960  14.426
20897W        W84621  40.931  10.764  11.405
20898W        W84622  19.218  19.770  14.337
20899W        W84623  27.623   2.773   4.327
20900W        W84624   4.874  43.967   3.812
20901W        W84625  33.958  13.313  10.159
20902W        W84626  30.441  13.262  14.464
20903W        W84627   4.703  30.505  13.353
20904W        W84628  22.595  22.032  12.061
20905W        W84629  36.532  14.131  14.770
20906W        W84630   2.900  18.633  11.104
20907W        W84631  37.850  15.710   4.298
20908W        W84632  10.195   1.251  10.547
20909W        W84633  24.603  42.031   4.256
20910W        W84634  26.483  36.091  13.985
20911W        W84635  11.776   8.301   0.944
20912W        W84636   0.280  25.501   4.213
20913W        W84637  43.836   4.217   0.932
20914W        W84638  30.987  39.940   0.795
20915W        W84639   7.743   4.403   3.256
20916W        W84640   2.832  43.510   2.808
20917W        W84641  34.448  37.575  13.501
20918W        W84642  44.446  25.483  12.394
20919W        W84643  39.034  40.940  12.400
20920W        W84644   6.799  39.386   0.405
20921W        W84645   1.277  10.634  14.879
20922W        W84646  35.572  16.312   0.921
20923W        W84647  28.995   5.838   0.483
20924W        W84648  39.876  36.048   3.691
20925W        W84649  21.738  23.116  14.948
20926W        W84650  43.852  26.508  12.525
20927W        W84651  25.173  17.736  13.515
20928W        W84652  17.753  25.171  14.840
20929W        W84653  36.899  44.428   1.306
20930W        W84654  21.742  19.109  12.369
20931W        W84655  17.295  38.450  10.483
20932W        W84656  17.602   1.323   1.283
20933W        W84657  13.666   0.967  13.394
20934W        W84658  36.047  15.200  11.127
20935W        W84659   1.252  18.281   3.176
20936W        W84660  17.747  16.694   3.690
20937W        W84661  35.056  29.562  14.925
20938W        W84662  26.630  32.422  14.285
20939W        W84663  32.023  17.636   2.205
20940W        W84664  22.220  15.086   3.254
20941W        W84665  39.521  21.601   1.263
20942W        W84666  35.976  26.168  10.941
20943W        W84667  35.951  44.390   3.295
20944W        W84668   1.745   9.188   1.357
20945W        W84669  43.830  27.652   3.773
20946W        W84670  43.319  20.251   2.292
20947W        W84671  36.415   5.415   0.930
20948W        W84672  18.116  26.477  12.998
20949W        W84673  43.984  19.196  11.947
20950W        W84674  14.714  19.778  11.984
20951W        W84675  35.994  33.037   3.281
20952W        W84676  26.580   2.777  11.867
20953W        W84677  11.345  32.431   3.763
20954W        W84678  38.504   1.389  11.077
20955W        W84679  36.521  22.501  14.952
20956W        W84680  13.257  25.979  13.030
20957W        W84681   7.822  15.280   3.241
20958W        W84682   9.218  15.137  12.481
20959W        W84683  15.783   3.838  11.585
20960W        W84684   1.283  26.110   4.760
20961W        W84685  27.484  33.487   1.884
20962W        W84686   5.225  38.459   2.882
20963W        W84687  30.157  39.809   3.312
20964W        W84688   3.849   5.927  13.995
20965W        W84689  23.679  14.148  13.997
20966W        W84690  33.128  42.007  11.865
20967W        W84691  31.102  25.508  13.832
20968W        W84692  19.778  44.963  12.056
20969W        W84693  34.093  34.872   4.807
20970W        W84694   0.759  39.057   4.198
20971W        W84695  26.499   8.670   3.644
20972W        W84696  44.403  13.215  12.486
20973W        W84697  35.991  15.656   4.838
20974W        W84698  15.747  35.883   2.684
20975W        W84699  12.792  27.635   2.839
20976W        W84700  41.979  14.187  10.083
20977W        W84701  24.723   4.265  13.820
20978W        W84702  44.929  25.030  13.456
20979W        W84703   4.259  10.667  12.040
20980W        W84704  36.025   2.439   1.243
20981W        W84705  20.127   3.782  14.298
20982W        W84706  14.718  30.035   1.286
20983W        W84707   4.783  35.018  11.531
20984W        W84708   8.797  14.705   4.615
20985W        W84709  41.330  43.004  14.947
20986W        W84710  30.022  36.886   3.705
20987W        W84711  25.006   6.908  14.452
20988W        W84712  44.868  10.289   2.337
20989W        W84713  14.121  37.506   3.313
20990W        W84714  15.744  18.189   5.309
20991W        W84715  29.142  28.629   1.433
20992W        W84716  16.189  25.628  14.298
20993W        W84717   3.280  40.462   1.375
20994W        W84718  10.230  39.914   4.803
20995W        W84719   7.728  44.972   1.929
20996W        W84720  15.663  15.775  13.329
20997W        W84721   3.259  30.601  14.912
20998W        W84722  32.588  15.321   4.169
20999W        W84723   8.259  43.004   1.927
21000W        W84724  35.582  32.547   1.767
21001W        W84725  10.848  35.537  11.580
21002W        W84726  39.894   5.360  13.914
21003W        W84727  40.807  28.615  13.036
21004W        W84728  33.947  13.689   4.121
21005W        W84729  32.491   2.306   3.173
21006W        W84730  35.877  35.109   4.192
21007W        W84731  36.850  10.709   4.619
21008W        W84732  24.165  11.335  11.570
21009W        W84733   8.899  33.924  12.445
21010W        W84734  21.519  20.264  13.812
21011W        W84735   5.861  40.953   3.287
21012W        W84736  30.095  39.452  13.917
21013W        W84737  24.984  20.240   0.465
21014W        W84738  41.479  30.576   3.835
21015W        W84739  40.933  20.722  11.562
21016W        W84740  28.180  19.658  13.368
21017W        W84741  16.682  16.778  14.011
21018W        W84742  19.245  38.954   0.934
21019W        W84743   8.691   5.777  12.388
21020W        W84744  37.473  19.245  14.426
21021W        W84745   0.921  36.415  11.067
21022W        W84746  29.530  35.438   1.828
21023W        W84747   3.400  29.925   2.381
21024W        W84748   6.681  32.604  12.846
21025W        W84749  32.627  40.515  14.965
21026W        W84750  31.996  18.097  11.588
21027W        W84751   2.782  24.992  11.965
21028W        W84752  18.217  21.067  13.042
21029W        W84753  23.223  15.672   2.764
21030W        W84754  35.084  39.050  13.041
21031W        W84755  30.090  16.694  12.828
21032W        W84756  27.030  30.117  11.431
21033W        W84757  39.359  34.574   4.280
21034W        W84758  44.492   8.389  14.292
21035W        W84759  30.617  44.448  11.422
21036W        W84760  40.333  33.964  13.317
21037W        W84761  34.606  18.285  11.453
21038W        W84762  43.972  12.346   1.251
21039W        W84763  43.502   6.346  12.473
21040W        W84764  36.407  22.716   3.265
21041W        W84765   7.739  20.654  12.045
21042W        W84766  32.422   8.839   1.857
21043W        W84767  13.739  19.688  13.030
21044W        W84768  40.439   8.777  11.046
21045W        W84769  40.370  44.906  14.970
21046W        W84770  33.475   4.844   3.855
21047W        W84771  20.670   4.900   1.706
21048W        W84772  13.823  36.985   3.325
21049W        W84773  18.100  10.143  12.018
21050W        W84774   5.267  21.540  11.034
21051W        W84775  31.921  19.694   1.450
21052W        W84776  18.133  44.875  13.003
21053W        W84777  42.510  31.483   1.408
21054W        W84778  25.986  10.844   2.357
21055W        W84779  16.768  22.588   4.781
21056W        W84780  15.326   4.391   0.332
21057W        W84781   6.243   8.687   5.136
21058W        W84782   7.265   7.775  13.451
21059W        W84783  13.324  24.183   4.193
21060W        W84784  16.101   5.761   2.200
21061W        W84785  32.404  29.435  10.567
21062W        W84786   7.262   9.819  10.438
21063W        W84787  33.384  43.447  12.022
21064W        W84788  26.032  15.108  12.511
21065W        W84789  34.609  25.176   4.245
21066W        W84790  17.128  35.861  11.966
21067W        W84791  36.536   9.700   0.890
21068W        W84792  27.951  16.099  10.977
21069W        W84793  21.515  42.904   2.225
21070W        W84794  31.619  12.194  11.602
21071W        W84795  44.378   5.718  10.024
21072W        W84796  18.743  18.121  10.587
21073W        W84797  37.020   2.764   2.189
21074W        W84798  14.163  19.621  14.313
21075W        W84799   3.418   1.387   3.788
21076W        W84800  21.107   2.877   3.224
21077W        W84801  26.140  42.329  14.334
21078W        W84802  13.251  38.408   2.716
21079W        W84803   1.843  37.462   2.763
21080W        W84804  17.700   8.703  14.398
21081W        W84805  36.984  24.489   3.776
21082W        W84806  27.468  27.146   2.867
21083W        W84807  25.557  31.096  13.491
21084W        W84808  24.668  16.593  12.867
21085W        W84809  25.513  24.703  14.808
21086W        W84810  30.594  20.608  10.505
21087W        W84811  22.179  42.959  13.478
21088W        W84812  12.785   4.376  10.482
21089W        W84813   3.329   9.322  14.329
21090W        W84814  19.677  41.409   2.847
21091W        W84815  28.459  33.626   2.757
21092W        W84816  19.743  29.604   1.359
21093W        W84817  38.929  17.303   3.814
21094W        W84818   4.942  13.737   4.837
21095W        W84819  42.344  33.940  13.961
21096W        W84820  22.704  14.763  13.342
21097W        W84821  43.987  13.700  12.915
21098W        W84822  37.850  20.680   0.387
21099W        W84823  12.614  10.807  13.997
21100W        W84824  16.168  32.954  11.610
21101W        W84825  22.174  27.040  14.979
21102W        W84826   1.367  19.246  13.519
21103W        W84827  33.890   9.828   3.713
21104W        W84828  20.204  41.300   1.733
21105W        W84829  25.165  15.603  13.541
21106W        W84830   7.262  38.491   0.886
21107W        W84831  35.575  29.524   4.319
21108W        W84832  17.075  24.207  13.798
21109W        W84833   8.197  17.800  10.997
21110W        W84834  29.020  29.107  10.946
21111W        W84835   4.897  39.037   3.337
21112W        W84836  26.648  21.550  10.550
21113W        W84837  20.753  11.757  13.337
21114W        W84838  38.819   8.860   3.305
21115W        W84839  12.687  27.637   0.838
21116W        W84840   6.816   2.725   0.884
21117W        W84841   4.868  21.230  12.936
21118W        W84842   4.413  16.101  11.394
21119W        W84843  19.740  35.509  14.851
21120W        W84844  42.791  44.009   2.224
21121W        W84845  32.557  22.738  10.965
21122W        W84846  42.867  15.249  13.971
21123W        W84847  29.622  14.150  12.031
21124W        W84848  18.561  31.900   3.659
21125W        W84849   1.245   2.914  12.878
21126W        W84850  22.084  31.135  14.988
21127W        W84851  27.579   4.283  13.815
21128W        W84852  21.158   1.886  13.341
21129W        W84853  39.340   7.172   0.738
21130W        W84854  24.009  28.007   9.499
21131W        W84855   7.861  24.603   4.781
21132W        W84856   7.288   5.407  10.957
21133W        W84857  12.189  36.053  12.343
21134W        W84858  11.787  35.400   0.889
21135W        W84859   6.763  11.215   3.297
21136W        W84860  32.440  40.990   1.904
21137W        W84861   7.275  36.071   0.857
21138W        W84862  41.498  25.162   4.615
21139W        W84863   5.343  34.417  12.541
21140W        W84864  28.502   1.283  14.811
21141W        W84865  20.592  40.387   2.244
21142W        W84866  23.652  33.056   3.284
21143W        W84867  42.452  43.765  10.529
21144W        W84868  26.062   9.856  10.098
21145W        W84869  40.423  41.983   1.907
21146W        W84870   7.188  19.734   4.798
21147W        W84871  20.134  41.855   0.291
21148W        W84872  30.540  20.526   3.662
21149W        W84873  41.799  21.750  10.976
21150W        W84874  29.501  34.442  13.415
21151W        W84875   6.200  20.187   2.293
21152W        W84876  32.894  15.152   0.852
21153W        W84877   7.292  43.766  14.844
21154W        W84878  43.858  30.657  13.049
21155W        W84879  32.969  19.596  14.875
21156W        W84880  43.432  30.106   4.635
21157W        W84881  27.142  21.696   0.346
21158W        W84882  22.181  34.916  13.860
21159W        W84883  35.953  31.903   3.198
21160W        W84884  32.400   3.405  12.381
21161W        W84885   5.425  26.680  12.956
21162W        W84886  29.015  12.751  12.502
21163W        W84887  32.962  39.849  12.955
21164W        W84888  36.962   1.964  12.923
21165W        W84889   8.794   6.900  14.959
21166W        W84890  20.731  39.997   3.279
21167W        W84891  42.506  16.578   3.303
21168W        W84892  13.139  41.894   3.828
21169W        W84893  41.405  14.334   2.784
21170W        W84894  33.464  22.737   5.095
21171W        W84895  39.530  34.511  14.430
21172W        W84896   6.416  31.561   4.344
21173W        W84897  44.916  12.644   2.406
21174W        W84898  39.063  12.853   1.262
21175W        W84899  36.949  23.104  11.087
21176W        W84900  20.190   8.336  11.897
21177W        W84901  13.604   1.765  14.899
21178W        W84902  16.147   6.409   3.832
21179W        W84903  39.878  22.225  11.541
21180W        W84904  37.831  27.665  14.892
21181W        W84905   9.328  26.490  11.411
21182W        W84906  42.364  19.739  14.904
21183W        W84907  21.563  34.385  14.805
21184W        W84908  30.982  10.716  10.984
21185W        W84909  17.737  33.894  11.509
21186W        W84910  22.112   5.246  14.395
21187W        W84911  40.985  39.391  12.978
21188W        W84912  43.908  37.015   5.685
21189W        W84913  30.558  37.024  11.449
21190W        W84914  42.809  41.474   1.854
21191W        W84915   0.366  24.146  13.960
21192W        W84916  15.730  44.454   2.668
21193W        W84917  28.607  34.027  13.474
21194W        W84918  19.584  37.478   2.293
21195W        W84919  32.601  23.697   3.633
21196W        W84920  30.599  42.338  11.456
21197W        W84921  23.524  40.398  12.368
21198W        W84922   4.794   3.398  12.344
21199W        W84923  23.008  28.510   2.381
21200W        W84924   9.851   9.716   2.390
21201W        W84925  30.637   3.786  14.443
21202W        W84926   7.795  24.577   1.895
21203W        W84927  16.691   0.401  11.597
21204W        W84928  19.130  20.536   4.229
21205W        W84929   0.248  31.478   1.703
21206W        W84930  14.114   7.197  11.455
21207W        W84931  25.488  42.944  13.890
21208W        W84932  14.155  40.410  11.988
21209W        W84933   7.313  15.821  10.109
21210W        W84934  33.610   9.879  12.009
21211W        W84935  44.425  31.059  13.520
21212W        W84936  39.389  34.478   1.847
21213W        W84937  25.067  33.064  12.976
21214W        W84938  33.979  21.103  12.472
21215W        W84939   0.977   9.348   0.412
21216W        W84940  41.915  37.571  10.488
21217W        W84941  15.316  26.699   4.337
21218W        W84942   3.783  39.319   4.733
21219W        W84943  41.340  38.388  13.961
21220W        W84944  27.458  40.888  11.064
21221W        W84945  33.928  26.674   1.896
21222W        W84946  18.271  17.145   4.837
21223W        W84947  24.618  22.222  14.877
21224W        W84948  18.744  22.539   1.927
21225W        W84949  14.097  21.724   4.323
21226W        W84950   3.220  31.489   1.236
21227W        W84951  31.935  21.213  11.934
21228W        W84952  33.541   6.920   4.620
21229W        W84953  37.515   2.958   4.118
21230W        W84954  10.359  27.152   1.858
21231W        W84955  34.446  11.234   1.351
21232W        W84956  26.493  11.350  11.397
21233W        W84957  25.011  22.723   0.421
21234W        W84958  18.125  24.624  12.907
21235W        W84959   5.762  16.735   3.262
21236W        W84960   9.762   6.725   1.431
21237W        W84961   3.828  11.697   1.269
21238W        W84962  31.595   6.766  13.035
21239W        W84963   2.342   4.825  10.473
21240W        W84964  43.353   6.918  10.533
21241W        W84965  13.736  16.085   3.686
21242W        W84966  37.581  16.227   1.399
21243W        W84967  43.894  39.316   3.237
21244W        W84968  34.092  44.007   4.689
21245W        W84969  25.550   9.212   4.277
21246W        W84970  39.884  43.346   2.889
21247W        W84971  30.456  25.608   2.701
21248W        W84972  34.922  39.897   0.455
21249W        W84973  33.060   7.726   4.328
21250W        W84974  10.193  15.180   3.331
21251W        W84975  19.061   2.467  11.490
21252W        W84976  24.065   4.907   0.907
21253W        W84977  31.915  26.566  11.561
21254W        W84978  23.212  28.480  13.371
21255W        W84979  45.000  38.403   2.758
21256W        W84980  22.193  18.785   3.738
21257W        W84981  14.715  18.730  10.436
21258W        W84982   6.377  43.360   4.798
21259W        W84983  18.139  15.135  11.521
21260W        W84984  39.031  23.091  14.423
21261W        W84985   6.400  28.538  14.502
21262W        W84986  20.225  24.635   4.337
21263W        W84987  38.868  30.614  10.537
21264W        W84988   4.357   0.841   0.377
21265W        W84989  22.075  38.391  12.398
21266W        W84990  14.097  36.888  10.412
21267W        W84991   3.781  38.341  12.389
21268W        W84992  32.414   4.706  10.970
21269W        W84993  31.484  31.481   1.270
21270W        W84994   2.906  38.372  13.429
21271W        W84995  40.958   4.225   4.798
21272W        W84996  28.152  11.646  10.508
21273W        W84997   1.805  14.130   0.883
21274W        W84998   4.897  10.683   0.398
21275W        W84999  10.804  39.445  14.902
21276W        W85000  35.599  18.632   0.864
21277W        W85001  41.469   8.312  10.586
21278W        W85002  42.978  41.377   5.303
21279W        W85003   9.760  22.702  14.891
21280W        W85004  30.515  32.447  11.439
21281W        W85005   7.672  41.392   3.277
21282W        W85006  37.356  33.100   4.707
21283W        W85007  14.255  38.029  14.903
21284W        W85008  26.690  13.245   4.624
21285W        W85009  19.275  40.477  13.829
21286W        W85010  23.491  22.634  13.369
21287W        W85011  32.966  16.691   4.304
21288W        W85012  30.580  34.395   4.806
21289W        W85013   8.755  37.470   4.191
21290W        W85014  17.778  14.229   3.221
21291W        W85015  41.972   7.296   0.293
21292W        W85016   3.405  39.044   4.706
21293W        W85017  20.732  17.790   0.388
21294W        W85018   0.426  20.203   2.746
21295W        W85019  19.203  39.008  13.937
21296W        W85020  13.162   8.800  11.403
21297W        W85021   7.739  23.664  11.450
21298W        W85022  43.402  43.958  12.355
21299W        W85023  31.036  39.811  12.899
21300W        W85024  37.950   9.661   1.851
21301W        W85025  20.195  39.514   9.647
21302W        W85026  27.000  27.450   9.575
21303W        W85027  12.292   6.710   3.313
21304W        W85028   8.724  13.615   2.333
21305W        W85029  34.486   5.339  12.966
21306W        W85030  16.258  17.103   1.854
21307W        W85031  13.810  34.437   4.781
21308W        W85032  36.375  38.949   0.800
21309W        W85033  35.085  44.803  10.925
21310W        W85034  39.995  19.685  14.313
21311W        W85035  43.277  12.724  12.035
21312W        W85036   2.307   2.896  12.456
21313W        W85037  14.266  22.014   4.338
21314W        W85038  19.081   5.751   4.832
21315W        W85039  18.703  22.073   4.801
21316W        W85040  20.180  27.611   3.795
21317W        W85041   4.440  21.586  14.298
21318W        W85042  35.968  38.470  14.323
21319W        W85043  30.984  14.789   1.241
21320W        W85044  29.548   2.933  10.429
21321W        W85045  14.160  39.908  11.065
21322W        W85046  30.647   9.394  10.978
21323W        W85047  30.499  28.070   0.806
21324W        W85048  12.718  13.321   3.847
21325W        W85049  10.256  37.403  11.585
21326W        W85050   9.385  32.136   0.730
21327W        W85051  37.977  15.178  14.426
21328W        W85052   3.880   7.744   2.746
21329W        W85053   9.744   7.406  12.991
21330W        W85054  28.953  34.941   3.334
21331W        W85055  21.648   7.757   0.893
21332W        W85056  40.959  41.359   4.797
21333W        W85057   2.755  27.658  13.467
21334W        W85058  10.148   6.915  11.879
21335W        W85059  26.677   3.878   0.421
21336W        W85060  44.443  38.556   2.223
21337W        W85061  27.032   8.709  11.116
21338W        W85062   2.237  28.080  13.394
21339W        W85063  39.432   2.909  11.419
21340W        W85064   5.848  12.753  13.346
21341W        W85065  43.446   7.390  14.368
21342W        W85066  35.955   2.922   1.852
21343W        W85067  27.072   4.820  13.933
21344W        W85068  13.770  35.086   1.445
21345W        W85069  44.394  19.755  12.417
21346W        W85070   8.232  21.106  10.599
21347W        W85071  39.544  29.953   2.188
21348W        W85072  14.625  34.547  14.416
21349W        W85073   7.198  41.944   4.630
21350W        W85074  38.449   9.314   2.331
21351W        W85075  44.908  40.514   4.782
21352W        W85076  10.690   2.376  13.915
21353W        W85077   6.900  19.731  13.939
21354W        W85078  38.891  28.951  13.954
21355W        W85079  15.137   6.414   2.329
21356W        W85080  16.121   3.903  12.001
21357W        W85081  43.403  41.866  12.411
21358W        W85082   7.841  23.093  14.864
21359W        W85083   3.250  13.694  11.530
21360W        W85084  33.559  31.442  10.633
21361W        W85085  18.669  10.781  10.888
21362W        W85086  12.664  21.646  12.558
21363W        W85087  30.412  27.049  13.004
21364W        W85088   8.807  36.349   2.345
21365W        W85089  21.662  32.905   0.861
21366W        W85090   5.813  34.045  12.580
21367W        W85091  10.727  25.685   4.722
21368W        W85092  36.903  29.535   0.855
21369W        W85093  30.161  24.708  13.833
21370W        W85094  23.238  42.943  10.405
21371W        W85095   1.478  41.482  10.520
21372W        W85096  40.969  35.899   4.209
21373W        W85097  11.652  24.190  14.424
21374W        W85098  18.631  44.993   4.693
21375W        W85099  20.685  24.573  11.554
21376W        W85100  39.023  30.135  12.982
21377W        W85101  37.449  18.696  10.986
21378W        W85102   2.280  15.113   0.329
21379W        W85103   1.927  17.797   4.225
21380W        W85104   0.452   5.917   4.779
21381W        W85105  17.198  14.212  13.540
21382W        W85106  34.460  27.997   0.756
21383W        W85107  33.619  14.305  11.010
21384W        W85108  32.570  44.374  10.452
21385W        W85109  16.606  23.013  13.378
21386W        W85110  32.140  21.029  12.840
21387W        W85111   3.405  40.498  14.928
21388W        W85112   4.844   6.745   1.320
21389W        W85113  20.762  23.567  14.996
21390W        W85114  15.763  26.163  14.826
21391W        W85115  30.518  31.540  10.462
21392W        W85116  15.327  20.051   1.876
21393W        W85117  37.344  34.531  13.535
21394W        W85118  30.560  21.206  13.442
21395W        W85119  15.313  41.335   4.313
21396W        W85120  16.577  24.181  14.314
21397W        W85121   6.365  41.391   2.783
21398W        W85122  33.480  23.208   0.381
21399W        W85123   0.460  14.322  12.923
21400W        W85124  43.966  15.236   3.782
21401W        W85125  29.567  33.483   9.997
21402W        W85126  41.016  14.108  14.454
21403W        W85127  22.234  41.821   2.187
21404W        W85128   4.896  36.845   0.799
21405W        W85129   3.271  22.526  11.977
21406W        W85130  11.715  36.538  14.422
21407W        W85131  28.516   3.255  12.027
21408W        W85132  40.919  39.403  14.843
21409W        W85133  31.455  16.186  14.912
21410W        W85134   3.267  35.507   4.175
21411W        W85135  36.876  38.554  10.552
21412W        W85136  19.232  20.555  12.980
21413W        W85137  31.901  40.402  12.400
21414W        W85138  28.563  37.396   2.363
21415W        W85139  34.376   6.886  14.948
21416W        W85140  44.817  14.671   3.736
21417W        W85141   9.675  16.088  14.959
21418W        W85142  41.486  21.058   2.765
21419W        W85143   4.406  23.074  14.006
21420W        W85144  33.969   7.751   4.348
21421W        W85145  38.959  23.002   1.291
21422W        W85146  37.981  21.125  14.801
21423W        W85147  24.621   6.427  12.395
21424W        W85148   3.412   5.385  11.430
21425W        W85149  12.318  28.457  12.084
21426W        W85150  32.110  21.121   4.343
21427W        W85151  26.654  17.590  10.611
21428W        W85152  20.654  20.536   4.679
21429W        W85153   0.415  37.074   1.289
21430W        W85154  22.184  21.692  11.451
21431W        W85155  34.398  15.292  10.897
21432W        W85156  14.674   6.354  10.139
21433W        W85157  22.636   3.248  13.895
21434W        W85158  15.260   2.886   0.365
21435W        W85159  40.506  28.943  14.901
21436W        W85160  41.012  41.347   4.261
21437W        W85161  15.748  10.138  11.935
21438W        W85162  17.185  17.596   4.167
21439W        W85163  12.716   7.706   2.299
21440W        W85164  32.473  39.843   2.865
21441W        W85165   3.730   8.711  13.886
21442W        W85166  21.514  28.013  14.969
21443W        W85167   2.903   7.333  13.981
21444W        W85168  22.540   4.852   0.417
21445W        W85169  11.643  27.033   4.186
21446W        W85170   0.927  39.985   2.889
21447W        W85171  11.702  44.273  13.846
21448W        W85172   4.722  15.622   5.187
21449W        W85173   6.428   8.843  12.059
21450W        W85174  27.081   8.283  12.893
21451W        W85175  13.206  44.963   2.206
21452W        W85176  39.512  43.813  13.310
21453W        W85177  38.335  17.586  10.539
21454W        W85178  18.220  43.418  13.513
21455W        W85179  34.599  11.666  14.941
21456W        W85180  27.553  23.718  14.299
21457W        W85181  43.847   4.424   2.250
21458W        W85182  14.684  41.813  10.485
21459W        W85183   9.173  41.308  14.913
21460W        W85184  22.672  29.045  13.307
21461W        W85185   5.771   5.202   3.287
21462W        W85186  22.117  37.989   2.764
21463W        W85187  25.092   5.912   2.359
21464W        W85188  23.123  23.082  10.564
21465W        W85189  31.985  20.067   4.195
21466W        W85190   3.343   2.327   2.672
21467W        W85191  12.676  33.006   2.322
21468W        W85192  20.768  29.555  11.602
21469W        W85193  30.132  13.725   1.269
21470W        W85194  19.611  27.503  14.873
21471W        W85195   1.397  28.001  13.537
21472W        W85196  24.704  22.040   3.304
21473W        W85197  43.823  14.821   2.318
21474W        W85198  39.043  15.301   4.121
21475W        W85199  24.487  11.623  13.949
21476W        W85200  26.699  23.553   0.451
21477W        W85201  13.229  20.122  13.335
21478W        W85202  27.008   0.953   2.894
21479W        W85203  44.402   7.712  10.629
21480W        W85204   0.317  38.347   3.306
21481W        W85205  20.559  44.352  12.528
21482W        W85206  40.465  36.050  12.352
21483W        W85207  30.081   7.246  12.380
21484W        W85208   0.333  44.813  12.469
21485W        W85209  35.030  18.747   1.273
21486W        W85210  10.243  25.627   2.340
21487W        W85211  44.337   8.787   1.700
21488W        W85212  23.556  23.657  12.509
21489W        W85213   4.716  24.681   0.465
21490W        W85214  36.388  43.914   0.785
21491W        W85215  18.581  28.538  13.482
21492W        W85216  13.758  35.420  11.984
21493W        W85217  42.408  18.733  12.407
21494W        W85218  30.087  26.135  11.513
21495W        W85219  18.119  35.433   4.208
21496W        W85220   0.759  37.422   2.738
21497W        W85221  12.626  12.782   4.643
21498W        W85222  25.642  21.198   1.925
21499W        W85223   8.371  40.932   4.600
21500W        W85224   7.899  22.525   0.875
21501W        W85225  35.466  12.748  12.561
21502W        W85226   3.824  31.628   0.900
21503W        W85227  25.468  26.559  13.818
21504W        W85228  38.440  30.998  13.797
21505W        W85229  27.011  16.146   1.215
21506W        W85230  30.986  29.142  13.023
21507W        W85231   8.689   3.220   1.808
21508W        W85232   5.800  24.020   3.683
21509W        W85233  13.760  19.071  12.897
21510W        W85234  25.122  27.484   0.867
21511W        W85235  39.355  24.631   3.319
21512W        W85236   1.735  24.636   4.701
21513W        W85237  29.928   1.377   2.372
21514W        W85238  24.684   0.981   3.291
21515W        W85239  15.666  32.922  10.892
21516W        W85240  30.105  36.025  13.894
21517W        W85241  20.263  31.456  12.016
21518W        W85242  22.543  30.997   2.737
21519W        W85243   4.207  19.676  14.809
21520W        W85244  15.702  26.634  14.503
21521W        W85245  29.000  13.653  13.051
21522W        W85246  34.916  33.537  12.415
21523W        W85247   1.935  37.883  11.078
21524W        W85248  31.063  43.299   0.334
21525W        W85249  43.022   7.319  12.440
21526W        W85250  21.185  17.225  10.613
21527W        W85251  18.672   3.335  11.383
21528W        W85252  11.184  13.347   4.194
21529W        W85253  42.345  32.942   1.834
21530W        W85254   1.322  14.779   3.203
21531W        W85255   0.794  14.322   5.196
21532W        W85256  30.993  43.773  11.508
21533W        W85257   5.394  17.102  13.883
21534W        W85258   5.834  38.911  14.841
21535W        W85259  10.814  16.576  13.865
21536W        W85260  26.493   8.815  11.475
21537W        W85261  27.955   0.949   9.935
21538W        W85262  28.006  26.182   4.766
21539W        W85263  30.106  23.050   3.813
21540W        W85264  19.566  28.030   2.186
21541W        W85265  44.277  35.495   0.902
21542W        W85266  15.084   5.322  12.050
21543W        W85267  19.537  20.128   2.767
21544W        W85268  28.968  19.112   3.634
21545W        W85269   0.771  17.178   0.839
21546W        W85270  32.531  34.494  12.935
21547W        W85271  18.608  14.133   1.329
21548W        W85272  12.236  35.059  11.957
21549W        W85273   2.438   4.870   4.777
21550W        W85274  35.109   4.733  10.980
21551W        W85275   1.733  39.409   3.684
21552W        W85276  21.178  16.145  10.520
21553W        W85277  31.514  43.009   2.184
21554W        W85278   7.257   4.856   3.752
21555W        W85279  35.931   2.434   2.702
21556W        W85280  36.960   6.214   1.780
21557W        W85281  16.632   8.371  14.427
21558W        W85282   9.744  32.064  12.921
21559W        W85283  22.132  40.998  13.020
21560W        W85284  40.798  33.010  13.348
21561W        W85285   3.790   5.712   4.309
21562W        W85286  13.106  15.738  14.822
21563W        W85287  16.171  10.232   3.677
21564W        W85288   8.365  14.339  10.950
21565W        W85289  13.840  26.195   4.159
21566W        W85290  34.889  37.512  12.997
21567W        W85291   0.378   1.314  11.607
21568W        W85292   8.833  20.683  12.825
21569W        W85293   6.404  16.167  12.480
21570W        W85294  43.412   9.807  14.349
21571W        W85295  27.670  37.961   3.678
21572W        W85296  40.798   9.236  10.980
21573W        W85297  10.255  42.887   0.767
21574W        W85298  18.638  28.518   3.642
21575W        W85299  11.127  29.653  12.545
21576W        W85300  31.522  43.494   1.237
21577W        W85301   6.676   1.931  10.514
21578W        W85302  24.554   7.296   1.811
21579W        W85303   8.228  23.650  13.056
21580W        W85304  36.883  17.708  12.877
21581W        W85305  20.206  26.204   4.305
21582W        W85306  37.072  27.464   0.302
21583W        W85307  33.482  36.434   0.433
21584W        W85308  19.562   7.408   0.450
21585W        W85309   0.439   4.313   3.690
21586W        W85310  36.938  15.282   5.637
21587W        W85311  44.374  26.456   0.443
21588W        W85312  42.419   5.273  13.011
21589W        W85313  18.731  11.632  11.054
21590W        W85314  17.094  37.558   2.217
21591W        W85315  39.368  11.268  13.956
21592W        W85316  28.091  31.408   3.778
21593W        W85317   6.266  31.401   0.247
21594W        W85318  31.971   4.247   1.421
21595W        W85319   3.262   2.281   3.264
21596W        W85320   2.734  13.645  14.284
21597W        W85321  32.607  13.259  14.430
21598W        W85322  31.138   0.909  11.956
21599W        W85323  29.494   5.347   4.809
21600W        W85324   8.875  20.758   3.753
21601W        W85325  44.289  30.553   3.777
21602W        W85326  32.606  44.309   1.927
21603W        W85327  10.720   7.678   0.410
21604W        W85328  17.148   3.847  13.957
21605W        W85329  42.516  26.117   2.196
21606W        W85330  29.548  11.692   1.849
21607W        W85331  10.347  19.147   0.476
21608W        W85332  24.155  22.153   4.214
21609W        W85333  19.572  40.010   1.814
21610W        W85334  34.500  32.010   3.179
21611W        W85335  31.596  36.563   2.756
21612W        W85336   0.251  14.213   0.930
21613W        W85337  24.565   9.187  13.880
21614W        W85338  41.501  29.089  14.890
21615W        W85339  41.403  22.517   1.770
21616W        W85340  26.125  40.864   2.382
21617W        W85341  19.210  38.397   5.184
21618W        W85342  24.488   9.842   9.928
21619W        W85343  11.655  11.699  14.321
21620W        W85344  37.432  42.400   2.840
21621W        W85345  10.199  15.718   4.203
21622W        W85346  20.167  13.616  13.915
21623W        W85347  21.552  22.107  10.442
21624W        W85348  27.450  23.716  11.492
21625W        W85349  19.727  34.529  13.439
21626W        W85350  16.177  20.033   2.887
21627W        W85351  41.928  29.032   5.287
21628W        W85352   9.651  25.497  10.942
21629W        W85353  28.480  19.698  14.454
21630W        W85354  38.914  36.841   4.254
21631W        W85355   9.167  32.621   4.167
21632W        W85356  41.905  14.672  11.611
21633W        W85357  28.577  30.952  13.983
21634W        W85358  22.198   1.799   1.269
21635W        W85359  22.205  42.879   0.868
21636W        W85360  24.078  44.423  14.945
21637W        W85361  21.542  43.798  14.485
21638W        W85362  31.063  26.048   0.806
21639W        W85363   4.743  16.134   4.276
21640W        W85364  29.140  27.464   0.444
21641W        W85365   5.334  42.389   3.672
21642W        W85366  39.395   7.381  13.829
21643W        W85367  34.372   6.240  14.396
21644W        W85368   9.153  32.917  13.860
21645W        W85369  24.147  35.858   5.206
21646W        W85370  12.614  34.084  11.475
21647W        W85371  11.236  23.685   0.849
21648W        W85372   6.892  15.777  13.374
21649W        W85373  38.890  15.203  11.118
21650W        W85374  36.564  18.098   3.665
21651W        W85375  10.163   3.949   1.358
21652W        W85376  43.779   6.746   1.794
21653W        W85377  43.301  26.486  13.856
21654W        W85378  36.858  21.722   4.230
21655W        W85379  11.361  29.549  11.499
21656W        W85380  34.989  14.730  13.334
21657W        W85381  37.015  28.524   2.334
21658W        W85382   7.854   0.869   1.734
21659W        W85383   8.294   6.370   1.295
21660W        W85384  11.349   2.431  13.055
21661W        W85385  27.488  17.187  14.498
21662W        W85386  24.230  17.707   0.294
21663W        W85387  39.032  19.753   5.110
21664W        W85388  44.282   2.722  14.807
21665W        W85389  19.696  15.680  12.515
21666W        W85390  38.015   8.327   2.703
21667W        W85391  12.351  32.600  12.965
21668W        W85392   8.343   6.793   2.202
21669W        W85393  11.312  41.899   2.338
21670W        W85394  15.601   7.855   5.303
21671W        W85395  12.130  29.614  10.404
21672W        W85396  20.588   9.852   0.894
21673W        W85397   2.400   0.438  13.407
21674W        W85398  14.826  12.671   3.774
21675W        W85399  20.758  11.785   4.636
21676W        W85400  42.318  38.950   4.606
21677W        W85401  20.181  35.893  12.855
21678W        W85402  31.620  35.406  11.905
21679W        W85403  44.918  16.752  13.364
21680W        W85404  15.818  18.728  13.317
21681W        W85405  15.601   2.807  12.363
21682W        W85406  22.140  19.718  14.348
21683W        W85407  10.764   2.867   4.281
21684W        W85408  31.094  44.271  10.065
21685W        W85409  30.430  30.111  14.827
21686W        W85410  23.238  36.527  13.463
21687W        W85411  36.085   9.291  13.827
21688W        W85412   6.731   6.755  11.610
21689W        W85413  43.485  19.200   3.648
21690W        W85414   5.800   9.807   1.735
21691W        W85415  27.018  39.500   4.782
21692W        W85416  31.029  29.517   1.396
21693W        W85417  32.985  20.713   3.783
21694W        W85418  40.821  17.731  10.634
21695W        W85419  22.664  20.209   4.769
21696W        W85420   0.912  41.420   0.286
21697W        W85421  10.811  11.308   2.800
21698W        W85422  12.814  32.935  11.609
21699W        W85423  17.680   4.411  10.481
21700W        W85424  24.611   0.468   2.887
21701W        W85425  14.311  30.522   0.824
21702W        W85426  34.988  24.026   4.703
21703W        W85427  27.172  31.958   2.868
21704W        W85428  24.987   5.302   2.275
21705W        W85429  13.236  18.682  13.868
21706W        W85430  12.800  14.215   4.305
21707W        W85431  35.873  14.764   3.150
21708W        W85432  43.935  32.564   0.946
21709W        W85433   2.304   6.872   2.358
21710W        W85434  11.704   9.311   4.710
21711W        W85435  32.601  27.529   3.787
21712W        W85436   0.350   9.855  12.930
21713W        W85437   6.385  31.969  10.408
21714W        W85438  12.361  18.785  13.035
21715W        W85439  41.428  18.705   3.631
21716W        W85440   8.267   8.352  14.917
21717W        W85441  15.715  25.500   0.347
21718W        W85442  42.318  31.128   0.316
21719W        W85443  28.673  13.628   1.741
21720W        W85444  31.524   6.765   3.331
21721W        W85445  36.396  31.921  14.975
21722W        W85446   7.778  44.275   5.123
21723W        W85447  10.863  15.263   1.875
21724W        W85448  11.129  20.272  13.460
21725W        W85449   5.783  44.775   0.287
21726W        W85450  27.169  19.590  12.890
21727W        W85451  11.782  31.110   2.864
21728W        W85452  41.814  26.169  13.415
21729W        W85453  34.939  32.620   2.745
21730W        W85454  37.886  29.635   0.370
21731W        W85455  13.250   8.678   2.809
21732W        W85456  30.573  33.567   3.276
21733W        W85457  42.854  27.991  11.861
21734W        W85458  17.596  27.549   4.185
21735W        W85459  10.375  42.883   3.190
21736W        W85460   2.320   0.963  13.461
21737W        W85461  39.334  39.951  14.761
21738W        W85462  20.664  16.210   1.440
21739W        W85463  32.508  32.928  10.436
21740W        W85464  26.055  31.925   3.384
21741W        W85465  36.856  14.221  13.981
21742W        W85466  38.466  28.642  12.569
21743W        W85467  22.608  28.958   1.384
21744W        W85468  37.346  20.084   0.368
21745W        W85469  36.456  30.462   3.320
21746W        W85470   6.220  42.020   4.668
21747W        W85471  36.919  41.329   3.787
21748W        W85472  17.595  25.520  13.844
21749W        W85473  29.946  35.382   2.414
21750W        W85474  39.471  10.282   0.347
21751W        W85475  29.979  19.672  13.970
21752W        W85476  34.378  42.908  12.047
21753W        W85477  25.158  23.691  12.051
21754W        W85478  44.846  16.241  13.379
21755W        W85479  10.161  31.632   4.302
21756W        W85480  27.006  24.032  11.043
21757W        W85481  14.723  35.513   3.297
21758W        W85482  27.479  17.260   3.252
21759W        W85483  40.470  25.523  12.973
21760W        W85484  14.663  13.234  13.426
21761W        W85485  39.426  16.214  11.088
21762W        W85486  37.525  21.048   1.334
21763W        W85487  17.750  33.901  14.475
21764W        W85488  35.068  22.732  14.500
21765W        W85489   9.177  25.468  11.425
21766W        W85490  31.555  43.894   3.344
21767W        W85491  12.261   0.409  12.469
21768W        W85492  26.121  41.365   1.401
21769W        W85493  20.763  10.299   3.858
21770W        W85494  29.015  24.183   2.202
21771W        W85495   4.925  12.785  12.972
21772W        W85496  38.526  43.786  13.467
21773W        W85497  42.905  16.758  10.633
21774W        W85498  30.156  41.428   0.335
21775W        W85499  10.363  15.116  12.401
21776W        W85500  28.103  26.175   3.634
21777W        W85501  28.617  38.920  13.332
21778W        W85502   8.894  11.158  12.016
21779W        W85503  27.017  11.160   3.248
21780W        W85504  41.002  26.200  12.067
21781W        W85505  17.672  24.072   2.361
21782W        W85506  34.929  43.309   4.149
21783W        W85507  11.175  29.530   4.829
21784W        W85508   1.734  13.257   1.407
21785W        W85509  18.584  18.071  11.602
21786W        W85510  26.049  34.466  14.484
21787W        W85511  25.059  16.701   2.213
21788W        W85512  13.207  34.044  13.987
21789W        W85513  14.176  42.009   2.382
21790W        W85514  15.169  13.117  13.424
21791W        W85515  18.230  31.640  11.941
21792W        W85516  36.480  10.153  13.533
21793W        W85517  35.941  27.040   4.262
21794W        W85518  19.714  24.699  13.326
21795W        W85519  32.048  28.459   3.196
21796W        W85520  24.708   6.288  14.761
21797W        W85521   2.906  33.599   2.278
21798W        W85522  26.568  43.457  10.485
21799W        W85523  15.683  25.110  10.026
21800W        W85524  21.513   8.751  14.892
21801W        W85525  18.748  40.896   3.383
21802W        W85526  37.397  33.050   3.184
21803W        W85527  13.748  13.699  13.363
21804W        W85528  42.033  28.626  12.967
21805W        W85529  26.984  18.707  14.356
21806W        W85530  10.826  11.779   9.935
21807W        W85531  34.890   6.728   3.329
21808W        W85532  38.537  43.850   3.193
21809W        W85533  43.869  24.701   1.359
21810W        W85534  41.464  12.193   1.805
21811W        W85535  28.143  18.242   1.228
21812W        W85536  30.486  43.290  14.851
21813W        W85537  15.737   3.310  12.465
21814W        W85538   2.418   1.770  10.580
21815W        W85539   1.965  21.638   0.395
21816W        W85540  27.031  20.239  10.907
21817W        W85541  22.229  20.048  10.929
21818W        W85542  21.219   6.908   3.718
21819W        W85543  18.060  14.623  13.418
21820W        W85544  11.700  30.653  10.630
21821W        W85545  29.056  23.513  11.105
21822W        W85546   5.756  43.475  13.352
21823W        W85547  35.960  36.484   0.463
21824W        W85548  43.952  36.968   2.317
21825W        W85549  42.420  35.106   5.294
21826W        W85550  44.452  37.877   1.780
21827W        W85551  18.107  28.499  12.946
21828W        W85552  34.966  15.309   2.401
21829W        W85553  11.769  40.481   0.922
21830W        W85554  16.144  19.734  12.470
21831W        W85555  40.040  12.740  13.045
21832W        W85556   7.352  43.283  10.915
21833W        W85557  32.446  15.671  12.975
21834W        W85558  44.469   6.223   3.180
21835W        W85559  16.782  17.727   2.301
21836W        W85560  19.662  16.159   2.666
21837W        W85561  21.232  18.188   2.334
21838W        W85562  12.761  29.471   2.867
21839W        W85563  22.580   6.290   4.717
21840W        W85564  29.603  18.660   4.729
21841W        W85565  41.405  18.190   1.237
21842W        W85566  25.211  31.148  14.869
21843W        W85567  30.049  32.961  10.587
21844W        W85568  13.701  28.062  12.951
21845W        W85569  27.130  41.986   0.886
21846W        W85570  13.635  44.791  14.348
21847W        W85571  38.026  17.611  13.433
21848W        W85572  35.489  15.110  14.475
21849W        W85573   1.919  42.443  13.061
21850W        W85574  33.932  31.500  12.493
21851W        W85575  37.465  26.185   2.229
21852W        W85576  36.588  33.617   4.778
21853W        W85577  17.615   5.860   0.896
21854W        W85578   1.476  32.483  12.032
21855W        W85579  16.121  31.505   2.759
21856W        W85580  23.546  37.891  13.956
21857W        W85581  23.987  15.188  12.012
21858W        W85582   7.706   1.969   9.965
21859W        W85583   7.172  29.424   1.905
21860W        W85584  27.112   0.960  10.008
21861W        W85585   5.818   8.856   1.929
21862W        W85586  10.278  44.771  13.388
21863W        W85587  42.832  28.077  11.428
21864W        W85588  25.547  36.009   2.292
21865W        W85589  16.622  24.050   0.808
21866W        W85590  31.042  42.976  13.854
21867W        W85591   1.920  16.724  13.353
21868W        W85592  25.612  21.244   2.771
21869W        W85593  42.776  13.825  12.901
21870W        W85594   3.844  36.445   0.436
21871W        W85595   9.235  33.502   3.346
21872W        W85596  43.502  36.962   0.261
21873W        W85597  41.425   7.820  14.966
21874W        W85598  33.932  36.510   2.882
21875W        W85599  20.755   3.235   2.801
21876W        W85600  32.589  30.067   0.245
21877W        W85601  16.224  28.964  13.513
21878W        W85602   9.322   4.424  14.809
21879W        W85603  41.831  19.677  14.345
21880W        W85604   6.420  44.770   3.658
21881W        W85605  27.042  22.137   4.790
21882W        W85606  23.554  26.121   4.729
21883W        W85607   8.654  27.520  11.528
21884W        W85608  32.563   1.352  11.086
21885W        W85609   0.902  33.390   3.256
21886W        W85610  27.527  39.383  13.912
21887W        W85611  42.339  44.345  14.982
21888W        W85612  42.815  12.191   2.678
21889W        W85613   8.808  33.961   4.279
21890W        W85614  42.401  31.111   4.352
21891W        W85615  33.878  10.307  11.429
21892W        W85616  10.211   3.262  10.898
21893W        W85617  28.657   4.247   4.330
21894W        W85618   4.338  28.680   1.290
21895W        W85619  18.596  38.325  12.057
21896W        W85620  36.529  44.470  14.774
21897W        W85621  34.507  17.579  10.432
21898W        W85622  31.948  21.742  14.308
21899W        W85623  15.102   6.758   2.227
21900W        W85624  37.959  33.083   3.848
21901W        W85625  21.214  18.582  11.500
21902W        W85626  30.551  42.873  13.986
21903W        W85627  23.605   0.789  10.491
21904W        W85628  26.665  20.172   3.823
21905W        W85629  22.714   1.860  10.074
21906W        W85630  14.747  26.621   1.319
21907W        W85631  31.468  25.470  13.040
21908W        W85632  16.759  20.099  11.467
21909W        W85633  17.791  31.543   3.730
21910W        W85634  26.581  35.515   4.270
21911W        W85635  30.650   7.188  14.853
21912W        W85636  23.634  33.620  10.643
21913W        W85637  43.459  28.100  13.021
21914W        W85638   7.851  18.123  13.863
21915W        W85639  31.529  10.665  12.856
21916W        W85640   5.260  36.466   1.704
21917W        W85641  23.580  13.746  14.348
21918W        W85642   3.380   3.220   4.827
21919W        W85643  33.542  22.649  13.543
21920W        W85644  32.095  23.530  14.908
21921W        W85645  27.032   4.830   0.281
21922W        W85646  22.141  22.029   4.614
21923W        W85647  37.862   8.257   1.247
21924W        W85648  40.850  37.927  13.923
21925W        W85649  34.023  28.022  14.476
21926W        W85650  18.103   8.714   1.434
21927W        W85651  27.978  20.734   2.362
21928W        W85652  34.924  32.888   0.763
21929W        W85653  42.953  40.512  11.445
21930W        W85654  43.368  13.163  13.450
21931W        W85655  14.738  41.790   2.200
21932W        W85656  25.517  31.464  12.979
21933W        W85657  30.622  22.580   1.735
21934W        W85658  31.406   2.824  12.908
21935W        W85659  18.740  26.546  14.322
21936W        W85660   7.758  42.905   2.229
21937W        W85661  28.972  34.945   4.131
21938W        W85662  10.382  25.602  11.484
21939W        W85663  41.033  33.593   4.121
21940W        W85664  40.530   1.451  11.496
21941W        W85665   0.755   7.698   4.664
21942W        W85666   7.262   3.937  14.344
21943W        W85667  16.676   2.463   3.686
21944W        W85668  15.651   9.855   2.824
21945W        W85669  27.049  21.754  12.374
21946W        W85670  20.701   6.910  10.567
21947W        W85671  30.006  34.064   1.809
21948W        W85672  22.743  17.725  13.499
21949W        W85673   3.767  24.643   3.670
21950W        W85674  11.834   8.349   3.187
21951W        W85675   2.916  21.232  13.960
21952W        W85676  32.001  17.307   1.365
21953W        W85677  35.485  13.164  11.613
21954W        W85678  40.969  32.978   4.658
21955W        W85679   6.182  16.633  11.380
21956W        W85680  44.907  17.263  11.522
21957W        W85681   7.757  15.621  10.601
21958W        W85682  10.772  34.071  13.909
21959W        W85683   8.246  43.355   1.373
21960W        W85684  12.695  35.069   3.841
21961W        W85685  19.125  25.688   4.251
21962W        W85686   2.356   5.389   3.320
21963W        W85687  13.658  30.004   3.848
21964W        W85688  32.580  23.095  13.354
21965W        W85689  15.246  32.012  13.816
21966W        W85690  42.385  44.902   2.399
21967W        W85691  26.526  44.866   2.347
21968W        W85692  27.016  37.985  14.026
21969W        W85693  21.730   3.882  14.921
21970W        W85694  19.741  39.339  14.437
21971W        W85695  10.273  22.142   0.782
21972W        W85696  21.584   0.750   0.921
21973W        W85697  23.205  23.077  11.414
21974W        W85698  36.908  16.802   0.242
21975W        W85699  20.103   0.938   0.891
21976W        W85700   6.372  36.366  14.841
21977W        W85701  32.017  13.607  10.594
21978W        W85702   7.856  21.051  11.959
21979W        W85703  33.401   0.329  12.025
21980W        W85704  39.357   8.332   4.205
21981W        W85705  22.681   4.401  13.954
21982W        W85706  24.174  12.653   2.388
21983W        W85707  33.883   6.350  10.624
21984W        W85708  40.493  40.362   3.176
21985W        W85709  23.621  38.351  13.030
21986W        W85710   2.375  36.091   3.324
21987W        W85711  10.720  23.989   1.745
21988W        W85712   0.271  20.673   2.310
21989W        W85713  14.688  16.676  12.385
21990W        W85714  41.893  24.153  12.467
21991W        W85715  37.958   7.910   1.389
21992W        W85716  18.121  29.138  13.843
21993W        W85717  37.071  12.278  14.998
21994W        W85718  34.094  25.537  10.445
21995W        W85719   2.876  42.289   0.805
21996W        W85720  14.184  25.650  14.464
21997W        W85721  31.148  29.051  10.422
21998W        W85722   3.409  13.335  12.539
21999W        W85723   4.883   6.755   1.759
22000W        W85724  14.816   2.262   2.684
22001W        W85725  31.442  20.752   2.273
22002W        W85726   0.915  14.193  10.905
22003W        W85727  11.220   4.376   0.270
22004W        W85728  32.011  32.905   1.710
22005W        W85729  42.867  21.227  10.151
22006W        W85730  30.980  41.910   1.750
22007W        W85731  18.217  34.043   1.823
22008W        W85732  36.892   9.789  11.079
22009W        W85733  20.106  26.080  14.024
22010W        W85734  16.637  21.142  13.403
22011W        W85735   9.378   8.766   1.929
22012W        W85736  40.914  20.588  11.065
22013W        W85737   9.860  36.953  13.480
22014W        W85738  40.316  35.948  13.483
22015W        W85739  14.159  23.058   4.667
22016W        W85740  34.418  36.476  12.026
22017W        W85741  44.949  32.079   3.720
22018W        W85742   1.476   3.732   4.170
22019W        W85743  32.540  14.629   2.787
22020W        W85744  36.899  15.584   2.236
22021W        W85745   4.705  28.009  10.562
22022W        W85746  37.993  40.988  10.472
22023W        W85747   6.676  32.057   3.716
22024W        W85748  30.907   7.860   3.834
22025W        W85749  22.062   7.740  14.927
22026W        W85750   7.845  22.713  12.999
22027W        W85751  21.577  17.218  13.063
22028W        W85752  32.616  24.194  14.297
22029W        W85753   5.242  38.536  11.033
22030W        W85754  32.914  10.325  10.927
22031W        W85755  21.630  21.102   3.636
22032W        W85756   3.308  10.161  11.401
22033W        W85757   6.845   4.716   2.839
22034W        W85758  40.328  37.406  13.402
22035W        W85759  36.580  42.339   2.181
22036W        W85760   2.826  44.863  11.528
22037W        W85761   8.380  32.537  10.920
22038W        W85762  23.015  28.538  13.932
22039W        W85763  29.625  26.058   1.912
22040W        W85764  43.992  14.294  13.904
22041W        W85765  12.809  15.159   2.828
22042W        W85766  20.083  27.063  14.432
22043W        W85767  29.481  28.577  11.872
22044W        W85768  33.121   9.168  11.101
22045W        W85769  15.747  37.378  14.902
22046W        W85770  23.207   3.775   1.841
22047W        W85771  29.540  32.436  13.037
22048W        W85772   0.395  18.608   1.413
22049W        W85773  12.336   1.457   0.318
22050W        W85774   9.649   0.329   1.286
22051W        W85775  13.649  12.666  11.375
22052W        W85776  23.173  22.042  14.890
22053W        W85777   4.832   1.365  12.918
22054W        W85778  40.337   3.273  13.402
22055W        W85779  35.587  38.062   4.235
22056W        W85780   1.774  19.701  13.806
22057W        W85781  17.664  24.162   4.794
22058W        W85782  29.629  38.847   4.768
22059W        W85783  20.152  40.035   0.457
22060W        W85784  39.332  29.559   0.243
22061W        W85785  38.406   4.329  13.821
22062W        W85786  33.529  34.945   2.273
22063W        W85787  29.552  35.933   4.636
22064W        W85788  24.089  29.545  13.911
22065W        W85789  33.125   8.870   2.699
22066W        W85790  12.678  35.020   2.799
22067W        W85791  27.068  39.322   3.635
22068W        W85792   3.867  21.092   2.671
22069W        W85793  44.310   3.375   5.280
22070W        W85794  39.939  28.648  12.476
22071W        W85795   9.208  22.734  14.007
22072W        W85796   7.835  12.232   2.228
22073W        W85797  41.992  39.046  14.428
22074W        W85798  28.585  26.589   0.901
22075W        W85799   0.920  44.759   1.383
22076W        W85800   5.295  28.132  13.942
22077W        W85801  19.630   9.279  10.437
22078W        W85802  11.364  35.002  12.075
22079W        W85803  30.447   5.360   2.329
22080W        W85804   2.312  10.373  11.484
22081W        W85805   2.906  34.541   4.330
22082W        W85806  12.276  36.986  11.946
22083W        W85807  28.630  36.579   3.288
22084W        W85808   5.799  10.225   9.948
22085W        W85809  23.089   1.363  14.973
22086W        W85810   9.878  22.238  13.925
22087W        W85811  23.048   9.837   1.350
22088W        W85812  12.237  36.019  14.900
22089W        W85813  17.160  44.841  13.884
22090W        W85814  25.559  37.030   1.352
22091W        W85815  20.156  21.550   2.670
22092W        W85816  13.121   4.789   3.278
22093W        W85817  37.867  38.495   0.732
22094W        W85818  23.158  39.364  13.358
22095W        W85819  40.955  18.721  12.450
22096W        W85820  28.029  29.668   1.863
22097W        W85821   6.377  14.152   0.768
22098W        W85822   8.700  16.574  12.366
22099W        W85823  44.903  29.103  13.882
22100W        W85824   7.377  31.901   3.684
22101W        W85825  37.963  44.881   9.568
22102W        W85826  25.159  28.495   4.161
22103W        W85827  15.322  25.575   0.440
22104W        W85828  35.852  22.621  11.980
22105W        W85829  33.434  44.388  13.524
22106W        W85830  14.159  13.639   4.610
22107W        W85831  26.596  23.703   2.287
22108W        W85832   1.802  15.594   3.824
22109W        W85833  18.691  13.816  13.516
22110W        W85834  30.959  42.342   0.901
22111W        W85835  15.807   1.958   0.436
22112W        W85836  26.113  33.955   0.450
22113W        W85837   5.716  10.849   9.951
22114W        W85838  42.385  12.819  12.996
22115W        W85839  12.653  37.896  14.514
22116W        W85840  27.181   0.937   4.278
22117W        W85841  42.470   1.914   0.282
22118W        W85842  44.275  30.624  12.936
22119W        W85843   6.199  15.327   0.361
22120W        W85844   0.760  22.047  11.895
22121W        W85845  42.958  13.843  11.549
22122W        W85846   6.762  19.216   3.790
22123W        W85847   4.826  12.120   4.179
22124W        W85848  38.072  41.789  12.987
22125W        W85849  25.571  12.678  13.542
22126W        W85850  42.959   7.673  13.435
22127W        W85851  19.657   0.462  12.892
22128W        W85852   4.241  27.457   0.777
22129W        W85853  21.131  32.498   2.272
22130W        W85854  36.446  25.024   1.798
22131W        W85855  38.037  18.640  13.850
22132W        W85856  17.759  11.290  12.462
22133W        W85857   4.275  23.120   0.282
22134W        W85858   2.791  31.521   2.837
22135W        W85859   5.309   5.853  12.925
22136W        W85860   5.875  40.436  11.005
22137W        W85861  29.150  28.082   0.424
22138W        W85862  40.395   5.881   3.277
22139W        W85863  38.820  43.301  14.928
22140W        W85864  31.617  42.954  11.937
22141W        W85865  13.156  25.687  11.460
22142W        W85866  33.471  28.681   0.891
22143W        W85867  33.510   2.906  11.891
22144W        W85868  33.876  20.179  14.483
22145W        W85869  32.526   7.371  14.284
22146W        W85870  19.088  41.796  14.991
22147W        W85871  27.576  44.793   1.857
22148W        W85872  40.394  18.687   3.751
22149W        W85873  10.141  43.852   0.964
22150W        W85874  13.189  25.474   1.862
22151W        W85875  25.709  37.479  12.436
22152W        W85876  37.376   7.341   2.695
22153W        W85877  42.497  16.256  12.968
22154W        W85878  22.015  16.134   4.131
22155W        W85879  15.617  19.679   4.198
22156W        W85880  19.268  24.618  11.097
22157W        W85881  36.515  14.771  10.501
22158W        W85882  35.495  11.176   4.161
22159W        W85883  12.223   2.456   1.864
22160W        W85884  13.664   6.403  11.523
22161W        W85885  17.297  14.665   0.791
22162W        W85886  36.090  14.210  12.500
22163W        W85887  38.069  33.056  10.419
22164W        W85888   1.937  30.537  11.477
22165W        W85889  14.118  44.471  11.077
22166W        W85890   3.367  40.860   4.685
22167W        W85891  33.006  30.575  14.370
22168W        W85892  41.945  33.505   4.808
22169W        W85893   7.804  31.496  11.378
22170W        W85894  16.688  34.507  10.429
22171W        W85895  17.677  18.779  11.546
22172W        W85896   9.717  17.237   1.407
22173W        W85897  11.195  39.453   1.429
22174W        W85898  25.201  37.460  13.050
22175W        W85899  10.294   4.272  12.462
22176W        W85900   8.235   8.310   2.239
22177W        W85901  22.689  35.933  11.105
22178W        W85902  44.378  16.705  10.421
22179W        W85903  13.138  35.958  13.419
22180W        W85904   2.443  24.485  13.858
22181W        W85905  42.857  10.721   4.708
22182W        W85906  25.207  25.130   4.790
22183W        W85907  28.076   3.223  14.946
22184W        W85908   6.729  16.785   4.114
22185W        W85909  33.019   1.384  13.337
22186W        W85910  30.957   9.359   1.286
22187W        W85911  32.491  27.945  11.987
22188W        W85912  11.328  36.467   3.764
22189W        W85913  34.115  22.599  14.862
22190W        W85914  43.288   1.272   2.407
22191W        W85915  22.172  14.589  11.482
22192W        W85916   7.383  36.099  14.315
22193W        W85917  10.383  40.039   1.844
22194W        W85918   2.235   5.291  14.944
22195W        W85919  42.346  31.479  12.387
22196W        W85920   7.383  14.241  12.494
22197W        W85921   1.846  25.711  12.025
22198W        W85922  14.609  14.778  14.841
22199W        W85923  12.298  35.410   1.409
22200W        W85924  20.221  36.082  11.025
22201W        W85925  10.197   1.280  14.387
22202W        W85926   1.749  39.511  12.444
22203W        W85927  34.960  38.902   3.291
22204W        W85928  34.890  10.299   2.845
22205W        W85929  44.925  38.877  13.349
22206W        W85930  23.989  38.941   1.695
22207W        W85931  40.822  41.906  12.030
22208W        W85932   7.693  15.614   1.917
22209W        W85933  41.350   7.199  11.115
22210W        W85934  19.083   6.423  11.871
22211W        W85935  15.746  27.528  14.780
22212W        W85936  29.153  36.542  11.459
22213W        W85937   8.362  27.468  12.358
22214W        W85938  31.446  10.220   9.978
22215W        W85939  21.617  15.116   5.576
22216W        W85940   4.348  37.835  11.084
22217W        W85941  40.423   5.847   0.327
22218W        W85942  11.346   3.917   0.765
22219W        W85943  21.059  27.940  13.372
22220W        W85944  26.956  18.250  10.616
22221W        W85945   7.738  14.294  14.965
22222W        W85946  36.937  34.437  13.469
22223W        W85947  32.928  14.307   2.240
22224W        W85948  25.154  27.111  14.405
22225W        W85949  32.538  30.953   3.799
22226W        W85950  20.545  30.004  14.500
22227W        W85951   8.175  32.085  10.635
22228W        W85952   4.226  29.630   0.888
22229W        W85953  22.193  31.012   1.433
22230W        W85954  24.590  42.519   4.148
22231W        W85955  20.652   2.332  11.972
22232W        W85956  44.262  33.966   4.616
22233W        W85957  33.034   8.862   2.342
22234W        W85958  26.675  12.738  14.021
22235W        W85959  23.214  16.265  12.855
22236W        W85960  17.768  26.177   2.839
22237W        W85961  17.091   1.934  12.851
22238W        W85962  26.994  31.501  11.903
22239W        W85963  34.530  23.687   1.833
22240W        W85964  21.096  11.229   0.483
22241W        W85965   3.359  28.020   4.628
22242W        W85966  32.494  44.916   4.156
22243W        W85967  25.166  24.164   4.630
22244W        W85968  14.746   2.945  13.501
22245W        W85969  12.704  26.030  11.592
22246W        W85970   0.977  15.244   4.120
22247W        W85971  27.043  35.414  14.514
22248W        W85972  41.801  16.625  14.787
22249W        W85973  26.078  25.103   1.326
22250W        W85974  20.667   7.740   2.878
22251W        W85975  44.463  31.973   5.202
22252W        W85976  42.303  32.492  11.598
22253W        W85977   8.815  35.988   4.780
22254W        W85978   1.929  26.138   2.306
22255W        W85979  20.082   0.361   4.771
22256W        W85980  26.573  32.023   0.885
22257W        W85981   7.273  13.239  10.005
22258W        W85982  26.031   5.730  14.965
22259W        W85983  28.120   9.744   1.339
22260W        W85984   2.389  37.938  11.951
22261W        W85985  26.169   0.797   2.366
22262W        W85986  19.219   6.282   1.447
22263W        W85987  34.494  40.824   0.415
22264W        W85988  20.623  32.889   3.819
22265W        W85989  28.626  42.339  12.418
22266W        W85990  12.361  43.806  11.505
22267W        W85991  22.154  17.742  11.962
22268W        W85992  43.853  38.885  14.396
22269W        W85993   3.411  28.000  10.439
22270W        W85994  38.909   5.380   4.204
22271W        W85995  35.538  40.053  11.603
22272W        W85996  37.385  37.384   2.681
22273W        W85997   4.731  33.537  12.004
22274W        W85998  28.139  27.530   0.785
22275W        W85999   8.172  24.991  14.920
22276W        W86000  22.639   3.831   1.281
22277W        W86001  35.403  40.337   3.810
22278W        W86002  20.678  37.455  13.514
22279W        W86003  27.502   8.772  12.090
22280W        W86004   2.859  37.469  13.881
22281W        W86005  34.018  21.022   3.756
22282W        W86006  21.252  23.217   4.750
22283W        W86007  16.794  40.966   0.847
22284W        W86008  32.073   2.942  11.457
22285W        W86009   2.721  19.536  14.437
22286W        W86010   1.447  25.554   3.159
22287W        W86011   3.732  12.221   4.239
22288W        W86012  15.290  23.515  12.986
22289W        W86013  33.085  36.971  13.007
22290W        W86014  40.967  18.771   2.306
22291W        W86015   7.725  40.399  14.996
22292W        W86016  41.906  29.145   3.666
22293W        W86017   8.325  23.237   2.810
22294W        W86018  23.651  22.706   0.770
22295W        W86019  19.230  34.999   4.314
22296W        W86020  16.226  13.325   0.771
22297W        W86021  28.581  31.417   2.702
22298W        W86022  25.640   2.451   3.660
22299W        W86023  28.660  17.562  11.441
22300W        W86024  31.586  17.285   3.207
22301W        W86025  36.478  24.601  12.551
22302W        W86026  42.321  23.079  13.051
22303W        W86027  35.407  28.931  13.872
22304W        W86028   2.466  36.086  11.985
22305W        W86029  34.008  34.950   1.808
22306W        W86030   3.710   7.762   1.716
22307W        W86031   2.265  34.874  10.576
22308W        W86032  27.665  37.410   4.741
22309W        W86033  33.398  27.544   4.169
22310W        W86034  43.312   9.201   4.635
22311W        W86035   5.785  37.512  14.901
22312W        W86036   0.794  28.102   4.315
22313W        W86037  30.513  10.332  10.419
22314W        W86038  15.126  16.159  12.481
22315W        W86039  31.466  13.336  12.854
22316W        W86040  31.028   8.823   3.748
22317W        W86041  13.107  20.758  14.477
22318W        W86042  22.045   1.318   0.458
22319W        W86043  34.951   8.396  13.849
22320W        W86044  28.592  43.842   3.810
22321W        W86045   8.399  35.443  10.987
22322W        W86046   5.759  33.988   0.904
22323W        W86047  40.426  11.810  14.472
22324W        W86048  23.008  37.866   0.894
22325W        W86049  27.171  20.260  14.015
22326W        W86050  40.471  19.606   2.672
22327W        W86051  27.628  27.147  11.497
22328W        W86052  29.664   9.875  14.350
22329W        W86053  28.635  40.531  13.512
22330W        W86054  17.602   3.302  14.312
22331W        W86055  28.501  38.053   3.784
22332W        W86056  42.863  41.329  14.488
22333W        W86057   2.783   4.334  10.407
22334W        W86058   0.356  42.005  12.003
22335W        W86059   6.807  24.559   3.683
22336W        W86060   6.239  28.565   4.649
22337W        W86061  24.219   3.851  13.971
22338W        W86062  10.726  17.151  10.892
22339W        W86063  42.919  21.066  14.449
22340W        W86064  23.025  22.740   4.746
22341W        W86065  29.614  13.339   1.743
22342W        W86066  32.024  36.990   0.809
22343W        W86067  18.670   6.758  10.480
22344W        W86068  11.835  11.264   4.673
22345W        W86069  35.460  27.097   4.829
22346W        W86070  37.839  37.865  12.828
22347W        W86071  29.521  28.083   0.904
22348W        W86072  12.308  20.580   0.834
22349W        W86073  43.358  10.335   2.186
22350W        W86074   6.374  22.531   4.804
22351W        W86075  22.009  12.240   2.222
22352W        W86076   8.892  32.018   0.906
22353W        W86077  18.130   2.892  10.588
22354W        W86078  26.041  16.250   2.880
22355W        W86079  17.182   1.803  12.417
22356W        W86080  40.811  24.175  14.492
22357W        W86081  34.966  11.854  12.941
22358W        W86082   7.345  35.381  11.988
22359W        W86083  28.042  11.192   0.752
22360W        W86084  30.064   8.881  13.819
22361W        W86085   4.390  40.908   2.325
22362W        W86086  32.101  17.767   2.818
22363W        W86087  17.606   6.185   9.651
22364W        W86088  20.049  21.168   0.369
22365W        W86089  38.868   9.885   1.858
22366W        W86090  37.013  18.286   0.751
22367W        W86091  37.072  11.138   1.876
22368W        W86092  15.203  28.033  12.417
22369W        W86093  12.799  33.036   1.869
22370W        W86094   2.412   1.292   4.634
22371W        W86095  43.497   0.269   0.355
22372W        W86096  38.829  32.579  12.068
22373W        W86097  14.656  29.144  14.307
22374W        W86098  31.438  18.758   2.827
22375W        W86099   7.723  19.674  14.798
22376W        W86100  36.853  24.990   3.263
22377W        W86101  28.646  28.586  14.427
22378W        W86102  25.548  43.464   4.284
22379W        W86103  15.689  16.282  11.478
22380W        W86104  20.174  27.156   1.706
22381W        W86105  22.174  25.694   4.351
22382W        W86106  14.685   0.773  11.426
22383W        W86107   2.448  15.753  11.482
22384W        W86108  32.445  40.456  12.358
22385W        W86109  11.277  40.856   1.308
22386W        W86110  12.275  15.263   4.346
22387W        W86111  20.263  40.014  12.028
22388W        W86112  28.170  13.723   2.716
22389W        W86113  12.288  18.147  10.889
22390W        W86114  16.591  39.471   0.949
22391W        W86115   9.203  26.682  10.062
22392W        W86116  11.275   9.386  11.887
22393W        W86117   9.234  17.290   4.220
22394W        W86118  16.783   5.829  13.898
22395W        W86119  25.983  42.454  12.992
22396W        W86120   1.460  44.337  12.390
22397W        W86121   1.797   2.920  10.918
22398W        W86122  35.103  14.231  12.465
22399W        W86123  18.713  18.564  12.897
22400W        W86124   6.326  35.448   2.860
22401W        W86125   9.336   5.257   0.831
22402W        W86126   5.777   3.785  11.886
22403W        W86127  38.012   8.202  13.798
22404W        W86128  10.340  39.343  13.900
22405W        W86129   0.462   3.769   4.277
22406W        W86130  32.604  22.746  14.002
22407W        W86131  26.199  32.014  11.045
22408W        W86132  40.995  33.443   2.225
22409W        W86133  12.651   8.203   1.355
22410W        W86134   9.873   8.193   2.683
22411W        W86135  23.687   6.358  13.326
22412W        W86136  36.548  38.550  14.983
22413W        W86137  44.916  27.995   1.757
22414W        W86138  35.066  14.298   0.254
22415W        W86139  33.459  18.122  12.949
22416W        W86140  20.597  43.764  11.049
22417W        W86141  42.960  24.050  10.440
22418W        W86142  21.159  41.821  12.860
22419W        W86143   1.392   1.813  11.884
22420W        W86144   0.424  33.970   0.730
22421W        W86145  39.386  32.604   4.666
22422W        W86146   5.219  16.595   2.341
22423W        W86147  32.448  37.050  11.928
22424W        W86148  25.572   7.402   0.869
22425W        W86149  26.177  23.633  14.375
22426W        W86150  29.643  41.958  11.056
22427W        W86151  41.533   0.290   4.801
22428W        W86152   8.822  36.000   2.709
22429W        W86153  11.721  27.993   3.153
22430W        W86154  20.261   6.218   2.857
22431W        W86155   7.836  42.478   0.305
22432W        W86156  34.048   4.443   2.258
22433W        W86157  44.769  42.299  11.123
22434W        W86158  42.435   8.900  10.540
22435W        W86159  15.294  17.077  14.482
22436W        W86160  41.837   6.301   4.785
22437W        W86161  17.772  27.581  10.515
22438W        W86162  27.135  40.408  11.585
22439W        W86163   4.923  25.094   4.803
22440W        W86164  44.476  32.476  12.002
22441W        W86165  19.741  32.462   2.857
22442W        W86166   5.277  33.411  14.798
22443W        W86167  24.672  14.107  12.508
22444W        W86168  12.851   7.219   4.753
22445W        W86169  40.806  27.198   0.385
22446W        W86170  32.627   0.939  14.349
22447W        W86171   5.382  18.642   4.604
22448W        W86172   8.876  16.210   0.245
22449W        W86173  22.719  15.102  10.582
22450W        W86174  26.612  33.623   1.384
22451W        W86175  43.454  21.200   1.716
22452W        W86176  18.603   6.877  11.023
22453W        W86177  38.552  20.575   2.735
22454W        W86178   2.427  15.124   2.394
22455W        W86179  40.853  15.231  11.597
22456W        W86180   2.886  28.054  10.435
22457W        W86181   9.694  20.084   0.757
22458W        W86182  30.043  41.930   0.385
22459W        W86183  32.572   7.736  13.063
22460W        W86184  31.919   5.832  14.802
22461W        W86185  27.585  22.620   0.380
22462W        W86186   5.817  21.727  13.499
22463W        W86187   4.210   9.267  14.340
22464W        W86188  25.678  31.103   0.306
22465W        W86189  16.648  19.738   2.736
22466W        W86190   3.880  36.034  14.306
22467W        W86191  10.856  41.809   1.358
22468W        W86192  28.536  21.516   2.814
22469W        W86193  19.144   4.844   0.740
22470W        W86194   8.392   7.859   1.868
22471W        W86195   9.692  34.437  14.413
22472W        W86196   4.391  19.228  11.972
22473W        W86197  18.276  39.808  13.892
22474W        W86198  34.552  17.192   5.105
22475W        W86199   2.819  44.344  13.344
22476W        W86200  38.413  28.605   3.809
22477W        W86201  41.377  31.613  11.382
22478W        W86202  11.168  41.378  10.587
22479W        W86203  32.476  24.199   2.338
22480W        W86204  11.266   1.331   4.748
22481W        W86205  35.008   7.867   2.366
22482W        W86206  38.834   0.898   2.363
22483W        W86207  30.031  20.630   2.737
22484W        W86208  27.189  32.581  13.464
22485W        W86209  19.177   1.949   4.321
22486W        W86210   7.354   6.368  10.403
22487W        W86211  24.048  27.663   9.950
22488W        W86212  16.304  34.574   1.232
22489W        W86213   9.858   4.826  12.510
22490W        W86214   7.310   2.308  11.543
22491W        W86215  26.013   3.911   0.277
22492W        W86216  31.461   8.684  13.364
22493W        W86217  19.269  21.217   3.341
22494W        W86218   7.807  10.370  14.437
22495W        W86219  21.535  20.251  11.903
22496W        W86220  42.906  16.617   0.809
22497W        W86221  23.183  31.976   3.347
22498W        W86222  10.304  35.460  12.845
22499W        W86223  41.488  38.046   2.664
22500W        W86224  36.460  33.107   0.295
22501W        W86225  26.615  28.074   5.280
22502W        W86226  27.943  32.914  14.830
22503W        W86227  10.873   5.231  13.029
22504W        W86228  41.449  21.561   2.707
22505W        W86229  15.689  30.557  11.978
22506W        W86230  17.557   6.853  12.000
22507W        W86231  42.799   6.790   4.815
22508W        W86232  32.470  24.574  12.375
22509W        W86233  30.489   9.230  12.954
22510W        W86234  11.712  19.578   3.731
22511W        W86235   9.768  18.581   3.776
22512W        W86236  37.465  39.530  12.848
22513W        W86237   2.250  33.430  11.560
22514W        W86238  37.832  36.481  11.075
22515W        W86239  35.519  34.434  13.931
22516W        W86240  22.229   8.716   1.730
22517W        W86241  33.512  39.360   0.854
22518W        W86242  28.011  35.445   1.262
22519W        W86243  28.065  44.969   1.896
22520W        W86244  31.512   6.329   1.425
22521W        W86245  38.340   1.430   0.424
22522W        W86246  31.604  36.588  11.883
22523W        W86247  15.685  25.606   2.412
22524W        W86248  38.428  27.009   2.788
22525W        W86249   7.298  13.716   1.826
22526W        W86250   2.443  17.194   2.290
22527W        W86251  23.226  11.818   2.705
22528W        W86252  17.773  31.941   4.708
22529W        W86253  13.106  15.734  14.454
22530W        W86254  24.590  36.409   2.887
22531W        W86255  37.408   8.779  11.373
22532W        W86256  33.933  17.210   1.336
22533W        W86257  25.125   1.952   3.244
22534W        W86258  39.469  17.259  13.830
22535W        W86259  40.045  32.889  14.401
22536W        W86260  36.360  20.737   0.860
22537W        W86261  23.546  32.071   2.315
22538W        W86262  11.707  38.953   5.083
22539W        W86263   9.224   2.291   3.828
22540W        W86264  40.012  12.131   3.780
22541W        W86265  42.968  24.213   2.843
22542W        W86266  11.231  38.363  11.584
22543W        W86267  40.892  44.315   4.189
22544W        W86268  24.000  44.458  12.441
22545W        W86269  10.333  36.945   2.900
22546W        W86270  31.098  34.071   0.257
22547W        W86271  10.780  40.816  13.966
22548W        W86272  16.629   5.908   0.279
22549W        W86273  32.577  16.698  11.505
22550W        W86274  28.024  32.995  10.491
22551W        W86275  40.026  40.939   1.736
22552W        W86276  34.105   9.730   4.163
22553W        W86277   5.785  16.673  11.114
22554W        W86278   4.745  20.743  14.980
22555W        W86279  12.235   0.428  13.868
22556W        W86280   7.719  26.465   3.634
22557W        W86281  30.962  33.880   2.674
22558W        W86282  36.851  15.187  11.371
22559W        W86283  17.727  23.196  12.467
22560W        W86284   1.246  32.999   2.397
22561W        W86285  26.964  33.617  11.582
22562W        W86286  19.676  20.036   1.423
22563W        W86287  21.624  10.716   4.288
22564W        W86288  38.841  15.321   3.850
22565W        W86289  17.157  43.848  14.853
22566W        W86290  35.362   8.848  10.451
22567W        W86291  11.789  32.417  13.534
22568W        W86292   8.232  18.675   2.820
22569W        W86293  32.518  29.633   3.844
22570W        W86294   5.720  33.910  14.762
22571W        W86295   0.908  36.015  13.338
22572W        W86296   4.772   6.411   2.902
22573W        W86297   9.172  39.416   2.856
22574W        W86298  27.160  11.693   2.852
22575W        W86299  13.143  28.167   3.267
22576W        W86300  16.734   3.307  11.989
22577W        W86301  20.099   1.403  13.835
22578W        W86302  18.727  26.519   2.258
22579W        W86303  34.550  13.616  11.414
22580W        W86304  41.450  34.002   1.909
22581W        W86305  18.619  12.255   5.200
22582W        W86306   1.778  29.976  14.427
22583W        W86307  23.226   8.190  12.022
22584W        W86308  14.598   5.237   4.783
22585W        W86309  32.631   8.236   4.606
22586W        W86310  42.475  26.044   3.667
22587W        W86311  40.898  43.765   4.643
22588W        W86312  27.988   5.428   2.324
22589W        W86313  23.664   6.212   3.713
22590W        W86314  27.179   2.779  10.578
22591W        W86315   0.881  18.289   4.339
22592W        W86316  14.724  34.088  11.571
22593W        W86317  13.346  15.633   0.328
22594W        W86318  17.581  38.954   1.236
22595W        W86319  22.507   6.840   0.455
22596W        W86320  32.948   9.691  12.043
22597W        W86321  43.948  32.951   4.810
22598W        W86322  20.755  37.995   1.403
22599W        W86323  41.898   9.192   1.874
22600W        W86324  34.937  19.140   4.237
22601W        W86325  38.024  28.538   3.303
22602W        W86326  10.774  25.485  13.806
22603W        W86327  35.103  36.974  11.053
22604W        W86328   2.391  12.345  10.504
22605W        W86329   8.252  36.589  14.808
22606W        W86330  36.448  15.250   1.767
22607W        W86331  36.082   9.828   3.231
22608W        W86332  36.925   0.973  14.284
22609W        W86333  37.015   5.413  13.884
22610W        W86334  23.211  21.670  14.996
22611W        W86335  30.654  35.575  11.471
22612W        W86336  35.506  30.585   0.368
22613W        W86337  41.535  25.502  13.873
22614W        W86338  36.978  18.576   0.439
22615W        W86339   6.237  43.285   1.226
22616W        W86340  16.614  14.218   2.723
22617W        W86341   7.806  27.141  12.949
22618W        W86342   4.805   4.942  13.866
22619W        W86343  21.653  17.697   4.834
22620W        W86344   8.261   4.880   3.861
22621W        W86345  31.542  19.208   0.914
22622W        W86346   7.246  21.236  13.021
22623W        W86347  27.943  23.557   4.775
22624W        W86348  42.792  13.192   0.345
22625W        W86349  43.383  37.896   2.209
22626W        W86350  24.501   6.295  14.319
22627W        W86351  16.154  20.252   0.805
22628W        W86352   6.277   1.858   1.413
22629W        W86353  14.334  33.934   0.924
22630W        W86354  41.042  30.163  12.897
22631W        W86355  36.363  34.451   5.137
22632W        W86356  29.607   9.163   1.815
22633W        W86357  31.897  23.133  12.902
22634W        W86358   7.208  32.092  10.616
22635W        W86359  41.792  29.952  10.572
22636W        W86360  39.860  21.223  10.955
22637W        W86361   6.359  12.854  12.483
22638W        W86362  44.827  19.720   0.883
22639W        W86363  27.940  40.453  10.480
22640W        W86364  20.224   7.910  14.374
22641W        W86365  36.940  14.101   3.317
22642W        W86366  16.621   2.349  10.588
22643W        W86367  19.552   4.855  10.599
22644W        W86368  34.534   0.784   3.713
22645W        W86369  15.631  33.430  12.398
22646W        W86370  44.994  41.904  14.415
22647W        W86371  35.061  25.503   0.966
22648W        W86372  15.652  37.959  12.450
22649W        W86373  24.599   7.884   3.325
22650W        W86374  13.339  16.085   4.148
22651W        W86375  22.584  44.300  12.992
22652W        W86376  34.382   1.290  11.056
22653W        W86377  32.915  16.266  10.414
22654W        W86378  19.079  34.943   3.682
22655W        W86379  35.076   6.854   0.331
22656W        W86380   9.775   6.346   0.291
22657W        W86381  28.500  38.520   4.662
22658W        W86382  30.055  13.616  11.038
22659W        W86383  35.879  27.063   0.947
22660W        W86384  26.613   4.419   4.757
22661W        W86385   7.821  37.975   4.171
22662W        W86386  10.742  21.710  14.407
22663W        W86387  28.617  10.783   3.369
22664W        W86388  20.552   7.833   3.768
22665W        W86389  16.292  33.440  12.345
22666W        W86390  11.193  36.485   4.618
22667W        W86391  14.127  10.833  11.438
22668W        W86392  41.324  18.070  12.043
22669W        W86393   0.833  10.852   3.846
22670W        W86394  29.958   8.879   0.247
22671W        W86395  38.378  32.899   4.285
22672W        W86396  15.097   6.708  10.467
22673W        W86397  44.788  42.280  14.863
22674W        W86398   4.214  10.722  13.832
22675W        W86399  31.126  22.573   5.280
22676W        W86400  11.794   9.381  10.980
22677W        W86401  38.489  27.032   1.867
22678W        W86402   0.372   0.821  12.484
22679W        W86403  16.739  11.193  12.964
22680W        W86404  43.456  38.491   4.794
22681W        W86405  38.386   7.305   4.178
22682W        W86406  43.328   6.771   0.828
22683W        W86407  10.342  41.402  12.039
22684W        W86408  10.656  34.873  10.914
22685W        W86409  28.179  13.640   3.720
22686W        W86410  25.965   7.258   0.737
22687W        W86411  11.207  16.183   4.637
22688W        W86412  33.442   1.915   4.183
22689W        W86413   8.662   5.917  12.095
22690W        W86414   5.437  19.770  12.994
22691W        W86415   3.290  22.655  10.619
22692W        W86416  43.809  39.852  12.966
22693W        W86417  20.255   3.799   0.887
22694W        W86418  41.963  32.582  12.051
22695W        W86419   5.204  32.417   4.117
22696W        W86420  25.163  37.848   4.676
22697W        W86421   2.951  24.208   1.363
22698W        W86422  19.283   3.455  14.396
22699W        W86423  30.618  14.657  13.887
22700W        W86424  35.437  34.054   3.258
22701W        W86425  31.040  43.346  13.388
22702W        W86426  18.722  44.997  11.049
22703W        W86427  11.657  17.152  11.029
22704W        W86428  12.826  29.615  11.564
22705W        W86429  14.592  12.293   2.717
22706W        W86430  24.652  20.688  14.402
22707W        W86431  39.968   0.824   3.693
22708W        W86432  14.147  28.972  14.418
22709W        W86433  26.481  13.620   0.846
22710W        W86434  43.923  15.691   3.379
22711W        W86435  23.642  22.086   0.269
22712W        W86436  14.278  17.278  12.018
22713W        W86437  19.696  14.158  13.923
22714W        W86438   1.241  40.380  13.452
22715W        W86439   9.781  17.628   1.439
22716W        W86440   5.797  17.292  14.370
22717W        W86441  28.492  15.272   0.247
22718W        W86442  26.987  33.075  13.548
22719W        W86443  36.364   0.807   0.886
22720W        W86444  33.572  16.165   3.193
22721W        W86445  29.992  11.685   3.287
22722W        W86446  16.787  38.042  14.821
22723W        W86447  25.628   1.891   1.284
22724W        W86448   2.420  34.442   3.194
22725W        W86449  39.366  13.763   3.278
22726W        W86450  19.080  12.217  10.109
22727W        W86451  15.756  32.142  14.886
22728W        W86452   5.318  30.508  13.546
22729W        W86453  44.954  28.002   0.936
22730W        W86454   4.372   3.745   1.393
22731W        W86455  28.070  16.783  13.944
22732W        W86456   2.230   0.313   1.806
22733W        W86457  42.981  28.961   1.874
22734W        W86458  11.310  12.757  13.046
22735W        W86459  34.479  38.570  14.373
22736W        W86460  36.442  17.733  10.489
22737W        W86461  13.802  28.974  11.557
22738W        W86462  23.642  33.430  12.022
22739W        W86463  16.300  42.975  10.907
22740W        W86464  44.478  21.571  10.952
22741W        W86465  12.856  23.727  12.547
22742W        W86466  29.560  16.253  13.943
22743W        W86467  21.037  21.591   1.816
22744W        W86468  26.187  30.959   2.199
22745W        W86469  13.705  16.227  12.046
22746W        W86470  19.772  19.737   1.240
22747W        W86471  32.563  24.677  12.936
22748W        W86472   2.365  24.994   0.331
22749W        W86473  26.050  34.515   0.357
22750W        W86474   3.723  39.490  14.946
22751W        W86475  24.031   3.826  12.515
22752W        W86476  41.362   1.927  13.452
22753W        W86477  41.354  20.232  10.443
22754W        W86478  11.858  28.677   0.876
22755W        W86479  18.569  23.494   3.209
22756W        W86480   0.902  13.692  10.641
22757W        W86481  10.721  21.695   3.813
22758W        W86482  38.004  36.479   2.842
22759W        W86483  43.909  31.124  11.932
22760W        W86484   6.813  28.949  13.860
22761W        W86485  21.712   0.948  11.509
22762W        W86486  21.597   0.479  10.944
22763W        W86487   7.787   2.293   4.174
22764W        W86488  15.703  27.088  12.950
22765W        W86489  18.208  38.371  13.813
22766W        W86490  42.383   6.840  13.375
22767W        W86491   8.280  12.838   3.226
22768W        W86492   1.470  32.010   1.446
22769W        W86493  10.726   2.354  11.484
22770W        W86494  38.918  21.606  11.573
22771W        W86495   6.326   6.889  11.563
22772W        W86496  41.941   7.793  10.603
22773W        W86497  28.491   0.861   0.775
22774W        W86498  15.177  19.277  14.899
22775W        W86499  13.692  16.296  14.815
22776W        W86500  16.585  18.235   1.776
22777W        W86501  44.446  20.184   1.836
22778W        W86502  28.154   9.793   1.737
22779W        W86503  15.291  38.024   2.864
22780W        W86504  25.589  19.218   2.779
22781W        W86505  12.235  31.047  12.839
22782W        W86506  17.118   2.328   5.163
22783W        W86507  11.813  38.025  12.546
22784W        W86508  42.840  38.383   3.750
22785W        W86509   2.816   1.938   2.283
22786W        W86510  27.955   5.252  13.848
22787W        W86511  42.024  35.973  11.372
22788W        W86512  13.273  11.683   0.948
22789W        W86513  14.265   5.761   0.758
22790W        W86514  19.244   4.849  13.338
22791W        W86515  26.207  32.049  11.946
22792W        W86516  40.356  27.072   3.680
22793W        W86517  26.507  16.730   3.205
22794W        W86518   1.964  28.500  13.977
22795W        W86519   8.300  42.949  10.597
22796W        W86520  44.824  27.018  14.932
22797W        W86521  44.952   7.262  14.329
22798W        W86522  37.976  31.417  10.633
22799W        W86523  17.636   3.907  11.535
22800W        W86524  16.739   7.298  10.025
22801W        W86525  37.856  22.187  14.806
22802W        W86526  26.638  38.029  12.406
22803W        W86527   3.333  12.717   1.716
22804W        W86528   5.362  26.615  10.493
22805W        W86529  33.102  38.035  12.424
22806W        W86530   3.454  30.994  12.468
22807W        W86531  44.950  16.682  13.877
22808W        W86532  44.791  19.695   4.157
22809W        W86533  20.059  12.360   1.377
22810W        W86534  24.039  30.988  13.357
22811W        W86535   4.412   9.176   0.967
22812W        W86536  44.774  14.336  14.318
22813W        W86537  33.586   9.298  14.887
22814W        W86538  24.493  12.821  12.424
22815W        W86539  22.727  38.370  14.378
22816W        W86540  42.848  31.047   4.825
22817W        W86541  13.273  18.291  11.924
22818W        W86542  24.147   6.371   2.837
22819W        W86543  15.694  36.481   2.334
22820W        W86544  24.201  29.004  11.904
22821W        W86545  20.113  28.104  14.494
22822W        W86546  11.773  34.489   5.129
22823W        W86547  10.294   4.919   1.383
22824W        W86548   7.199  20.217   0.817
22825W        W86549   1.867  23.653  11.076
22826W        W86550  13.795  38.961   3.748
22827W        W86551   5.344  22.585  12.918
22828W        W86552  29.156   0.427  14.854
22829W        W86553  24.214   7.416  13.345
22830W        W86554  38.327  33.482  10.551
22831W        W86555  30.966   2.797  14.857
22832W        W86556  28.678  22.139   4.773
22833W        W86557  40.487  33.015   4.627
22834W        W86558  21.042  21.755  13.504
22835W        W86559  43.799  35.555   5.170
22836W        W86560  19.261  18.230  14.380
22837W        W86561  40.323  30.575   5.107
22838W        W86562  17.150  10.282  13.977
22839W        W86563  30.417  20.732  11.016
22840W        W86564   5.319  43.989   0.246
22841W        W86565   4.307   1.419   0.251
22842W        W86566   2.857  12.307  14.389
22843W        W86567   6.193   7.707  12.509
22844W        W86568  38.385  20.194   4.670
22845W        W86569  15.253  24.499  11.605
22846W        W86570  27.077   5.424   0.885
22847W        W86571  17.786  11.278   3.336
22848W        W86572   4.218  27.453  12.042
22849W        W86573  20.234   8.320  13.538
22850W        W86574  32.556   1.435   3.676
22851W        W86575  24.713  23.541   2.871
22852W        W86576  15.597  23.600   0.830
22853W        W86577   1.419  41.389   4.695
22854W        W86578  44.966  24.632  14.840
22855W        W86579  43.495   7.323  11.426
22856W        W86580  20.168  17.068   0.920
22857W        W86581   2.734  20.249  14.827
22858W        W86582  28.677  13.728  12.969
22859W        W86583  22.635  39.852   0.832
22860W        W86584  38.883  35.434   1.866
22861W        W86585  25.491   6.225   2.835
22862W        W86586  12.315  19.745  12.343
22863W        W86587  14.246   3.943  12.884
22864W        W86588  27.598  33.050  12.036
22865W        W86589  27.535  26.052  12.002
22866W        W86590  21.544  11.321   1.703
22867W        W86591  33.422  16.787  12.880
22868W        W86592  44.463   2.816   4.642
22869W        W86593   8.341  27.541  13.343
22870W        W86594  20.269   2.310   1.403
22871W        W86595   2.253   3.826  13.436
22872W        W86596  26.616  31.058   1.291
22873W        W86597  15.639  27.158  14.470
22874W        W86598  29.995  38.935  11.599
22875W        W86599  14.218  43.848   4.654
22876W        W86600  18.290  26.672  13.967
22877W        W86601  42.847  30.480  12.050
22878W        W86602  36.579  43.916   3.366
22879W        W86603  39.890  34.522  11.070
22880W        W86604  24.175  15.631   1.934
22881W        W86605   8.210   9.868   4.795
22882W        W86606  11.672   9.813   1.413
22883W        W86607  17.214   0.984  12.372
22884W        W86608  42.867   0.853  10.641
22885W        W86609   5.232   9.887   3.672
22886W        W86610  29.057  17.749  13.846
22887W        W86611  18.149   8.216  14.991
22888W        W86612  37.340   1.930   2.824
22889W        W86613  24.137   6.841   2.705
22890W        W86614   6.909  14.183   4.667
22891W        W86615  17.217  39.486   4.614
22892W        W86616  17.628  33.406   2.298
22893W        W86617  10.336  21.017  11.114
22894W        W86618   6.269  39.906  12.861
22895W        W86619  27.633   4.248   3.229
22896W        W86620  24.024   3.409  11.411
22897W        W86621  19.753  17.759   0.800
22898W        W86622  31.997  26.658  14.927
22899W        W86623  28.449  16.761   1.925
22900W        W86624  26.996  17.727  12.867
22901W        W86625   7.284  23.519  10.462
22902W        W86626  13.767  29.446   4.294
22903W        W86627  14.284  13.116   3.693
22904W        W86628   8.263  39.884  13.837
22905W        W86629   3.849   9.215   1.286
22906W        W86630  33.493  40.025   1.837
22907W        W86631  10.713   7.197  12.907
22908W        W86632  38.445  29.971  11.498
22909W        W86633  12.249  33.010   3.655
22910W        W86634  17.227  21.045  13.358
22911W        W86635  42.349  29.001  10.549
22912W        W86636  29.485  33.896  14.397
22913W        W86637  38.819  30.606   5.295
22914W        W86638  18.741  13.141  10.427
22915W        W86639   2.301  21.174   4.185
22916W        W86640  35.411  13.292  13.328
22917W        W86641  12.821  36.896  13.017
22918W        W86642  41.948  10.771  12.414
22919W        W86643  17.279  36.508  13.910
22920W        W86644   5.899   0.394  10.562
22921W        W86645  27.027   9.707   3.286
22922W        W86646  10.351  32.594  12.882
22923W        W86647  26.089  28.658   4.624
22924W        W86648   7.899  18.219   1.922
22925W        W86649  17.247   6.262   4.775
22926W        W86650   3.720  23.664   0.772
22927W        W86651  20.740  21.181  12.380
22928W        W86652   0.876  36.427  10.438
22929W        W86653   6.314  18.222   0.421
22930W        W86654  34.477  25.512  14.335
22931W        W86655  40.455  20.152  14.487
22932W        W86656  41.494  21.150   1.421
22933W        W86657  40.461  41.953  11.909
22934W        W86658  23.074  15.125  14.406
22935W        W86659  11.308  18.634   2.329
22936W        W86660  42.031   0.751   0.934
22937W        W86661  25.525  25.570  13.374
22938W        W86662  22.744  26.140  13.435
22939W        W86663  42.407  31.582  11.881
22940W        W86664  11.822  29.166   4.804
22941W        W86665  34.494   3.276   4.735
22942W        W86666  16.775  11.350   0.379
22943W        W86667  14.209   8.372  12.878
22944W        W86668  32.139  11.334   3.319
22945W        W86669  15.606   9.378  10.527
22946W        W86670  11.638   2.419  10.453
22947W        W86671  19.234  25.693   0.747
22948W        W86672  40.907  29.015   1.810
22949W        W86673  18.160  13.749   4.728
22950W        W86674  13.280  40.304   1.723
22951W        W86675  14.668  16.179   4.223
22952W        W86676  17.632  41.417  14.427
22953W        W86677  37.580   4.332   4.766
22954W        W86678  26.012  41.395   0.922
22955W        W86679   6.362  19.546   5.156
22956W        W86680   0.250  42.520  11.607
22957W        W86681  37.398  39.337  10.408
22958W        W86682  38.010  10.210   3.719
22959W        W86683  39.989  11.858  12.390
22960W        W86684  16.723  22.627  14.481
22961W        W86685  25.131  35.075  11.379
22962W        W86686  21.172  30.428   0.933
22963W        W86687  23.993  13.247  13.532
22964W        W86688   9.830   1.833  12.898
22965W        W86689  35.517   9.338   4.255
22966W        W86690  29.924  37.446  13.042
22967W        W86691  38.457  17.270   4.260
22968W        W86692  33.992  44.789  14.314
22969W        W86693  28.570  27.071   3.297
22970W        W86694  26.005  20.533  13.863
22971W        W86695  41.861  42.483   2.350
22972W        W86696  41.491  34.567   3.671
22973W        W86697  11.136  43.449  11.383
22974W        W86698  20.556   5.299  10.611
22975W        W86699  30.621  33.458   5.213
22976W        W86700  26.070  41.041   4.822
22977W        W86701  15.085  24.676   1.353
22978W        W86702  12.187  29.573   4.699
22979W        W86703  23.588  43.968   3.184
22980W        W86704   9.357  18.585   1.299
22981W        W86705  30.939  26.548  12.364
22982W        W86706  22.129  18.612  13.374
22983W        W86707  16.796  23.208  12.994
22984W        W86708   2.810  11.157  12.930
22985W        W86709  20.122  38.467   3.354
22986W        W86710  17.074  44.479   2.727
22987W        W86711  22.744   9.657   1.779
22988W        W86712  18.100  40.898  14.469
22989W        W86713  12.317  30.047   1.923
22990W        W86714  22.705  39.537  10.575
22991W        W86715  39.479  16.671   2.313
22992W        W86716  41.455  33.560   1.250
22993W        W86717  24.598  36.518  12.531
22994W        W86718  11.314   3.406   3.379
22995W        W86719  16.218  26.048  14.373
22996W        W86720   5.317  33.601  10.605
22997W        W86721  38.349  24.479  14.504
22998W        W86722  16.753   2.462   2.828
22999W        W86723   6.715  26.678  11.447
23000W        W86724  30.588   1.275  11.018
23001W        W86725  36.900   6.915   2.268
23002W        W86726   2.454  33.896  11.476
23003W        W86727   7.683  42.884  11.096
23004W        W86728   6.861  22.158  11.876
23005W        W86729  33.081  40.358   0.378
23006W        W86730  32.609  20.591  10.889
23007W        W86731  14.204  29.052  13.399
23008W        W86732  14.279  41.304   4.797
23009W        W86733  22.073  31.123  11.526
23010W        W86734  11.807  13.744  12.561
23011W        W86735  30.994  17.135  12.514
23012W        W86736  12.246  14.118   2.665
23013W        W86737  31.514  31.074   4.227
23014W        W86738  28.498  29.148   3.694
23015W        W86739  36.472  19.209   0.796
23016W        W86740   2.873  27.582  10.971
23017W        W86741  32.987  26.523   2.755
23018W        W86742  44.777   1.852  13.331
23019W        W86743  28.578   8.302   9.496
23020W        W86744  10.323  28.499  12.923
23021W        W86745  28.624  11.837   2.261
23022W        W86746   8.317   9.230   0.937
23023W        W86747  22.522  32.525   2.311
23024W        W86748   4.939  38.919   3.832
23025W        W86749  42.458  36.018   1.892
23026W        W86750  40.536   0.311   5.107
23027W        W86751   1.375  34.954  13.888
23028W        W86752  13.812  19.669   2.195
23029W        W86753  42.283  43.962   3.363
23030W        W86754  43.905  34.931  10.548
23031W        W86755  38.494  38.842  10.611
23032W        W86756  36.532   3.268  11.907
23033W        W86757  38.866   7.865  12.366
23034W        W86758  29.575   5.714  12.966
23035W        W86759  20.746   2.891  10.477
23036W        W86760   2.947  44.828   0.265
23037W        W86761   6.260  14.156  14.354
23038W        W86762  22.251  14.096  10.537
23039W        W86763   8.830  30.957   5.253
23040W        W86764  22.192  23.122   3.851
23041W        W86765  37.357  34.009   4.333
23042W        W86766  25.105  43.921  11.547
23043W        W86767   5.246  33.043  10.505
23044W        W86768  25.601  14.697  13.972
23045W        W86769  36.357  23.044   0.921
23046W        W86770  39.810  17.226   1.820
23047W        W86771  20.545  43.424  14.444
23048W        W86772  21.708   7.253  13.921
23049W        W86773   1.834  32.142   2.892
23050W        W86774  29.027  41.490  14.897
23051W        W86775  10.783  17.086  13.996
23052W        W86776  31.576  27.635   3.284
23053W        W86777  28.058  21.241  10.473
23054W        W86778  36.477  39.881   3.203
23055W        W86779   9.772   4.306  13.922
23056W        W86780   8.677  13.655  12.404
23057W        W86781  43.879  43.304   1.211
23058W        W86782   9.760  19.098  13.317
23059W        W86783  37.877  24.122   4.723
23060W        W86784   9.293  41.443  11.068
23061W        W86785  17.253   1.827   3.160
23062W        W86786  17.141   9.159   0.965
23063W        W86787   5.239  26.482   3.711
23064W        W86788  20.249  27.555   2.766
23065W        W86789  36.876  35.518  14.862
23066W        W86790  42.846  34.884  11.471
23067W        W86791  12.170   2.237  11.080
23068W        W86792  38.343  38.916  14.912
23069W        W86793  40.443   7.814   4.176
23070W        W86794  23.096   9.282   1.281
23071W        W86795  29.027  30.040  10.907
23072W        W86796   9.818  29.559   2.829
23073W        W86797  27.002  43.425   0.756
23074W        W86798  33.901  44.341  13.845
23075W        W86799  42.337   9.835  11.463
23076W        W86800  24.123   8.703   0.300
23077W        W86801  37.068  16.300   0.362
23078W        W86802  21.203  37.344  14.421
23079W        W86803  34.006   8.232  13.532
23080W        W86804  37.021  22.047   1.724
23081W        W86805  42.932  13.226   3.780
23082W        W86806  16.651  40.539   1.262
23083W        W86807  10.218  38.520   2.343
23084W        W86808  29.480  42.331   1.373
23085W        W86809  35.406  18.246   1.751
23086W        W86810  43.874  44.341  12.383
23087W        W86811   4.350  10.753   2.218
23088W        W86812  33.405  28.082  13.380
23089W        W86813  35.543  32.137   4.210
23090W        W86814  21.672  42.506   2.892
23091W        W86815   9.666  24.082  10.890
23092W        W86816  16.568  24.995  10.523
23093W        W86817  24.983  24.612  11.030
23094W        W86818  26.466  39.370   0.469
23095W        W86819  38.871  11.683  14.814
23096W        W86820  12.244  36.351   0.822
23097W        W86821  23.120  40.357  11.431
23098W        W86822  12.769  38.488  10.976
23099W        W86823  31.937  19.563  14.829
23100W        W86824  25.132  20.674   4.755
23101W        W86825  41.790  19.609  10.479
23102W        W86826  15.146   4.749   3.279
23103W        W86827  26.957   8.871   4.311
23104W        W86828   6.833  15.286   4.178
23105W        W86829  37.441  26.121  14.899
23106W        W86830  44.457  34.065  10.113
23107W        W86831  41.397  12.663   2.305
23108W        W86832  22.671  21.669   3.772
23109W        W86833  33.120  14.290  14.909
23110W        W86834  25.219  43.820   4.139
23111W        W86835   9.729  41.945  12.473
23112W        W86836  37.375  19.702  12.558
23113W        W86837  20.037   9.388   0.402
23114W        W86838   0.299  18.557   2.366
23115W        W86839  36.929   5.331  12.048
23116W        W86840  17.161  33.473   0.916
23117W        W86841  15.760  20.559  13.371
23118W        W86842   1.466  15.140   3.643
23119W        W86843   3.882   8.732   4.199
23120W        W86844  10.661  31.087  14.326
23121W        W86845  13.267   7.736   4.162
23122W        W86846  35.551  15.300   2.823
23123W        W86847  32.025  26.565   5.099
23124W        W86848  30.057   4.938   2.802
23125W        W86849  23.228  25.698  11.986
23126W        W86850  19.155  37.534  13.503
23127W        W86851  25.117  25.592  11.088
23128W        W86852  34.902   5.806  11.581
23129W        W86853  13.672  24.986  14.030
23130W        W86854  25.615  41.876   0.406
23131W        W86855  24.588  25.133  10.433
23132W        W86856  33.499  10.286   3.842
23133W        W86857  39.473  35.977   2.705
23134W        W86858  29.560  35.558   0.283
23135W        W86859  11.680  25.158  11.609
23136W        W86860  17.137  23.041   2.855
23137W        W86861  39.914  20.622  12.968
23138W        W86862  29.568  40.963  12.495
23139W        W86863  24.483  15.642  13.050
23140W        W86864   4.831  23.156  11.430
23141W        W86865  22.181  22.742  10.591
23142W        W86866  19.605   9.343  13.915
23143W        W86867  39.383   9.816   3.788
23144W        W86868  26.162  30.097   3.820
23145W        W86869   8.737  10.753   4.285
23146W        W86870  11.215  15.618   2.812
23147W        W86871  24.485  29.105  11.079
23148W        W86872   8.862  12.677   1.447
23149W        W86873  15.684  33.107  14.932
23150W        W86874  12.283  37.938  11.407
23151W        W86875  39.552  14.213  10.898
23152W        W86876  25.660  15.279  14.307
23153W        W86877  26.651  30.069  13.469
23154W        W86878  22.582  24.582   9.944
23155W        W86879  21.670  27.026   4.251
23156W        W86880  12.625  32.558  10.548
23157W        W86881  41.015  14.329  11.118
23158W        W86882  19.255   9.662  11.057
23159W        W86883  42.511  14.596  10.474
23160W        W86884  30.512  41.023   1.242
23161W        W86885  23.177  43.334  14.801
23162W        W86886  41.341  12.251  11.979
23163W        W86887  29.568  28.595   1.866
23164W        W86888  31.581  13.765   1.734
23165W        W86889   9.151  44.823   3.312
23166W        W86890  10.754   9.822   2.668
23167W        W86891  22.735   4.861  14.789
23168W        W86892  29.425  24.486   1.909
23169W        W86893  37.556   5.811  11.873
23170W        W86894  16.673   1.369   2.205
23171W        W86895   8.888  13.226   2.302
23172W        W86896   5.314   9.393  10.614
23173W        W86897  34.548   3.741   0.414
23174W        W86898  18.574  26.087   2.329
23175W        W86899   9.805  14.604   3.206
23176W        W86900  10.792  14.770  12.876
23177W        W86901  22.622  26.191   1.346
23178W        W86902  16.115  43.438   3.322
23179W        W86903   3.800   4.858  14.408
23180W        W86904  31.048   2.292  12.931
23181W        W86905  41.879  43.370   4.798
23182W        W86906  10.220  11.129   0.923
23183W        W86907  38.014  41.923  10.991
23184W        W86908  25.155  18.128  14.391
23185W        W86909  44.874   2.802  12.471
23186W        W86910  32.411   7.413   1.210
23187W        W86911   6.871  15.711   0.831
23188W        W86912  34.914  34.114   1.883
23189W        W86913  21.169   2.347   5.095
23190W        W86914  19.044   0.843  12.014
23191W        W86915  11.650  32.907  14.932
23192W        W86916  19.661   9.799  12.568
23193W        W86917   3.846  10.163  14.013
23194W        W86918  11.270  21.239  12.565
23195W        W86919  12.715  17.588  12.848
23196W        W86920  26.197  29.151  14.011
23197W        W86921  38.500  44.911   4.138
23198W        W86922   3.948  11.687  11.967
23199W        W86923  38.071  12.613  12.562
23200W        W86924  19.719  24.529  13.053
23201W        W86925   1.877  16.118  12.457
23202W        W86926  37.885   8.167  11.505
23203W        W86927  25.155  33.056  14.405
23204W        W86928   9.725  40.360  12.002
23205W        W86929  16.690  31.996   4.203
23206W        W86930  13.683  20.255  11.408
23207W        W86931  26.654  33.950  13.539
23208W        W86932  37.445  32.428  10.570
23209W        W86933  30.616  24.574   1.356
23210W        W86934  26.162  33.944  14.508
23211W        W86935   3.928  15.652  13.912
23212W        W86936  12.304  41.872   3.638
23213W        W86937   8.385  21.107   2.419
23214W        W86938  32.420  10.686  11.514
23215W        W86939  35.441  42.841   3.230
23216W        W86940   3.248  38.511   4.225
23217W        W86941  43.454  16.609  10.983
23218W        W86942  37.499   3.431   5.205
23219W        W86943  32.618  18.176   5.231
23220W        W86944  32.575   8.728  10.976
23221W        W86945  11.171  16.177  10.462
23222W        W86946  28.443  38.446  13.825
23223W        W86947  41.799  33.091   1.880
23224W        W86948  21.736  31.426   4.607
23225W        W86949  16.747  11.837   1.934
23226W        W86950  20.644  16.212  12.823
23227W        W86951  36.363   7.366  13.480
23228W        W86952   6.891  39.440  13.355
23229W        W86953  44.406  38.827  13.507
23230W        W86954  16.304  12.172  11.612
23231W        W86955  11.284  34.501  12.427
23232W        W86956  38.507   1.406  11.567
23233W        W86957  36.457   0.778  12.004
23234W        W86958   6.897  26.537  10.929
23235W        W86959  37.963  26.693   3.673
23236W        W86960   5.288  44.961  13.970
23237W        W86961  34.543  20.178  12.349
23238W        W86962   3.863   2.253  13.791
23239W        W86963  24.083  26.593   4.349
23240W        W86964  19.123  33.073  12.093
23241W        W86965  18.225  33.422  12.036
23242W        W86966   7.911  42.895  11.872
23243W        W86967   3.807  33.493  12.021
23244W        W86968  25.140  26.139   4.151
23245W        W86969  42.902  36.987  13.503
23246W        W86970  13.189  38.933  14.814
23247W        W86971  33.472   2.361   3.382
23248W        W86972  20.545  35.422  12.367
23249W        W86973  19.557  25.496   4.146
23250W        W86974  24.722   3.400   2.393
23251W        W86975  38.453  26.196  10.493
23252W        W86976  37.993  35.586  12.376
23253W        W86977  29.053  11.352  12.480
23254W        W86978  10.147   9.294  13.844
23255W        W86979  13.767   8.340  13.496
23256W        W86980  42.375  24.610   2.701
23257W        W86981   0.843  17.293  14.289
23258W        W86982   3.894  42.824  10.068
23259W        W86983  15.201  15.589  13.534
23260W        W86984  17.573  26.983  11.917
23261W        W86985  35.874   7.236   1.319
23262W        W86986   3.346   4.886   2.721
23263W        W86987   8.814  31.996  10.470
23264W        W86988   5.299  10.287  14.908
23265W        W86989  43.937  23.063   2.184
23266W        W86990  28.992   5.247   1.411
23267W        W86991  43.821  42.956   0.879
23268W        W86992  34.395   9.182   4.196
23269W        W86993   2.746  10.228  14.956
23270W        W86994  24.537  10.828  10.463
23271W        W86995  42.422  11.779   1.397
23272W        W86996  14.668  16.775   1.327
23273W        W86997  30.086  17.667  13.359
23274W        W86998  42.347   3.831  10.914
23275W        W86999  31.555   1.804  11.955
23276W        W87000  26.480   8.895   3.338
23277W        W87001  11.145  27.474  10.889
23278W        W87002  34.606   4.882  14.877
23279W        W87003   8.792   3.844  11.860
23280W        W87004  30.943  26.539  13.322
23281W        W87005   3.269   6.869   3.642
23282W        W87006   3.294  30.073  10.893
23283W        W87007  32.897  25.620   0.284
23284W        W87008   1.915  40.905  11.420
23285W        W87009  41.434  18.292  10.507
23286W        W87010   1.960  34.864   2.673
23287W        W87011   6.806  42.782   0.804
23288W        W87012  22.008  30.633  13.324
23289W        W87013  22.547   7.376   3.801
23290W        W87014  40.533  25.193  11.418
23291W        W87015  32.019  44.438   4.330
23292W        W87016   8.661   0.405   3.749
23293W        W87017  30.038  24.510   0.896
23294W        W87018  10.319  32.063   1.798
23295W        W87019  17.624  34.908  10.948
23296W        W87020  16.770  17.186   3.239
23297W        W87021  19.609  29.095   3.771
23298W        W87022   9.795  18.696   2.663
23299W        W87023  27.003   1.896  11.082
23300W        W87024   9.345  32.959   1.248
23301W        W87025  44.321   5.748   1.414
23302W        W87026  38.325  38.335  13.047
23303W        W87027  37.514   4.915   0.356
23304W        W87028  17.070  35.469   0.474
23305W        W87029  42.780   9.210   3.842
23306W        W87030  27.045  35.481   2.367
23307W        W87031  32.066  42.998  10.016
23308W        W87032  40.045   7.810  12.061
23309W        W87033  29.640  40.013  12.951
23310W        W87034  15.688  43.863  14.480
23311W        W87035  39.981  30.557  12.495
23312W        W87036  32.995   7.881  10.957
23313W        W87037   6.777  40.954   3.783
23314W        W87038  16.092   2.786  14.887
23315W        W87039  24.622  31.578  14.375
23316W        W87040  32.532   8.166  14.281
23317W        W87041  27.560  33.545   3.721
23318W        W87042  31.586  42.311   0.265
23319W        W87043   2.910  23.205  10.577
23320W        W87044  16.582   0.825   1.431
23321W        W87045  31.437   5.285  12.999
23322W        W87046  21.054  17.201   5.271
23323W        W87047   0.926   4.748  12.863
23324W        W87048  22.588  33.020  14.986
23325W        W87049  40.307  27.082   4.769
23326W        W87050  40.835  31.460   3.300
23327W        W87051  34.395  27.689   3.744
23328W        W87052   1.292  27.038  13.381
23329W        W87053  28.617  16.745   1.326
23330W        W87054  14.674  19.773  14.023
23331W        W87055  26.554   7.322   9.624
23332W        W87056  16.101   7.409   3.803
23333W        W87057  41.855   9.250  12.961
23334W        W87058   9.656   7.388   2.820
23335W        W87059  17.143  30.470   2.190
23336W        W87060  31.589  30.584   4.745
23337W        W87061  40.486   5.741   1.763
23338W        W87062  42.384  43.990   4.633
23339W        W87063  13.718  38.853  12.987
23340W        W87064  14.103  18.643   0.328
23341W        W87065  11.336  26.514  11.011
23342W        W87066  30.038  19.636   3.830
23343W        W87067  13.736  31.140  13.815
23344W        W87068  10.167  16.636  14.279
23345W        W87069  24.665  34.076   2.208
23346W        W87070  30.528  18.253  13.502
23347W        W87071  20.041  25.135  11.875
23348W        W87072   7.752  23.587   4.743
23349W        W87073  43.321  40.966  12.480
23350W        W87074  19.048  26.099  11.446
23351W        W87075   9.762  44.791   2.885
23352W        W87076   5.710  14.778  12.844
23353W        W87077  13.227  18.285  10.090
23354W        W87078  20.204  24.077  10.549
23355W        W87079  37.063  39.390  14.959
23356W        W87080   6.410  44.931   0.457
23357W        W87081  41.386  42.027   3.771
23358W        W87082   4.862  44.806   3.826
23359W        W87083  18.767  13.278   2.879
23360W        W87084  25.536  31.500  10.487
23361W        W87085  36.516   0.368   0.339
23362W        W87086  10.673  35.889   2.858
23363W        W87087  39.320  42.438   3.217
23364W        W87088  41.488   2.859  11.913
23365W        W87089   2.252  23.731   1.870
23366W        W87090  24.108   8.393   1.364
23367W        W87091  28.626  33.943   4.780
23368W        W87092  40.463   8.336   0.750
23369W        W87093  31.564  39.450  12.539
23370W        W87094  24.487  28.159  12.995
23371W        W87095  39.988  20.660  14.800
23372W        W87096  13.801   1.810  10.109
23373W        W87097  36.545  35.091  14.362
23374W        W87098  16.156  25.565  10.564
23375W        W87099  35.568  20.653   2.707
23376W        W87100   0.406  43.954   4.783
23377W        W87101  34.959  20.039   0.797
23378W        W87102  22.222  30.985   9.506
23379W        W87103  26.127  12.717   4.625
23380W        W87104  20.078  35.957  14.012
23381W        W87105  21.539  18.578  11.590
23382W        W87106  21.099  13.222   2.836
23383W        W87107  31.626   2.296   4.219
23384W        W87108  18.150  13.351  14.460
23385W        W87109  35.511  16.732   1.718
23386W        W87110  10.742  32.052   1.696
23387W        W87111  42.388  13.223   0.373
23388W        W87112  11.754  14.783   3.678
23389W        W87113  26.992  10.311   3.635
23390W        W87114  14.141  18.115  13.814
23391W        W87115  39.015  22.081   0.478
23392W        W87116  39.329   1.776  11.525
23393W        W87117  38.881  17.643  14.031
23394W        W87118  26.003  11.196  14.905
23395W        W87119  39.916  18.197  12.893
23396W        W87120  28.459  27.541   1.876
23397W        W87121   3.274  23.539   1.839
23398W        W87122  36.524  20.039  12.039
23399W        W87123  24.063  26.599  12.419
23400W        W87124  22.171  32.611  13.910
23401W        W87125  13.142  28.457  14.508
23402W        W87126  16.638   5.417   5.591
23403W        W87127  23.530   9.776   2.833
23404W        W87128  24.481   6.328  13.969
23405W        W87129  33.130  43.290  10.948
23406W        W87130   6.805  32.558  10.448
23407W        W87131  25.706  30.438   3.251
23408W        W87132  10.781  41.956  13.824
23409W        W87133   5.407  44.812   4.833
23410W        W87134  16.634  35.970   4.627
23411W        W87135  14.676  24.212  13.935
23412W        W87136  23.648  20.163  14.852
23413W        W87137  43.953  34.983   0.754
23414W        W87138  14.799   7.190   2.318
23415W        W87139  31.977  21.239  13.932
23416W        W87140   2.866   7.220   1.415
23417W        W87141  33.467  27.615   3.203
23418W        W87142  39.057  11.680   3.350
23419W        W87143  34.446   8.325  14.346
23420W        W87144  19.176  31.064   2.725
23421W        W87145  21.106  10.838  14.415
23422W        W87146   6.332  18.166   4.215
23423W        W87147  18.146   9.705  13.374
23424W        W87148  33.884   9.762   2.258
23425W        W87149  16.784  25.127   4.727
23426W        W87150  43.846  17.186   4.259
23427W        W87151   3.448   1.753  14.867
23428W        W87152  37.383  44.391   1.358
23429W        W87153  40.524  10.731  12.860
23430W        W87154  16.715   4.443  13.493
23431W        W87155  12.302  24.035   0.759
23432W        W87156  40.041  16.663  14.329
23433W        W87157   8.361  22.729   1.274
23434W        W87158  13.126   2.945   1.839
23435W        W87159  22.177  39.895  10.547
23436W        W87160  24.015  14.178   1.907
23437W        W87161  30.641   4.281  11.601
23438W        W87162  23.197  18.146   2.286
23439W        W87163   4.243  28.545   2.742
23440W        W87164  44.463  35.447  12.343
23441W        W87165   4.714  13.336  10.607
23442W        W87166  41.959  19.736  11.866
23443W        W87167  27.120   6.285   3.705
23444W        W87168  16.633  18.228   4.645
23445W        W87169  29.017   3.933   4.265
23446W        W87170  41.991  28.605  13.397
23447W        W87171   8.790   3.836   0.393
23448W        W87172  16.122  12.123   4.664
23449W        W87173   8.300  10.295  13.308
23450W        W87174   9.392  11.708  12.499
23451W        W87175  14.154  23.153  11.094
23452W        W87176  34.986  10.804   1.697
23453W        W87177  33.026  44.294   1.796
23454W        W87178  21.519  44.862   0.965
23455W        W87179  24.185  37.425   5.263
23456W        W87180   3.236  23.715  12.043
23457W        W87181  25.510   4.786   2.387
23458W        W87182   1.429  32.977  10.540
23459W        W87183  12.732  20.083   1.368
23460W        W87184  22.646  22.556   2.729
23461W        W87185  12.213  34.961  11.584
23462W        W87186  17.622  25.185  13.881
23463W        W87187  41.465  34.039  11.069
23464W        W87188  37.355  42.997   1.385
23465W        W87189  19.042   1.755   4.602
23466W        W87190   5.896  12.240   0.819
23467W        W87191  11.138  24.548   3.351
23468W        W87192  24.658  12.256   4.245
23469W        W87193   9.324  35.447   2.815
23470W        W87194  19.180  21.594   3.273
23471W        W87195  40.942  13.828  14.010
23472W        W87196   1.451  26.626   3.267
23473W        W87197  29.995  25.177  13.881
23474W        W87198   5.765  37.947  11.463
23475W        W87199  26.690  40.866  12.405
23476W        W87200  24.586  37.068  10.928
23477W        W87201  21.727   1.295  13.334
23478W        W87202  36.888  36.063   4.113
23479W        W87203  23.043  31.634  10.493
23480W        W87204   0.295   5.417   4.731
23481W        W87205   4.431   0.385   4.170
23482W        W87206  41.993  33.429  13.364
23483W        W87207   2.849  17.791  11.535
23484W        W87208  42.859   4.224   4.190
23485W        W87209   7.300  25.664  13.815
23486W        W87210  18.187  22.522   3.658
23487W        W87211  27.655  28.530  10.452
23488W        W87212  44.459  11.330   2.389
23489W        W87213  15.149  41.377  12.571
23490W        W87214  21.712  23.531  11.503
23491W        W87215  37.563  20.766  14.921
23492W        W87216  41.788   4.910   1.356
23493W        W87217   6.900  32.618   4.784
23494W        W87218  25.633   2.236  10.517
23495W        W87219  16.731   1.843   2.699
23496W        W87220  27.102  38.873   0.776
23497W        W87221  32.538  35.438   3.651
23498W        W87222  25.145  29.102   3.634
23499W        W87223  12.118   1.441   0.770
23500W        W87224   8.838  35.864  13.993
23501W        W87225  34.448  20.562  12.490
23502W        W87226  36.369  15.299   1.273
23503W        W87227   7.903  11.853  10.994
23504W        W87228   6.424  43.338  10.998
23505W        W87229  15.311  14.301   1.258
23506W        W87230  43.994  42.345   4.649
23507W        W87231   1.307  42.499  12.059
23508W        W87232  30.641  17.616   4.312
23509W        W87233  16.589  30.152   0.765
23510W        W87234   3.781  37.022  14.463
23511W        W87235  17.579  18.655   0.943
23512W        W87236  22.640  37.039  10.081
23513W        W87237  37.841  10.148  13.979
23514W        W87238   3.353  17.164  11.997
23515W        W87239   5.854  11.213   2.243
23516W        W87240  37.549  15.637   2.675
23517W        W87241  42.855   6.409  13.032
23518W        W87242  23.667  36.352  13.026
23519W        W87243  18.182  28.534  10.628
23520W        W87244   3.406   1.931  13.363
23521W        W87245  34.914  27.540  11.019
23522W        W87246  22.039  40.526   1.294
23523W        W87247  30.617  39.393  12.998
23524W        W87248   8.393  17.705   0.348
23525W        W87249   7.834  31.646  14.791
23526W        W87250  44.868   5.247  11.036
23527W        W87251   3.306   2.906   1.256
23528W        W87252  32.536  27.644  14.967
23529W        W87253  40.812  36.387  12.371
23530W        W87254  15.323  11.825   2.800
23531W        W87255  41.019  23.605   0.482
23532W        W87256  31.644  29.589  13.539
23533W        W87257  40.434   3.885  12.491
23534W        W87258  13.797  20.548   0.738
23535W        W87259  28.148   3.822   4.118
23536W        W87260  41.538  28.447  12.508
23537W        W87261  41.817  33.064  14.935
23538W        W87262  27.081  39.965   3.753
23539W        W87263  23.993  10.221   3.814
23540W        W87264  13.241  37.521   1.747
23541W        W87265  44.830  27.131  14.377
23542W        W87266  12.833   6.371  12.839
23543W        W87267   2.252  30.083   2.219
23544W        W87268  44.363  12.305   2.767
23545W        W87269   4.856  41.397  12.572
23546W        W87270   2.933  43.443  13.046
23547W        W87271   9.305  44.917  11.070
23548W        W87272  31.471   5.354   0.914
23549W        W87273  19.222   0.361  12.924
23550W        W87274   0.398  18.594  11.374
23551W        W87275  24.218   2.397   4.759
23552W        W87276  31.071  39.393  10.985
23553W        W87277   8.755  26.590  12.459
23554W        W87278  15.595  30.616  13.841
23555W        W87279   7.713  25.627  11.604
23556W        W87280  19.545  39.022   9.541
23557W        W87281  14.217  42.300   0.769
23558W        W87282  21.023  20.193   0.415
23559W        W87283  11.257  16.272  14.293
23560W        W87284  15.184  19.231   0.902
23561W        W87285  39.549  41.486  10.932
23562W        W87286   3.812  30.473   2.886
23563W        W87287  26.974  34.033  12.469
23564W        W87288  40.985  11.140  14.350
23565W        W87289  23.014   6.920  11.977
23566W        W87290  13.782  44.851   3.643
23567W        W87291  20.696   5.389  14.857
23568W        W87292  18.719  31.127   1.385
23569W        W87293  37.527  25.527  12.557
23570W        W87294   2.875  41.967  13.023
23571W        W87295   7.219  24.028   3.366
23572W        W87296  28.500  18.734   0.251
23573W        W87297   4.252  41.333   3.304
23574W        W87298   2.263   8.809   0.758
23575W        W87299  23.082  39.549   2.409
23576W        W87300  16.107   3.952  14.318
23577W        W87301   6.847   8.163   0.413
23578W        W87302   2.289  32.488   1.747
23579W        W87303  15.183  17.559   4.310
23580W        W87304  15.277  20.677  11.940
23581W        W87305   7.224  22.712   0.866
23582W        W87306  12.751  31.982   3.695
23583W        W87307   5.755   2.904  12.494
23584W        W87308  35.408  20.761  13.812
23585W        W87309  13.683   0.743  10.490
23586W        W87310  31.910   5.312  13.326
23587W        W87311  41.999  18.608  12.405
23588W        W87312  16.774  34.979   4.297
23589W        W87313   9.214  29.148  13.403
23590W        W87314   8.168  38.475  12.033
23591W        W87315  18.595  31.953  11.092
23592W        W87316  40.478  43.286   0.295
23593W        W87317  26.014  42.461  12.093
23594W        W87318  25.090  11.720  14.438
23595W        W87319  29.508  17.240   2.784
23596W        W87320  28.545  43.815   1.431
23597W        W87321  14.712   0.468  10.453
23598W        W87322  13.198  36.867  12.485
23599W        W87323  43.346  43.949  11.493
23600W        W87324  33.070  18.563   3.740
23601W        W87325  40.465  35.949   3.266
23602W        W87326  34.534  39.458   3.691
23603W        W87327  25.162  43.345  11.125
23604W        W87328  39.053   1.419   1.364
23605W        W87329  30.579  23.529  14.922
23606W        W87330  35.918  37.955  10.984
23607W        W87331  38.821   7.254   2.888
23608W        W87332  40.990  21.108  11.392
23609W        W87333  11.135  15.688   0.927
23610W        W87334  39.354  41.872  14.935
23611W        W87335  12.643  37.385  13.319
23612W        W87336   2.438  13.133  14.339
23613W        W87337  18.082   5.740  14.858
23614W        W87338  23.139  16.081   1.735
23615W        W87339  32.903   6.291  12.932
23616W        W87340  35.898  19.226   1.767
23617W        W87341  29.091  24.216  11.497
23618W        W87342   1.807  12.301   4.155
23619W        W87343  14.210  26.635  12.898
23620W        W87344  40.871   7.358   3.860
23621W        W87345   2.919  42.827  10.902
23622W        W87346  13.258  25.024  13.913
23623W        W87347   6.916  26.009   0.313
23624W        W87348  33.576  43.963  12.008
23625W        W87349  40.480  13.623   1.727
23626W        W87350  34.972  38.566  12.430
23627W        W87351  37.855  18.620   2.262
23628W        W87352  11.859  26.002  12.393
23629W        W87353  22.204  41.462   0.411
23630W        W87354  22.107  12.708   2.301
23631W        W87355  10.260  22.733  12.378
23632W        W87356  44.861  42.789   0.341
23633W        W87357  31.545  19.770   3.199
23634W        W87358  37.965  37.888  14.767
23635W        W87359  30.498  13.668   2.197
23636W        W87360  39.379  20.735  10.534
23637W        W87361  37.538  13.636  12.503
23638W        W87362  22.240   8.722  10.486
23639W        W87363   0.789   3.408   4.724
23640W        W87364  32.583  37.023  12.580
23641W        W87365   7.312  44.500   4.152
23642W        W87366  40.351  38.993  14.364
23643W        W87367  33.440  33.418  10.914
23644W        W87368  22.006  44.398   0.463
23645W        W87369  28.069  30.927   4.641
23646W        W87370   1.747  38.449  10.892
23647W        W87371  35.948  18.674   1.918
23648W        W87372   4.936  36.937   4.802
23649W        W87373  42.446   2.350   3.375
23650W        W87374  15.602  17.301   4.245
23651W        W87375  41.910   2.382   1.846
23652W        W87376  16.203  31.565   2.275
23653W        W87377  12.144  16.731  14.982
23654W        W87378   5.338  13.160   0.941
23655W        W87379  35.544  32.995  12.937
23656W        W87380  26.982   5.893   4.189
23657W        W87381   1.758  24.032   4.801
23658W        W87382   2.817  28.137  13.869
23659W        W87383  26.020  29.426  11.510
23660W        W87384  39.039  15.181   2.892
23661W        W87385  15.217  43.311   0.420
23662W        W87386  16.125  31.907   3.209
23663W        W87387  42.916  16.250  12.412
23664W        W87388  19.165   7.174   4.250
23665W        W87389  25.138  40.483  14.452
23666W        W87390  44.875  14.237  10.438
23667W        W87391  34.876  42.806   2.381
23668W        W87392   0.275   3.735   4.806
23669W        W87393  21.224  36.924  14.949
23670W        W87394   2.292  41.460  13.042
23671W        W87395  14.662  29.918   1.754
23672W        W87396   8.812   5.351  13.024
23673W        W87397  16.213  21.605   4.222
23674W        W87398  10.775   2.388   1.352
23675W        W87399   3.825  13.739  11.944
23676W        W87400  16.803   3.369   2.304
23677W        W87401  20.767   1.954  13.527
23678W        W87402  27.592  18.770  12.912
23679W        W87403  29.601  23.071  13.031
23680W        W87404  34.520  36.975  14.962
23681W        W87405  44.384  10.319   2.267
23682W        W87406  42.829  36.435   0.281
23683W        W87407  23.651  37.068   5.203
23684W        W87408  14.155   3.218   4.288
23685W        W87409  22.110  38.891   1.225
23686W        W87410  39.970  10.215   0.915
23687W        W87411   1.348  25.577   2.328
23688W        W87412  18.550  13.188   1.222
23689W        W87413  22.058   6.314  14.443
23690W        W87414  27.671  36.521   0.953
23691W        W87415  26.177  23.615   0.253
23692W        W87416  25.216  25.636   1.773
23693W        W87417  36.377  44.449  12.472
23694W        W87418  11.716  32.430   3.309
23695W        W87419  26.191  35.881  14.805
23696W        W87420  17.222   6.898   3.793
23697W        W87421  30.585  44.367  14.442
23698W        W87422  16.720  21.176  13.999
23699W        W87423  15.736  23.705  14.343
23700W        W87424   0.259  26.663   0.279
23701W        W87425  44.398   6.725  14.023
23702W        W87426   1.933  34.067   4.790
23703W        W87427  20.113  36.859  14.979
23704W        W87428   5.695   1.972  13.466
23705W        W87429  21.017  28.612  10.410
23706W        W87430  40.967  44.983  13.029
23707W        W87431  19.551  20.131  11.461
23708W        W87432  40.869  13.351  11.403
23709W        W87433  39.405  23.540  12.578
23710W        W87434  11.838  26.486  11.026
23711W        W87435  23.651  17.725   1.924
23712W        W87436  38.869   3.222   5.214
23713W        W87437   7.292  19.130  14.827
23714W        W87438  34.500  37.947  12.076
23715W        W87439  42.308  41.378   0.853
23716W        W87440  19.626  25.617  12.930
23717W        W87441   6.682  19.215  14.798
23718W        W87442   8.265   3.800   0.291
23719W        W87443   5.885  38.056  13.021
23720W        W87444   4.259  18.674  11.102
23721W        W87445  42.461   6.915  10.451
23722W        W87446  23.998  17.741  12.034
23723W        W87447  28.517  42.969  13.409
23724W        W87448  18.629  28.962   1.813
23725W        W87449   4.232  35.042   3.790
23726W        W87450   9.164  38.013   4.645
23727W        W87451  17.072  27.146  14.781
23728W        W87452   6.206  32.133  10.134
23729W        W87453  10.274  39.973  10.582
23730W        W87454   9.306  24.012   0.870
23731W        W87455  43.839  38.069  10.896
23732W        W87456  17.181  29.116  13.818
23733W        W87457  15.311  41.024   2.292
23734W        W87458  35.947   5.724   3.664
23735W        W87459  30.078  15.788  12.497
23736W        W87460  18.223  21.725   1.793
23737W        W87461  36.888   1.756  14.431
23738W        W87462  19.181   9.654  12.851
23739W        W87463  41.314  36.080  12.464
23740W        W87464  31.565   4.879  12.879
23741W        W87465  31.919  38.848   2.671
23742W        W87466  24.642   3.932   3.681
23743W        W87467  36.086  37.051   2.764
23744W        W87468   0.960  35.885   0.245
23745W        W87469  15.631  28.065   1.742
23746W        W87470  27.605  16.660   4.603
23747W        W87471  12.611  35.420   1.896
23748W        W87472  21.080   9.173   2.268
23749W        W87473   7.876  34.472  11.030
23750W        W87474  43.797  36.031  13.525
23751W        W87475  27.610  28.045  13.816
23752W        W87476  39.431  10.694  13.880
23753W        W87477  32.001  28.536   0.775
23754W        W87478  24.156  17.289  12.524
23755W        W87479  42.030  36.965  13.326
23756W        W87480  25.561  29.069  14.883
23757W        W87481  31.952  44.888  13.919
23758W        W87482   1.419  13.777   1.330
23759W        W87483  44.756  33.624   1.373
23760W        W87484  30.122  17.245  12.889
23761W        W87485  36.083  29.521  13.948
23762W        W87486  38.386   1.748  11.998
23763W        W87487  27.183   0.367  14.817
23764W        W87488   9.386  36.978   1.825
23765W        W87489   6.770  10.368   2.665
23766W        W87490  13.799  27.056  11.530
23767W        W87491  37.028  22.680   2.731
23768W        W87492   5.346  18.145   4.816
23769W        W87493   6.403  22.505   3.671
23770W        W87494  39.027  38.005   1.334
23771W        W87495  21.652  23.985   3.174
23772W        W87496   8.882  39.393  11.445
23773W        W87497  14.235  43.866  10.936
23774W        W87498  14.630  38.528   3.790
23775W        W87499  43.514  26.631   5.199
23776W        W87500  16.278  32.038   3.636
23777W        W87501  15.583   6.880   0.409
23778W        W87502   7.351  37.082   4.747
23779W        W87503  27.125  28.442   5.787
23780W        W87504   0.902  22.678  10.937
23781W        W87505  42.519   2.933   1.863
23782W        W87506  43.996  40.938  13.318
23783W        W87507  31.519  12.214  13.426
23784W        W87508  41.987  37.369   2.321
23785W        W87509  16.119   1.888  11.392
23786W        W87510  11.205  29.667   3.323
23787W        W87511  26.683   6.691   4.280
23788W        W87512  37.853  11.688   2.776
23789W        W87513   3.896  15.250   4.730
23790W        W87514   9.725  26.603   0.342
23791W        W87515   1.763  29.475  11.375
23792W        W87516  22.665  25.604   4.151
23793W        W87517  10.220   8.804  12.079
23794W        W87518  11.207  42.455  14.473
23795W        W87519  34.890  41.358   5.083
23796W        W87520  17.722   1.267  11.472
23797W        W87521   0.438  34.384  12.068
23798W        W87522  41.518   6.868   0.825
23799W        W87523  43.778   0.900  14.879
23800W        W87524   8.784  20.546   4.271
23801W        W87525  41.407  10.730   1.909
23802W        W87526  20.195  41.501  11.480
23803W        W87527  41.827   1.808   9.971
23804W        W87528  26.676  38.345   1.433
23805W        W87529  15.276   2.322   0.759
23806W        W87530  24.987  41.316   3.747
23807W        W87531  17.559  44.423   0.944
23808W        W87532  15.777  10.248   2.349
23809W        W87533  28.652   6.338  14.012
23810W        W87534  21.715  37.079   2.667
23811W        W87535   4.744  34.019  11.507
23812W        W87536  22.221  32.484  14.977
23813W        W87537  14.266  20.263   4.812
23814W        W87538  10.297  12.690  10.962
23815W        W87539  40.342  24.571  12.538
23816W        W87540  38.881  17.625  10.641
23817W        W87541  19.093  44.762  14.446
23818W        W87542  13.647  34.075  12.461
23819W        W87543  35.392   1.354  10.583
23820W        W87544  28.537  43.287   2.178
23821W        W87545  19.206  44.438  12.539
23822W        W87546   7.853  39.895  11.477
23823W        W87547  25.538  43.860  11.939
23824W        W87548  17.066  15.781   2.328
23825W        W87549   2.429  14.640  13.023
23826W        W87550   5.323   5.768  11.493
23827W        W87551  34.021  41.415   0.756
23828W        W87552  19.572   3.853   1.224
23829W        W87553   3.824  42.846  11.502
23830W        W87554  40.949  41.517  13.337
23831W        W87555   5.762  15.319  10.905
23832W        W87556  24.705  12.804   0.731
23833W        W87557  18.119  16.297   2.729
23834W        W87558  12.220  42.433   0.740
23835W        W87559  41.453  28.547   2.875
23836W        W87560   3.233  40.314   2.192
23837W        W87561  36.538  43.416   2.345
23838W        W87562  18.716  15.786  12.486
23839W        W87563  29.061  29.175   3.700
23840W        W87564  17.066  39.381  11.605
23841W        W87565  35.000  27.608   0.923
23842W        W87566  43.768   2.312  13.047
23843W        W87567  29.662  38.456   2.730
23844W        W87568   4.328  12.666   0.469
23845W        W87569   1.428  27.661   3.765
23846W        W87570  27.029   1.922   4.693
23847W        W87571  29.160  15.125   0.332
23848W        W87572   1.762  44.765   1.260
23849W        W87573  41.863  18.734   4.182
23850W        W87574  32.093  24.530  11.592
23851W        W87575  13.819  13.231  13.011
23852W        W87576  38.436  14.658   1.346
23853W        W87577  42.454  37.008   1.794
23854W        W87578  33.070  18.558  10.474
23855W        W87579  10.167  33.075   4.712
23856W        W87580   0.953  23.032  11.587
23857W        W87581  20.254  28.108   1.873
23858W        W87582  20.767   0.987  13.872
23859W        W87583  24.124  12.717   4.671
23860W        W87584  34.481  17.173   0.921
23861W        W87585  19.654  17.068  10.943
23862W        W87586  15.583   2.265  11.548
23863W        W87587   7.871  42.357   3.844
23864W        W87588  16.250  13.642  10.494
23865W        W87589  33.939  14.729   4.222
23866W        W87590  10.204  43.337   2.220
23867W        W87591  32.621   0.366  11.579
23868W        W87592   3.783  30.559   4.741
23869W        W87593  22.235  30.125   4.742
23870W        W87594  26.147   8.314  10.140
23871W        W87595  36.390  23.601   3.810
23872W        W87596  24.484  38.428   0.907
23873W        W87597  32.614  39.854  10.932
23874W        W87598  30.595  31.086   4.257
23875W        W87599  28.484  38.463  14.834
23876W        W87600  39.064  25.067   4.282
23877W        W87601  25.634  26.112  11.431
23878W        W87602  19.267  40.491   1.823
23879W        W87603   9.368  36.589  10.528
23880W        W87604  19.630  40.800   3.302
23881W        W87605  16.244  11.800  10.986
23882W        W87606  40.928  41.391  14.885
23883W        W87607   0.922  17.154  14.012
23884W        W87608  39.471  35.919   3.819
23885W        W87609  24.680  43.497  13.362
23886W        W87610  41.446  12.269  13.542
23887W        W87611  11.679  11.293   4.144
23888W        W87612  17.563  39.937   0.873
23889W        W87613  36.965  30.009  13.496
23890W        W87614   8.677  38.012   1.886
23891W        W87615  38.069  26.522  13.522
23892W        W87616  42.815  39.530  14.460
23893W        W87617  18.678  44.391  11.939
23894W        W87618  23.629  26.093   3.329
23895W        W87619  23.239   8.397  11.488
23896W        W87620  20.228   8.713  12.016
23897W        W87621  43.804   7.682  12.892
23898W        W87622  20.609   6.707  11.862
23899W        W87623  15.139  26.091  11.899
23900W        W87624  37.874  27.959   2.860
23901W        W87625  44.755  34.382  13.348
23902W        W87626  12.640   7.370  12.904
23903W        W87627  21.574  15.109   3.312
23904W        W87628  11.133  18.645  12.388
23905W        W87629  34.572   1.970   3.661
23906W        W87630  12.739  22.228  10.614
23907W        W87631  25.532   1.942   2.260
23908W        W87632   2.441  35.989  10.144
23909W        W87633   4.355  28.930  11.870
23910W        W87634   0.957   1.942   3.746
23911W        W87635   7.184  32.428  10.476
23912W        W87636  43.446  29.045   0.792
23913W        W87637  36.570  22.506   5.273
23914W        W87638  35.858  42.887   0.935
23915W        W87639  32.488  23.500  11.585
23916W        W87640  44.450  37.493   3.728
23917W        W87641   3.883   4.745  11.522
23918W        W87642  37.906  13.246  10.413
23919W        W87643  11.182  24.717  12.425
23920W        W87644  38.494  34.957   0.953
23921W        W87645  23.054  41.907   0.453
23922W        W87646  42.472  11.368  14.927
23923W        W87647  18.598  10.754  10.537
23924W        W87648  17.203  23.713   3.291
23925W        W87649  28.981  36.506   1.336
23926W        W87650  34.480  27.113   2.312
23927W        W87651  30.082  26.549   4.343
23928W        W87652  41.297   6.691   0.424
23929W        W87653  19.189  40.050  13.450
23930W        W87654  28.929  29.588  12.831
23931W        W87655  10.749  20.621   4.204
23932W        W87656  42.431   8.349  13.462
23933W        W87657  31.524   7.321   3.778
23934W        W87658  37.906  19.241   1.280
23935W        W87659  35.360  39.988   3.836
23936W        W87660   9.827  17.696   3.643
23937W        W87661  30.412  38.925   2.382
23938W        W87662  38.004  12.271  13.490
23939W        W87663  24.487   9.153   1.882
23940W        W87664  24.690  27.487  13.821
23941W        W87665  40.949  11.294   2.807
23942W        W87666  41.504  32.141  14.448
23943W        W87667  35.414   0.468   3.260
23944W        W87668  32.393   3.235   4.207
23945W        W87669  30.006  40.446   0.960
23946W        W87670  16.744  26.464   3.772
23947W        W87671  35.523  15.250  12.050
23948W        W87672   1.863  37.351  12.573
23949W        W87673  16.214  32.637   4.244
23950W        W87674  25.015  36.556   3.216
23951W        W87675  41.016  14.716  11.379
23952W        W87676  31.441  31.099   1.379
23953W        W87677  42.943  14.317  10.942
23954W        W87678  18.073   8.729  11.511
23955W        W87679  12.787  37.426  11.996
23956W        W87680  31.918  40.040  11.058
23957W        W87681  34.388  16.801   1.347
23958W        W87682  32.897  40.916   4.770
23959W        W87683  10.340  10.279  12.444
23960W        W87684  44.488  37.892   3.712
23961W        W87685  39.014  36.588  13.841
23962W        W87686  29.559  23.674   0.313
23963W        W87687   2.728  30.582   3.681
23964W        W87688   1.866   5.694   2.296
23965W        W87689  13.264  25.645  12.848
23966W        W87690  40.016  34.568  10.559
23967W        W87691  38.549  31.144   4.122
23968W        W87692  15.241  27.623  13.539
23969W        W87693  13.749  27.687  11.400
23970W        W87694  34.004  11.134   0.741
23971W        W87695   8.196  32.517   4.610
23972W        W87696  40.335  34.030   3.799
23973W        W87697  19.252  34.979   1.913
23974W        W87698   5.767  32.080   3.798
23975W        W87699   5.302   9.195   3.680
23976W        W87700   5.401  22.232   2.387
23977W        W87701  32.521  24.052   1.747
23978W        W87702  17.180  26.570   2.353
23979W        W87703  22.623  10.744  12.977
23980W        W87704  15.190   2.304   2.410
23981W        W87705  15.658   7.792   3.843
23982W        W87706  33.404  30.443   1.255
23983W        W87707  19.727  37.001  14.464
23984W        W87708  11.216  24.054   1.380
23985W        W87709  30.071  40.496   3.855
23986W        W87710  31.484  11.631  12.033
23987W        W87711  17.555  11.741   2.729
23988W        W87712  37.028  44.800   4.703
23989W        W87713   4.814  20.758   1.391
23990W        W87714   4.939  19.054   1.884
23991W        W87715  39.494  36.379  11.937
23992W        W87716   8.185  38.519  13.862
23993W        W87717   0.458  40.883  13.407
23994W        W87718  13.282  18.293   3.341
23995W        W87719  36.942  12.828  10.495
23996W        W87720  34.445  37.496   2.280
23997W        W87721   2.410  42.863  11.929
23998W        W87722  26.149  13.130   1.918
23999W        W87723  11.696   9.154   1.804
24000W        W87724  33.897  14.129   2.897
24001W        W87725   7.861  17.210  12.063
24002W        W87726   5.197  21.055   2.298
24003W        W87727  41.385  25.633  14.344
24004W        W87728  30.908  19.260   2.694
24005W        W87729   0.349  12.141  11.562
24006W        W87730   1.353  17.119  10.918
24007W        W87731  21.225   5.294   3.233
24008W        W87732  13.652  34.941  14.469
24009W        W87733   3.328  37.505  11.936
24010W        W87734  32.455  13.287   4.721
24011W        W87735  36.913  25.028  11.967
24012W        W87736  18.723   0.774   5.090
24013W        W87737  22.181  20.120  10.501
24014W        W87738  16.271  39.400  12.914
24015W        W87739   5.309  39.395  12.954
24016W        W87740  16.664  19.651  11.118
24017W        W87741  40.458  31.606   1.793
24018W        W87742  37.071   3.925   0.380
24019W        W87743  39.979  41.806  13.505
24020W        W87744  38.560  15.583  10.545
24021W        W87745  31.898  12.722  13.851
24022W        W87746  10.187   6.831  12.889
24023W        W87747  36.431   0.397   4.296
24024W        W87748  41.828  11.821  13.502
24025W        W87749  23.100  36.569   2.840
24026W        W87750  13.648   5.285   2.857
24027W        W87751   3.743  37.985   4.310
24028W        W87752  15.653  43.281   1.272
24029W        W87753   4.755  33.034  11.550
24030W        W87754  25.019  14.134   3.357
24031W        W87755  30.506  16.706   3.832
24032W        W87756  43.979  22.195  13.408
24033W        W87757   4.359   3.249   0.264
24034W        W87758  17.767  41.922   0.432
24035W        W87759  35.572  20.662   0.345
24036W        W87760  35.581  27.599   2.385
24037W        W87761  39.321  11.339   1.721
24038W        W87762  13.639  16.123   1.863
24039W        W87763  26.055   1.352  13.054
24040W        W87764  33.093  44.838  11.477
24041W        W87765  15.682  35.872  14.509
24042W        W87766  35.985  31.899  11.033
24043W        W87767  20.122  31.630   1.341
24044W        W87768  16.192   8.717   0.731
24045W        W87769  43.383   5.252  10.506
24046W        W87770   3.798  30.534  14.914
24047W        W87771   0.494  20.100  11.429
24048W        W87772   4.765  11.661   2.827
24049W        W87773  35.558  18.711  12.565
24050W        W87774  26.017  30.539   4.268
24051W        W87775  42.966  32.040  13.978
24052W        W87776   5.417  13.218  12.412
24053W        W87777  28.068  34.947   1.706
24054W        W87778   7.331   6.354   3.738
24055W        W87779  22.026  23.489  14.841
24056W        W87780  11.296  15.118  12.415
24057W        W87781  17.270  30.550   4.633
24058W        W87782  16.179   9.685   3.381
24059W        W87783  18.053   2.942  14.473
24060W        W87784  40.518  21.075  12.576
24061W        W87785  23.195  39.492   2.902
24062W        W87786  19.041  26.586   3.834
24063W        W87787  44.452  36.070   9.669
24064W        W87788  36.871  15.117  10.058
24065W        W87789  24.572  37.526  14.431
24066W        W87790  20.198  34.580  13.839
24067W        W87791  41.984  17.245  14.804
24068W        W87792  30.518  22.587   3.731
24069W        W87793  32.503  15.199  14.954
24070W        W87794  15.267   8.207   3.197
24071W        W87795   6.404  13.133   0.375
24072W        W87796  20.269  41.376  12.551
24073W        W87797   1.400  33.562   0.948
24074W        W87798  26.560   9.234   0.849
24075W        W87799  21.606  30.558   9.643
24076W        W87800  33.058  37.430  11.005
24077W        W87801   8.784  20.672  12.089
24078W        W87802  26.015   4.331  13.824
24079W        W87803  27.957  23.724   0.806
24080W        W87804  12.221  18.632   2.315
24081W        W87805   6.818   8.239  14.956
24082W        W87806  15.602  36.537  14.299
24083W        W87807   1.465  18.690   2.676
24084W        W87808  44.310  23.674   2.809
24085W        W87809   9.222  35.405  10.995
24086W        W87810  29.484  24.980   4.761
24087W        W87811  10.181   9.279  12.863
24088W        W87812  24.143  10.753  14.973
24089W        W87813  30.107   9.854  13.442
24090W        W87814  21.122  19.675  10.145
24091W        W87815  18.071  26.461   0.752
24092W        W87816   8.237  43.879   0.296
24093W        W87817  43.446  34.029   3.714
24094W        W87818  34.036  40.950  14.470
24095W        W87819  31.040  39.992   3.158
24096W        W87820  14.721  33.549  10.414
24097W        W87821  35.105  21.121   0.287
24098W        W87822  14.731  38.857   1.904
24099W        W87823   8.882  16.137   3.676
24100W        W87824   5.771  15.694   2.334
24101W        W87825  19.052  40.344  10.074
24102W        W87826  19.718  25.529   4.660
24103W        W87827   9.228  33.529  14.964
24104W        W87828  23.023   8.740  14.952
24105W        W87829  43.856  10.860   1.847
24106W        W87830  19.254  41.361   1.767
24107W        W87831  34.051   8.192  10.941
24108W        W87832   1.834  41.935   4.786
24109W        W87833  17.068  22.561  10.103
24110W        W87834   0.492  14.798   1.370
24111W        W87835  21.229  20.673  10.974
24112W        W87836   1.957  25.682   3.649
24113W        W87837   5.274   3.725   0.444
24114W        W87838  39.409  34.490  12.450
24115W        W87839  22.111  21.203   1.861
24116W        W87840  15.755  25.095  14.897
24117W        W87841   5.929  18.747   0.302
24118W        W87842  32.990  28.933   4.254
24119W        W87843   5.295   8.760  12.414
24120W        W87844  37.405  29.926  14.503
24121W        W87845  43.483  38.909  11.485
24122W        W87846  26.119   4.902   2.873
24123W        W87847  43.419  19.682   4.724
24124W        W87848  30.072   5.225   4.799
24125W        W87849  42.026  20.671   4.610
24126W        W87850  39.823  35.993   0.429
24127W        W87851   6.267   0.431  11.943
24128W        W87852  18.727  33.620  11.874
24129W        W87853  15.258  15.651   4.162
24130W        W87854   9.374  16.682  12.508
24131W        W87855  28.932  28.135  14.513
24132W        W87856   2.295  37.014  11.397
24133W        W87857  39.816  37.833   2.370
24134W        W87858  36.409   3.265   3.803
24135W        W87859  26.074  35.051  12.365
24136W        W87860   4.795   2.826  12.387
24137W        W87861  12.846  20.684   0.752
24138W        W87862  39.489  37.983  14.970
24139W        W87863  41.359  22.543  13.907
24140W        W87864  29.979  27.463  13.408
24141W        W87865  43.272  24.207   0.866
24142W        W87866  17.263  40.529  10.501
24143W        W87867   6.740  19.720  14.842
24144W        W87868  24.614  41.319  10.590
24145W        W87869  31.642  12.825   1.274
24146W        W87870  29.004  14.656   3.676
24147W        W87871  30.465  10.856   0.265
24148W        W87872   7.356  31.404  13.330
24149W        W87873  24.514  33.026  12.547
24150W        W87874  25.524   5.396   3.158
24151W        W87875  20.202   5.203   1.788
24152W        W87876  24.696  22.188  13.804
24153W        W87877  28.596  24.677  11.055
24154W        W87878  31.153  34.054  14.813
24155W        W87879  40.014  31.501   2.766
24156W        W87880  13.351  31.644   1.732
24157W        W87881   0.824  27.133   3.225
24158W        W87882  20.142  21.028  10.971
24159W        W87883  14.737  32.007   0.850
24160W        W87884  28.436  44.787  13.976
24161W        W87885  26.605   8.367  12.066
24162W        W87886   7.723   9.276   1.922
24163W        W87887  26.463   5.247   3.783
24164W        W87888   9.785  35.913  11.459
24165W        W87889   5.690  23.088  14.875
24166W        W87890  17.644  44.472   4.168
24167W        W87891  14.592  41.477  12.371
24168W        W87892  30.912  43.784   0.479
24169W        W87893  18.179  38.031   2.773
24170W        W87894  38.569   3.765  14.893
24171W        W87895  37.844   6.427  14.015
24172W        W87896   9.260  29.475   4.756
24173W        W87897  26.606  38.029   4.232
24174W        W87898  27.117  38.326  12.868
24175W        W87899  39.496   3.715   0.306
24176W        W87900  42.479  18.241   2.311
24177W        W87901  42.422  39.420   1.291
24178W        W87902  37.036  28.024  14.826
24179W        W87903  10.778  29.067  13.476
24180W        W87904   9.707   9.748   1.298
24181W        W87905  23.232  10.788   2.773
24182W        W87906  37.528  44.414   2.213
24183W        W87907   7.330   8.336   4.187
24184W        W87908  41.494  26.164   1.313
24185W        W87909   2.282  35.097   0.291
24186W        W87910   8.271  10.299  14.973
24187W        W87911  17.666  12.171   0.307
24188W        W87912  31.951  20.244  12.481
24189W        W87913  30.593  18.245  14.385
24190W        W87914  39.916  12.234  14.860
24191W        W87915  32.605  15.152  13.056
24192W        W87916  28.677  34.913  10.984
24193W        W87917  26.041   9.229   2.244
24194W        W87918  43.778  35.970   5.299
24195W        W87919  20.235  17.205  11.035
24196W        W87920   2.911  41.832  11.389
24197W        W87921   0.329  17.584  14.455
24198W        W87922  36.961  14.612   3.704
24199W        W87923  34.921  13.612   0.769
24200W        W87924  15.807  15.295   5.111
24201W        W87925  44.461   7.835   1.740
24202W        W87926  25.184   1.292  14.321
24203W        W87927  34.041   1.877   2.410
24204W        W87928  25.559  32.108   1.397
24205W        W87929   3.857  24.122   3.203
24206W        W87930  39.044  22.719   3.348
24207W        W87931  36.866   9.705   0.423
24208W        W87932  29.928   8.328   4.597
24209W        W87933   7.890   5.339   3.725
24210W        W87934  23.646  21.214   2.203
24211W        W87935  41.026  44.505  12.853
24212W        W87936  25.974  26.628  11.023
24213W        W87937  44.289   0.365  12.871
24214W        W87938  26.988   7.896   2.696
24215W        W87939  23.174   2.725   1.430
24216W        W87940  26.691   8.753  12.460
24217W        W87941  26.673  28.054  11.041
24218W        W87942  40.367   0.463  11.962
24219W        W87943  17.249   8.681   2.226
24220W        W87944   6.404  34.474   4.250
24221W        W87945  24.678   4.840   1.397
24222W        W87946  43.439  43.440  14.401
24223W        W87947  17.233  14.203  11.378
24224W        W87948  38.530  11.235   2.860
24225W        W87949  34.428  39.902   1.865
24226W        W87950  13.183   0.850   3.251
24227W        W87951  39.945   9.814   3.835
24228W        W87952  37.898   9.246   1.812
24229W        W87953  25.217  11.801   0.829
24230W        W87954  36.457   5.706  14.293
24231W        W87955  35.071   9.671  13.986
24232W        W87956  12.702   4.866   0.954
24233W        W87957   2.438  24.208   2.751
24234W        W87958  21.615  21.162   1.327
24235W        W87959  40.310  40.012  10.129
24236W        W87960  40.325  14.619   1.369
24237W        W87961   9.282  16.244  12.358
24238W        W87962  41.463  41.894  11.078
24239W        W87963   0.984   7.872  12.513
24240W        W87964  23.586  30.034   1.383
24241W        W87965  29.448   8.361  10.564
24242W        W87966   1.761   9.395   1.889
24243W        W87967  32.457  12.245   4.644
24244W        W87968  21.250   0.956   1.434
24245W        W87969  24.499  12.295   3.711
24246W        W87970  42.889  15.686  13.795
24247W        W87971  39.972   5.282  10.419
24248W        W87972  39.958  10.856  13.814
24249W        W87973  37.534  40.018   4.208
24250W        W87974  30.017   2.396   4.687
24251W        W87975  23.105  21.084   5.137
24252W        W87976   1.265   5.825  12.863
24253W        W87977  27.639   1.319  11.424
24254W        W87978   3.763  30.930  13.974
24255W        W87979  40.825  24.658  12.532
24256W        W87980   3.403   3.316  14.283
24257W        W87981  39.899  18.552   1.423
24258W        W87982   0.269  40.052   3.871
24259W        W87983   0.478  26.490   1.215
24260W        W87984  30.988   0.353  11.519
24261W        W87985  11.738  18.779   1.324
24262W        W87986  36.942  12.203   1.226
24263W        W87987  25.031  36.474   4.701
24264W        W87988  16.795  31.941  11.420
24265W        W87989   2.758  14.766  14.785
24266W        W87990  25.047  27.489   0.246
24267W        W87991  20.099  14.228   4.177
24268W        W87992  38.326  37.438  11.872
24269W        W87993  31.424  31.468   4.672
24270W        W87994  43.768  21.192   4.117
24271W        W87995  15.714  12.266   1.356
24272W        W87996   1.386  20.588  13.866
24273W        W87997  22.228  35.064   1.881
24274W        W87998  25.481  13.656  11.494
24275W        W87999  12.615  21.127  10.535
24276W        W88000  16.574  14.326  12.967
24277W        W88001  34.008  21.544   0.765
24278W        W88002   6.711  40.979   3.290
24279W        W88003  11.215  29.609  13.057
24280W        W88004  15.272  42.452   4.659
24281W        W88005  14.681   6.796   2.287
24282W        W88006  21.186  24.122  14.366
24283W        W88007  33.388  39.530   3.280
24284W        W88008   4.221  19.092   2.820
24285W        W88009  38.024  39.966  12.080
24286W        W88010  21.188  36.090   2.271
24287W        W88011   4.433  17.078   2.317
24288W        W88012   1.477  42.825   4.707
24289W        W88013  30.436  37.555  10.895
24290W        W88014   3.318   8.770  11.026
24291W        W88015  32.052   4.931   4.193
24292W        W88016  12.142  28.144   2.765
24293W        W88017  44.443  21.576   1.278
24294W        W88018  43.917  12.769  13.984
24295W        W88019  14.265   0.292  13.416
24296W        W88020  38.571  20.102  13.913
24297W        W88021  41.352  14.682  11.462
24298W        W88022  26.012   7.783  14.889
24299W        W88023  19.565  30.065   3.865
24300W        W88024  15.257  35.861   0.830
24301W        W88025  30.976  41.320   5.200
24302W        W88026  14.325  11.166   2.794
24303W        W88027  39.537  44.865  13.386
24304W        W88028  17.135  21.189   4.197
24305W        W88029  10.358  30.002  14.288
24306W        W88030  44.329  32.404  12.340
24307W        W88031  32.523  43.389  10.418
24308W        W88032   7.332  17.091  12.907
24309W        W88033  34.919  27.493   1.230
24310W        W88034  33.489  43.478   1.255
24311W        W88035  12.249  41.328  12.894
24312W        W88036  41.973  42.418  12.953
24313W        W88037  11.324  17.223   0.927
24314W        W88038   6.224   8.670  12.446
24315W        W88039  23.999   7.810   1.216
24316W        W88040  19.043  15.742   5.092
24317W        W88041  27.656  32.430  13.839
24318W        W88042  15.219   3.398  10.636
24319W        W88043  44.494  31.477  14.437
24320W        W88044  36.533  25.031  13.520
24321W        W88045  12.782   6.687   3.280
24322W        W88046  40.525   2.383   4.191
24323W        W88047   3.921   9.877   2.837
24324W        W88048  22.078  41.449  12.352
24325W        W88049  42.826  42.914   1.219
24326W        W88050  44.822  27.090   4.640
24327W        W88051  33.524  26.031   0.850
24328W        W88052   8.278  26.209  12.472
24329W        W88053  26.055   1.351   1.930
24330W        W88054   3.743  25.181   0.749
24331W        W88055  27.595   3.279   3.198
24332W        W88056  38.408   8.299   3.637
24333W        W88057  29.541  40.003  13.884
24334W        W88058  16.657  10.675   3.336
24335W        W88059  11.781  35.981  11.501
24336W        W88060  13.649   1.976  11.922
24337W        W88061   3.282  27.016   2.273
24338W        W88062   7.331  34.019   3.723
24339W        W88063  39.497   6.197  10.985
24340W        W88064  33.897  18.081  11.882
24341W        W88065  26.628  33.570  13.547
24342W        W88066   0.295  21.745  14.803
24343W        W88067  22.707  15.259  13.471
24344W        W88068  30.933  20.109  11.946
24345W        W88069   9.352  35.933  12.487
24346W        W88070  16.140  16.585  11.106
24347W        W88071   2.396   2.267  11.472
24348W        W88072  39.389  30.427  10.931
24349W        W88073  31.500  42.391   0.776
24350W        W88074  24.069  17.776   1.247
24351W        W88075  34.863  26.106  10.434
24352W        W88076  39.457  41.304  11.581
24353W        W88077  27.054  35.359  12.081
24354W        W88078   3.827  23.215   0.313
24355W        W88079  13.828  39.982   1.262
24356W        W88080  17.658  32.497   4.275
24357W        W88081  38.893  44.836   3.852
24358W        W88082  30.143   5.853  11.118
24359W        W88083   9.814  42.502   2.873
24360W        W88084  36.439  41.916  11.072
24361W        W88085  28.577  33.614  12.536
24362W        W88086  31.420  25.093  11.106
24363W        W88087  31.534  10.821   3.386
24364W        W88088  30.529  17.254   3.241
24365W        W88089  29.668  43.790   1.911
24366W        W88090  37.959  37.468   4.752
24367W        W88091  11.821   8.887  14.458
24368W        W88092  25.606  14.732   0.258
24369W        W88093  19.134  10.359   0.802
24370W        W88094  28.005  11.165  10.430
24371W        W88095  24.168  17.269   4.208
24372W        W88096  33.008   5.319  12.990
24373W        W88097  22.249  34.112  13.995
24374W        W88098  32.013   3.432   4.612
24375W        W88099  24.104  41.939  10.901
24376W        W88100  18.781  17.744  14.838
24377W        W88101  25.675  25.964   0.922
24378W        W88102   3.929  14.193   3.862
24379W        W88103  15.720  13.276  14.371
24380W        W88104   3.286  36.964  13.483
24381W        W88105   7.729  20.742   1.822
24382W        W88106  36.529  22.703   1.856
24383W        W88107  42.858  11.867  12.872
24384W        W88108  39.829   6.732   4.783
24385W        W88109  15.697   8.220   4.786
24386W        W88110   2.879  33.469  14.860
24387W        W88111  36.494  11.759  12.080
24388W        W88112  31.007   3.954  10.999
24389W        W88113  19.261  29.669   0.473
24390W        W88114  31.989  38.507   3.857
24391W        W88115  39.886   9.177  12.540
24392W        W88116  10.712  20.604   2.316
24393W        W88117  13.214  10.307  10.082
24394W        W88118  35.043   0.337   4.721
24395W        W88119  41.485  41.360   1.895
24396W        W88120  23.133  43.451   1.877
24397W        W88121  19.694  11.204   3.689
24398W        W88122  12.646  28.093  14.781
24399W        W88123  20.115  26.616   0.322
24400W        W88124  11.317  22.090  10.603
24401W        W88125  26.527  25.969   1.755
24402W        W88126   9.212  33.493  14.470
24403W        W88127   9.153   7.296  12.371
24404W        W88128  44.281  18.065   4.300
24405W        W88129  27.157  19.145  14.406
24406W        W88130  12.798  13.778  12.873
24407W        W88131  29.142   1.761  13.501
24408W        W88132  40.494  41.814  12.404
24409W        W88133  23.502   3.877   4.238
24410W        W88134  29.516  28.975   1.352
24411W        W88135  22.528  16.281   3.828
24412W        W88136  22.536  23.018  14.766
24413W        W88137  18.124  27.948   0.952
24414W        W88138  24.984  27.523   4.320
24415W        W88139  17.688  42.909  10.930
24416W        W88140   6.194  40.978   3.821
24417W        W88141  29.022   0.764   1.292
24418W        W88142  11.819  32.590  11.051
24419W        W88143   6.237  27.015   0.336
24420W        W88144  26.640   4.334  14.400
24421W        W88145  21.178   4.916  11.933
24422W        W88146   9.804  36.446   0.817
24423W        W88147  28.090   5.773   3.286
24424W        W88148   6.690  15.688  10.053
24425W        W88149  38.473  39.859   2.746
24426W        W88150  10.772  35.442  14.392
24427W        W88151  32.520  31.990  10.938
24428W        W88152  11.680  14.100   9.923
24429W        W88153   4.224   8.292  13.368
24430W        W88154  39.405  12.837   0.753
24431W        W88155  29.089  36.500  14.973
24432W        W88156  33.605  10.248  14.912
24433W        W88157  22.248  20.540  14.361
24434W        W88158  14.626  44.010   1.876
24435W        W88159  14.802  11.822  10.575
24436W        W88160   5.806   7.714  12.465
24437W        W88161  25.970  13.138  14.433
24438W        W88162  29.076   6.316  11.013
24439W        W88163  29.548  23.092  13.895
24440W        W88164   2.315   9.699  12.867
24441W        W88165  24.581  11.683   3.251
24442W        W88166  17.228  10.776  13.411
24443W        W88167  13.150  21.160   9.993
24444W        W88168  18.643   2.829   2.880
24445W        W88169  24.149  21.538  12.941
24446W        W88170  42.439  27.520   1.832
24447W        W88171  18.133  36.582  14.277
24448W        W88172  27.991  19.114  12.075
24449W        W88173  14.734   3.776   3.846
24450W        W88174  25.070  26.534  10.504
24451W        W88175   3.809  23.561   0.433
24452W        W88176  22.637  37.932  13.425
24453W        W88177  16.699  22.527  11.448
24454W        W88178  13.839   5.352   1.901
24455W        W88179  40.497   0.863   0.795
24456W        W88180  37.896   4.449  10.571
24457W        W88181   0.800  23.088   0.809
24458W        W88182  41.917  33.436   3.271
24459W        W88183  30.605   5.931   2.791
24460W        W88184   2.872  16.735  13.010
24461W        W88185  36.042  25.017  14.763
24462W        W88186  14.676  36.989  14.815
24463W        W88187  25.128  23.587   1.913
24464W        W88188  37.463  23.626  14.799
24465W        W88189   2.801  17.667   2.343
24466W        W88190   2.877  44.908   2.779
24467W        W88191  19.098  43.275  13.537
24468W        W88192  33.121   8.195  13.474
24469W        W88193  31.635  31.920  11.085
24470W        W88194  39.939  17.643   4.352
24471W        W88195  19.768  33.121   9.997
24472W        W88196  41.788  25.975  12.035
24473W        W88197  26.164  20.610   1.353
24474W        W88198  40.045   0.458  13.534
24475W        W88199  44.358  17.190  10.941
24476W        W88200  25.214  20.210  14.500
24477W        W88201  36.968  38.430  13.394
24478W        W88202   6.424  14.120   1.217
24479W        W88203  40.357  37.945  12.971
24480W        W88204  41.978  36.425  14.351
24481W        W88205  16.723  16.213  12.959
24482W        W88206   2.435  13.342  12.549
24483W        W88207  24.182  11.672  11.505
24484W        W88208   1.885  34.971  10.541
24485W        W88209  44.299  40.800   3.726
24486W        W88210  16.157   1.746  13.508
24487W        W88211   7.242  33.547  10.642
24488W        W88212  24.098  22.212  14.022
24489W        W88213   7.398  34.999  12.828
24490W        W88214   9.738  16.621  12.479
24491W        W88215  28.561   5.788   2.397
24492W        W88216   1.835  40.840   4.798
24493W        W88217  22.691   0.452  10.406
24494W        W88218  10.869  31.055   4.166
24495W        W88219  18.671  32.893   2.317
24496W        W88220  33.491  17.203   1.378
24497W        W88221  11.633  13.225   3.153
24498W        W88222   2.363  25.982  14.455
24499W        W88223  43.498  28.531  13.838
24500W        W88224  13.349  40.922   1.924
24501W        W88225  12.154  11.157  10.597
24502W        W88226  20.180   6.314   3.243
24503W        W88227  42.520   5.281   0.284
24504W        W88228  41.867  26.181  14.374
24505W        W88229  20.112  38.969  11.916
24506W        W88230  29.092  23.130  12.573
24507W        W88231   5.265  43.508  10.434
24508W        W88232  16.180  26.603  11.425
24509W        W88233  41.479  39.858   4.161
24510W        W88234  18.702  35.979   0.833
24511W        W88235  17.753  30.004  13.942
24512W        W88236  40.910  38.042   3.650
24513W        W88237  13.203  15.700   2.204
24514W        W88238  35.502   6.790   1.265
24515W        W88239  44.417  38.017   3.377
24516W        W88240  42.918  39.457   4.129
24517W        W88241  14.252  38.051  10.527
24518W        W88242  10.187  26.035   2.874
24519W        W88243  31.103  36.042  12.433
24520W        W88244  32.492  22.043  14.856
24521W        W88245  22.692   3.731   2.823
24522W        W88246  26.195  30.160   2.880
24523W        W88247   7.799  11.192   3.848
24524W        W88248   7.712  23.659  10.404
24525W        W88249   1.874   1.856  13.018
24526W        W88250  14.143   3.270   5.251
24527W        W88251  31.088   7.708   4.243
24528W        W88252   2.440  42.520  10.482
24529W        W88253  22.033  10.739  14.913
24530W        W88254  19.774  37.957   4.292
24531W        W88255  29.641  30.452   4.330
24532W        W88256   4.772  17.267   1.330
24533W        W88257  29.435  16.581  12.527
24534W        W88258  44.771  40.951  13.333
24535W        W88259  44.429  32.942  11.867
24536W        W88260  32.063  28.996   1.839
24537W        W88261  31.560   3.406  12.366
24538W        W88262  13.826  39.953   4.667
24539W        W88263   4.794  25.013  14.020
24540W        W88264  16.711  39.535  13.036
24541W        W88265  43.897  20.755  12.062
24542W        W88266  25.021  15.259  12.068
24543W        W88267  43.302  34.368  11.879
24544W        W88268   7.796  12.745   3.280
24545W        W88269  36.353  13.836  12.401
24546W        W88270   8.820  32.920   0.790
24547W        W88271  32.404  36.400  14.504
24548W        W88272  17.201  34.457   1.934
24549W        W88273  26.129  42.874  10.904
24550W        W88274  35.075  23.002  12.918
24551W        W88275  40.898  22.641   3.304
24552W        W88276   1.357  10.639  13.954
24553W        W88277  36.893  34.035   2.190
24554W        W88278   6.352  43.867  13.979
24555W        W88279  37.548  10.244   4.201
24556W        W88280  15.633  21.077   2.279
24557W        W88281  40.500  29.650   0.742
24558W        W88282  29.512  16.157  11.855
24559W        W88283   4.812  40.367  12.008
24560W        W88284  33.511   5.770   4.333
24561W        W88285  11.805   3.755   1.813
24562W        W88286  32.535  33.878  10.411
24563W        W88287  16.136  30.951   1.724
24564W        W88288  22.574  28.959   1.908
24565W        W88289   3.294   8.867  13.005
24566W        W88290  13.805  19.258   2.399
24567W        W88291   7.869  12.814   1.716
24568W        W88292  38.342   6.410  11.467
24569W        W88293  31.415  34.897  13.973
24570W        W88294  43.822  34.914   5.109
24571W        W88295  29.995  10.318   1.839
24572W        W88296  11.729  31.449   0.847
24573W        W88297  18.205  31.606   1.256
24574W        W88298  31.937  12.121  12.033
24575W        W88299  13.174  40.021  12.503
24576W        W88300  39.933  19.535   4.656
24577W        W88301  24.018   2.824  11.440
24578W        W88302  19.229  30.108  13.517
24579W        W88303  40.969  44.784   3.304
24580W        W88304  35.392  23.071   0.397
24581W        W88305  23.149  34.444   2.280
24582W        W88306  12.771   6.768   2.352
24583W        W88307  18.246  36.517   3.365
24584W        W88308  28.046  13.160   0.871
24585W        W88309   9.251  10.733   3.720
24586W        W88310   9.326  18.252  10.115
24587W        W88311   9.271  13.184  10.587
24588W        W88312  15.759   1.299  10.421
24589W        W88313  39.915   4.763  13.034
24590W        W88314  37.537   1.432   4.215
24591W        W88315  43.774  19.627  12.943
24592W        W88316  25.696   2.292   4.340
24593W        W88317  28.578  35.373  10.964
24594W        W88318  42.301  24.203   1.849
24595W        W88319  31.576  21.084  14.803
24596W        W88320  15.253  16.226  14.491
24597W        W88321  34.993  33.901  13.442
24598W        W88322   2.895  34.066   2.213
24599W        W88323  38.021  12.717   3.826
24600W        W88324  25.639   7.323   1.410
24601W        W88325  16.575  40.464  13.996
24602W        W88326  16.589  35.464  13.931
24603W        W88327  14.661   0.464  14.299
24604W        W88328   8.309  25.673  11.576
24605W        W88329  37.038   9.280   1.751
24606W        W88330   8.209  24.571  11.003
24607W        W88331  16.222  13.812   4.219
24608W        W88332  42.029  15.187   4.814
24609W        W88333   7.228   8.211  13.866
24610W        W88334  26.521  41.314   1.396
24611W        W88335  26.007  26.979   9.590
24612W        W88336   3.787  29.611   0.301
24613W        W88337   4.253   9.280   1.780
24614W        W88338  37.374  34.531  12.968
24615W        W88339  12.740  37.479  10.538
24616W        W88340  31.059  32.531   2.795
24617W        W88341  17.715  30.527  13.445
24618W        W88342  42.845   8.260   1.773
24619W        W88343  18.058  13.299   0.440
24620W        W88344  11.661  21.167  11.024
24621W        W88345  26.095   8.759   0.831
24622W        W88346  31.090  23.077  14.824
24623W        W88347  36.906  44.967   3.796
24624W        W88348  37.949  29.938   3.828
24625W        W88349  32.056  37.547   4.624
24626W        W88350  12.169  30.972   0.862
24627W        W88351  42.024  29.499   1.851
24628W        W88352   4.833  44.897  13.502
24629W        W88353  14.734  33.977   2.693
24630W        W88354  22.645  36.478  11.451
24631W        W88355   5.877   9.672  11.569
24632W        W88356  35.518  27.545   1.747
24633W        W88357  26.695  44.793  12.538
24634W        W88358   5.332  11.808  11.436
24635W        W88359  40.547   7.679  12.871
24636W        W88360  33.435  10.158  14.509
24637W        W88361  10.168  13.281  11.442
24638W        W88362   0.969  19.723   9.946
24639W        W88363  26.113  37.073  14.438
24640W        W88364  38.405   1.743   4.164
24641W        W88365  41.410   3.933   1.325
24642W        W88366  44.481  25.107  14.411
24643W        W88367   9.334   2.392  14.308
24644W        W88368   8.254   8.216   1.726
24645W        W88369  28.621  32.893  11.427
24646W        W88370  24.571   6.690  11.905
24647W        W88371  30.004   9.373   2.848
24648W        W88372  42.384  16.684  13.403
24649W        W88373   1.320  41.491   3.642
24650W        W88374   1.444  22.559  14.011
24651W        W88375  10.228  41.793  11.373
24652W        W88376  38.834  42.010  12.075
24653W        W88377  20.186  19.193  14.451
24654W        W88378  12.830   9.886   2.212
24655W        W88379  35.408  42.312  11.044
24656W        W88380  38.522  22.112   2.344
24657W        W88381   5.883  39.521   2.348
24658W        W88382  18.265  11.312   2.813
24659W        W88383  28.444  44.943   1.358
24660W        W88384   7.182  41.043  11.590
24661W        W88385  26.571  37.041  10.910
24662W        W88386  34.079  29.941   4.740
24663W        W88387  42.509   4.862  11.609
24664W        W88388  29.581  11.849  13.915
24665W        W88389  44.474  29.926   1.256
24666W        W88390  18.224  43.990  11.946
24667W        W88391  39.554   0.874  10.408
24668W        W88392  33.061  29.032   2.779
24669W        W88393   5.389  40.028   5.216
24670W        W88394  43.452  23.194   2.843
24671W        W88395  43.814  26.033  14.812
24672W        W88396  12.655  19.648  14.929
24673W        W88397  13.824  13.290   2.319
24674W        W88398  18.140  22.728  14.297
24675W        W88399  28.163  10.674  13.797
24676W        W88400   4.288  23.056  11.522
24677W        W88401   0.833  44.274   0.850
24678W        W88402   2.427  32.976   4.701
24679W        W88403  29.470   4.698   4.827
24680W        W88404  29.166  11.292  14.478
24681W        W88405   1.417  44.293   2.368
24682W        W88406  43.411  28.495   3.684
24683W        W88407  28.982  42.813  10.468
24684W        W88408  15.668   1.344   1.253
24685W        W88409  17.742   7.885  14.020
24686W        W88410  43.797  18.751   2.193
24687W        W88411  28.949  22.126   3.239
24688W        W88412  11.653  43.846  13.971
24689W        W88413  31.077  14.314  13.812
24690W        W88414  37.546  41.532   3.364
24691W        W88415   7.289  37.931   4.265
24692W        W88416  20.219  32.936  14.992
24693W        W88417  10.207  15.604   1.754
24694W        W88418  20.151  10.879  14.031
24695W        W88419  43.367  32.555  14.436
24696W        W88420  43.358  20.226  13.334
24697W        W88421  33.057  44.827   3.787
24698W        W88422  38.917  21.191   4.665
24699W        W88423  33.073   4.740   0.326
24700W        W88424   6.310   9.197  14.419
24701W        W88425  28.168  29.029  10.004
24702W        W88426  19.689  42.439  13.816
24703W        W88427   4.410  27.097   0.882
24704W        W88428  34.439  34.403   4.824
24705W        W88429  40.445  25.026  10.428
24706W        W88430   3.238  27.109   1.370
24707W        W88431  29.622  30.943  12.532
24708W        W88432  21.128  17.269   3.224
24709W        W88433  36.400  26.053  12.977
24710W        W88434  34.030   8.404   2.315
24711W        W88435  31.418  24.583  14.838
24712W        W88436  31.552  38.328   0.259
24713W        W88437   2.382  15.611   0.864
24714W        W88438  26.990  44.800   3.802
24715W        W88439  24.619  21.589  12.581
24716W        W88440  21.573  34.918  13.470
24717W        W88441  23.057   0.885  14.836
24718W        W88442  41.470  35.452  12.033
24719W        W88443   9.647   3.744  10.994
24720W        W88444  29.144  33.406   1.776
24721W        W88445  19.071  18.235  11.478
24722W        W88446  40.860   0.922  11.927
24723W        W88447  26.131  34.887  12.960
24724W        W88448  43.357  39.987  13.919
24725W        W88449   7.276  27.965  11.572
24726W        W88450  17.623  29.622  11.057
24727W        W88451  23.693  19.628  10.461
24728W        W88452   9.805   9.248   4.350
24729W        W88453   9.281  34.918   1.306
24730W        W88454  37.958  33.880   4.280
24731W        W88455   6.378  22.122   2.354
24732W        W88456  27.159  14.589  11.925
24733W        W88457  32.473   9.158  11.466
24734W        W88458   7.176   0.273   4.687
24735W        W88459   4.798  27.636  14.897
24736W        W88460  23.542  39.059   4.116
24737W        W88461  31.134  24.216   4.114
24738W        W88462  16.650   2.333   3.162
24739W        W88463  20.055  12.170  13.508
24740W        W88464  13.840  36.470   4.308
24741W        W88465  12.328  16.712   3.147
24742W        W88466   1.834  27.969   3.730
24743W        W88467  28.930  28.438  14.027
24744W        W88468   1.304  35.964   2.846
24745W        W88469  30.953  29.539  10.588
24746W        W88470  37.486  20.153   3.804
24747W        W88471  33.475   1.827  14.456
24748W        W88472  28.089  34.597   2.839
24749W        W88473   8.291   4.804  12.473
24750W        W88474  11.165   6.332   3.241
24751W        W88475  44.940  27.490  12.825
24752W        W88476  34.441   1.334  14.304
24753W        W88477   1.268  24.080  14.394
24754W        W88478  39.840  38.827   2.199
24755W        W88479  43.453  37.971  13.321
24756W        W88480  18.178  28.586  13.392
24757W        W88481  17.782  38.473   1.871
24758W        W88482  25.164  26.134  12.059
24759W        W88483  27.172  23.512  13.432
24760W        W88484  14.685   8.350   3.357
24761W        W88485  32.394  36.907  12.987
24762W        W88486  35.102  44.474   4.726
24763W        W88487  40.850   3.874   0.835
24764W        W88488  12.612  31.923  13.451
24765W        W88489  43.337  29.040  11.452
24766W        W88490   0.808  41.387   2.279
24767W        W88491  24.522  32.890   2.741
24768W        W88492  27.594   9.816   0.460
24769W        W88493  20.609  12.801  14.827
24770W        W88494  22.525   5.777  14.875
24771W        W88495  35.054   1.471  12.567
24772W        W88496  39.459  39.493   4.694
24773W        W88497  26.118  35.085   1.763
24774W        W88498   1.345  20.647  12.968
24775W        W88499   9.178   0.860  13.433
24776W        W88500  40.893   4.250   1.835
24777W        W88501  17.742  17.290  14.417
24778W        W88502  41.969  30.426  10.443
24779W        W88503  37.459   4.862   1.341
24780W        W88504  38.905  31.897   3.367
24781W        W88505  25.132  34.595  11.007
24782W        W88506  44.942  18.256   1.872
24783W        W88507  31.031  33.520  11.438
24784W        W88508  28.627   0.791  11.511
24785W        W88509  16.303  33.047  14.870
24786W        W88510   4.261  19.137  13.452
24787W        W88511  19.701  22.088  14.315
24788W        W88512  36.849  40.807  10.500
24789W        W88513  20.585   0.433  13.810
24790W        W88514  12.830   1.776  10.921
24791W        W88515  16.164  41.428   1.853
24792W        W88516  37.847  22.124  14.515
24793W        W88517  23.195   4.399  14.759
24794W        W88518  25.615  22.530   2.662
24795W        W88519  32.074  24.583   3.290
24796W        W88520  20.151  12.194   5.266
24797W        W88521  39.418  38.348   3.815
24798W        W88522   8.307  36.983   3.365
24799W        W88523   3.887  26.555   3.326
24800W        W88524  16.813  29.485  12.003
24801W        W88525   7.174  44.851   2.356
24802W        W88526  15.247   6.394  12.971
24803W        W88527  35.496  37.508  11.918
24804W        W88528  19.222  20.248   3.148
24805W        W88529  18.120   9.753   4.790
24806W        W88530  43.776  40.834   0.320
24807W        W88531  44.973  23.622   4.600
24808W        W88532  22.685  15.783  12.041
24809W        W88533   1.459  26.586  10.546
24810W        W88534  37.514  24.606  11.088
24811W        W88535   4.383  20.548  13.343
24812W        W88536   5.263   8.720  13.992
24813W        W88537  27.582   1.368  10.952
24814W        W88538  21.058  20.737  11.381
24815W        W88539  40.478  31.133   4.319
24816W        W88540  20.591  20.610  12.937
24817W        W88541   4.866   4.719  10.939
24818W        W88542  17.177  20.095  12.021
24819W        W88543   1.255   0.385  11.565
24820W        W88544  28.071  39.399  10.637
24821W        W88545  16.260  16.265  11.957
24822W        W88546  40.908  32.104  12.929
24823W        W88547  33.582  12.698  12.070
24824W        W88548  18.094  19.127   1.888
24825W        W88549  21.577  38.022  13.950
24826W        W88550  24.135  24.544  11.555
24827W        W88551  43.963  22.594   5.234
24828W        W88552  11.787  14.136  11.122
24829W        W88553  38.959  26.596   3.690
24830W        W88554  17.641  42.407  10.951
24831W        W88555   0.791  29.655  13.895
24832W        W88556  32.896  23.609  14.425
24833W        W88557  15.810  19.109  14.796
24834W        W88558  28.533  22.582  13.867
24835W        W88559  43.384  12.175  12.904
24836W        W88560  42.985   2.757  14.770
24837W        W88561  25.627  32.993   0.912
24838W        W88562  12.635  31.414  10.458
24839W        W88563  24.647  38.972   3.302
24840W        W88564  38.379  34.974  14.945
24841W        W88565  28.967  19.089  11.566
24842W        W88566  25.046   8.163   3.329
24843W        W88567  28.050  33.882  12.960
24844W        W88568  18.108  16.645   2.278
24845W        W88569  34.887  11.368   3.729
24846W        W88570  17.575  33.901   1.375
24847W        W88571  27.659  15.817  14.461
24848W        W88572  22.688  12.258  14.494
24849W        W88573   7.908  38.848   3.722
24850W        W88574  14.128  18.776  13.800
24851W        W88575  20.564  17.194  11.542
24852W        W88576  26.532  12.257  11.883
24853W        W88577  18.667  12.672  11.486
24854W        W88578  42.958  38.886  13.946
24855W        W88579  23.511  17.231  14.415
24856W        W88580   6.689  37.400   2.236
24857W        W88581  10.706  16.638  13.389
24858W        W88582   4.318  13.752   3.652
24859W        W88583   2.227  44.007  11.558
24860W        W88584   9.647   2.744   4.312
24861W        W88585   5.816  35.986  14.003
24862W        W88586   2.414  10.287  12.386
24863W        W88587  13.303  42.512  10.926
24864W        W88588  20.194  44.950   1.723
24865W        W88589   8.298  14.595  12.460
24866W        W88590   0.799  19.102  10.942
24867W        W88591  19.228  15.210   2.832
24868W        W88592  42.499   7.237  12.957
24869W        W88593  22.064  21.162  12.874
24870W        W88594   0.820  38.499  11.548
24871W        W88595  44.443  28.060  10.925
24872W        W88596  23.031  22.715   1.817
24873W        W88597  21.058  42.975   4.816
24874W        W88598  43.879  13.163  13.050
24875W        W88599  25.525  26.571   2.401
24876W        W88600  22.162   4.915   2.805
24877W        W88601  12.169  25.119   0.901
24878W        W88602   9.273  14.291  10.964
24879W        W88603  22.534   0.463  14.845
24880W        W88604  40.017  43.917  11.992
24881W        W88605  43.853  17.624  10.641
24882W        W88606  36.868  31.510  13.034
24883W        W88607  13.699  27.676   1.736
24884W        W88608  28.117  29.516   0.449
24885W        W88609  19.239  12.814   2.407
24886W        W88610  38.832  36.857  11.856
24887W        W88611  30.646  12.760  13.492
24888W        W88612  23.115  31.447  13.516
24889W        W88613   4.720  42.907   0.258
24890W        W88614   1.911  36.923   3.769
24891W        W88615  39.557   6.299  13.510
24892W        W88616  26.996  18.685   4.805
24893W        W88617  40.052  34.014  11.113
24894W        W88618   8.793  26.618   0.411
24895W        W88619  13.678  30.032  11.515
24896W        W88620   2.382  15.284   1.766
24897W        W88621  44.415  43.317   0.908
24898W        W88622  20.261  30.003   1.804
24899W        W88623   1.434   7.304   3.337
24900W        W88624   0.487  32.605   2.862
24901W        W88625  36.008   4.756  11.880
24902W        W88626   0.905  41.964   0.837
24903W        W88627   4.306  14.660   3.300
24904W        W88628  14.175   0.747  11.870
24905W        W88629  32.888  32.925   2.799
24906W        W88630  15.132  11.743   4.339
24907W        W88631  19.078   9.787  11.404
24908W        W88632   5.796  28.442  14.840
24909W        W88633  35.890  31.523  10.432
24910W        W88634   8.808  42.381   1.385
24911W        W88635  11.785   1.280  10.982
24912W        W88636  28.466   9.356  12.968
24913W        W88637  24.548  30.419   2.343
24914W        W88638   7.389  17.767   0.751
24915W        W88639  17.614  43.494  12.878
24916W        W88640   6.423  22.542   2.893
24917W        W88641  12.119  10.144   0.355
24918W        W88642  32.539  29.924   1.435
24919W        W88643   2.439   0.748   2.385
24920W        W88644  19.277  41.386  11.378
24921W        W88645  35.015  42.463  11.503
24922W        W88646   2.841  36.578   2.290
24923W        W88647  16.079  11.167   2.846
24924W        W88648  40.394   4.723   5.158
24925W        W88649  33.887  23.126  14.372
24926W        W88650  42.465  42.357   4.810
24927W        W88651  18.654  33.561  12.456
24928W        W88652  29.525  12.361   1.335
24929W        W88653  37.453  11.814  13.368
24930W        W88654  32.513  37.567  11.040
24931W        W88655  12.273  28.001   0.828
24932W        W88656  12.279   0.879  10.953
24933W        W88657   5.353   9.660   1.854
24934W        W88658  32.635  36.084  11.087
24935W        W88659   3.784  18.227   4.144
24936W        W88660  31.997  39.318  11.523
24937W        W88661   3.886  34.499  10.577
24938W        W88662  38.546  28.930   4.148
24939W        W88663   9.798   5.773  11.022
24940W        W88664  20.150  41.440   2.882
24941W        W88665  28.094  26.589   0.951
24942W        W88666  36.528  43.888   2.864
24943W        W88667  21.259  23.126   0.911
24944W        W88668  29.102  44.378  14.287
24945W        W88669  24.531  19.664   0.799
24946W        W88670  13.718  27.944   4.815
24947W        W88671  40.879   3.239  14.435
24948W        W88672  18.703   0.948   0.737
24949W        W88673  34.066  28.659   4.319
24950W        W88674   3.904  27.023   3.840
24951W        W88675  16.120  33.996  14.474
24952W        W88676  39.892  38.515   0.290
24953W        W88677   5.756   4.227  12.513
24954W        W88678  32.601  30.498  13.492
24955W        W88679   6.199  31.615   0.835
24956W        W88680   7.314  32.554  12.433
24957W        W88681  42.009  34.462   0.478
24958W        W88682   3.954  12.638   0.291
24959W        W88683  34.108  43.289   3.382
24960W        W88684  34.871  10.183   0.773
24961W        W88685  12.257  24.654   1.372
24962W        W88686   2.434  22.122   0.922
24963W        W88687  42.422  10.798   4.353
24964W        W88688  35.050  13.139   3.324
24965W        W88689  20.213  17.693  11.493
24966W        W88690   8.795  14.302   2.779
24967W        W88691  38.015  11.127   0.736
24968W        W88692  13.804   8.270   0.779
24969W        W88693  16.729  12.843  13.379
24970W        W88694   7.825   8.227   0.862
24971W        W88695  37.488   2.372  10.454
24972W        W88696  34.558  28.564   3.296
24973W        W88697  26.148  12.268  13.544
24974W        W88698  40.812   7.265  12.352
24975W        W88699  34.540  23.072   2.820
24976W        W88700  10.792   8.277  14.952
24977W        W88701  17.280  38.346  11.054
24978W        W88702   9.341  42.492   2.772
24979W        W88703  13.345  21.130   4.227
24980W        W88704   0.855  30.577   3.776
24981W        W88705   4.835  21.750  11.912
24982W        W88706  13.220   0.484  12.831
24983W        W88707   6.350  39.052  11.102
24984W        W88708  18.177  27.160  14.828
24985W        W88709  14.691   8.368  13.439
24986W        W88710   9.246  10.662   4.677
24987W        W88711  37.570  11.153  10.031
24988W        W88712  10.225  11.837  14.904
24989W        W88713  12.217   8.406  12.090
24990W        W88714  24.163  32.545  12.085
24991W        W88715  10.212   6.875   1.265
24992W        W88716  34.547  11.198   3.672
24993W        W88717  40.029  35.928  11.576
24994W        W88718   1.955   8.872  11.081
24995W        W88719  30.567  31.991  13.021
24996W        W88720  25.168  16.198  10.407
24997W        W88721  30.160   0.831  13.469
24998W        W88722   8.665  13.652   0.309
24999W        W88723  37.015   3.920  12.019
25000W        W88724  44.760   4.773   3.843
25001W        W88725  17.614  18.060  13.912
25002W        W88726  15.244  28.104  13.835
25003W        W88727  21.150  13.717   1.307
25004W        W88728   2.856  42.355   2.258
25005W        W88729   0.807  27.186   3.724
25006W        W88730  40.979  34.078  10.528
25007W        W88731  34.429  16.141  12.982
25008W        W88732  17.108  36.849   1.899
25009W        W88733  10.220  37.420   5.271
25010W        W88734  19.537  27.641   1.749
25011W        W88735  21.177  22.697   4.823
25012W        W88736  10.251  25.965  13.337
25013W        W88737   0.428   8.242   1.843
25014W        W88738  12.760   1.877  13.400
25015W        W88739  40.407   3.338  11.955
25016W        W88740   9.726  44.433  11.882
25017W        W88741  44.817  27.517  13.523
25018W        W88742  39.406   7.401  13.547
25019W        W88743  12.774  15.756  10.156
25020W        W88744  32.064   3.893   4.706
25021W        W88745  31.913   9.331   5.307
25022W        W88746  19.137  25.039  12.931
25023W        W88747  23.002   6.244  13.443
25024W        W88748  35.988  35.989   1.345
25025W        W88749  16.179  38.897   4.135
25026W        W88750  28.033   9.715  11.495
25027W        W88751  42.358  31.943   0.954
25028W        W88752   2.278  26.037  11.466
25029W        W88753  24.601   8.829  12.432
25030W        W88754  43.890   7.766  14.381
25031W        W88755  29.455   7.255   4.649
25032W        W88756   6.765  42.007  12.547
25033W        W88757  18.672  12.756  14.300
25034W        W88758  36.063   5.422   3.757
25035W        W88759  26.602  44.265  11.936
25036W        W88760  35.505  25.033  14.830
25037W        W88761  39.019  12.782   0.429
25038W        W88762  10.876  26.597  13.018
25039W        W88763  12.680   6.215   4.699
25040W        W88764  33.381  21.644  13.362
25041W        W88765  32.590  35.903  12.827
25042W        W88766   5.905   6.757  13.016
25043W        W88767  34.548  16.664   0.762
25044W        W88768  41.512   6.276  11.023
25045W        W88769  14.760  31.942   1.344
25046W        W88770  31.007  13.165  10.497
25047W        W88771   9.683   9.187   2.340
25048W        W88772  43.782   9.302   1.697
25049W        W88773  20.645  27.618   0.739
25050W        W88774  32.636  23.539  11.125
25051W        W88775  23.655  11.340  12.565
25052W        W88776   6.842  29.450   0.829
25053W        W88777  33.393  11.626   4.760
25054W        W88778  42.914   8.690  10.035
25055W        W88779  25.963  37.902   0.393
25056W        W88780  19.548  40.354   2.198
25057W        W88781  31.567  12.849   1.901
25058W        W88782  44.758  12.291   1.383
25059W        W88783   3.234  30.141   3.344
25060W        W88784  39.507  44.775  11.426
25061W        W88785  37.470  28.516  13.380
25062W        W88786  37.404  34.610   4.740
25063W        W88787  32.922  43.314   1.392
25064W        W88788  30.072  41.327   2.822
25065W        W88789   4.768  40.825  12.928
25066W        W88790  22.607   2.379   3.850
25067W        W88791  23.718  20.041  12.539
25068W        W88792  35.456   1.416  14.311
25069W        W88793  11.180  23.666   4.632
25070W        W88794  12.251  36.380   2.330
25071W        W88795  24.562  13.202  13.952
25072W        W88796  12.229  37.019   0.375
25073W        W88797  39.502  18.718   1.325
25074W        W88798  39.999  42.447   3.367
25075W        W88799  44.288  10.674  11.040
25076W        W88800  11.233  26.459   2.309
25077W        W88801  18.774  24.064  14.018
25078W        W88802  39.334   6.787  10.442
25079W        W88803  42.483  26.597   3.708
25080W        W88804  37.542  14.241   0.760
25081W        W88805  16.259  29.159  10.547
25082W        W88806   2.277  43.501   2.786
25083W        W88807  21.720  15.679   3.750
25084W        W88808  36.356  31.483  13.903
25085W        W88809  39.895  40.419   4.222
25086W        W88810  11.792  40.811   2.217
25087W        W88811   4.230  30.043  14.002
25088W        W88812  39.440  17.682  10.457
25089W        W88813  31.912  39.368   1.237
25090W        W88814  28.962   7.708  10.131
25091W        W88815  12.231  34.914   2.375
25092W        W88816   3.369   7.692   3.165
25093W        W88817  24.108  17.160  13.496
25094W        W88818  25.568  20.602   1.861
25095W        W88819  24.160  39.023  11.996
25096W        W88820  38.394   4.383  14.390
25097W        W88821   9.310  34.018   2.264
25098W        W88822   9.155  43.884  11.101
25099W        W88823  19.729  43.269   0.805
25100W        W88824  35.074  34.519   0.259
25101W        W88825  31.628  36.943   4.205
25102W        W88826  30.117  12.287   4.699
25103W        W88827  33.031  23.646   2.807
25104W        W88828  29.578  31.937  14.877
25105W        W88829   1.905  13.731   2.687
25106W        W88830  15.758   9.678   1.300
25107W        W88831   2.327  26.639   0.878
25108W        W88832  14.163  31.533   3.176
25109W        W88833  38.549  20.590   3.660
25110W        W88834  10.748  10.315   3.325
25111W        W88835   1.766  17.192   5.131
25112W        W88836  26.582  27.599  14.984
25113W        W88837  37.470  20.035  13.961
25114W        W88838  14.614  28.613  14.859
25115W        W88839  25.711  10.233   4.198
25116W        W88840  41.865   1.445   4.717
25117W        W88841   9.884  39.473   1.344
25118W        W88842  20.766  15.597   3.373
25119W        W88843  38.036  26.564  12.557
25120W        W88844   5.933   8.878  13.466
25121W        W88845  14.751  19.604   4.163
25122W        W88846  22.578   1.835  14.849
25123W        W88847  20.044  20.529   1.786
25124W        W88848   9.730  11.674  14.435
25125W        W88849  12.838  24.495   3.264
25126W        W88850  24.981   8.837   1.321
25127W        W88851  10.809  15.146   2.299
25128W        W88852  39.999  41.445   9.992
25129W        W88853   4.708  19.565   4.721
25130W        W88854  44.852  39.964   2.222
25131W        W88855  25.109  15.705  10.947
25132W        W88856  41.833   3.257  10.609
25133W        W88857  30.466  17.758  10.626
25134W        W88858  42.281  27.976   4.149
25135W        W88859  35.916  17.240  10.929
25136W        W88860  44.003   3.856  13.324
25137W        W88861  13.211  35.911   1.871
25138W        W88862  34.547   5.766   2.677
25139W        W88863  16.716  33.089   4.251
25140W        W88864   2.789  41.430   4.655
25141W        W88865  27.149  11.180  10.075
25142W        W88866  23.991   0.316   0.901
25143W        W88867  18.208  25.666  14.380
25144W        W88868  10.256   4.936   5.136
25145W        W88869   8.688   5.305  11.426
25146W        W88870  38.514  14.709  11.885
25147W        W88871   6.845  15.203   1.354
25148W        W88872  26.097  25.594   3.688
25149W        W88873  20.251  11.656   0.424
25150W        W88874   3.797  28.531   1.798
25151W        W88875  15.775  38.325   0.355
25152W        W88876   1.933  21.103   2.304
25153W        W88877  23.017  36.373  14.989
25154W        W88878  16.232   1.894   1.212
25155W        W88879   0.943  37.462   0.967
25156W        W88880  10.746  33.876  11.898
25157W        W88881  11.279  27.146   0.460
25158W        W88882   0.298  13.226   0.420
25159W        W88883  26.995   6.886  12.377
25160W        W88884  28.162  37.384   3.359
25161W        W88885  37.406  18.586  14.346
25162W        W88886  40.890   3.324   2.359
25163W        W88887  43.455  40.447  13.810
25164W        W88888  25.060  38.067  12.966
25165W        W88889  25.151  36.925  13.333
25166W        W88890  26.127  14.658   1.917
25167W        W88891   6.362  43.292   4.274
25168W        W88892  23.667  36.526  13.507
25169W        W88893  43.020  33.512   0.860
25170W        W88894  19.690  19.115   3.348
25171W        W88895  31.485  10.363   3.740
25172W        W88896  26.496  22.150  10.916
25173W        W88897  26.642  35.551  14.821
25174W        W88898  38.883  11.306   2.760
25175W        W88899  18.598   6.713  13.867
25176W        W88900  31.988  18.712   3.730
25177W        W88901  32.892  25.033  11.125
25178W        W88902  43.272  32.014   0.952
25179W        W88903  20.122  32.519  12.457
25180W        W88904  31.562  15.241   2.707
25181W        W88905  31.645  39.047   0.419
25182W        W88906  44.306  39.004   0.777
25183W        W88907  15.793  40.000  13.979
25184W        W88908   6.706  14.712   0.253
25185W        W88909  31.934   0.797  13.795
25186W        W88910  12.683   5.250  12.971
25187W        W88911  16.605  11.642  11.118
25188W        W88912  34.935   0.849   3.631
25189W        W88913  20.209  21.202  11.373
25190W        W88914  35.853  14.224  11.125
25191W        W88915  14.144  14.710  11.125
25192W        W88916  18.707  19.137   3.827
25193W        W88917  33.025  20.714  12.890
25194W        W88918  40.986  22.639  13.497
25195W        W88919   4.431  10.347   3.751
25196W        W88920   5.304   4.447  10.964
25197W        W88921  15.083  43.847  13.352
25198W        W88922   3.750  31.980  13.906
25199W        W88923  40.444  36.950   1.724
25200W        W88924   2.341  17.153   0.944
25201W        W88925  40.320  29.019  10.581
25202W        W88926  12.273  23.199  10.414
25203W        W88927  25.070  36.882  10.625
25204W        W88928   3.241  13.732  10.508
25205W        W88929  35.898   4.866  12.523
25206W        W88930  34.422  18.281   0.430
25207W        W88931   4.931   8.293  11.987
25208W        W88932   3.396  11.647   1.902
25209W        W88933  31.485   8.812   2.727
25210W        W88934   6.219   0.880  12.911
25211W        W88935   4.345   3.374  12.913
25212W        W88936   8.405  42.957  12.915
25213W        W88937  43.802  43.912   3.824
25214W        W88938  15.208  29.460  10.517
25215W        W88939   8.691   5.741   3.180
25216W        W88940  25.088  12.240   4.828
25217W        W88941  26.045  37.058  10.600
25218W        W88942   5.926  16.692   1.906
25219W        W88943  35.569   6.275  10.447
25220W        W88944   1.954  28.553   0.750
25221W        W88945  35.015  10.646   2.399
25222W        W88946  24.724  18.582   3.323
25223W        W88947  19.751  27.573  12.363
25224W        W88948  12.269  25.197  14.915
25225W        W88949  18.548  44.381   1.294
25226W        W88950  43.810   5.749   4.189
25227W        W88951  22.609  37.030   0.331
25228W        W88952  19.273   8.792  11.863
25229W        W88953   3.927   1.879  14.847
25230W        W88954   8.389  12.853   2.412
25231W        W88955  13.248  27.008   4.199
25232W        W88956  22.695  21.683  13.006
25233W        W88957   4.765   8.311   1.328
25234W        W88958  28.465  40.902  10.579
25235W        W88959   4.352  13.181  14.430
25236W        W88960  34.914   5.887   1.895
25237W        W88961  39.492   6.765   3.687
25238W        W88962   6.298  27.960  14.442
25239W        W88963  14.624  24.176   4.678
25240W        W88964   4.407   4.330  10.590
25241W        W88965  36.048  11.773  14.820
25242W        W88966  17.631  26.196  14.031
25243W        W88967  38.379   0.265   3.228
25244W        W88968  20.552  27.670  11.857
25245W        W88969  16.157  16.250   4.230
25246W        W88970   9.358  38.340   1.303
25247W        W88971  21.678  23.643  14.493
25248W        W88972  32.623  38.943  13.824
25249W        W88973  23.179   7.700   3.702
25250W        W88974  18.641  14.764  12.828
25251W        W88975  27.181  30.945   1.393
25252W        W88976  22.234  29.499  12.396
25253W        W88977  28.112  44.455  11.595
25254W        W88978  36.563  16.650   0.433
25255W        W88979  10.149   7.741   1.340
25256W        W88980  13.327  30.648  10.588
25257W        W88981  43.280  19.547   1.861
25258W        W88982  36.885   8.247   4.833
25259W        W88983  19.656  23.554   2.731
25260W        W88984  14.597   7.682   1.847
25261W        W88985  40.855  39.849  14.482
25262W        W88986  12.356   4.911  14.007
25263W        W88987  37.895  23.642  14.491
25264W        W88988   0.485  19.774  13.031
25265W        W88989  29.027  36.067  10.939
25266W        W88990  34.569  21.584   3.794
25267W        W88991  28.547  20.580   0.337
25268W        W88992  12.682  13.612  10.457
25269W        W88993   8.234   8.865  13.891
25270W        W88994   8.795  22.024  14.488
25271W        W88995  39.558   4.855   2.700
25272W        W88996  28.067   4.345  10.065
25273W        W88997  39.413   8.786  13.939
25274W        W88998  21.060   0.936  13.933
25275W        W88999  17.099  21.069   0.451
25276W        W89000   3.425  16.796  12.838
25277W        W89001   8.807  38.961   3.837
25278W        W89002  11.640  39.054  12.956
25279W        W89003  30.625  36.916  12.027
25280W        W89004  12.765  33.576   3.339
25281W        W89005  36.905   4.224   4.731
25282W        W89006   2.955  36.496  10.923
25283W        W89007   4.856  29.650  14.428
25284W        W89008   5.781  27.636   4.340
25285W        W89009  25.133  36.352  14.408
25286W        W89010  24.491  11.321   3.347
25287W        W89011  37.437  28.021  10.484
25288W        W89012  31.132  42.316  10.591
25289W        W89013  29.076  26.479  13.402
25290W        W89014  37.890  38.471  14.957
25291W        W89015  31.072  34.983  11.385
25292W        W89016  31.146  12.810   1.737
25293W        W89017  13.171  17.557   1.742
25294W        W89018  30.079  17.572   0.260
25295W        W89019  34.611   1.476   1.885
25296W        W89020  36.947   1.812   3.171
25297W        W89021  35.388   0.475  12.946
25298W        W89022   3.890  15.178   3.382
25299W        W89023   4.268  23.698  14.489
25300W        W89024  36.586   1.323   0.849
25301W        W89025  16.745  26.173   4.825
25302W        W89026  28.951  32.464  14.367
25303W        W89027  26.690  42.874  10.959
25304W        W89028   8.343   7.727   4.741
25305W        W89029  14.319  10.836  12.396
25306W        W89030  20.213   7.894  13.331
25307W        W89031   6.325  12.705   0.871
25308W        W89032   9.667   4.442  10.485
25309W        W89033  17.088  40.543  11.872
25310W        W89034  41.959  13.825  11.110
25311W        W89035  16.781  33.580   2.336
25312W        W89036   6.261  30.112  13.871
25313W        W89037  44.488  37.410  10.071
25314W        W89038  10.189  21.143   1.443
25315W        W89039  17.245  31.946  12.342
25316W        W89040   0.923  28.999   3.346
25317W        W89041   1.749  24.529  14.973
25318W        W89042  23.054  42.957   4.155
25319W        W89043  30.562  15.703   0.483
25320W        W89044  24.002  32.418  13.884
25321W        W89045  24.702  13.672  11.494
25322W        W89046  42.521  44.911  11.997
25323W        W89047   5.401   9.734   5.763
25324W        W89048   1.309   6.728   3.799
25325W        W89049  39.991   7.736  13.356
25326W        W89050  34.418  26.461   0.729
25327W        W89051  16.694  44.299   4.673
25328W        W89052  22.053  10.695   2.378
25329W        W89053   6.379   6.193   0.920
25330W        W89054  15.637  20.659  14.357
25331W        W89055  29.499  20.147   4.779
25332W        W89056   4.756  39.809  11.857
25333W        W89057  21.048  23.616   2.334
25334W        W89058   6.816  11.358   3.824
25335W        W89059   8.184   9.224   4.712
25336W        W89060  22.508  17.692   3.784
25337W        W89061  17.680  10.217  13.942
25338W        W89062  40.316  29.999   3.238
25339W        W89063  34.007  41.959  11.006
25340W        W89064  22.006  30.544   2.208
25341W        W89065   6.240  15.277  14.430
25342W        W89066   4.934   1.421   1.406
25343W        W89067   9.208  42.884  12.527
25344W        W89068  44.914  26.696   0.852
25345W        W89069  13.139  22.036   1.327
25346W        W89070  36.972  37.510   3.340
25347W        W89071  34.955  35.475  14.336
25348W        W89072  34.879  18.123  12.942
25349W        W89073  14.691  21.735  11.103
25350W        W89074  22.706  32.613  13.941
25351W        W89075  37.487   9.731   4.762
25352W        W89076  31.572  28.503  11.025
25353W        W89077  18.128  44.259  14.775
25354W        W89078  37.424  19.111   0.296
25355W        W89079   8.901  26.987   3.303
25356W        W89080  26.618  37.478  10.474
25357W        W89081  33.986  18.777  11.574
25358W        W89082   4.711   7.683   2.366
25359W        W89083  35.969  35.083  13.951
25360W        W89084  10.651  19.204  11.035
25361W        W89085  23.063   2.883  11.531
25362W        W89086  40.899  44.850  12.356
25363W        W89087  34.492  12.780  12.488
25364W        W89088  44.860  16.305   2.204
25365W        W89089  42.785  37.343   0.477
25366W        W89090  13.222  21.627   1.730
25367W        W89091  31.938  33.964  14.812
25368W        W89092  14.262   7.749   0.835
25369W        W89093  41.508  39.418   2.287
25370W        W89094  40.985  44.434   0.382
25371W        W89095  18.773  17.696  14.450
25372W        W89096   2.313  43.270  14.437
25373W        W89097   8.376  31.402  11.961
25374W        W89098  21.646  21.203  13.485
25375W        W89099  31.086  24.551   2.765
25376W        W89100   3.228  11.128  10.453
25377W        W89101  20.068  37.892   9.951
25378W        W89102  42.797  28.538  14.839
25379W        W89103  34.047  22.020   3.215
25380W        W89104  10.655  15.724  11.458
25381W        W89105   0.813   0.949  12.028
25382W        W89106  20.050  32.082  12.455
25383W        W89107  39.826  23.508  14.983
25384W        W89108  42.398  10.246  13.026
25385W        W89109  30.570   5.215   0.887
25386W        W89110   3.820  34.492  11.984
25387W        W89111  29.653   8.672  12.844
25388W        W89112   2.819  42.882   5.140
25389W        W89113  12.140  20.066  13.026
25390W        W89114  26.623  36.956   1.303
25391W        W89115  40.830  27.946   0.390
25392W        W89116   2.330  29.544  11.120
25393W        W89117  35.365  12.803  14.799
25394W        W89118   3.292  35.432  14.910
25395W        W89119  19.102   6.296   3.714
25396W        W89120  28.528  35.430  14.461
25397W        W89121  42.414  34.025  12.902
25398W        W89122   1.478  41.993   3.206
25399W        W89123  21.167  18.080   2.777
25400W        W89124  28.965   8.757   2.245
25401W        W89125  37.444  32.111   4.804
25402W        W89126  34.476  23.211   0.448
25403W        W89127  38.405  33.111   0.757
25404W        W89128  30.434   2.903  10.519
25405W        W89129   6.915  24.564  14.427
25406W        W89130  41.863  25.975  11.451
25407W        W89131  15.611  24.553   3.692
25408W        W89132  42.435  37.914   3.788
25409W        W89133  28.015   9.344  13.321
25410W        W89134  26.956  40.830  11.122
25411W        W89135  18.695  12.853  14.893
25412W        W89136   9.284  34.591  10.018
25413W        W89137  32.130   3.438  11.091
25414W        W89138  24.013  14.260  12.991
25415W        W89139  30.462  24.093   3.300
25416W        W89140  26.633  18.756   2.386
25417W        W89141  10.737  35.080   0.255
25418W        W89142  41.845  37.581   3.826
25419W        W89143  29.125  17.558   4.695
25420W        W89144  38.369  34.085  10.414
25421W        W89145   9.151  30.081   2.273
25422W        W89146  20.709  25.189   3.670
25423W        W89147  43.016  41.366   2.719
25424W        W89148  41.340   1.794  14.358
25425W        W89149  35.071  15.162   3.345
25426W        W89150   6.225  29.468  11.039
25427W        W89151  31.943  19.640   4.224
25428W        W89152  29.556  37.963  14.922
25429W        W89153  42.434   1.260  14.002
25430W        W89154  40.369  12.303  13.435
25431W        W89155  44.398  35.927  11.021
25432W        W89156  10.248  35.034   2.388
25433W        W89157  34.465   3.774  14.852
25434W        W89158   2.376  37.423  12.066
25435W        W89159   7.813  37.904  12.826
25436W        W89160  37.571  11.666  12.873
25437W        W89161  18.226  43.388   2.352
25438W        W89162  43.994   5.333  14.276
25439W        W89163  42.895  34.035  13.458
25440W        W89164  24.692  43.803   0.323
25441W        W89165  11.784  20.255   9.985
25442W        W89166   8.296  30.495  10.611
25443W        W89167   0.328  22.598   1.895
25444W        W89168   6.733  40.454   1.430
25445W        W89169  30.007  39.533   3.847
25446W        W89170  36.412  13.686   0.369
25447W        W89171  36.398   1.912   4.237
25448W        W89172  14.252  36.448  14.988
25449W        W89173   7.794   0.379   2.255
25450W        W89174  33.921  35.957  10.963
25451W        W89175  24.706   3.225   3.683
25452W        W89176   1.394   2.944   0.732
25453W        W89177  27.487  26.038  14.367
25454W        W89178  42.015  18.074   0.748
25455W        W89179   6.345   7.209  13.993
25456W        W89180  30.103  27.096   1.311
25457W        W89181   1.954  30.118  13.855
25458W        W89182   3.776   5.245  11.026
25459W        W89183  26.660  23.184  14.024
25460W        W89184   7.782  38.976  10.003
25461W        W89185  15.729   4.776   3.870
25462W        W89186  20.138  39.985  13.857
25463W        W89187  42.778  28.099   4.645
25464W        W89188  31.102  44.457  13.422
25465W        W89189  37.081  40.335   0.846
25466W        W89190  27.652  24.654   1.293
25467W        W89191   7.246   2.442   3.749
25468W        W89192   5.193  10.207  14.455
25469W        W89193  32.589  32.482  13.547
25470W        W89194  24.169  16.686   1.439
25471W        W89195   3.931   8.285  11.883
25472W        W89196  29.608   8.681   1.354
25473W        W89197   8.896  43.807   1.877
25474W        W89198   5.414  17.779  10.448
25475W        W89199  35.370  30.649  11.532
25476W        W89200  14.217  26.542   4.230
25477W        W89201  35.903  22.025   2.374
25478W        W89202   6.373  14.727   2.408
25479W        W89203  10.228  17.697  11.537
25480W        W89204  35.072   5.772   4.729
25481W        W89205  41.538  31.094   1.755
25482W        W89206  25.053   9.762   2.381
25483W        W89207  18.640   5.306  13.437
25484W        W89208  30.009  40.047  10.991
25485W        W89209  15.146  12.762   3.732
25486W        W89210   3.850   7.678  14.368
25487W        W89211   7.382  33.095  11.382
25488W        W89212  26.685   0.260   0.931
25489W        W89213  26.982  37.463   4.339
25490W        W89214  29.641  44.455   2.709
25491W        W89215  22.150  32.403   2.851
25492W        W89216   0.762   7.808   1.356
25493W        W89217  10.217   4.218   1.732
25494W        W89218  30.160  28.680  12.005
25495W        W89219  12.121  44.308  11.862
25496W        W89220   9.163   2.451   2.268
25497W        W89221   3.907  41.845   1.695
25498W        W89222  13.663  30.435  12.055
25499W        W89223  22.725  11.761  12.064
25500W        W89224   9.331   3.421  10.028
25501W        W89225  11.286  10.371   1.746
25502W        W89226  33.393  40.333  12.507
25503W        W89227  20.066  10.749  10.638
25504W        W89228  34.037  19.708   3.793
25505W        W89229  15.771  10.291   3.316
25506W        W89230   9.869   4.748  11.941
25507W        W89231  39.873  34.952  14.887
25508W        W89232   6.747  16.242  12.990
25509W        W89233  27.654  12.354  12.391
25510W        W89234  15.727   0.325  10.094
25511W        W89235  32.128  21.660  11.430
25512W        W89236   1.738   4.360  14.807
25513W        W89237  17.162  31.412  13.796
25514W        W89238  39.899   5.325   4.764
25515W        W89239  27.624  10.371   3.204
25516W        W89240  32.575  36.939   4.297
25517W        W89241  10.141  17.703   1.704
25518W        W89242  41.981   6.872  13.835
25519W        W89243  26.523  33.048  10.456
25520W        W89244  25.083  32.424  12.552
25521W        W89245  17.293  28.666  13.310
25522W        W89246  26.198  22.104  11.991
25523W        W89247  18.153  39.990   2.252
25524W        W89248  16.148  35.962   4.633
25525W        W89249  23.667  44.835   2.308
25526W        W89250  20.230   2.359  13.983
25527W        W89251   9.210  37.856   0.919
25528W        W89252  30.517  19.584   0.731
25529W        W89253  23.567  14.176   0.297
25530W        W89254  14.599  41.381   1.712
25531W        W89255  24.985   8.694  10.441
25532W        W89256   9.721  18.732   3.146
25533W        W89257  12.832  16.302   1.844
25534W        W89258  25.184   5.842  10.480
25535W        W89259   9.802  39.465  14.880
25536W        W89260  15.154  34.515  14.440
25537W        W89261   4.878   2.430  14.346
25538W        W89262  17.708  37.530  10.576
25539W        W89263   2.443  24.545   3.147
25540W        W89264  33.990  28.103   4.668
25541W        W89265  37.982  14.329   0.452
25542W        W89266  28.987   3.939  11.978
25543W        W89267  37.068  20.639  13.017
25544W        W89268  24.611  32.142   1.820
25545W        W89269  13.235  12.358   4.665
25546W        W89270   6.707  43.995  10.502
25547W        W89271  26.505   1.329   3.384
25548W        W89272   6.202  38.072  10.118
25549W        W89273  29.081   4.440   1.785
25550W        W89274   0.296  19.157   0.952
25551W        W89275  28.124   6.385  13.497
25552W        W89276  13.121  31.629   4.639
25553W        W89277  41.538   1.335  13.309
25554W        W89278  25.469   2.963   4.182
25555W        W89279  30.969  30.520   1.301
25556W        W89280  41.307  29.105  13.795
25557W        W89281  10.283   2.796   3.674
25558W        W89282  35.596   9.864   1.442
25559W        W89283  14.666  29.167   3.694
25560W        W89284  43.875   7.320   2.889
25561W        W89285  26.132  18.196   0.858
25562W        W89286   6.209   8.813   3.700
25563W        W89287  27.573   4.267   0.866
25564W        W89288  34.877   5.927   3.224
25565W        W89289   4.306  11.144   0.465
25566W        W89290  18.111  33.475  11.587
25567W        W89291  12.137   2.442  11.936
25568W        W89292  25.533  20.103   3.826
25569W        W89293  32.011   9.303   3.755
25570W        W89294  17.224  40.494   1.916
25571W        W89295  15.105  43.370  12.577
25572W        W89296  44.955  35.442  12.023
25573W        W89297  23.588  20.588   1.352
25574W        W89298  34.413   3.795  13.519
25575W        W89299  36.461  35.413  11.949
25576W        W89300  16.106  28.054  12.388
25577W        W89301  26.050  17.230  12.914
25578W        W89302  22.160  44.269  10.911
25579W        W89303  14.180   5.866  12.999
25580W        W89304   5.238  28.671   3.217
25581W        W89305  25.142  44.381   2.748
25582W        W89306   8.668  14.109  14.409
25583W        W89307   0.825  44.460  12.495
25584W        W89308  32.139  40.399  10.470
25585W        W89309  23.523   1.832   1.259
25586W        W89310  41.967  39.455   1.214
25587W        W89311  24.513  10.150   3.243
25588W        W89312   1.899  18.622   4.259
25589W        W89313  28.058  43.417  13.882
25590W        W89314  36.465  32.404   3.347
25591W        W89315  44.441  21.233  10.550
25592W        W89316   4.445  42.369   4.238
25593W        W89317  18.770  11.789  10.442
25594W        W89318   1.271  41.538   1.424
25595W        W89319  25.496  39.400  11.958
25596W        W89320  15.657  12.188  11.871
25597W        W89321   2.893  10.708  11.860
25598W        W89322  34.613  20.127  11.454
25599W        W89323   7.753  31.914  13.973
25600W        W89324  35.567  30.433   1.422
25601W        W89325  31.514  15.116  13.959
25602W        W89326  17.628  16.656  11.494
25603W        W89327   7.310  18.143  13.973
25604W        W89328  15.676  35.509  14.925
25605W        W89329   2.863   2.451  11.599
25606W        W89330   9.156  14.781   4.294
25607W        W89331  17.593   0.472  14.364
25608W        W89332  28.122  43.790   0.478
25609W        W89333  22.106  25.001  10.415
25610W        W89334  35.992  12.140  13.855
25611W        W89335  38.074   3.380   3.256
25612W        W89336  10.669  17.737  13.477
25613W        W89337   6.719   7.304   3.184
25614W        W89338  41.825  18.068   4.290
25615W        W89339  17.086   6.403  12.979
25616W        W89340  33.576  32.950   1.340
25617W        W89341  39.910  12.355  12.955
25618W        W89342  23.134   9.674  11.374
25619W        W89343  42.295  17.091  14.911
25620W        W89344  13.706  33.940  14.436
25621W        W89345  13.121  26.584  11.864
25622W        W89346  21.209  43.860  13.492
25623W        W89347   1.409  21.137   3.692
25624W        W89348  30.930  39.554   4.830
25625W        W89349  35.494  41.489   1.733
25626W        W89350  19.180  38.053  14.307
25627W        W89351  30.591  39.954   2.197
25628W        W89352   0.879  44.008  10.563
25629W        W89353  17.729  10.767   0.770
25630W        W89354  13.648  20.675  11.480
25631W        W89355   2.793   3.733   0.852
25632W        W89356  30.155   2.311   0.841
25633W        W89357  21.092  41.963   3.791
25634W        W89358  10.753  24.559   2.381
25635W        W89359  40.394  37.555  12.034
25636W        W89360  29.019   1.479   1.225
25637W        W89361  17.704  35.988   0.782
25638W        W89362   6.819   7.362   1.418
25639W        W89363  42.395  30.493   3.846
25640W        W89364  30.462   0.434   0.376
25641W        W89365  18.584  40.369  10.413
25642W        W89366   4.382  22.104  14.454
25643W        W89367  13.814  40.822   3.867
25644W        W89368  40.908  36.963   0.442
25645W        W89369  34.085  37.977  11.440
25646W        W89370  15.598  31.535   0.464
25647W        W89371  36.464  13.735   4.255
25648W        W89372  28.530  19.606   1.313
25649W        W89373  10.175  40.355   0.430
25650W        W89374  43.957  12.204  11.024
25651W        W89375  20.055  40.985   5.106
25652W        W89376  18.693  16.164  12.440
25653W        W89377  34.502  12.280   9.497
25654W        W89378  19.107  35.573   2.876
25655W        W89379  15.144  43.332  14.417
25656W        W89380  21.530  15.104   2.670
25657W        W89381  15.258  17.155   3.725
25658W        W89382   7.722  25.987   1.730
25659W        W89383   3.948   3.826  13.047
25660W        W89384  29.603  40.397  11.022
25661W        W89385  40.343  44.265  10.403
25662W        W89386   9.207  10.218  12.550
25663W        W89387  23.132  17.076  13.533
25664W        W89388  14.598   8.263   9.667
25665W        W89389  26.970  34.391  10.985
25666W        W89390   0.396   7.808   0.371
25667W        W89391   7.737  40.351  11.543
25668W        W89392   0.394  30.105   2.265
25669W        W89393  21.730  41.339   4.686
25670W        W89394  31.932  14.191   1.705
25671W        W89395  43.015  14.234   2.879
25672W        W89396  13.607  12.658  13.832
25673W        W89397  32.951  21.564  12.989
25674W        W89398  33.570  26.175   0.291
25675W        W89399   6.810  28.187   3.761
25676W        W89400  10.661  28.531   2.800
25677W        W89401  16.687  17.758   2.748
25678W        W89402   6.279  13.150  12.539
25679W        W89403   5.750  17.123  10.582
25680W        W89404  23.674  27.560   0.924
25681W        W89405   4.374  23.029  14.924
25682W        W89406  16.575  10.819  11.861
25683W        W89407   6.689  26.515   1.829
25684W        W89408  20.761  44.472   2.285
25685W        W89409  17.118  13.204  14.797
25686W        W89410   9.769  34.049  10.989
25687W        W89411  31.573  24.629   4.333
25688W        W89412  44.289  14.204   0.372
25689W        W89413  33.516  23.022   0.915
25690W        W89414  13.122  12.351  14.511
25691W        W89415  15.210  41.998   4.168
25692W        W89416  10.820  24.066   4.279
25693W        W89417  26.067  43.416  14.015
25694W        W89418   6.336  22.744  14.335
25695W        W89419   5.924  44.356  11.900
25696W        W89420  27.501  13.179   1.320
25697W        W89421   1.799  30.081  14.792
25698W        W89422  29.081  34.467   0.475
25699W        W89423   4.378   6.284   4.177
25700W        W89424  37.580   5.742   3.182
25701W        W89425  39.960  43.350  14.400
25702W        W89426  40.942  40.927  10.889
25703W        W89427  24.650  44.952  11.057
25704W        W89428   1.478   9.172  10.985
25705W        W89429   6.879  20.227  11.983
25706W        W89430  27.466  34.560   1.768
25707W        W89431  37.387   4.273   0.918
25708W        W89432  18.172  36.017  11.868
25709W        W89433  20.572  30.004  14.835
25710W        W89434  28.113   6.216   1.310
25711W        W89435  15.660  43.881   4.792
25712W        W89436  32.553   5.401  14.760
25713W        W89437  38.381  30.089   3.843
25714W        W89438   9.819  10.356   0.331
25715W        W89439   4.402  13.707  14.374
25716W        W89440  14.112  39.489   3.851
25717W        W89441  32.581  13.748   1.704
25718W        W89442  36.858  42.302  12.003
25719W        W89443  32.968   6.196   1.873
25720W        W89444  33.548  33.482   3.643
25721W        W89445  29.598  42.488  13.800
25722W        W89446  38.534  33.422   4.677
25723W        W89447  33.947   0.448   0.889
25724W        W89448  10.269   7.413   9.978
25725W        W89449  38.470  17.161   1.228
25726W        W89450  13.349  24.112  13.981
25727W        W89451  40.835  43.491  13.504
25728W        W89452  20.751  27.016  10.620
25729W        W89453  44.355   8.326  10.048
25730W        W89454  43.354  28.084  14.334
25731W        W89455  12.319  43.318   0.470
25732W        W89456  18.260  31.072  11.872
25733W        W89457  33.962  26.961   1.316
25734W        W89458   2.450  31.130   2.314
25735W        W89459   2.232  26.003  10.536
25736W        W89460  24.686  43.475  13.024
25737W        W89461  43.504  37.561   3.377
25738W        W89462  10.173  20.745  12.079
25739W        W89463  11.693  21.555  10.036
25740W        W89464  16.635  44.442   1.419
25741W        W89465   3.794  19.679  13.954
25742W        W89466  34.967   0.832   4.636
25743W        W89467  41.899  22.011   4.188
25744W        W89468  13.244   3.803  10.160
25745W        W89469   2.243   3.297   1.287
25746W        W89470  25.978  21.677  13.467
25747W        W89471   6.416  10.288   3.201
25748W        W89472  30.112  36.372   3.697
25749W        W89473   5.791  11.710  14.839
25750W        W89474  14.175  32.077   1.802
25751W        W89475  32.932  20.634  11.091
25752W        W89476  13.293  33.122  10.419
25753W        W89477   0.445  35.929  12.575
25754W        W89478  11.645  15.222   3.849
25755W        W89479   8.722  39.062  14.003
25756W        W89480  43.340  32.486   3.779
25757W        W89481  37.838  38.568  12.876
25758W        W89482  19.678  37.000  12.409
25759W        W89483  29.587  31.502   4.347
25760W        W89484  12.637  24.675   1.832
25761W        W89485   2.942  19.067  12.837
25762W        W89486  25.605  16.792  11.376
25763W        W89487  35.472  41.341  14.786
25764W        W89488  28.577  21.215   4.816
25765W        W89489  10.637  37.938  13.820
25766W        W89490  21.680  34.914  11.571
25767W        W89491  31.127   4.707  13.796
25768W        W89492   2.825  30.540  14.997
25769W        W89493  36.001  17.708  12.013
25770W        W89494  43.013  18.689   3.371
25771W        W89495   0.314   0.382  11.128
25772W        W89496  26.025   4.750  12.428
25773W        W89497  33.941  34.521  14.789
25774W        W89498  33.450   1.763   2.808
25775W        W89499  29.087   0.401   2.227
25776W        W89500  24.162  36.951   0.848
25777W        W89501  24.147   5.724   1.764
25778W        W89502   6.773  30.069  10.418
25779W        W89503  21.668  37.943  11.518
25780W        W89504  24.669  19.101  14.991
25781W        W89505  40.506  36.479   1.830
25782W        W89506  42.788  37.039   0.274
25783W        W89507  36.995  17.747  10.585
25784W        W89508  20.267  42.499  11.903
25785W        W89509  38.355  41.891   1.740
25786W        W89510  28.089  42.419   4.329
25787W        W89511  30.120  10.216   5.275
25788W        W89512  43.404  37.063   2.794
25789W        W89513  11.822  38.935   2.762
25790W        W89514  44.904   3.359  12.391
25791W        W89515  34.037  44.465  10.559
25792W        W89516  17.076  28.610  12.442
25793W        W89517   5.198   7.756  11.914
25794W        W89518   9.772  24.483  13.458
25795W        W89519  17.134  18.197   0.403
25796W        W89520  30.454  34.039  13.474
25797W        W89521  20.561   0.393  12.417
25798W        W89522  36.971  23.732  12.999
25799W        W89523  40.054   3.933  14.297
25800W        W89524  30.972  41.401  11.439
25801W        W89525  29.129  11.213  13.521
25802W        W89526  29.482   0.438  11.609
25803W        W89527   7.363  33.014  13.813
25804W        W89528   3.225  25.169   3.674
25805W        W89529  25.499  36.390   3.751
25806W        W89530  12.632  42.291  12.835
25807W        W89531  44.988   5.779  12.369
25808W        W89532  23.233   2.252  12.966
25809W        W89533  40.541   5.288  11.521
25810W        W89534  35.988  12.283   4.279
25811W        W89535   2.339  23.538   4.151
25812W        W89536   2.404  21.120   1.377
25813W        W89537  34.444  25.712   0.358
25814W        W89538  44.297  30.964   3.680
25815W        W89539  29.609   9.821   4.710
25816W        W89540   7.721   2.799   3.383
25817W        W89541  30.044  19.214  13.342
25818W        W89542  16.721  43.444   2.371
25819W        W89543   5.242  31.520   3.769
25820W        W89544  27.689  30.122   2.398
25821W        W89545  25.493  20.196   4.318
25822W        W89546  24.049  15.197  13.060
25823W        W89547  23.154  44.418   0.268
25824W        W89548  36.447   8.733  13.821
25825W        W89549   8.266  20.208   0.368
25826W        W89550  13.163  39.546   1.808
25827W        W89551   1.964  24.513  13.860
25828W        W89552   5.930  29.121   0.831
25829W        W89553  15.748  11.693  11.892
25830W        W89554  35.952  25.195   2.210
25831W        W89555  22.609   1.855  13.456
25832W        W89556   5.717  20.751   4.193
25833W        W89557  34.438   9.174   0.401
25834W        W89558  11.686  18.076   0.791
25835W        W89559  20.735   8.686  12.905
25836W        W89560  24.973  27.072   2.825
25837W        W89561  12.280  28.951  14.410
25838W        W89562   0.377  13.190  10.980
25839W        W89563  34.876  38.427  14.275
25840W        W89564  20.637  15.630  10.070
25841W        W89565  41.517  31.444   4.314
25842W        W89566  15.117  30.096  14.434
25843W        W89567  31.613  21.578  13.355
25844W        W89568   6.309  42.474   0.770
25845W        W89569  32.410  39.380  10.489
25846W        W89570  17.282  42.375   3.246
25847W        W89571   3.351   8.204  14.449
25848W        W89572  13.211  30.466  11.507
25849W        W89573  23.001  39.848   0.480
25850W        W89574  18.060   7.862  11.057
25851W        W89575  24.218  36.352  10.957
25852W        W89576  20.641   2.892   3.362
25853W        W89577   1.264   0.458   0.825
25854W        W89578  10.700  17.638  11.092
25855W        W89579  36.454  13.122   3.330
25856W        W89580   0.798  26.667   4.784
25857W        W89581  42.475  33.916   1.257
25858W        W89582  41.524  31.451  12.882
25859W        W89583  12.696  41.506  14.314
25860W        W89584  24.594  30.933  11.117
25861W        W89585  18.159  24.045   2.349
25862W        W89586  16.644  25.496   2.274
25863W        W89587  28.000   2.881   0.484
25864W        W89588  27.051  33.518  13.484
25865W        W89589  41.818  14.158   3.733
25866W        W89590  11.796  18.082  12.946
25867W        W89591   6.820  41.914   1.227
25868W        W89592  14.588  40.306   2.838
25869W        W89593  12.814  16.238  14.434
25870W        W89594  38.526  41.832   0.378
25871W        W89595  14.730   1.968   4.682
25872W        W89596   2.269  26.002   1.704
25873W        W89597  15.778   3.739  13.336
25874W        W89598  30.565   1.858   3.651
25875W        W89599   2.858  36.373  13.465
25876W        W89600  30.926   0.773  14.439
25877W        W89601  21.690  27.484   9.941
25878W        W89602   7.224  26.682  12.573
25879W        W89603  41.786  26.666  11.443
25880W        W89604  33.408  12.802  13.458
25881W        W89605  32.937   5.251   4.255
25882W        W89606  32.052  13.757   4.117
25883W        W89607  33.119  40.516   1.339
25884W        W89608  18.169  41.373  13.428
25885W        W89609  37.397  31.916  10.638
25886W        W89610  19.731  34.933   1.694
25887W        W89611  29.488  38.065  13.802
25888W        W89612  24.720  43.009  13.913
25889W        W89613  16.178   5.280  11.972
25890W        W89614  22.048  20.685   0.774
25891W        W89615  10.294  21.695   0.760
25892W        W89616   0.923   5.275   1.360
25893W        W89617  40.915  11.195  14.994
25894W        W89618   6.288   3.842  13.508
25895W        W89619   8.198   9.266  13.044
25896W        W89620  29.472  35.409  12.964
25897W        W89621  35.963   7.307   2.761
25898W        W89622  23.546   2.249   4.249
25899W        W89623  29.474  19.571   5.083
25900W        W89624  21.602   1.449   2.858
25901W        W89625   2.403  19.601  12.940
25902W        W89626   9.280   5.193  12.849
25903W        W89627  13.724  39.385  10.580
25904W        W89628  33.127  14.749  13.548
25905W        W89629  43.439  33.092  14.837
25906W        W89630  10.870   9.159  10.631
25907W        W89631  20.752   2.902   1.359
25908W        W89632  41.801   0.766  11.951
25909W        W89633  40.316  24.080  12.852
25910W        W89634  29.608  21.239   5.134
25911W        W89635  21.526  28.995   3.861
25912W        W89636  41.981   6.801  14.487
25913W        W89637  32.127   8.330  13.956
25914W        W89638   2.386  43.497   1.401
25915W        W89639  26.533  17.085   4.700
25916W        W89640   1.311  29.921   3.147
25917W        W89641  43.414  25.104   4.764
25918W        W89642   2.914  38.334  13.822
25919W        W89643  22.205   0.493  14.345
25920W        W89644  23.088  12.206  13.994
25921W        W89645  41.886  29.446  10.955
25922W        W89646  30.920  35.043   5.169
25923W        W89647  42.852  41.426   9.449
25924W        W89648  39.855   7.899  13.829
25925W        W89649  29.165  26.199   0.361
25926W        W89650  32.531  23.734   5.086
25927W        W89651   5.847  36.462  11.963
25928W        W89652  18.714  17.647   0.287
25929W        W89653  30.600  10.652   2.254
25930W        W89654  44.417   5.916   4.233
25931W        W89655   7.328  33.885   1.753
25932W        W89656  44.800  21.163  13.984
25933W        W89657  37.537  40.314   2.804
25934W        W89658   6.276  31.044  12.842
25935W        W89659   6.416  35.921  11.433
25936W        W89660   5.404  37.341   4.665
25937W        W89661  10.684  44.498  11.863
25938W        W89662  39.947  15.108   1.917
25939W        W89663  25.547  24.658   1.713
25940W        W89664  13.262  37.570  10.561
25941W        W89665   3.240   7.705  10.999
25942W        W89666  33.970  16.179  14.327
25943W        W89667  41.403   2.402  13.506
25944W        W89668  16.630  12.788   1.444
25945W        W89669  10.703  17.150   4.612
25946W        W89670  27.041  20.555  14.004
25947W        W89671  32.005  41.968  10.580
25948W        W89672  22.712  21.119   3.656
25949W        W89673  38.842  13.708   0.295
25950W        W89674  26.142  31.925  14.450
25951W        W89675   4.433  43.861  10.473
25952W        W89676  34.872   0.744  12.364
25953W        W89677  28.435  11.163   2.726
25954W        W89678  28.979  25.970   1.729
25955W        W89679  29.510  42.868   0.419
25956W        W89680  15.247  12.348   4.734
25957W        W89681  44.266  11.208   1.433
25958W        W89682  17.082   4.445   1.279
25959W        W89683  34.976   9.290   1.415
25960W        W89684  30.068  11.757  14.407
25961W        W89685  12.130  14.810   3.254
25962W        W89686  37.999  30.134  13.988
25963W        W89687  29.146  13.819  13.855
25964W        W89688  38.994   2.852  14.308
25965W        W89689  18.765  23.565   1.817
25966W        W89690  39.941  27.113  10.975
25967W        W89691  25.027  33.039   3.189
25968W        W89692  20.044  20.711  10.500
25969W        W89693  11.185  32.629  10.641
25970W        W89694  42.999  11.791   2.338
25971W        W89695  40.398  35.374   1.346
25972W        W89696  16.664  18.547  12.048
25973W        W89697  38.835  18.665  14.898
25974W        W89698  33.396  22.167  12.368
25975W        W89699  42.282  16.289  13.483
25976W        W89700  34.527  11.223  13.024
25977W        W89701  40.538  42.027  14.902
25978W        W89702  36.857  38.533  14.482
25979W        W89703  40.450  44.340  12.984
25980W        W89704  20.134  15.619   3.721
25981W        W89705  36.478  13.316   2.217
25982W        W89706  16.798   4.840  11.392
25983W        W89707  35.026   8.170   1.787
25984W        W89708   2.464   8.806  10.535
25985W        W89709  23.090  20.216   0.292
25986W        W89710  31.908   3.342  11.492
25987W        W89711  16.616  12.204   3.863
25988W        W89712  40.481  44.319  12.024
25989W        W89713  43.415  34.571   9.995
25990W        W89714  14.203  40.960   0.851
25991W        W89715  26.165  21.574   1.297
25992W        W89716  10.283   3.763   4.273
25993W        W89717  40.815  41.512  11.554
25994W        W89718   4.922  44.956  12.089
25995W        W89719  34.993   6.375  13.313
25996W        W89720  14.755  39.866   2.753
25997W        W89721   5.363  33.609   0.259
25998W        W89722  30.033   0.259   2.253
25999W        W89723  41.507  36.441  14.942
26000W        W89724  27.636  44.423   0.858
26001W        W89725  36.049  35.431  11.125
26002W        W89726  35.921   5.806   2.874
26003W        W89727   4.743  33.890   2.839
26004W        W89728  39.962  33.597   4.159
26005W        W89729  41.368  43.983  10.962
26006W        W89730  11.715  30.086  13.988
26007W        W89731   1.430  35.973   4.217
26008W        W89732  42.966  27.496  14.383
26009W        W89733   2.892  37.406   2.741
26010W        W89734   0.774  34.558   5.112
26011W        W89735  17.568  35.441  12.453
26012W        W89736  35.479  18.235   4.809
26013W        W89737  31.100  34.470  10.585
26014W        W89738  44.481  25.577  13.831
26015W        W89739  21.218  21.643   0.938
26016W        W89740  35.023  25.603   2.731
26017W        W89741   4.388   2.338   3.823
26018W        W89742  30.103  23.590  13.453
26019W        W89743   0.787  41.499  10.915
26020W        W89744  10.794  37.496  12.840
26021W        W89745   5.359  23.663   0.919
26022W        W89746  40.870  44.818  11.378
26023W        W89747  19.762   9.159   3.730
26024W        W89748  21.630   8.243  13.900
26025W        W89749  29.946  38.395   4.144
26026W        W89750  40.367  35.358  12.477
26027W        W89751  44.475  42.416  12.556
26028W        W89752  18.118  21.036  13.389
26029W        W89753  36.976  10.744  14.280
26030W        W89754  25.658  16.231  13.341
26031W        W89755  30.498  18.086   3.359
26032W        W89756  31.147   8.286   2.187
26033W        W89757  22.252  31.646   2.271
26034W        W89758   7.212  30.509  13.915
26035W        W89759  35.884   9.683  14.364
26036W        W89760  39.477  11.839   4.137
26037W        W89761   6.815   2.811   0.286
26038W        W89762  12.156  32.101  12.047
26039W        W89763  37.030  16.257  11.062
26040W        W89764   7.847  14.200  14.494
26041W        W89765  38.872  23.098   2.359
26042W        W89766  13.675  11.850   1.854
26043W        W89767  11.859   9.751  13.374
26044W        W89768  35.018  23.222  13.367
26045W        W89769  32.971   9.154  11.543
26046W        W89770  27.036   3.727  11.859
26047W        W89771  30.530   6.238   0.957
26048W        W89772  35.892  18.050  10.586
26049W        W89773  27.687  24.183   2.800
26050W        W89774  44.293  32.573  13.025
26051W        W89775  23.734   9.260  13.467
26052W        W89776  39.898  38.374  10.607
26053W        W89777  13.324  37.008   2.319
26054W        W89778  13.177  22.660   4.334
26055W        W89779  39.332  22.238   0.813
26056W        W89780  29.106  20.654   3.729
26057W        W89781  12.752  14.667   4.311
26058W        W89782  22.527  36.429   3.735
26059W        W89783  10.797  21.681   1.892
26060W        W89784  44.335   0.406   2.741
26061W        W89785  30.040   2.806  13.003
26062W        W89786  22.700  20.123  13.401
26063W        W89787  33.884  17.790  14.989
26064W        W89788   1.292   4.891  13.459
26065W        W89789  22.686  14.213  11.989
26066W        W89790  32.540   1.388  14.822
26067W        W89791  23.048  19.090   2.890
26068W        W89792  37.564  23.495   4.237
26069W        W89793  10.251  12.138   5.122
26070W        W89794  17.286  35.555  12.340
26071W        W89795  34.017  12.253   5.253
26072W        W89796  38.488  24.086  11.973
26073W        W89797  25.176   1.366   3.803
26074W        W89798  30.623   6.304  12.932
26075W        W89799  14.096  36.002   0.245
26076W        W89800  35.011  35.580   3.331
26077W        W89801   7.695  26.999   1.270
26078W        W89802   6.727  31.628  10.582
26079W        W89803  30.551   7.409   1.348
26080W        W89804  13.713  17.283  10.984
26081W        W89805  36.858  20.607   2.795
26082W        W89806   8.354   0.833   2.735
26083W        W89807  44.485  28.151   1.275
26084W        W89808   1.852  18.628  14.925
26085W        W89809  10.226  33.488   0.962
26086W        W89810  26.505  39.320  12.037
26087W        W89811  40.358  11.737  12.040
26088W        W89812  23.637  25.628  13.945
26089W        W89813  38.980  33.018   4.305
26090W        W89814  28.634  28.148  10.622
26091W        W89815  38.444  16.163   3.660
26092W        W89816   4.712  11.357  11.123
26093W        W89817  25.510  35.409  11.856
26094W        W89818  27.539   7.784   4.240
26095W        W89819  19.571  43.781   3.169
26096W        W89820  43.409  26.680  14.349
26097W        W89821  32.117  26.134   0.894
26098W        W89822   7.325  13.332  14.812
26099W        W89823  22.244   1.449  11.016
26100W        W89824  15.171   4.789  12.926
26101W        W89825  42.887  38.953   5.252
26102W        W89826  25.128  21.708  11.577
26103W        W89827   2.789  40.357  13.957
26104W        W89828   1.257  24.222   0.401
26105W        W89829  38.330   2.347  14.829
26106W        W89830  26.004  42.499   4.761
26107W        W89831  23.732  17.190   2.873
26108W        W89832   9.871   6.825   4.280
26109W        W89833  34.959  31.919  12.845
26110W        W89834  19.746  24.657   3.350
26111W        W89835   0.983  24.178  11.504
26112W        W89836   5.303   9.654   4.662
26113W        W89837  23.553  23.111  12.553
26114W        W89838  31.990  29.113   3.790
26115W        W89839   7.903  32.636  11.473
26116W        W89840  23.607  40.462   0.949
26117W        W89841  25.557  17.117  10.949
26118W        W89842  29.493  31.961   4.216
26119W        W89843  26.160  20.180   1.391
26120W        W89844  42.515   8.888  10.965
26121W        W89845  35.477  27.119   4.192
26122W        W89846  28.452  17.243  11.606
26123W        W89847  38.891  14.212  14.353
26124W        W89848  33.055  22.193  11.462
26125W        W89849   7.172  19.233   3.794
26126W        W89850  11.770   0.772   0.287
26127W        W89851  35.982  20.229  13.485
26128W        W89852   0.953  34.957  14.304
26129W        W89853  29.953   1.878  13.338
26130W        W89854  42.951  36.863   5.262
26131W        W89855   3.223   2.336   2.343
26132W        W89856   4.218  27.631  14.974
26133W        W89857  35.860  20.748  10.927
26134W        W89858  38.354   1.256   2.836
26135W        W89859  21.157   1.458  14.298
26136W        W89860  41.994  41.318  12.525
26137W        W89861  43.363  29.442   0.835
26138W        W89862  13.696  17.307   0.784
26139W        W89863   7.889   9.307  11.110
26140W        W89864   4.401  42.907   0.770
26141W        W89865  44.947  44.475   2.832
26142W        W89866  11.143  36.534  14.002
26143W        W89867  12.203  12.796   1.820
26144W        W89868  21.075  23.154   0.474
26145W        W89869  21.704  20.584  13.364
26146W        W89870  39.941  13.268   1.715
26147W        W89871  20.249  27.966   0.916
26148W        W89872  34.966  39.855  12.096
26149W        W89873  36.583  41.950   1.249
26150W        W89874  18.784  42.352   0.372
26151W        W89875   6.844  17.588  14.292
26152W        W89876   7.367  18.629  13.536
26153W        W89877  44.259  43.379  14.483
26154W        W89878   0.284   1.268  14.813
26155W        W89879   6.882  16.155   4.623
26156W        W89880   9.188  38.563  11.481
26157W        W89881  14.830  39.410  13.974
26158W        W89882  27.004  37.078  12.449
26159W        W89883  15.695  24.141   3.229
26160W        W89884  25.597  40.464  14.949
26161W        W89885  13.634   9.729  10.479
26162W        W89886  33.027   0.373   1.920
26163W        W89887   1.411  31.626   1.227
26164W        W89888  14.692   5.396   0.390
26165W        W89889  44.328  25.643  10.128
26166W        W89890  39.381  34.951   1.884
26167W        W89891  44.807  36.978   9.928
26168W        W89892  25.040  30.578   9.970
26169W        W89893  29.127  14.594   2.824
26170W        W89894  34.542   2.260   3.629
26171W        W89895  28.083   2.273   1.354
26172W        W89896  20.269  34.022   2.178
26173W        W89897  22.731   2.471  14.282
26174W        W89898  31.087  28.051  14.454
26175W        W89899  10.210   5.303  11.511
26176W        W89900  22.158  16.211   1.385
26177W        W89901  44.501  24.707  14.485
26178W        W89902  34.096   9.292   1.369
26179W        W89903  13.217  13.160   4.643
26180W        W89904   3.345  40.355   0.949
26181W        W89905  35.570  44.378  12.042
26182W        W89906   4.838  25.491   0.873
26183W        W89907  40.456  11.343   1.841
26184W        W89908   3.438  40.469   2.788
26185W        W89909  41.803  17.595   3.807
26186W        W89910  13.296  34.907   0.442
26187W        W89911   5.899  38.501  10.466
26188W        W89912  18.060  22.092   1.387
26189W        W89913  19.742  44.940  11.394
26190W        W89914  14.156  38.539   0.394
26191W        W89915  38.549  21.225  13.972
26192W        W89916  26.115   9.738   5.663
26193W        W89917  17.262  28.962   3.180
26194W        W89918  18.735  21.613  13.904
26195W        W89919   6.183  27.074  13.058
26196W        W89920  37.564  42.396   9.664
26197W        W89921  37.430  42.481  12.342
26198W        W89922  17.253  21.641   2.766
26199W        W89923  29.935  18.249   3.173
26200W        W89924  23.164  15.652   3.373
26201W        W89925  32.002  38.333   0.802
26202W        W89926  34.952  15.327  11.976
26203W        W89927   2.410  36.582   2.809
26204W        W89928  44.287   1.289  14.892
26205W        W89929  42.362  42.819   2.321
26206W        W89930  23.576   1.299  10.985
26207W        W89931  26.103  30.574   0.870
26208W        W89932  43.832  12.720  10.628
26209W        W89933  38.836  17.218  12.566
26210W        W89934  15.782  37.040   4.796
26211W        W89935   6.900  23.102   0.913
26212W        W89936  16.115  31.529  14.994
26213W        W89937  14.807   0.770   1.266
26214W        W89938  23.129  24.717   0.428
26215W        W89939  19.216  38.894  10.456
26216W        W89940   4.249  13.740  12.357
26217W        W89941  31.930   0.446  10.610
26218W        W89942  23.163  13.275  13.906
26219W        W89943   5.873   1.956   3.706
26220W        W89944  40.821  12.250   4.601
26221W        W89945  40.920   0.280  14.774
26222W        W89946  37.381  17.278  12.422
26223W        W89947  21.118  30.914   5.262
26224W        W89948  14.610  40.318   3.380
26225W        W89949  18.161  21.121  14.429
26226W        W89950  32.603  23.985   0.361
26227W        W89951  41.038   3.940  13.391
26228W        W89952  38.458  24.230  10.903
26229W        W89953  27.079   6.841  13.961
26230W        W89954   0.285  17.093  14.944
26231W        W89955  25.687  35.467  14.014
26232W        W89956  40.369   9.209  13.470
26233W        W89957  32.479  44.783   3.153
26234W        W89958  24.553   8.230   9.492
26235W        W89959  18.095  19.675   2.281
26236W        W89960  42.799  18.763  12.463
26237W        W89961  43.864  11.288   4.660
26238W        W89962  39.511  14.273   4.152
26239W        W89963  18.789  34.052  11.892
26240W        W89964  43.807  28.084   4.750
26241W        W89965  19.224  30.097  11.528
26242W        W89966  39.341  34.872  11.877
26243W        W89967  44.890  38.861   2.684
26244W        W89968  37.966  10.328   0.759
26245W        W89969   2.409  41.292  11.112
26246W        W89970   1.852  33.930   1.758
26247W        W89971  10.814  35.950   2.336
26248W        W89972  16.101  24.689  12.948
26249W        W89973  21.252  37.991  14.935
26250W        W89974   9.668   7.855   0.891
26251W        W89975  40.424  12.332   0.821
26252W        W89976  28.939  21.199  11.472
26253W        W89977  15.741  24.720  12.035
26254W        W89978  36.933  31.469   4.253
26255W        W89979   1.363   4.776  12.946
26256W        W89980   5.922  44.777   1.862
26257W        W89981  14.743  15.783  14.378
26258W        W89982   3.333   9.757   2.405
26259W        W89983  38.378  15.154  13.375
26260W        W89984   2.753  38.389   2.891
26261W        W89985   4.222  37.452  13.541
26262W        W89986  34.471  17.782   1.217
26263W        W89987   6.812  15.144   3.289
26264W        W89988   1.346  10.851  14.355
26265W        W89989  20.193  31.409  12.876
26266W        W89990  27.053  16.207  12.939
26267W        W89991  22.504  40.800   3.636
26268W        W89992  27.580  24.065  11.933
26269W        W89993  23.651  15.698  14.018
26270W        W89994   7.404  19.569   2.681
26271W        W89995  32.454  33.927   3.176
26272W        W89996  25.089   1.969  11.973
26273W        W89997   2.844   1.453   4.142
26274W        W89998   4.351  22.581  11.419
26275W        W89999  10.704  18.738  11.507
26276W        W90000  15.254   6.852  12.392
26277W        W90001   8.287  37.849   1.919
26278W        W90002   0.861  15.710  11.555
26279W        W90003  26.971   0.921  14.950
26280W        W90004  16.182  26.616   2.224
26281W        W90005   7.726  23.169  12.483
26282W        W90006  26.077  31.583  10.925
26283W        W90007  27.980   8.402  11.042
26284W        W90008  25.051  21.646  12.013
26285W        W90009   5.273  28.481   2.722
26286W        W90010  28.944   8.666   1.915
26287W        W90011   6.342   5.310   0.948
26288W        W90012  28.454  19.613  12.486
26289W        W90013  27.026  37.848  12.960
26290W        W90014  40.027  22.724   2.292
26291W        W90015  39.959  16.768  13.360
26292W        W90016   7.218  23.078   4.829
26293W        W90017  40.048  29.978   2.869
26294W        W90018  18.562  15.694  11.960
26295W        W90019  37.552  27.044  12.469
26296W        W90020  19.188  38.003   4.637
26297W        W90021  31.429  38.968   3.744
26298W        W90022  41.420  17.724   1.728
26299W        W90023  31.404  43.362   2.781
26300W        W90024  42.306  20.127   1.213
26301W        W90025  39.833   9.882   2.407
26302W        W90026  35.412  38.043  11.479
26303W        W90027  15.626  25.142   0.759
26304W        W90028   7.209   9.340   3.852
26305W        W90029   9.275  26.181  14.487
26306W        W90030  29.931  31.907   4.762
26307W        W90031  23.645  40.445  10.530
26308W        W90032  24.047   9.743  13.959
26309W        W90033  12.712  18.782   3.790
26310W        W90034   5.227  13.229  12.998
26311W        W90035  13.175   8.405   2.808
26312W        W90036   9.657   5.319   2.268
26313W        W90037  29.953  11.226   4.618
26314W        W90038  41.504  37.076  11.893
26315W        W90039  29.004  21.158   2.774
26316W        W90040  36.859  34.119   4.714
26317W        W90041  23.018  38.502   9.950
26318W        W90042  38.036  19.091  12.474
26319W        W90043   4.277  39.560  10.600
26320W        W90044  17.079  29.436  12.883
26321W        W90045  18.263  31.017  14.411
26322W        W90046  11.789  31.086   4.271
26323W        W90047  13.781  10.248  10.952
26324W        W90048  38.526   9.349  12.566
26325W        W90049   9.707  17.655  14.484
26326W        W90050  27.023  23.164   2.817
26327W        W90051  21.567  24.494   0.348
26328W        W90052   5.333   1.846  14.416
26329W        W90053  26.046  11.145   0.477
26330W        W90054  12.313  18.208  12.982
26331W        W90055  30.619  38.345  14.018
26332W        W90056  20.711  10.359  10.548
26333W        W90057  15.730   2.262  12.836
26334W        W90058  43.371  40.894   4.274
26335W        W90059   1.310   7.868  11.890
26336W        W90060  44.923  26.029   4.790
26337W        W90061   4.737  41.368   9.932
26338W        W90062  39.869  22.151   0.877
26339W        W90063  22.689  43.305   2.315
26340W        W90064  25.650   9.350  11.103
26341W        W90065  30.069  22.579  14.028
26342W        W90066  41.852   5.333   1.447
26343W        W90067  40.382   8.774  11.909
26344W        W90068  13.723  16.734   2.761
26345W        W90069  14.279  43.922  12.032
26346W        W90070  41.837  37.529   5.121
26347W        W90071   9.788  12.804   4.140
26348W        W90072  25.214  35.861   3.747
26349W        W90073  34.067  32.601  14.962
26350W        W90074  22.654  16.102  12.568
26351W        W90075  27.005  30.642  11.068
26352W        W90076  41.375  10.827  11.018
26353W        W90077   2.774  16.754  11.866
26354W        W90078  44.844   2.424  11.554
26355W        W90079  24.005  41.523   0.849
26356W        W90080  18.226  36.031  10.946
26357W        W90081  39.999  26.468   1.409
26358W        W90082  39.435  42.511   1.771
26359W        W90083   6.789  10.233  14.275
26360W        W90084  18.116  18.602  13.335
26361W        W90085  42.919   5.422  13.380
26362W        W90086   4.724  21.692   3.673
26363W        W90087  15.743  44.929   1.750
26364W        W90088  25.166  10.652   2.809
26365W        W90089   0.400  21.192  14.315
26366W        W90090  41.478  33.553  10.531
26367W        W90091   9.378  28.020   3.756
26368W        W90092   7.669  40.837   4.735
26369W        W90093  14.315  43.946   0.843
26370W        W90094   4.415  42.509   3.683
26371W        W90095  36.569   3.760   2.670
26372W        W90096  21.191  35.993   2.771
26373W        W90097  32.457  18.221   0.246
26374W        W90098   4.392  36.075   2.334
26375W        W90099  15.740  22.044   1.297
26376W        W90100  26.025  31.052   2.802
26377W        W90101  24.720   6.761  13.394
26378W        W90102  17.305  42.914  12.842
26379W        W90103  19.249  21.745  10.969
26380W        W90104  19.574  13.244   1.235
26381W        W90105  35.952  26.613  12.070
26382W        W90106  32.094  24.044  11.999
26383W        W90107  39.869  26.511   2.357
26384W        W90108  36.974  28.106   2.315
26385W        W90109  44.279  12.659   1.434
26386W        W90110  12.220  27.515   0.307
26387W        W90111  12.275  37.387   1.896
26388W        W90112  28.185  25.512  14.449
26389W        W90113  36.574  44.914   0.428
26390W        W90114  25.996  11.311   3.721
26391W        W90115  15.723  39.005   0.440
26392W        W90116  17.665  15.321  11.950
26393W        W90117  42.345   3.880   4.151
26394W        W90118  17.766  24.036   1.317
26395W        W90119  27.086  28.981  14.426
26396W        W90120  29.549   1.809  12.565
26397W        W90121   9.302  32.104   4.713
26398W        W90122   1.931  25.705   2.695
26399W        W90123  31.979  28.453  13.864
26400W        W90124  44.365   6.284  12.056
26401W        W90125   0.903   7.381   4.830
26402W        W90126   5.841  36.518   4.811
26403W        W90127  37.086  34.072   2.703
26404W        W90128  22.714   8.697  11.079
26405W        W90129   5.374   0.918   1.430
26406W        W90130  30.066  39.460  10.535
26407W        W90131  28.482   9.794  14.002
26408W        W90132  14.722  15.747   2.314
26409W        W90133  15.244  14.683  14.349
26410W        W90134  22.049  37.352   2.764
26411W        W90135  31.589  20.136   1.295
26412W        W90136  30.011  32.000   0.927
26413W        W90137  40.493  42.330  11.903
26414W        W90138  19.285  28.980  12.426
26415W        W90139  41.455   3.749  11.082
26416W        W90140  35.377  29.583  11.936
26417W        W90141  25.607  31.039  10.931
26418W        W90142  32.555   0.492   0.917
26419W        W90143  22.052  33.570   2.415
26420W        W90144  24.158  26.191   9.995
26421W        W90145   7.845  17.090   3.269
26422W        W90146  26.022  35.869   0.843
26423W        W90147  18.659  27.060   2.209
26424W        W90148  10.684  32.536   0.409
26425W        W90149   1.762  37.565  10.604
26426W        W90150   2.797  25.526  14.842
26427W        W90151   6.724  33.383   1.249
26428W        W90152  30.057  21.154  13.397
26429W        W90153  15.593  34.105   0.812
26430W        W90154  34.436  12.836  11.987
26431W        W90155  40.427   2.878   2.665
26432W        W90156  10.849  17.148  11.894
26433W        W90157   5.338  24.639  14.402
26434W        W90158   7.833  27.170   3.798
26435W        W90159   0.394  10.752  14.918
26436W        W90160  25.211  17.743   2.863
26437W        W90161   7.687  40.439  11.986
26438W        W90162   1.896   0.285   4.674
26439W        W90163  19.073  40.440   4.346
26440W        W90164  10.873  32.999   2.803
26441W        W90165  24.678   5.229   2.409
26442W        W90166  15.773  44.993  10.617
26443W        W90167  35.977  40.883   0.835
26444W        W90168  14.721  34.517  12.856
26445W        W90169  38.524  37.848   0.959
26446W        W90170  40.039  10.829   4.732
26447W        W90171  16.706  35.915  14.300
26448W        W90172  12.718  16.783  13.022
26449W        W90173   1.795  20.542   0.411
26450W        W90174   1.766  15.693  12.518
26451W        W90175   7.670   7.672  13.535
26452W        W90176  41.811  34.959   0.773
26453W        W90177  24.109  19.179   3.807
26454W        W90178  37.360  30.434  12.350
26455W        W90179  12.767  27.607  12.945
26456W        W90180  26.009  21.089   0.801
26457W        W90181  14.245   6.347   4.702
26458W        W90182   2.741  34.096   2.867
26459W        W90183   6.698   1.287   0.289
26460W        W90184  34.977  18.598   2.744
26461W        W90185  26.457  29.596   1.397
26462W        W90186  41.995  42.923   3.713
26463W        W90187  33.057  20.568  13.495
26464W        W90188  17.248  26.105   0.739
26465W        W90189   8.771   5.756   1.425
26466W        W90190  41.949  25.201   0.280
26467W        W90191  24.596  26.538  14.015
26468W        W90192   5.334  38.342   2.399
26469W        W90193  21.051   7.384  13.847
26470W        W90194   0.889  42.427   0.297
26471W        W90195  11.317  32.122  10.530
26472W        W90196  14.209  42.305   4.769
26473W        W90197  22.137  20.658  11.518
26474W        W90198   1.435   8.174   1.797
26475W        W90199  31.577   0.329  13.467
26476W        W90200   7.761  32.458   4.651
26477W        W90201  11.290   0.393  11.920
26478W        W90202   4.378  33.396   0.730
26479W        W90203  35.993  44.954   3.184
26480W        W90204  27.186  23.697  10.417
26481W        W90205  12.854   4.929   3.257
26482W        W90206  25.141  25.661   3.866
26483W        W90207  35.855  17.611   1.862
26484W        W90208  21.210  39.031  12.072
26485W        W90209   1.846   2.295  10.458
26486W        W90210  33.898  16.716  13.367
26487W        W90211  12.190   9.881  14.286
26488W        W90212  34.064  34.476   4.702
26489W        W90213  24.985   8.357   1.807
26490W        W90214  17.625   1.906   1.333
26491W        W90215  17.683   7.697   1.807
26492W        W90216   8.897  32.998  12.370
26493W        W90217  40.512  29.623   2.749
26494W        W90218   9.224   4.371  11.478
26495W        W90219  39.548  34.587   3.305
26496W        W90220  36.380   0.436   2.219
26497W        W90221   6.717  20.740  14.975
26498W        W90222   6.786  26.005   1.213
26499W        W90223  15.703   4.920  11.569
26500W        W90224  28.603  24.087   3.677
26501W        W90225  27.116  26.594   2.717
26502W        W90226  33.488  31.063   1.378
26503W        W90227  22.582  21.179  10.408
26504W        W90228  25.615  28.473  12.512
26505W        W90229  26.528  42.817  13.532
26506W        W90230  14.735  37.048   2.883
26507W        W90231   3.304  20.126   0.964
26508W        W90232  44.318   1.901   0.350
26509W        W90233  12.158   1.296   3.652
26510W        W90234  31.960  10.357  13.869
26511W        W90235  21.049  19.604   2.394
26512W        W90236   3.279   7.318  11.088
26513W        W90237  13.767  41.390   4.171
26514W        W90238   5.899   4.858   4.673
26515W        W90239  14.135  35.950   2.280
26516W        W90240  14.699  16.102   0.292
26517W        W90241  40.415  18.214   0.333
26518W        W90242  33.959  33.568  11.021
26519W        W90243  13.256  14.240  12.030
26520W        W90244  14.739   4.774   4.781
26521W        W90245  38.039  15.606   4.765
26522W        W90246  33.079  30.498  13.482
26523W        W90247  40.900  26.556   5.136
26524W        W90248  23.039   2.780   3.273
26525W        W90249  37.426  39.821  12.086
26526W        W90250  16.284  15.299  12.485
26527W        W90251  22.061  18.071  10.576
26528W        W90252  25.696  15.621   4.195
26529W        W90253  44.415  40.047  14.372
26530W        W90254  31.500  28.940  11.028
26531W        W90255  21.226   2.278  13.539
26532W        W90256  27.567  23.039  14.002
26533W        W90257  27.127  20.624  11.540
26534W        W90258   2.426  32.451   4.334
26535W        W90259   3.871  41.532   2.857
26536W        W90260  12.134  33.927  11.426
26537W        W90261   3.714  13.658  12.385
26538W        W90262  43.374  18.641   4.244
26539W        W90263   9.832  38.565   0.316
26540W        W90264   7.185  31.036  12.086
26541W        W90265  37.923  29.035  12.495
26542W        W90266  17.633  31.501   1.450
26543W        W90267  23.072  30.962   3.697
26544W        W90268  35.873  20.688   1.795
26545W        W90269  40.474   8.349   4.820
26546W        W90270  25.662   7.344  14.427
26547W        W90271  35.553   5.863  12.544
26548W        W90272   0.757  15.586   0.300
26549W        W90273  26.015  19.242  11.494
26550W        W90274  21.660  38.038  10.428
26551W        W90275  20.220  26.543  10.638
26552W        W90276  41.022   8.381  12.443
26553W        W90277  28.449   7.213  11.478
26554W        W90278  28.075  42.999   3.200
26555W        W90279  40.949  15.803   4.130
26556W        W90280  33.936  43.930  13.432
26557W        W90281   6.406  18.070   3.729
26558W        W90282   8.361  32.971  12.009
26559W        W90283  21.101  13.726   1.779
26560W        W90284  18.159  36.855  12.547
26561W        W90285  33.458  17.246  14.377
26562W        W90286   9.289  17.649   4.686
26563W        W90287   6.743  15.158  13.014
26564W        W90288  32.107  40.377  11.909
26565W        W90289  30.923   0.747  11.033
26566W        W90290   3.236   8.721  14.403
26567W        W90291  33.545   2.241   4.225
26568W        W90292  23.649  27.503  10.955
26569W        W90293   6.778  14.807  12.876
26570W        W90294  38.488  39.967   3.714
26571W        W90295   2.228   8.745  13.538
26572W        W90296  36.512  28.973   2.349
26573W        W90297  10.204  29.669  14.413
26574W        W90298   5.782   6.255  11.972
26575W        W90299  20.599   6.403   2.718
26576W        W90300  13.200  33.976  14.450
26577W        W90301  34.397  39.975  14.472
26578W        W90302  32.894   8.848   0.475
26579W        W90303   6.912  34.945   0.259
26580W        W90304  17.146  26.649   3.766
26581W        W90305  12.842  16.568  11.114
26582W        W90306  27.071   6.296   0.860
26583W        W90307  12.801  43.288  11.411
26584W        W90308  42.022  19.102  10.637
26585W        W90309  38.534  11.317   1.278
26586W        W90310   8.825  41.834   1.920
26587W        W90311  41.365  38.354   4.720
26588W        W90312  41.317  32.985  14.446
26589W        W90313  11.207  27.092  11.093
26590W        W90314  41.331   9.731  14.468
26591W        W90315   6.393  41.919   1.429
26592W        W90316  12.766  39.870   4.263
26593W        W90317   8.796  38.970   4.772
26594W        W90318  29.021  36.413   1.864
26595W        W90319  21.589   9.881   1.262
26596W        W90320  16.241  28.520   1.224
26597W        W90321  17.074  32.453  13.463
26598W        W90322  34.019   9.316  10.588
26599W        W90323  33.909  29.104   0.451
26600W        W90324   4.781  14.333   2.287
26601W        W90325  36.445  33.435   5.213
26602W        W90326  27.626   8.821   2.700
26603W        W90327  17.706  38.432  13.385
26604W        W90328   2.301  40.822   2.733
26605W        W90329   9.648  36.527  12.882
26606W        W90330  43.465  18.605  10.592
26607W        W90331   7.201  10.336   3.346
26608W        W90332   1.883  21.150  11.465
26609W        W90333   2.852  32.075  10.446
26610W        W90334  30.929  36.945   2.838
26611W        W90335  44.008  41.404  12.387
26612W        W90336   4.277  40.518   1.879
26613W        W90337  18.657  32.494   1.211
26614W        W90338  37.342  35.073   2.710
26615W        W90339  28.534  21.064  14.778
26616W        W90340  35.499  28.567   3.772
26617W        W90341   9.874  19.582  12.409
26618W        W90342  10.740   2.303  13.014
26619W        W90343  30.036   8.898   3.710
26620W        W90344  36.860  15.611  14.360
26621W        W90345   8.831  28.593  10.546
26622W        W90346   7.250  13.131   1.326
26623W        W90347  22.030   4.766  13.469
26624W        W90348   8.392   2.873  13.972
26625W        W90349  21.653  24.051   1.780
26626W        W90350  12.304  23.491  13.046
26627W        W90351   2.329  31.531  14.366
26628W        W90352  37.350  26.511  11.082
26629W        W90353  24.160  41.338  14.914
26630W        W90354  38.985  28.094  11.540
26631W        W90355  16.673  43.345   3.748
26632W        W90356  22.543  10.164  12.021
26633W        W90357  31.044  30.910   2.811
26634W        W90358  40.363  19.274  11.984
26635W        W90359  10.725  16.201  10.429
26636W        W90360  43.008  11.681  14.510
26637W        W90361  11.236  43.330  10.889
26638W        W90362  37.055  44.296  10.007
26639W        W90363  29.555   8.269  12.545
26640W        W90364  43.376   2.228  11.542
26641W        W90365   1.738  18.771   0.272
26642W        W90366   8.738  40.403   0.805
26643W        W90367  27.635  35.929   1.789
26644W        W90368  35.048  30.440   3.732
26645W        W90369  12.308  36.002  12.978
26646W        W90370  16.240   5.849   5.111
26647W        W90371  16.757  35.093  10.529
26648W        W90372  43.920  39.536   2.841
26649W        W90373   7.172  28.171  14.804
26650W        W90374  10.259   2.878  13.847
26651W        W90375  21.697  38.063   2.286
26652W        W90376  15.683  42.994  11.604
26653W        W90377   7.223  41.528  11.386
26654W        W90378  25.159  30.644   1.291
26655W        W90379   6.761   9.287   0.247
26656W        W90380   8.790   3.303  14.985
26657W        W90381  10.367  16.642  12.083
26658W        W90382  24.072  36.869  12.026
26659W        W90383  22.514  37.462   3.367
26660W        W90384  15.687   5.798   1.804
26661W        W90385  23.629  35.087   0.269
26662W        W90386  26.032  40.420  14.954
26663W        W90387  43.869  23.534  14.773
26664W        W90388   9.185   5.396  11.992
26665W        W90389  41.838  15.820   1.743
26666W        W90390   0.945  37.041  11.554
26667W        W90391   9.162  13.766   9.465
26668W        W90392  13.611  27.625   2.197
26669W        W90393  10.740  31.572  14.868
26670W        W90394  30.507  44.765  12.948
26671W        W90395  12.154  26.044  11.093
26672W        W90396  14.676  12.174  14.946
26673W        W90397  26.203   2.801  13.812
26674W        W90398  23.719   1.772  14.907
26675W        W90399  28.052  10.799   2.400
26676W        W90400  16.735   5.310   1.213
26677W        W90401  25.969  21.029  14.374
26678W        W90402  15.197  12.253   0.863
26679W        W90403  19.232  16.586  13.989
26680W        W90404  26.184  33.443  10.485
26681W        W90405  32.089   3.759   3.385
26682W        W90406  25.031  19.159  14.330
26683W        W90407  40.940  21.680   5.710
26684W        W90408  38.379  30.033  12.576
26685W        W90409  11.759  44.761  11.446
26686W        W90410   1.938  40.346   2.677
26687W        W90411   7.406  24.138   1.877
26688W        W90412  15.790  31.503   3.368
26689W        W90413  12.818  30.511  14.478
26690W        W90414   6.776  18.561   3.776
26691W        W90415  16.173  17.203   0.843
26692W        W90416  38.366  23.682  10.906
26693W        W90417  21.128  15.743   0.403
26694W        W90418  39.985  29.934   1.335
26695W        W90419  44.498  20.607  14.391
26696W        W90420  20.646  43.938  13.947
26697W        W90421  31.984  17.598   0.469
26698W        W90422  22.023  37.359  10.972
26699W        W90423  37.005  40.865   2.864
26700W        W90424  28.124  28.150   4.128
26701W        W90425  30.458  32.403   5.269
26702W        W90426  21.611  21.684   2.723
26703W        W90427  16.237   4.840   4.314
26704W        W90428   4.400   2.298   3.278
26705W        W90429  15.651   5.294   1.737
26706W        W90430   6.419  21.020  11.980
26707W        W90431  34.984  41.339   2.354
26708W        W90432  35.428  42.497  13.981
26709W        W90433   0.391  38.035  11.532
26710W        W90434  39.814  19.232  11.125
26711W        W90435  10.205  28.996  11.996
26712W        W90436  42.320  23.645   2.350
26713W        W90437   6.285  40.013   2.207
26714W        W90438   2.249  33.967   0.858
26715W        W90439  39.850  10.845  10.549
26716W        W90440   1.841  43.277   3.338
26717W        W90441  27.032  33.415  12.955
26718W        W90442  41.921  29.569  13.538
26719W        W90443  12.794  36.526   4.724
26720W        W90444  21.234   9.182   4.815
26721W        W90445   6.380  41.471   3.166
26722W        W90446   1.261   3.885   2.872
26723W        W90447  37.927  31.015   1.328
26724W        W90448   9.230   3.446   4.687
26725W        W90449   9.169  19.219  13.023
26726W        W90450  23.184  23.560  12.899
26727W        W90451   6.822   3.345  14.972
26728W        W90452   5.762   7.273   4.121
26729W        W90453  29.085  42.451  13.963
26730W        W90454   0.930  11.769   0.396
26731W        W90455  42.290  31.950  14.286
26732W        W90456  15.791  27.191   1.415
26733W        W90457  28.504  27.189   2.822
26734W        W90458  40.436   5.236   2.902
26735W        W90459  11.690  28.676   2.210
26736W        W90460  39.441   7.717  11.881
26737W        W90461  43.513  32.961  10.434
26738W        W90462   7.414  13.191   4.636
26739W        W90463  13.810   6.378   3.664
26740W        W90464  17.688   8.370  13.050
26741W        W90465   1.464  19.072   2.875
26742W        W90466  17.118  15.735  11.051
26743W        W90467  28.075   5.856   2.752
26744W        W90468  36.580  10.656   2.418
26745W        W90469  34.920  38.432  12.903
26746W        W90470  27.989  10.336   2.801
26747W        W90471  23.503  43.319   2.182
26748W        W90472  22.131  15.742  12.549
26749W        W90473   1.345   7.370   4.674
26750W        W90474  23.054  24.612  12.927
26751W        W90475  28.636  20.698   4.229
26752W        W90476  19.128  17.191   2.735
26753W        W90477  33.890  20.101  11.959
26754W        W90478  14.095  19.658  13.338
26755W        W90479   4.389  27.665  11.044
26756W        W90480  12.258  23.584   4.774
26757W        W90481   9.660  42.343   4.798
26758W        W90482   1.395  23.512   0.907
26759W        W90483  29.146   2.278   1.215
26760W        W90484  21.677  36.559   1.917
26761W        W90485   6.759  33.076  12.498
26762W        W90486  36.499   1.874  14.446
26763W        W90487  14.107   0.263   1.246
26764W        W90488  30.914  12.219  10.564
26765W        W90489  31.040  33.910  11.874
26766W        W90490   1.755  27.971  14.903
26767W        W90491  10.656  34.566   1.725
26768W        W90492   6.355  32.444  14.357
26769W        W90493  23.153   2.801  14.897
26770W        W90494  13.696  28.131   4.149
26771W        W90495  23.107   6.807  13.449
26772W        W90496  16.154  21.616   2.692
26773W        W90497  30.631  23.054  12.964
26774W        W90498  10.830   4.822  14.015
26775W        W90499   8.387  10.381  11.027
26776W        W90500  22.017   5.775   3.153
26777W        W90501  32.975  35.921   3.183
26778W        W90502   1.753  31.411  13.911
26779W        W90503  30.428  11.317   2.663
26780W        W90504  25.546  25.510  11.398
26781W        W90505   7.245  21.178  14.017
26782W        W90506  33.999  10.665   1.290
26783W        W90507   9.364   0.416  12.905
26784W        W90508  13.345   3.733  14.445
26785W        W90509  44.379  32.061  12.506
26786W        W90510   9.758  30.149  10.925
26787W        W90511   0.279  20.171   1.764
26788W        W90512  33.413  15.243  14.945
26789W        W90513  21.707  44.481  12.839
26790W        W90514  31.983  43.798   1.322
26791W        W90515  43.501  28.045  14.894
26792W        W90516   1.417  42.301  11.020
26793W        W90517  42.388  28.076  14.293
26794W        W90518  40.413  41.805   1.433
26795W        W90519  36.587   9.197  10.637
26796W        W90520  22.625   6.217  11.509
26797W        W90521  26.636   0.872   4.332
26798W        W90522   8.725   4.209   4.256
26799W        W90523  36.968  42.309   0.941
26800W        W90524   2.807   9.274  12.068
26801W        W90525  11.287   5.214   4.827
26802W        W90526  18.194  35.592   3.276
26803W        W90527  30.607  38.946  12.964
26804W        W90528  12.333  28.154  11.936
26805W        W90529  43.014  44.844   2.373
26806W        W90530  16.608   4.263   1.307
26807W        W90531  23.728  28.185   0.451
26808W        W90532  17.257   4.826  11.054
26809W        W90533   8.799  15.121   3.375
26810W        W90534  41.465   1.941   3.357
26811W        W90535  29.015   1.976  10.482
26812W        W90536  38.476  14.751   0.908
26813W        W90537  35.891  16.156   4.294
26814W        W90538  11.818   1.478  10.465
26815W        W90539  24.066  19.771  13.990
26816W        W90540  38.571  42.884  13.361
26817W        W90541  35.478  27.179  13.873
26818W        W90542  12.749  29.516  12.955
26819W        W90543   5.375   3.293  12.834
26820W        W90544  27.136  13.686  10.538
26821W        W90545  17.216  39.960  10.463
26822W        W90546  41.318  41.433   1.367
26823W        W90547  33.423  15.685   3.322
26824W        W90548   7.705  16.277  13.895
26825W        W90549  41.443  40.951   2.784
26826W        W90550  41.520  20.229   3.158
26827W        W90551  11.664   9.688   2.196
26828W        W90552  24.061   3.752  11.097
26829W        W90553  29.497  40.994   4.210
26830W        W90554  15.319  30.527   3.207
26831W        W90555  12.857   4.933  13.967
26832W        W90556  23.058  38.490  13.862
26833W        W90557  14.766  18.071  13.914
26834W        W90558  19.046  40.832   0.941
26835W        W90559  39.458  26.094  13.531
26836W        W90560  43.325   9.285  11.532
26837W        W90561  18.718  24.709  13.433
26838W        W90562  20.241  39.316   2.858
26839W        W90563   6.207   0.323   3.212
26840W        W90564   1.456  14.720   0.307
26841W        W90565  24.034   7.714   3.764
26842W        W90566   1.436  12.282   2.715
26843W        W90567  27.574  11.270   2.793
26844W        W90568  40.919  20.625   3.270
26845W        W90569  13.227   9.881   0.803
26846W        W90570   4.433  29.003   3.293
26847W        W90571   4.857   6.840  11.025
26848W        W90572  36.883  35.475   4.188
26849W        W90573   2.356  17.763  12.838
26850W        W90574  17.151  38.872   9.922
26851W        W90575  27.974  22.082   3.372
26852W        W90576  32.953  20.623   2.774
26853W        W90577  37.474  28.969   3.703
26854W        W90578  28.675  28.617  11.026
26855W        W90579  29.966  28.997  11.114
26856W        W90580   4.803  23.695   1.213
26857W        W90581  35.864  36.097  11.884
26858W        W90582  18.742  26.031  14.799
26859W        W90583  43.395   1.346  10.989
26860W        W90584  14.822   2.379  11.526
26861W        W90585  37.404  18.115  11.525
26862W        W90586  15.193  41.373   2.290
26863W        W90587  40.812   4.775   4.791
26864W        W90588  30.644  12.745  11.079
26865W        W90589   3.371  42.397  11.489
26866W        W90590  44.928  17.199  13.937
26867W        W90591   9.833  29.977  12.532
26868W        W90592  38.498   1.406  12.444
26869W        W90593   0.779  44.942  14.837
26870W        W90594  42.324  11.671   0.359
26871W        W90595  21.163  29.065   1.867
26872W        W90596  39.503  43.342  14.856
26873W        W90597  38.479   4.832  13.531
26874W        W90598  39.482   7.809   1.847
26875W        W90599  26.466  24.051  12.363
26876W        W90600  39.023  30.471  10.144
26877W        W90601  33.617  10.346  13.321
26878W        W90602  35.544  31.099  12.940
26879W        W90603  24.186  44.915   3.870
26880W        W90604  17.092  35.379  14.947
26881W        W90605  36.439  20.627   3.337
26882W        W90606  14.783  31.950   2.213
26883W        W90607  24.982   9.246  12.905
26884W        W90608  33.611  33.034  12.464
26885W        W90609   7.678  19.750   1.909
26886W        W90610  37.983  43.473  13.447
26887W        W90611  21.116  29.969  11.109
26888W        W90612  22.628  37.514  10.936
26889W        W90613  39.993  14.218   4.319
26890W        W90614   5.321  29.051  11.006
26891W        W90615  24.632  21.208   3.294
26892W        W90616  35.997  11.794   5.155
26893W        W90617   6.222   9.176   1.437
26894W        W90618  36.592  29.028   4.716
26895W        W90619  41.318  20.558  10.580
26896W        W90620   2.763  44.878  13.969
26897W        W90621  43.287   0.811  14.426
26898W        W90622  16.193  36.360   1.725
26899W        W90623  36.389  26.675   5.198
26900W        W90624  22.090  13.143   3.354
26901W        W90625  41.925  36.531   0.782
26902W        W90626  14.600  42.787  13.331
26903W        W90627   9.819   1.242   1.278
26904W        W90628  10.791  31.958   2.780
26905W        W90629  37.087  43.443   2.352
26906W        W90630  44.753   3.802  11.552
26907W        W90631  41.340  17.217   1.333
26908W        W90632  23.733  22.187  10.973
26909W        W90633  33.593  42.881   9.934
26910W        W90634  39.385  42.018  14.023
26911W        W90635   9.365  39.559  13.032
26912W        W90636  26.093  19.136   4.294
26913W        W90637  26.144  41.936   4.657
26914W        W90638  23.526  40.400   2.214
26915W        W90639  25.132   9.228   3.659
26916W        W90640  25.570   7.783   1.236
26917W        W90641  41.024   0.937  10.486
26918W        W90642  33.387   7.233  12.969
26919W        W90643  32.000  16.618  13.443
26920W        W90644   9.650   0.890   2.260
26921W        W90645  17.176  31.152  11.422
26922W        W90646  10.270  31.098   4.610
26923W        W90647  31.918  20.132   2.302
26924W        W90648   8.393  18.179  11.007
26925W        W90649  14.670  43.885   2.717
26926W        W90650  11.834  24.533   2.297
26927W        W90651   0.829  19.729   1.379
26928W        W90652  44.810  12.245   0.303
26929W        W90653  13.772  44.972  10.605
26930W        W90654   8.402  43.483  11.022
26931W        W90655   5.199  15.118  13.019
26932W        W90656  12.150  35.913   1.425
26933W        W90657  33.960  29.582   4.807
26934W        W90658  43.911  34.589   4.622
26935W        W90659   0.443  24.600  10.580
26936W        W90660   1.753  18.726  11.858
26937W        W90661  11.203  20.715  14.971
26938W        W90662   4.769   4.427   3.197
26939W        W90663  23.616  42.332  13.941
26940W        W90664  14.794  29.431  12.406
26941W        W90665  12.809  38.075   3.201
26942W        W90666  40.420  33.453   0.354
26943W        W90667  33.968  43.020   1.253
26944W        W90668  30.052   1.379   1.823
26945W        W90669   9.236   7.870   4.684
26946W        W90670  43.439  11.317  11.865
26947W        W90671  23.539  22.531   2.184
26948W        W90672  12.123   7.358   0.967
26949W        W90673   3.880  36.437  11.524
26950W        W90674  25.118   4.314   2.316
26951W        W90675  40.927  30.467  13.062
26952W        W90676  13.612   8.744  13.958
26953W        W90677  14.144   8.697  11.596
26954W        W90678  34.506  34.576   3.160
26955W        W90679  16.681  13.825   4.320
26956W        W90680  11.307  29.965   4.163
26957W        W90681  29.040  23.632   3.650
26958W        W90682  24.725  42.849  11.966
26959W        W90683  37.415  24.994   1.766
26960W        W90684  33.962  19.251   0.302
26961W        W90685   0.373  11.815   3.247
26962W        W90686   0.980   6.321   3.291
26963W        W90687   3.449   1.415   0.804
26964W        W90688  43.270  32.890  11.517
26965W        W90689  14.629  22.511  13.865
26966W        W90690   3.852  14.227   0.832
26967W        W90691  23.509  27.466   4.643
26968W        W90692   1.761  11.645  13.004
26969W        W90693   3.219  14.648  12.509
26970W        W90694  17.745  16.276   3.276
26971W        W90695   5.360  25.045   2.827
26972W        W90696  32.125   2.851  14.005
26973W        W90697  18.553  27.946   5.233
26974W        W90698  23.600  35.578  11.125
26975W        W90699  29.655  44.967   0.372
26976W        W90700  38.985  36.015   1.357
26977W        W90701  41.529  26.973   0.787
26978W        W90702   3.871  15.683  12.980
26979W        W90703  35.076  29.971  11.928
26980W        W90704  15.170  32.493   1.916
26981W        W90705  30.543  26.206  11.047
26982W        W90706   7.369  10.656  14.918
26983W        W90707  37.451  33.580  13.983
26984W        W90708  44.771  20.548  12.485
26985W        W90709   1.953   9.753   3.846
26986W        W90710  25.605  24.205  13.030
26987W        W90711  23.656  26.534  11.872
26988W        W90712  14.273  30.506   4.689
26989W        W90713  26.548  26.586   3.267
26990W        W90714  18.099   5.383  10.421
26991W        W90715  16.684  31.452  14.944
26992W        W90716   5.757  36.497  11.094
26993W        W90717  38.328  18.638   2.332
26994W        W90718  24.648   4.764   4.157
26995W        W90719   6.336  18.272  10.132
26996W        W90720  16.193  16.113  12.865
26997W        W90721   7.883  42.397  11.560
26998W        W90722  27.041   7.344  11.942
26999W        W90723  11.837   9.733  13.030
27000W        W90724  33.398  31.036  12.359
27001W        W90725  32.962  39.530  12.374
27002W        W90726  44.808  27.025   4.269
27003W        W90727  36.428  37.507   3.233
27004W        W90728  17.149  31.980   1.279
27005W        W90729  15.728  20.706   3.355
27006W        W90730   3.797   9.764  14.374
27007W        W90731  21.113  31.587   0.274
27008W        W90732  34.956  43.297   4.649
27009W        W90733   9.305  10.164   0.767
27010W        W90734  17.783  37.442   0.920
27011W        W90735   3.800  44.914   2.203
27012W        W90736  36.348  30.985  13.333
27013W        W90737  43.509  25.714   4.779
27014W        W90738   1.862  32.594   3.223
27015W        W90739  42.784  42.969   5.156
27016W        W90740  18.707  13.789   4.281
27017W        W90741  19.277  19.252  14.869
27018W        W90742   5.315  17.145  13.025
27019W        W90743  21.027   3.398  10.942
27020W        W90744  32.926  41.795  14.285
27021W        W90745  17.067  24.150   4.653
27022W        W90746  15.191  20.646   1.933
27023W        W90747  26.697   6.281  14.838
27024W        W90748   8.897  25.500  13.034
27025W        W90749  38.041  35.378   2.823
27026W        W90750  21.090  20.166   4.266
27027W        W90751  38.416  23.534  12.934
27028W        W90752  19.689  35.096  10.435
27029W        W90753  40.524  17.797   4.735
27030W        W90754   2.311  22.598  13.875
27031W        W90755  11.803  16.181   2.678
27032W        W90756  21.063  40.801  12.982
27033W        W90757  25.539   3.740  11.409
27034W        W90758  15.106  18.684   4.328
27035W        W90759  31.492  30.915   2.800
27036W        W90760  13.825  44.453  12.557
27037W        W90761  21.551   5.344   2.304
27038W        W90762  14.143  26.530   0.833
27039W        W90763  22.688  27.197  11.408
27040W        W90764   6.883  42.969  14.329
27041W        W90765  35.426  19.076   0.411
27042W        W90766  29.995   2.883  13.419
27043W        W90767  39.555  37.914  12.010
27044W        W90768  26.995  40.829   1.227
27045W        W90769   3.297  44.436   2.294
27046W        W90770  29.559  17.797   4.166
27047W        W90771  36.929  42.391   4.751
27048W        W90772   3.816  11.860   4.612
27049W        W90773  17.662  40.866  11.382
27050W        W90774  33.460  19.653   4.190
27051W        W90775  24.660  16.645   3.756
27052W        W90776  43.927   2.894   3.693
27053W        W90777  43.880  25.598  12.876
27054W        W90778  36.904  19.222  14.459
27055W        W90779  11.712  31.526   3.374
27056W        W90780   4.270  23.654  10.415
27057W        W90781  40.038  10.367   1.809
27058W        W90782  38.443  17.600   0.268
27059W        W90783  10.157  39.525  13.321
27060W        W90784  31.939  13.669   1.318
27061W        W90785  13.748  33.480   0.384
27062W        W90786   1.317  16.643  10.492
27063W        W90787  19.131  31.499  14.359
27064W        W90788  37.493   9.849   1.793
27065W        W90789  16.686  22.543  10.994
27066W        W90790   5.779  42.875  13.991
27067W        W90791  24.012  33.537  10.974
27068W        W90792  25.078  20.215  11.493
27069W        W90793  15.290  29.000  10.995
27070W        W90794   3.778  35.908  14.875
27071W        W90795   9.751  34.579   2.891
27072W        W90796  21.704  33.539  10.977
27073W        W90797  25.695  25.106  14.362
27074W        W90798  12.128  39.887   2.821
27075W        W90799  31.131  19.058  14.309
27076W        W90800  21.583  38.056  10.998
27077W        W90801  23.720  11.212   3.650
27078W        W90802  38.475  15.271   4.836
27079W        W90803  13.179  42.921  12.964
27080W        W90804   6.353  23.202   2.705
27081W        W90805  44.830  13.209  10.635
27082W        W90806  25.520  25.649   2.750
27083W        W90807  22.039   5.228   0.384
27084W        W90808   9.770  31.016   0.469
27085W        W90809  32.487   5.691  13.807
27086W        W90810  24.666  15.192  13.036
27087W        W90811  24.075  32.532  13.061
27088W        W90812  39.550  37.930   9.572
27089W        W90813  29.658  27.022   1.823
27090W        W90814  14.768  34.942   1.715
27091W        W90815   7.900  40.381   2.823
27092W        W90816  25.708  18.744  12.369
27093W        W90817  15.177  29.453  13.319
27094W        W90818  32.044  17.203  14.943
27095W        W90819  12.715   7.186   0.810
27096W        W90820  42.915  24.554   0.827
27097W        W90821  36.353  32.062  10.487
27098W        W90822   4.353  31.897   1.265
27099W        W90823  13.309   8.217   1.906
27100W        W90824  30.072  32.977   0.953
27101W        W90825  22.165  27.069  12.528
27102W        W90826  29.035  21.261  10.098
27103W        W90827  22.140   9.344   4.173
27104W        W90828  36.521  36.408   0.461
27105W        W90829  43.343  18.185  11.105
27106W        W90830  26.997  35.013   1.270
27107W        W90831   9.817  41.528  13.979
27108W        W90832  44.988   1.920   2.779
27109W        W90833  27.541  27.112   1.375
27110W        W90834  15.751  38.942  11.002
27111W        W90835   9.220   8.777  14.472
27112W        W90836  30.094   5.420  10.979
27113W        W90837  32.556  15.215   5.145
27114W        W90838  22.712   7.266   3.165
27115W        W90839  16.224  17.181   2.775
27116W        W90840   0.476   4.433  11.096
27117W        W90841  13.318  13.785   0.368
27118W        W90842  25.541  23.207   1.850
27119W        W90843  26.607   6.233   1.243
27120W        W90844  34.943  18.295   9.924
27121W        W90845  38.069  36.982  12.521
27122W        W90846  41.977  24.099  11.512
27123W        W90847  11.746   0.343   2.308
27124W        W90848  15.098  33.999   1.780
27125W        W90849   6.218  20.259  12.018
27126W        W90850  21.206  16.163   0.839
27127W        W90851  18.169  20.607   3.227
27128W        W90852   7.882   4.789  14.881
27129W        W90853   7.333  28.007   4.826
27130W        W90854  35.051  31.516  12.972
27131W        W90855  28.610  38.856  11.475
27132W        W90856  32.898  36.959   1.928
27133W        W90857  41.872  38.887  10.454
27134W        W90858  31.614   8.386   2.723
27135W        W90859   9.199  30.002   4.735
27136W        W90860   0.249  33.123   4.684
27137W        W90861   4.744  26.534  12.933
27138W        W90862  19.140  38.566   0.388
27139W        W90863   2.930  40.922  13.799
27140W        W90864  28.974  23.036   3.300
27141W        W90865  24.582   0.340  10.889
27142W        W90866  42.965  22.065   9.966
27143W        W90867   5.318  32.524   1.326
27144W        W90868   5.251   7.247   4.273
27145W        W90869  32.429  10.710  11.027
27146W        W90870  28.522   9.294   2.811
27147W        W90871  11.764   8.391  13.364
27148W        W90872  41.325  43.860   4.624
27149W        W90873  17.073   4.740   2.699
27150W        W90874   9.272   4.758   1.252
27151W        W90875  14.784  10.841  13.543
27152W        W90876  29.037  41.332   4.807
27153W        W90877  16.159   7.800  13.362
27154W        W90878   3.311   3.814  11.477
27155W        W90879   4.847  18.243  14.383
27156W        W90880  21.132  41.425  11.435
27157W        W90881  20.073  36.576   2.849
27158W        W90882  11.640   3.753   4.745
27159W        W90883  19.724  20.736   1.758
27160W        W90884  39.522  40.015  11.528
27161W        W90885   6.424  23.207   2.228
27162W        W90886  41.489  18.745   0.397
27163W        W90887  39.062  32.590   2.365
27164W        W90888  29.496  23.002   1.863
27165W        W90889  31.026  37.335  12.986
27166W        W90890  24.016  36.544  14.846
27167W        W90891   9.821  29.023  13.996
27168W        W90892   4.806  21.557   2.286
27169W        W90893  43.409   2.733  11.529
27170W        W90894   8.720  22.100   0.858
27171W        W90895  16.745  36.940  12.054
27172W        W90896  15.811  27.948   1.383
27173W        W90897  33.425   2.939  11.479
27174W        W90898  19.198  10.730  13.387
27175W        W90899  12.280   4.326   0.965
27176W        W90900  42.497   0.784   1.698
27177W        W90901  32.915  20.038  13.484
27178W        W90902  26.074  34.459   1.437
27179W        W90903  18.687   4.853   0.767
27180W        W90904   7.741  17.227  13.817
27181W        W90905  43.943  37.046   1.862
27182W        W90906  36.034  25.475  10.550
27183W        W90907  29.540  12.614  14.777
27184W        W90908  27.528  28.579  13.820
27185W        W90909  43.897  42.854   1.245
27186W        W90910  27.565  23.613  13.928
27187W        W90911  16.190  40.487   4.815
27188W        W90912  28.132   1.828  12.409
27189W        W90913  34.538  18.631  14.348
27190W        W90914  42.863   8.777   3.211
27191W        W90915  26.029  13.650  10.554
27192W        W90916  26.683  20.576  11.946
27193W        W90917   2.417  18.743   2.405
27194W        W90918   6.311  15.606   0.292
27195W        W90919   8.261  29.548   0.838
27196W        W90920  41.358   5.865  12.501
27197W        W90921   9.705  20.575   1.868
27198W        W90922  32.912  12.618   2.396
27199W        W90923   1.974  40.839   1.788
27200W        W90924   0.391  25.653  13.395
27201W        W90925  11.768  36.546   5.102
27202W        W90926   4.731   3.748   0.466
27203W        W90927  26.956  25.182  11.372
27204W        W90928   9.223  22.632  14.285
27205W        W90929  37.460  28.643   3.871
27206W        W90930  14.121  16.804  13.896
27207W        W90931  16.251   1.443   2.689
27208W        W90932   6.350  12.697  11.467
27209W        W90933   2.387   3.430   5.118
27210W        W90934  38.064  18.781  12.987
27211W        W90935  28.521  40.410  10.127
27212W        W90936  36.553   9.716   0.457
27213W        W90937  32.581  11.343  10.433
27214W        W90938  43.301   9.217   2.663
27215W        W90939  18.073  23.098   2.864
27216W        W90940  42.480  12.340  12.953
27217W        W90941  43.872   0.285   4.135
27218W        W90942  31.617  24.609  12.490
27219W        W90943  14.252  20.626   3.751
27220W        W90944  31.127  12.830   0.876
27221W        W90945  27.036   6.851  10.495
27222W        W90946  33.488  38.472   4.133
27223W        W90947  26.968   2.373   2.384
27224W        W90948   5.246  21.079  12.507
27225W        W90949   7.858  32.933   1.338
27226W        W90950  32.095  26.198   3.229
27227W        W90951   6.851  30.043  12.442
27228W        W90952  30.634  20.573  14.297
27229W        W90953  27.624  13.223  13.388
27230W        W90954  18.257  29.046   2.346
27231W        W90955  30.462  31.930   3.686
27232W        W90956  38.426   0.911   1.318
27233W        W90957  33.018  11.667  12.025
27234W        W90958  17.782  18.194   4.217
27235W        W90959  13.247   2.314  14.792
27236W        W90960  24.103  10.717   3.356
27237W        W90961   9.763   6.302  11.058
27238W        W90962  15.814  34.037  14.028
27239W        W90963  18.059  11.143   2.391
27240W        W90964  24.990  30.108   0.938
27241W        W90965   2.413  13.632  11.488
27242W        W90966  24.643  36.537  11.579
27243W        W90967  30.512  39.837   4.760
27244W        W90968  40.386  11.866  12.417
27245W        W90969  37.459  42.821   2.783
27246W        W90970  42.391  39.372   0.482
27247W        W90971  21.717  32.486   0.861
27248W        W90972  23.715  36.859  14.827
27249W        W90973  23.077   4.337  12.365
27250W        W90974   5.879  12.138   0.329
27251W        W90975  31.403  41.525  12.979
27252W        W90976  29.091  31.475   0.263
27253W        W90977  12.797  30.157   4.697
27254W        W90978   4.942  12.836  13.328
27255W        W90979  36.906  37.983  14.860
27256W        W90980  34.547   4.879  12.919
27257W        W90981  38.848   0.469   3.330
27258W        W90982  14.806  21.756  13.801
27259W        W90983   2.889  25.068   1.448
27260W        W90984  39.368   6.915   1.402
27261W        W90985  20.601  33.483   2.224
27262W        W90986  21.185  11.327   2.328
27263W        W90987  20.694   0.878   0.382
27264W        W90988   8.205  40.952  13.437
27265W        W90989   5.774  26.122   2.683
27266W        W90990  26.613  16.783   1.234
27267W        W90991   9.375   1.752   2.362
27268W        W90992  31.403  22.007   3.647
27269W        W90993   1.939   5.790   3.826
27270W        W90994  12.697  43.019  14.834
27271W        W90995   4.354  19.089  12.929
27272W        W90996  17.174   7.827   5.258
27273W        W90997  40.444  15.588  14.984
27274W        W90998  36.406  15.211  13.003
27275W        W90999  36.583  13.258   2.845
27276W        W91000  23.728  26.648  11.464
27277W        W91001   9.240  39.544  10.456
27278W        W91002   8.279  40.826   3.235
27279W        W91003  33.077  35.068   3.737
27280W        W91004   4.861   4.219  11.448
27281W        W91005  40.903  12.797  13.806
27282W        W91006  40.920  41.021   0.393
27283W        W91007  39.558  36.403  10.422
27284W        W91008  12.132  26.496   1.836
27285W        W91009  42.016   5.388   0.426
27286W        W91010  31.982  16.786  13.997
27287W        W91011  30.962  14.661   1.933
27288W        W91012  33.917  38.867  12.461
27289W        W91013   1.760  36.065  13.345
27290W        W91014  10.708  33.549  11.055
27291W        W91015  16.184  26.662  13.010
27292W        W91016   5.320   5.419  13.520
27293W        W91017  41.322  28.576  13.509
27294W        W91018  26.983  16.253  14.377
27295W        W91019  13.785   3.460   0.835
27296W        W91020  39.363  17.699   0.285
27297W        W91021  43.304   7.783   3.762
27298W        W91022   5.429  32.538  11.392
27299W        W91023  41.376  38.389  10.100
27300W        W91024  16.790  26.545  14.942
27301W        W91025  22.143  39.984   1.740
27302W        W91026  23.149  12.853   1.757
27303W        W91027  29.919   2.392   1.451
27304W        W91028  11.865  17.260  10.529
27305W        W91029   1.289  18.220  11.926
27306W        W91030  10.277  26.547  10.619
27307W        W91031   9.787  22.656  13.957
27308W        W91032  25.570  28.149   4.290
27309W        W91033   0.295  32.495   1.903
27310W        W91034  15.102  38.368   0.854
27311W        W91035  21.753  26.016   2.799
27312W        W91036  33.980  30.432  10.632
27313W        W91037  22.142  20.096  13.009
27314W        W91038  20.115  21.064   4.277
27315W        W91039   1.449   0.406   1.765
27316W        W91040  31.550   4.290   2.322
27317W        W91041  36.083  37.046  11.559
27318W        W91042  39.495  40.827   3.835
27319W        W91043  14.241  41.459  10.942
27320W        W91044  34.443  35.552  14.503
27321W        W91045   5.409  13.172  14.443
27322W        W91046  39.879  43.342   1.915
27323W        W91047   6.862   5.238  11.594
27324W        W91048  31.059  28.631   1.227
27325W        W91049  16.749   2.824   1.730
27326W        W91050  29.668  27.619  10.569
27327W        W91051  18.634   2.369   2.280
27328W        W91052   4.866  17.127  11.484
27329W        W91053  11.256  15.698   3.220
27330W        W91054   7.368  16.160   4.830
27331W        W91055  32.619  24.982  11.055
27332W        W91056  18.121   7.354  13.314
27333W        W91057  24.202   1.343   1.717
27334W        W91058  11.157   6.731   2.785
27335W        W91059  26.620  27.051  10.594
27336W        W91060  30.031   4.247  10.522
27337W        W91061  33.066  14.129  13.537
27338W        W91062  10.335  40.810   1.793
27339W        W91063  26.464   9.311  11.946
27340W        W91064  29.158  16.254   4.274
27341W        W91065  34.388  27.663  14.836
27342W        W91066  32.981   7.798  13.020
27343W        W91067  44.470  32.975   1.906
27344W        W91068   3.811  33.086  13.543
27345W        W91069   6.845  38.354   4.665
27346W        W91070   5.342   0.907  11.509
27347W        W91071  21.539  30.063   3.211
27348W        W91072  12.318  38.434  11.100
27349W        W91073  29.604  10.310  12.004
27350W        W91074  28.042   4.749   2.194
27351W        W91075  32.489  37.994   1.319
27352W        W91076  20.210  22.511   0.480
27353W        W91077   1.733   5.419   1.272
27354W        W91078  10.681  42.801  14.395
27355W        W91079   5.905  10.645   5.286
27356W        W91080  44.403  11.741  10.496
27357W        W91081  31.528  31.494   0.435
27358W        W91082  17.137  18.652   5.289
27359W        W91083  17.307  41.474  10.079
27360W        W91084  33.626   0.357   2.827
27361W        W91085  25.494  11.769  11.541
27362W        W91086  24.512  22.652   4.124
27363W        W91087   1.483   5.827   0.360
27364W        W91088  23.501  17.761  14.994
27365W        W91089  36.903  25.986  14.428
27366W        W91090  44.977  13.705   4.167
27367W        W91091  31.983  32.432   4.337
27368W        W91092  38.441  22.627  12.948
27369W        W91093  23.222   6.772   3.164
27370W        W91094  12.766   4.342   3.689
27371W        W91095   0.987   2.277  11.515
27372W        W91096   2.383  20.634  14.784
27373W        W91097  18.107  27.628   1.787
27374W        W91098   6.784  25.963  12.395
27375W        W91099  20.060  19.584  13.829
27376W        W91100  11.242  43.345  10.414
27377W        W91101  34.587   7.339  11.941
27378W        W91102  41.810  11.813   4.835
27379W        W91103  34.108   8.241   2.892
27380W        W91104  31.043  13.234   1.358
27381W        W91105  36.362   7.822  10.904
27382W        W91106   8.205  41.936  12.400
27383W        W91107  20.760  10.658   3.867
27384W        W91108  42.821  44.858   0.876
27385W        W91109   3.943  24.054   2.387
27386W        W91110   4.715  28.151  13.062
27387W        W91111  41.956   5.266   3.734
27388W        W91112  43.889  13.802  13.963
27389W        W91113  43.342  27.974  12.489
27390W        W91114  42.871  36.908   1.903
27391W        W91115   3.357  24.501  13.386
27392W        W91116  12.787  13.126  10.624
27393W        W91117  43.423  38.861   2.826
27394W        W91118  17.163  33.120  12.508
27395W        W91119  26.153   4.812  11.089
27396W        W91120  27.128  27.184  10.438
27397W        W91121  22.662  40.361  11.860
27398W        W91122   5.397  27.182   2.709
27399W        W91123   2.850  33.107  14.371
27400W        W91124  14.747  30.542  14.908
27401W        W91125  31.603  29.115   3.858
27402W        W91126   2.278  33.919  14.884
27403W        W91127   4.215  10.289  11.917
27404W        W91128  39.486  30.631   4.790
27405W        W91129  18.162   7.298  11.918
27406W        W91130  40.419  25.630  14.403
27407W        W91131  39.433  33.398   4.238
27408W        W91132  44.905  41.813   3.378
27409W        W91133  17.097  39.949  12.980
27410W        W91134  44.878  34.447  12.882
27411W        W91135  13.763  25.199   3.258
27412W        W91136   7.227  34.383   0.924
27413W        W91137  44.904  23.088  14.813
27414W        W91138  32.402  24.227  12.363
27415W        W91139  22.644   7.802  14.508
27416W        W91140   2.432  35.085   2.214
27417W        W91141  35.469  24.060  11.929
27418W        W91142  37.550   3.720   4.603
27419W        W91143  12.827  33.069  10.970
27420W        W91144  12.632  31.001  12.374
27421W        W91145  40.874  33.442   1.878
27422W        W91146  19.069   1.295  12.852
27423W        W91147  18.654  17.739   4.316
27424W        W91148  28.060  21.042   1.843
27425W        W91149  40.437  15.234   4.784
27426W        W91150   6.885  16.181  11.419
27427W        W91151  23.080  40.360   1.705
27428W        W91152  15.217  20.652  13.801
27429W        W91153   1.483  21.754   3.343
27430W        W91154   1.822  44.986  11.563
27431W        W91155  19.728  17.618   3.292
27432W        W91156  43.005  36.041  13.003
27433W        W91157  10.290  37.453  12.540
27434W        W91158  28.034  11.150  13.452
27435W        W91159   2.768  17.266   0.734
27436W        W91160   5.750   5.377  11.936
27437W        W91161  39.321   0.449  11.500
27438W        W91162  25.694  28.986  13.875
27439W        W91163  22.679  40.476   3.373
27440W        W91164  41.332  24.497   5.099
27441W        W91165  29.091  33.520  13.531
27442W        W91166  24.149   1.290   0.864
27443W        W91167  25.569  44.865  14.289
27444W        W91168  31.112  38.844   0.451
27445W        W91169  23.700  42.791  10.427
27446W        W91170  30.608  16.292   3.639
27447W        W91171   3.399  11.865   3.164
27448W        W91172  35.983  25.043   3.188
27449W        W91173  39.969  33.594  12.061
27450W        W91174  41.921  23.684  11.998
27451W        W91175  39.952   7.240   1.254
27452W        W91176  22.209   7.802  11.021
27453W        W91177  22.523  36.911  10.488
27454W        W91178   8.757  40.015  10.600
27455W        W91179  33.566  39.478  10.046
27456W        W91180  28.626  30.576  13.532
27457W        W91181  14.316  18.218  11.038
27458W        W91182  34.886  33.888  12.501
27459W        W91183  42.459  17.262  13.435
27460W        W91184  37.387  38.965  13.984
27461W        W91185   6.289  13.683   0.438
27462W        W91186  14.146  26.162  10.533
27463W        W91187   1.787  36.917   2.323
27464W        W91188  25.483  37.874   3.218
27465W        W91189  31.643  41.037   2.296
27466W        W91190  25.629  22.731   4.710
27467W        W91191   3.732  24.627   4.799
27468W        W91192  20.040   1.285  12.480
27469W        W91193  43.284  34.486   3.370
27470W        W91194  21.225  27.146  14.969
27471W        W91195  35.047  30.987   2.824
27472W        W91196  10.299  31.949  10.638
27473W        W91197  40.444   6.808   0.966
27474W        W91198  24.169   8.839  12.979
27475W        W91199  21.236   1.455  11.117
27476W        W91200   5.927  39.057  12.434
27477W        W91201  37.371  29.115   2.780
27478W        W91202  42.464  24.098  12.068
27479W        W91203  12.732  31.640  14.423
27480W        W91204  33.117  44.400   2.709
27481W        W91205  30.542  36.021   2.228
27482W        W91206  25.152  43.895   1.861
27483W        W91207   2.423   7.693  12.905
27484W        W91208   3.228  39.390  10.607
27485W        W91209  43.830  23.113  13.395
27486W        W91210  27.945  20.051   0.796
27487W        W91211   9.299   9.819  12.860
27488W        W91212  13.168  23.515   5.272
27489W        W91213   8.182  38.012  12.858
27490W        W91214  29.622  24.107   3.207
27491W        W91215  34.501  32.589   2.369
27492W        W91216  32.409   7.240  14.781
27493W        W91217  40.922  26.700   3.374
27494W        W91218   5.232  31.001  13.434
27495W        W91219  19.779  33.969  10.454
27496W        W91220  22.066  41.848   0.954
27497W        W91221  12.798   6.703  12.974
27498W        W91222  32.953  44.449   3.660
27499W        W91223  36.478  42.985   4.774
27500W        W91224   9.291  30.425   5.180
27501W        W91225  35.925  29.561   1.258
27502W        W91226  24.074  19.203  13.534
27503W        W91227  23.071  20.103   3.278
27504W        W91228  13.814  37.962   0.476
27505W        W91229  36.447  14.201   4.812
27506W        W91230  10.822  25.078  12.088
27507W        W91231  39.942   3.779   1.362
27508W        W91232   9.322  15.187  14.806
27509W        W91233   5.433  32.621   0.395
27510W        W91234  25.093  42.903   0.340
27511W        W91235  13.632   8.197  13.049
27512W        W91236  41.913  15.674  14.414
27513W        W91237  18.592  40.338  14.005
27514W        W91238   5.363  38.418   3.249
27515W        W91239  30.110  30.132  13.912
27516W        W91240  24.536  18.598  13.050
27517W        W91241  30.071  10.797  14.785
27518W        W91242  30.076   7.409  13.477
27519W        W91243  21.250  10.312   0.369
27520W        W91244  33.426  23.049  12.896
27521W        W91245  34.435  20.227   2.670
27522W        W91246  23.556  22.999  11.563
27523W        W91247  14.176  28.177  12.344
27524W        W91248  16.748  30.961  11.432
27525W        W91249  11.332  34.577  11.533
27526W        W91250   7.417  40.494  11.037
27527W        W91251   3.355  18.221   1.370
27528W        W91252  23.606  19.583  14.963
27529W        W91253  34.402  32.139   5.286
27530W        W91254  22.533  15.675  11.030
27531W        W91255  25.195  26.052  12.388
27532W        W91256   5.244  23.664   2.401
27533W        W91257  17.136  31.444  10.592
27534W        W91258  44.840  32.617   0.852
27535W        W91259   6.315  32.108   3.794
27536W        W91260   0.404  41.436  14.808
27537W        W91261   7.841   4.281   4.691
27538W        W91262   2.353   6.197   0.392
27539W        W91263  23.140  38.565  10.929
27540W        W91264  10.691  11.322  12.867
27541W        W91265  11.224  39.913   2.706
27542W        W91266  20.155   4.869  10.046
27543W        W91267  37.902  15.111   0.297
27544W        W91268  35.585  17.656   2.848
27545W        W91269  10.656  19.220  12.542
27546W        W91270  14.238  32.100   1.411
27547W        W91271   6.193  41.416  10.078
27548W        W91272  34.976  32.910  14.984
27549W        W91273  30.151   2.926  12.022
27550W        W91274  40.902  15.691   3.284
27551W        W91275   5.262  34.048   2.878
27552W        W91276  20.632  23.549   3.276
27553W        W91277   5.926  43.814  14.012
27554W        W91278   6.772   9.384   5.713
27555W        W91279   4.816  27.480   4.286
27556W        W91280   9.820  27.069   2.274
27557W        W91281  27.999  40.990   4.787
27558W        W91282  42.928   7.865   4.344
27559W        W91283  44.794  40.041  10.424
27560W        W91284  29.005  37.392   0.455
27561W        W91285  22.569  37.080   4.708
27562W        W91286  39.492  27.611  13.980
27563W        W91287   7.823   2.335  12.936
27564W        W91288  36.004  25.669   3.802
27565W        W91289  27.687  20.090  11.557
27566W        W91290  14.234  42.802  13.023
27567W        W91291  19.091  25.012   2.327
27568W        W91292  13.795   4.358   1.442
27569W        W91293  14.808   6.716  10.594
27570W        W91294  41.423  35.394  11.477
27571W        W91295  12.131   4.935   1.799
27572W        W91296  19.209  18.219   0.792
27573W        W91297   7.848  16.310   3.348
27574W        W91298   3.754  25.533  12.561
27575W        W91299   3.421   8.832   3.355
27576W        W91300  32.577  13.194  12.369
27577W        W91301   6.891   1.768  12.844
27578W        W91302  28.096  13.617  11.483
27579W        W91303  31.089  36.535   1.855
27580W        W91304  31.468  23.122  14.016
27581W        W91305  37.919  20.258   1.367
27582W        W91306  35.567  21.130   3.336
27583W        W91307  38.420  23.221  13.419
27584W        W91308  23.197  40.373  13.444
27585W        W91309  27.679  17.200   3.669
27586W        W91310  19.759  14.254  11.604
27587W        W91311  36.005  22.231  13.386
27588W        W91312  15.179  28.606  12.435
27589W        W91313   9.732  20.653  13.366
27590W        W91314  12.269  34.472   0.823
27591W        W91315  30.101   2.285   3.667
27592W        W91316   2.760  39.851   0.282
27593W        W91317   6.220  42.010  12.826
27594W        W91318  13.252   2.879  14.355
27595W        W91319  15.742  24.161   0.908
27596W        W91320  37.965   8.736  11.979
27597W        W91321  13.640   0.411  14.330
27598W        W91322  27.053  35.986   0.739
27599W        W91323   6.919  33.613   4.784
27600W        W91324  12.195  30.112   2.195
27601W        W91325  36.032  44.453   1.313
27602W        W91326  22.532  12.302   2.243
27603W        W91327   6.873  22.207  14.444
27604W        W91328  24.181  40.918   4.327
27605W        W91329  27.089  12.343  14.507
27606W        W91330  18.231  26.628   3.352
27607W        W91331  29.025  40.860   4.160
27608W        W91332   0.350  36.957  14.857
27609W        W91333  24.091  32.892  11.084
27610W        W91334  41.299  10.784   3.778
27611W        W91335  20.250  19.594  12.981
27612W        W91336  33.490   6.867  11.518
27613W        W91337  33.062  18.607  11.928
27614W        W91338   5.789  30.062   4.623
27615W        W91339  22.721   2.731   1.310
27616W        W91340   2.400  41.364   5.164
27617W        W91341  33.975   8.234   0.292
27618W        W91342  25.089  39.008   3.644
27619W        W91343  43.941  44.466  13.458
27620W        W91344  31.114  33.461  13.045
27621W        W91345  17.787  23.067  11.011
27622W        W91346  41.965  11.284   0.794
27623W        W91347   7.373  36.926   3.208
27624W        W91348  25.143  23.599  11.607
27625W        W91349  43.314  11.854  10.414
27626W        W91350  11.846  15.764  13.322
27627W        W91351  42.475  15.113  12.440
27628W        W91352  39.414   6.742  14.402
27629W        W91353  25.070  44.922   2.789
27630W        W91354  31.591   2.281  12.872
27631W        W91355   2.961   2.327  14.469
27632W        W91356  17.703  40.548  12.069
27633W        W91357  35.537  43.954   3.267
27634W        W91358   6.793  22.192  12.533
27635W        W91359  32.562  34.878  11.457
27636W        W91360   7.676  22.139   2.395
27637W        W91361  19.545  11.707  13.884
27638W        W91362  35.583   9.243  13.927
27639W        W91363   4.283  25.638   0.479
27640W        W91364  14.807  13.698  11.089
27641W        W91365   7.373  40.434   1.935
27642W        W91366  29.493  40.416  13.024
27643W        W91367   5.302   3.817  12.865
27644W        W91368   7.778  20.095   0.248
27645W        W91369  14.625  13.226   1.267
27646W        W91370  15.736  15.782   4.312
27647W        W91371  44.803  24.162  13.960
27648W        W91372  40.542  42.825   3.331
27649W        W91373  26.564  15.681   3.267
27650W        W91374  21.711  28.181   4.610
27651W        W91375   6.254  20.757  12.003
27652W        W91376  28.118   7.346   9.985
27653W        W91377  34.457  21.577  12.567
27654W        W91378  40.974  26.505   0.746
27655W        W91379   4.428  29.613  10.492
27656W        W91380  26.955  38.487  14.761
27657W        W91381  13.692  10.785  13.412
27658W        W91382  41.524   3.277   2.799
27659W        W91383  20.707  24.055  14.915
27660W        W91384  11.662  20.722   1.231
27661W        W91385   0.761  29.447   4.770
27662W        W91386   3.929  28.181   1.229
27663W        W91387  25.978  24.702   1.319
27664W        W91388  38.950   0.489  11.929
27665W        W91389  28.609   0.439  12.010
27666W        W91390   5.214   0.416   3.186
27667W        W91391  42.882  27.593   4.792
27668W        W91392  37.422  29.635  11.603
27669W        W91393   6.785  10.259   5.635
27670W        W91394  34.400   9.273   2.676
27671W        W91395  13.807  33.422  11.008
27672W        W91396  39.318   8.359  11.566
27673W        W91397  11.161   0.851   1.844
27674W        W91398  22.030  15.094  13.417
27675W        W91399  42.376  37.832  11.041
27676W        W91400  44.373  34.612  12.379
27677W        W91401   8.330  38.531  14.306
27678W        W91402  36.884  40.985   1.274
27679W        W91403  23.195  21.742   0.729
27680W        W91404  22.517  33.480   2.344
27681W        W91405  27.192   5.311  14.882
27682W        W91406   1.418  26.474   3.860
27683W        W91407  24.554  35.535  14.890
27684W        W91408  38.848   1.896   4.223
27685W        W91409   8.665  10.682   0.481
27686W        W91410  44.471  11.202   2.781
27687W        W91411   1.978   7.676   1.444
27688W        W91412  16.723  34.953   1.813
27689W        W91413  31.944  43.855  11.476
27690W        W91414   6.840  26.150  12.930
27691W        W91415  19.547  30.031   4.146
27692W        W91416  23.033  34.602   0.933
27693W        W91417  21.563  17.231   1.776
27694W        W91418  32.897  38.456   2.215
27695W        W91419   1.471  39.426   1.445
27696W        W91420  12.178   5.206   1.242
27697W        W91421  41.443   3.386  13.027
27698W        W91422  13.810  43.349   2.332
27699W        W91423   6.256  28.961  10.136
27700W        W91424  32.116   1.265  11.509
27701W        W91425   4.223  20.239   4.778
27702W        W91426   2.280  23.492  14.892
27703W        W91427  35.873  16.570   4.334
27704W        W91428  30.631  44.262  12.934
27705W        W91429  23.531  44.847  13.963
27706W        W91430  21.574   9.795  14.949
27707W        W91431  33.043  21.592   4.355
27708W        W91432   9.354  31.073   3.773
27709W        W91433  38.364  37.010  13.368
27710W        W91434  14.269   7.368   0.343
27711W        W91435  36.528  23.726  12.474
27712W        W91436  22.629  17.262  12.497
27713W        W91437  14.137  11.160   0.828
27714W        W91438  10.703  11.662  12.981
27715W        W91439  14.312  19.653   0.740
27716W        W91440  20.729   7.349  14.510
27717W        W91441   1.321   5.695   2.879
27718W        W91442  22.059  21.610   0.261
27719W        W91443  14.758  17.139   3.675
27720W        W91444  28.679  28.494   3.674
27721W        W91445   2.292  33.564  13.323
27722W        W91446  28.057  23.231  12.992
27723W        W91447  26.632  40.033  13.466
27724W        W91448  29.147  24.977   2.347
27725W        W91449  37.868  19.130   0.439
27726W        W91450   2.356  18.196   1.880
27727W        W91451  41.453  44.789  11.012
27728W        W91452   0.278  44.831   2.700
27729W        W91453   2.803  26.015  10.904
27730W        W91454   7.349  36.056  12.446
27731W        W91455  40.525  28.519   0.814
27732W        W91456   6.781  20.082   1.934
27733W        W91457   7.388  27.618  12.897
27734W        W91458  40.998   9.699   3.675
27735W        W91459  24.617  18.195  10.473
27736W        W91460  21.186  19.766  13.356
27737W        W91461  43.929  31.126  12.539
27738W        W91462   2.889   7.355   0.260
27739W        W91463  40.856  32.035  14.381
27740W        W91464  28.508  22.163  11.980
27741W        W91465  32.555  12.331   2.279
27742W        W91466  21.546  29.533  11.443
27743W        W91467  35.513  14.292  13.035
27744W        W91468  18.717  16.097   3.753
27745W        W91469  14.300  32.931  12.566
27746W        W91470   5.321   2.337   2.268
27747W        W91471  13.284  13.633   0.891
27748W        W91472  36.532  16.190   5.186
27749W        W91473  40.816  13.657  11.933
27750W        W91474   4.381  10.181   0.899
27751W        W91475  24.546  26.471   1.318
27752W        W91476  28.600  25.636  14.800
27753W        W91477  34.512  27.013   0.291
27754W        W91478   5.852   7.774   1.918
27755W        W91479  40.418  16.572  11.859
27756W        W91480  12.167   9.872   3.233
27757W        W91481  25.091  34.587   4.736
27758W        W91482   6.844  39.498  14.367
27759W        W91483  16.691   8.686   3.785
27760W        W91484  35.854  40.526  13.312
27761W        W91485   4.441   2.876   1.890
27762W        W91486  38.942   0.315  12.354
27763W        W91487  17.671  19.167  11.116
27764W        W91488   7.712  12.758  11.934
27765W        W91489  40.999   5.377   4.191
27766W        W91490  24.994  10.305  14.348
27767W        W91491  21.571  27.685   9.515
27768W        W91492  42.362  42.449  10.894
27769W        W91493  33.050  20.607   3.309
27770W        W91494  25.687  28.996   1.426
27771W        W91495  31.557  14.264  10.961
27772W        W91496  43.330   2.276   1.838
27773W        W91497  24.526  44.774   0.888
27774W        W91498  33.882  32.548  11.463
27775W        W91499  31.091   5.365  11.526
27776W        W91500  24.190  15.753  10.156
27777W        W91501   4.781   6.386  14.774
27778W        W91502  20.158  22.684   4.178
27779W        W91503  12.849  24.189   4.658
27780W        W91504  19.171  10.274   0.376
27781W        W91505  44.006  15.094  13.048
27782W        W91506  24.164  22.177  14.360
27783W        W91507   1.258  15.578   1.859
27784W        W91508  35.918  24.616   2.678
27785W        W91509  18.102   3.779  10.407
27786W        W91510  10.368   1.441   2.327
27787W        W91511  13.182  43.367  12.408
27788W        W91512  13.226  19.772   0.918
27789W        W91513  44.482  40.033  12.968
27790W        W91514   9.846  43.356   4.256
27791W        W91515   8.185  26.623  10.996
27792W        W91516  31.596  34.384   3.328
27793W        W91517  14.716   0.301   3.335
27794W        W91518  21.527  43.465  14.896
27795W        W91519  32.487  31.922   2.267
27796W        W91520   9.731  33.929  12.344
27797W        W91521  44.271  32.585   1.762
27798W        W91522   6.371  12.357   1.406
27799W        W91523  17.139  17.251  14.799
27800W        W91524  34.000   2.269  10.995
27801W        W91525   1.401  42.488   0.306
27802W        W91526  42.858   8.862  14.404
27803W        W91527  38.550   5.800  11.965
27804W        W91528  12.131   0.468  12.872
27805W        W91529  40.013  19.765  11.400
27806W        W91530  41.939   8.708   3.778
27807W        W91531   5.219  33.521   3.701
27808W        W91532  29.154   4.319  10.893
27809W        W91533  30.036  32.009  10.963
27810W        W91534   2.368   8.338   3.350
27811W        W91535   8.267   8.304  10.479
27812W        W91536  16.726   2.244   1.348
27813W        W91537   6.378  20.720  10.639
27814W        W91538  10.675  20.726  11.041
27815W        W91539  35.006  36.407   0.761
27816W        W91540  33.586   4.813   0.838
27817W        W91541  35.902  32.099  10.637
27818W        W91542   7.893  21.068   2.900
27819W        W91543  25.551  44.842   4.732
27820W        W91544  38.445  12.278  10.407
27821W        W91545  17.140   9.256   3.730
27822W        W91546  18.790  29.584   2.386
27823W        W91547  34.385  35.440  11.037
27824W        W91548  23.234   0.308  12.549
27825W        W91549   1.838  39.846  11.960
27826W        W91550  18.649  13.636   4.697
27827W        W91551   5.401  37.037  12.534
27828W        W91552   9.271  12.293  13.420
27829W        W91553   5.859  44.821   2.399
27830W        W91554  16.726   1.448   0.918
27831W        W91555  44.785  37.449  10.503
27832W        W91556   5.847  36.884  11.592
27833W        W91557  29.075  33.532   4.720
27834W        W91558  34.919  10.642  13.461
27835W        W91559  28.555  28.008   1.324
27836W        W91560  10.776  11.763  13.332
27837W        W91561  34.057  33.112   2.670
27838W        W91562   1.736   6.791   4.331
27839W        W91563  35.382  36.404   2.741
27840W        W91564  34.932  22.049  14.919
27841W        W91565  10.736  31.079   1.430
27842W        W91566  28.660  17.173   4.738
27843W        W91567  34.876  13.349   2.820
27844W        W91568  44.265  14.279  11.067
27845W        W91569  38.391  10.202  10.579
27846W        W91570   9.370  23.620  10.995
27847W        W91571  19.615  43.453  12.426
27848W        W91572  15.234  29.929  13.467
27849W        W91573  29.956  22.147  12.965
27850W        W91574   5.359  13.700   0.863
27851W        W91575  38.864  25.981   1.378
27852W        W91576  37.927  19.621   1.928
27853W        W91577   9.196  25.635   1.304
27854W        W91578  33.089  21.114   2.256
27855W        W91579   3.415  38.899   3.679
27856W        W91580  39.472   7.174   1.862
27857W        W91581  14.166  31.529  12.387
27858W        W91582  39.924  34.013   0.313
27859W        W91583  30.424  24.208   1.378
27860W        W91584  24.599   7.739   1.421
27861W        W91585  23.681  19.587  14.358
27862W        W91586  14.144  31.964  11.437
27863W        W91587  16.131   0.909  12.985
27864W        W91588  42.949   3.870  14.278
27865W        W91589   3.319   4.882   1.271
27866W        W91590  42.464  12.821  10.889
27867W        W91591  38.009  36.863  13.797
27868W        W91592   3.359  12.762   4.769
27869W        W91593  44.316  39.028  11.083
27870W        W91594  39.316  34.369  11.905
27871W        W91595   7.893   0.876   3.200
27872W        W91596  28.001  21.566  14.370
27873W        W91597   1.458  11.698  13.039
27874W        W91598  16.178   7.843   4.828
27875W        W91599  18.625  18.596   4.340
27876W        W91600  31.623  10.708  11.059
27877W        W91601  22.699  23.708   2.240
27878W        W91602  32.608  14.639   3.835
27879W        W91603  28.162  44.944   4.220
27880W        W91604  10.709  33.084   0.813
27881W        W91605  13.815  14.806  11.436
27882W        W91606   2.747  15.219   0.319
27883W        W91607  41.377   6.919   2.273
27884W        W91608  25.981  43.797   1.846
27885W        W91609   4.311  31.598   2.666
27886W        W91610  39.536  21.066   2.785
27887W        W91611  24.208  26.650  10.571
27888W        W91612  18.050   1.411   0.832
27889W        W91613  18.735   7.686   4.179
27890W        W91614  25.541  39.922  10.595
27891W        W91615  26.467  13.192  11.030
27892W        W91616  40.921  13.272   3.182
27893W        W91617   7.241  25.187   1.290
27894W        W91618  22.063  34.034   1.854
27895W        W91619  21.724  17.288   4.286
27896W        W91620  25.683  40.384   5.210
27897W        W91621   8.861   4.450  14.439
27898W        W91622  26.999  43.816  10.638
27899W        W91623   6.407  34.496  13.352
27900W        W91624  36.393  44.355  10.969
27901W        W91625  44.815   2.445  12.474
27902W        W91626  17.185   9.160   0.374
27903W        W91627  14.703  27.099   2.353
27904W        W91628  13.719  29.105   1.769
27905W        W91629   6.844  44.370  11.900
27906W        W91630  32.951   4.920   2.715
27907W        W91631  37.406   6.348   5.243
27908W        W91632  43.382   8.661  10.575
27909W        W91633  16.685  22.110  11.486
27910W        W91634  43.796  38.057  14.284
27911W        W91635   0.399  11.625   1.281
27912W        W91636  31.461  34.529   2.262
27913W        W91637  43.865  29.935   0.739
27914W        W91638  44.845  32.432  14.845
27915W        W91639  35.426   1.342   1.247
27916W        W91640  13.118  10.253  10.461
27917W        W91641  44.946  32.608  13.497
27918W        W91642   6.308  31.512  12.404
27919W        W91643  29.428  30.613  11.123
27920W        W91644   2.963  25.027  14.029
27921W        W91645   9.375  12.339   2.688
27922W        W91646   1.349  11.347   0.252
27923W        W91647  43.823  13.325   1.716
27924W        W91648  42.013  30.595  11.594
27925W        W91649  32.106  13.262  14.976
27926W        W91650  11.725  19.656  13.515
27927W        W91651   7.207  24.613   1.306
27928W        W91652   8.380   5.425  13.533
27929W        W91653   0.898  18.716  12.369
27930W        W91654  17.587   9.185  14.806
27931W        W91655   4.872  44.483  12.084
27932W        W91656  43.361   4.777   0.909
27933W        W91657  31.562  40.526  14.800
27934W        W91658   1.853  12.707  11.609
27935W        W91659   4.845  23.188  14.998
27936W        W91660  31.988  19.056  14.823
27937W        W91661  36.974   5.796   2.849
27938W        W91662  18.559  22.723   5.297
27939W        W91663  28.049  42.817   3.699
27940W        W91664  32.424  20.103  14.349
27941W        W91665  29.546  14.323  11.559
27942W        W91666  11.670  30.946   0.899
27943W        W91667  29.550  37.955   0.799
27944W        W91668   2.777  35.896   0.370
27945W        W91669  10.310  14.216   4.231
27946W        W91670  20.575  22.068   3.307
27947W        W91671  15.642  40.053  14.304
27948W        W91672  23.043  22.045   3.212
27949W        W91673  10.172   2.816  11.023
27950W        W91674  16.190   4.449   4.222
27951W        W91675   3.721   2.315   3.246
27952W        W91676  42.822  32.572  12.842
27953W        W91677  27.062  37.524  12.426
27954W        W91678  33.977  23.661   3.312
27955W        W91679  30.126  39.016  10.441
27956W        W91680  23.662  36.558   3.194
27957W        W91681  40.484  40.527  14.999
27958W        W91682  18.197   4.711   4.725
27959W        W91683  18.114  20.618  11.425
27960W        W91684  36.961  38.905   1.862
27961W        W91685  42.502  36.439   2.901
27962W        W91686  44.797  43.292  14.512
27963W        W91687   8.240   7.895   0.337
27964W        W91688  42.005   4.242   0.782
27965W        W91689   7.896  15.267  12.849
27966W        W91690  27.164  13.648   0.448
27967W        W91691  29.594  40.858  11.995
27968W        W91692   9.265  44.991   3.832
27969W        W91693  29.987  22.061  10.890
27970W        W91694  44.481   8.336  13.483
27971W        W91695  38.962   2.859  13.060
27972W        W91696  31.570  27.475  10.995
27973W        W91697  38.945  41.838  14.513
27974W        W91698  30.023   5.199  12.832
27975W        W91699  34.920   3.714  14.820
27976W        W91700  42.863   7.820   3.285
27977W        W91701  41.043  15.729   2.727
27978W        W91702  39.529  11.626   1.296
27979W        W91703   2.809  31.578  14.304
27980W        W91704  15.216  13.194   3.720
27981W        W91705  29.156  28.647  10.534
27982W        W91706  21.029  40.913   4.297
27983W        W91707  34.375  35.943   3.747
27984W        W91708   5.783  22.146   0.355
27985W        W91709  11.360  43.925  11.904
27986W        W91710  41.812   2.415   3.702
27987W        W91711   2.351  14.198   4.782
27988W        W91712  33.480  28.486  14.281
27989W        W91713   3.314  40.479  12.418
27990W        W91714  32.495  31.412  14.398
27991W        W91715  24.615  44.979   3.338
27992W        W91716  44.466  35.485  11.057
27993W        W91717  37.859  37.895   2.307
27994W        W91718  10.651  30.929   0.733
27995W        W91719  11.786   7.892   1.902
27996W        W91720  37.954  28.551   4.777
27997W        W91721  13.114  11.365  14.937
27998W        W91722  18.230  12.138   1.393
27999W        W91723  19.654  21.608  10.424
28000W        W91724  30.989  11.680  12.471
28001W        W91725  27.570   8.203  13.403
28002W        W91726  27.461  18.625   3.646
28003W        W91727  43.345   6.922   3.201
28004W        W91728  33.031  19.602  11.005
28005W        W91729  43.326  40.438  14.296
28006W        W91730  23.498   9.693  10.450
28007W        W91731  17.297  10.660   2.857
28008W        W91732   7.795  26.509  12.375
28009W        W91733  43.837  37.977   3.357
28010W        W91734  42.992   8.771   3.679
28011W        W91735  21.127  14.218   4.824
28012W        W91736  36.456  44.479   2.183
28013W        W91737  29.454  40.955  12.985
28014W        W91738  21.177  14.606   4.245
28015W        W91739  36.098   1.342  13.823
28016W        W91740  32.530  41.888   3.368
28017W        W91741  19.665   0.856   4.197
28018W        W91742  36.877  24.704  14.799
28019W        W91743  29.928  21.625  14.908
28020W        W91744  29.602  27.078   0.478
28021W        W91745  34.371  10.762   2.871
28022W        W91746   3.292   7.768   4.281
28023W        W91747  44.865  40.366   3.336
28024W        W91748  33.439   7.330   0.456
28025W        W91749  26.642  25.496   3.328
28026W        W91750  28.996  17.771  12.496
28027W        W91751  23.064  28.681   4.220
28028W        W91752  17.207   1.777   1.382
28029W        W91753  23.590  44.384   1.718
28030W        W91754   2.452  11.143   0.362
28031W        W91755  13.662  39.035  10.141
28032W        W91756  30.559   9.666   4.828
28033W        W91757  23.224  27.495  14.927
28034W        W91758  35.981   2.773   2.800
28035W        W91759  10.191   4.846  13.909
28036W        W91760   1.320  13.627   2.686
28037W        W91761   6.750   9.181  10.993
28038W        W91762   3.894  34.368  14.294
28039W        W91763  17.138   4.781   4.831
28040W        W91764  11.662  27.626   0.785
28041W        W91765  13.146  38.427   3.670
28042W        W91766  24.479  16.683  11.037
28043W        W91767  36.546  24.632   1.417
28044W        W91768   7.386  35.933  13.479
28045W        W91769  22.038   9.270   0.853
28046W        W91770   5.688  29.644  13.476
28047W        W91771  19.648   0.960  11.058
28048W        W91772   5.752  31.461   0.267
28049W        W91773  32.045  14.332  10.935
28050W        W91774   7.403  24.143   2.239
28051W        W91775   3.915  41.512   4.838
28052W        W91776  44.936  17.683   3.149
28053W        W91777  37.057  22.625  14.327
28054W        W91778  35.421  43.512   1.373
28055W        W91779  15.126  37.080  13.931
28056W        W91780   4.252  42.028  13.409
28057W        W91781  12.346  37.457  14.808
28058W        W91782  16.668  27.188   0.826
28059W        W91783  24.201  12.724   2.777
28060W        W91784  35.055  43.969   1.347
28061W        W91785  19.737   8.733  11.922
28062W        W91786  18.131  37.447  13.867
28063W        W91787  43.778  37.084  13.541
28064W        W91788  21.758   4.427  10.531
28065W        W91789  22.664  38.918  11.377
28066W        W91790  40.345  28.607   2.748
28067W        W91791   5.815  19.146  14.330
28068W        W91792   8.859   9.334  10.954
28069W        W91793  20.754  35.525   0.902
28070W        W91794   2.887  13.223   1.868
28071W        W91795  38.831  14.189  12.001
28072W        W91796  18.600  27.631   4.678
28073W        W91797  22.523  23.024  11.375
28074W        W91798  43.326  35.458   0.950
28075W        W91799  35.035  28.484   2.398
28076W        W91800  18.073  16.131  14.910
28077W        W91801   2.439   7.746  14.454
28078W        W91802  16.304  44.791   1.211
28079W        W91803  33.038  30.623   2.805
28080W        W91804   2.369   7.328   3.333
28081W        W91805  33.526  13.723   1.760
28082W        W91806  39.423  35.972   1.218
28083W        W91807  37.071  41.957  13.439
28084W        W91808  41.516  43.385   0.880
28085W        W91809   4.268  17.106  14.885
28086W        W91810  13.777  25.080   4.764
28087W        W91811  30.460  33.963   4.317
28088W        W91812   8.191  14.117   0.894
28089W        W91813   8.870  22.543   4.804
28090W        W91814  27.104  29.007   4.247
28091W        W91815   7.811  42.805  13.791
28092W        W91816  16.584   1.337  12.544
28093W        W91817  37.933  27.633  14.014
28094W        W91818  15.805  44.928   1.250
28095W        W91819  36.917   8.879  10.500
28096W        W91820  20.535  21.519  11.085
28097W        W91821  44.837  23.636  11.964
28098W        W91822   7.371   5.747   0.763
28099W        W91823  12.757   7.263   3.641
28100W        W91824  43.802  35.931   2.405
28101W        W91825  14.299  12.127   0.296
28102W        W91826  29.581   7.174  14.982
28103W        W91827  22.703  17.262   2.674
28104W        W91828  21.166  33.050   1.318
28105W        W91829  20.088  39.482  14.505
28106W        W91830  41.438  21.689  14.980
28107W        W91831  28.530  37.368  14.460
28108W        W91832  44.367  38.347   5.236
28109W        W91833  18.749   1.854   2.247
28110W        W91834  29.491  30.632  10.103
28111W        W91835  25.015   3.268   4.669
28112W        W91836  22.186  36.091   4.633
28113W        W91837  11.177   0.911  14.302
28114W        W91838  27.112   9.171   2.900
28115W        W91839  43.833  44.340   4.822
28116W        W91840  21.570  29.112   2.287
28117W        W91841  35.930   4.730  13.802
28118W        W91842  12.789  21.045  13.415
28119W        W91843  43.977  40.361   1.730
28120W        W91844  23.569   2.430  12.465
28121W        W91845  32.019  31.572   1.781
28122W        W91846   6.786  43.873  13.356
28123W        W91847  33.935  21.717  11.562
28124W        W91848  37.903  32.458  14.968
28125W        W91849   1.816  27.047  14.298
28126W        W91850  17.243  42.326   1.418
28127W        W91851   2.341  13.112   0.846
28128W        W91852  37.369   0.935   1.796
28129W        W91853   4.824  10.653   9.450
28130W        W91854  10.855   4.230  12.095
28131W        W91855  19.199  41.390  12.536
28132W        W91856  29.634  20.035  12.544
28133W        W91857  27.025  29.604  12.569
28134W        W91858  19.665   3.414   4.336
28135W        W91859  10.242  41.407   2.722
28136W        W91860  29.634  11.213   3.313
28137W        W91861  17.068  25.678   1.365
28138W        W91862  33.040  17.183   1.225
28139W        W91863   8.713   0.798  12.037
28140W        W91864  30.042  14.129  11.398
28141W        W91865   3.369  31.905   2.286
28142W        W91866  28.587  27.009  11.943
28143W        W91867   2.291  40.986  14.820
28144W        W91868   8.738  44.395   0.875
28145W        W91869  23.182  41.979   3.238
28146W        W91870  12.276   8.399  14.759
28147W        W91871  20.274  38.490  12.869
28148W        W91872  27.462  23.687   3.657
28149W        W91873  25.559  12.657   4.718
28150W        W91874   2.465   6.700  13.928
28151W        W91875   5.315  42.404   0.455
28152W        W91876  30.117   6.358  13.943
28153W        W91877   3.238  43.463  14.961
28154W        W91878  35.533  35.032   1.356
28155W        W91879  16.159  11.233  10.911
28156W        W91880  43.329   0.878  12.932
28157W        W91881  23.231  14.155  10.644
28158W        W91882  41.985  38.951   1.409
28159W        W91883  25.546  32.091  13.000
28160W        W91884  11.224  21.160   4.602
28161W        W91885   1.743  30.142  13.416
28162W        W91886  22.137  32.623  12.444
28163W        W91887  34.550  34.502  10.629
28164W        W91888  15.640  37.447  11.949
28165W        W91889  26.588  31.048  14.938
28166W        W91890  11.205   5.846   1.785
28167W        W91891  26.645  30.908  13.036
28168W        W91892  24.161  44.391   3.808
28169W        W91893  10.296  10.202   2.359
28170W        W91894  36.923  28.070  12.427
28171W        W91895  29.521   6.836   3.767
28172W        W91896  41.932   4.272  12.578
28173W        W91897   5.288  13.303  13.993
28174W        W91898  38.074   0.956  10.462
28175W        W91899  41.849  39.465  14.959
28176W        W91900  14.318  43.508   0.810
28177W        W91901   9.376  10.780  12.574
28178W        W91902  28.091  32.489   0.835
28179W        W91903  32.518   9.267   1.887
28180W        W91904  43.985  18.669   3.239
28181W        W91905  44.904  19.614  13.960
28182W        W91906  27.523  21.653  13.875
28183W        W91907  33.096   9.218  11.860
28184W        W91908  17.731  21.730  14.819
28185W        W91909  19.159  12.773   9.558
28186W        W91910  37.021  22.520  13.798
28187W        W91911   4.845   3.257   4.838
28188W        W91912   7.273  13.842  14.002
28189W        W91913  38.548  29.586   4.130
28190W        W91914  10.869   3.859  11.488
28191W        W91915  17.164  17.648  13.466
28192W        W91916  37.376  14.733  13.378
28193W        W91917  34.533  23.210   1.740
28194W        W91918  21.257  14.821   3.274
28195W        W91919  40.528  26.677   2.723
28196W        W91920  14.250  13.699   4.174
28197W        W91921  22.694  35.923   4.701
28198W        W91922  13.270  24.125   0.967
28199W        W91923  28.605  44.445   1.754
28200W        W91924  33.042  14.693   1.354
28201W        W91925  10.285   4.863  14.458
28202W        W91926   6.778  18.677  10.527
28203W        W91927  11.216   0.268  13.380
28204W        W91928  14.155  12.702   2.314
28205W        W91929  41.826   3.846  11.484
28206W        W91930  13.180  42.871   4.174
28207W        W91931  22.665   4.803  10.106
28208W        W91932  13.207  44.436  14.484
28209W        W91933  13.190  10.644  11.888
28210W        W91934  14.607  19.563  13.506
28211W        W91935  22.011  41.970   1.890
28212W        W91936   4.837  22.518   2.898
28213W        W91937  13.346   9.799  12.064
28214W        W91938  14.675  11.647   4.125
28215W        W91939  10.878  35.361   0.792
28216W        W91940  41.903  19.149  14.930
28217W        W91941  24.162   4.779   1.915
28218W        W91942  17.120  31.949  14.343
28219W        W91943  36.062  43.002  11.565
28220W        W91944  15.682  26.052   0.301
28221W        W91945  27.566  16.178  13.379
28222W        W91946  27.036  14.701  14.907
28223W        W91947  18.576  36.908   0.967
28224W        W91948  36.456  11.703   1.232
28225W        W91949   0.848  14.099  13.806
28226W        W91950  39.021   5.768   2.671
28227W        W91951  20.676   7.828  13.035
28228W        W91952  26.474  29.525  11.060
28229W        W91953   0.446  34.891  13.501
28230W        W91954  42.379  33.513   2.760
28231W        W91955   3.272   5.261   0.470
28232W        W91956  29.536   8.299   4.215
28233W        W91957  23.490   8.719  14.386
28234W        W91958  27.582  16.796  13.311
28235W        W91959  36.088  23.047   3.187
28236W        W91960  18.062  19.086   4.703
28237W        W91961  33.525  20.184   4.298
28238W        W91962  30.128  34.033   0.825
28239W        W91963   5.700  18.724   1.787
28240W        W91964  26.007   5.904   3.345
28241W        W91965  33.395   5.338   2.828
28242W        W91966  26.500  42.305   2.297
28243W        W91967   5.715  32.942  11.467
28244W        W91968  31.950  29.487   3.712
28245W        W91969  15.326  34.373  11.971
28246W        W91970  12.751  21.160  13.791
28247W        W91971  38.379  32.568  11.090
28248W        W91972  29.573   6.875  10.968
28249W        W91973  32.503  27.667  14.397
28250W        W91974   0.390  13.143   4.802
28251W        W91975  42.361  29.622  12.082
28252W        W91976  19.192  31.429   1.230
28253W        W91977  35.960   4.287   0.366
28254W        W91978  27.943  16.812  11.917
28255W        W91979  23.642  27.026  13.043
28256W        W91980  17.733  15.325   1.438
28257W        W91981  30.032  37.557   3.786
28258W        W91982  40.491   4.342   3.241
28259W        W91983  38.914   2.247  10.968
28260W        W91984   2.911  13.228  12.073
28261W        W91985  22.570  18.644  10.419
28262W        W91986  26.668   3.952   4.329
28263W        W91987  42.912  41.022   2.398
28264W        W91988   2.438   5.227  13.445
28265W        W91989  31.941   2.347  10.597
28266W        W91990  31.417  38.459   3.825
28267W        W91991  10.669  25.651   1.402
28268W        W91992  22.638  36.352   0.939
28269W        W91993  18.777  17.300   0.746
28270W        W91994  16.247  38.876   4.668
28271W        W91995  32.624  12.290   0.742
28272W        W91996   0.447   0.482  13.886
28273W        W91997  12.786  17.684  13.403
28274W        W91998  11.238  27.685   1.761
28275W        W91999   2.400   9.264   1.293
28276W        W92000  29.989  32.610   1.271
28277W        W92001  38.503  23.999   4.239
28278W        W92002  37.578  15.692   1.218
28279W        W92003  41.931   0.435  11.451
28280W        W92004  43.494  30.028   1.343
28281W        W92005  43.462  22.215   5.250
28282W        W92006  27.612  23.234  13.026
28283W        W92007   1.949  43.482  13.870
28284W        W92008  35.950   5.840   4.282
28285W        W92009   3.435  13.266  10.530
28286W        W92010  18.594   8.809   1.391
28287W        W92011   2.349   4.721  14.365
28288W        W92012  31.424  40.864  11.428
28289W        W92013  28.041  29.650   2.391
28290W        W92014  14.690  26.495   4.323
28291W        W92015  44.995  39.388   4.798
28292W        W92016  32.071  32.095   0.830
28293W        W92017  20.605  33.977   0.904
28294W        W92018  40.006   7.172  13.960
28295W        W92019   0.377  34.537   2.315
28296W        W92020  35.936  18.107   4.300
28297W        W92021  24.511   4.773   0.298
28298W        W92022  23.658  21.659   4.282
28299W        W92023   3.804   3.250  13.030
28300W        W92024   4.290  43.822   2.240
28301W        W92025   5.706   0.474   0.326
28302W        W92026  37.525  23.526   0.310
28303W        W92027   2.746  38.865   0.458
28304W        W92028   2.830   5.199   2.760
28305W        W92029  19.733  36.591   2.851
28306W        W92030  32.992   4.769  13.495
28307W        W92031  18.564  21.576  13.060
28308W        W92032  43.980  28.466  14.895
28309W        W92033  42.309  34.468   4.675
28310W        W92034  20.210  19.102  14.790
28311W        W92035  43.022  34.105   0.772
28312W        W92036  19.633  19.554   4.292
28313W        W92037  30.452  27.157   3.224
28314W        W92038  33.579  29.145  10.104
28315W        W92039  10.740  39.353  12.985
28316W        W92040  42.329  24.081  10.080
28317W        W92041  29.118   4.220   2.808
28318W        W92042  34.899  20.183   2.402
28319W        W92043  22.995  37.524  14.010
28320W        W92044  14.818  42.291  13.867
28321W        W92045  29.955  33.400   2.680
28322W        W92046  39.498   2.799   4.636
28323W        W92047  31.015  27.047  12.401
28324W        W92048  31.984  19.563   3.181
28325W        W92049  35.022   7.291  13.870
28326W        W92050   1.816  37.855  14.459
28327W        W92051  38.003   7.219  14.500
28328W        W92052  28.030  11.255   2.756
28329W        W92053  36.971  12.182  13.326
28330W        W92054  41.961   6.677  11.594
28331W        W92055  41.300  11.838   1.797
28332W        W92056   0.414  38.027  11.892
28333W        W92057  21.666  31.476  10.406
28334W        W92058  40.322   4.305   4.206
28335W        W92059  33.126   4.772   4.767
28336W        W92060  36.350   4.376   3.773
28337W        W92061   2.810  26.492   4.720
28338W        W92062  44.405  32.560   4.669
28339W        W92063   9.836   1.383   3.307
28340W        W92064  30.006  40.392  14.387
28341W        W92065  41.828  11.680   2.894
28342W        W92066  25.699   6.921   0.935
28343W        W92067   9.159  37.042   3.668
28344W        W92068   8.201   6.291   0.925
28345W        W92069   2.910  30.452  11.057
28346W        W92070  33.978   4.362  11.452
28347W        W92071   7.672  10.149  10.888
28348W        W92072  36.562  23.568   0.325
28349W        W92073  36.460  23.116  13.845
28350W        W92074   2.408   8.192  12.975
28351W        W92075  36.861  27.045   3.191
28352W        W92076   4.885   6.835  13.309
28353W        W92077  23.120  43.339   3.213
28354W        W92078   1.879  37.839   1.297
28355W        W92079  19.598  11.274  12.833
28356W        W92080  44.268   7.779   0.874
28357W        W92081   0.848   7.799  10.989
28358W        W92082  29.130  39.916   4.600
28359W        W92083  37.016   4.913   0.824
28360W        W92084  40.876  12.642  14.480
28361W        W92085  43.462  37.975  10.447
28362W        W92086  42.329   3.767   0.267
28363W        W92087  14.209   3.802   0.731
28364W        W92088  33.970  31.911   1.889
28365W        W92089  33.490   2.884   0.299
28366W        W92090  28.560  23.545   1.803
28367W        W92091   3.371  33.918   0.832
28368W        W92092  13.258  14.273  12.857
28369W        W92093  15.745  17.723   4.695
28370W        W92094  17.152  22.638   1.713
28371W        W92095  11.342  28.092   2.360
28372W        W92096   7.405  28.466   3.870
28373W        W92097  43.833  19.093  13.388
28374W        W92098  34.023   9.164  13.505
28375W        W92099  23.015   4.381   0.456
28376W        W92100   9.153  40.802  12.550
28377W        W92101  16.661  35.549   4.695
28378W        W92102  24.029  21.657  13.503
28379W        W92103  41.392  44.263  14.970
28380W        W92104  13.239  19.633  10.604
28381W        W92105   1.754  28.932  14.828
28382W        W92106   4.855  44.280   0.317
28383W        W92107  33.124  25.095   4.291
28384W        W92108  25.181  31.511  10.529
28385W        W92109  20.624  24.110   4.293
28386W        W92110  27.015  30.979  10.618
28387W        W92111  44.921  13.753  12.910
28388W        W92112  37.577  16.662  14.924
28389W        W92113  17.563  35.977  13.962
28390W        W92114  40.862   6.845  11.376
28391W        W92115  14.233  16.128   2.395
28392W        W92116  28.054  41.815   1.822
28393W        W92117   1.321  37.563  14.929
28394W        W92118  33.468   2.447   1.349
28395W        W92119  12.804  41.343   1.331
28396W        W92120  42.821  43.358  10.150
28397W        W92121  43.476  32.576  10.413
28398W        W92122   3.222  22.062   4.139
28399W        W92123  15.658  34.433   2.734
28400W        W92124   3.217  33.093  12.039
28401W        W92125  28.119  19.089   4.726
28402W        W92126  39.516  30.977   2.186
28403W        W92127  27.624  14.287   0.881
28404W        W92128  43.943   7.901  13.981
28405W        W92129  18.131  21.159   4.129
28406W        W92130  27.169   9.843   0.846
28407W        W92131  14.206   4.719   1.763
28408W        W92132  44.934  22.606   3.677
28409W        W92133  26.681  18.708  11.934
28410W        W92134  39.404  12.233   1.409
28411W        W92135  34.420  13.625   3.259
28412W        W92136  36.938  31.045  11.039
28413W        W92137  17.698  18.157   0.729
28414W        W92138  29.927  32.432  13.910
28415W        W92139  43.288  12.318  13.327
28416W        W92140   3.279   4.376   4.722
28417W        W92141  44.341   4.351  11.386
28418W        W92142  16.164  15.093  13.415
28419W        W92143  20.769  11.731   3.294
28420W        W92144  19.739  27.030   2.736
28421W        W92145  14.206   7.303   2.210
28422W        W92146  17.558  16.100  13.926
28423W        W92147  19.575  37.061  10.635
28424W        W92148  20.630   1.950  11.558
28425W        W92149  16.091  38.074  13.467
28426W        W92150  37.523   0.746   4.630
28427W        W92151  13.133   5.879   0.262
28428W        W92152  44.953  30.055  12.038
28429W        W92153  25.185  42.447  12.481
28430W        W92154  13.246  27.106  11.004
28431W        W92155  31.456  23.548  14.425
28432W        W92156  12.759   5.820  13.840
28433W        W92157  41.455  22.517  12.512
28434W        W92158  44.803  21.514  12.054
28435W        W92159   4.882  23.558  14.393
28436W        W92160  28.133  10.720   2.714
28437W        W92161  43.798  33.487  14.506
28438W        W92162  20.162  39.846   1.241
28439W        W92163  13.172  16.643  10.642
28440W        W92164  40.027  11.147  11.584
28441W        W92165  10.330   8.891  14.760
28442W        W92166  28.457  35.092   0.484
28443W        W92167  15.818  36.862   2.370
28444W        W92168  32.590  39.542  13.950
28445W        W92169  21.567   7.190   0.438
28446W        W92170  42.366   2.774   1.373
28447W        W92171  29.607  15.741   3.283
28448W        W92172  34.021  24.044   3.810
28449W        W92173   9.212  23.030   2.324
28450W        W92174  30.617  21.750   2.367
28451W        W92175  20.666   2.939   2.221
28452W        W92176  21.165  26.996  14.334
28453W        W92177  18.089  14.232  13.795
28454W        W92178  35.995  13.174  12.871
28455W        W92179  44.816   3.810   2.797
28456W        W92180  42.797  26.961  13.516
28457W        W92181   0.477  34.385  11.446
28458W        W92182  31.603  12.617  13.397
28459W        W92183  39.886  25.095  11.465
28460W        W92184   8.364   1.757   2.218
28461W        W92185  29.643  10.269  11.121
28462W        W92186  42.520  20.740  11.115
28463W        W92187   0.407  23.052  12.914
28464W        W92188  42.868  15.798  13.032
28465W        W92189  30.996  33.409  13.955
28466W        W92190  28.475   7.692  13.844
28467W        W92191  23.146  11.650  11.386
28468W        W92192  36.508  28.174   4.814
28469W        W92193  24.651   8.340   0.960
28470W        W92194  23.227  14.232   2.693
28471W        W92195  17.283  24.571  14.823
28472W        W92196   7.296  30.489   0.298
28473W        W92197  17.650  31.958  14.922
28474W        W92198  15.296   6.833   0.958
28475W        W92199   7.887  25.139  11.461
28476W        W92200  43.399  36.586   0.442
28477W        W92201   1.481  21.135  11.880
28478W        W92202   3.382   6.843  10.574
28479W        W92203  10.317  11.325   4.258
28480W        W92204   2.915  14.661   4.203
28481W        W92205  36.931   3.810  14.957
28482W        W92206   9.392   4.878  12.898
28483W        W92207  17.093  32.495  13.962
28484W        W92208  31.531  26.670  14.920
28485W        W92209  12.322  44.268   2.242
28486W        W92210   8.297  27.637  11.582
28487W        W92211  21.548  10.830   4.798
28488W        W92212  21.251  12.809  12.428
28489W        W92213   2.299  18.176   2.194
28490W        W92214  42.398  37.446   4.182
28491W        W92215  18.753  30.094  11.974
28492W        W92216  41.804  42.317  14.513
28493W        W92217  23.192  13.341   0.250
28494W        W92218  32.505   1.820   3.357
28495W        W92219  33.584  40.522   3.215
28496W        W92220  14.301  31.964  12.844
28497W        W92221  43.004   2.840   3.151
28498W        W92222  40.022  12.842  11.899
28499W        W92223   2.757   5.766  13.498
28500W        W92224  17.109  40.523   5.086
28501W        W92225  28.505  24.072  12.017
28502W        W92226  18.072   8.722  10.602
28503W        W92227  16.659  43.453  13.032
28504W        W92228  32.406  16.741   2.287
28505W        W92229   0.366   5.417   0.848
28506W        W92230  34.119  10.661   3.774
28507W        W92231   5.747  14.280  12.999
28508W        W92232  27.988   7.334  11.480
28509W        W92233  42.967  14.680   1.364
28510W        W92234  28.642   2.276  11.096
28511W        W92235   3.896  38.949  11.900
28512W        W92236  42.960  38.542  11.505
28513W        W92237   3.271  44.825   1.244
28514W        W92238  23.074  39.895  12.460
28515W        W92239  37.063  37.044   2.354
28516W        W92240  17.602   1.783  13.312
28517W        W92241  35.998  10.650   3.762
28518W        W92242  32.437  33.911  13.063
28519W        W92243  11.206  40.804   4.754
28520W        W92244  19.628  44.810   3.211
28521W        W92245  44.435  18.779  13.313
28522W        W92246  18.609  12.769  10.102
28523W        W92247   7.789  34.374   1.851
28524W        W92248  34.883  39.968   1.317
28525W        W92249  25.156   1.346  14.981
28526W        W92250   3.321   0.349  14.021
28527W        W92251   1.452  32.056  11.538
28528W        W92252  15.736  36.042  14.762
28529W        W92253  33.042   6.832  12.534
28530W        W92254   1.421   3.828   1.395
28531W        W92255  17.234  28.505   4.607
28532W        W92256   3.221  30.118   3.663
28533W        W92257  17.606  39.385  13.014
28534W        W92258   7.298  31.118  10.633
28535W        W92259  12.266  28.123  13.879
28536W        W92260  35.454  15.608  13.376
28537W        W92261  11.685   0.304   4.689
28538W        W92262  35.984   7.725  14.944
28539W        W92263  26.036  21.048   1.281
28540W        W92264   1.446  11.734   1.906
28541W        W92265  11.222  39.496  10.553
28542W        W92266  17.784  40.477  14.397
28543W        W92267  33.620  12.253   2.368
28544W        W92268  12.818  35.023  12.365
28545W        W92269  24.054  20.052  11.374
28546W        W92270  28.473  17.773  10.618
28547W        W92271  23.159   5.687   4.124
28548W        W92272  33.892  24.619  12.058
28549W        W92273  31.613  28.659  14.827
28550W        W92274  32.926  34.527   4.645
28551W        W92275   8.709   9.670  10.892
28552W        W92276  21.186  37.998   3.738
28553W        W92277  32.929   3.347   0.881
28554W        W92278  14.286  15.134   0.377
28555W        W92279   8.191  18.268  13.336
28556W        W92280  42.503  39.927   3.300
28557W        W92281   3.720   0.324   3.755
28558W        W92282  13.250  28.150   0.450
28559W        W92283  38.461  44.940   2.755
28560W        W92284  32.511  31.073  11.587
28561W        W92285  18.057  41.335   0.901
28562W        W92286  32.911  16.637   3.719
28563W        W92287  24.011  35.854   1.753
28564W        W92288  26.516  35.902  14.473
28565W        W92289  34.090  15.295   2.690
28566W        W92290  21.648  30.061  13.812
28567W        W92291  38.910   4.735   3.818
28568W        W92292  16.115  34.509  13.013
28569W        W92293  16.291  37.520  11.475
28570W        W92294  36.098  23.592  11.937
28571W        W92295   6.897  43.303   4.288
28572W        W92296  19.542  15.795   4.354
28573W        W92297  30.105  42.926  11.406
28574W        W92298  31.578  23.132   0.848
28575W        W92299  14.166   9.368  13.430
28576W        W92300   7.851  12.273  14.015
28577W        W92301   4.811  22.647  10.515
28578W        W92302  41.880   8.776  10.087
28579W        W92303  31.583  21.709   0.761
28580W        W92304   2.778  31.103   4.747
28581W        W92305  35.400  22.528   3.643
28582W        W92306  39.813  20.539   3.382
28583W        W92307  24.653  34.884   1.841
28584W        W92308   9.334  20.683   4.172
28585W        W92309  35.477  33.538   4.630
28586W        W92310  23.560  34.113  11.995
28587W        W92311  15.750  33.608  11.587
28588W        W92312   0.744  30.132  11.427
28589W        W92313   8.268   5.393  12.507
28590W        W92314  43.782   3.375  13.462
28591W        W92315  35.052  21.198  14.906
28592W        W92316  43.900  35.030   4.335
28593W        W92317   5.688  14.671   4.659
28594W        W92318  24.226  36.419  12.872
28595W        W92319  24.684  34.032  10.613
28596W        W92320   4.261  43.807   1.448
28597W        W92321   3.404  18.742   3.160
28598W        W92322  13.635   2.448   1.445
28599W        W92323  34.069  40.333  12.531
28600W        W92324  32.141  23.142  13.809
28601W        W92325   4.234   5.305   3.725
28602W        W92326  41.461  14.668   3.248
28603W        W92327  10.874  38.067   3.247
28604W        W92328   0.876  18.655   5.185
28605W        W92329  12.803  15.246   1.355
28606W        W92330  43.973  30.140  11.395
28607W        W92331  12.316  22.556  11.066
28608W        W92332  20.590   5.809  12.447
28609W        W92333   2.904  32.474  12.494
28610W        W92334  33.031  26.138  14.926
28611W        W92335  19.697  13.129  12.037
28612W        W92336   7.827  31.642  11.974
28613W        W92337  31.011  28.665  12.036
28614W        W92338   2.904  34.868   0.282
28615W        W92339   8.771   6.289  13.040
28616W        W92340  21.031  29.101  14.456
28617W        W92341  11.845  30.433   1.306
28618W        W92342  28.619  11.716   3.186
28619W        W92343  34.497  16.612  12.981
28620W        W92344  21.131  20.243   1.737
28621W        W92345  14.634  14.682  13.910
28622W        W92346  26.112  15.820  11.882
28623W        W92347  30.041  25.614   3.781
28624W        W92348  15.303  20.132   0.955
28625W        W92349  29.031  18.774   0.729
28626W        W92350   0.842  29.609  14.472
28627W        W92351   0.353  43.961  11.560
28628W        W92352  44.759  22.717  14.319
28629W        W92353  36.030   6.893   1.422
28630W        W92354  10.735  27.163  14.398
28631W        W92355  39.556  33.504  11.437
28632W        W92356  25.566  30.538   4.340
28633W        W92357  38.373  40.846   2.289
28634W        W92358   0.936   3.452  13.051
28635W        W92359   7.225  32.428   2.823
28636W        W92360  40.002  27.099   4.769
28637W        W92361  42.987  33.988  11.060
28638W        W92362  37.465  42.330   1.864
28639W        W92363  20.236  15.196   0.782
28640W        W92364  33.593   2.866  10.424
28641W        W92365  27.480  31.952  14.511
28642W        W92366   0.320   9.182  12.975
28643W        W92367  19.707  26.045   1.249
28644W        W92368  14.286  27.055  12.403
28645W        W92369  15.234  30.111   4.347
28646W        W92370  24.024  18.068   2.798
28647W        W92371   7.239  28.166  10.514
28648W        W92372   9.170  37.546   4.343
28649W        W92373  13.811   8.316   0.346
28650W        W92374  14.710  25.679  14.293
28651W        W92375   7.237  13.165  11.459
28652W        W92376   7.278   5.919   2.816
28653W        W92377   1.398  31.115  13.853
28654W        W92378  20.589  17.202  12.005
28655W        W92379  12.782   4.443   5.082
28656W        W92380  14.624  21.706   3.711
28657W        W92381  36.985   5.743   4.615
28658W        W92382   6.245  15.691  13.418
28659W        W92383  43.361  41.451   4.686
28660W        W92384   7.359  12.788  12.522
28661W        W92385  26.191  15.261  14.880
28662W        W92386  39.557  39.396   0.390
28663W        W92387  24.651  10.676  13.447
28664W        W92388  16.647  19.264   3.643
28665W        W92389   6.807  13.337   3.744
28666W        W92390   4.909   7.873  12.974
28667W        W92391   2.366   7.402  10.625
28668W        W92392  40.424  40.844   9.987
28669W        W92393  35.447   5.871  10.439
28670W        W92394   9.779  36.359  12.487
28671W        W92395  12.771   3.277  12.506
28672W        W92396  23.999  20.265  14.805
28673W        W92397  28.021  44.877  12.520
28674W        W92398   2.741  15.583  13.029
28675W        W92399  38.352  38.851  12.851
28676W        W92400  10.182  33.094  12.444
28677W        W92401   0.460  25.547  10.459
28678W        W92402   7.366  34.099  10.448
28679W        W92403   1.272  19.039   4.820
28680W        W92404  13.323  18.221  14.805
28681W        W92405  43.340  38.849  12.879
28682W        W92406  30.461  39.378   0.289
28683W        W92407  10.330  16.767   1.334
28684W        W92408  18.696  41.487   1.926
28685W        W92409  39.476  23.509   1.927
28686W        W92410  17.741   6.690   0.446
28687W        W92411  31.089  35.481   2.258
28688W        W92412  18.259   7.848   2.415
28689W        W92413  32.628   3.916  12.478
28690W        W92414  39.054  41.995   0.750
28691W        W92415   4.268  25.114  13.875
28692W        W92416  44.286  27.970   1.865
28693W        W92417   5.351  39.418  11.577
28694W        W92418  25.503  23.602   2.308
28695W        W92419   1.253  12.259  10.410
28696W        W92420  32.465  11.354  11.398
28697W        W92421  41.979  38.030   2.292
28698W        W92422  32.913   6.353   3.808
28699W        W92423   0.764   1.811   2.861
28700W        W92424  25.007  19.262  10.645
28701W        W92425   5.424  33.021   3.761
28702W        W92426  11.793  15.803   2.218
28703W        W92427  41.385  10.809   1.259
28704W        W92428  34.918  24.710  11.600
28705W        W92429  37.357  19.152  12.845
28706W        W92430   8.278  34.558  13.940
28707W        W92431   7.375  39.855  11.022
28708W        W92432  27.452  10.675  14.391
28709W        W92433   3.347  39.393  13.043
28710W        W92434  37.885   0.446   3.710
28711W        W92435  17.273  29.987   1.401
28712W        W92436   8.233  35.880  12.058
28713W        W92437  30.464  28.547   2.182
28714W        W92438  11.251   5.875  12.379
28715W        W92439  42.849  27.145  10.531
28716W        W92440  21.236  19.749   1.219
28717W        W92441  22.622   2.810  11.978
28718W        W92442   5.906  15.202   0.289
28719W        W92443  13.309   5.711  10.112
28720W        W92444  41.844  30.565   2.223
28721W        W92445  43.813  18.182  10.612
28722W        W92446  31.956  15.808   0.315
28723W        W92447  18.166   3.347   3.382
28724W        W92448  20.213  20.630   0.955
28725W        W92449  43.370  44.885  10.897
28726W        W92450  17.752  26.645  11.940
28727W        W92451  14.250   7.196   1.867
28728W        W92452  38.354  37.831  10.638
28729W        W92453  23.649   7.878   4.203
28730W        W92454  33.380  24.135  11.549
28731W        W92455  38.993   4.776   1.735
28732W        W92456  19.590  19.156   1.268
28733W        W92457  10.791  22.049  14.953
28734W        W92458   6.695  37.457   1.832
28735W        W92459  37.364  41.827   4.752
28736W        W92460  17.597  37.950  13.466
28737W        W92461  33.577  41.942   2.390
28738W        W92462  14.740  32.534  14.276
28739W        W92463  33.534  32.423  13.459
28740W        W92464  36.480  36.024   4.312
28741W        W92465  31.634  16.144  11.984
28742W        W92466  41.528  36.842   4.698
28743W        W92467  42.013  27.050  13.518
28744W        W92468  16.622  20.124  14.484
28745W        W92469   5.929  43.352  11.580
28746W        W92470   9.242  16.636  12.946
28747W        W92471  35.433  14.101   2.763
28748W        W92472  38.993  13.767   3.765
28749W        W92473  32.980   3.881   2.415
28750W        W92474  42.030  41.429  10.135
28751W        W92475  12.739  12.143  14.909
28752W        W92476  42.499  42.440   1.924
28753W        W92477   1.954  25.173  10.641
28754W        W92478  37.355   4.258   2.334
28755W        W92479  44.856   8.669  12.890
28756W        W92480   3.783  19.664   0.953
28757W        W92481   4.881   3.821   2.208
28758W        W92482  33.985   0.291  10.530
28759W        W92483  26.553  22.207   1.896
28760W        W92484   8.706  17.674   0.961
28761W        W92485  12.308  43.873   1.746
28762W        W92486  42.902   0.456   1.923
28763W        W92487   1.940  40.876   2.384
28764W        W92488  21.557   3.900  12.353
28765W        W92489  10.773  12.632  14.950
28766W        W92490  35.912   6.769   1.770
28767W        W92491  13.308  17.799  14.488
28768W        W92492  17.226  24.017  14.512
28769W        W92493   3.746  29.153  12.988
28770W        W92494  43.833  10.853   0.779
28771W        W92495  12.260  40.017   3.342
28772W        W92496  42.981  34.052   0.430
28773W        W92497  44.770  34.990   4.807
28774W        W92498  31.464  40.471   2.745
28775W        W92499  28.572  33.574   1.800
28776W        W92500  39.912  34.549   3.170
28777W        W92501  15.231  15.717   2.378
28778W        W92502  41.867   0.832  14.366
28779W        W92503   4.225   7.892  11.884
28780W        W92504  17.694  28.109   3.656
28781W        W92505  28.032   6.228  11.397
28782W        W92506  12.759  42.797   4.664
28783W        W92507   0.470   4.410   1.440
28784W        W92508  31.595  24.230   4.670
28785W        W92509  25.645  13.149   4.270
28786W        W92510  40.885  33.552  14.779
28787W        W92511  28.638  15.682  11.917
28788W        W92512  14.313  13.118   1.435
28789W        W92513  29.563   3.814   2.354
28790W        W92514  28.960  16.645  10.632
28791W        W92515  44.292  24.226  13.524
28792W        W92516   8.830  36.955  11.903
28793W        W92517  13.254   3.419  12.506
28794W        W92518   4.729  10.312   1.758
28795W        W92519  28.474  27.153  13.376
28796W        W92520  10.312   3.336   0.245
28797W        W92521   4.944  12.726   4.143
28798W        W92522  35.931  44.860   4.792
28799W        W92523   9.367  10.757  14.878
28800W        W92524   9.705   5.703   3.787
28801W        W92525  29.129  43.003  13.489
28802W        W92526  25.003   4.720   3.188
28803W        W92527   1.345  40.948   1.424
28804W        W92528  43.858   4.780  13.844
28805W        W92529  25.212  41.956  12.473
28806W        W92530   1.378   6.836   4.694
28807W        W92531  38.473  22.200  11.926
28808W        W92532  20.753   0.462  11.921
28809W        W92533  17.186   9.290  13.413
28810W        W92534   1.747  40.905   0.370
28811W        W92535   7.207  41.456  14.912
28812W        W92536  31.519   8.704  12.975
28813W        W92537  33.889  31.594  12.063
28814W        W92538  37.517  41.419   0.826
28815W        W92539   7.176  34.081   1.302
28816W        W92540   1.305  12.809   1.254
28817W        W92541  33.534  22.249   2.188
28818W        W92542  32.609  18.068   4.218
28819W        W92543  34.411  32.956   4.160
28820W        W92544   3.236  40.876  11.076
28821W        W92545  36.414  22.177  13.864
28822W        W92546  16.671  31.016   0.876
28823W        W92547   6.302   7.738   3.172
28824W        W92548  43.831  28.103  12.958
28825W        W92549  42.828  21.079   1.743
28826W        W92550   7.685  22.634   4.824
28827W        W92551  41.812  33.011   3.748
28828W        W92552  34.940  22.534  11.873
28829W        W92553  10.140  34.098  11.450
28830W        W92554  15.681  26.146  12.577
28831W        W92555  19.271  42.416   0.299
28832W        W92556  14.327  20.607   2.830
28833W        W92557   2.321  40.953   2.374
28834W        W92558  42.816  12.737  11.393
28835W        W92559  13.268  37.863  12.835
28836W        W92560  11.811  33.453   3.340
28837W        W92561  28.644   4.322   0.786
28838W        W92562  30.979  37.550   4.730
28839W        W92563  10.144  36.989  12.439
28840W        W92564  27.017   7.879   9.572
28841W        W92565   1.275  31.612   1.899
28842W        W92566  21.099  39.005  14.908
28843W        W92567  16.576   3.409   3.849
28844W        W92568  15.793   4.869  11.060
28845W        W92569  31.638  14.096  10.482
28846W        W92570  19.105  30.654  13.904
28847W        W92571  36.948  16.167   4.722
28848W        W92572   0.297  21.554  14.371
28849W        W92573  27.540  24.997  14.474
28850W        W92574  29.135  27.024   3.764
28851W        W92575  34.549  17.064   3.837
28852W        W92576  33.996  11.240  11.118
28853W        W92577  34.386  15.639   4.649
28854W        W92578  16.272   1.409  10.949
28855W        W92579  30.542  17.703  14.794
28856W        W92580  27.101  31.624  13.359
28857W        W92581  41.470  21.156   9.621
28858W        W92582  22.543  11.633  12.376
28859W        W92583  12.815   3.450  10.116
28860W        W92584  28.477  16.647   2.208
28861W        W92585   2.858  30.133  11.431
28862W        W92586  34.541  22.735   3.248
28863W        W92587  21.661  22.540  12.975
28864W        W92588  10.172  18.723  13.507
28865W        W92589  43.957  16.599   0.854
28866W        W92590  32.567  12.660   1.839
28867W        W92591  21.607  13.785   3.679
28868W        W92592  15.311  21.034  10.135
28869W        W92593   6.787  18.671   4.189
28870W        W92594  10.795  27.609   3.308
28871W        W92595  30.925  11.855   2.357
28872W        W92596  38.380  42.907  14.925
28873W        W92597  11.672  22.207  10.992
28874W        W92598   7.351  10.785  10.920
28875W        W92599  39.991  33.023   2.828
28876W        W92600  33.071  44.412   1.384
28877W        W92601  15.184   1.280  11.951
28878W        W92602   5.824   8.178  14.310
28879W        W92603   5.801  43.962   4.353
28880W        W92604   0.816  29.645   2.227
28881W        W92605  15.715  27.993  14.834
28882W        W92606  31.589   4.851   4.708
28883W        W92607  24.540  20.687   1.241
28884W        W92608  38.382  14.134  14.404
28885W        W92609  34.081   3.861   1.754
28886W        W92610   7.798  19.555   0.481
28887W        W92611   6.866  29.050  12.892
28888W        W92612  37.564   3.781  10.990
28889W        W92613  31.063  13.746   5.773
28890W        W92614  13.715  33.041   2.213
28891W        W92615   9.660  33.439   0.353
28892W        W92616  15.273   8.677   2.414
28893W        W92617  34.934  15.791   4.784
28894W        W92618  27.957  21.707   5.218
28895W        W92619  29.065  20.260   2.818
28896W        W92620  19.156  42.860  12.556
28897W        W92621  41.302  25.058  13.835
28898W        W92622  25.076  12.815   2.359
28899W        W92623  24.486  14.654   4.672
28900W        W92624  30.073   2.434   4.147
28901W        W92625  23.537  22.643  12.452
28902W        W92626  26.996  30.081   5.174
28903W        W92627  12.320  27.629   4.175
28904W        W92628  13.166   9.878  11.383
28905W        W92629  24.674  26.087  13.878
28906W        W92630  39.326  44.011  14.022
28907W        W92631  27.683  30.058  13.809
28908W        W92632  27.659  17.619  13.472
28909W        W92633  30.545   1.338   1.336
28910W        W92634   2.938  18.699   1.882
28911W        W92635  41.865  28.499  12.546
28912W        W92636  44.382  20.042   4.156
28913W        W92637   9.793  31.582  12.433
28914W        W92638  13.208   4.860  13.463
28915W        W92639   1.314  21.222  13.858
28916W        W92640  29.581  19.605   0.347
28917W        W92641  34.867  10.761  12.518
28918W        W92642  22.594   8.768   2.666
28919W        W92643   6.310  20.222  12.845
28920W        W92644  20.168  40.549  11.390
28921W        W92645  23.091  32.023  12.492
28922W        W92646   0.812  42.862  11.097
28923W        W92647  29.967  21.654   4.174
28924W        W92648  30.128  29.004   1.716
28925W        W92649  43.796  18.098   2.879
28926W        W92650  43.436   8.318   3.300
28927W        W92651  16.603  42.946   2.351
28928W        W92652  33.885  37.048   4.700
28929W        W92653  28.168   7.790   1.214
28930W        W92654  44.885  20.179  12.372
28931W        W92655   6.697  40.328  13.976
28932W        W92656  23.601  44.430  13.472
28933W        W92657  35.109   5.864  14.355
28934W        W92658  23.095  38.037  13.470
28935W        W92659  18.264  32.994   0.458
28936W        W92660   7.791  17.226  11.108
28937W        W92661  37.518   3.252  12.995
28938W        W92662  23.154   2.343  11.974
28939W        W92663  20.101  36.389   0.454
28940W        W92664  26.599  15.311   1.884
28941W        W92665  18.706   1.783   3.352
28942W        W92666  22.022  17.577   4.121
28943W        W92667   5.776   8.403   0.799
28944W        W92668  36.590  37.430   0.748
28945W        W92669  29.482  14.798   0.807
28946W        W92670  43.839  16.665   4.715
28947W        W92671  18.767  10.173   4.238
28948W        W92672  44.982  35.500   1.333
28949W        W92673  41.530   7.305   2.740
28950W        W92674   3.364  20.098   5.265
28951W        W92675  13.157  27.054  10.436
28952W        W92676   9.387   5.921  14.794
28953W        W92677  34.048  16.687  11.484
28954W        W92678  42.527  30.641  11.592
28955W        W92679   8.165  19.760   2.686
28956W        W92680  28.465   8.162   2.714
28957W        W92681   9.648  13.134   1.324
28958W        W92682  44.901  28.068   3.152
28959W        W92683  32.888  32.462  11.956
28960W        W92684  43.806  33.616   1.765
28961W        W92685  36.593  19.705   1.818
28962W        W92686  29.631  11.770   5.154
28963W        W92687  26.047  31.121   1.778
28964W        W92688  29.132  15.265  13.830
28965W        W92689  13.338  17.685  11.084
28966W        W92690  24.510   7.267  12.505
28967W        W92691  32.397  31.978   0.295
28968W        W92692  33.971  33.431  13.492
28969W        W92693  20.206  36.526   1.361
28970W        W92694  12.830   8.889   0.784
28971W        W92695  22.199  22.249   0.770
28972W        W92696  14.275   3.885  14.861
28973W        W92697   8.767  33.001  11.573
28974W        W92698  36.084  19.713  11.439
28975W        W92699  33.043  22.168  14.868
28976W        W92700   5.717  44.354  12.941
28977W        W92701  29.612  21.150  10.533
28978W        W92702  13.727  30.588  14.919
28979W        W92703  19.081  18.166  13.809
28980W        W92704   9.297  29.457  12.371
28981W        W92705  30.622   2.926   4.835
28982W        W92706  44.366   8.277   0.916
28983W        W92707  28.576  36.900  10.990
28984W        W92708   3.230  35.077  10.913
28985W        W92709  15.816  29.646  14.512
28986W        W92710  31.109  12.739  14.303
28987W        W92711   4.250   7.765  12.892
28988W        W92712   6.681  30.932  11.466
28989W        W92713  15.134  25.060  13.342
28990W        W92714  22.695  19.726   3.680
28991W        W92715  41.976   7.823  12.017
28992W        W92716  10.704  26.153  12.930
28993W        W92717   7.392   4.939   1.819
28994W        W92718  21.018  15.775  12.439
28995W        W92719  21.026  36.049   0.313
28996W        W92720  16.144  31.920  10.492
28997W        W92721   6.732  30.514  14.934
28998W        W92722  26.017  30.488   1.837
28999W        W92723  16.686   8.326  11.571
29000W        W92724   2.784  25.991  10.454
29001W        W92725  35.933  35.433  10.488
29002W        W92726  30.652  28.074  14.396
29003W        W92727   0.448   9.787   2.280
29004W        W92728  22.049   7.790   3.855
29005W        W92729  40.488  34.864  14.948
29006W        W92730  18.162  22.074  10.903
29007W        W92731  13.215  13.207  12.860
29008W        W92732  18.064  18.051  10.595
29009W        W92733   9.877   6.199   3.375
29010W        W92734  31.535  27.656  13.939
29011W        W92735  40.403  27.062  11.883
29012W        W92736   0.754   1.338   1.904
29013W        W92737  28.525  22.548  11.593
29014W        W92738   3.352  24.546   2.273
29015W        W92739  29.081  32.913   4.758
29016W        W92740  26.963  41.376   4.144
29017W        W92741  29.534  18.267   3.350
29018W        W92742  20.062   5.210  13.366
29019W        W92743   7.381   1.338   3.734
29020W        W92744  17.586   6.213  13.035
29021W        W92745  17.138  18.741   0.738
29022W        W92746  44.306  43.013  13.052
29023W        W92747  25.066  36.572  11.886
29024W        W92748  28.627  19.620   0.286
29025W        W92749  15.174   3.461   0.302
29026W        W92750  38.473   5.769   4.218
29027W        W92751  14.754  44.323  10.590
29028W        W92752  39.490  39.469  12.494
29029W        W92753  13.743  18.707  13.356
29030W        W92754  18.687  35.509   1.379
29031W        W92755   9.651  18.135   4.668
29032W        W92756  31.546   9.229   2.666
29033W        W92757   8.665  35.999   0.868
29034W        W92758  41.023  10.351  13.452
29035W        W92759  20.533  42.517   1.913
29036W        W92760  25.033  14.195  12.000
29037W        W92761  22.535  34.510   1.322
29038W        W92762  24.049   1.862   1.416
29039W        W92763   7.692  39.932  14.384
29040W        W92764   7.718  28.537   0.906
29041W        W92765  29.623  10.661  13.520
29042W        W92766  20.152  27.592   1.339
29043W        W92767  31.063  26.028   2.779
29044W        W92768  12.274  22.648  13.820
29045W        W92769   1.242   9.257   4.291
29046W        W92770  38.041   9.189   0.737
29047W        W92771  16.317  26.987   0.868
29048W        W92772   0.905  28.947  10.977
29049W        W92773  32.529  36.934  13.807
29050W        W92774  17.296  24.046   0.845
29051W        W92775  42.854  19.061  12.405
29052W        W92776  43.344  40.342   3.713
29053W        W92777  39.358  27.687   4.632
29054W        W92778  29.077  15.686  12.010
29055W        W92779  23.527   5.812   3.722
29056W        W92780   9.285  26.022  11.396
29057W        W92781  30.562  24.105   0.430
29058W        W92782   3.794   6.190   3.724
29059W        W92783  41.022  33.126  11.107
29060W        W92784  19.598   6.856   3.166
29061W        W92785  18.617  34.453  14.939
29062W        W92786  17.295  33.594  14.485
29063W        W92787  36.945  34.995   0.739
29064W        W92788  26.554  22.510   1.419
29065W        W92789  18.090  33.401  14.308
29066W        W92790   5.299   6.286  13.945
29067W        W92791  32.888  29.141   0.389
29068W        W92792   9.287  12.801  12.574
29069W        W92793  40.980  24.621   3.794
29070W        W92794  10.223  27.573  11.985
29071W        W92795   2.355  28.565  10.404
29072W        W92796  24.100  38.936  14.793
29073W        W92797  20.659  13.688   3.220
29074W        W92798  15.254  21.537   0.830
29075W        W92799  13.671  17.627   2.876
29076W        W92800   2.775   1.346  11.599
29077W        W92801   2.313  24.694   3.630
29078W        W92802  25.633  30.537   0.248
29079W        W92803  15.591  25.516   4.760
29080W        W92804   8.880   8.223   1.421
29081W        W92805  18.782   3.435   1.217
29082W        W92806  43.479  21.050   4.140
29083W        W92807  26.588  30.008  10.953
29084W        W92808  30.964   6.823   2.352
29085W        W92809  16.768  32.949   0.908
29086W        W92810  24.083  18.173   2.240
29087W        W92811  17.792  12.759   4.712
29088W        W92812  16.682  11.281   1.821
29089W        W92813   5.336   8.333  14.372
29090W        W92814  14.201  36.522  14.437
29091W        W92815  26.170  23.565  11.423
29092W        W92816  32.935  35.454  14.853
29093W        W92817  22.147   4.246  14.366
29094W        W92818  37.999  30.998  10.471
29095W        W92819  16.736  31.994   4.752
29096W        W92820  18.277  25.594   3.639
29097W        W92821  26.175  13.840   2.800
29098W        W92822  16.675  43.838   4.629
29099W        W92823  33.562  39.861   4.656
29100W        W92824   1.404   2.884   1.219
29101W        W92825   0.248  26.161   0.825
29102W        W92826  20.239   9.812   3.693
29103W        W92827  29.926  37.339  14.277
29104W        W92828  12.774  35.924   4.287
29105W        W92829  44.455  15.587   0.914
29106W        W92830  42.784  39.554  12.493
29107W        W92831   0.493  36.403  13.962
29108W        W92832   3.868  34.927  14.955
29109W        W92833  42.996  24.503  12.060
29110W        W92834  19.642   3.889  14.793
29111W        W92835  18.742  15.682   5.201
29112W        W92836  13.806  37.979  14.839
29113W        W92837  16.671  23.631  10.989
29114W        W92838   5.280   7.219   2.311
29115W        W92839  33.013  12.671  11.093
29116W        W92840  37.522  43.931   2.840
29117W        W92841  42.783   1.399  13.844
29118W        W92842  35.917   5.723   3.287
29119W        W92843   5.357  11.195   2.784
29120W        W92844   6.300   3.742   0.912
29121W        W92845  17.231   8.297  13.949
29122W        W92846  17.151  29.545  11.088
29123W        W92847  22.669  11.351   2.794
29124W        W92848  22.188  12.652  13.860
29125W        W92849  20.144  18.617   1.916
29126W        W92850   8.182  18.128   3.741
29127W        W92851   0.337  20.145   4.758
29128W        W92852  22.593  37.544  14.346
29129W        W92853  24.045   7.776  13.352
29130W        W92854  43.946  32.438  13.364
29131W        W92855  40.445  20.210  10.939
29132W        W92856   2.435  25.990  12.568
29133W        W92857  21.148   9.682  14.451
29134W        W92858  30.124  44.438   1.736
29135W        W92859   0.764   5.301   0.799
29136W        W92860  42.388   1.442   1.709
29137W        W92861  43.352  16.257   2.716
29138W        W92862  31.409   7.297   1.707
29139W        W92863  44.780  32.099   4.824
29140W        W92864  29.007  31.914   4.206
29141W        W92865  23.697  11.688   2.318
29142W        W92866  38.048  42.501  11.611
29143W        W92867  27.559  34.492   0.933
29144W        W92868  27.613  27.146  10.897
29145W        W92869  35.943  23.684  12.962
29146W        W92870  12.220  26.961   4.177
29147W        W92871  22.083  36.975  11.934
29148W        W92872  44.288  37.556   2.349
29149W        W92873  17.091  43.982   2.305
29150W        W92874  25.162  17.770  14.474
29151W        W92875  33.922  27.636   2.334
29152W        W92876  44.307  35.003   3.767
29153W        W92877   4.411   8.288   4.307
29154W        W92878  15.773  40.497   4.227
29155W        W92879   7.737  14.165  14.019
29156W        W92880  39.952  10.215  14.771
29157W        W92881   8.763  17.277  11.570
29158W        W92882  41.512  12.172  14.794
29159W        W92883   5.887  16.215   3.290
29160W        W92884  31.402  34.065   1.778
29161W        W92885   8.308  13.601   3.759
29162W        W92886  10.804  29.482   2.742
29163W        W92887   2.807   8.819  12.903
29164W        W92888   6.186  38.995  14.307
29165W        W92889  36.398  26.516  14.514
29166W        W92890  16.316  30.516   3.809
29167W        W92891  42.431  31.600   0.420
29168W        W92892   3.750  23.563   5.212
29169W        W92893   4.862  26.187   4.155
29170W        W92894  12.229  29.537  14.303
29171W        W92895  11.216  24.713   1.894
29172W        W92896  43.477   4.296  14.490
29173W        W92897  10.293  18.163  12.969
29174W        W92898  38.512  26.200   3.688
29175W        W92899   5.353  31.028  11.610
29176W        W92900  31.095  16.656   0.783
29177W        W92901  43.461  37.492  13.936
29178W        W92902  20.034  37.517   1.329
29179W        W92903  21.113  24.613  13.401
29180W        W92904  40.484   1.421  12.364
29181W        W92905   2.298  14.279  13.932
29182W        W92906   4.350  28.987  13.054
29183W        W92907  29.045  34.011   0.797
29184W        W92908   6.274  40.806  13.808
29185W        W92909  17.228   7.725   3.809
29186W        W92910   8.721  18.083   2.202
29187W        W92911   8.739  40.449   1.703
29188W        W92912  10.141  36.901   3.812
29189W        W92913  17.562  12.678  11.549
29190W        W92914  17.784  10.750   3.861
29191W        W92915  15.674  25.153   4.197
29192W        W92916  41.408   3.904  12.885
29193W        W92917  32.463   2.309   0.859
29194W        W92918  13.177  23.214   1.834
29195W        W92919  23.549  24.011  14.365
29196W        W92920  37.426   4.794  14.814
29197W        W92921  29.574  14.694  10.414
29198W        W92922   4.219  13.602   2.416
29199W        W92923  32.917  22.146   0.257
29200W        W92924  26.089  30.965  12.363
29201W        W92925  38.426   2.435   2.730
29202W        W92926  39.329  27.961  11.508
29203W        W92927   9.234  38.074   3.807
29204W        W92928  41.809  18.759  11.490
29205W        W92929   3.840  24.130  10.420
29206W        W92930  33.413   0.786   4.195
29207W        W92931  17.667   5.720   9.977
29208W        W92932   9.776  43.846   1.377
29209W        W92933   0.974   5.417  11.390
29210W        W92934   2.759  16.073  11.101
29211W        W92935  17.731  32.912   3.703
29212W        W92936  36.454   1.305   3.737
29213W        W92937  21.517  35.409   1.833
29214W        W92938  23.712   1.252   0.958
29215W        W92939  41.945  27.148   1.713
29216W        W92940  18.597  23.034  14.927
29217W        W92941  25.485  27.537   1.439
29218W        W92942  24.994  37.881  14.331
29219W        W92943  27.030  37.555   2.840
29220W        W92944  27.475  37.473   3.381
29221W        W92945   3.225  20.056  14.314
29222W        W92946   2.277  17.663  14.987
29223W        W92947  40.044  17.614  14.332
29224W        W92948  25.647  28.970   4.192
29225W        W92949   5.406   7.783   3.262
29226W        W92950  39.961   0.947  13.348
29227W        W92951  10.321  37.842  13.349
29228W        W92952  32.891  29.601  13.903
29229W        W92953  30.562  24.013  12.964
29230W        W92954   7.326   1.853  10.455
29231W        W92955  34.096  26.148  14.774
29232W        W92956  15.271  16.119   1.237
29233W        W92957  22.211   9.151   3.178
29234W        W92958   0.434   3.393   3.767
29235W        W92959  31.522  15.266  12.848
29236W        W92960  36.857   3.828   2.196
29237W        W92961  15.580   5.420   3.329
29238W        W92962  20.525  10.331   3.266
29239W        W92963  42.371   2.266  11.003
29240W        W92964   2.843  10.376   4.696
29241W        W92965  16.749   0.850  13.500
29242W        W92966  18.066  41.472   2.182
29243W        W92967  44.935   7.700   0.416
29244W        W92968  41.447  36.958   2.662
29245W        W92969  38.873   5.315  11.906
29246W        W92970  18.645   3.910   1.859
29247W        W92971  35.026  23.572  10.893
29248W        W92972  43.500   4.222  11.901
29249W        W92973  26.101   7.877  14.323
29250W        W92974  29.516  29.955   3.334
29251W        W92975  33.562  21.036  14.515
29252W        W92976  12.312  36.459   3.360
29253W        W92977  30.909  25.216   2.401
29254W        W92978  21.596  16.806  10.143
29255W        W92979   9.731  33.579  12.341
29256W        W92980  10.283  23.134  13.048
29257W        W92981   8.352   4.430  13.909
29258W        W92982  15.099  24.021  11.889
29259W        W92983  11.332  31.974  11.451
29260W        W92984  22.561  34.387  11.595
29261W        W92985  42.796  15.137   1.709
29262W        W92986  24.982  17.760  11.587
29263W        W92987   7.727  16.130  11.110
29264W        W92988  39.496  35.415  13.459
29265W        W92989  43.420  21.094  14.493
29266W        W92990   6.745  39.890   2.410
29267W        W92991  41.858  12.301  13.434
29268W        W92992  22.606  27.525   3.698
29269W        W92993  26.670  11.681  11.082
29270W        W92994   5.816  18.222  12.877
29271W        W92995  21.112  41.786   5.167
29272W        W92996  24.221   1.742   4.227
29273W        W92997  14.098  15.189   4.321
29274W        W92998  14.300  22.009  14.436
29275W        W92999  41.527   3.858   4.181
29276W        W93000  21.253   4.212  12.430
29277W        W93001  31.004  13.303   0.346
29278W        W93002  26.095  22.522   4.709
29279W        W93003  31.542  32.040   0.897
29280W        W93004  10.175  38.846  13.013
29281W        W93005  16.716  40.304  11.504
29282W        W93006  11.317  28.995  14.479
29283W        W93007   5.293  11.633   5.576
29284W        W93008  26.992  39.509  14.861
29285W        W93009   6.261  24.569   3.761
29286W        W93010   0.806  44.875  10.526
29287W        W93011  20.563  16.234   4.774
29288W        W93012  17.066  12.689  12.396
29289W        W93013  27.971  27.189  10.925
29290W        W93014  37.939  13.229  14.000
29291W        W93015  18.609  43.325   2.710
29292W        W93016  26.971   8.271  13.489
29293W        W93017  25.577  20.571  11.973
29294W        W93018  15.263  29.980  10.621
29295W        W93019   8.855  12.278   1.378
29296W        W93020  30.447  44.323  12.580
29297W        W93021  37.038  10.164  10.903
29298W        W93022  20.617   0.980  14.464
29299W        W93023  31.066  19.612   2.868
29300W        W93024  42.316  38.075   2.792
29301W        W93025  25.078  12.249   2.257
29302W        W93026  31.033  22.232   1.259
29303W        W93027  40.908  21.517   1.758
29304W        W93028  12.266   9.716  13.340
29305W        W93029  11.707  26.637   0.921
29306W        W93030  34.898  14.111   2.806
29307W        W93031  20.094  31.088  12.073
29308W        W93032   3.332  33.572   4.241
29309W        W93033  14.800  18.231   3.773
29310W        W93034  36.963  23.513  13.317
29311W        W93035   2.237  25.654  10.590
29312W        W93036  43.901   7.323  12.083
29313W        W93037  17.266  17.794   2.346
29314W        W93038  25.631  35.445   2.416
29315W        W93039  32.046  16.076  14.761
29316W        W93040  19.687   9.853  14.406
29317W        W93041  38.475  30.480  13.936
29318W        W93042  32.057  29.632  10.412
29319W        W93043   0.454  13.281   2.763
29320W        W93044  41.316  33.407  14.318
29321W        W93045   0.802  31.618  13.974
29322W        W93046  16.286  36.889  13.024
29323W        W93047  36.036  41.946  13.445
29324W        W93048  25.512   3.214  14.773
29325W        W93049   8.745   6.773   3.184
29326W        W93050  28.561   7.302   1.441
29327W        W93051   4.880  20.684  13.032
29328W        W93052   2.379  26.623   0.343
29329W        W93053   7.307  33.928   4.815
29330W        W93054   5.372  29.604  12.897
29331W        W93055  16.743  40.538  10.560
29332W        W93056  36.478   6.739  13.022
29333W        W93057   9.667  15.135  14.994
29334W        W93058   7.373  36.955  12.027
29335W        W93059  20.086  16.721   0.329
29336W        W93060   5.238  39.043  10.056
29337W        W93061  19.647  29.109  13.547
29338W        W93062  34.877  35.110   0.312
29339W        W93063  17.572  36.570   4.662
29340W        W93064  14.775  40.849   0.807
29341W        W93065  31.909  11.238   3.780
29342W        W93066  32.397  38.013  13.064
29343W        W93067  24.520  32.628   2.715
29344W        W93068   6.218  15.240   1.341
29345W        W93069  24.663  14.290  14.031
29346W        W93070  20.140  28.649  12.364
29347W        W93071  36.979  22.629   2.190
29348W        W93072  32.518  41.515  12.402
29349W        W93073  10.867  31.541  11.553
29350W        W93074  40.031  17.626   3.218
29351W        W93075  28.638  24.562   4.665
29352W        W93076  11.182  29.448  14.302
29353W        W93077  36.986  25.977   3.325
29354W        W93078   2.366  13.717  14.496
29355W        W93079  33.923  17.197   2.348
29356W        W93080  31.487  32.097   2.705
29357W        W93081  19.718  33.989  14.845
29358W        W93082   6.400  30.072  10.508
29359W        W93083   3.809  15.329  13.543
29360W        W93084   8.278   5.392  11.521
29361W        W93085   3.350  25.175   0.276
29362W        W93086  14.600  33.540   1.799
29363W        W93087  31.616  33.986   3.663
29364W        W93088  40.422  29.919  10.938
29365W        W93089  31.433  18.646  13.945
29366W        W93090  28.995   7.370   3.703
29367W        W93091  24.576  10.338   0.481
29368W        W93092  13.738  27.471   1.361
29369W        W93093  29.158  27.639   2.664
29370W        W93094  34.100  27.669  14.409
29371W        W93095  21.537   4.360   0.852
29372W        W93096  37.372   8.271  11.527
29373W        W93097  40.943  23.058  13.859
29374W        W93098  27.088  17.062   3.865
29375W        W93099   9.169  31.573   3.163
29376W        W93100  11.865  44.829   3.176
29377W        W93101  17.296   5.297  13.952
29378W        W93102  41.968  23.987   2.307
29379W        W93103  21.223  16.181   0.459
29380W        W93104  34.394  25.564   1.772
29381W        W93105  41.949  31.146   4.229
29382W        W93106   8.377   9.361   0.475
29383W        W93107  42.361  42.951  13.944
29384W        W93108   5.289  44.346  11.009
29385W        W93109  30.060  42.371  11.013
29386W        W93110  43.449  16.100   2.410
29387W        W93111  41.876  26.474   1.795
29388W        W93112  30.076   4.769  13.921
29389W        W93113  18.576  22.626   3.810
29390W        W93114  42.888   0.890   3.790
29391W        W93115   3.842  17.707  12.957
29392W        W93116  42.465  18.070   2.858
29393W        W93117   0.450  29.625   4.838
29394W        W93118  18.660  25.046   2.663
29395W        W93119  33.575  16.314  11.089
29396W        W93120  35.952  39.920   4.268
29397W        W93121  40.868  43.927   0.744
29398W        W93122   0.908  43.429   4.719
29399W        W93123  41.864  15.188  12.560
29400W        W93124  20.548  39.487  13.873
29401W        W93125   1.753  38.397   0.274
29402W        W93126  22.501  31.428  10.642
29403W        W93127  28.015  31.457   0.870
29404W        W93128   9.751  36.552   0.303
29405W        W93129  40.012  33.063   2.274
29406W        W93130  15.751  15.699  10.575
29407W        W93131   5.808   3.327  13.387
29408W        W93132  20.183  42.310  10.551
29409W        W93133  44.393  14.727  10.031
29410W        W93134  11.144  11.677  14.989
29411W        W93135  25.093  16.788  13.346
29412W        W93136  30.966  43.768   2.872
29413W        W93137  39.934  23.573   2.344
29414W        W93138   6.421  43.405  14.972
29415W        W93139   7.827   6.802  12.982
29416W        W93140  42.776  32.971   0.474
29417W        W93141  40.050  21.259   5.182
29418W        W93142  42.985   5.870  12.414
29419W        W93143   8.303  21.122   3.187
29420W        W93144  36.395  41.399  11.474
29421W        W93145  31.450  18.256  10.929
29422W        W93146   7.850  26.621   2.842
29423W        W93147  44.496  34.512   4.295
29424W        W93148  40.971  14.650  13.051
29425W        W93149  34.939   6.292  12.443
29426W        W93150   2.432  11.135  11.504
29427W        W93151  23.063   8.719   3.242
29428W        W93152  35.083  23.575  12.417
29429W        W93153  34.061  26.107  11.039
29430W        W93154  23.169  25.135   3.825
29431W        W93155   8.211  11.161   2.192
29432W        W93156  22.524  15.186  11.010
29433W        W93157  31.523   5.919   3.639
29434W        W93158  31.011  28.549   0.291
29435W        W93159   0.474  34.400   0.824
29436W        W93160  35.436  26.008   4.316
29437W        W93161  18.696  33.471   3.728
29438W        W93162  17.767  27.464   4.752
29439W        W93163  18.664  34.387   1.894
29440W        W93164  15.198  10.857  11.374
29441W        W93165  31.927  30.113  14.023
29442W        W93166  10.680   4.415   1.441
29443W        W93167   8.743   6.363   0.438
29444W        W93168  32.594   5.783   1.832
29445W        W93169   3.297  15.640  10.480
29446W        W93170  19.161  21.714   1.918
29447W        W93171  32.492  29.995   4.252
29448W        W93172  36.902  17.203   4.267
29449W        W93173  13.689  25.003  11.443
29450W        W93174  35.453   2.470   3.312
29451W        W93175  11.138  40.943   4.157
29452W        W93176  31.135  14.687  11.448
29453W        W93177   1.415   5.882   3.209
29454W        W93178  43.363  14.259   1.927
29455W        W93179  23.133  19.660  12.998
29456W        W93180  29.622  44.477  11.469
29457W        W93181  20.158   6.860  14.354
29458W        W93182  18.185  28.556   3.259
29459W        W93183   4.805   5.264   2.859
29460W        W93184   5.321  22.113   0.261
29461W        W93185  40.530   1.847   4.692
29462W        W93186  13.272  40.909   3.763
29463W        W93187  24.678  20.077  10.570
29464W        W93188  27.578  10.707   0.348
29465W        W93189  21.040  34.536   4.606
29466W        W93190  17.123  40.428   4.167
29467W        W93191  38.415  37.965  14.796
29468W        W93192  10.790  15.677   0.878
29469W        W93193  17.786  35.544   2.827
29470W        W93194  12.337  33.421   0.333
29471W        W93195  43.894  36.352   0.275
29472W        W93196  14.743   5.333   3.190
29473W        W93197  40.856  23.121   1.290
29474W        W93198  19.095  15.582   3.839
29475W        W93199  33.008  42.404   4.304
29476W        W93200  37.855   3.306   2.275
29477W        W93201  19.085  19.544  12.071
29478W        W93202  18.120   0.337   1.796
29479W        W93203  38.416  41.291   2.747
29480W        W93204  35.866  19.623  12.519
29481W        W93205  14.156   1.857  10.548
29482W        W93206  36.016  30.073  12.932
29483W        W93207  31.459  33.403   0.474
29484W        W93208  44.865  22.637   9.972
29485W        W93209  31.408  29.597   3.703
29486W        W93210  44.972   7.834   3.367
29487W        W93211  30.940  21.189  11.518
29488W        W93212  44.471   4.742  13.537
29489W        W93213  27.083  33.392   2.891
29490W        W93214  31.040  35.078  12.982
29491W        W93215  26.608  10.334   3.353
29492W        W93216   1.390   8.727  13.463
29493W        W93217  27.525  36.381  10.567
29494W        W93218  11.143  16.650   3.333
29495W        W93219  40.503  35.017  10.995
29496W        W93220  42.938  44.486   3.313
29497W        W93221   8.176  39.466   3.295
29498W        W93222  27.581  29.072  10.490
29499W        W93223  40.913   7.679   3.297
29500W        W93224  23.019  14.643  11.005
29501W        W93225  25.628   8.313   2.350
29502W        W93226  40.847  35.549   1.817
29503W        W93227  25.964  24.111   4.354
29504W        W93228  20.201  33.482  14.340
29505W        W93229  20.631  18.573   3.798
29506W        W93230   9.648  37.433  12.094
29507W        W93231   0.913   8.160   0.433
29508W        W93232  44.977   8.848  13.849
29509W        W93233  20.233  41.961   3.796
29510W        W93234  16.755  10.874   3.631
29511W        W93235  22.716  18.108   4.788
29512W        W93236  11.671   4.830   3.632
29513W        W93237  24.081   9.200  14.307
29514W        W93238  20.606   9.800  14.996
29515W        W93239  21.547  37.050  11.918
29516W        W93240  37.962   3.349  11.869
29517W        W93241  20.274  41.398   0.371
29518W        W93242  11.197   0.859   0.938
29519W        W93243  42.336  14.752   4.245
29520W        W93244  14.097  21.573   4.665
29521W        W93245  32.564  30.658   2.692
29522W        W93246  43.980  29.102   0.391
29523W        W93247  15.672   8.827   4.304
29524W        W93248   3.415  33.434  12.457
29525W        W93249  33.079  33.603  11.078
29526W        W93250  32.030  40.946  14.951
29527W        W93251   8.194  34.468   2.745
29528W        W93252  26.516   1.246   0.952
29529W        W93253  16.202   9.722   1.934
29530W        W93254  31.499  18.098  11.917
29531W        W93255  30.527  23.007  14.013
29532W        W93256  42.524  27.988  11.492
29533W        W93257  11.641  22.555   2.699
29534W        W93258  22.608  39.374  11.895
29535W        W93259  43.937  43.838   0.728
29536W        W93260  15.099  24.205  14.371
29537W        W93261  35.480  41.880   3.805
29538W        W93262  33.896  24.666   1.700
29539W        W93263  40.524  28.131   4.312
29540W        W93264  32.562  30.636  14.848
29541W        W93265   1.263   3.823  10.508
29542W        W93266   7.335  12.820   0.251
29543W        W93267  26.459  28.451   9.495
29544W        W93268  43.512  22.546   1.320
29545W        W93269  12.264   7.226  13.527
29546W        W93270  15.748  14.161   3.295
29547W        W93271  14.802  40.516   1.840
29548W        W93272  20.086  21.120  13.821
29549W        W93273  19.606  39.885  14.468
29550W        W93274  21.554  18.592  12.930
29551W        W93275  33.948  43.900  14.459
29552W        W93276  32.039  29.459  14.397
29553W        W93277  19.128  32.538   0.367
29554W        W93278   8.857  25.085   4.266
29555W        W93279  37.536  29.004   0.363
29556W        W93280  27.549  44.302  10.579
29557W        W93281  16.734  21.611  10.512
29558W        W93282  20.549  17.213   3.247
29559W        W93283  40.980  23.651   1.439
29560W        W93284  26.108  27.611   3.316
29561W        W93285  38.432   8.686  12.093
29562W        W93286  10.345  10.653  14.391
29563W        W93287  41.524  27.075  13.900
29564W        W93288  21.725   6.807   1.824
29565W        W93289  39.537  34.918   4.263
29566W        W93290  18.174  21.123  12.035
29567W        W93291  25.202  40.321  12.002
29568W        W93292  15.261  23.526  11.917
29569W        W93293  19.142   7.246   3.831
29570W        W93294  37.338  44.782   4.163
29571W        W93295   1.808  40.468  10.492
29572W        W93296  37.857  30.159   4.269
29573W        W93297  42.030  19.117  11.975
29574W        W93298  40.985  36.058  14.297
29575W        W93299  43.464   9.293   0.827
29576W        W93300  13.701  28.461   3.164
29577W        W93301   5.805   1.890  14.465
29578W        W93302  24.153  26.634  12.995
29579W        W93303  43.796  10.143  13.915
29580W        W93304  23.641   2.785   3.233
29581W        W93305  22.067  19.591   4.128
29582W        W93306  41.442  16.756   4.179
29583W        W93307  37.832  40.975   2.205
29584W        W93308  40.930   1.775   1.403
29585W        W93309  12.840  37.370  11.046
29586W        W93310  30.471  26.628  12.921
29587W        W93311  34.379   3.244   4.316
29588W        W93312  35.488  32.010  13.533
29589W        W93313  36.843  37.942  14.355
29590W        W93314  39.860  22.566   3.359
29591W        W93315   1.457   6.881   1.351
29592W        W93316  28.623  35.896  14.788
29593W        W93317   5.713   8.297   2.271
29594W        W93318  30.076   8.190  14.286
29595W        W93319  14.646  17.222  10.453
29596W        W93320  12.294  12.820  12.499
29597W        W93321  34.017  26.126   2.357
29598W        W93322  31.074  24.186   1.797
29599W        W93323   4.861   9.280   4.629
29600W        W93324  17.647   2.303  13.475
29601W        W93325  20.275   2.467  12.435
29602W        W93326  38.938  37.933  10.413
29603W        W93327   9.300  23.672   2.895
29604W        W93328  36.040  40.525   0.336
29605W        W93329  20.708  27.087  12.579
29606W        W93330  11.704  38.933  12.016
29607W        W93331  41.323  32.092   0.354
29608W        W93332   3.895  26.516   4.166
29609W        W93333  17.638  13.746   0.915
29610W        W93334  12.214  39.421   0.321
29611W        W93335   3.853  29.970  10.477
29612W        W93336  44.480  36.065  14.958
29613W        W93337  25.073  36.864  12.855
29614W        W93338  39.395  16.788  13.921
29615W        W93339  43.995   9.160   2.764
29616W        W93340  11.360  21.063  10.572
29617W        W93341   3.715  27.157   0.429
29618W        W93342   0.263  31.612  14.910
29619W        W93343  29.063  39.831   1.897
29620W        W93344  16.269  20.120   1.404
29621W        W93345  13.798  44.947   0.808
29622W        W93346  16.199  40.919  12.363
29623W        W93347   7.392  44.349   2.800
29624W        W93348  35.569   1.292  13.960
29625W        W93349  38.555  30.515   3.663
29626W        W93350  26.693   6.758  12.987
29627W        W93351   8.864  18.094  14.767
29628W        W93352  39.970   0.334   0.931
29629W        W93353  31.039  16.115   4.251
29630W        W93354  26.089  15.106  13.539
29631W        W93355  30.489  35.918  14.885
29632W        W93356  31.905  38.933  14.453
29633W        W93357  26.568   7.246  12.930
29634W        W93358  23.565   5.911  12.873
29635W        W93359  12.760  22.621   2.347
29636W        W93360  17.726  13.657   1.899
29637W        W93361   3.776   0.779  11.453
29638W        W93362  40.500  22.103  14.317
29639W        W93363  31.095   1.467   2.284
29640W        W93364  22.530  40.510   0.916
29641W        W93365   6.302  24.518   1.712
29642W        W93366  34.882  12.633   0.431
29643W        W93367   3.873   2.877   3.651
29644W        W93368  22.621   8.709   4.167
29645W        W93369  17.751   7.195  13.435
29646W        W93370   0.491  27.158  13.396
29647W        W93371  19.644   7.683   2.302
29648W        W93372  26.033  37.373   2.287
29649W        W93373   7.813  26.964   0.849
29650W        W93374  40.432  12.137   0.411
29651W        W93375  13.793  39.420   0.432
29652W        W93376  11.370   4.817   4.756
29653W        W93377   0.480   4.850  10.411
29654W        W93378   0.960   0.303  14.804
29655W        W93379   2.405  29.157  10.046
29656W        W93380  19.643   0.421   0.267
29657W        W93381  44.994   5.890  14.288
29658W        W93382  41.964  32.101  11.474
29659W        W93383   4.227  14.307   2.818
29660W        W93384  44.805  37.509   0.463
29661W        W93385  23.573   7.778   0.304
29662W        W93386  42.404   2.802   3.816
29663W        W93387  27.124  41.388  10.421
29664W        W93388  38.535  27.062   0.394
29665W        W93389  42.315  42.418   2.770
29666W        W93390   7.367  22.661   4.139
29667W        W93391  37.085  17.113  11.580
29668W        W93392  43.969  40.462  13.846
29669W        W93393  21.086  22.173  11.410
29670W        W93394   9.697  44.976  14.863
29671W        W93395   8.879   9.151   1.722
29672W        W93396   3.306  30.983   5.277
29673W        W93397  18.200  33.603  13.467
29674W        W93398   2.770  43.408  11.524
29675W        W93399  31.910   3.403   2.329
29676W        W93400   2.421  22.646  10.573
29677W        W93401   7.772  36.079   3.308
29678W        W93402  16.718  29.533  11.556
29679W        W93403  38.878  18.188   4.346
29680W        W93404  42.305  27.655  11.885
29681W        W93405  43.297  20.158   0.910
29682W        W93406   5.832  12.305  14.874
29683W        W93407  18.116  13.816  10.134
29684W        W93408  35.372  31.446  14.334
29685W        W93409  18.160   8.351   4.191
29686W        W93410  12.846   1.406   2.720
29687W        W93411  39.833  40.865   5.293
29688W        W93412   6.775   2.742   1.743
29689W        W93413  21.653  30.460   0.964
29690W        W93414  41.407   4.716  14.973
29691W        W93415  44.893  12.671  12.424
29692W        W93416  28.167  19.671   0.804
29693W        W93417  15.222  44.279   1.772
29694W        W93418  33.086  16.144   3.642
29695W        W93419  31.580  10.303   1.320
29696W        W93420  17.082   1.389   2.385
29697W        W93421  13.629  22.677  14.804
29698W        W93422   5.862  21.100   4.281
29699W        W93423  28.538   0.927   4.759
29700W        W93424  16.077   9.658  12.906
29701W        W93425  30.939  25.637   0.915
29702W        W93426  41.986  20.069  13.929
29703W        W93427  25.139  20.125  14.984
29704W        W93428   1.788  18.193  13.040
29705W        W93429   6.319   8.321  13.874
29706W        W93430  10.169   4.402  12.898
29707W        W93431  33.961  40.941   2.766
29708W        W93432  31.558  18.613   4.786
29709W        W93433  44.000  35.050  13.350
29710W        W93434  30.506  36.884  11.068
29711W        W93435  38.357   6.252   4.679
29712W        W93436  12.738   2.269   2.672
29713W        W93437   3.800  19.214   2.870
29714W        W93438   0.318  18.226   3.780
29715W        W93439  44.275  32.425   2.676
29716W        W93440  28.955   2.907   3.815
29717W        W93441  16.290   5.745  10.980
29718W        W93442  10.836  18.260  14.938
29719W        W93443  16.621  31.465  12.347
29720W        W93444  22.235  42.960   3.230
29721W        W93445  41.427  40.966  13.349
29722W        W93446   3.769  14.118   2.324
29723W        W93447  17.070  13.322   3.358
29724W        W93448  16.304  21.054  13.338
29725W        W93449  19.174  34.029   0.807
29726W        W93450  39.345  36.550  14.821
29727W        W93451  12.252   2.442  10.429
29728W        W93452  25.164  44.891  13.329
29729W        W93453   1.974  12.141   1.754
29730W        W93454   8.290   7.821  14.448
29731W        W93455  34.105  39.454  12.412
29732W        W93456   7.703  10.660  11.893
29733W        W93457  24.084  23.988   4.609
29734W        W93458  15.810  29.509  10.944
29735W        W93459  11.135  11.372  13.505
29736W        W93460   5.193  14.743  14.913
29737W        W93461  21.521  19.111   1.836
29738W        W93462  22.098  17.766  10.915
29739W        W93463  27.101  43.940  12.882
29740W        W93464  30.153  15.646  10.424
29741W        W93465  34.543   4.820  11.892
29742W        W93466  43.463  24.667  11.072
29743W        W93467   4.889   2.761  10.581
29744W        W93468  11.770  25.062  12.480
29745W        W93469  20.558   9.179   2.222
29746W        W93470  33.622  43.469  10.613
29747W        W93471   4.404  39.911   1.803
29748W        W93472  19.196  37.413   3.180
29749W        W93473  25.115   7.803   3.363
29750W        W93474   4.384  13.212  12.452
29751W        W93475  36.915   9.324  14.514
29752W        W93476  12.668  36.070  12.885
29753W        W93477   3.319  11.868   0.821
29754W        W93478  29.977  20.693   3.844
29755W        W93479  14.672  34.545   1.440
29756W        W93480  38.374   5.929  14.766
29757W        W93481  15.688  44.768   2.801
29758W        W93482  22.722  27.653  11.872
29759W        W93483   0.870  27.523   1.442
29760W        W93484  40.530   5.244  13.548
29761W        W93485  20.689  26.181  11.402
29762W        W93486  42.022  18.749   3.799
29763W        W93487  10.840   8.735  13.832
29764W        W93488  24.524   0.870   4.780
29765W        W93489   6.721  22.700   1.871
29766W        W93490  26.044  32.939   4.725
29767W        W93491   2.784  31.104   1.850
29768W        W93492  29.978   7.713   1.343
29769W        W93493   6.795   5.383  11.987
29770W        W93494  39.031  22.059   2.668
29771W        W93495  39.438  18.571  14.361
29772W        W93496  31.513   9.876  13.829
29773W        W93497   1.362  14.124  12.901
29774W        W93498  39.891  44.430   5.146
29775W        W93499  18.772  30.152  12.537
29776W        W93500  31.079  22.043   2.840
29777W        W93501   1.731  44.008   0.462
29778W        W93502   8.691  41.308   0.482
29779W        W93503  26.075   6.309   3.366
29780W        W93504  15.591  31.125  11.408
29781W        W93505  35.588  12.346  10.059
29782W        W93506  19.258  12.316   4.605
29783W        W93507  44.801  35.505  13.799
29784W        W93508   3.723  23.081   3.378
29785W        W93509   0.939   6.843   4.134
29786W        W93510  32.963  27.632   4.320
29787W        W93511  38.825  37.437  14.838
29788W        W93512  34.509  22.042   0.957
29789W        W93513  41.310  36.023   4.184
29790W        W93514  41.311  12.665  13.437
29791W        W93515  20.693  21.522   4.352
29792W        W93516   4.358  39.896  11.466
29793W        W93517   1.735  36.482  12.942
29794W        W93518   9.669   6.276  11.560
29795W        W93519  35.072  42.336   3.700
29796W        W93520  40.506  34.537   2.364
29797W        W93521  10.259  32.586  12.068
29798W        W93522  21.606  11.756   1.819
29799W        W93523  41.501  26.186   2.823
29800W        W93524   1.363   1.916   3.306
29801W        W93525   8.391  39.537  12.499
29802W        W93526  16.803  37.516  12.440
29803W        W93527   8.822  42.417   4.653
29804W        W93528  44.467  32.098  12.835
29805W        W93529   0.436  29.168  11.550
29806W        W93530  16.078   2.341  11.908
29807W        W93531  17.284   5.379  10.978
29808W        W93532  40.875  23.127  14.326
29809W        W93533   7.844  37.363  12.953
29810W        W93534  10.210  14.226   1.725
29811W        W93535  13.762  29.481   4.801
29812W        W93536  28.037  21.747  13.520
29813W        W93537   0.875  23.184  14.853
29814W        W93538  30.058  21.104  14.442
29815W        W93539   9.376  18.664  10.611
29816W        W93540  13.610  28.057  14.400
29817W        W93541  18.651  40.532   0.836
29818W        W93542   3.420   8.242   4.665
29819W        W93543  39.434  26.653   2.698
29820W        W93544  11.700  15.150   1.765
29821W        W93545   9.792  18.188  12.983
29822W        W93546   4.394  14.660   1.752
29823W        W93547  31.985   2.739   3.764
29824W        W93548  11.250  39.552   4.756
29825W        W93549  24.184  32.922  12.574
29826W        W93550  39.967  24.178   1.425
29827W        W93551  31.967   8.383   1.738
29828W        W93552  26.565  12.719   2.295
29829W        W93553  24.557  41.039  10.057
29830W        W93554   5.753  14.824   0.816
29831W        W93555  21.079  37.053   2.802
29832W        W93556  33.452  33.435   2.324
29833W        W93557  11.178  23.232  13.421
29834W        W93558  26.136   3.373   0.739
29835W        W93559  35.041  23.985  14.363
29836W        W93560   2.284   3.334  14.811
29837W        W93561  28.057  31.491   2.189
29838W        W93562  35.521   8.358  14.862
29839W        W93563  12.785  14.652   2.214
29840W        W93564  16.799  41.472   4.203
29841W        W93565  22.611  30.602   2.810
29842W        W93566  39.974  25.530  13.499
29843W        W93567  33.962  34.424   2.191
29844W        W93568  39.511   3.456   4.331
29845W        W93569  27.147  28.644  11.898
29846W        W93570  12.840  32.958  12.432
29847W        W93571  38.865   0.426   2.340
29848W        W93572   7.789  44.876   0.445
29849W        W93573  19.063  25.566  13.808
29850W        W93574  22.023  27.673  12.414
29851W        W93575  28.003  24.606   0.481
29852W        W93576   3.269  29.592  13.799
29853W        W93577   5.230  33.449  13.405
29854W        W93578   4.318  32.133   2.251
29855W        W93579  13.134  39.346  13.964
29856W        W93580   7.245  42.523  12.531
29857W        W93581  23.495   1.399  11.978
29858W        W93582  29.976  25.477   4.314
29859W        W93583  28.944  24.719  14.924
29860W        W93584  40.901   6.723  13.033
29861W        W93585  37.949  16.571   3.755
29862W        W93586  34.425  30.047  13.917
29863W        W93587  44.366  33.625   3.698
29864W        W93588  21.186  20.747   0.899
29865W        W93589   5.770  27.196   4.703
29866W        W93590  13.344  20.754  10.905
29867W        W93591  20.709   3.416  11.038
29868W        W93592  37.354  17.635  10.594
29869W        W93593  25.613  27.140  13.503
29870W        W93594  43.420  30.003  12.351
29871W        W93595  28.166  13.201   3.210
29872W        W93596  34.110  14.678  13.329
29873W        W93597  14.114  32.435  13.479
29874W        W93598   8.821  18.054  14.344
29875W        W93599  13.638  15.697   4.746
29876W        W93600  12.118   5.824   4.132
29877W        W93601   3.249  32.636  12.411
29878W        W93602   1.451  44.438   0.352
29879W        W93603  24.591  25.973   9.615
29880W        W93604   9.806  41.960  11.984
29881W        W93605  23.650  21.103  11.021
29882W        W93606  19.156  37.480   0.259
29883W        W93607  41.376   8.849  13.015
29884W        W93608  17.234  25.506   4.303
29885W        W93609  22.096   6.888   4.149
29886W        W93610   1.280   4.252   0.339
29887W        W93611  44.912  25.083   4.605
29888W        W93612  12.832   8.737  13.400
29889W        W93613  28.661  23.056   4.786
29890W        W93614  31.580  22.046   3.297
29891W        W93615  33.879  39.538  14.012
29892W        W93616  16.637  17.763   3.286
29893W        W93617  21.024  29.632   0.887
29894W        W93618   0.491  37.048   4.725
29895W        W93619  39.517  23.235  12.010
29896W        W93620  29.132   7.407  14.495
29897W        W93621  44.787   6.707   3.167
29898W        W93622  17.666  11.698   3.258
29899W        W93623  27.509  18.637   0.466
29900W        W93624  31.477  16.303   3.814
29901W        W93625  35.597  11.632   2.250
29902W        W93626  36.901  26.547   1.880
29903W        W93627  23.048   9.754  12.997
29904W        W93628  31.117  37.437  11.545
29905W        W93629  21.531  17.591  12.035
29906W        W93630   5.754  41.001  11.102
29907W        W93631   2.472   1.914  14.473
29908W        W93632  15.661  22.146   3.665
29909W        W93633  39.817  21.588   4.190
29910W        W93634   3.772  42.940   0.957
29911W        W93635   5.223  19.565   4.820
29912W        W93636   3.942  42.007   0.843
29913W        W93637  41.026  29.596  14.509
29914W        W93638  10.320   7.881   0.312
29915W        W93639   9.249  13.762   2.212
29916W        W93640  40.015   8.344   0.369
29917W        W93641  10.709   0.280  10.610
29918W        W93642  23.010  31.909   2.353
29919W        W93643  34.595  22.015   2.409
29920W        W93644  42.890  36.534  10.536
29921W        W93645  33.424  28.964  10.643
29922W        W93646  17.099  33.943   1.361
29923W        W93647  31.622  30.653  12.849
29924W        W93648  15.265  23.059  12.481
29925W        W93649   5.754   4.819  13.856
29926W        W93650  11.270  24.686  10.547
29927W        W93651  29.092   3.753  11.481
29928W        W93652  31.924   5.753   0.482
29929W        W93653   5.432  29.639  14.924
29930W        W93654  42.380  41.960   1.288
29931W        W93655  37.061   9.792   1.926
29932W        W93656  24.548  30.461   0.901
29933W        W93657   5.277  40.877   3.362
29934W        W93658  44.398  32.100   0.270
29935W        W93659  39.482  44.488   1.923
29936W        W93660  31.931  40.920  12.874
29937W        W93661  30.438   9.202   3.268
29938W        W93662  32.487  16.766   0.324
29939W        W93663  27.957   7.808   4.201
29940W        W93664  14.822  28.989  12.867
29941W        W93665  27.086  29.976   1.224
29942W        W93666   9.647  11.762  14.913
29943W        W93667  34.393   6.428   4.230
29944W        W93668  30.653   6.308  12.364
29945W        W93669  21.636  30.914   0.335
29946W        W93670  28.051   2.958  12.914
29947W        W93671   7.761  43.897   4.766
29948W        W93672  31.525   9.680  12.434
29949W        W93673  41.806   9.755   3.162
29950W        W93674  20.604  27.686  14.880
29951W        W93675   9.687   2.392   0.379
29952W        W93676   8.696  30.921   3.791
29953W        W93677  32.896  36.075  12.408
29954W        W93678  14.671  20.593  12.506
29955W        W93679  34.597  11.195   1.713
29956W        W93680  18.145  19.052  13.321
29957W        W93681   6.707   3.436   3.324
29958W        W93682  44.995  20.620   3.774
29959W        W93683  42.460  24.093   3.289
29960W        W93684  28.145   6.822   0.474
29961W        W93685  31.920  12.220   3.298
29962W        W93686  26.163   2.370   1.872
29963W        W93687  30.101  27.116  13.964
29964W        W93688  38.000  43.308   0.392
29965W        W93689  18.670  42.780   0.399
29966W        W93690  22.065  10.159  13.411
29967W        W93691  44.353  10.221  13.367
29968W        W93692  22.199  29.927  14.999
29969W        W93693  14.687  33.080  11.112
29970W        W93694  30.963  29.498   2.255
29971W        W93695  11.750  12.797  14.504
29972W        W93696   2.287  11.833   2.289
29973W        W93697  31.077   0.907  13.830
29974W        W93698  28.492  12.222  11.496
29975W        W93699  10.216  38.039  10.579
29976W        W93700  35.390  11.303   2.797
29977W        W93701   7.270  22.029   4.831
29978W        W93702  11.303  23.233   4.791
29979W        W93703  27.153  21.018  10.436
29980W        W93704  14.302  20.052  11.999
29981W        W93705  29.926  31.919  14.999
29982W        W93706  11.159  19.274  10.990
29983W        W93707   3.245  39.903   4.240
29984W        W93708   5.244  31.627   2.209
29985W        W93709  36.531  36.909  13.367
29986W        W93710  24.035   4.925  12.511
29987W        W93711   9.310  41.812  13.331
29988W        W93712  34.070  22.079  11.449
29989W        W93713  37.512  28.000  13.424
29990W        W93714  35.917  27.495  13.545
29991W        W93715  22.156  23.540   4.606
29992W        W93716  42.999  18.288  12.345
29993W        W93717  30.607  35.902   4.609
29994W        W93718  13.834   0.323   4.768
29995W        W93719  38.452  40.351   2.798
29996W        W93720  44.937  29.669  10.900
29997W        W93721   3.401  43.807   2.387
29998W        W93722  25.498  37.358   5.280
29999W        W93723   3.788  24.718  13.426
30000W        W93724  37.968   1.377  14.780
30001W        W93725  31.502  32.000   1.833
30002W        W93726   1.263   1.299   3.229
30003W        W93727  31.435  38.534  11.548
30004W        W93728  19.763  19.085   1.772
30005W        W93729   5.323  33.072   3.334
30006W        W93730  23.643  39.390  14.887
30007W        W93731  41.042   9.648  14.452
30008W        W93732   4.351   9.872  12.564
30009W        W93733   3.423   2.800  11.511
30010W        W93734  13.209  17.086  12.996
30011W        W93735  34.582  27.534  11.458
30012W        W93736  21.561  39.481  11.607
30013W        W93737   0.858  19.733  14.926
30014W        W93738  12.213  22.561   1.780
30015W        W93739  35.006  16.632   5.270
30016W        W93740  33.051  21.530   3.776
30017W        W93741  32.983  40.002   0.910
30018W        W93742   5.267  42.808  12.558
30019W        W93743   8.784  19.128  13.906
30020W        W93744   9.693  42.812  14.798
30021W        W93745  10.238  26.684   2.306
30022W        W93746  23.501   8.269  10.509
30023W        W93747   4.771  12.230   1.365
30024W        W93748  13.125  30.988   4.715
30025W        W93749  12.842  20.530   0.309
30026W        W93750  27.501   2.292  12.979
30027W        W93751  32.045   5.789   2.393
30028W        W93752  14.232  43.500   4.268
30029W        W93753  40.510   5.423   2.344
30030W        W93754  17.739  16.227   4.677
30031W        W93755   0.334  44.896   3.752
30032W        W93756   0.962  21.090   1.331
30033W        W93757  27.533  28.134   1.774
30034W        W93758  15.746   4.408  13.808
30035W        W93759  15.772  32.977   2.378
30036W        W93760   0.373   8.160  10.457
30037W        W93761   3.271  38.939  14.823
30038W        W93762  12.657  10.227   1.743
30039W        W93763   9.845  14.747   2.813
30040W        W93764  30.465  24.120   3.738
30041W        W93765   8.671   8.720  10.450
30042W        W93766   8.898  24.059   3.799
30043W        W93767   2.808   2.450   0.921
30044W        W93768  17.071  11.771  10.005
30045W        W93769   5.835   0.772  14.301
30046W        W93770   8.191  25.182  13.880
30047W        W93771  39.967  23.661   4.192
30048W        W93772  36.590   8.354   1.342
30049W        W93773  29.521  43.401  14.920
30050W        W93774  11.353   5.882   1.235
30051W        W93775   8.196  29.458  14.351
30052W        W93776  26.681  25.647   0.944
30053W        W93777  40.820   5.206   2.259
30054W        W93778  43.959  17.246   3.844
30055W        W93779  12.179  10.832   0.482
30056W        W93780  36.499  21.156  14.861
30057W        W93781   6.850   2.421   4.332
30058W        W93782  36.926  14.122   1.287
30059W        W93783  35.474  11.718   1.390
30060W        W93784  32.535  20.148   3.650
30061W        W93785  11.237   1.263   0.934
30062W        W93786  19.627  23.687  11.602
30063W        W93787  26.076  24.531   3.302
30064W        W93788  23.037   8.674  10.437
30065W        W93789  35.981  11.691   2.832
30066W        W93790  32.565  35.890  13.390
30067W        W93791  26.581  43.437  12.465
30068W        W93792  18.264  35.064   4.822
30069W        W93793  33.008  32.548  11.028
30070W        W93794   6.375  28.598  10.457
30071W        W93795  20.719   9.181   0.903
30072W        W93796  22.200  44.285  13.348
30073W        W93797   7.695  26.583  10.028
30074W        W93798  40.513  27.689   2.342
30075W        W93799  13.255  33.059   3.370
30076W        W93800  13.776   1.939  11.084
30077W        W93801  42.004  44.799   1.754
30078W        W93802   8.182  25.010   2.691
30079W        W93803  19.758   2.747  14.962
30080W        W93804   2.918   6.341   4.253
30081W        W93805  37.383  38.819  12.967
30082W        W93806  43.457   5.904  12.971
30083W        W93807  41.884  41.505  14.360
30084W        W93808  41.926   1.442  13.364
30085W        W93809  42.482   5.779  13.941
30086W        W93810  18.668  29.428  10.145
30087W        W93811  41.446  34.905  13.339
30088W        W93812  28.043  40.945  12.497
30089W        W93813   4.431  33.468  11.611
30090W        W93814  13.276  43.975  13.919
30091W        W93815  40.427   9.646   0.765
30092W        W93816   0.873   6.319   0.302
30093W        W93817   9.155  23.612   4.200
30094W        W93818   7.793  23.608  12.566
30095W        W93819  31.029   0.463  12.837
30096W        W93820  26.668   8.200  12.403
30097W        W93821  14.812   7.737   4.281
30098W        W93822  39.851  40.866  14.473
30099W        W93823   7.890   7.188   3.825
30100W        W93824   4.844  43.276   0.484
30101W        W93825  19.080  27.946   1.314
30102W        W93826  37.045  26.613   1.255
30103W        W93827  36.048  17.774   0.802
30104W        W93828  35.524  32.018   3.385
30105W        W93829   2.449  38.413   1.869
30106W        W93830  15.813  23.080  13.496
30107W        W93831  12.808   4.406  14.468
30108W        W93832  21.687  22.234   1.728
30109W        W93833  19.671  24.552  14.291
30110W        W93834  26.470   8.200  13.455
30111W        W93835  31.057  33.429  13.474
30112W        W93836  14.807  12.137   2.229
30113W        W93837  44.318  43.409   1.861
30114W        W93838   1.381  26.658  12.869
30115W        W93839  35.930  21.549   4.664
30116W        W93840  18.240   5.700  12.512
30117W        W93841   0.867  10.321  14.966
30118W        W93842  18.052  43.772  14.307
30119W        W93843   3.367   6.341   5.267
30120W        W93844  20.576  40.450  10.525
30121W        W93845  43.885  44.991   0.311
30122W        W93846  35.423  27.987  11.997
30123W        W93847  11.642   1.798   0.252
30124W        W93848  35.039  20.031   4.834
30125W        W93849   4.906  14.124  13.946
30126W        W93850  28.115  42.776   4.621
30127W        W93851  41.835   0.490   2.713
30128W        W93852  13.125  17.259   3.290
30129W        W93853  37.375  22.132  10.591
30130W        W93854  44.002  34.412  10.602
30131W        W93855   2.892  16.615   0.916
30132W        W93856  38.877   7.209   4.249
30133W        W93857  25.207  15.721   0.434
30134W        W93858   9.726  34.380  12.428
30135W        W93859  16.234  44.269  13.484
30136W        W93860  15.665  29.505   1.842
30137W        W93861   3.802  33.983   4.663
30138W        W93862  14.226  14.773   2.823
30139W        W93863   3.278  13.815   2.793
30140W        W93864   8.823  42.958   4.307
30141W        W93865  36.933  35.005   0.381
30142W        W93866  19.762  26.988  12.485
30143W        W93867  26.097  30.942   4.658
30144W        W93868  40.809  11.836   2.766
30145W        W93869  38.890  10.824  12.507
30146W        W93870  42.291  27.158  13.835
30147W        W93871  38.075  24.985   0.390
30148W        W93872  35.018  36.864   1.261
30149W        W93873  30.922  15.747   2.178
30150W        W93874  27.613  19.739   2.703
30151W        W93875  40.831  33.126  11.612
30152W        W93876  13.210   0.457  13.807
30153W        W93877  29.643   5.840  13.970
30154W        W93878   0.313  37.375   3.651
30155W        W93879  31.422   4.376  13.443
30156W        W93880  40.821  10.338   0.357
30157W        W93881  27.537   1.809  14.507
30158W        W93882  27.634  19.230   2.378
30159W        W93883  18.239   4.246  11.052
30160W        W93884   8.851  17.305   0.892
30161W        W93885  35.582  33.973   4.641
30162W        W93886  18.628  10.833   3.733
30163W        W93887  30.910  36.464  12.406
30164W        W93888  10.766  17.648   1.916
30165W        W93889  41.829   0.327  12.494
30166W        W93890  44.758  39.061  10.484
30167W        W93891  10.749  19.113  12.841
30168W        W93892  36.902   2.930  11.952
30169W        W93893  11.856  43.336   0.728
30170W        W93894  26.515  22.194  10.055
30171W        W93895  28.030  37.966  14.994
30172W        W93896  26.166  32.003  10.498
30173W        W93897  38.426  32.119  11.934
30174W        W93898  35.021  33.447  12.931
30175W        W93899  40.431  20.261   3.852
30176W        W93900   9.365  26.195  12.084
30177W        W93901  20.272   3.245   3.755
30178W        W93902   0.797   1.438  11.040
30179W        W93903  20.055  17.207   5.091
30180W        W93904  25.661  27.529  10.538
30181W        W93905  18.629  41.375   2.410
30182W        W93906  24.027  10.177   2.341
30183W        W93907  11.691  15.678  12.578
30184W        W93908  23.033  18.650   2.358
30185W        W93909   8.890   0.454   4.301
30186W        W93910  32.520  14.115   0.396
30187W        W93911  24.514  43.386  10.424
30188W        W93912  36.480   6.807   2.721
30189W        W93913  20.229  30.638   2.726
30190W        W93914  40.533  34.522   9.529
30191W        W93915  14.815  32.075  14.990
30192W        W93916   4.390  16.260   0.481
30193W        W93917  28.138  37.545   2.677
30194W        W93918  44.932   9.340   3.241
30195W        W93919  15.740   2.333  11.049
30196W        W93920  40.993  36.588   4.135
30197W        W93921  22.623  21.049   2.747
30198W        W93922  16.661  20.677   2.679
30199W        W93923  24.160  43.987  12.506
30200W        W93924  14.796  34.566   3.817
30201W        W93925  18.137  28.948  14.767
30202W        W93926   0.918  27.446  14.857
30203W        W93927  42.303  26.620  14.811
30204W        W93928   4.789  39.395  14.009
30205W        W93929  31.919   4.845  10.413
30206W        W93930  14.685  34.992  11.608
30207W        W93931  16.265  29.148  11.046
30208W        W93932  32.973   3.428   2.325
30209W        W93933  38.861  22.138   0.803
30210W        W93934  34.558   5.726   0.420
30211W        W93935  20.112  37.454  13.479
30212W        W93936  25.589  29.017  11.500
30213W        W93937  35.485  16.639   2.831
30214W        W93938  20.737  44.317  11.396
30215W        W93939  16.779  17.120  11.043
30216W        W93940   3.385  41.846  11.915
30217W        W93941  37.347  21.756  11.037
30218W        W93942   2.410   0.253  13.964
30219W        W93943   6.859  19.629   1.395
30220W        W93944   7.790  27.478  14.302
30221W        W93945  41.463   1.445   2.867
30222W        W93946  21.642   4.713  10.530
30223W        W93947  40.980  31.488  12.423
30224W        W93948   3.273  11.173   2.738
30225W        W93949  24.123  44.380  13.903
30226W        W93950  24.118  35.998  14.945
30227W        W93951  35.574  13.754  10.578
30228W        W93952  18.129  29.635  11.070
30229W        W93953  16.695  14.290   3.858
30230W        W93954  28.471  28.446   2.378
30231W        W93955  34.470  40.007  11.008
30232W        W93956   0.394   5.277  13.403
30233W        W93957  30.069   9.182   2.254
30234W        W93958  23.595  41.406  12.372
30235W        W93959  26.161  41.311   4.281
30236W        W93960  13.291  39.433   0.399
30237W        W93961  34.085  31.600   0.864
30238W        W93962  29.540   3.730  11.104
30239W        W93963   7.328  14.665  14.012
30240W        W93964  25.085  35.906  11.079
30241W        W93965  29.516  39.520  13.844
30242W        W93966  22.240  42.982   1.909
30243W        W93967  32.982  26.496   3.726
30244W        W93968  32.933  33.422  14.514
30245W        W93969   3.782  29.512   4.147
30246W        W93970   4.891  32.576  11.429
30247W        W93971  31.018  20.059  13.384
30248W        W93972  29.998  30.048   3.287
30249W        W93973  18.169  23.059   3.160
30250W        W93974  43.400  22.531  13.485
30251W        W93975   7.854  25.527   4.182
30252W        W93976  18.679  40.980   1.793
30253W        W93977  10.347   6.915  13.459
30254W        W93978  15.188  36.958   0.807
30255W        W93979  40.873  37.946  13.512
30256W        W93980  37.352   7.271   1.870
30257W        W93981   7.909   1.308   1.864
30258W        W93982  25.093  42.019   3.862
30259W        W93983  15.256  29.162  12.982
30260W        W93984  31.073   5.874   1.911
30261W        W93985  33.610  26.576   4.114
30262W        W93986  36.511  38.372   1.261
30263W        W93987  29.943  36.905  13.909
30264W        W93988  33.892  42.832   5.132
30265W        W93989   3.953   0.316   4.341
30266W        W93990   8.184  12.742   5.221
30267W        W93991  38.859  39.369   2.762
30268W        W93992   5.242  42.864   4.289
30269W        W93993   4.335  42.949  10.446
30270W        W93994  12.624  18.085  12.348
30271W        W93995  23.728  35.882   0.846
30272W        W93996  38.008  13.619  14.782
30273W        W93997   9.370  29.169  14.373
30274W        W93998  31.415  43.507  11.947
30275W        W93999  19.102   6.264  14.976
30276W        W94000   9.197  40.512  12.366
30277W        W94001  16.783  34.076   0.864
30278W        W94002  30.907  23.217  11.117
30279W        W94003  13.689  21.707   3.194
30280W        W94004  37.422  42.998  14.334
30281W        W94005  33.595  32.414  14.008
30282W        W94006  12.171  39.483  14.398
30283W        W94007   6.852  10.262   4.623
30284W        W94008   7.735  10.816   4.167
30285W        W94009   8.828  11.141  10.962
30286W        W94010  30.598   7.881  12.059
30287W        W94011  25.108  24.016   3.723
30288W        W94012  22.563   9.850  14.340
30289W        W94013   3.456  23.175  13.903
30290W        W94014  24.069  19.228  13.812
30291W        W94015  32.400  44.913  12.007
30292W        W94016  37.337  24.197   1.321
30293W        W94017   7.798  33.883   1.806
30294W        W94018  30.466  41.848  14.330
30295W        W94019   8.318  36.541  14.503
30296W        W94020  35.878  13.682  12.552
30297W        W94021  16.111  43.993   3.352
30298W        W94022  43.829  25.209   5.087
30299W        W94023  19.750   4.288   0.864
30300W        W94024  34.882  26.664  13.833
30301W        W94025  26.042  39.540  13.343
30302W        W94026  10.300  12.184  14.397
30303W        W94027  17.226  20.559   0.898
30304W        W94028  33.521  36.447   0.965
30305W        W94029  16.583  33.607   1.866
30306W        W94030  17.611   9.689   1.838
30307W        W94031  32.404  38.358   0.456
30308W        W94032  33.977   7.767  12.839
30309W        W94033  31.972  25.612   1.895
30310W        W94034  21.139   3.440  11.388
30311W        W94035  24.978  33.583  13.368
30312W        W94036   4.748  10.787  14.304
30313W        W94037  12.769   2.246  11.880
30314W        W94038  19.615  30.426   2.192
30315W        W94039  22.171   8.725   2.300
30316W        W94040  37.047  28.662   0.310
30317W        W94041   7.392  15.813  11.085
30318W        W94042   1.785  18.714  11.518
30319W        W94043  37.402  34.874  13.448
30320W        W94044   3.338  31.562  12.370
30321W        W94045   2.293  27.571   4.700
30322W        W94046  36.093  38.436  13.041
30323W        W94047  40.498   7.762  10.918
30324W        W94048   6.358  29.605   3.748
30325W        W94049  15.670  41.833   3.828
30326W        W94050  28.950   1.964   2.763
30327W        W94051  38.899   1.906  10.642
30328W        W94052  39.934  21.564  11.450
30329W        W94053  27.151   6.739   2.662
30330W        W94054  14.261  16.128  12.387
30331W        W94055   6.302   7.237  11.444
30332W        W94056  29.478  11.859  13.333
30333W        W94057  19.157   3.926   4.780
30334W        W94058  38.567  28.073  12.015
30335W        W94059  32.109  18.172   2.758
30336W        W94060  41.455  34.120   0.806
30337W        W94061  39.971  12.169   0.955
30338W        W94062  41.868  40.331  10.906
30339W        W94063  14.743   4.373  12.863
30340W        W94064  33.506  44.991   4.313
30341W        W94065   5.266  16.153   2.324
30342W        W94066  29.556  15.748  10.936
30343W        W94067  39.984   6.746   2.367
30344W        W94068   8.320   2.281  12.394
30345W        W94069  35.035  28.104  12.365
30346W        W94070  28.550  36.402   2.790
30347W        W94071  23.125   0.777  13.336
30348W        W94072  31.090  27.591   1.282
30349W        W94073  35.474  13.201   0.914
30350W        W94074  40.050  27.535   4.133
30351W        W94075  33.509  39.878  13.974
30352W        W94076  23.224  19.283  10.457
30353W        W94077  36.918  26.593  14.851
30354W        W94078   1.305  24.033  12.066
30355W        W94079  24.611  43.766   2.327
30356W        W94080  11.630   6.191  12.897
30357W        W94081   5.833   1.349  13.401
30358W        W94082   7.338  29.582   2.763
30359W        W94083  10.247   1.913   0.844
30360W        W94084   7.846  20.095  13.499
30361W        W94085  38.394  17.115  12.464
30362W        W94086  18.125  43.777   3.802
30363W        W94087  30.598  29.556   0.928
30364W        W94088   9.321   2.842  13.413
30365W        W94089  19.180  40.026   5.252
30366W        W94090  13.698  25.990  14.016
30367W        W94091  20.133  42.883   4.779
30368W        W94092   0.287  12.751  14.942
30369W        W94093  35.908  38.891   0.820
30370W        W94094  21.554  41.435  11.396
30371W        W94095  22.717  24.115  14.779
30372W        W94096   5.809  29.979   1.762
30373W        W94097  28.052  13.168  11.600
30374W        W94098  22.191  29.603  14.939
30375W        W94099   1.287  10.763  11.569
30376W        W94100   3.747  27.492  11.530
30377W        W94101  36.036   3.875  12.969
30378W        W94102   1.766  24.215   2.842
30379W        W94103  26.634   4.362   0.455
30380W        W94104  30.074  34.923   2.308
30381W        W94105  30.012  20.707  11.479
30382W        W94106  25.473  11.772  11.864
30383W        W94107  22.728   6.738  10.610
30384W        W94108   7.745  22.008   4.203
30385W        W94109  40.009  16.293  14.509
30386W        W94110  27.539  44.766   3.280
30387W        W94111  14.094  43.459  12.880
30388W        W94112  25.545   0.304   1.883
30389W        W94113  40.810  44.419   3.328
30390W        W94114  28.037   1.317  12.968
30391W        W94115  42.953  19.201  14.480
30392W        W94116   8.693  20.029  12.491
30393W        W94117  34.547  30.541   4.117
30394W        W94118  42.430  40.987   1.380
30395W        W94119  40.486  24.992   0.847
30396W        W94120  34.595   6.316  13.035
30397W        W94121  13.341   1.321  10.410
30398W        W94122  38.331   4.885  10.929
30399W        W94123  29.978  12.635   0.768
30400W        W94124  37.380  43.893  13.486
30401W        W94125  25.468   6.402   4.149
30402W        W94126  41.492  36.391  12.947
30403W        W94127  27.624  11.727   0.855
30404W        W94128  20.585  44.986   0.774
30405W        W94129  20.094  34.412   1.777
30406W        W94130  40.864  26.581   1.872
30407W        W94131  29.016  33.117  10.954
30408W        W94132  35.559  38.854   3.764
30409W        W94133  34.523  31.108  12.387
30410W        W94134  13.136  30.520   4.693
30411W        W94135  18.214  43.940  10.624
30412W        W94136  33.032  34.006  12.858
30413W        W94137  22.638  13.611  14.304
30414W        W94138  37.420  21.161  14.824
30415W        W94139  39.023  29.439   1.916
30416W        W94140   2.778   1.818  14.013
30417W        W94141   0.868  42.953  14.409
30418W        W94142  15.185   6.800   5.276
30419W        W94143  36.492  16.601   4.205
30420W        W94144   8.181  38.545  11.433
30421W        W94145  35.109  41.408  11.115
30422W        W94146  22.732  14.279  10.468
30423W        W94147  42.332  32.058  13.472
30424W        W94148   9.650  36.411  13.501
30425W        W94149  14.776  24.146   2.252
30426W        W94150  39.870  37.894  14.881
30427W        W94151   5.784  29.957   2.704
30428W        W94152  19.147  41.867  12.363
30429W        W94153  24.162  15.819  14.418
30430W        W94154  24.049  36.079  12.850
30431W        W94155  27.014  28.457   3.781
30432W        W94156  29.980  34.455  14.823
30433W        W94157  43.465  41.792   5.787
30434W        W94158  10.778   3.252   4.606
30435W        W94159  13.217  30.921   2.743
30436W        W94160  11.229   4.836   3.736
30437W        W94161  35.862  36.976  10.458
30438W        W94162  24.722   0.379   4.663
30439W        W94163  25.056   0.451  14.449
30440W        W94164  25.139  24.171   3.367
30441W        W94165  11.276  12.197  14.859
30442W        W94166   2.911   5.286  12.494
30443W        W94167   5.236  26.980  11.037
30444W        W94168  26.470  26.612   1.303
30445W        W94169   2.310  17.106   2.753
30446W        W94170  31.908   3.249  13.485
30447W        W94171  17.644  14.307  14.881
30448W        W94172  11.808   6.273   3.200
30449W        W94173  15.713  42.321  11.502
30450W        W94174  30.450  26.175   4.355
30451W        W94175  29.010  31.412  11.563
30452W        W94176  27.085  18.145  14.400
30453W        W94177  19.100  20.046   4.683
30454W        W94178  35.432  11.827   2.791
30455W        W94179  24.486  42.474   3.842
30456W        W94180  37.836   2.370  14.931
30457W        W94181   8.285   6.736  14.410
30458W        W94182  44.906  26.690  13.892
30459W        W94183  34.476   2.339  11.401
30460W        W94184  44.474  29.050  10.462
30461W        W94185   2.783  43.903  14.960
30462W        W94186  24.044   0.339   4.320
30463W        W94187  29.590  26.666   5.307
30464W        W94188  21.684   2.803  13.916
30465W        W94189  40.834  42.412   3.752
30466W        W94190  22.040   1.940   4.271
30467W        W94191  21.230   7.764  11.971
30468W        W94192  30.124  30.616  12.347
30469W        W94193   5.743   8.214   0.243
30470W        W94194  14.246  24.485   4.173
30471W        W94195   9.786  40.314   2.262
30472W        W94196  31.999  44.390  10.594
30473W        W94197  44.292  18.608   9.922
30474W        W94198   7.329  38.558   0.321
30475W        W94199  44.270  26.018   2.282
30476W        W94200  34.591  14.785  12.997
30477W        W94201  35.560   8.669  14.960
30478W        W94202  26.105  24.063  11.896
30479W        W94203  36.003  14.823  13.969
30480W        W94204   4.260   1.325  13.054
30481W        W94205  41.491  20.040  14.478
30482W        W94206  23.674  15.725  13.318
30483W        W94207  21.706  42.522   0.328
30484W        W94208  16.078   9.248  14.301
30485W        W94209  17.637  28.022   2.378
30486W        W94210  43.371  22.729  14.436
30487W        W94211  11.701  12.702  13.019
30488W        W94212  33.414  15.246  11.450
30489W        W94213  14.600   4.741  10.550
30490W        W94214  14.119  14.808   5.261
30491W        W94215  42.485   9.184  10.479
30492W        W94216  43.855  25.691   2.193
30493W        W94217  43.019  40.993   1.806
30494W        W94218  36.088  38.565  11.930
30495W        W94219  44.893  15.204   3.267
30496W        W94220  25.138  18.072  13.889
30497W        W94221   1.862  14.826  13.898
30498W        W94222  41.000  29.613   1.907
30499W        W94223  41.312  10.155   0.932
30500W        W94224   0.835  35.100  12.909
30501W        W94225  22.619  27.645   1.880
30502W        W94226  28.091   2.365   3.720
30503W        W94227  32.595  24.716   0.818
30504W        W94228   4.869   5.318  11.583
30505W        W94229  33.110  22.014   4.731
30506W        W94230   5.201  21.631   3.260
30507W        W94231  40.395  26.597  12.571
30508W        W94232  31.441   7.353   2.694
30509W        W94233  10.245  38.977   0.242
30510W        W94234   4.415  10.852   4.221
30511W        W94235  33.033  20.607   1.878
30512W        W94236   4.379  29.661  11.405
30513W        W94237  34.055   5.343  10.483
30514W        W94238  38.514  36.962  11.031
30515W        W94239  11.631  26.017  11.062
30516W        W94240   8.655  14.651  13.893
30517W        W94241  32.934   5.201   2.754
30518W        W94242   1.949  39.829   4.227
30519W        W94243  36.580  35.440   1.249
30520W        W94244  14.189  42.776  14.797
30521W        W94245  36.414  35.991  12.358
30522W        W94246   2.431  29.152   4.283
30523W        W94247  41.431  38.487   1.264
30524W        W94248  24.033   2.797   0.482
30525W        W94249  28.549  22.116   1.735
30526W        W94250  15.089   3.381   5.254
30527W        W94251  15.118  41.798   1.377
30528W        W94252  31.112  11.193  13.862
30529W        W94253  25.510  11.779  10.992
30530W        W94254  34.119   7.685   4.617
30531W        W94255  16.626  23.520  13.457
30532W        W94256  28.650  23.011  13.346
30533W        W94257  41.375  32.010  13.888
30534W        W94258  12.832  37.437   0.285
30535W        W94259   4.344  17.272  13.542
30536W        W94260  32.567  17.671   4.250
30537W        W94261  42.446   9.294   3.686
30538W        W94262  13.258   3.358   1.706
30539W        W94263  14.302  17.733   0.755
30540W        W94264  13.198  11.750  11.394
30541W        W94265  30.961  12.625  12.393
30542W        W94266  21.619   1.764   1.882
30543W        W94267  37.567  23.177   1.746
30544W        W94268  10.269  40.852  13.007
30545W        W94269  12.798  38.023   0.759
30546W        W94270  44.503  17.797  11.606
30547W        W94271  28.526  33.115  13.938
30548W        W94272  34.097  23.490  13.371
30549W        W94273  29.130  22.652  10.580
30550W        W94274   7.351  12.731   1.214
30551W        W94275  12.124  41.961  11.080
30552W        W94276  40.888   8.881   4.670
30553W        W94277  20.564  12.255  14.907
30554W        W94278  40.393  21.713  11.448
30555W        W94279   1.948   7.257  13.873
30556W        W94280   3.444   4.261   1.284
30557W        W94281  30.589  21.095   3.367
30558W        W94282  17.294  12.154   4.207
30559W        W94283  18.098  44.430   1.279
30560W        W94284  25.143   8.770  10.964
30561W        W94285  27.011  15.646  13.539
30562W        W94286  28.102  40.443   0.345
30563W        W94287   1.368  23.094   2.674
30564W        W94288  20.558  25.552   1.342
30565W        W94289  41.422  15.237  13.902
30566W        W94290   9.228   9.207  12.973
30567W        W94291   8.293  31.574   1.821
30568W        W94292  36.052  40.328   4.657
30569W        W94293   5.347   0.911   4.743
30570W        W94294  26.606   6.808  12.531
30571W        W94295   4.777  39.423  14.819
30572W        W94296  34.999   6.683   3.648
30573W        W94297  10.205  37.425  13.428
30574W        W94298  39.893  10.660   1.249
30575W        W94299  33.451  18.661   0.939
30576W        W94300  27.632  21.211   0.256
30577W        W94301  22.213  12.177   1.418
30578W        W94302  22.995  34.121  10.978
30579W        W94303  37.918   9.281   0.338
30580W        W94304  35.069   8.293   0.263
30581W        W94305  26.976  29.587   3.316
30582W        W94306  27.634  22.692  10.962
30583W        W94307  29.134  39.339  12.526
30584W        W94308   1.895   3.767  12.930
30585W        W94309  24.634  14.292   0.482
30586W        W94310   3.872  36.486  13.985
30587W        W94311  21.226  17.560   1.901
30588W        W94312   0.257   7.756  12.947
30589W        W94313  42.401   2.888   2.327
30590W        W94314  39.555  25.667  12.923
30591W        W94315  19.769   4.317  11.074
30592W        W94316  20.640  33.581  10.505
30593W        W94317  39.849  26.088  14.924
30594W        W94318   5.290  19.651  14.450
30595W        W94319  21.680  39.528  11.026
30596W        W94320  13.731  28.931   4.654
30597W        W94321  40.883   0.437   9.607
30598W        W94322  24.110  23.550  11.512
30599W        W94323  29.611  29.564  11.899
30600W        W94324  24.074  36.946  12.340
30601W        W94325  27.128   8.291  12.530
30602W        W94326   8.185  39.370  13.953
30603W        W94327  16.783  10.298  12.833
30604W        W94328  11.324  10.160  11.110
30605W        W94329  33.051  32.975   4.617
30606W        W94330  11.633   3.895   2.232
30607W        W94331  42.477  43.434  10.115
30608W        W94332  27.615  31.084   2.740
30609W        W94333  17.158   0.305   9.992
30610W        W94334   9.173  31.580  11.998
30611W        W94335  44.311  17.613  12.063
30612W        W94336  27.146  17.303   4.149
30613W        W94337  42.946   3.770   1.445
30614W        W94338  35.481  35.060  12.891
30615W        W94339  37.339   1.889   3.789
30616W        W94340  43.420  23.541   3.706
30617W        W94341  22.249   1.750   2.883
30618W        W94342  28.105   6.338  14.922
30619W        W94343  34.978  30.415  14.508
30620W        W94344  39.316  17.232  14.363
30621W        W94345  17.218   1.739   2.797
30622W        W94346  10.666  31.898  12.480
30623W        W94347  19.557  41.826   3.188
30624W        W94348  11.664  10.859   4.691
30625W        W94349  31.461   0.297   0.963
30626W        W94350  31.934   6.407  10.584
30627W        W94351   1.973   4.908   3.716
30628W        W94352  27.027   6.861   2.256
30629W        W94353  25.609  29.517   3.820
30630W        W94354  44.845  28.026  13.481
30631W        W94355   0.840   1.445   1.358
30632W        W94356   3.319  18.657  10.541
30633W        W94357   6.325  32.515   2.735
30634W        W94358  40.972   5.249  12.575
30635W        W94359  26.553  10.270   4.655
30636W        W94360  33.090  21.250   4.743
30637W        W94361  10.713  19.231  12.011
30638W        W94362   1.305   5.710  13.361
30639W        W94363  20.672  14.250  11.533
30640W        W94364   5.397  14.229   5.098
30641W        W94365  37.989  12.821   1.353
30642W        W94366  32.395  25.076  12.373
30643W        W94367   6.782  25.506   2.837
30644W        W94368  41.363  22.007   1.390
30645W        W94369   4.927  35.456   1.353
30646W        W94370  22.015  28.617   3.328
30647W        W94371  12.193  23.082   1.734
30648W        W94372   5.919  35.871  14.349
30649W        W94373  36.348  41.523  13.452
30650W        W94374  17.200   2.256   1.382
30651W        W94375   8.795   7.381   0.858
30652W        W94376  35.484  24.577  12.944
30653W        W94377  15.085   3.378   4.694
30654W        W94378  27.950  34.484   1.369
30655W        W94379  37.995   9.183   3.284
30656W        W94380  34.078  15.329   3.767
30657W        W94381  26.955  13.693   4.827
30658W        W94382   9.869   9.386  12.532
30659W        W94383  34.939  39.062  12.562
30660W        W94384  15.669  44.808  13.905
30661W        W94385   5.730  25.143  10.444
30662W        W94386  21.652  29.643  14.407
30663W        W94387   6.777   3.793  14.815
30664W        W94388  21.042  22.125  13.002
30665W        W94389  10.804  33.465  14.459
30666W        W94390  39.415   0.974   3.387
30667W        W94391  40.975  30.435   0.262
30668W        W94392   1.937  13.653  11.017
30669W        W94393  36.011  43.495  10.623
30670W        W94394  27.560  26.506   5.086
30671W        W94395  37.976  16.638  10.558
30672W        W94396  38.356  31.040   2.869
30673W        W94397   3.944  31.461  13.410
30674W        W94398  12.721  44.845   2.890
30675W        W94399  15.581   7.266  12.090
30676W        W94400   9.307  14.234   3.351
30677W        W94401   9.715  42.946   2.359
30678W        W94402  37.944   8.229  10.454
30679W        W94403  29.535  43.896  11.013
30680W        W94404  18.684  40.424   3.354
30681W        W94405  24.725  13.701   4.676
30682W        W94406   9.204   9.862   1.909
30683W        W94407  36.401  41.519   0.947
30684W        W94408  28.436  31.457  13.427
30685W        W94409  26.532   0.301  10.495
30686W        W94410  40.342  19.061  11.108
30687W        W94411  18.618   2.461  11.479
30688W        W94412  43.850  42.894   1.732
30689W        W94413   0.256   4.905   0.327
30690W        W94414   3.352   6.406  12.887
30691W        W94415  33.503  18.723   3.772
30692W        W94416  37.868  42.470   0.438
30693W        W94417   9.209  10.144  11.059
30694W        W94418  43.506  10.186  14.821
30695W        W94419  43.008  34.901   1.303
30696W        W94420  32.037  27.019  11.456
30697W        W94421  42.318  30.614   0.307
30698W        W94422  40.476  37.536  12.428
30699W        W94423  31.544  23.536  12.504
30700W        W94424   8.856   6.758   2.391
30701W        W94425  10.639  30.638  13.485
30702W        W94426   0.767  42.357   2.369
30703W        W94427  19.149  11.185   3.288
30704W        W94428  32.571  18.250  11.522
30705W        W94429  27.525  24.682   4.291
30706W        W94430   8.728  44.936  12.059
30707W        W94431  20.523   8.282   3.757
30708W        W94432   0.750   5.439   0.397
30709W        W94433  37.433  36.956  11.103
30710W        W94434  32.458  21.706  12.350
30711W        W94435   3.443  33.610   4.603
30712W        W94436  26.491   1.902   1.426
30713W        W94437   8.401  11.315  13.053
30714W        W94438  16.611  29.163  12.558
30715W        W94439  32.417   8.215   1.824
30716W        W94440  11.773  11.192  14.856
30717W        W94441  27.043  18.084   3.770
30718W        W94442   3.846   1.853  11.502
30719W        W94443  38.424  12.249   2.336
30720W        W94444   2.455   1.772   1.903
30721W        W94445  27.608  15.790  11.399
30722W        W94446  17.200  19.055   4.351
30723W        W94447   8.815   1.823   4.734
30724W        W94448  38.885  33.560   2.814
30725W        W94449  35.974  40.894   2.901
30726W        W94450  37.977  15.718   0.847
30727W        W94451  31.567  34.554   0.249
30728W        W94452  16.568  18.685  14.878
30729W        W94453  27.445  23.034   4.834
30730W        W94454   4.208  14.163   3.845
30731W        W94455  19.159   6.257   3.376
30732W        W94456  11.778   4.231  10.099
30733W        W94457  12.126   3.795   1.324
30734W        W94458  41.433  33.503   5.231
30735W        W94459  28.952  11.352  13.820
30736W        W94460  43.961  36.372   3.193
30737W        W94461  14.672  22.534   0.916
30738W        W94462   2.952  34.406   3.709
30739W        W94463   9.185  24.606  11.493
30740W        W94464  30.024  28.119  14.419
30741W        W94465  34.479  17.731   3.781
30742W        W94466   3.774  38.340  14.501
30743W        W94467   7.737  14.267   4.799
30744W        W94468  26.966  26.100   2.735
30745W        W94469  11.632  22.649  12.509
30746W        W94470   9.782  32.955  14.373
30747W        W94471  36.928   8.887   1.826
30748W        W94472   1.420  23.004  11.452
30749W        W94473  34.108  42.499  12.890
30750W        W94474  42.421  29.603  14.334
30751W        W94475  17.720  19.583   4.282
30752W        W94476   4.826  37.972  13.011
30753W        W94477   2.739  35.511   1.348
30754W        W94478  25.000  35.103   5.211
30755W        W94479  14.614  20.568   3.795
30756W        W94480  24.015  33.379  11.591
30757W        W94481  44.941  38.001  14.795
30758W        W94482  23.712  34.049   1.831
30759W        W94483  17.103  11.681  14.394
30760W        W94484   5.218  33.394   0.828
30761W        W94485   6.808   2.883  14.891
30762W        W94486  36.076  43.440   4.835
30763W        W94487  38.074  13.620   3.165
30764W        W94488   6.305   6.839  10.558
30765W        W94489  26.139  39.548   0.880
30766W        W94490   6.191  22.590   0.255
30767W        W94491  28.659  27.123  10.973
30768W        W94492  27.156   4.443   4.272
30769W        W94493   3.948  23.173  13.901
30770W        W94494   9.751   8.710   1.305
30771W        W94495  32.466  37.404   0.749
30772W        W94496  27.159  19.556  12.430
30773W        W94497  10.820  42.496  10.609
30774W        W94498  44.348  32.935   2.686
30775W        W94499  14.725  26.596   4.629
30776W        W94500  43.372  36.875  12.473
30777W        W94501  12.324  12.161   2.351
30778W        W94502  44.931  14.211  11.533
30779W        W94503  41.294   2.378  14.998
30780W        W94504   0.265  24.216   1.314
30781W        W94505  24.523  26.619   5.802
30782W        W94506  12.722   4.254   3.223
30783W        W94507  26.531  14.588  14.985
30784W        W94508  21.219  20.668   2.783
30785W        W94509  41.441  19.160   0.838
30786W        W94510  13.250  35.587   3.719
30787W        W94511   9.162  28.463  13.411
30788W        W94512  32.637  21.526  13.380
30789W        W94513  13.317   6.910   1.829
30790W        W94514  41.455  14.151   2.410
30791W        W94515   4.886  34.582  11.129
30792W        W94516  39.814  35.435   0.756
30793W        W94517  40.325   2.914  13.375
30794W        W94518  38.924  27.469   2.784
30795W        W94519  39.483  22.032  13.015
30796W        W94520   9.208  11.715  13.429
30797W        W94521  23.214  33.497   0.797
30798W        W94522  24.077  43.966   3.750
30799W        W94523   3.712   2.939  11.939
30800W        W94524  13.221  41.903  12.941
30801W        W94525   5.863   0.750   1.895
30802W        W94526  29.454  38.040  12.344
30803W        W94527  21.201   3.817  13.971
30804W        W94528  22.633   3.718  11.550
30805W        W94529  37.044  14.825   1.229
30806W        W94530  39.483  15.298  12.444
30807W        W94531  18.113  25.103  11.515
30808W        W94532  26.985  37.560   2.199
30809W        W94533  15.717   2.432   3.260
30810W        W94534  37.865  23.220   4.149
30811W        W94535   1.481  43.817   4.793
30812W        W94536  13.275  15.318   2.763
30813W        W94537  10.267  29.557   2.390
30814W        W94538  22.569  33.965   1.894
30815W        W94539  32.109  40.903  13.537
30816W        W94540   8.710  20.103   2.296
30817W        W94541  37.022   5.819   3.756
30818W        W94542  39.816  43.781  12.356
30819W        W94543  31.151  16.124   1.232
30820W        W94544  27.180  22.736   3.642
30821W        W94545  23.735   0.822   4.219
30822W        W94546  28.165  20.243  14.006
30823W        W94547  29.534  37.062  10.449
30824W        W94548  20.738   5.833   2.232
30825W        W94549  20.721  42.371  14.403
30826W        W94550   3.783  15.779   0.752
30827W        W94551  19.581  30.495   1.412
30828W        W94552  23.545   0.810  13.314
30829W        W94553  32.393   6.290   2.332
30830W        W94554   6.316  18.205   1.449
30831W        W94555  20.126  11.756   1.857
30832W        W94556  21.251  13.237  11.970
30833W        W94557  13.636  39.817   1.767
30834W        W94558  11.791  37.451   2.703
30835W        W94559  40.413  27.592   0.420
30836W        W94560  13.247  38.889  12.411
30837W        W94561  43.274  27.037   4.605
30838W        W94562   8.221  41.930  11.858
30839W        W94563  35.916  36.963   0.732
30840W        W94564  38.018  27.985   0.391
30841W        W94565  21.552  38.973  12.520
30842W        W94566  25.670  17.726  11.062
30843W        W94567   9.657  10.753   0.268
30844W        W94568   1.334  44.756  14.509
30845W        W94569  21.053  23.075   1.930
30846W        W94570  13.647  41.959   2.227
30847W        W94571   7.251  24.178  12.046
30848W        W94572  29.507   3.846   4.648
30849W        W94573  26.193  21.157   4.809
30850W        W94574  36.921  23.986  14.388
30851W        W94575   2.286  35.554   4.627
30852W        W94576  22.081   0.344   4.620
30853W        W94577  22.192  29.959  13.032
30854W        W94578   5.866   4.402  11.944
30855W        W94579   0.345   0.330   1.867
30856W        W94580  32.446  30.468  10.981
30857W        W94581  34.117   5.707   4.174
30858W        W94582  39.973   3.308  12.382
30859W        W94583  34.970  29.583  12.500
30860W        W94584   0.988  12.785  13.365
30861W        W94585  35.548  37.493   4.222
30862W        W94586   8.294  10.190   0.366
30863W        W94587  32.936  30.567  12.084
30864W        W94588  15.700  14.649   3.378
30865W        W94589  38.380  17.190   0.292
30866W        W94590  38.513  21.250  14.375
30867W        W94591   7.311   7.856   3.165
30868W        W94592  42.318  31.954  12.513
30869W        W94593  39.977  12.814   3.289
30870W        W94594  40.883  10.155  11.427
30871W        W94595   0.350  17.771   1.382
30872W        W94596  30.464   8.195   2.757
30873W        W94597  37.441  15.181  11.496
30874W        W94598  42.407  22.026   4.605
30875W        W94599  13.266  21.139   2.710
30876W        W94600   1.421  44.476   2.793
30877W        W94601   7.724  35.060  12.882
30878W        W94602  12.791  32.134  13.797
30879W        W94603  38.520  44.479  11.115
30880W        W94604  35.054  43.877   4.742
30881W        W94605  44.500  44.396   4.128
30882W        W94606  28.979  21.102   4.229
30883W        W94607  22.243  22.743   2.284
30884W        W94608  11.658   6.283  14.772
30885W        W94609  38.888  33.901  10.065
30886W        W94610   2.457  29.068   3.832
30887W        W94611  39.045  37.857   3.753
30888W        W94612  18.096  42.030  11.885
30889W        W94613  18.719  44.384   0.302
30890W        W94614  35.532  18.645   1.794
30891W        W94615   8.204  30.090   4.279
30892W        W94616  26.068  40.914  14.326
30893W        W94617  22.125  43.863  13.985
30894W        W94618  14.202  24.005  14.769
30895W        W94619  28.474  23.178   3.674
30896W        W94620  15.097  27.136   2.380
30897W        W94621  30.142  39.497  14.309
30898W        W94622  11.225  24.703  14.889
30899W        W94623   8.709  26.095   3.177
30900W        W94624  27.013  33.000   4.634
30901W        W94625  12.795  38.450   3.332
30902W        W94626  15.110  39.486  10.557
30903W        W94627  30.036   3.864  11.012
30904W        W94628  28.183  11.654   1.857
30905W        W94629  36.533  31.512   1.884
30906W        W94630   9.873  38.339  10.449
30907W        W94631   3.873  16.756  11.387
30908W        W94632  32.562  18.667   2.895
30909W        W94633  16.084  32.585   2.702
30910W        W94634  21.569  35.048  14.866
30911W        W94635  32.892  36.077  14.318
30912W        W94636  17.705   4.374   1.735
30913W        W94637  44.377  36.991  12.385
30914W        W94638  28.619   9.312   2.353
30915W        W94639   9.830   6.316  13.868
30916W        W94640  40.424  21.722   3.181
30917W        W94641  16.716   6.387   3.315
30918W        W94642   6.310  38.563   4.136
30919W        W94643   7.790  35.029  11.977
30920W        W94644  25.565  23.231   0.340
30921W        W94645  32.935  25.196  13.401
30922W        W94646  25.063  19.759  13.307
30923W        W94647  15.740   4.769   1.379
30924W        W94648  30.944  25.690  11.383
30925W        W94649  25.610  38.025  14.816
30926W        W94650   6.252   8.312   0.377
30927W        W94651  32.545  29.530   2.898
30928W        W94652  32.592  44.403  11.915
30929W        W94653  25.586  39.905  10.056
30930W        W94654   2.876  32.964   4.779
30931W        W94655  34.029   0.900   1.709
30932W        W94656  12.812  21.696   3.337
30933W        W94657   4.931  44.463   4.746
30934W        W94658   8.813  42.017  14.011
30935W        W94659  36.531  26.061   4.319
30936W        W94660   8.843  31.455  11.412
30937W        W94661  17.647  10.255   3.383
30938W        W94662   2.294  37.521  14.470
30939W        W94663  28.178  34.553   9.958
30940W        W94664  15.202  12.689   2.891
30941W        W94665  33.940  22.580   2.872
30942W        W94666  38.076  24.662  13.017
30943W        W94667  30.971  38.833   5.190
30944W        W94668  35.533  32.109  11.078
30945W        W94669  21.746  15.617   4.136
30946W        W94670  30.548  25.536  10.599
30947W        W94671  11.699  43.980   4.732
30948W        W94672  10.850   6.748  13.857
30949W        W94673  13.804  38.043  12.536
30950W        W94674  17.723   7.756  12.495
30951W        W94675  13.207  25.172  10.889
30952W        W94676  34.428  35.463   3.694
30953W        W94677  30.539  20.744   1.373
30954W        W94678  13.326  18.629   3.783
30955W        W94679  30.120  40.018  14.475
30956W        W94680  13.769  19.086  13.428
30957W        W94681  40.876  36.901   1.272
30958W        W94682  13.668  20.132   2.243
30959W        W94683  17.254  15.278   0.874
30960W        W94684  24.213   1.374  10.978
30961W        W94685  21.143  12.281   4.279
30962W        W94686  43.928   0.473   1.430
30963W        W94687  22.545  22.103   2.865
30964W        W94688  35.427  15.203  10.535
30965W        W94689   6.884   3.956  13.515
30966W        W94690  14.601  31.509  13.837
30967W        W94691  34.877  35.984   3.639
30968W        W94692  25.217  28.135  10.936
30969W        W94693   9.745  32.433   0.783
30970W        W94694  24.165  42.029  12.923
30971W        W94695  26.655  13.200   0.889
30972W        W94696  21.261  44.787   0.426
30973W        W94697  20.198  44.905  12.831
30974W        W94698  32.492  40.368   3.319
30975W        W94699  10.311  43.842   3.246
30976W        W94700  35.042  12.678   1.744
30977W        W94701  18.634  24.038  11.397
30978W        W94702  10.350   6.819  11.580
30979W        W94703  26.186  19.089  12.948
30980W        W94704  28.487  29.579  11.044
30981W        W94705   9.733   4.325  11.516
30982W        W94706  37.901  32.473  13.310
30983W        W94707  42.308  43.922  14.498
30984W        W94708  28.565  26.687   4.311
30985W        W94709   4.928   0.255   1.379
30986W        W94710   6.281  36.411  12.372
30987W        W94711  25.018  30.523  12.978
30988W        W94712  36.866   1.452   0.920
30989W        W94713  18.288  39.434  11.971
30990W        W94714  36.590  10.863   1.877
30991W        W94715   5.322  32.947  14.438
30992W        W94716  12.621  23.123   0.735
30993W        W94717   0.823  18.552   0.927
30994W        W94718  35.396  12.670   2.351
30995W        W94719  39.433   0.380   4.646
30996W        W94720  30.499   1.820   2.287
30997W        W94721  38.342  43.403   1.270
30998W        W94722   9.711  24.176  10.516
30999W        W94723   5.303  41.496  11.502
31000W        W94724  41.992  38.896   2.757
31001W        W94725   4.262  22.218  11.980
31002W        W94726   0.414  31.902   2.731
31003W        W94727  20.237  41.346  11.914
31004W        W94728  15.676  41.355  10.644
31005W        W94729  10.839  21.106  12.388
31006W        W94730   9.771  42.303  12.093
31007W        W94731  10.177  20.068  11.936
31008W        W94732   5.247   7.858   0.419
31009W        W94733  18.671  28.049   2.302
31010W        W94734  18.138   6.736   4.337
31011W        W94735  16.639  33.005  10.901
31012W        W94736  14.715  18.130   0.363
31013W        W94737   8.396  10.636  11.581
31014W        W94738  19.050  35.971   1.387
31015W        W94739  35.562  15.086   1.341
31016W        W94740  19.067  21.570  12.982
31017W        W94741  13.678  41.936  12.516
31018W        W94742   6.209  13.803  14.927
31019W        W94743  39.824   3.270   0.343
31020W        W94744  41.507  22.233  13.878
31021W        W94745  22.145  43.414   2.329
31022W        W94746   4.310  14.712  12.833
31023W        W94747  33.381  17.198   0.852
31024W        W94748   6.378  44.300  14.956
31025W        W94749  16.201  35.467  14.838
31026W        W94750  43.900  15.297   1.859
31027W        W94751  13.627  20.726  12.411
31028W        W94752  28.646  24.510   1.907
31029W        W94753  15.749   2.298   3.869
31030W        W94754  38.033  25.018   4.243
31031W        W94755  31.018  29.933   1.229
31032W        W94756  15.584  28.142  12.033
31033W        W94757  11.201   1.966   4.278
31034W        W94758   3.228  29.978  13.909
31035W        W94759  30.967   5.834   4.139
31036W        W94760   6.702  44.258   1.708
31037W        W94761  21.606  39.385   0.382
31038W        W94762  12.339  38.431  13.882
31039W        W94763   1.737  42.990  13.421
31040W        W94764  14.299  12.771   0.342
31041W        W94765  27.026  13.761  13.806
31042W        W94766  18.678  39.443   1.211
31043W        W94767   5.272  21.082  10.914
31044W        W94768   2.460  31.433   3.171
31045W        W94769  33.068  37.056   3.253
31046W        W94770  39.323  33.380  11.898
31047W        W94771  27.984  43.867   1.757
31048W        W94772   3.383  44.972  11.034
31049W        W94773  34.453  35.040   3.713
31050W        W94774  36.521   0.875  10.500
31051W        W94775  32.917   1.950   1.281
31052W        W94776  37.510  40.021   3.859
31053W        W94777  38.455  38.961  12.560
31054W        W94778   5.767   5.755   2.768
31055W        W94779  24.146  13.310  14.366
31056W        W94780  26.132  15.633   2.860
31057W        W94781  30.561  11.710   2.178
31058W        W94782  24.693   7.672  10.463
31059W        W94783  23.087  37.505  11.500
31060W        W94784  31.016  17.168  14.817
31061W        W94785  30.139   6.201   3.246
31062W        W94786  17.786  33.465  14.506
31063W        W94787  44.882  38.897  14.366
31064W        W94788  38.468  29.492   4.736
31065W        W94789  16.718  21.662  14.338
31066W        W94790   4.382  26.582  10.606
31067W        W94791  16.807  39.510  13.910
31068W        W94792  26.692  16.744  10.980
31069W        W94793  19.099   1.734   1.375
31070W        W94794  33.545  33.129  12.946
31071W        W94795  43.847  17.592   3.383
31072W        W94796  42.821  11.751   4.194
31073W        W94797  10.832   2.881  13.418
31074W        W94798  21.747  42.371   1.726
31075W        W94799  12.756  37.877  13.798
31076W        W94800   3.947  31.504  10.951
31077W        W94801  40.434  14.134   3.181
31078W        W94802  39.465  39.923  10.976
31079W        W94803   5.421   4.349  12.432
31080W        W94804  22.040   6.746   2.731
31081W        W94805  10.692  40.320   1.929
31082W        W94806   5.909  29.573  12.469
31083W        W94807   7.870   7.231  14.510
31084W        W94808  44.426  44.903  10.414
31085W        W94809  31.524  19.207  10.639
31086W        W94810  11.180   8.714   4.138
31087W        W94811  14.834   8.215   0.729
31088W        W94812  28.993   0.373  13.511
31089W        W94813  44.867  26.588   0.379
31090W        W94814  38.399  17.280  11.406
31091W        W94815  25.195  27.508   3.256
31092W        W94816  18.129  39.429  12.521
31093W        W94817  10.182  30.565  14.822
31094W        W94818   6.417   0.985  10.950
31095W        W94819   4.430   1.974   3.262
31096W        W94820  27.978  40.877   0.429
31097W        W94821  40.463  39.933   2.841
31098W        W94822  40.862  19.251  11.599
31099W        W94823   1.956  18.101  14.284
31100W        W94824   1.844  33.881  14.843
31101W        W94825  13.816  27.477  10.896
31102W        W94826  29.542  38.972  12.450
31103W        W94827  17.608  32.962  13.308
31104W        W94828  15.100   2.882   1.908
31105W        W94829  23.587   6.831   3.701
31106W        W94830  18.619  37.474  10.070
31107W        W94831   1.751  11.174   4.328
31108W        W94832  39.405  26.969   1.432
31109W        W94833  25.005  18.695  13.834
31110W        W94834  39.937  38.524  14.349
31111W        W94835   7.228  15.145   3.781
31112W        W94836  43.430   8.669   3.293
31113W        W94837  21.594  31.961  12.549
31114W        W94838   7.211  28.964  13.541
31115W        W94839  24.051   0.959  12.378
31116W        W94840  42.317  31.044  13.059
31117W        W94841  30.510   4.728   1.804
31118W        W94842  42.382  17.155   4.759
31119W        W94843  14.129  34.408  14.361
31120W        W94844   7.811  24.141  12.877
31121W        W94845  20.240  37.365   2.298
31122W        W94846  28.528  42.321   4.249
31123W        W94847  21.089  27.120   4.115
31124W        W94848   6.772  43.011   4.238
31125W        W94849   9.228  19.539  11.545
31126W        W94850  38.470  34.572   0.401
31127W        W94851  30.134  30.069   2.685
31128W        W94852  14.166  22.037   2.789
31129W        W94853  41.963   2.771   4.795
31130W        W94854   6.224  36.476  14.483
31131W        W94855  31.947  37.054  12.388
31132W        W94856  26.694  22.145  11.963
31133W        W94857  11.170   0.407  14.318
31134W        W94858  41.334  34.082   2.397
31135W        W94859  18.583  26.674  11.482
31136W        W94860  35.014  15.822   0.935
31137W        W94861  36.350  38.016  13.327
31138W        W94862  27.499  26.657  11.382
31139W        W94863  11.240   0.884  11.552
31140W        W94864  34.083  39.322   1.270
31141W        W94865  19.210  18.545  14.413
31142W        W94866  12.849  34.435   1.814
31143W        W94867  23.075   0.377   1.735
31144W        W94868  38.860  22.607  14.917
31145W        W94869  41.858   1.427   2.751
31146W        W94870  13.309  16.184  13.896
31147W        W94871  13.122  25.591  12.021
31148W        W94872   5.868  22.249  12.461
31149W        W94873  11.684   0.853   9.946
31150W        W94874  24.139  39.863   3.374
31151W        W94875  37.487  33.544  12.045
31152W        W94876  29.584  39.901   1.714
31153W        W94877  12.200  12.251   0.856
31154W        W94878  14.683  15.211   1.907
31155W        W94879   4.378  17.134  14.009
31156W        W94880   6.362  18.230  12.984
31157W        W94881   8.762  10.239  14.889
31158W        W94882  37.461  29.006  14.011
31159W        W94883  29.547  38.990  13.899
31160W        W94884  12.192  19.618  11.951
31161W        W94885   5.722  28.946   1.810
31162W        W94886  10.756   7.292   3.803
31163W        W94887   5.746   9.380  13.911
31164W        W94888  36.475  22.013  14.823
31165W        W94889   6.347  38.862  11.492
31166W        W94890  44.888  37.398  12.393
31167W        W94891  29.512   8.869  14.860
31168W        W94892  29.947   3.235   1.324
31169W        W94893  41.927  32.934   0.414
31170W        W94894  27.945  22.076   1.247
31171W        W94895  21.073  20.073  14.512
31172W        W94896  32.459  11.693  13.350
31173W        W94897   3.273   1.759   1.375
31174W        W94898  16.188   0.420   2.293
31175W        W94899  25.200  36.448   4.315
31176W        W94900   4.866   2.266   1.892
31177W        W94901   8.339   6.293   3.797
31178W        W94902   1.339  36.561  14.468
31179W        W94903   6.356  34.936   0.451
31180W        W94904  33.074   0.796   3.678
31181W        W94905  11.740   1.931   1.755
31182W        W94906  30.910   8.271  14.404
31183W        W94907   0.438  28.136  13.507
31184W        W94908  43.304  22.623   3.371
31185W        W94909  10.832  20.156  10.456
31186W        W94910  23.007   0.366   1.263
31187W        W94911  30.608  38.390   1.875
31188W        W94912  22.102  23.655   0.341
31189W        W94913   9.765  17.752  10.580
31190W        W94914  21.692  28.622   5.095
31191W        W94915   7.331  12.738   2.776
31192W        W94916   3.715  32.563   0.733
31193W        W94917  41.442  25.468   1.414
31194W        W94918   6.349  21.099  10.907
31195W        W94919   9.720  17.061   0.439
31196W        W94920  15.634  41.006  12.976
31197W        W94921  29.547  23.579  12.497
31198W        W94922  41.035  14.201   2.251
31199W        W94923  17.288  20.633   4.674
31200W        W94924  20.233  34.080  12.561
31201W        W94925  36.016  32.093   0.852
31202W        W94926  20.662   3.789   4.620
31203W        W94927  41.793  10.369   1.928
31204W        W94928  37.084  17.200  14.027
31205W        W94929  21.139  40.430  14.835
31206W        W94930  23.080   6.395   3.662
31207W        W94931  13.622  29.160   3.740
31208W        W94932  36.367  43.418  13.835
31209W        W94933   1.905  23.176   3.206
31210W        W94934  41.035  31.458   0.874
31211W        W94935  13.610  22.017  12.560
31212W        W94936  39.427  36.092   1.846
31213W        W94937  29.022  29.660  14.019
31214W        W94938  24.165  26.483  11.115
31215W        W94939  29.109  17.230   1.222
31216W        W94940  34.448  38.000   0.452
31217W        W94941   1.938  22.553  13.960
31218W        W94942  25.973  27.559  11.950
31219W        W94943  23.008  15.652   4.730
31220W        W94944  43.918  38.992   0.424
31221W        W94945  35.365   7.373  14.385
31222W        W94946  33.891  43.313  14.295
31223W        W94947  35.383  23.083  11.987
31224W        W94948   0.921  38.337   1.852
31225W        W94949  26.592   9.801  12.491
31226W        W94950   1.854  13.824  13.044
31227W        W94951   0.986   6.251  13.965
31228W        W94952  23.988  27.027  11.504
31229W        W94953  38.869  13.168  13.927
31230W        W94954  26.686   5.297  12.963
31231W        W94955   8.857  37.051   1.334
31232W        W94956  25.689  44.503  10.026
31233W        W94957  30.054  23.567   0.338
31234W        W94958  38.424   7.667   4.640
31235W        W94959  33.562  42.482  12.355
31236W        W94960   7.783  14.322   1.748
31237W        W94961   5.792  22.638  11.974
31238W        W94962  24.558  16.240  14.846
31239W        W94963  18.689   4.729   2.863
31240W        W94964  14.726  16.793   3.262
31241W        W94965  20.266  42.491   2.258
31242W        W94966   7.303  24.991  14.917
31243W        W94967  19.126  12.330  11.065
31244W        W94968  40.861   8.741  13.991
31245W        W94969  37.501   5.387   3.681
31246W        W94970  12.842  32.505   2.225
31247W        W94971  31.120  24.588   2.216
31248W        W94972  39.001   3.810   0.288
31249W        W94973  35.558  13.243   3.637
31250W        W94974  15.807  31.429  12.832
31251W        W94975   2.289  37.966   3.372
31252W        W94976  10.138  24.667   4.281
31253W        W94977  18.141  17.641   2.779
31254W        W94978  34.433  13.232   3.186
31255W        W94979  21.735  12.764  14.906
31256W        W94980  11.777   7.834   4.649
31257W        W94981  36.842  27.104  12.396
31258W        W94982  30.542   0.461   3.303
31259W        W94983  19.062  18.271  10.518
31260W        W94984   5.366  24.597   0.906
31261W        W94985  38.987  21.161   4.324
31262W        W94986  38.892  12.782  12.440
31263W        W94987  31.483  26.141   1.931
31264W        W94988  29.510  14.605   3.380
31265W        W94989   5.270  20.587  13.474
31266W        W94990   2.348  13.338   1.805
31267W        W94991  14.262  40.502  10.909
31268W        W94992  24.060   4.720   1.431
31269W        W94993  42.381  25.030  14.904
31270W        W94994  16.181  22.079   0.804
31271W        W94995  42.012  43.840  12.501
31272W        W94996  35.995  39.380   2.686
31273W        W94997   5.253   9.381  13.529
31274W        W94998  17.772   7.716   3.827
31275W        W94999  40.379   4.701   3.647
31276W        W95000  42.909   4.827   4.719
31277W        W95001  24.057  17.708   3.811
31278W        W95002  37.359   6.893  13.014
31279W        W95003   5.369  30.976   0.346
31280W        W95004   4.205  18.142   2.835
31281W        W95005   4.870  28.648  11.999
31282W        W95006  22.232  27.180   4.680
31283W        W95007  25.534  23.178   4.260
31284W        W95008  22.042  19.151   2.663
31285W        W95009  36.978  20.580  11.560
31286W        W95010   7.717   4.441  13.012
31287W        W95011  37.853  15.183   0.864
31288W        W95012  20.205  32.049  12.888
31289W        W95013   5.428  18.092   2.676
31290W        W95014  31.986  27.471   4.240
31291W        W95015  16.694  21.524   2.839
31292W        W95016   1.335  37.874   1.254
31293W        W95017  40.895  36.888   2.753
31294W        W95018  19.225   1.256   0.729
31295W        W95019  15.654  41.036  10.908
31296W        W95020  12.713   0.881  14.909
31297W        W95021  21.638  14.215  12.973
31298W        W95022  44.769  13.303   2.778
31299W        W95023  25.145   4.929   2.901
31300W        W95024  15.730  16.190  10.630
31301W        W95025  31.933   2.354   4.280
31302W        W95026   4.432  26.982  13.026
31303W        W95027  16.625  23.189  11.597
31304W        W95028   0.935  20.113   3.200
31305W        W95029   1.774  27.079   2.777
31306W        W95030   5.763   2.847  12.900
31307W        W95031  12.852  21.752   2.322
31308W        W95032   3.277   7.282  11.886
31309W        W95033  14.205   5.260   0.922
31310W        W95034  24.050  10.717   4.830
31311W        W95035   1.377  17.733  14.892
31312W        W95036  29.049   9.872  14.982
31313W        W95037   2.389  10.655  13.460
31314W        W95038   3.385  28.515   1.429
31315W        W95039  28.656   9.648  12.344
31316W        W95040   2.344   0.821   4.835
31317W        W95041   4.409  12.675   3.381
31318W        W95042  12.209  21.753   3.237
31319W        W95043  33.388   3.256   3.387
31320W        W95044  24.608  37.399   0.291
31321W        W95045  32.526  36.553  11.421
31322W        W95046  33.075   5.843   2.901
31323W        W95047  17.669  25.469  12.544
31324W        W95048  40.342  22.138  11.555
31325W        W95049  41.537  32.938  12.385
31326W        W95050  31.085  26.566   4.785
31327W        W95051  26.201  16.160   0.932
31328W        W95052   0.845  44.934  12.839
31329W        W95053  31.551  31.489  13.019
31330W        W95054  28.595   2.750  11.088
31331W        W95055  19.589  15.257   0.831
31332W        W95056   6.808  34.610  13.349
31333W        W95057  24.724   8.274   5.678
31334W        W95058   9.312  43.325  12.013
31335W        W95059  32.996   9.884  12.459
31336W        W95060  25.481  27.072  14.981
31337W        W95061  19.164  44.917  13.380
31338W        W95062  22.031  42.292  14.438
31339W        W95063  11.329   7.366   4.124
31340W        W95064  14.657   3.914   1.914
31341W        W95065   4.855  34.504  12.091
31342W        W95066  13.275  28.009   2.719
31343W        W95067  29.426   9.860  12.058
31344W        W95068   9.315  11.158   2.192
31345W        W95069  24.033  29.066   0.274
31346W        W95070  43.991  17.274  10.897
31347W        W95071   2.840  28.600  13.957
31348W        W95072  36.993  39.315   4.655
31349W        W95073  44.384   7.397  13.965
31350W        W95074  43.004   7.748  10.530
31351W        W95075  34.450  11.275   0.462
31352W        W95076   7.747  35.855  13.923
31353W        W95077  22.016  29.634  12.935
31354W        W95078  44.836  27.454  14.414
31355W        W95079  44.930  30.480   2.392
31356W        W95080  28.106  16.681   4.333
31357W        W95081  37.537  34.577   0.875
31358W        W95082  11.769  30.495  14.468
31359W        W95083   3.412  24.648   4.182
31360W        W95084  12.157  29.588   2.791
31361W        W95085   9.341  40.866   2.686
31362W        W95086  33.605  42.416   4.618
31363W        W95087  13.123   8.195   3.656
31364W        W95088  36.974  13.787  10.614
31365W        W95089   9.298  22.533   4.218
31366W        W95090  29.148   3.742  14.897
31367W        W95091   4.706  24.077   0.443
31368W        W95092  42.354  32.972  12.825
31369W        W95093  36.416  36.486  10.605
31370W        W95094  17.665  35.509   3.193
31371W        W95095  16.637  40.549  13.512
31372W        W95096  29.512  16.672  14.030
31373W        W95097   8.851  27.093   4.715
31374W        W95098  31.580  33.979  13.993
31375W        W95099  15.296  11.264  13.812
31376W        W95100  13.350   8.828   0.882
31377W        W95101   6.318  33.069   0.826
31378W        W95102  37.566  11.798   0.263
31379W        W95103  24.003  27.038   4.252
31380W        W95104  44.431  27.125  11.923
31381W        W95105  17.244  12.271  14.383
31382W        W95106   0.867   6.802   1.321
31383W        W95107   7.793  35.589   0.281
31384W        W95108  17.728  35.032  14.441
31385W        W95109  37.488  19.553   3.653
31386W        W95110  39.533   1.822  14.499
31387W        W95111  14.291   1.860   4.195
31388W        W95112  30.571  13.138  14.777
31389W        W95113  34.078  21.260  10.415
31390W        W95114  27.032  44.890   0.387
31391W        W95115  22.628  35.492   2.694
31392W        W95116   6.754   2.912   4.220
31393W        W95117  25.173  14.225  10.602
31394W        W95118  37.927  24.099   1.855
31395W        W95119  44.798  30.917  11.097
31396W        W95120  31.642  35.509   3.150
31397W        W95121  36.048  12.617  13.883
31398W        W95122  19.658  11.811   2.376
31399W        W95123  38.972  27.515   1.927
31400W        W95124  42.956  14.599   4.729
31401W        W95125  24.118  21.568  11.969
31402W        W95126  26.686   0.319   2.191
31403W        W95127  44.364  34.055   3.671
31404W        W95128   1.919  22.223   0.949
31405W        W95129  40.314  41.889  11.571
31406W        W95130  22.995  25.631   0.467
31407W        W95131  31.934   9.231  10.430
31408W        W95132   4.832   1.732  10.017
31409W        W95133  15.111  38.891   4.685
31410W        W95134  11.659  14.326   0.754
31411W        W95135   8.779   1.330   1.367
31412W        W95136  26.025  33.931   2.317
31413W        W95137  37.393  18.709   3.682
31414W        W95138  30.959  11.196   1.307
31415W        W95139   6.280  33.918   4.122
31416W        W95140  15.149  28.183   0.765
31417W        W95141  35.956  29.502   0.776
31418W        W95142   9.178   8.769  12.570
31419W        W95143   5.432  33.955   0.837
31420W        W95144  25.576   2.252  12.887
31421W        W95145  18.287  32.487  14.835
31422W        W95146   6.766  43.879   3.756
31423W        W95147  43.294  23.719   4.620
31424W        W95148   4.389  13.721   4.694
31425W        W95149  35.360   5.425   4.674
31426W        W95150  33.398   1.756   3.663
31427W        W95151   8.752  23.078   2.672
31428W        W95152  14.764  17.653  14.414
31429W        W95153  22.717   0.280  11.498
31430W        W95154  16.292  15.155   0.874
31431W        W95155  19.059  29.088   3.680
31432W        W95156  17.697  33.572  13.879
31433W        W95157  33.925   9.373  13.052
31434W        W95158  29.648   0.429  13.308
31435W        W95159  34.918  22.128  10.603
31436W        W95160  12.256  19.594   2.733
31437W        W95161  32.521   3.904   3.670
31438W        W95162  43.942  24.616  10.555
31439W        W95163  10.369  26.677  13.844
31440W        W95164  31.122  25.553  13.440
31441W        W95165   6.830  41.434   1.264
31442W        W95166  10.241  41.829   5.303
31443W        W95167  33.988  17.674   1.841
31444W        W95168   4.764  22.557   0.840
31445W        W95169  18.705  19.563   3.222
31446W        W95170  21.142  31.455   1.372
31447W        W95171  32.964  44.390  12.077
31448W        W95172  13.775  26.165  11.461
31449W        W95173   1.962   1.937   0.443
31450W        W95174  41.478  28.005   3.787
31451W        W95175  15.190   8.822   3.641
31452W        W95176  27.050  19.272   1.349
31453W        W95177  35.387  43.306   2.717
31454W        W95178  29.048  43.856  11.013
31455W        W95179   3.884  13.139  12.577
31456W        W95180  27.188  36.095   2.830
31457W        W95181  12.763  21.088  14.388
31458W        W95182  22.722   2.894   4.777
31459W        W95183  44.001   7.296   3.647
31460W        W95184   2.865  27.114  11.915
31461W        W95185  13.660  39.539   4.802
31462W        W95186   8.797   4.787   3.838
31463W        W95187  25.517  22.020   4.771
31464W        W95188  32.023  23.160  11.904
31465W        W95189   6.220  19.538  14.303
31466W        W95190   7.782   9.863   1.394
31467W        W95191  21.170  21.221  13.311
31468W        W95192  34.917  26.180   2.288
31469W        W95193  38.067  13.634  13.931
31470W        W95194  27.078  35.901  12.341
31471W        W95195  20.033  37.888  14.770
31472W        W95196  17.719  20.607   0.428
31473W        W95197  11.240  44.838  12.526
31474W        W95198  19.772  22.056  13.848
31475W        W95199  44.857  34.592   2.283
31476W        W95200  35.046  26.158   4.830
31477W        W95201  27.590  39.991   0.374
31478W        W95202   5.398  41.305   3.342
31479W        W95203  42.990  19.655  14.896
31480W        W95204   7.307  34.047  11.512
31481W        W95205  41.873  24.543   2.897
31482W        W95206  37.366   4.415  14.878
31483W        W95207   6.760  11.222   1.426
31484W        W95208  35.590   3.825  12.960
31485W        W95209   7.301  20.059  14.373
31486W        W95210  41.310  28.651  11.038
31487W        W95211  28.169   1.420   0.915
31488W        W95212  20.714  13.305   1.243
31489W        W95213  23.094  20.620  13.500
31490W        W95214  29.112   4.726  13.362
31491W        W95215  20.086  35.022  11.576
31492W        W95216  17.707   7.171   3.213
31493W        W95217   7.284  29.018   0.453
31494W        W95218  20.603  16.166  13.795
31495W        W95219  13.646  44.931  11.493
31496W        W95220   5.380   1.856   0.803
31497W        W95221   0.248  41.005   1.830
31498W        W95222  12.821  18.787   1.903
31499W        W95223  18.608  37.943  13.967
31500W        W95224  25.519   0.761  12.538
31501W        W95225  34.884   3.820   1.861
31502W        W95226   0.765  34.939  13.458
31503W        W95227  17.795   7.331   4.726
31504W        W95228   8.655   4.321  13.016
31505W        W95229  32.987   8.373   4.778
31506W        W95230   0.766  20.259   4.296
31507W        W95231  36.527  21.103  13.027
31508W        W95232   4.721  24.705   4.342
31509W        W95233  26.105  31.108  12.943
31510W        W95234  19.155  32.435   2.416
31511W        W95235  44.754  33.395  11.556
31512W        W95236  38.920   4.812   0.964
31513W        W95237  10.737  21.131   2.359
31514W        W95238   6.735  12.360   3.769
31515W        W95239   2.898   6.263  11.545
31516W        W95240   6.398   7.878   1.226
31517W        W95241  35.893  40.852   1.738
31518W        W95242   0.793  42.934   4.707
31519W        W95243  22.155   4.356  10.930
31520W        W95244  37.022   6.411  13.526
31521W        W95245  24.142  34.033   2.240
31522W        W95246  23.041   1.762  13.870
31523W        W95247  29.497  43.444   3.290
31524W        W95248  23.629  31.958  12.835
31525W        W95249  28.507  43.438  14.324
31526W        W95250  14.609  42.916   5.149
31527W        W95251  18.223  34.495   0.827
31528W        W95252  38.938  12.189   3.662
31529W        W95253  32.910   1.930   4.180
31530W        W95254  37.032   7.728   2.248
31531W        W95255  15.151  11.751  13.932
31532W        W95256   8.316  18.760   2.270
31533W        W95257  11.745  17.165   2.824
31534W        W95258  29.516  27.099  11.455
31535W        W95259   4.372  33.526  14.436
31536W        W95260   6.389  40.366  11.993
31537W        W95261  20.142  44.261  13.307
31538W        W95262  30.983  29.075  10.905
31539W        W95263  34.577  22.080   0.390
31540W        W95264   7.300  10.754   0.295
31541W        W95265  22.140  44.780  14.510
31542W        W95266  20.167   5.822  14.301
31543W        W95267   4.291  32.071  12.392
31544W        W95268   6.271  15.234  11.073
31545W        W95269  20.732  13.160  11.478
31546W        W95270   2.867   6.801  11.377
31547W        W95271   6.809  15.724   5.124
31548W        W95272  11.634  34.598  10.574
31549W        W95273  25.650  18.169   2.832
31550W        W95274  16.202  37.571   4.828
31551W        W95275  25.599  15.252   4.123
31552W        W95276  32.446  39.457  14.515
31553W        W95277  40.417  28.477  13.043
31554W        W95278   7.397  17.737   2.789
31555W        W95279  11.811  20.589  10.412
31556W        W95280   5.328  31.077  14.290
31557W        W95281   1.409   1.414   0.425
31558W        W95282  37.852  18.187   0.358
31559W        W95283  34.000  36.905   3.641
31560W        W95284  32.585  20.045   2.804
31561W        W95285   7.858  30.111  10.902
31562W        W95286   2.770   2.956  11.981
31563W        W95287  20.541  43.358   3.847
31564W        W95288   4.272  20.130   0.888
31565W        W95289  42.816  39.880  13.937
31566W        W95290   0.938  24.623   2.762
31567W        W95291   7.864   0.294  12.041
31568W        W95292  13.763  42.793  12.071
31569W        W95293  31.906  19.098  12.568
31570W        W95294  20.625  14.738   0.325
31571W        W95295  20.259  39.431   4.233
31572W        W95296  31.407  44.970  11.502
31573W        W95297  10.724  32.469  14.773
31574W        W95298  42.789   9.859  12.960
31575W        W95299  15.780  27.543  11.422
31576W        W95300  16.810  31.045   3.775
31577W        W95301  14.650   2.933   9.655
31578W        W95302  35.074  22.715  12.370
31579W        W95303   2.916  12.647   2.770
31580W        W95304  12.324  11.152  13.443
31581W        W95305   1.766   9.770  10.921
31582W        W95306  40.963  26.655   2.286
31583W        W95307  30.454  32.535   1.869
31584W        W95308  15.287  21.620   1.328
31585W        W95309  11.720  14.150  13.471
31586W        W95310  44.980  22.148   4.824
31587W        W95311   9.363  44.855  13.999
31588W        W95312  35.500  38.409  14.374
31589W        W95313  31.550   7.284  14.973
31590W        W95314  20.092  43.958   2.869
31591W        W95315  37.920   5.417  13.923
31592W        W95316   7.321   8.674   4.633
31593W        W95317   8.310  31.509   0.926
31594W        W95318  36.064  24.108   0.843
31595W        W95319  37.389   7.679   1.389
31596W        W95320  26.494  35.921  12.508
31597W        W95321   1.912  43.971   2.804
31598W        W95322  35.943   6.367   1.724
31599W        W95323  28.499   6.324   4.184
31600W        W95324  23.717  10.874  13.857
31601W        W95325  20.258   2.900  13.382
31602W        W95326  16.167  17.200  12.880
31603W        W95327   0.907   2.884  13.490
31604W        W95328  24.005  36.362   0.753
31605W        W95329  39.504  30.651   0.921
31606W        W95330  33.543  22.062  11.995
31607W        W95331  42.906  31.580   0.817
31608W        W95332  13.177  24.230  10.887
31609W        W95333  12.305  27.566  11.372
31610W        W95334   0.487  24.633   4.229
31611W        W95335  43.838  43.895   1.415
31612W        W95336  20.569  18.775   1.775
31613W        W95337  40.548  34.964  13.039
31614W        W95338   9.392  40.017   0.854
31615W        W95339  21.165  22.999  10.533
31616W        W95340  27.016  10.684   1.297
31617W        W95341  44.410  20.179  11.571
31618W        W95342  30.977  22.075  13.048
31619W        W95343  20.708   5.867  14.008
31620W        W95344  41.478  39.390  10.404
31621W        W95345  36.477  44.860  12.399
31622W        W95346  22.019  25.969   3.830
31623W        W95347  44.482  13.147   1.871
31624W        W95348  29.496   4.902   2.732
31625W        W95349  23.039   3.805   0.858
31626W        W95350  28.149   5.260  14.299
31627W        W95351   2.819  25.040   3.666
31628W        W95352   0.954  25.630  13.431
31629W        W95353   5.798  21.037   2.891
31630W        W95354  24.703  26.156  12.903
31631W        W95355   8.796  21.027   1.375
31632W        W95356  44.997  13.237  13.953
31633W        W95357  38.004   3.739  12.346
31634W        W95358  15.097  40.437   1.743
31635W        W95359  19.249  42.844  13.816
31636W        W95360   8.370  36.497  13.470
31637W        W95361  17.671  32.102   1.885
31638W        W95362  25.094   3.302   4.314
31639W        W95363  15.790  35.427   4.171
31640W        W95364  20.618   1.734   0.417
31641W        W95365  28.611  41.924   3.719
31642W        W95366   1.405  27.631  11.932
31643W        W95367  31.419  28.490  11.399
31644W        W95368  21.688  15.800  13.977
31645W        W95369  28.123   8.379  12.050
31646W        W95370  26.012  33.518  11.383
31647W        W95371  43.290  15.256   2.823
31648W        W95372  41.836  38.992  11.958
31649W        W95373  24.061  31.562  14.934
31650W        W95374   6.287   2.895  10.523
31651W        W95375  40.338  21.722   0.824
31652W        W95376   3.954  30.555  12.516
31653W        W95377  22.187   5.918   0.962
31654W        W95378  27.487   5.705   4.308
31655W        W95379  27.049   8.668  14.822
31656W        W95380   3.890  20.714   4.723
31657W        W95381   7.698  19.587  13.336
31658W        W95382   4.923  24.203  12.411
31659W        W95383  21.097   8.898   5.133
31660W        W95384  41.892  10.666  11.601
31661W        W95385  33.422  22.509   3.754
31662W        W95386  31.550  20.694  11.905
31663W        W95387  44.431  32.549   4.264
31664W        W95388  20.052  42.462  13.868
31665W        W95389   2.375  31.420   2.199
31666W        W95390   2.327  27.083   1.755
31667W        W95391  24.724   7.902  13.428
31668W        W95392  24.098  38.859   9.952
31669W        W95393  15.694   1.290   4.211
31670W        W95394  40.470  13.835  14.453
31671W        W95395  35.475  25.108  11.045
31672W        W95396  44.259  31.079  12.468
31673W        W95397  17.067  15.086  13.960
31674W        W95398  42.525  22.038   1.315
31675W        W95399  18.238  23.110  14.993
31676W        W95400  30.457  35.382   4.685
31677W        W95401   8.716  22.606  12.350
31678W        W95402  15.728  25.105  12.011
31679W        W95403   6.408  10.312   0.367
31680W        W95404   0.256  12.288   1.933
31681W        W95405  34.998  18.190  14.381
31682W        W95406  22.548   3.889   3.234
31683W        W95407  23.115  17.729  11.092
31684W        W95408  37.358  13.832   4.652
31685W        W95409  25.531  30.539   1.771
31686W        W95410  39.528   5.753  13.309
31687W        W95411  17.707   3.732  13.477
31688W        W95412   2.875  10.859  12.392
31689W        W95413  15.761   3.345   3.788
31690W        W95414   3.846   7.382   2.232
31691W        W95415  41.986  35.560  13.880
31692W        W95416   4.257  14.214   1.743
31693W        W95417  21.698  17.609  12.850
31694W        W95418  15.579  26.129  13.488
31695W        W95419  43.877   8.823  14.848
31696W        W95420  18.698  17.680  12.933
31697W        W95421   5.193  28.632  13.453
31698W        W95422  31.954   0.847   5.279
31699W        W95423  16.659  34.431   0.941
31700W        W95424   5.393  18.095  12.389
31701W        W95425  18.250  18.783  12.382
31702W        W95426  21.145  22.223   2.692
31703W        W95427  23.715   8.279   0.917
31704W        W95428  25.209  22.690  11.586
31705W        W95429  37.479  30.023  12.509
31706W        W95430  37.967  28.520  14.508
31707W        W95431  11.754  20.052  12.382
31708W        W95432  14.247  43.348   2.324
31709W        W95433  38.873  20.699   4.786
31710W        W95434   5.302   7.320   1.817
31711W        W95435  32.595  19.059  13.896
31712W        W95436   9.212  23.203   0.441
31713W        W95437  26.000  38.951   2.882
31714W        W95438  12.276  31.988  14.329
31715W        W95439   4.315   3.313   1.846
31716W        W95440  39.039   0.304  10.542
31717W        W95441  34.559  11.811   4.290
31718W        W95442  43.457   2.356   2.381
31719W        W95443  15.151   8.879  13.951
31720W        W95444   5.706   6.720   2.697
31721W        W95445  37.436  31.951  14.909
31722W        W95446  23.490  36.882   4.344
31723W        W95447  30.610   9.820   2.345
31724W        W95448   0.803   9.771  12.568
31725W        W95449  25.631  12.842   3.737
31726W        W95450  26.497  35.425   0.330
31727W        W95451  19.073  16.220  10.011
31728W        W95452  18.681  32.500   4.735
31729W        W95453  25.010  11.361   2.747
31730W        W95454  10.739  35.448  12.939
31731W        W95455  21.596  28.483   3.318
31732W        W95456  29.486  29.562   3.326
31733W        W95457  15.155  29.473   0.961
31734W        W95458   0.951  42.782  10.542
31735W        W95459  32.623   5.396   4.210
31736W        W95460  31.060  29.478  13.061
31737W        W95461  39.557  23.644   3.833
31738W        W95462   9.310  26.140   4.209
31739W        W95463  44.815  13.786   0.897
31740W        W95464  32.920  24.621  12.882
31741W        W95465  36.512  16.168   4.206
31742W        W95466  37.027  26.958  13.038
31743W        W95467  28.131   3.887   3.320
31744W        W95468  41.932  17.656   3.160
31745W        W95469  11.349  14.723  12.054
31746W        W95470  32.407  37.523  14.983
31747W        W95471  30.027  41.900  10.492
31748W        W95472   4.268  10.211  12.376
31749W        W95473  31.518   4.408  13.915
31750W        W95474  19.688  30.426   1.758
31751W        W95475   9.885  34.493  11.120
31752W        W95476  34.025  39.053   2.829
31753W        W95477  36.843  35.986  11.862
31754W        W95478  21.027   1.843  12.435
31755W        W95479  33.913  39.853  14.960
31756W        W95480  31.023  10.331  14.337
31757W        W95481   5.382  40.420   0.381
31758W        W95482  27.085  11.315   5.577
31759W        W95483   2.815   8.866   3.666
31760W        W95484  25.033  31.410  12.945
31761W        W95485  14.318   8.683  14.382
31762W        W95486  13.754   7.337   4.259
31763W        W95487  14.691  32.419  13.931
31764W        W95488  43.367  11.327  14.395
31765W        W95489  18.106  25.140   3.680
31766W        W95490  42.354  39.460   2.860
31767W        W95491  40.972  34.897   4.601
31768W        W95492  13.807  13.640  10.483
31769W        W95493  27.083   7.238  12.948
31770W        W95494   2.832   3.810  11.561
31771W        W95495   6.854  37.545   2.676
31772W        W95496  41.977   4.749   3.748
31773W        W95497   0.334  19.187  11.035
31774W        W95498  21.216   0.438  10.634
31775W        W95499  32.501  33.036   4.712
31776W        W95500  38.998  19.615  11.397
31777W        W95501   7.700  28.066  10.895
31778W        W95502  40.821   9.759   2.209
31779W        W95503  27.580  43.807  14.802
31780W        W95504  14.304  34.087  13.797
31781W        W95505  13.701  38.030   2.248
31782W        W95506   6.350  36.452  12.908
31783W        W95507  21.524  18.058   2.235
31784W        W95508  38.051  21.090  10.505
31785W        W95509  40.369  15.162   1.239
31786W        W95510   8.235  29.125  12.028
31787W        W95511  13.687   6.393  13.454
31788W        W95512  10.176  35.910  12.497
31789W        W95513   1.237  22.719   0.886
31790W        W95514  10.744  44.468   9.934
31791W        W95515  33.919   4.704   2.349
31792W        W95516  12.117   6.331   0.284
31793W        W95517  21.090   0.876   3.320
31794W        W95518  36.038  20.723   4.660
31795W        W95519  25.523  30.642   4.827
31796W        W95520  21.589  23.683   1.266
31797W        W95521   8.257  42.927   2.878
31798W        W95522  19.761  35.075   0.280
31799W        W95523  30.430  15.716  12.883
31800W        W95524  19.195  43.445   3.271
31801W        W95525  37.427  43.977  12.447
31802W        W95526  29.667  40.977  13.377
31803W        W95527  31.544   1.376  14.841
31804W        W95528  43.797   6.313   3.862
31805W        W95529  30.484  15.780  12.353
31806W        W95530  29.009  27.049  14.455
31807W        W95531  27.592  38.026   2.730
31808W        W95532  34.017   0.849   4.192
31809W        W95533  36.895   0.920   2.767
31810W        W95534  29.584  39.913  13.383
31811W        W95535  33.616  27.050  12.898
31812W        W95536  25.158  33.509  12.042
31813W        W95537  21.197   5.438   2.196
31814W        W95538  41.350   8.215   4.223
31815W        W95539  20.035  34.545  11.438
31816W        W95540  33.004  30.060  13.402
31817W        W95541  25.495  27.056   2.807
31818W        W95542   1.861   7.244   0.967
31819W        W95543  28.116  44.760  10.041
31820W        W95544  39.015  37.398  12.943
31821W        W95545  28.471   4.279  13.854
31822W        W95546  30.602   5.324   2.869
31823W        W95547  33.623  11.669   2.791
31824W        W95548  25.016   0.840   2.180
31825W        W95549   2.271   0.407   2.186
31826W        W95550  36.893  36.050   0.318
31827W        W95551   2.261   0.766   1.922
31828W        W95552  43.410  41.529   0.337
31829W        W95553  40.800  44.974  10.892
31830W        W95554  37.032  41.833   4.629
31831W        W95555  28.586  39.878   1.253
31832W        W95556  13.302   7.171   4.639
31833W        W95557  12.283   8.795  13.353
31834W        W95558  27.497   3.289  12.450
31835W        W95559  18.129  37.939  14.936
31836W        W95560  23.010  27.131   4.666
31837W        W95561  11.237  16.290   2.803
31838W        W95562  44.409  37.917   4.154
31839W        W95563  34.478   7.226  12.565
31840W        W95564  22.720  13.610   2.232
31841W        W95565  20.039  13.626  12.878
31842W        W95566  14.755  10.789  12.868
31843W        W95567  19.636  17.169   5.202
31844W        W95568  28.583   8.220  12.016
31845W        W95569  13.631  19.714   3.716
31846W        W95570  24.607   6.909   2.744
31847W        W95571  34.400  25.540   1.403
31848W        W95572   4.359  37.437   4.210
31849W        W95573  17.111   3.246  14.509
31850W        W95574  18.266  16.164   4.672
31851W        W95575   6.823  36.465  13.412
31852W        W95576  10.815  34.599  12.994
31853W        W95577  27.100  15.240  11.592
31854W        W95578  24.103  27.571   5.610
31855W        W95579  12.767  29.090   0.947
31856W        W95580  18.768   7.413  13.981
31857W        W95581  30.603  29.519   0.305
31858W        W95582  14.249  24.517   2.251
31859W        W95583  10.153   0.754   0.288
31860W        W95584  29.543   5.910  14.979
31861W        W95585  18.663  11.361  10.987
31862W        W95586  16.294  32.440  12.974
31863W        W95587  28.457  22.682  14.784
31864W        W95588  43.376  19.582  11.067
31865W        W95589  39.521  33.499   2.320
31866W        W95590  30.524  36.056  13.975
31867W        W95591  19.048   3.337   4.741
31868W        W95592   5.695  36.469  10.526
31869W        W95593  42.917  42.525  12.416
31870W        W95594  30.525  34.099  12.487
31871W        W95595  38.903  22.670  13.001
31872W        W95596   3.242  41.447   0.393
31873W        W95597  36.579   9.266   0.296
31874W        W95598  23.568   4.799   1.387
31875W        W95599  25.216   4.837   3.766
31876W        W95600  10.874  26.129   2.777
31877W        W95601   4.303  39.020   2.898
31878W        W95602  11.310   6.733   3.374
31879W        W95603  44.279   5.299   4.695
31880W        W95604   2.841  21.109  14.414
31881W        W95605  31.496  19.069   3.784
31882W        W95606  25.003  23.111   0.407
31883W        W95607  38.477  17.727   1.378
31884W        W95608  30.152  20.721   4.722
31885W        W95609  35.412  32.960   1.327
31886W        W95610   8.881  32.457  13.474
31887W        W95611  36.389   8.240   1.737
31888W        W95612   3.908  44.779   4.314
31889W        W95613   3.316  12.636  14.842
31890W        W95614  36.005  21.018  10.483
31891W        W95615   6.863  20.079  10.625
31892W        W95616  40.805  31.604   4.806
31893W        W95617  32.488  28.184  12.520
31894W        W95618   7.359  25.563  12.868
31895W        W95619  36.571  23.608  14.405
31896W        W95620   9.254  24.156  12.479
31897W        W95621  26.584   6.182  12.462
31898W        W95622  29.098  11.275   4.280
31899W        W95623  41.396  32.444  14.866
31900W        W95624  27.553  26.041   1.416
31901W        W95625  39.862  34.948   5.758
31902W        W95626  32.631  22.045  11.022
31903W        W95627  41.512   9.188  13.328
31904W        W95628   0.434  20.632  13.917
31905W        W95629  37.880  13.168   0.400
31906W        W95630  21.103  42.959  13.372
31907W        W95631  37.506  33.073   4.249
31908W        W95632  22.676  34.549   0.761
31909W        W95633   7.899  39.012   1.434
31910W        W95634  28.580   9.783  12.919
31911W        W95635   4.274  33.528  10.890
31912W        W95636   2.896  20.695   4.655
31913W        W95637  32.104  25.045   0.391
31914W        W95638  14.285  33.386   3.294
31915W        W95639  21.117  11.282   4.613
31916W        W95640  25.145   5.223   3.794
31917W        W95641  12.796   8.395  14.918
31918W        W95642  13.150  37.438   4.716
31919W        W95643  44.001  18.272  13.005
31920W        W95644  19.102  19.648  14.825
31921W        W95645   1.736  14.680   3.784
31922W        W95646  35.998  33.024  10.498
31923W        W95647  36.574  12.756   5.128
31924W        W95648   1.375  25.147   4.297
31925W        W95649  22.087  15.186  10.521
31926W        W95650  33.051  13.755  11.117
31927W        W95651  17.213  36.394   1.908
31928W        W95652  41.985   9.362   0.785
31929W        W95653  28.179  15.103  12.348
31930W        W95654  19.676  43.419  10.485
31931W        W95655  31.629  15.155   4.824
31932W        W95656   8.775  42.941  14.318
31933W        W95657  20.239  19.570   4.179
31934W        W95658   0.358  27.566  10.605
31935W        W95659  39.484  14.261  12.558
31936W        W95660  27.528   7.291   4.681
31937W        W95661  15.285   5.853  11.433
31938W        W95662   0.745  21.126   0.304
31939W        W95663  27.620  19.752   0.258
31940W        W95664  14.696  35.414  12.344
31941W        W95665  28.583  32.427   2.315
31942W        W95666   3.304  42.355   3.225
31943W        W95667   7.677   2.793   2.821
31944W        W95668  41.021  36.015   0.903
31945W        W95669  30.982   5.709  10.117
31946W        W95670   9.765  20.154   1.820
31947W        W95671  23.513  40.016   1.807
31948W        W95672  36.446   1.777  12.396
31949W        W95673   8.659  43.809  12.964
31950W        W95674  43.324  43.371   2.803
31951W        W95675   6.789   3.778   0.333
31952W        W95676  11.269  36.514   1.784
31953W        W95677  32.123   0.945  14.309
31954W        W95678  27.193  15.786  12.358
31955W        W95679   1.966  14.663   0.301
31956W        W95680  40.814  30.447   1.281
31957W        W95681   4.930   1.388  10.963
31958W        W95682  41.866  11.156   2.273
31959W        W95683  15.640  40.348  12.956
31960W        W95684  25.495  23.538  13.433
31961W        W95685  33.447  21.164  11.043
31962W        W95686   4.943  38.396  14.286
31963W        W95687   2.833  10.781  13.030
31964W        W95688  22.228   8.663  13.447
31965W        W95689  42.390  27.620  13.445
31966W        W95690  19.577   3.874  11.435
31967W        W95691  39.026  37.385  10.944
31968W        W95692  44.795  40.799   4.733
31969W        W95693  12.617  23.092   3.289
31970W        W95694  35.457  14.235   0.282
31971W        W95695   8.885  40.348   4.791
31972W        W95696  14.273   9.664  14.899
31973W        W95697  17.618  20.061  13.351
31974W        W95698  11.257  38.896  13.823
31975W        W95699  23.132  39.020  14.316
31976W        W95700   3.288  42.970  13.409
31977W        W95701   2.878  41.912  13.408
31978W        W95702  35.972  22.512  12.424
31979W        W95703  40.473  24.559   2.259
31980W        W95704  21.526   3.775   2.348
31981W        W95705   8.224  18.205   4.319
31982W        W95706  15.259  31.065  13.853
31983W        W95707  22.541  24.527   1.358
31984W        W95708  25.069  23.552   3.272
31985W        W95709  36.060  40.452  14.396
31986W        W95710  43.877  15.777  10.017
31987W        W95711   6.284  23.545   1.791
31988W        W95712  23.572  18.123   1.407
31989W        W95713  28.467  17.088  14.909
31990W        W95714  23.515   9.203  13.952
31991W        W95715  28.445  44.287   2.308
31992W        W95716  23.684  31.938   0.929
31993W        W95717  30.626   5.819  13.514
31994W        W95718  36.570  13.143  12.965
31995W        W95719  11.621  32.601   1.279
31996W        W95720  26.014  31.983   1.851
31997W        W95721  43.924  28.628  13.399
31998W        W95722  15.174  23.661  14.780
31999W        W95723  27.980  33.946   2.189
32000W        W95724   8.837  44.485   1.382
32001W        W95725  24.693  39.818  14.001
32002W        W95726  38.549  23.999  11.601
32003W        W95727  40.844  40.014   3.267
32004W        W95728  38.353  30.413   0.319
32005W        W95729   9.654  12.133   5.094
32006W        W95730  41.370  17.621  11.594
32007W        W95731   1.251   2.891  12.549
32008W        W95732   2.366  23.636   0.933
32009W        W95733  24.582  24.645  12.019
32010W        W95734  19.701  27.045   0.446
32011W        W95735  36.041  20.136   1.428
32012W        W95736   9.658  21.546  14.869
32013W        W95737   1.298  44.353  10.414
32014W        W95738   7.776  44.461  14.454
32015W        W95739  34.081  32.071  14.286
32016W        W95740  41.862  19.710   5.201
32017W        W95741  10.763  25.198  12.429
32018W        W95742  20.603  23.498   0.811
32019W        W95743  10.860  15.589  14.507
32020W        W95744  40.909   3.234  12.347
32021W        W95745  43.442   1.390   0.964
32022W        W95746  17.285  24.140  10.961
32023W        W95747  18.731  22.025   1.222
32024W        W95748  12.802  43.908   0.880
32025W        W95749  43.434  33.606  11.441
32026W        W95750  18.239   6.218   0.288
32027W        W95751   5.758  30.548  14.425
32028W        W95752  32.524  28.540  10.941
32029W        W95753  27.113   1.827   1.358
32030W        W95754  27.572   0.415   0.727
32031W        W95755   8.677  12.820  13.481
32032W        W95756  28.070  21.143  14.975
32033W        W95757  44.314  20.156  11.916
32034W        W95758  42.003  22.025  13.051
32035W        W95759  22.041   0.922  13.319
32036W        W95760   2.357   8.892   2.287
32037W        W95761  24.109  13.790  14.503
32038W        W95762  44.832   2.753   4.220
32039W        W95763   7.348  30.416   0.915
32040W        W95764   4.430   9.369  13.325
32041W        W95765  21.185  15.765   0.811
32042W        W95766  18.227  30.424  13.025
32043W        W95767   5.280   6.896   0.313
32044W        W95768  30.054  33.999  13.961
32045W        W95769  38.469   1.317   1.341
32046W        W95770  21.682  39.972  12.909
32047W        W95771  33.060  32.522   1.389
32048W        W95772   6.793  30.452  13.875
32049W        W95773   9.805   8.201   3.870
32050W        W95774   2.348   0.489  13.048
32051W        W95775  11.642  27.617   3.721
32052W        W95776  33.445  34.053   4.140
32053W        W95777   8.695  21.530   3.242
32054W        W95778   7.230  32.971   1.221
32055W        W95779  33.008   0.261   2.902
32056W        W95780  30.986   8.390  13.354
32057W        W95781  11.864  34.888   0.246
32058W        W95782   3.836  33.954  11.959
32059W        W95783  11.142   9.832  11.994
32060W        W95784  17.174  25.037  11.858
32061W        W95785  23.203  20.143  12.999
32062W        W95786  40.035  35.037  12.509
32063W        W95787  43.980  27.646   1.736
32064W        W95788  34.549  26.146  14.781
32065W        W95789  36.370  25.581  11.941
32066W        W95790  19.674  13.276   2.251
32067W        W95791  29.620  12.293   4.787
32068W        W95792  40.822  34.451  11.388
32069W        W95793   6.333   0.933   0.754
32070W        W95794  15.685   3.915   0.249
32071W        W95795  38.422   9.648   1.738
32072W        W95796  44.849   4.266   4.756
32073W        W95797  27.998  33.453   0.965
32074W        W95798   7.366  11.151   1.721
32075W        W95799   7.807  25.181  12.914
32076W        W95800  14.174  28.507  13.876
32077W        W95801   9.392  34.104  13.314
32078W        W95802  22.190  37.494   4.190
32079W        W95803   0.449  36.503   2.361
32080W        W95804  37.066   4.277  12.034
32081W        W95805  27.448  14.640   2.897
32082W        W95806   5.271  42.854  12.826
32083W        W95807  30.567   0.296  10.925
32084W        W95808  32.420  16.183  11.592
32085W        W95809  26.131   5.278   1.854
32086W        W95810  29.951  31.412   3.804
32087W        W95811  30.160   9.293   1.910
32088W        W95812  31.041  33.529  10.631
32089W        W95813  33.488  22.224   0.246
32090W        W95814  42.368  24.050  13.328
32091W        W95815  28.024  39.330   2.393
32092W        W95816  30.541  12.175   1.399
32093W        W95817  25.194  28.096   3.831
32094W        W95818  28.450  43.932  10.464
32095W        W95819  25.099  25.104  10.603
32096W        W95820   4.920  19.657   1.712
32097W        W95821  23.184  40.954  14.903
32098W        W95822  25.209  28.974  11.390
32099W        W95823  26.606  37.921   0.915
32100W        W95824  29.951  42.324  12.408
32101W        W95825  38.957  37.398   2.662
32102W        W95826  27.096   0.859  10.914
32103W        W95827  37.425  31.600  13.481
32104W        W95828  33.018   4.356  12.953
32105W        W95829  15.629   1.823   1.232
32106W        W95830  36.090  35.482   4.777
32107W        W95831   9.773  25.698   4.119
32108W        W95832  19.668  17.267  13.037
32109W        W95833  31.002  38.907   2.389
32110W        W95834   6.329  25.627   2.387
32111W        W95835  38.420   4.714   5.220
32112W        W95836  39.915  32.941  14.891
32113W        W95837  11.638  36.997   0.960
32114W        W95838  20.718  35.445   2.283
32115W        W95839  21.609  36.478   9.607
32116W        W95840  42.938  25.510   0.443
32117W        W95841  38.339  34.042  11.515
32118W        W95842  22.632  22.214   0.749
32119W        W95843   3.280  11.259   2.351
32120W        W95844  38.470   3.435  13.039
32121W        W95845  26.627   5.438  13.930
32122W        W95846   0.845  42.862   1.794
32123W        W95847  25.104  31.089  13.368
32124W        W95848  27.090  22.599  10.444
32125W        W95849  14.138  43.340  14.376
32126W        W95850  29.029   9.650   1.786
32127W        W95851   3.334  23.120   4.729
32128W        W95852  27.993  12.694   2.747
32129W        W95853  36.944  30.441  13.872
32130W        W95854  14.621  12.132   3.818
32131W        W95855   3.748  24.221  11.014
32132W        W95856   9.275   6.745  14.907
32133W        W95857  24.710  17.770  12.050
32134W        W95858  30.583   1.948  12.403
32135W        W95859  38.886   2.446   3.726
32136W        W95860  13.604  25.060   1.318
32137W        W95861   0.803  28.185   3.367
32138W        W95862  31.403  35.863  13.478
32139W        W95863  21.248   9.331  12.994
32140W        W95864  20.135  16.811   1.706
32141W        W95865   0.372  43.884   0.955
32142W        W95866  21.230   0.349  12.440
32143W        W95867  39.836  33.912  10.545
32144W        W95868  19.175  36.861   4.754
32145W        W95869  20.250   2.734  11.592
32146W        W95870  40.482  40.327   0.861
32147W        W95871  38.994  20.761   3.333
32148W        W95872  24.606  25.019   4.257
32149W        W95873  36.859  33.049  14.788
32150W        W95874  13.113  22.502  10.160
32151W        W95875   1.277  34.424   0.768
32152W        W95876  27.620  44.768  13.809
32153W        W95877   3.447  18.248  12.465
32154W        W95878   1.842  30.586  13.473
32155W        W95879   6.777  24.704   1.301
32156W        W95880  11.294  21.595  13.524
32157W        W95881  33.386  28.186   0.752
32158W        W95882  19.644  28.048   5.098
32159W        W95883  18.070   8.766   4.782
32160W        W95884  42.350  20.030  12.861
32161W        W95885  32.538  18.605   3.342
32162W        W95886  20.181  35.051   2.731
32163W        W95887  27.582  33.455  10.992
32164W        W95888  31.972   2.720   2.696
32165W        W95889  20.539  27.582  10.965
32166W        W95890  17.160  19.650  13.936
32167W        W95891  40.972  34.558   0.854
32168W        W95892  13.682  12.295   3.163
32169W        W95893  40.019  27.150   4.351
32170W        W95894  28.948   5.907   2.398
32171W        W95895  43.964  34.495  10.977
32172W        W95896  40.818  44.278   2.348
32173W        W95897  26.547  26.479  12.398
32174W        W95898  31.054  20.173  14.319
32175W        W95899  32.134   8.765   4.747
32176W        W95900  24.544  15.287   1.363
32177W        W95901  12.246   9.269   4.327
32178W        W95902  21.597  21.606   1.930
32179W        W95903  21.714  38.927   1.261
32180W        W95904  35.915  17.572  10.911
32181W        W95905  12.725  19.119  13.056
32182W        W95906  16.687  15.188  14.760
32183W        W95907  37.897   7.231   1.722
32184W        W95908  20.225  35.517  13.002
32185W        W95909  28.493  35.034  13.805
32186W        W95910  30.468  25.051  11.469
32187W        W95911   9.197  16.573  13.411
32188W        W95912  42.876  25.530  11.488
32189W        W95913  42.424  38.934   2.210
32190W        W95914  13.148  29.120   1.789
32191W        W95915  28.113  37.837   2.324
32192W        W95916  35.868  31.647  12.414
32193W        W95917  29.005  37.582   3.162
32194W        W95918  15.609   1.924  14.879
32195W        W95919  14.832  30.080   4.688
32196W        W95920  22.126  28.137  10.107
32197W        W95921  19.285  11.804  12.381
32198W        W95922  17.143  29.970   4.219
32199W        W95923  18.177  35.060   0.317
32200W        W95924  16.125  42.852   2.681
32201W        W95925  38.050   6.867   2.899
32202W        W95926  40.014   1.907  11.067
32203W        W95927  26.975  18.666  11.392
32204W        W95928   3.434  20.530   3.322
32205W        W95929  31.021   3.252  14.464
32206W        W95930  43.396  43.308   4.158
32207W        W95931  25.208  37.086  11.516
32208W        W95932  43.367   9.222   3.746
32209W        W95933  44.396   4.209  14.922
32210W        W95934  22.181  32.037   1.788
32211W        W95935  11.759  26.636  13.392
32212W        W95936   8.672  25.549   1.831
32213W        W95937  20.196  18.241   2.387
32214W        W95938  10.858  17.581  12.364
32215W        W95939  31.030  38.051   4.767
32216W        W95940  43.785  27.013  11.392
32217W        W95941  25.575   1.805  12.038
32218W        W95942  22.196  11.312  11.978
32219W        W95943  28.112  25.163  13.855
32220W        W95944   4.732  32.615   4.735
32221W        W95945  41.381  25.624   3.817
32222W        W95946  26.639  24.523   4.620
32223W        W95947   6.409   8.164  11.983
32224W        W95948   1.854   9.733  13.514
32225W        W95949   9.223  36.951   2.885
32226W        W95950  15.304  11.684  11.502
32227W        W95951  32.577  28.944  14.858
32228W        W95952  41.936  39.361   0.956
32229W        W95953   8.324   5.718  14.504
32230W        W95954  30.013  10.768  10.499
32231W        W95955   1.305  38.005   0.278
32232W        W95956  35.415   0.328  11.901
32233W        W95957  15.588  10.646  12.972
32234W        W95958   9.339  35.987   0.416
32235W        W95959  42.363  14.229  14.420
32236W        W95960   1.826  23.585   0.333
32237W        W95961  33.387  13.779   2.802
32238W        W95962  33.606  17.586   4.197
32239W        W95963  38.950  37.884   1.762
32240W        W95964  26.036   6.282  11.038
32241W        W95965  27.634  42.006   1.872
32242W        W95966  26.640  31.021   0.324
32243W        W95967  22.530  42.921   4.222
32244W        W95968   1.324  25.119  11.599
32245W        W95969  28.553  30.515   2.740
32246W        W95970  10.815  24.202   2.293
32247W        W95971   3.247   4.261  12.857
32248W        W95972  34.548  31.932   2.249
32249W        W95973   7.311  25.633   1.322
32250W        W95974  35.099  28.555   3.815
32251W        W95975  27.999  40.031  14.351
32252W        W95976  30.488   0.834  11.923
32253W        W95977  27.107  27.464  11.931
32254W        W95978   5.866  26.548   2.335
32255W        W95979  31.941  44.889  14.465
32256W        W95980  29.428   4.285   3.362
32257W        W95981  36.468  42.504  13.059
32258W        W95982   1.924  28.514  13.004
32259W        W95983  27.120  16.280   3.316
32260W        W95984  41.295   7.324  13.309
32261W        W95985  32.051   1.852  10.010
32262W        W95986  44.301  16.686   4.210
32263W        W95987  32.565  41.988   1.317
32264W        W95988  36.918  35.021   2.902
32265W        W95989   0.880  22.543  10.633
32266W        W95990  31.128   2.298  14.334
32267W        W95991  40.020  36.073  12.512
32268W        W95992  20.570  31.438   1.798
32269W        W95993   3.935  16.798   0.751
32270W        W95994  34.563  10.186   4.638
32271W        W95995  38.829   3.280   4.782
32272W        W95996   7.754   3.788   1.915
32273W        W95997  26.583  10.362  14.765
32274W        W95998   3.271  35.490  11.872
32275W        W95999  28.677   2.227   1.790
32276W        W96000  23.174  23.595   3.687
32277W        W96001   4.736   3.309   5.241
32278W        W96002  10.781   0.876   0.819
32279W        W96003  21.721  41.886  13.849
32280W        W96004  19.258  37.959  14.991
32281W        W96005  39.428  40.991   2.248
32282W        W96006  35.060  42.780  10.910
32283W        W96007  44.894  33.614  10.072
32284W        W96008   1.361  35.077   3.704
32285W        W96009  25.674  26.036   4.329
32286W        W96010  37.027  24.222  12.353
32287W        W96011  40.396  35.425  14.851
32288W        W96012  38.985  28.958   2.751
32289W        W96013  41.331   1.353   3.797
32290W        W96014  26.100  38.364   0.279
32291W        W96015   5.881  33.463   0.403
32292W        W96016  25.986  14.319  13.957
32293W        W96017   4.231  31.584   1.810
32294W        W96018  22.167  30.926   3.768
32295W        W96019  24.671  10.672   9.942
32296W        W96020  44.492   1.261   4.671
32297W        W96021  20.136   4.706  10.996
32298W        W96022  34.045   6.199  12.369
32299W        W96023  18.664  32.092   2.728
32300W        W96024  36.013  15.614  13.988
32301W        W96025   8.223  22.230  13.317
32302W        W96026  44.476  19.765  11.582
32303W        W96027  29.968  32.504  12.484
32304W        W96028   9.273  33.879  13.029
32305W        W96029  20.656  40.337  11.864
32306W        W96030   7.869  24.118   3.341
32307W        W96031  21.226  10.319   2.290
32308W        W96032  14.627  11.787   2.194
32309W        W96033  35.898  43.893  13.991
32310W        W96034  37.928  27.571  12.992
32311W        W96035  26.063  28.580   1.302
32312W        W96036  20.054  24.175  11.385
32313W        W96037  16.256   2.816   4.171
32314W        W96038  26.984  16.727   1.811
32315W        W96039   2.961  23.145   3.311
32316W        W96040   2.325  42.437   2.693
32317W        W96041  16.573   9.230  10.947
32318W        W96042   9.669  27.197   1.739
32319W        W96043  30.931  19.649   4.671
32320W        W96044  39.467  40.980   3.280
32321W        W96045   6.336  17.675  12.363
32322W        W96046  28.621  12.274  11.097
32323W        W96047  26.488  41.789   4.117
32324W        W96048   7.911  44.356  11.066
32325W        W96049  43.409  18.141  13.013
32326W        W96050  37.582  30.936  14.957
32327W        W96051  21.048  17.158   3.707
32328W        W96052   5.925  37.937   2.309
32329W        W96053  32.436  38.532   2.381
32330W        W96054  24.521  37.944  13.795
32331W        W96055  42.469  21.054   3.638
32332W        W96056   2.901  39.405   3.801
32333W        W96057  12.168  36.855  14.922
32334W        W96058  32.558  25.997   3.669
32335W        W96059  27.616  11.744   2.370
32336W        W96060  32.954  34.525   4.165
32337W        W96061   9.784  22.725   3.803
32338W        W96062  28.018  33.471   5.152
32339W        W96063  40.800   2.229   1.863
32340W        W96064  18.281  35.109  11.077
32341W        W96065  25.672  13.836  14.399
32342W        W96066  19.074  26.132  14.322
32343W        W96067  35.902  43.443  11.993
32344W        W96068   4.222   4.354  14.442
32345W        W96069  10.739  16.748   2.381
32346W        W96070  13.792  41.877   0.430
32347W        W96071  19.273  40.384  14.916
32348W        W96072  27.621  15.103   3.155
32349W        W96073  39.443   0.907   0.962
32350W        W96074  35.382  33.418  12.528
32351W        W96075   6.423  13.301  14.482
32352W        W96076  13.127  24.494  11.115
32353W        W96077  29.590  22.626  14.494
32354W        W96078  35.972   0.423   1.702
32355W        W96079  41.855   3.843  12.844
32356W        W96080   2.308  30.427  11.554
32357W        W96081   6.425   6.342   2.791
32358W        W96082  26.976   7.831   2.380
32359W        W96083  29.529   6.369  13.470
32360W        W96084  17.087  30.426  12.391
32361W        W96085  14.594   5.201   2.701
32362W        W96086  13.721  25.029  14.464
32363W        W96087  28.576   5.303   3.686
32364W        W96088  21.562  38.905  10.894
32365W        W96089  30.074  16.714  11.893
32366W        W96090  14.833   1.432  14.023
32367W        W96091  20.766  37.036   3.274
32368W        W96092  12.180   7.823   2.366
32369W        W96093  23.520  25.219  13.354
32370W        W96094  32.554  12.631   4.737
32371W        W96095  10.757   0.447  13.943
32372W        W96096  33.430   5.735  14.288
32373W        W96097   8.385  20.155   1.355
32374W        W96098  43.374   6.859  11.905
32375W        W96099  30.161   8.189   4.129
32376W        W96100  25.687  15.158  10.559
32377W        W96101  42.913   8.752   1.220
32378W        W96102  14.751   8.294  14.329
32379W        W96103  18.671  40.373  14.799
32380W        W96104  38.896  19.256  14.444
32381W        W96105  37.872   7.233  13.797
32382W        W96106   9.678  22.154   3.296
32383W        W96107  14.232   6.922  12.990
32384W        W96108  27.963  19.244   4.275
32385W        W96109  10.322   8.233  12.043
32386W        W96110  13.814  18.648   3.705
32387W        W96111   6.797  17.608  14.926
32388W        W96112  25.085  27.454  10.618
32389W        W96113   3.247   3.766   3.794
32390W        W96114  14.594  44.851  12.389
32391W        W96115  17.688   4.314  13.468
32392W        W96116   9.289  37.018  14.391
32393W        W96117   1.887  37.838  12.553
32394W        W96118  27.538   8.768  13.853
32395W        W96119   2.340   9.191   1.869
32396W        W96120   0.481  23.727  10.449
32397W        W96121   7.231  18.648   0.247
32398W        W96122  33.058  31.049  10.576
32399W        W96123  19.191  35.399   1.239
32400W        W96124  11.327  32.114  14.855
32401W        W96125  42.892   0.764  13.466
32402W        W96126  17.085   0.876   1.448
32403W        W96127   0.290  11.756   4.724
32404W        W96128  21.560  38.343   1.881
32405W        W96129  21.750  22.602  11.477
32406W        W96130  29.500  10.175   4.318
32407W        W96131  17.652  23.039  14.510
32408W        W96132  26.574  37.087   2.858
32409W        W96133  40.881  36.907   1.761
32410W        W96134  32.969  36.844   0.423
32411W        W96135  20.241  34.414  12.050
32412W        W96136   5.205  10.822  11.448
32413W        W96137   9.248  29.069  13.959
32414W        W96138  34.061  10.187   4.349
32415W        W96139  38.962  32.090   3.843
32416W        W96140  17.126  42.974   1.862
32417W        W96141  43.451   1.259  11.956
32418W        W96142  10.644  23.564   0.279
32419W        W96143   1.245  33.927  11.438
32420W        W96144  18.118  10.873   2.677
32421W        W96145  39.526   6.315  13.051
32422W        W96146  20.195  24.537  14.858
32423W        W96147  24.551   6.335   4.171
32424W        W96148  36.914  14.224   2.713
32425W        W96149   7.843  13.830   2.705
32426W        W96150  43.384  10.842  11.893
32427W        W96151  28.623  33.542   4.693
32428W        W96152  31.934  23.074  14.787
32429W        W96153  35.962  35.576   0.939
32430W        W96154  39.410  34.460   0.387
32431W        W96155  34.573  10.825  11.467
32432W        W96156  15.796  21.683  10.552
32433W        W96157   1.256  11.270   0.796
32434W        W96158  43.989  44.813  14.447
32435W        W96159   5.221  24.138   2.367
32436W        W96160   7.304   3.233  13.038
32437W        W96161  18.756  36.902   2.861
32438W        W96162  31.013  14.323   2.193
32439W        W96163  14.810  24.486   2.879
32440W        W96164  29.444   1.796   5.248
32441W        W96165  20.756   6.336   1.715
32442W        W96166  35.600  39.460   0.879
32443W        W96167   8.325   1.340   2.357
32444W        W96168  11.757   9.265   3.818
32445W        W96169  34.989  35.919   0.961
32446W        W96170  31.107  20.684  13.448
32447W        W96171  26.675  33.110   1.442
32448W        W96172   3.917  30.917   3.777
32449W        W96173   9.316   4.926  14.766
32450W        W96174  33.008  18.208  11.469
32451W        W96175  27.477  21.609   4.245
32452W        W96176  27.580  41.996   1.377
32453W        W96177  40.011  17.694   4.810
32454W        W96178  41.016   4.764   2.413
32455W        W96179  19.186  18.125   2.729
32456W        W96180  40.547  30.504  13.543
32457W        W96181   6.735   2.294  10.561
32458W        W96182   6.373  36.448   2.186
32459W        W96183  14.130  12.266   3.806
32460W        W96184  12.648  33.912   1.896
32461W        W96185   1.810   4.760   5.093
32462W        W96186   5.271  24.185   0.810
32463W        W96187  43.316  32.073  10.918
32464W        W96188  12.236   7.753  13.533
32465W        W96189  17.302  17.659  14.928
32466W        W96190  39.847  14.770  11.552
32467W        W96191  41.971  25.015  14.902
32468W        W96192   6.412  24.604   4.643
32469W        W96193  34.449  24.608   2.278
32470W        W96194   9.846   9.272  13.017
32471W        W96195  16.285  30.495  13.797
32472W        W96196  17.566  17.218  14.009
32473W        W96197   6.394  14.239  12.928
32474W        W96198   1.429  39.856   1.808
32475W        W96199   4.349  44.894   2.894
32476W        W96200   4.229  20.565   3.862
32477W        W96201  38.367   3.755   3.240
32478W        W96202  18.669  30.159   1.715
32479W        W96203   6.827   2.449  12.573
32480W        W96204   0.857   7.313   0.330
32481W        W96205  36.587   6.392  13.492
32482W        W96206  36.031  37.925  11.390
32483W        W96207  13.213  22.666   0.462
32484W        W96208  21.233  15.270  12.041
32485W        W96209   4.429  14.625   3.819
32486W        W96210   2.322  32.437   0.324
32487W        W96211  12.208  38.549   3.321
32488W        W96212  23.101  14.181  14.429
32489W        W96213  43.877   6.284   3.171
32490W        W96214  10.875  17.567   1.399
32491W        W96215  30.589  43.496  13.974
32492W        W96216  23.022   1.306  12.072
32493W        W96217  12.355  39.505   3.146
32494W        W96218  20.114  30.437  13.984
32495W        W96219  34.615   4.867   4.764
32496W        W96220  23.012  21.111   2.369
32497W        W96221   4.936  17.282  14.288
32498W        W96222   2.848   0.805   0.965
32499W        W96223  33.554  38.069  10.484
32500W        W96224  30.047  17.558  14.913
32501W        W96225   7.672   3.379  11.092
32502W        W96226  44.398  20.075  14.419
32503W        W96227   2.428  31.925  11.108
32504W        W96228  19.062   2.948  14.325
32505W        W96229   4.783  43.772  12.859
32506W        W96230   8.239  36.982   4.176
32507W        W96231   4.285  19.779   4.219
32508W        W96232  43.954  29.022  12.379
32509W        W96233   4.354  12.743  11.488
32510W        W96234   2.776   4.734   0.327
32511W        W96235  29.036   5.262   4.644
32512W        W96236  13.661  13.837   1.756
32513W        W96237   5.734  40.484   1.824
32514W        W96238  24.637  30.131   3.742
32515W        W96239  37.932  32.576   4.679
32516W        W96240  38.901  19.587   1.223
32517W        W96241  36.498  11.790  14.317
32518W        W96242  38.840  11.754   4.835
32519W        W96243  13.174  12.682  10.048
32520W        W96244  30.047   0.890   3.829
32521W        W96245  25.614  16.124  12.930
32522W        W96246  33.071  18.067  13.051
32523W        W96247  15.308  37.381  10.562
32524W        W96248  22.690  44.287   2.292
32525W        W96249  30.597  16.231   2.898
32526W        W96250  23.066  38.936   2.369
32527W        W96251  25.619   7.709  11.008
32528W        W96252  10.694  23.122   4.827
32529W        W96253  15.774  27.998   2.686
32530W        W96254  23.692  19.202   0.317
32531W        W96255  23.195  26.994   3.237
32532W        W96256  22.057  22.017  11.095
32533W        W96257  16.170  12.353   2.706
32534W        W96258  43.788  28.648  11.871
32535W        W96259  39.819  27.186  14.003
32536W        W96260  22.186  20.079  13.919
32537W        W96261  34.014   0.474   3.218
32538W        W96262  22.596  35.041   1.301
32539W        W96263  12.206  36.000  10.953
32540W        W96264  44.958   0.798  12.564
32541W        W96265  36.931   7.177   0.874
32542W        W96266  31.965  30.054   3.692
32543W        W96267  25.003   3.780   2.880
32544W        W96268  16.645  32.061   2.400
32545W        W96269  31.071  42.858   4.184
32546W        W96270   0.942  33.505   5.204
32547W        W96271   3.812   2.240  12.900
32548W        W96272  29.480   2.807  13.835
32549W        W96273  17.115  40.303  12.406
32550W        W96274  24.153  22.179  11.945
32551W        W96275  25.175  30.028  12.356
32552W        W96276  36.874  13.752  13.328
32553W        W96277  34.546   9.755   3.232
32554W        W96278   3.867  26.531  13.969
32555W        W96279   1.358  12.241  12.486
32556W        W96280  33.063  24.984   4.634
32557W        W96281   4.386   3.812  14.323
32558W        W96282   6.328  41.316  14.896
32559W        W96283   6.733  22.698  14.489
32560W        W96284   1.433  33.524   4.135
32561W        W96285  29.049  40.947  11.976
32562W        W96286   5.911  18.623  13.830
32563W        W96287  37.480  16.644   0.918
32564W        W96288   9.845  32.420  11.569
32565W        W96289  16.313   2.268   2.288
32566W        W96290  13.238  25.131   2.835
32567W        W96291   1.269  43.932  14.972
32568W        W96292  29.072  21.027  10.479
32569W        W96293  22.656  34.587   2.393
32570W        W96294  38.488  21.659  11.945
32571W        W96295  37.920  12.819   1.804
32572W        W96296   5.770  25.014   1.312
32573W        W96297  34.058  20.103  10.934
32574W        W96298  15.720  33.517   3.799
32575W        W96299  34.972  44.307   2.901
32576W        W96300  20.535   4.339  13.544
32577W        W96301  25.565  37.431   2.359
32578W        W96302  38.414   1.784   1.314
32579W        W96303  32.109  38.056  10.463
32580W        W96304  34.508  42.401  13.332
32581W        W96305  12.305  39.832   4.641
32582W        W96306  25.653  34.975   0.860
32583W        W96307   2.832  22.146  11.446
32584W        W96308   7.290  26.198   2.215
32585W        W96309  21.732  12.190  11.536
32586W        W96310  26.099  22.228   2.662
32587W        W96311  28.027   7.273   3.322
32588W        W96312   8.816   9.755   3.750
32589W        W96313  15.319   5.834   0.450
32590W        W96314  23.078  34.959  12.034
32591W        W96315   1.851  16.581   3.717
32592W        W96316  24.055  41.027   0.872
32593W        W96317  26.046  30.134  12.414
32594W        W96318  33.519  37.048  10.994
32595W        W96319  43.487  26.143   1.806
32596W        W96320  19.086  37.920  12.529
32597W        W96321   1.748  11.339  13.891
32598W        W96322  28.956  29.952   2.736
32599W        W96323  25.067   8.768   4.674
32600W        W96324   9.370   4.862   4.747
32601W        W96325  30.154  44.457   0.774
32602W        W96326  43.840  35.452  13.361
32603W        W96327   4.891   1.257   3.640
32604W        W96328  38.398  29.571  14.879
32605W        W96329  13.128   8.853  10.525
32606W        W96330  16.178  18.584   0.931
32607W        W96331  43.492   3.443  11.436
32608W        W96332  38.402  42.937  14.455
32609W        W96333  30.074  39.949   4.128
32610W        W96334  32.045  31.501  11.568
32611W        W96335  31.975   2.914  12.994
32612W        W96336  38.568   5.825   4.770
32613W        W96337   2.839   0.950   2.409
32614W        W96338  36.069   7.909   4.806
32615W        W96339  13.180   4.316  13.424
32616W        W96340  16.718  30.954   1.210
32617W        W96341  23.124  15.820   1.354
32618W        W96342  35.559   5.413  14.280
32619W        W96343   0.323  40.385   3.732
32620W        W96344   3.318  13.213  14.937
32621W        W96345  11.240  36.368  12.388
32622W        W96346  26.192  36.003  14.448
32623W        W96347  28.486   5.351  13.053
32624W        W96348  12.702  39.432  14.032
32625W        W96349   7.754   8.790  10.134
32626W        W96350  35.472   0.344   0.838
32627W        W96351  27.036  37.873   1.325
32628W        W96352  43.018  10.152   1.296
32629W        W96353  21.065  41.030  12.566
32630W        W96354  35.426  39.369  12.448
32631W        W96355  35.472  11.329   4.674
32632W        W96356  44.341  36.590  14.426
32633W        W96357  19.651  39.883   2.833
32634W        W96358  13.158  44.303  12.443
32635W        W96359   7.865  33.526  14.827
32636W        W96360  19.654  44.414   3.359
32637W        W96361  42.933  39.444  10.591
32638W        W96362   7.684   2.337   1.874
32639W        W96363  41.857  21.755  14.363
32640W        W96364  14.213  19.071   3.644
32641W        W96365  44.363  26.965   5.320
32642W        W96366  23.011  25.626  14.869
32643W        W96367  25.122  22.021   4.645
32644W        W96368   7.886   4.271  14.302
32645W        W96369   9.248   8.832  13.848
32646W        W96370  22.006  26.107   4.221
32647W        W96371  23.107  21.051   0.279
32648W        W96372  29.949   9.206  14.482
32649W        W96373  24.217   7.204   1.849
32650W        W96374  27.450  24.042  14.998
32651W        W96375  40.812  18.295   4.238
32652W        W96376  26.173  40.852  10.558
32653W        W96377   8.393  17.716   3.365
32654W        W96378  43.478  26.699   1.435
32655W        W96379  28.946  18.600   0.404
32656W        W96380  15.720  34.489  13.532
32657W        W96381  35.896  15.790  12.831
32658W        W96382  11.270  19.071  12.537
32659W        W96383  44.500  25.594   0.814
32660W        W96384  37.433  31.092  12.084
32661W        W96385   3.792  21.190  12.555
32662W        W96386  41.891   4.275   4.654
32663W        W96387  24.078  36.998   2.278
32664W        W96388   0.962  20.729  13.535
32665W        W96389  35.595  36.967  10.964
32666W        W96390  11.834  41.932   2.178
32667W        W96391  29.649  19.154  12.841
32668W        W96392  35.906  19.090   3.771
32669W        W96393  23.011  23.161  14.010
32670W        W96394  30.012  29.094  10.608
32671W        W96395  34.120   1.889   3.652
32672W        W96396   5.840  41.464  13.861
32673W        W96397  25.051  30.115   0.431
32674W        W96398  25.593   0.386   2.308
32675W        W96399  10.737  36.560  11.494
32676W        W96400  30.646  26.000  12.915
32677W        W96401  22.097  24.717  10.621
32678W        W96402  12.814  11.228  12.446
32679W        W96403   3.837  14.336   5.103
32680W        W96404  35.911  18.741  13.397
32681W        W96405  13.150  26.585  14.771
32682W        W96406  30.423  21.154  12.482
32683W        W96407  19.083  10.847  12.381
32684W        W96408  35.588  17.698   0.393
32685W        W96409   5.377   8.251  12.908
32686W        W96410  12.776   6.811  14.865
32687W        W96411   3.360  10.171   2.899
32688W        W96412  43.815  22.652   1.273
32689W        W96413  41.315  42.389   0.880
32690W        W96414   6.798  44.471   0.454
32691W        W96415  11.293  27.134  14.930
32692W        W96416  13.171  22.039   4.778
32693W        W96417  26.613  37.905  14.427
32694W        W96418  22.037  35.914  14.346
32695W        W96419  23.136  25.599  12.513
32696W        W96420  30.012  29.632   4.723
32697W        W96421  44.265  12.636   3.302
32698W        W96422  22.595  31.424  11.575
32699W        W96423  26.676  18.084   1.804
32700W        W96424  26.010  15.664   4.653
32701W        W96425  32.907  32.443  12.429
32702W        W96426  27.671  19.663  14.840
32703W        W96427  20.029   4.223   3.743
32704W        W96428  10.264  12.236  10.154
32705W        W96429  43.832   2.863   4.239
32706W        W96430   9.186  11.190  11.453
32707W        W96431  14.651   5.412  10.024
32708W        W96432  19.779  43.900   1.839
32709W        W96433  35.884  30.051  13.491
32710W        W96434  31.471  17.115   0.908
32711W        W96435  40.328   6.873   1.275
32712W        W96436  37.475  24.019  12.563
32713W        W96437  26.040  43.470   3.725
32714W        W96438  14.640  33.886   0.782
32715W        W96439  41.030  17.101  11.600
32716W        W96440  22.010  11.279  13.366
32717W        W96441  26.054   9.263  12.090
32718W        W96442  19.052  37.956  13.969
32719W        W96443  22.562  44.971   1.290
32720W        W96444   9.659  36.009  10.627
32721W        W96445  12.298  13.800   1.240
32722W        W96446   6.859   5.784   0.350
32723W        W96447   1.967  10.254   4.303
32724W        W96448  44.904  23.675   3.837
32725W        W96449  12.837  27.940   1.424
32726W        W96450  10.708  29.637   4.228
32727W        W96451   0.426  31.961  14.492
32728W        W96452  40.944  27.507  13.532
32729W        W96453  39.495  43.429   1.374
32730W        W96454  39.369  20.227   3.853
32731W        W96455   9.759   9.244  13.392
32732W        W96456  28.100  32.974  13.984
32733W        W96457  11.205  43.516   2.819
32734W        W96458  42.485  25.094  11.094
32735W        W96459  16.158  33.575   1.834
32736W        W96460  34.063   7.850   2.732
32737W        W96461  24.628  35.437   1.324
32738W        W96462  34.609  23.554   4.772
32739W        W96463  36.391  35.475  11.471
32740W        W96464  29.028  28.632  11.533
32741W        W96465  28.650  24.619  13.994
32742W        W96466   7.272  29.445  14.446
32743W        W96467  27.510  22.187  11.037
32744W        W96468  11.253  10.693  12.453
32745W        W96469   1.945  39.457   4.760
32746W        W96470  16.719  16.288   2.322
32747W        W96471   8.762   2.472   4.205
32748W        W96472   3.795   4.294   3.690
32749W        W96473  27.059  19.164  12.517
32750W        W96474  42.811  11.373  10.616
32751W        W96475  42.324  30.060   2.289
32752W        W96476   6.194  38.944  12.415
32753W        W96477  42.789   4.354   0.818
32754W        W96478  14.609   3.951  14.809
32755W        W96479   8.828  20.652  10.621
32756W        W96480  40.048   6.291   2.281
32757W        W96481  11.153   6.834  11.087
32758W        W96482  38.071  41.791   1.428
32759W        W96483  32.556   8.314   3.221
32760W        W96484   6.277   3.758  11.106
32761W        W96485  18.701   0.898   4.702
32762W        W96486  22.113  35.596  13.467
32763W        W96487  24.073  42.822  11.956
32764W        W96488   4.387   9.769  13.863
32765W        W96489   3.367  12.809  14.295
32766W        W96490  27.575  43.418  12.002
32767W        W96491  15.809  30.081  10.429
32768W        W96492  32.984   3.304  13.063
32769W        W96493  21.709   2.424   2.235
32770W        W96494  20.081  29.071   0.791
32771W        W96495  28.581  11.309   3.190
32772W        W96496  19.601   1.841  11.393
32773W        W96497   6.313  34.894  11.611
32774W        W96498   8.690  38.522  12.532
32775W        W96499  36.504  14.152  12.005
32776W        W96500  44.795   1.309   0.306
32777W        W96501  43.939  25.050   0.376
32778W        W96502   8.775  14.731  13.410
32779W        W96503  11.238  24.191   3.847
32780W        W96504  23.595  22.692  14.305
32781W        W96505  20.135  44.935  12.343
32782W        W96506  38.447  34.002   3.762
32783W        W96507   7.330  30.607  13.454
32784W        W96508  24.989   2.756   0.824
32785W        W96509  44.932   8.336   3.371
32786W        W96510   1.380  15.779   4.756
32787W        W96511  43.312  43.491   0.790
32788W        W96512  14.336   3.440  12.999
32789W        W96513  37.461  25.009   0.908
32790W        W96514  30.654  21.212   1.447
32791W        W96515   2.762  10.823  13.833
32792W        W96516  42.820  44.764   1.867
32793W        W96517   4.841  17.798   1.338
32794W        W96518  11.797  15.823  10.119
32795W        W96519   4.827   3.955   4.237
32796W        W96520  42.292   7.779   2.831
32797W        W96521  14.750  32.977   4.661
32798W        W96522  44.860   5.930  10.447
32799W        W96523   9.390  24.005   3.186
32800W        W96524  18.260  12.729  14.790
32801W        W96525  10.269  27.634  12.485
32802W        W96526  29.653  13.286   2.833
32803W        W96527   8.671   3.828  10.941
32804W        W96528  25.577  24.688   2.306
32805W        W96529  34.048   7.704  10.958
32806W        W96530  12.762  13.105   4.334
32807W        W96531  33.495  23.676   0.323
32808W        W96532   6.866  32.048   1.403
32809W        W96533  33.404  12.852   4.240
32810W        W96534  38.451  25.001   1.419
32811W        W96535  42.401  26.094  14.859
32812W        W96536  15.605  43.507   4.193
32813W        W96537  16.629  33.586   0.741
32814W        W96538  19.098  26.462  12.887
32815W        W96539  40.847  39.957   2.373
32816W        W96540  44.773  23.497   4.231
32817W        W96541  17.128  34.585  14.873
32818W        W96542  23.583  33.604   3.193
32819W        W96543  10.175  15.090   0.953
32820W        W96544  34.115  13.140   2.853
32821W        W96545  37.877  23.221  12.095
32822W        W96546   5.852  14.223   3.661
32823W        W96547  38.356  25.074  11.581
32824W        W96548  17.302  40.925   4.149
32825W        W96549  25.592  39.328  12.542
32826W        W96550  19.676   7.343  12.555
32827W        W96551  22.209  44.316   1.399
32828W        W96552   3.255  42.515   1.700
32829W        W96553  22.601  21.144  13.428
32830W        W96554  35.945  14.333   4.251
32831W        W96555  43.303  32.433   0.453
32832W        W96556  42.823   1.877  14.364
32833W        W96557  14.274  34.504  12.452
32834W        W96558  43.826  12.297   4.786
32835W        W96559  30.928   7.734  10.903
32836W        W96560  33.959  18.256   4.241
32837W        W96561  39.506  35.499   3.226
32838W        W96562  42.891   9.649   1.293
32839W        W96563  18.781   1.454   3.309
32840W        W96564  29.649   6.347   2.295
32841W        W96565  30.542  25.002  12.360
32842W        W96566  13.205   9.236  12.928
32843W        W96567  35.472  10.648  13.523
32844W        W96568   8.188  18.161  14.910
32845W        W96569  28.931  13.809   4.143
32846W        W96570  33.592  26.997  11.425
32847W        W96571   7.361  43.491  14.944
32848W        W96572  41.381  30.521  11.434
32849W        W96573  42.918  30.951  10.903
32850W        W96574  41.347  44.863   2.214
32851W        W96575  19.056   5.369  11.945
32852W        W96576  33.457  19.642   4.659
32853W        W96577   2.329  20.147   1.309
32854W        W96578  11.732  19.259  11.495
32855W        W96579  41.830  40.845   2.407
32856W        W96580  35.970  10.815   3.160
32857W        W96581  10.656   4.228  13.516
32858W        W96582  10.720  31.123   2.311
32859W        W96583  19.761  41.897  10.538
32860W        W96584   4.272  40.849  11.019
32861W        W96585  10.183  30.650  14.342
32862W        W96586  40.919  35.402  11.557
32863W        W96587  31.471  44.452  11.057
32864W        W96588  13.210  20.644   3.702
32865W        W96589  41.434  29.998  14.989
32866W        W96590  41.894  37.847   4.331
32867W        W96591  15.822  36.089  12.341
32868W        W96592  37.043  23.656   2.243
32869W        W96593  23.605  20.750  12.052
32870W        W96594   6.677  33.116  11.086
32871W        W96595   4.347  20.761  14.398
32872W        W96596  14.825  39.445   3.811
32873W        W96597  37.898   8.287   3.816
32874W        W96598  36.911  37.019  13.363
32875W        W96599  36.374  35.081   1.710
32876W        W96600  24.016  35.899  14.452
32877W        W96601  44.484  33.022   4.183
32878W        W96602  44.424  42.872   1.828
32879W        W96603  24.659  20.137   2.892
32880W        W96604  39.043  15.586   0.913
32881W        W96605   4.342  17.251   2.679
32882W        W96606  31.995  10.249   2.788
32883W        W96607  18.676  42.378   1.313
32884W        W96608  36.551  35.575   2.837
32885W        W96609   3.717   0.850   0.377
32886W        W96610   9.774  18.771  10.491
32887W        W96611  30.640   3.424  10.501
32888W        W96612  24.143  28.485  13.996
32889W        W96613  21.511  29.012   0.871
32890W        W96614  16.810  43.367   2.749
32891W        W96615  36.929  30.532   2.709
32892W        W96616   4.862  28.184   1.313
32893W        W96617  24.170  30.589  14.452
32894W        W96618  27.457  26.117   2.771
32895W        W96619  32.560  41.306  13.958
32896W        W96620  40.545  43.345  12.967
32897W        W96621  26.604  15.103  14.806
32898W        W96622  15.612  34.530  11.877
32899W        W96623   3.430  41.336  14.770
32900W        W96624  22.731  14.192   4.206
32901W        W96625  14.102  15.321  14.461
32902W        W96626   8.193  35.911   1.386
32903W        W96627  31.959  38.859  11.118
32904W        W96628  33.046  43.318   2.884
32905W        W96629  17.634  16.597   0.775
32906W        W96630  31.454  43.296  13.971
32907W        W96631  22.193  23.107   4.755
32908W        W96632   0.306  40.852   3.700
32909W        W96633  43.803  17.793   2.794
32910W        W96634  24.670   7.383  10.510
32911W        W96635  11.143  43.892  14.381
32912W        W96636  34.456  32.084  11.529
32913W        W96637   3.795  31.513   1.896
32914W        W96638  38.969  36.401  14.986
32915W        W96639  25.181  32.137  11.968
32916W        W96640   2.281  27.615  13.385
32917W        W96641  37.011  27.982  10.424
32918W        W96642  20.074  31.455  13.814
32919W        W96643  28.578   7.216  12.837
32920W        W96644  39.845   9.879   0.821
32921W        W96645  17.802  14.297  11.925
32922W        W96646  41.942  10.232   5.179
32923W        W96647  42.994  33.079  12.554
32924W        W96648   8.191  29.587  10.479
32925W        W96649  43.347   6.906   1.292
32926W        W96650  16.087  23.094  14.457
32927W        W96651  32.972  31.976  14.413
32928W        W96652   3.262  13.764   4.810
32929W        W96653  15.664  25.137  10.979
32930W        W96654  36.589   8.162   4.140
32931W        W96655  12.712  26.205   0.305
32932W        W96656  10.156  25.560   4.703
32933W        W96657  27.162  29.171   0.401
32934W        W96658   1.949  19.553  11.562
32935W        W96659   1.261   7.372   2.389
32936W        W96660   6.847  42.812   2.675
32937W        W96661  38.901  35.871  13.359
32938W        W96662  20.211  16.141  11.019
32939W        W96663  42.476   9.165   1.260
32940W        W96664  31.153  22.235  11.856
32941W        W96665  11.366   6.771   0.929
32942W        W96666  40.327   7.907  13.493
32943W        W96667  40.806   1.434   2.751
32944W        W96668  29.011  18.228  14.795
32945W        W96669  26.135  38.953   2.404
32946W        W96670  12.134   1.809   3.757
32947W        W96671  18.066  21.584   1.210
32948W        W96672   6.764  12.756  13.016
32949W        W96673  24.533  39.435   0.480
32950W        W96674  28.631  41.332   3.362
32951W        W96675  17.144  36.992   2.206
32952W        W96676   4.343  38.329   0.967
32953W        W96677  32.888  34.103   4.248
32954W        W96678  35.417  34.902   2.739
32955W        W96679  10.342  14.607  11.120
32956W        W96680  17.276   6.193   3.862
32957W        W96681   0.334  37.880  12.983
32958W        W96682  39.386  15.751   3.664
32959W        W96683  10.675   3.752  10.515
32960W        W96684  40.453   4.850   4.721
32961W        W96685  28.126  18.680  10.624
32962W        W96686  42.500  38.526   5.711
32963W        W96687   1.787  16.732   0.313
32964W        W96688   5.378  39.337   0.386
32965W        W96689  21.671  36.573   3.746
32966W        W96690  25.540  12.338   1.778
32967W        W96691  42.437  41.023   2.819
32968W        W96692  11.798  22.223   2.379
32969W        W96693  20.190  23.559   0.878
32970W        W96694  21.189  19.578   3.759
32971W        W96695  20.680  44.852  10.893
32972W        W96696  14.137   5.199  12.440
32973W        W96697  37.538  14.165  12.063
32974W        W96698   0.815  17.230  13.011
32975W        W96699  26.530  30.995  14.308
32976W        W96700  26.645  40.003   1.227
32977W        W96701  13.279  42.459  12.509
32978W        W96702  14.687  21.155   4.146
32979W        W96703   3.364  29.166   4.191
32980W        W96704  13.223  19.544  12.038
32981W        W96705  33.517  19.568   0.281
32982W        W96706  26.042  34.423  13.025
32983W        W96707  13.744  24.070   4.747
32984W        W96708   6.725  17.159  12.391
32985W        W96709   4.436  29.584   4.627
32986W        W96710   9.750   4.430   2.388
32987W        W96711  44.858  32.397  12.449
32988W        W96712  35.377  24.037  11.448
32989W        W96713  24.488  34.432  11.018
32990W        W96714   9.712  32.582   3.224
32991W        W96715  30.457  31.532  11.024
32992W        W96716  33.992   0.874  11.075
32993W        W96717  33.477  11.653  11.589
32994W        W96718   1.253  26.116  11.400
32995W        W96719   8.887  40.806   4.227
32996W        W96720  11.297   0.473   4.749
32997W        W96721  22.194  13.790   0.742
32998W        W96722  14.611  29.470   3.254
32999W        W96723  17.702  32.588   1.444
33000W        W96724  16.241  34.940   9.966
33001W        W96725  27.681  21.533   0.364
33002W        W96726  33.040   6.716   1.296
33003W        W96727  25.987   0.834  12.390
33004W        W96728  39.512  38.998  12.880
33005W        W96729  40.434   1.412  11.988
33006W        W96730  41.318  17.180   0.897
33007W        W96731  17.088  41.824  12.358
33008W        W96732  22.699  42.519   0.438
33009W        W96733  31.078  23.157   0.867
33010W        W96734  29.987  32.016   3.704
33011W        W96735  35.526  31.487  12.040
33012W        W96736  26.688  39.457  10.505
33013W        W96737  20.629  20.090  13.402
33014W        W96738   2.847  33.403   0.759
33015W        W96739  19.166  29.442  10.447
33016W        W96740  16.577  17.220  12.479
33017W        W96741  22.581   5.374   3.316
33018W        W96742  27.549  28.041  12.832
33019W        W96743  17.123  44.770   2.224
33020W        W96744  22.123  23.072   3.239
33021W        W96745  22.583  35.004   1.834
33022W        W96746  27.589  27.164  14.994
33023W        W96747  20.742   9.346  13.425
33024W        W96748  16.785   1.793  13.358
33025W        W96749  38.503  40.368  13.966
33026W        W96750  27.075  33.887  12.025
33027W        W96751  41.862  25.480  10.033
33028W        W96752  22.626  23.699   4.632
33029W        W96753  39.021   7.182  13.866
33030W        W96754  37.854   0.464   4.665
33031W        W96755  21.146  12.349   2.883
33032W        W96756   8.282  25.619  11.071
33033W        W96757   8.304   9.831   1.265
33034W        W96758  16.192  39.445   3.288
33035W        W96759  19.642  28.107  13.428
33036W        W96760  22.081  18.750   0.958
33037W        W96761  23.155  14.129   3.871
33038W        W96762   8.803  24.984  12.377
33039W        W96763  18.635  23.607  14.771
33040W        W96764  28.967  34.068   4.811
33041W        W96765   0.448  19.053  13.428
33042W        W96766  14.308  16.604  14.838
33043W        W96767  32.554  12.794  13.798
33044W        W96768  35.996  33.968  11.018
33045W        W96769   3.717  27.559   4.775
33046W        W96770  26.118   4.841  11.927
33047W        W96771   0.255   8.354  13.474
33048W        W96772  13.699   5.765  11.866
33049W        W96773   3.355  44.295   1.415
33050W        W96774  10.190  20.616   3.786
33051W        W96775  37.519  36.940   4.709
33052W        W96776  31.477  25.575  13.363
33053W        W96777  41.925  38.389   3.788
33054W        W96778  38.338  20.559   4.682
33055W        W96779  12.754  24.041   3.662
33056W        W96780  18.223  11.682  14.433
33057W        W96781  41.318  21.563   0.456
33058W        W96782  11.729  39.370   1.913
33059W        W96783   9.378   6.880   4.138
33060W        W96784  32.581  33.888  13.515
33061W        W96785  34.514   6.748   0.921
33062W        W96786  41.495  40.929   0.896
33063W        W96787  30.448  14.773   2.790
33064W        W96788  36.079  24.168  10.976
33065W        W96789  19.721   4.783   3.372
33066W        W96790  19.758  20.539  12.353
33067W        W96791  38.375  11.686   1.218
33068W        W96792  19.726   9.730   1.409
33069W        W96793  41.309  29.507   3.178
33070W        W96794   0.479  31.592   1.261
33071W        W96795  43.411   2.463   4.686
33072W        W96796   8.880   1.737  11.538
33073W        W96797   0.319   5.409   1.248
33074W        W96798  35.024  11.772   4.281
33075W        W96799   8.755  22.164  12.354
33076W        W96800  38.912  29.960   0.271
33077W        W96801   4.205  21.514   3.315
33078W        W96802  40.934  16.255  10.482
33079W        W96803   6.304  14.664   0.479
33080W        W96804  29.062   1.793  13.852
33081W        W96805  29.665  14.617  11.546
33082W        W96806  42.834   9.267  11.432
33083W        W96807  38.851  34.083  10.439
33084W        W96808  44.293  41.537  13.021
33085W        W96809  29.491  17.802   1.710
33086W        W96810  40.498  30.020  13.381
33087W        W96811  42.891  14.191  11.945
33088W        W96812  28.959  22.719   1.326
33089W        W96813  23.039  18.600  12.437
33090W        W96814  38.384  34.608   3.653
33091W        W96815  35.421  36.006   4.651
33092W        W96816   1.331  38.531  12.866
33093W        W96817  33.095   9.177   2.710
33094W        W96818  13.662  14.302   1.916
33095W        W96819  42.350  32.630  14.497
33096W        W96820   6.326  35.076   3.802
33097W        W96821  30.429  36.085  12.951
33098W        W96822  24.132  31.051   2.382
33099W        W96823  24.026  34.519   1.387
33100W        W96824   6.917  23.986   3.284
33101W        W96825   0.459   4.816  11.860
33102W        W96826  16.594  25.579  13.895
33103W        W96827  27.139  32.919  12.390
33104W        W96828  39.333  14.258   1.717
33105W        W96829  12.206  31.583   2.690
33106W        W96830  18.176  18.068   4.668
33107W        W96831  34.546   7.819   4.640
33108W        W96832  20.091  44.970  11.467
33109W        W96833  30.587  15.266   2.824
33110W        W96834  18.774  15.298   1.280
33111W        W96835  14.131  23.051  10.458
33112W        W96836   3.821   9.709  13.026
33113W        W96837  35.411  44.942  11.896
33114W        W96838  12.785  15.649   1.230
33115W        W96839  39.866  40.370  12.463
33116W        W96840  24.635   8.336  11.563
33117W        W96841  13.607   9.832  13.343
33118W        W96842  35.932  44.967  14.900
33119W        W96843   7.321  10.855  12.006
33120W        W96844  24.138  38.406   1.289
33121W        W96845  14.319  20.623   0.248
33122W        W96846  44.475  31.115   1.757
33123W        W96847  28.171  25.705   0.276
33124W        W96848   9.353   0.929   3.761
33125W        W96849  13.125  24.708   1.375
33126W        W96850  38.969   1.776  12.544
33127W        W96851  25.098  28.954  14.849
33128W        W96852  42.332  30.602  13.355
33129W        W96853  18.610   3.333  14.802
33130W        W96854   7.375  25.999   3.664
33131W        W96855  13.812  23.575  14.870
33132W        W96856  14.195   7.378  11.047
33133W        W96857  44.271  26.051   1.238
33134W        W96858  23.494  41.400  14.869
33135W        W96859  25.579  38.907   0.243
33136W        W96860  26.133  11.679  10.131
33137W        W96861  40.344  16.605  10.613
33138W        W96862  41.969  17.598   2.314
33139W        W96863  34.083  23.037   3.810
33140W        W96864  25.610   7.277   4.761
33141W        W96865   3.367  24.090  11.497
33142W        W96866  34.023   7.182  14.966
33143W        W96867   1.462   3.417  12.032
33144W        W96868  42.859  22.518  10.937
33145W        W96869  30.948   7.327   3.286
33146W        W96870  18.698   5.387   3.735
33147W        W96871  24.225  11.783  10.911
33148W        W96872  44.443  13.755   1.753
33149W        W96873  13.602  34.870  11.900
33150W        W96874   8.744  21.155   1.704
33151W        W96875  41.823   0.782   3.803
33152W        W96876  41.353  33.570   2.280
33153W        W96877   3.741  15.239   1.251
33154W        W96878  42.490  36.533  12.853
33155W        W96879   2.456  40.305   2.866
33156W        W96880   8.887  20.145   5.276
33157W        W96881   2.789  41.521   4.252
33158W        W96882  31.949  25.612  11.547
33159W        W96883  11.268  32.020  13.388
33160W        W96884  41.793  24.510  11.917
33161W        W96885  29.963  17.079  10.986
33162W        W96886  40.436  36.973  14.940
33163W        W96887  35.984  16.811  12.485
33164W        W96888  16.076  38.569  10.972
33165W        W96889  10.185  29.949   1.418
33166W        W96890  18.293  27.498  11.917
33167W        W96891  17.065  18.180   1.252
33168W        W96892  20.740  31.013  11.963
33169W        W96893  31.551   0.827   0.483
33170W        W96894  34.588   9.729   3.684
33171W        W96895   1.278  40.394   2.835
33172W        W96896  30.996  44.835   3.745
33173W        W96897  30.496  43.787  11.549
33174W        W96898  28.581  41.412  13.897
33175W        W96899  34.887  13.731   4.227
33176W        W96900  28.951  36.953   1.245
33177W        W96901  36.513   9.840  13.307
33178W        W96902  17.585  38.370   2.770
33179W        W96903  12.646  14.264  14.357
33180W        W96904  35.046  35.998  12.509
33181W        W96905  18.247   1.776   0.442
33182W        W96906   9.171  40.902  11.437
33183W        W96907   8.729   9.252  10.457
33184W        W96908  26.549  18.564  11.111
33185W        W96909  20.245   2.353  10.553
33186W        W96910   4.704  23.031   0.372
33187W        W96911   8.290  22.064   1.835
33188W        W96912  24.556  32.511   4.158
33189W        W96913   0.776   3.921  13.973
33190W        W96914  33.072  15.648  11.938
33191W        W96915  42.005  39.351  11.581
33192W        W96916  35.489  28.150   4.642
33193W        W96917  30.118  15.597   0.911
33194W        W96918  25.670   4.833   1.257
33195W        W96919  16.114  25.625   1.279
33196W        W96920  44.986  24.501  13.826
33197W        W96921   1.950  13.190  13.319
33198W        W96922  16.231  39.511   1.795
33199W        W96923   1.300  22.132   2.305
33200W        W96924   1.749  15.272  11.426
33201W        W96925  30.561   8.289   0.292
33202W        W96926  43.514  22.023  11.098
33203W        W96927  20.086  29.099  14.358
33204W        W96928  39.547  23.612   1.231
33205W        W96929  25.565  12.356   2.877
33206W        W96930  44.375  27.964   2.312
33207W        W96931  14.125   9.883   3.231
33208W        W96932  26.672   3.923   2.273
33209W        W96933   8.185   6.314   4.244
33210W        W96934  34.513  24.112   1.812
33211W        W96935  17.711  38.507  13.915
33212W        W96936  17.264  30.419  11.415
33213W        W96937  44.867  31.100  12.473
33214W        W96938  28.977  22.543   0.305
33215W        W96939   4.409  29.620   1.248
33216W        W96940   6.902  16.802   0.335
33217W        W96941   5.909  32.140  14.495
33218W        W96942  18.268   0.299  10.554
33219W        W96943  12.276  26.165   4.636
33220W        W96944  15.201  26.637  12.360
33221W        W96945  19.063  21.240   0.369
33222W        W96946  18.233   2.885   0.848
33223W        W96947   0.983  43.985   4.135
33224W        W96948   4.267   5.265  10.982
33225W        W96949  26.191  35.557   2.711
33226W        W96950  13.644   6.198   1.262
33227W        W96951  12.151  42.314  13.351
33228W        W96952  17.618  20.037  11.048
33229W        W96953   4.343   5.216  12.522
33230W        W96954  41.343  40.470  14.377
33231W        W96955  36.899  34.509  12.836
33232W        W96956  25.160  24.719  13.927
33233W        W96957  14.115  40.503  14.299
33234W        W96958  24.538  23.683  12.095
33235W        W96959  22.730  43.844  14.327
33236W        W96960  14.795  13.779   1.217
33237W        W96961  18.645  18.671  12.448
33238W        W96962   6.728   9.676   2.315
33239W        W96963   2.923   0.278   1.334
33240W        W96964  18.740  23.204   4.120
33241W        W96965  18.688  31.578   1.429
33242W        W96966   3.946   5.221  13.864
33243W        W96967  29.174   7.407   1.696
33244W        W96968  44.986   8.391   4.273
33245W        W96969  37.884  35.038   1.760
33246W        W96970  17.688  22.551  13.901
33247W        W96971  30.105  39.921   2.836
33248W        W96972   0.458  40.803   1.368
33249W        W96973  14.648  11.147  12.578
33250W        W96974  18.768  36.534   2.242
33251W        W96975  29.137  14.649   0.295
33252W        W96976  43.960  44.476  14.449
33253W        W96977   2.418  42.827   4.332
33254W        W96978   7.276  32.004   2.890
33255W        W96979  36.391  44.832  11.457
33256W        W96980  29.073  15.086   4.696
33257W        W96981  14.627  28.509  14.484
33258W        W96982   1.871  14.238  12.487
33259W        W96983  28.132   5.907   0.344
33260W        W96984  29.667  28.144  11.960
33261W        W96985  28.584  42.320   0.272
33262W        W96986  14.188  35.964  12.369
33263W        W96987  30.464   6.389   4.725
33264W        W96988  32.085  17.770  12.884
33265W        W96989  13.712  34.414  14.449
33266W        W96990   5.421  32.002  14.391
33267W        W96991  16.651  30.128  14.473
33268W        W96992  38.471  37.904   3.258
33269W        W96993  19.170   8.321   0.374
33270W        W96994  30.030  29.444   0.755
33271W        W96995  14.714   0.362  12.986
33272W        W96996  12.325  29.590  10.964
33273W        W96997   8.354  13.736  13.333
33274W        W96998  25.599   7.373   2.229
33275W        W96999  41.929   2.874   0.448
33276W        W97000  21.626  42.775   4.681
33277W        W97001  42.965   3.847   5.241
33278W        W97002   9.288   2.764   2.376
33279W        W97003  28.020  29.483  13.039
33280W        W97004   3.282  44.824  12.057
33281W        W97005  38.970   6.370  11.022
33282W        W97006  41.402  39.974   3.710
33283W        W97007  24.999  27.970  13.348
33284W        W97008  34.015  33.913  14.806
33285W        W97009  26.130  22.665   4.181
33286W        W97010  17.692  39.884  12.433
33287W        W97011  41.373  18.287  11.075
33288W        W97012  33.034   6.828   3.643
33289W        W97013   9.742  21.223  14.924
33290W        W97014  42.802  40.470  13.874
33291W        W97015  19.105   6.768  10.982
33292W        W97016   9.200  24.515   0.286
33293W        W97017  35.005  37.373   0.740
33294W        W97018  41.788  40.377  12.999
33295W        W97019  30.092  36.552  12.536
33296W        W97020   8.743   7.866   3.208
33297W        W97021  36.409   4.699   1.733
33298W        W97022   6.897  15.707   4.836
33299W        W97023  29.003   3.941  12.879
33300W        W97024   7.263   4.897  12.850
33301W        W97025  17.739   0.765   4.705
33302W        W97026  35.940  19.565   4.825
33303W        W97027   5.330   0.955  14.513
33304W        W97028  14.223  24.645   1.272
33305W        W97029   0.288  15.177   3.636
33306W        W97030   4.448  35.530   2.387
33307W        W97031  28.563  33.075   4.600
33308W        W97032  22.732   8.783   1.852
33309W        W97033  23.219  30.515  11.483
33310W        W97034  11.674  39.868   2.259
33311W        W97035  27.963   3.769   2.203
33312W        W97036  33.505  42.848   2.750
33313W        W97037  20.569  26.576  12.004
33314W        W97038  27.661   4.744   1.239
33315W        W97039  32.580  24.716  14.887
33316W        W97040  25.631  28.450  10.912
33317W        W97041  12.692   7.817  11.990
33318W        W97042  12.740  38.460  11.929
33319W        W97043   5.280  42.390   2.363
33320W        W97044  40.915   6.696  10.906
33321W        W97045  43.823  17.740  13.002
33322W        W97046  30.446  29.608   3.783
33323W        W97047  13.175  40.803   2.238
33324W        W97048  41.394   8.370  11.897
33325W        W97049  31.123   1.332   1.716
33326W        W97050  42.335  27.598   0.934
33327W        W97051  44.917  22.636  14.877
33328W        W97052  14.299   4.783   0.367
33329W        W97053   3.393   6.340   3.713
33330W        W97054   5.691  28.126   4.769
33331W        W97055   5.438  37.915  14.951
33332W        W97056  32.129  28.947  12.013
33333W        W97057  44.789   8.322  12.578
33334W        W97058  41.964  39.811  10.981
33335W        W97059  37.451   3.276  11.079
33336W        W97060  15.714  37.525  12.417
33337W        W97061  11.366  39.546   4.197
33338W        W97062   8.206  41.987  14.333
33339W        W97063  27.002   4.903  11.097
33340W        W97064  35.468  10.255  13.869
33341W        W97065  21.209  14.280   0.782
33342W        W97066  26.102  12.756   1.352
33343W        W97067   7.829  26.562  14.909
33344W        W97068  17.222  13.226   0.360
33345W        W97069  20.229  10.347  13.358
33346W        W97070   3.750  44.458  12.361
33347W        W97071  27.121   8.663  12.014
33348W        W97072   3.364  14.655  11.491
33349W        W97073  15.304   3.861  10.525
33350W        W97074  21.106  13.809  10.049
33351W        W97075  39.451   7.222  14.469
33352W        W97076  24.163  16.199   0.317
33353W        W97077  15.096  25.969   3.284
33354W        W97078  31.077  18.203   3.215
33355W        W97079  39.503  33.501   0.876
33356W        W97080  43.489  17.577  14.377
33357W        W97081  41.527  41.352   4.822
33358W        W97082   4.718  37.540   0.362
33359W        W97083   2.933   4.890  12.511
33360W        W97084  27.555  37.977   4.127
33361W        W97085   9.220  42.359   2.262
33362W        W97086  27.981  15.720  14.499
33363W        W97087  30.581  20.222   0.869
33364W        W97088  38.836  37.918   2.726
33365W        W97089  12.766  31.124   1.393
33366W        W97090  25.646  34.395  11.496
33367W        W97091  20.244   2.326  14.279
33368W        W97092  33.919   9.861  10.638
33369W        W97093  24.539  30.048  11.098
33370W        W97094  24.500  39.429   0.925
33371W        W97095  17.652  22.192   3.269
33372W        W97096  35.522   9.709  14.515
33373W        W97097  10.317  10.648   1.909
33374W        W97098  37.885  24.990  14.031
33375W        W97099  10.316  36.590   4.204
33376W        W97100  37.962  44.392  14.004
33377W        W97101  27.619  41.422  14.470
33378W        W97102  30.624  30.929   0.451
33379W        W97103  18.661  30.011  10.915
33380W        W97104  23.207  32.896   4.191
33381W        W97105  17.221  31.472   2.683
33382W        W97106  31.618  38.825  11.013
33383W        W97107  19.654  43.380   2.670
33384W        W97108  41.390  28.486  14.447
33385W        W97109  14.191  17.601  14.862
33386W        W97110  22.131  42.791  12.449
33387W        W97111  11.743  41.788   1.377
33388W        W97112  18.592   6.722   1.828
33389W        W97113  25.015  12.154  12.533
33390W        W97114  35.884   4.865  10.505
33391W        W97115  14.316   1.422  10.974
33392W        W97116  39.431  40.021  13.381
33393W        W97117  40.931  44.905   3.719
33394W        W97118  16.177  36.554   3.195
33395W        W97119  23.631  34.556  12.038
33396W        W97120  11.623   2.290  12.510
33397W        W97121  29.030  34.531   4.157
33398W        W97122  29.611   1.302   1.929
33399W        W97123  28.632  10.662  11.597
33400W        W97124  27.659  27.074   4.643
33401W        W97125  22.028  21.699   4.808
33402W        W97126  19.239   0.966  14.287
33403W        W97127  27.513  32.419   3.209
33404W        W97128  34.515   8.760  11.101
33405W        W97129  14.801  44.474   1.921
33406W        W97130   1.887   8.817  11.940
33407W        W97131   9.803  19.232   1.867
33408W        W97132   1.811   4.286   4.184
33409W        W97133  32.620  42.926  10.967
33410W        W97134  14.258  25.553   3.266
33411W        W97135  30.414   8.353  13.460
33412W        W97136   9.218   4.770  12.032
33413W        W97137   0.947  24.204   1.817
33414W        W97138  11.794  30.544   0.459
33415W        W97139  11.290   9.866   2.193
33416W        W97140   1.858  38.854   4.129
33417W        W97141   0.957   4.834  13.828
33418W        W97142  43.306  44.382   3.267
33419W        W97143  42.460  32.438  12.548
33420W        W97144  21.119  25.622   4.685
33421W        W97145  40.845   9.862   4.688
33422W        W97146  10.784  38.446  14.360
33423W        W97147   3.288  27.462   0.367
33424W        W97148  34.931   1.447   3.188
33425W        W97149   6.891  31.987  11.568
33426W        W97150  41.886  32.466  11.577
33427W        W97151   4.812  19.227  10.427
33428W        W97152  31.984   6.387  13.963
33429W        W97153  43.368  30.076  12.938
33430W        W97154  41.933   3.427  11.529
33431W        W97155  19.672   2.740  12.974
33432W        W97156  12.675   6.383   3.776
33433W        W97157  32.593   3.325   1.926
33434W        W97158  21.235  27.555   0.836
33435W        W97159  16.655  31.478   4.240
33436W        W97160  28.565   9.807   2.295
33437W        W97161  26.128  34.394  11.421
33438W        W97162  10.850   0.372   3.780
33439W        W97163   0.423  14.313   4.701
33440W        W97164   0.487  28.067  14.353
33441W        W97165  22.672   7.284  13.846
33442W        W97166  36.543  31.008   3.819
33443W        W97167  37.350  18.292   2.780
33444W        W97168   2.909   4.295   2.758
33445W        W97169  22.100  44.333   3.249
33446W        W97170  17.640  33.969   2.723
33447W        W97171  32.121  22.021  13.061
33448W        W97172   3.765  18.778  10.985
33449W        W97173  16.272  35.905  12.899
33450W        W97174  10.283  10.162   2.881
33451W        W97175  21.679  21.578   2.352
33452W        W97176  41.917  39.558  14.308
33453W        W97177  30.034   2.853   0.830
33454W        W97178  42.877  35.029   9.983
33455W        W97179  23.595  22.185   2.886
33456W        W97180  29.162   0.929  12.429
33457W        W97181  43.321  43.413   2.209
33458W        W97182  17.802  11.724  12.420
33459W        W97183  32.965  36.526   2.758
33460W        W97184  24.057  33.916   2.798
33461W        W97185  40.051  39.841   0.745
33462W        W97186  13.324  36.569  12.859
33463W        W97187  36.984  31.546  13.892
33464W        W97188  35.464  10.811   1.374
33465W        W97189  41.309  36.918  12.931
33466W        W97190  37.076  39.411   2.267
33467W        W97191  26.578  11.154   2.350
33468W        W97192  35.967   2.438   3.848
33469W        W97193  19.771  22.740   3.183
33470W        W97194  21.097  22.630  13.991
33471W        W97195  34.055  14.097  14.895
33472W        W97196  17.279  18.104  13.908
33473W        W97197  40.303  14.671  11.896
33474W        W97198  24.979  10.770  13.897
33475W        W97199   7.260  11.798   2.202
33476W        W97200  41.997  17.066   4.826
33477W        W97201  26.158  32.450   3.735
33478W        W97202   0.459  31.932   2.369
33479W        W97203  31.002   9.889   1.826
33480W        W97204   1.952  16.714  11.110
33481W        W97205  11.747   9.745  11.039
33482W        W97206  29.533  20.214  12.904
33483W        W97207  33.127  28.112   4.207
33484W        W97208   4.233   9.370  11.470
33485W        W97209  12.282  21.040  12.427
33486W        W97210  26.959   7.709  13.338
33487W        W97211  27.132  21.732   3.182
33488W        W97212  40.488  40.897   4.135
33489W        W97213  13.710  38.072  11.480
33490W        W97214  11.216  30.067   1.275
33491W        W97215  25.572  35.497   1.874
33492W        W97216  17.686  41.803   1.376
33493W        W97217   0.461   7.401   1.817
33494W        W97218  35.503   6.196   1.833
33495W        W97219  22.715  15.760  13.887
33496W        W97220   8.291  26.049   4.668
33497W        W97221  32.479  34.413  14.483
33498W        W97222  33.885  39.383   2.358
33499W        W97223   3.920  14.650   0.923
33500W        W97224  36.456  44.345   1.763
33501W        W97225  34.610   3.433  14.973
33502W        W97226  40.473  20.229  13.357
33503W        W97227  41.799  39.825  11.888
33504W        W97228  33.600  16.183   0.409
33505W        W97229  36.902   1.822  14.804
33506W        W97230   1.278  14.629  11.066
33507W        W97231   1.332   6.321  10.449
33508W        W97232  14.189  18.271   4.709
33509W        W97233  42.332   0.260  12.957
33510W        W97234  38.336  16.787   0.257
33511W        W97235  24.639  25.648  12.972
33512W        W97236  43.897  40.427  10.618
33513W        W97237   6.410  14.133   4.284
33514W        W97238   1.282  36.004   3.699
33515W        W97239  33.883  38.064  14.930
33516W        W97240  29.062   3.435   0.938
33517W        W97241  31.624  25.659  11.079
33518W        W97242  41.913  41.529   4.317
33519W        W97243  34.068  25.699   1.400
33520W        W97244  23.634  38.946   0.467
33521W        W97245   0.440  34.906  10.985
33522W        W97246  27.196   7.908   5.206
33523W        W97247  14.640  15.663  13.513
33524W        W97248  43.796  29.119   1.893
33525W        W97249  23.116  36.584   4.743
33526W        W97250  30.438  10.694   1.801
33527W        W97251   4.943  29.445   4.661
33528W        W97252   6.404   9.745   3.741
33529W        W97253   7.198  20.274   2.665
33530W        W97254   2.755   5.391   4.681
33531W        W97255  11.306   9.717   1.753
33532W        W97256  44.990  35.505   2.416
33533W        W97257  34.401   0.967   1.876
33534W        W97258  31.522  26.004  13.804
33535W        W97259   2.873   7.718  12.469
33536W        W97260  10.348   4.260   4.338
33537W        W97261   0.931  29.475  11.127
33538W        W97262  31.469  20.214  11.585
33539W        W97263  42.416  25.503  12.075
33540W        W97264  38.002  24.043  12.062
33541W        W97265   5.281   7.324  13.912
33542W        W97266  21.627  33.477  11.574
33543W        W97267  33.100  10.675  13.320
33544W        W97268  37.927   2.317  13.880
33545W        W97269  11.785   1.810   2.255
33546W        W97270  22.223  31.033   0.857
33547W        W97271  25.585  14.261  14.474
33548W        W97272  18.789  10.810  11.510
33549W        W97273  23.515  25.538  11.563
33550W        W97274   2.847  42.340   1.211
33551W        W97275  15.084  37.362  11.506
33552W        W97276  24.553  21.649  13.543
33553W        W97277  18.595  36.491   1.443
33554W        W97278   2.757  27.004   3.194
33555W        W97279   8.375   6.332   0.440
33556W        W97280   6.291   1.418   0.360
33557W        W97281   0.866  33.554  13.844
33558W        W97282  33.451  29.479   5.196
33559W        W97283  12.214  18.738  14.869
33560W        W97284  36.475  23.554   3.216
33561W        W97285  20.147  17.265   5.719
33562W        W97286  31.564  38.418  13.841
33563W        W97287  33.930  11.846  10.998
33564W        W97288  15.660  27.112   4.684
33565W        W97289  38.340  21.654   3.851
33566W        W97290  41.864  20.031  14.938
33567W        W97291   6.728  36.364   2.802
33568W        W97292  40.464  43.327  12.443
33569W        W97293  22.595   6.845   1.728
33570W        W97294  31.011   7.253   4.722
33571W        W97295  17.674  29.029  11.100
33572W        W97296  16.109   7.727  10.557
33573W        W97297  19.625  18.092  10.463
33574W        W97298  42.467   9.736  13.415
33575W        W97299  13.667  13.629  12.370
33576W        W97300  17.114  27.631  10.469
33577W        W97301   8.789   5.230   4.245
33578W        W97302  42.308  28.522   2.851
33579W        W97303  20.754  36.919   3.631
33580W        W97304   5.895   6.331   2.747
33581W        W97305  22.649  13.217   2.345
33582W        W97306  13.171  38.570  12.393
33583W        W97307  26.000  28.146  12.915
33584W        W97308  42.778  35.524   3.246
33585W        W97309  27.162  33.011  10.908
33586W        W97310  43.984   1.309  10.519
33587W        W97311  42.947  36.469  14.810
33588W        W97312   2.928  32.081  13.793
33589W        W97313  42.512  23.225   3.721
33590W        W97314   2.287  17.233   4.604
33591W        W97315  31.117  27.608  12.949
33592W        W97316  26.035  15.157  11.565
33593W        W97317  29.483   4.822   3.210
33594W        W97318  39.981  21.542  13.405
33595W        W97319  10.363   0.786  13.507
33596W        W97320   6.884  17.183   2.387
33597W        W97321  25.581  33.507  10.596
33598W        W97322   7.394  43.415  13.448
33599W        W97323  38.879  14.669  13.410
33600W        W97324  31.083  32.529   3.783
33601W        W97325  24.715  17.587  12.899
33602W        W97326  12.301  19.658  10.594
33603W        W97327   5.297  18.593   1.708
33604W        W97328   0.888  23.050   4.622
33605W        W97329   0.812  10.377   2.832
33606W        W97330  25.604   5.771  13.527
33607W        W97331  29.424  29.435  11.568
33608W        W97332  16.299  44.850   2.707
33609W        W97333  41.011  26.468  10.095
33610W        W97334  40.539  40.308  14.403
33611W        W97335  27.529   0.973  11.112
33612W        W97336  36.555   3.769  13.473
33613W        W97337   0.366  30.598   1.895
33614W        W97338  44.454  43.477   4.754
33615W        W97339   6.681  11.838   3.822
33616W        W97340  41.957  26.631   4.277
33617W        W97341  28.646   7.737   1.232
33618W        W97342  36.006  16.294   3.337
33619W        W97343  22.736  37.994   1.378
33620W        W97344  25.129   0.835   4.355
33621W        W97345  16.127  17.721  14.449
33622W        W97346  30.498  39.868  10.591
33623W        W97347   7.909   5.826  13.911
33624W        W97348  41.335  24.001  14.899
33625W        W97349  29.965  12.200  14.772
33626W        W97350  26.476  36.469   1.233
33627W        W97351  42.851  15.660  14.798
33628W        W97352  36.357  38.933   1.709
33629W        W97353  43.793  32.632   2.217
33630W        W97354  21.715  29.007   2.871
33631W        W97355  13.803  40.322   4.186
33632W        W97356   9.742  12.159   4.759
33633W        W97357  40.994  23.107  14.910
33634W        W97358  12.802   4.311   1.715
33635W        W97359  34.998  29.575  13.897
33636W        W97360  40.414  12.775  14.365
33637W        W97361   3.379  16.624  10.633
33638W        W97362  27.526   3.868  10.562
33639W        W97363   0.933  17.216   2.259
33640W        W97364  32.399  32.507  13.975
33641W        W97365  12.843  16.193   2.252
33642W        W97366  32.405   8.321  11.884
33643W        W97367  12.291   0.841   1.791
33644W        W97368  26.107   7.254  11.434
33645W        W97369  36.857  38.050  12.543
33646W        W97370   9.834   4.881   2.806
33647W        W97371  36.500   3.221   1.331
33648W        W97372  41.787  35.065   4.250
33649W        W97373  21.675  12.672   4.182
33650W        W97374  24.506  39.887   3.845
33651W        W97375   0.923  19.047   2.713
33652W        W97376   6.316  37.352  10.145
33653W        W97377  41.844  18.652   2.846
33654W        W97378   8.324  30.574  13.964
33655W        W97379  23.083  19.584   1.358
33656W        W97380   6.360  44.328  10.059
33657W        W97381  14.146  33.980   1.766
33658W        W97382  21.688  42.466  13.008
33659W        W97383  21.179  32.499   1.774
33660W        W97384  16.222   5.354   1.808
33661W        W97385  15.119  19.189   2.338
33662W        W97386  12.190  20.681   4.701
33663W        W97387   5.341  35.413   3.735
33664W        W97388  24.713  17.697  11.536
33665W        W97389  10.653   1.371   4.694
33666W        W97390   9.804  10.743   5.222
33667W        W97391  23.117   4.714   0.316
33668W        W97392   4.325  27.192  14.905
33669W        W97393  42.976  32.995   2.754
33670W        W97394   9.258  35.026  14.909
33671W        W97395  11.312  26.959  13.843
33672W        W97396  35.857  18.666  10.933
33673W        W97397  43.838  16.230  10.640
33674W        W97398  28.932  21.722   3.811
33675W        W97399  40.845  23.065   4.747
33676W        W97400  13.286  38.869   5.117
33677W        W97401  16.663   7.794   3.322
33678W        W97402  10.237  28.592   2.352
33679W        W97403  13.769  42.393  11.466
33680W        W97404  40.536  37.964   2.661
33681W        W97405   0.869  13.338  11.086
33682W        W97406  34.095  33.444  14.936
33683W        W97407  25.519  33.457  12.435
33684W        W97408  24.193  22.529   1.352
33685W        W97409   3.239  29.056  10.602
33686W        W97410   5.255   2.234  11.472
33687W        W97411  16.310  13.771  13.374
33688W        W97412  39.053  32.992  14.318
33689W        W97413  11.314  33.030   4.675
33690W        W97414  26.009  14.676   1.295
33691W        W97415  11.669  11.725  13.874
33692W        W97416  21.059  14.637   1.238
33693W        W97417  31.408  24.025   3.667
33694W        W97418  38.835  17.600   2.315
33695W        W97419  42.009  35.933   3.694
33696W        W97420  25.701  33.408   1.702
33697W        W97421  42.511   8.316   4.187
33698W        W97422   1.379  21.073   4.781
33699W        W97423  23.181  39.063  12.542
33700W        W97424   2.865   6.880  14.314
33701W        W97425   3.898  44.322  12.912
33702W        W97426  18.116   2.918  13.987
33703W        W97427  38.354   6.885   1.403
33704W        W97428  30.534   8.307   4.627
33705W        W97429   5.331  10.792  14.508
33706W        W97430  25.624  41.494  14.330
33707W        W97431  11.267  36.925   2.772
33708W        W97432   9.349   7.679  12.930
33709W        W97433   7.751  30.641  14.820
33710W        W97434  28.550  34.089  11.089
33711W        W97435  44.006  12.646   0.831
33712W        W97436  18.268  36.431  13.845
33713W        W97437  12.766   8.805  13.843
33714W        W97438  15.265  14.638  14.793
33715W        W97439   7.775  26.154   2.325
33716W        W97440  39.450  22.099   0.435
33717W        W97441   7.212  30.615  14.901
33718W        W97442  28.130  20.184  10.976
33719W        W97443  38.973  19.228   0.858
33720W        W97444  30.914  39.460   2.328
33721W        W97445  34.081  28.450  12.563
33722W        W97446  15.152  10.170  13.479
33723W        W97447  35.418   6.759  12.027
33724W        W97448   5.866   6.216  10.636
33725W        W97449  31.938  38.537  12.065
33726W        W97450  41.933  23.736  12.493
33727W        W97451  36.070  33.590   3.257
33728W        W97452   4.781  22.084   0.447
33729W        W97453  10.654  44.851  13.453
33730W        W97454  16.706  23.034   0.389
33731W        W97455   6.791  21.690  14.314
33732W        W97456  42.879  32.541   3.861
33733W        W97457   7.400  31.989  12.442
33734W        W97458  30.555  34.889  11.567
33735W        W97459  36.934  39.314   2.776
33736W        W97460  22.529   8.332  12.420
33737W        W97461  26.962  19.191  12.937
33738W        W97462  36.849  25.114  13.450
33739W        W97463  36.869  16.617   1.361
33740W        W97464   9.707  24.584  13.001
33741W        W97465   8.393  25.030   2.295
33742W        W97466  10.239  15.190   1.747
33743W        W97467  11.317  31.497  13.353
33744W        W97468  21.023   8.656   0.944
33745W        W97469   2.808  32.493  14.404
33746W        W97470   9.706  35.522   1.731
33747W        W97471  27.955  40.004   4.151
33748W        W97472   5.406   1.357  13.971
33749W        W97473  19.576  38.417   3.803
33750W        W97474  18.590  20.050   3.816
33751W        W97475   6.350  42.884  14.313
33752W        W97476  28.642  15.242   2.207
33753W        W97477  26.096   3.288  14.284
33754W        W97478  26.627  40.376   1.219
33755W        W97479  12.330  24.048   3.367
33756W        W97480  17.588  43.817  11.553
33757W        W97481   8.393  36.871  12.434
33758W        W97482  36.347  23.127  12.555
33759W        W97483  19.558  22.664   4.749
33760W        W97484   5.830  11.148   0.853
33761W        W97485  43.401  38.536   2.182
33762W        W97486  40.982   8.160  12.939
33763W        W97487  43.448  26.619   0.832
33764W        W97488  12.272  33.620  13.806
33765W        W97489  19.156  27.616   3.208
33766W        W97490  42.032   5.796  13.396
33767W        W97491  30.544  10.145   4.775
33768W        W97492  21.636  21.173   0.821
33769W        W97493  16.090  11.200  14.779
33770W        W97494  13.683  23.089   4.330
33771W        W97495   5.714  32.593  10.419
33772W        W97496  20.093  17.617  13.539
33773W        W97497   7.229  16.096  11.031
33774W        W97498  18.763   1.831   1.314
33775W        W97499  15.658   9.367  14.394
33776W        W97500  31.977  10.272  10.970
33777W        W97501  42.031   0.926   2.812
33778W        W97502   3.453  33.457   1.911
33779W        W97503  24.088  39.531  14.473
33780W        W97504  13.754   3.391   4.237
33781W        W97505  39.851  40.863  13.808
33782W        W97506   4.930  44.943  11.054
33783W        W97507   5.232  36.433   4.702
33784W        W97508   5.702   0.345  10.914
33785W        W97509  17.156  20.636  12.423
33786W        W97510  28.936   3.720  14.008
33787W        W97511  35.001   4.389   4.255
33788W        W97512  34.882  37.983  12.074
33789W        W97513  44.417  22.199  11.876
33790W        W97514   5.259  41.393  13.443
33791W        W97515  22.206  15.300  11.608
33792W        W97516   7.361  44.988  11.942
33793W        W97517  17.571  15.136  12.855
33794W        W97518  16.214  11.308   0.249
33795W        W97519   2.813  43.340  12.469
33796W        W97520  38.946  25.965   2.767
33797W        W97521   2.827   6.247  12.456
33798W        W97522  25.610  41.825  10.607
33799W        W97523  37.971  17.767  10.893
33800W        W97524  20.542  43.285  12.031
33801W        W97525  32.977   0.805  11.430
33802W        W97526  26.044  21.111   3.665
33803W        W97527  26.497  24.566  12.907
33804W        W97528  36.895  10.340  13.055
33805W        W97529   3.281  38.494   4.677
33806W        W97530  28.154  32.948  11.584
33807W        W97531  17.124  28.005   4.778
33808W        W97532  32.487  13.287   0.935
33809W        W97533  31.455   2.945  13.944
33810W        W97534   8.699  39.365  12.973
33811W        W97535  17.764  32.004  13.852
33812W        W97536  12.844  43.805   3.863
33813W        W97537  43.437  29.120   2.384
33814W        W97538  38.562  22.115  12.824
33815W        W97539   0.332  43.410   1.874
33816W        W97540  33.959  20.107   4.600
33817W        W97541  13.672   2.354  14.329
33818W        W97542  34.071  13.842   5.199
33819W        W97543  27.654  23.082  11.014
33820W        W97544  35.534  12.320   5.657
33821W        W97545   8.655  18.596   3.244
33822W        W97546  28.665   3.928   2.824
33823W        W97547  18.277  16.217   5.208
33824W        W97548  17.087  42.787  13.803
33825W        W97549  15.176  20.061   3.357
33826W        W97550  11.712  42.800  10.452
33827W        W97551  38.837  14.820  12.958
33828W        W97552   5.253  27.994   2.337
33829W        W97553  37.870  37.939   1.278
33830W        W97554  41.343  13.768  12.510
33831W        W97555   7.742  35.933   0.927
33832W        W97556  17.730   0.781  13.849
33833W        W97557   5.867  40.008  14.379
33834W        W97558  11.209   9.738  11.570
33835W        W97559  33.896  13.726   0.384
33836W        W97560  38.536  35.892  13.025
33837W        W97561   4.252   2.375  10.938
33838W        W97562  20.181  35.478   1.383
33839W        W97563  25.679  40.327  11.606
33840W        W97564   2.760  20.698   1.929
33841W        W97565   8.794  31.001   2.795
33842W        W97566  16.180   6.810   2.773
33843W        W97567  39.934  25.978  12.861
33844W        W97568  17.159  31.053   0.307
33845W        W97569   8.401  35.472  14.865
33846W        W97570   6.811  34.023  14.879
33847W        W97571  22.676  27.036  13.022
33848W        W97572  44.876   7.755  11.892
33849W        W97573  32.987  30.651  10.406
33850W        W97574   4.764   2.458   2.704
33851W        W97575  28.025  11.319  11.044
33852W        W97576   5.851  34.026   2.271
33853W        W97577  29.112   9.207  12.521
33854W        W97578  15.162  31.939   1.763
33855W        W97579  24.711  34.075  11.057
33856W        W97580  35.591   4.918   2.756
33857W        W97581  42.975   0.400  10.927
33858W        W97582  36.890   5.382   0.847
33859W        W97583  33.623  38.538   2.342
33860W        W97584   9.820  12.242   3.750
33861W        W97585  40.392  33.531  12.876
33862W        W97586  11.303  33.458  13.359
33863W        W97587  33.610  42.432   3.842
33864W        W97588  36.373  16.744  11.948
33865W        W97589   1.734  24.065   3.828
33866W        W97590  11.327  42.884   1.893
33867W        W97591  39.554  18.757   4.324
33868W        W97592   6.369   7.868  13.494
33869W        W97593  19.712  26.186  10.589
33870W        W97594  12.257   6.911   4.716
33871W        W97595  11.636  36.513  12.388
33872W        W97596  12.622   9.659   3.720
33873W        W97597  41.944  20.663  10.586
33874W        W97598   1.368   1.266   4.138
33875W        W97599   0.391  25.680  13.036
33876W        W97600   7.205  32.534  14.278
33877W        W97601   8.787  31.070  12.419
33878W        W97602  15.812  31.946  11.551
33879W        W97603  12.807  27.088  10.965
33880W        W97604   5.696   1.381  14.016
33881W        W97605  12.289  28.156  10.594
33882W        W97606   6.683  19.061  11.050
33883W        W97607  33.579  44.881   3.245
33884W        W97608  19.235  16.127   2.230
33885W        W97609  36.385   0.296  14.005
33886W        W97610  17.737   9.691   3.806
33887W        W97611  20.609   0.339  13.490
33888W        W97612  35.582  27.530   1.403
33889W        W97613  43.462  39.461  11.878
33890W        W97614  17.614  24.077   4.339
33891W        W97615  24.554  16.677   3.196
33892W        W97616  37.422  30.039   2.413
33893W        W97617  11.788  27.554  11.403
33894W        W97618  20.577   8.201  14.336
33895W        W97619   8.835  10.193  14.286
33896W        W97620  17.791  38.477  14.875
33897W        W97621   9.195  36.576  14.936
33898W        W97622  23.704  40.307   1.861
33899W        W97623  24.112   2.754   4.330
33900W        W97624   3.937   7.373   1.798
33901W        W97625  24.139  35.474  11.946
33902W        W97626  15.578  41.485  14.975
33903W        W97627  28.109   3.414   9.994
33904W        W97628  25.134  39.827  14.954
33905W        W97629  30.523   8.181  13.801
33906W        W97630  22.118  33.582  14.362
33907W        W97631  44.373   8.728  11.879
33908W        W97632  17.210  28.070  10.630
33909W        W97633  12.205  44.873  10.422
33910W        W97634  17.571  12.752   3.726
33911W        W97635  32.063   0.985  12.481
33912W        W97636   0.915  23.046   4.135
33913W        W97637  16.256  24.029  12.074
33914W        W97638  43.849  27.185  12.469
33915W        W97639  28.043  27.045   3.773
33916W        W97640  18.754  17.772   3.852
33917W        W97641  41.422  21.567   2.218
33918W        W97642  21.619  13.303   0.400
33919W        W97643   6.860  21.733  13.052
33920W        W97644  42.458  41.993   2.363
33921W        W97645  20.242  11.792   5.271
33922W        W97646  11.655  25.624   1.737
33923W        W97647  33.983  42.821  14.919
33924W        W97648   5.902  12.186   1.781
33925W        W97649  42.393  11.207   4.302
33926W        W97650  27.113  23.202  11.510
33927W        W97651  18.763  21.069   1.338
33928W        W97652  33.485  20.159   3.378
33929W        W97653  21.720  17.616   2.843
33930W        W97654  32.119  44.969  13.015
33931W        W97655  38.858   3.752   1.321
33932W        W97656  40.995   9.160   2.219
33933W        W97657  26.108  30.624   3.860
33934W        W97658   1.761  36.351   2.749
33935W        W97659  25.197   3.252   5.305
33936W        W97660  30.547  41.023   4.824
33937W        W97661   9.382  22.133  11.058
33938W        W97662  43.473  30.448   1.285
33939W        W97663   0.363  17.789  10.564
33940W        W97664  13.683  12.349  13.971
33941W        W97665  42.976  29.649   3.715
33942W        W97666  29.164   5.410  14.976
33943W        W97667  17.629  42.295  14.476
33944W        W97668  23.500  11.239  11.078
33945W        W97669   4.852  13.255   3.211
33946W        W97670  14.818  23.642  12.463
33947W        W97671  27.115  42.858  11.556
33948W        W97672  43.413  27.061   0.786
33949W        W97673  43.492  16.742  12.017
33950W        W97674  10.184   5.271  10.927
33951W        W97675  23.069  42.395  11.081
33952W        W97676  38.396  16.769   1.879
33953W        W97677  14.334  32.468   4.718
33954W        W97678  25.045  27.624  11.530
33955W        W97679  34.575   1.850  11.440
33956W        W97680  10.702   6.270  14.947
33957W        W97681   0.458  44.428   3.222
33958W        W97682  40.311   3.280   1.368
33959W        W97683  33.411  35.362   3.820
33960W        W97684   1.878  43.011   4.777
33961W        W97685  36.491  17.252  12.992
33962W        W97686   9.792  41.479   3.341
33963W        W97687  38.833  14.285  13.529
33964W        W97688  37.864  20.113  12.482
33965W        W97689  13.842  41.951   1.262
33966W        W97690  14.268  40.545  13.536
33967W        W97691  28.973  18.689  11.118
33968W        W97692  30.968  29.471   4.234
33969W        W97693  38.019  14.802   3.221
33970W        W97694  29.440   8.662   1.788
33971W        W97695  40.370   6.918   1.935
33972W        W97696  10.785  34.077   2.767
33973W        W97697  31.476  13.338   0.908
33974W        W97698   3.373  26.503  11.119
33975W        W97699  11.346  15.238   3.742
33976W        W97700   2.437  37.414   4.804
33977W        W97701  32.584  17.205  10.484
33978W        W97702  12.249  27.046  13.428
33979W        W97703   0.873  38.846   3.809
33980W        W97704  43.884  25.489  11.381
33981W        W97705  28.645  40.014  12.568
33982W        W97706  31.038  40.325  13.406
33983W        W97707  43.474  25.987  14.286
33984W        W97708  16.249   4.813   3.193
33985W        W97709   4.204  34.973  13.522
33986W        W97710  44.268  30.444   4.636
33987W        W97711  19.052  43.286   2.705
33988W        W97712  27.967  24.229   1.303
33989W        W97713  13.258   8.196   0.432
33990W        W97714  18.599  19.607   4.790
33991W        W97715  14.276  33.936   1.394
33992W        W97716  34.907   1.872  10.574
33993W        W97717   9.688  43.873  12.072
33994W        W97718  34.998   5.842   4.355
33995W        W97719  20.204  21.046   2.183
33996W        W97720  17.734  34.885   2.276
33997W        W97721  15.287  35.463  11.565
33998W        W97722  34.028  14.272   5.266
33999W        W97723   1.274  27.681   2.784
34000W        W97724  11.195  37.000   4.837
34001W        W97725  23.051  24.222   4.622
34002W        W97726   0.827  21.231   2.255
34003W        W97727  35.427  13.192  12.450
34004W        W97728  42.828  41.317  10.498
34005W        W97729  11.823  30.109  12.933
34006W        W97730  39.551  10.383   4.641
34007W        W97731  19.122  31.955   2.751
34008W        W97732  29.597   0.493  10.043
34009W        W97733  32.132  13.640   5.180
34010W        W97734   6.323  44.881  10.623
34011W        W97735  10.642  41.343  12.433
34012W        W97736  16.622  34.902  11.903
34013W        W97737  30.651  12.639   1.868
34014W        W97738   3.228  34.005   2.706
34015W        W97739   5.874  27.035   1.809
34016W        W97740  41.379  28.523  11.531
34017W        W97741  19.620  19.555  14.361
34018W        W97742  41.347  41.362  14.447
34019W        W97743   7.867  39.510  14.373
34020W        W97744  16.212  27.564  14.434
34021W        W97745   6.703  17.164   1.376
34022W        W97746  20.746   4.445  11.065
34023W        W97747  23.633   9.878  11.601
34024W        W97748  21.598  21.017   4.802
34025W        W97749  29.578  40.472  14.275
34026W        W97750  36.570  39.343   4.747
34027W        W97751  38.042  27.144  11.416
34028W        W97752  34.097  41.299   3.793
34029W        W97753  27.534  16.169   2.832
34030W        W97754  13.695  15.703  14.983
34031W        W97755  31.482  38.838   3.290
34032W        W97756  10.185  15.709   0.307
34033W        W97757   0.415  34.376  14.955
34034W        W97758   5.359  19.695   3.284
34035W        W97759  28.032  16.093   0.411
34036W        W97760  24.690  40.929  12.833
34037W        W97761  34.433  33.624  13.973
34038W        W97762  37.444  14.786  13.967
34039W        W97763  29.024   2.847  13.352
34040W        W97764  30.562  27.556   1.210
34041W        W97765   0.416  44.874   0.809
34042W        W97766  35.105  13.248   4.665
34043W        W97767   6.304  22.569   1.253
34044W        W97768  40.311  30.420   3.150
34045W        W97769  17.062   7.912  14.867
34046W        W97770  41.925  13.312   0.870
34047W        W97771   7.704   5.330   4.130
34048W        W97772  22.592  16.246   2.367
34049W        W97773  13.187   2.724  12.095
34050W        W97774  34.006  18.666  14.351
34051W        W97775  36.954  42.816   2.900
34052W        W97776  31.121   4.874  14.466
34053W        W97777   4.226   9.367   3.337
34054W        W97778  24.227  11.781   0.897
34055W        W97779  29.640  24.212   9.957
34056W        W97780  19.763  37.890   2.746
34057W        W97781   5.715  36.528   1.848
34058W        W97782  41.792  16.302  13.339
34059W        W97783  18.739  10.632   0.948
34060W        W97784  43.930  28.544  10.526
34061W        W97785  15.609   2.323  14.506
34062W        W97786  34.940  35.498   3.671
34063W        W97787  33.456  40.484   1.369
34064W        W97788   3.380  41.845  12.966
34065W        W97789  25.677  34.116   3.764
34066W        W97790  33.078  22.743  12.857
34067W        W97791  25.198  17.203   2.272
34068W        W97792  33.409  24.651   3.186
34069W        W97793  32.973  11.304   4.619
34070W        W97794  12.710  44.972  13.311
34071W        W97795   3.807  13.654  14.796
34072W        W97796  40.342  25.541   0.912
34073W        W97797  10.770  26.171  10.450
34074W        W97798  27.634  14.616   0.438
34075W        W97799  21.655  28.436   3.689
34076W        W97800   3.939  25.474   0.314
34077W        W97801  31.961  21.197  10.437
34078W        W97802  26.494  12.217   9.928
34079W        W97803  24.623  16.713   1.730
34080W        W97804  40.348  30.497  10.431
34081W        W97805   1.330   9.161   2.256
34082W        W97806  35.876  44.395   2.669
34083W        W97807  42.378  21.181  13.349
34084W        W97808   1.351   7.416  12.375
34085W        W97809  35.037  12.204  14.879
34086W        W97810  40.918  27.530  11.568
34087W        W97811  37.465  33.490   3.732
34088W        W97812  29.489   1.339  10.441
34089W        W97813  12.775   1.473   4.314
34090W        W97814  30.933   4.827   3.840
34091W        W97815  23.655  31.919   9.563
34092W        W97816   4.414  21.085  13.035
34093W        W97817   0.404  25.655  14.966
34094W        W97818  26.563   3.929   3.234
34095W        W97819  13.691  16.318   0.773
34096W        W97820   4.424  34.508  14.960
34097W        W97821  36.922  18.127   2.211
34098W        W97822   5.377  17.699   2.662
34099W        W97823   5.696  19.097  13.803
34100W        W97824  42.430   4.767  13.055
34101W        W97825   3.798  34.370  11.523
34102W        W97826  36.549  19.191   0.446
34103W        W97827  31.616  17.105   0.358
34104W        W97828  37.547  37.905  12.407
34105W        W97829  41.006  38.535  10.915
34106W        W97830  32.091  21.141   4.689
34107W        W97831  44.798   5.260   2.693
34108W        W97832  38.453  13.791  13.455
34109W        W97833  37.032  33.551   1.730
34110W        W97834   3.256  36.047  14.367
34111W        W97835  37.015  24.667  11.393
34112W        W97836  18.557  41.861  14.977
34113W        W97837   2.297  27.104   4.786
34114W        W97838  10.853  33.591  14.784
34115W        W97839   5.789  28.056  14.839
34116W        W97840   2.433   7.741   3.371
34117W        W97841  28.621   4.434   1.898
34118W        W97842  10.351   6.825   2.661
34119W        W97843  44.919   6.753  14.870
34120W        W97844  25.182  41.839  13.816
34121W        W97845  17.745  24.224  11.979
34122W        W97846  10.298  25.111  11.962
34123W        W97847  14.819  42.340  11.493
34124W        W97848  15.145  32.411   4.278
34125W        W97849  10.338   2.792   4.681
34126W        W97850   1.289  39.972  14.879
34127W        W97851  34.410  42.343   4.196
34128W        W97852   1.734  29.052  14.500
34129W        W97853   1.240   9.774  14.277
34130W        W97854   5.371  43.868   1.779
34131W        W97855  34.945  13.641   1.713
34132W        W97856  26.506   1.933   0.739
34133W        W97857  29.666  19.170   4.737
34134W        W97858   8.719  40.886  14.953
34135W        W97859   8.393  17.219   4.314
34136W        W97860  16.314  17.300  11.992
34137W        W97861  43.477   6.301  13.917
34138W        W97862   8.668  37.875   1.397
34139W        W97863  22.724  38.930   3.299
34140W        W97864  40.911  17.726  14.772
34141W        W97865  16.574   6.734  13.369
34142W        W97866  10.160  30.463  13.982
34143W        W97867   8.672  17.291  13.003
34144W        W97868  43.370   6.707  10.919
34145W        W97869  34.884  27.188   2.383
34146W        W97870  40.957  40.871   3.355
34147W        W97871  18.082  33.409   2.208
34148W        W97872  31.518  11.737   4.650
34149W        W97873  43.280  36.958  10.453
34150W        W97874  19.207   6.755   4.823
34151W        W97875  39.891   6.410   1.737
34152W        W97876  35.954  34.005   4.614
34153W        W97877  15.658  12.131   2.405
34154W        W97878  21.023   0.408  14.317
34155W        W97879  39.347   4.247   2.234
34156W        W97880   4.737   5.851   1.922
34157W        W97881  28.095  42.839   2.254
34158W        W97882  37.835  44.872   1.784
34159W        W97883  25.584  34.588  13.948
34160W        W97884  17.250  20.050  14.983
34161W        W97885  27.458  23.186  11.440
34162W        W97886  15.180   9.819  12.010
34163W        W97887  31.140   1.894  12.472
34164W        W97888  31.404  44.278   0.792
34165W        W97889   0.807  31.969  14.774
34166W        W97890  35.366  33.897  13.834
34167W        W97891   4.258  14.206  12.929
34168W        W97892   6.285  17.144   1.337
34169W        W97893  40.502  33.405  10.905
34170W        W97894  10.733  27.034  11.035
34171W        W97895  17.280  18.063   0.791
34172W        W97896  19.598  26.995  11.107
34173W        W97897  31.100  23.651  10.582
34174W        W97898  33.022   4.401   4.683
34175W        W97899   4.315  22.089   1.344
34176W        W97900   0.813  31.620   2.708
34177W        W97901  43.437  24.000  13.061
34178W        W97902  23.525  21.201  14.808
34179W        W97903  30.984  38.825  10.490
34180W        W97904  10.291  21.737  12.034
34181W        W97905  40.374  11.350   1.328
34182W        W97906   9.668  27.963   2.881
34183W        W97907   8.725   0.339  12.909
34184W        W97908  29.942   7.382  11.470
34185W        W97909  39.430  31.107  12.091
34186W        W97910  26.670  34.090   3.186
34187W        W97911   9.228  35.004  11.578
34188W        W97912  32.621  30.026   4.735
34189W        W97913  28.549  27.002   1.840
34190W        W97914  24.176   0.913  14.508
34191W        W97915   2.369  35.019  12.382
34192W        W97916  18.557   1.832  13.051
34193W        W97917  43.452  28.669  11.429
34194W        W97918  10.259  27.613  14.910
34195W        W97919  24.100  43.433   4.349
34196W        W97920  25.180  34.095  11.991
34197W        W97921  27.035  25.492  11.506
34198W        W97922  42.967  34.519  14.905
34199W        W97923  38.961   5.222   4.705
34200W        W97924  29.968  24.224  11.874
34201W        W97925  26.685  12.345  14.884
34202W        W97926  30.075  20.114  13.396
34203W        W97927   2.401  43.018   0.811
34204W        W97928  31.057  31.500  14.275
34205W        W97929  39.908  15.648   4.797
34206W        W97930  25.138  36.487   0.433
34207W        W97931  16.226  20.089  11.957
34208W        W97932  25.198  23.623  14.361
34209W        W97933  28.026  29.080  12.838
34210W        W97934  37.004  30.535   4.150
34211W        W97935  10.263  24.060  14.431
34212W        W97936  35.946  16.253   0.848
34213W        W97937  19.587  22.055  12.998
34214W        W97938  13.150  17.780   0.416
34215W        W97939   6.377  13.222   1.331
34216W        W97940   4.822  17.110  13.490
34217W        W97941  21.219   9.705   2.814
34218W        W97942   3.270  30.479   0.386
34219W        W97943  39.962   9.162  14.279
34220W        W97944  18.288  31.003   0.434
34221W        W97945   4.426  11.230  13.363
34222W        W97946  23.672  18.593  14.815
34223W        W97947  31.464   7.884   0.323
34224W        W97948  41.535  43.766  11.570
34225W        W97949  24.554  40.325  10.428
34226W        W97950  37.394  11.224   3.229
34227W        W97951  12.117  18.090   1.829
34228W        W97952  11.254  26.584   0.810
34229W        W97953  13.750  31.543   3.201
34230W        W97954  43.015  42.790  12.038
34231W        W97955  40.961  30.005  11.612
34232W        W97956  34.936  43.971   2.836
34233W        W97957  35.421   2.278  11.885
34234W        W97958  41.911  21.692   4.697
34235W        W97959  44.007  42.018   2.806
34236W        W97960   2.905   1.739   2.723
34237W        W97961  27.595   2.734   2.365
34238W        W97962  23.121  18.549  13.812
34239W        W97963   9.320  17.201   0.788
34240W        W97964  15.174   9.190   1.747
34241W        W97965   1.255  37.513  14.341
34242W        W97966  13.284  12.702   2.831
34243W        W97967   2.790  10.278   0.480
34244W        W97968  24.593  15.223  11.429
34245W        W97969  44.785   9.881  11.993
34246W        W97970   0.775  40.527   0.826
34247W        W97971  42.004   2.858  11.077
34248W        W97972  19.638  29.970   1.819
34249W        W97973  43.942  18.180   3.183
34250W        W97974  41.849  42.296   4.158
34251W        W97975  26.987   9.216   2.228
34252W        W97976  40.006  12.324  10.444
34253W        W97977  19.041  16.788  14.951
34254W        W97978   1.314  19.711  14.410
34255W        W97979   6.704   0.318  11.921
34256W        W97980  28.470  32.897  14.381
34257W        W97981  40.879   3.809   1.315
34258W        W97982  16.127  36.365   1.344
34259W        W97983  31.511  30.080   1.698
34260W        W97984   4.206   4.233  13.329
34261W        W97985  37.519  22.604   0.259
34262W        W97986   4.232  43.854  12.365
34263W        W97987  15.806   8.295  13.375
34264W        W97988   1.790  27.460   2.358
34265W        W97989  13.667   5.918  13.869
34266W        W97990  21.239  27.559  10.484
34267W        W97991  39.046  30.640   0.425
34268W        W97992  40.936   7.400  13.061
34269W        W97993  14.625  35.883   3.214
34270W        W97994  28.584  16.265  11.891
34271W        W97995  16.581  10.266   0.253
34272W        W97996  32.507  43.886   0.836
34273W        W97997  44.482  33.598   3.206
34274W        W97998   2.758   2.849   0.894
34275W        W97999  43.390  22.703  11.421
34276W        W98000   2.356  38.535   3.801
34277W        W98001  34.568  25.701  12.948
34278W        W98002  39.480   5.790   3.208
34279W        W98003  14.145  42.315  10.513
34280W        W98004  32.438  19.559   1.290
34281W        W98005   9.171  44.387  14.456
34282W        W98006   0.900   5.323  10.578
34283W        W98007  29.530  36.573   0.919
34284W        W98008  17.286  22.040  13.796
34285W        W98009  35.944   1.950   3.744
34286W        W98010  29.163  31.078  13.317
34287W        W98011  34.000  17.247  11.412
34288W        W98012  44.936  26.114   3.191
34289W        W98013  39.060   4.379  13.435
34290W        W98014  13.155  22.711   5.142
34291W        W98015  11.162   3.800   2.746
34292W        W98016   3.773  12.163   1.858
34293W        W98017  17.757   2.796  12.352
34294W        W98018  15.183  23.610   4.667
34295W        W98019  24.042   6.775  14.921
34296W        W98020   6.322  31.588   1.782
34297W        W98021   7.232  36.852  10.941
34298W        W98022   4.211  10.324  11.129
34299W        W98023  15.289  13.844  14.856
34300W        W98024   4.702  12.139   2.773
34301W        W98025   9.187   1.311   2.817
34302W        W98026  37.890  27.953   3.379
34303W        W98027  21.252  34.020  12.436
34304W        W98028   8.201  33.959  12.024
34305W        W98029  26.522  13.599  13.535
34306W        W98030  31.013  23.526   4.334
34307W        W98031  30.564  22.152  13.839
34308W        W98032  15.660  42.353  12.092
34309W        W98033  19.093  15.217   0.780
34310W        W98034   9.710  35.925  14.875
34311W        W98035  38.357  19.581   3.283
34312W        W98036  38.413  27.478  13.491
34313W        W98037  37.021  15.805  12.487
34314W        W98038  23.200  23.697  10.507
34315W        W98039  38.042  36.350  14.940
34316W        W98040  37.867  39.331  13.942
34317W        W98041  29.005  30.567  13.456
34318W        W98042  35.512  29.607  10.463
34319W        W98043   0.830   8.286   1.271
34320W        W98044  23.169  33.893  11.377
34321W        W98045  11.140  38.023   0.887
34322W        W98046  20.637  28.653  10.929
34323W        W98047  25.621  34.116  14.966
34324W        W98048  37.028  18.166  11.025
34325W        W98049  21.241  23.559  13.821
34326W        W98050  12.723  42.322   0.446
34327W        W98051  32.895   2.247   4.837
34328W        W98052  20.651  23.493  14.488
34329W        W98053  39.380   1.871   3.807
34330W        W98054  29.927  44.918   4.671
34331W        W98055   2.951  39.875  14.302
34332W        W98056  12.707  22.624   1.360
34333W        W98057  15.685  19.680  10.144
34334W        W98058  29.930  25.595   2.204
34335W        W98059   5.404  44.010  10.900
34336W        W98060  24.209  41.487   3.761
34337W        W98061  44.806  18.669   1.300
34338W        W98062  21.185  43.479  11.943
34339W        W98063  20.658  19.705   0.280
34340W        W98064  39.551  39.487   2.752
34341W        W98065  24.535  42.478  14.487
34342W        W98066  21.559  29.584  10.959
34343W        W98067  29.133   4.326  12.833
34344W        W98068   2.350  40.459   3.209
34345W        W98069  41.846  10.674   0.857
34346W        W98070  40.334  28.009   3.311
34347W        W98071  28.500  35.367  13.862
34348W        W98072  36.348   1.409  11.425
34349W        W98073  43.503  33.951   4.218
34350W        W98074   4.883  14.687  12.521
34351W        W98075  30.507  16.076  13.513
34352W        W98076  12.118  33.129  11.057
34353W        W98077  36.454  24.103   2.301
34354W        W98078  42.466  17.280  11.527
34355W        W98079  36.939  19.251  14.887
34356W        W98080  13.655  24.604  14.354
34357W        W98081  20.540   7.212  13.930
34358W        W98082   7.686   2.362   2.348
34359W        W98083  25.045  29.930  13.476
34360W        W98084  36.063   8.289   4.327
34361W        W98085  23.554  11.774  14.327
34362W        W98086  41.866  10.351  12.017
34363W        W98087  38.874  30.521   2.711
34364W        W98088  43.813  30.646  11.047
34365W        W98089  22.228  28.044   5.149
34366W        W98090  34.009   4.903  10.628
34367W        W98091   4.869  14.823  13.023
34368W        W98092   2.433   3.258   0.795
34369W        W98093  20.698  23.630   4.766
34370W        W98094  17.779  26.063   1.922
34371W        W98095   6.906  39.545   1.860
34372W        W98096  14.761  10.711   1.890
34373W        W98097  37.012   8.869   1.306
34374W        W98098  36.478   9.282   4.216
34375W        W98099  28.544  23.108  12.994
34376W        W98100  36.923   7.248  12.369
34377W        W98101  16.114  12.757  10.503
34378W        W98102  34.387  36.018  13.955
34379W        W98103   7.294  11.259  10.993
34380W        W98104   8.883  33.593  13.433
34381W        W98105   1.851  43.002  10.533
34382W        W98106  31.074  21.544   4.787
34383W        W98107   1.281  36.475  10.600
34384W        W98108  10.226  22.079   1.412
34385W        W98109  21.652  13.764   3.169
34386W        W98110  32.068  11.333   2.702
34387W        W98111   2.455  12.811  12.878
34388W        W98112   3.836  10.636   4.640
34389W        W98113   6.270  33.888  14.309
34390W        W98114   2.335   9.840   3.274
34391W        W98115  42.777  21.083  12.435
34392W        W98116  11.219  17.170   3.704
34393W        W98117  15.320   3.947  14.032
34394W        W98118  25.054  35.557   0.457
34395W        W98119  40.446  23.631  11.445
34396W        W98120  22.614  14.313   0.252
34397W        W98121   9.292  44.886   2.846
34398W        W98122  22.075  29.520  13.476
34399W        W98123   2.401  19.736  13.986
34400W        W98124  42.904  37.389   0.772
34401W        W98125   2.885  32.907   1.781
34402W        W98126  13.278   4.755   1.300
34403W        W98127  22.523  39.363   1.316
34404W        W98128  32.430  16.771   0.897
34405W        W98129  16.131  34.098   4.276
34406W        W98130  10.192  18.162  11.029
34407W        W98131  11.788  36.912   3.193
34408W        W98132  44.468  44.834  12.058
34409W        W98133  18.545  15.656   2.270
34410W        W98134   2.792  39.456   4.333
34411W        W98135   7.182   5.855  14.473
34412W        W98136   4.432  14.106  10.457
34413W        W98137  33.391   0.789  14.985
34414W        W98138  19.556  20.713   4.307
34415W        W98139  29.590   4.901   2.268
34416W        W98140  17.270  32.436   1.812
34417W        W98141  34.033   8.378   0.910
34418W        W98142   4.706   6.838  13.852
34419W        W98143  42.796  22.118  13.502
34420W        W98144   7.673   7.762  11.044
34421W        W98145   6.679  25.596  12.831
34422W        W98146  24.689  17.176   0.484
34423W        W98147  41.910  28.011  12.400
34424W        W98148   5.383   6.201   1.240
34425W        W98149  16.260  10.792   2.210
34426W        W98150  13.302  30.989  14.332
34427W        W98151  28.047  17.197  10.940
34428W        W98152  15.590  10.192  14.770
34429W        W98153  33.441  23.674   0.836
34430W        W98154  33.516  16.682   3.224
34431W        W98155  29.565  21.044   4.781
34432W        W98156  26.485  32.633   0.449
34433W        W98157  29.561   7.318  13.542
34434W        W98158  26.990  29.923   1.802
34435W        W98159  10.803  31.582   0.285
34436W        W98160   5.727  31.951  11.592
34437W        W98161  27.471  44.904  12.041
34438W        W98162  15.637  32.503  11.561
34439W        W98163  18.162  13.740  13.449
34440W        W98164   0.452  32.584   3.833
34441W        W98165  10.711  42.306  12.976
34442W        W98166  41.511   6.685  12.834
34443W        W98167  40.801  30.615   0.911
34444W        W98168   8.185   4.386  12.067
34445W        W98169  28.965  27.130   1.395
34446W        W98170  10.319  13.266   3.382
34447W        W98171  40.335  14.227   3.822
34448W        W98172  13.632  22.747  10.428
34449W        W98173  11.637   5.357   2.304
34450W        W98174  30.528  21.125  14.906
34451W        W98175  34.116  29.546  14.429
34452W        W98176   4.768   7.800   0.753
34453W        W98177  38.425  27.967  13.800
34454W        W98178  44.777   1.768   2.309
34455W        W98179   5.856   7.367  10.567
34456W        W98180  36.867   9.823  11.954
34457W        W98181   0.416  23.593  14.994
34458W        W98182  14.676  37.405  12.070
34459W        W98183  26.486  14.235  13.417
34460W        W98184   2.332   2.332  13.441
34461W        W98185  39.524  25.713  13.849
34462W        W98186  10.220  16.078   0.881
34463W        W98187  33.561  22.613  10.977
34464W        W98188   4.779  24.088   1.785
34465W        W98189  35.479  44.482   3.841
34466W        W98190  43.452  35.953   9.978
34467W        W98191  19.559  31.902  10.626
34468W        W98192  33.624  10.833  11.076
34469W        W98193  15.172  42.937  14.863
34470W        W98194  20.139  42.289   3.659
34471W        W98195  14.173  30.603   2.794
34472W        W98196  24.101  42.007  13.324
34473W        W98197  28.524  43.285   0.898
34474W        W98198  16.609  26.602  11.530
34475W        W98199   9.740   1.413   2.837
34476W        W98200  39.051   2.303  10.496
34477W        W98201   9.314   5.268  11.459
34478W        W98202   5.872  13.335   0.846
34479W        W98203  14.277  19.769  13.877
34480W        W98204  16.583   2.344  14.900
34481W        W98205  35.915  32.071  13.493
34482W        W98206   2.362  38.965   3.811
34483W        W98207  23.717   6.913   3.365
34484W        W98208  14.330  34.908  12.039
34485W        W98209  15.771  23.099  11.524
34486W        W98210  33.086  34.988   1.346
34487W        W98211  32.944  22.744  10.417
34488W        W98212   7.193  22.066   1.436
34489W        W98213  43.486   1.899   1.767
34490W        W98214  17.676  10.774   3.247
34491W        W98215  39.518  39.051   4.708
34492W        W98216   2.737  27.024  13.931
34493W        W98217   0.945  39.328  14.764
34494W        W98218  43.310  17.555   4.256
34495W        W98219  12.135  21.149   1.396
34496W        W98220   3.332  26.675   3.212
34497W        W98221  16.612  33.984   2.258
34498W        W98222  43.430  28.034  10.925
34499W        W98223  23.554   1.329   3.229
34500W        W98224  10.334   3.941  12.989
34501W        W98225  23.678  42.382  11.470
34502W        W98226  40.035  15.751  13.869
34503W        W98227  37.833  39.873   4.167
34504W        W98228  39.469  36.560  12.852
34505W        W98229   5.800  22.197   2.368
34506W        W98230   9.332  24.045  11.993
34507W        W98231   2.427  22.711   3.827
34508W        W98232   5.434  29.044   1.755
34509W        W98233  34.072  12.251  14.348
34510W        W98234  15.091  39.513   1.267
34511W        W98235  38.948  39.460  14.368
34512W        W98236  37.085  35.072   1.775
34513W        W98237  13.287  19.684   4.647
34514W        W98238  18.216  30.072   0.403
34515W        W98239  34.079   7.312   1.808
34516W        W98240  42.370  41.977  11.499
34517W        W98241  12.306   9.674   3.711
34518W        W98242  26.966   5.210   2.207
34519W        W98243  14.760  24.977  14.906
34520W        W98244  20.199  22.532   1.756
34521W        W98245  37.950   5.328  10.452
34522W        W98246  21.544  21.582  13.470
34523W        W98247   4.823  13.254   2.266
34524W        W98248  39.317  14.722  13.847
34525W        W98249   2.302  19.566   4.328
34526W        W98250   9.182  11.159  12.847
34527W        W98251  36.073  16.113   4.641
34528W        W98252  41.976  34.605  10.143
34529W        W98253   5.267  42.992   1.359
34530W        W98254  40.535  39.395  11.454
34531W        W98255  32.075  16.667   1.214
34532W        W98256  20.618   5.298   4.126
34533W        W98257  44.294   1.368   3.662
34534W        W98258  31.017  10.237  13.024
34535W        W98259  36.476   0.792  12.908
34536W        W98260  36.559  23.696   4.261
34537W        W98261  20.688  38.961   0.379
34538W        W98262  36.508  30.014  13.869
34539W        W98263  10.227  37.005   2.323
34540W        W98264  40.827  19.764  10.431
34541W        W98265   6.707  43.918  13.893
34542W        W98266  13.225  32.497  10.934
34543W        W98267  22.547  23.147   1.886
34544W        W98268   6.809  30.623   2.848
34545W        W98269   9.758  13.194  13.848
34546W        W98270  30.148  29.640   2.884
34547W        W98271  32.488  24.705  10.615
34548W        W98272  19.598  29.103  11.415
34549W        W98273  18.661  37.925   0.937
34550W        W98274  39.006  22.738   4.142
34551W        W98275   2.806  22.669  13.533
34552W        W98276  23.211  29.967   2.794
34553W        W98277  18.260  17.082   1.892
34554W        W98278  39.510   5.841  13.022
34555W        W98279  11.320  29.122   0.358
34556W        W98280  28.670  42.987   2.711
34557W        W98281  36.352  41.992   4.353
34558W        W98282  33.396  17.268  11.580
34559W        W98283  14.789  14.332   3.812
34560W        W98284   4.785  23.194  13.470
34561W        W98285  43.345  34.528  10.640
34562W        W98286  15.769  10.197  14.334
34563W        W98287  14.190  13.183  11.894
34564W        W98288  12.708  37.512   2.296
34565W        W98289   1.751  22.011  14.970
34566W        W98290  35.576   1.916   2.419
34567W        W98291   5.317   8.250   3.634
34568W        W98292  26.061  40.841  13.905
34569W        W98293  38.920  32.449   0.871
34570W        W98294  43.320   5.356  14.013
34571W        W98295  38.404   8.265  11.522
34572W        W98296  26.587  28.114   4.648
34573W        W98297  18.632   5.917   0.881
34574W        W98298  13.615  29.997  12.485
34575W        W98299  28.545  31.515  12.574
34576W        W98300   6.783  43.805   0.390
34577W        W98301  15.319  37.518  13.839
34578W        W98302  20.646  29.469   1.705
34579W        W98303   5.832  33.918   1.865
34580W        W98304  34.944   1.329  10.485
34581W        W98305  21.058   7.408  14.894
34582W        W98306  44.359  18.788   3.724
34583W        W98307  38.464  24.127   1.714
34584W        W98308  23.131  33.024  11.472
34585W        W98309  35.968  13.225  10.001
34586W        W98310  25.581   2.878  14.918
34587W        W98311  42.802  27.486  11.074
34588W        W98312   9.694  10.364  10.409
34589W        W98313  41.888  29.425   0.799
34590W        W98314   6.255   4.847  12.053
34591W        W98315  21.673   2.859  11.593
34592W        W98316  15.156  39.855  14.832
34593W        W98317  43.395   0.406   2.671
34594W        W98318  43.003  30.957   3.206
34595W        W98319   5.305  11.674   3.362
34596W        W98320   2.734   3.267   1.815
34597W        W98321  34.407  21.166  13.402
34598W        W98322  17.721   3.345  12.903
34599W        W98323  44.422  12.137   0.388
34600W        W98324  42.875  32.501  13.364
34601W        W98325  28.509  17.732   1.341
34602W        W98326  16.712  20.731  10.947
34603W        W98327  24.169  24.517  14.907
34604W        W98328   4.708  42.992   3.380
34605W        W98329  17.095  30.546  10.447
34606W        W98330  24.164  16.760  14.359
34607W        W98331  27.625  15.747  12.845
34608W        W98332  29.942  41.490  14.828
34609W        W98333  12.171   5.208   2.685
34610W        W98334  32.113  39.341  14.294
34611W        W98335   2.831  41.812   3.670
34612W        W98336  11.728  15.122  11.009
34613W        W98337   7.800  19.126  14.333
34614W        W98338  36.955  14.824   4.195
34615W        W98339   9.347  41.447   3.654
34616W        W98340  24.134   7.691   3.269
34617W        W98341  12.246   4.303  11.032
34618W        W98342  24.695  39.363   2.898
34619W        W98343  43.360   7.678  13.337
34620W        W98344  43.006  26.478   2.807
34621W        W98345  25.580  34.079  12.411
34622W        W98346   2.343   2.353   1.386
34623W        W98347  43.294   6.894   1.872
34624W        W98348   0.289   9.391   4.808
34625W        W98349  32.452   6.786  14.022
34626W        W98350   7.364  14.719   5.203
34627W        W98351   3.299   1.969   4.634
34628W        W98352  31.464  12.659  10.481
34629W        W98353  15.185   3.780   3.216
34630W        W98354   4.787   0.249  14.293
34631W        W98355   3.241  33.466   0.740
34632W        W98356  11.216  27.576   3.653
34633W        W98357  20.221  28.096   0.296
34634W        W98358  22.108  17.278   1.911
34635W        W98359  32.062   8.858  12.398
34636W        W98360  14.827  33.033   3.177
34637W        W98361  21.069   0.749  11.910
34638W        W98362   6.876  18.091  13.385
34639W        W98363  35.860  42.478  12.001
34640W        W98364  23.622   8.808  13.813
34641W        W98365  28.559  21.683   4.667
34642W        W98366  13.725   4.733   2.346
34643W        W98367  23.048  30.557  13.519
34644W        W98368  25.161   5.314   2.866
34645W        W98369  37.970  26.053   2.232
34646W        W98370  43.001  16.192   3.225
34647W        W98371  20.731  32.550  14.014
34648W        W98372  33.499  19.710  12.011
34649W        W98373  25.558  40.918  12.922
34650W        W98374  17.768  20.180   0.823
34651W        W98375  30.442  25.195  10.991
34652W        W98376   5.928   6.792  14.309
34653W        W98377   7.857  24.541   2.389
34654W        W98378  25.086   1.335   1.708
34655W        W98379  12.233   3.883   1.859
34656W        W98380  39.839  42.291  11.897
34657W        W98381  30.424   0.481   2.671
34658W        W98382  32.572  19.135  11.001
34659W        W98383  30.927  10.180   5.240
34660W        W98384  36.414  10.793   0.299
34661W        W98385  23.504   9.676   1.823
34662W        W98386  41.402  20.060   2.730
34663W        W98387   5.848  19.536  11.538
34664W        W98388   0.283   1.826  13.530
34665W        W98389  34.443  38.924  13.803
34666W        W98390  10.693  24.057   1.249
34667W        W98391  11.715  35.367   3.289
34668W        W98392   9.695  38.504  11.909
34669W        W98393  40.826  11.632  12.982
34670W        W98394   6.245  31.542   1.439
34671W        W98395  16.792  23.709   3.360
34672W        W98396  24.646  12.626  10.540
34673W        W98397  12.132  14.203  10.467
34674W        W98398  30.599  44.431   4.621
34675W        W98399  28.120  11.867   5.287
34676W        W98400  39.353  33.431  13.869
34677W        W98401  17.256  16.597   1.805
34678W        W98402  12.349   8.211  13.847
34679W        W98403  11.816  18.264   1.326
34680W        W98404  20.738  38.935  12.094
34681W        W98405  22.570  33.923  12.505
34682W        W98406  39.388  19.095   1.750
34683W        W98407   7.214  33.418   0.846
34684W        W98408  31.900  17.090   2.280
34685W        W98409   9.795  31.493  11.465
34686W        W98410   6.748  14.801   1.238
34687W        W98411  28.568  33.061  11.966
34688W        W98412  28.954  34.584  13.375
34689W        W98413  27.527  31.479  10.947
34690W        W98414  33.879  15.678  10.005
34691W        W98415  38.014  27.485  13.502
34692W        W98416  33.418  18.138   3.232
34693W        W98417   0.372  41.332   3.732
34694W        W98418  39.978  29.614   3.738
34695W        W98419  30.947  23.496  11.414
34696W        W98420   0.759  10.365   3.667
34697W        W98421  37.340   8.330  14.839
34698W        W98422  11.652   9.264  12.049
34699W        W98423  22.075  10.851   1.776
34700W        W98424  30.064  27.544  13.879
34701W        W98425   1.384  36.862   1.882
34702W        W98426  19.751  35.462  13.431
34703W        W98427   1.414  24.550  13.924
34704W        W98428  39.005   9.708  14.467
34705W        W98429  21.108  34.405   4.332
34706W        W98430  26.031   9.176  14.961
34707W        W98431  12.758  24.640  14.786
34708W        W98432  42.781  30.092  10.993
34709W        W98433  28.121  33.038  11.956
34710W        W98434  30.443  19.284  10.527
34711W        W98435  25.999  32.527   2.220
34712W        W98436  38.334  41.915   3.788
34713W        W98437  41.989  38.943   5.084
34714W        W98438   8.353  25.679   4.716
34715W        W98439  41.002   2.834  14.478
34716W        W98440  18.119  13.148  12.493
34717W        W98441   3.885  26.082   0.814
34718W        W98442  41.422   8.712   1.802
34719W        W98443  35.423  17.710   3.158
34720W        W98444   1.809  41.870  13.037
34721W        W98445  18.639  30.646  11.914
34722W        W98446   4.433   3.300   4.616
34723W        W98447   1.780  24.156  14.856
34724W        W98448  27.639  33.964  13.328
34725W        W98449  44.312  36.064   1.267
34726W        W98450   1.874   3.279  13.999
34727W        W98451   3.253  14.280   4.780
34728W        W98452  24.179  38.835   4.696
34729W        W98453  38.406  28.932   1.432
34730W        W98454  28.167  14.606   1.436
34731W        W98455  38.422  17.219  14.830
34732W        W98456  40.911  39.906  11.518
34733W        W98457  40.031  25.692  10.995
34734W        W98458  25.100  20.728  10.622
34735W        W98459  37.977  11.140  10.925
34736W        W98460   1.336   5.779  14.791
34737W        W98461   0.468  19.693   0.323
34738W        W98462   8.314  43.939  10.898
34739W        W98463  38.056  12.661   5.236
34740W        W98464  38.000  20.146  10.937
34741W        W98465  27.525   5.303   3.661
34742W        W98466  33.033   7.689   4.706
34743W        W98467  32.588  14.624  14.953
34744W        W98468   0.966  41.915  12.835
34745W        W98469  26.558  35.903   1.280
34746W        W98470   3.291  13.125  12.020
34747W        W98471   0.972  13.329   2.758
34748W        W98472  40.340  40.986   9.591
34749W        W98473  35.032  26.560  14.827
34750W        W98474  18.113  16.592  14.291
34751W        W98475  24.170  21.725   4.253
34752W        W98476  42.409  43.439   2.832
34753W        W98477   6.817   0.755   2.288
34754W        W98478  21.710  28.006   0.777
34755W        W98479  15.789  29.654   3.152
34756W        W98480  42.417   3.921  10.543
34757W        W98481  44.430  44.380  11.456
34758W        W98482   0.340  23.556  14.009
34759W        W98483  20.119  19.755   4.824
34760W        W98484   3.334  17.601   2.848
34761W        W98485  18.788  35.952   5.296
34762W        W98486  29.000   1.742   3.805
34763W        W98487  38.342  37.378   4.132
34764W        W98488  17.230  26.614   5.252
34765W        W98489  17.175  25.551  13.391
34766W        W98490  10.300  11.331  10.958
34767W        W98491  37.866  15.222   2.380
34768W        W98492   0.370   7.805   3.670
34769W        W98493  34.407  41.922  13.315
34770W        W98494  38.894   7.868  11.127
34771W        W98495   6.838  38.957  13.929
34772W        W98496   1.450  34.925   2.356
34773W        W98497  20.658  29.072   2.808
34774W        W98498  13.703  15.761  13.994
34775W        W98499   2.724  30.908   4.131
34776W        W98500  18.153   7.251   1.354
34777W        W98501  17.070  37.462  13.458
34778W        W98502  22.576  37.078  12.455
34779W        W98503  18.167   4.353   3.307
34780W        W98504  21.588   5.762   3.837
34781W        W98505  22.154  12.265  13.456
34782W        W98506   5.759  28.597   4.734
34783W        W98507   2.430  44.854   0.443
34784W        W98508  15.151  35.056   3.775
34785W        W98509  33.093   7.360   3.362
34786W        W98510  43.382  14.259  11.407
34787W        W98511  22.688   1.900  12.962
34788W        W98512   8.796   4.275   0.884
34789W        W98513   5.850  32.478  14.360
34790W        W98514  29.598  17.781   4.824
34791W        W98515  30.126  31.023  10.588
34792W        W98516  22.088  26.535   0.478
34793W        W98517   8.374  35.579  10.407
34794W        W98518  42.417  19.659   3.186
34795W        W98519   3.396  29.601   1.739
34796W        W98520   7.322   8.814   4.351
34797W        W98521  35.465  17.622   0.889
34798W        W98522  10.157  43.322  14.373
34799W        W98523  12.669   7.286  12.072
34800W        W98524  21.618   7.353  10.086
34801W        W98525   6.817   2.285   4.669
34802W        W98526  11.703  29.172   3.845
34803W        W98527   3.866  17.589  13.444
34804W        W98528  30.957  41.992   4.141
34805W        W98529   1.342  41.294   4.276
34806W        W98530  37.423  19.544  12.987
34807W        W98531  16.588   1.458  10.901
34808W        W98532  30.451   2.418   4.666
34809W        W98533  35.358  19.641   4.205
34810W        W98534  35.102  30.036   1.378
34811W        W98535  30.037  34.077   2.365
34812W        W98536  30.982  29.075   3.648
34813W        W98537   1.869   6.335   4.797
34814W        W98538   5.740  13.153  13.992
34815W        W98539  35.883   8.295  14.787
34816W        W98540  28.949  36.399   4.144
34817W        W98541  11.343   7.684  12.054
34818W        W98542  17.082  14.800   3.151
34819W        W98543  24.573  34.880   0.908
34820W        W98544  15.660  35.894  12.888
34821W        W98545  30.067  11.811   2.884
34822W        W98546  10.765  17.634   0.935
34823W        W98547  14.820  40.492   4.816
34824W        W98548  35.084  42.309   3.233
34825W        W98549  18.129  12.143  11.388
34826W        W98550  31.901  17.779  12.430
34827W        W98551   9.218  36.903   4.752
34828W        W98552  38.491  28.478  13.488
34829W        W98553  20.125  28.597   1.847
34830W        W98554  27.686  22.152  13.915
34831W        W98555  26.611  44.868   4.221
34832W        W98556   9.179  12.158  11.982
34833W        W98557  25.544  20.057  12.985
34834W        W98558  37.521  15.712  12.390
34835W        W98559  11.196  35.072  13.879
34836W        W98560  43.014  23.719   2.664
34837W        W98561  25.562  37.921   0.392
34838W        W98562  15.733  11.664  13.048
34839W        W98563  14.147  14.277   1.360
34840W        W98564  27.962  28.052   3.167
34841W        W98565   9.691  39.547   2.202
34842W        W98566   4.732  22.722   5.315
34843W        W98567  25.007  14.831   2.319
34844W        W98568  37.493  19.211  12.016
34845W        W98569   3.285  44.428   9.932
34846W        W98570  32.126  16.280  11.002
34847W        W98571  19.586  31.576  13.408
34848W        W98572  13.113   1.328   1.708
34849W        W98573  19.255  15.254  12.991
34850W        W98574   4.301  22.204  11.452
34851W        W98575  15.667   4.250   3.253
34852W        W98576  35.980   3.893  12.484
34853W        W98577  12.846  19.678   1.904
34854W        W98578  12.698  14.707   0.871
34855W        W98579  40.023  28.521  13.020
34856W        W98580  25.145  13.197   0.860
34857W        W98581   1.746  36.009   2.767
34858W        W98582  22.037   3.374   1.359
34859W        W98583  38.536  16.255  11.884
34860W        W98584  25.643  29.437  13.926
34861W        W98585   6.888  27.568   0.850
34862W        W98586   9.755  15.807  14.402
34863W        W98587  39.331  18.755  12.084
34864W        W98588  10.205   8.784   2.729
34865W        W98589  32.512  15.806  14.435
34866W        W98590  39.005  28.039   5.209
34867W        W98591  38.035  34.399  10.588
34868W        W98592  41.359  10.809  14.017
34869W        W98593  29.018  14.742  12.455
34870W        W98594  25.617  21.072   2.318
34871W        W98595  40.549  37.084  13.361
34872W        W98596  20.142  16.764   4.635
34873W        W98597  10.785  11.249  11.502
34874W        W98598  15.640  24.008  11.056
34875W        W98599  22.667  21.148  13.996
34876W        W98600  31.580  30.092   4.175
34877W        W98601  34.106  33.418   3.240
34878W        W98602  24.601  21.710  11.006
34879W        W98603  43.917   3.370   2.276
34880W        W98604  30.928  19.737  13.921
34881W        W98605  40.889  10.359  13.859
34882W        W98606   8.872  12.155  10.494
34883W        W98607  16.307  31.023   4.143
34884W        W98608   2.874  43.886   3.149
34885W        W98609  18.078   4.866  10.947
34886W        W98610   1.477  24.104   1.902
34887W        W98611  24.991  10.368  10.587
34888W        W98612   2.458   1.427  12.346
34889W        W98613   8.274  12.263   3.274
34890W        W98614  37.530  30.127   4.248
34891W        W98615  33.504  16.732  12.082
34892W        W98616   0.476  11.730  12.864
34893W        W98617  20.094   2.819  12.379
34894W        W98618  19.615   8.664   1.901
34895W        W98619  36.580   4.727   3.161
34896W        W98620  31.114  35.568  10.617
34897W        W98621  17.127  31.968   1.851
34898W        W98622   5.842  35.099   2.352
34899W        W98623  21.580  13.717  12.897
34900W        W98624  10.825  34.527   4.289
34901W        W98625  42.832  22.662  14.385
34902W        W98626   8.711  19.273  10.467
34903W        W98627   8.367  40.306   3.866
34904W        W98628  38.036  24.137   2.203
34905W        W98629  36.462  15.215   4.249
34906W        W98630   5.301   8.282   3.286
34907W        W98631  38.395  26.155   3.350
34908W        W98632   0.793   1.438   0.402
34909W        W98633   2.443   7.668  11.005
34910W        W98634  27.465   8.795   0.419
34911W        W98635  35.970  42.493  10.422
34912W        W98636  33.093   6.860   4.297
34913W        W98637   1.319  15.642  13.893
34914W        W98638  21.095   6.767   4.728
34915W        W98639  43.496  36.458  14.494
34916W        W98640  25.691  40.844   1.907
34917W        W98641  27.019  18.721   3.338
34918W        W98642  35.380  30.056   0.966
34919W        W98643  29.535  17.277   4.646
34920W        W98644  13.282  34.098   0.405
34921W        W98645  38.973  11.178  11.003
34922W        W98646  30.131  14.709   4.692
34923W        W98647  36.010   4.824  12.858
34924W        W98648   9.307  30.551  12.904
34925W        W98649  19.135  42.493  12.051
34926W        W98650  20.187  28.468  14.405
34927W        W98651   0.861   1.867  11.431
34928W        W98652  33.901  14.198   4.262
34929W        W98653  22.042  16.118   2.903
34930W        W98654   2.437  22.620   0.480
34931W        W98655  15.656  14.775  10.601
34932W        W98656  28.000  14.652   4.730
34933W        W98657  29.064  32.580   2.711
34934W        W98658  39.489   8.778  10.561
34935W        W98659   7.409  23.002   3.321
34936W        W98660  39.949  10.144  12.567
34937W        W98661  18.206  30.108   4.301
34938W        W98662  10.330  27.132   0.738
34939W        W98663  25.167  17.180   4.284
34940W        W98664  26.971  17.093   4.769
34941W        W98665  41.417   5.313   0.730
34942W        W98666  33.931  28.482  10.961
34943W        W98667  29.103  22.720  13.397
34944W        W98668  34.033   1.417  12.049
34945W        W98669  16.301  35.963   2.274
34946W        W98670  15.811  38.481  12.024
34947W        W98671  11.671  27.621   2.829
34948W        W98672  13.125  17.300   2.343
34949W        W98673  16.181  25.122  13.016
34950W        W98674  19.768  40.408   0.267
34951W        W98675   1.337  35.573  12.368
34952W        W98676  41.023  19.775  12.832
34953W        W98677  41.870   1.322  10.634
34954W        W98678   9.319  36.862   4.228
34955W        W98679  34.503  31.049   1.783
34956W        W98680  44.920   8.184   1.226
34957W        W98681  14.125  24.479  14.978
34958W        W98682  44.873  15.187   4.339
34959W        W98683   9.329  24.603   2.698
34960W        W98684   2.806   3.339  14.326
34961W        W98685  10.286  34.997   3.276
34962W        W98686  11.204  21.549  11.992
34963W        W98687  25.996  31.549  10.558
34964W        W98688   1.927  37.037  14.840
34965W        W98689   1.814   5.342   2.862
34966W        W98690  22.590  18.657   2.828
34967W        W98691  14.812  33.403   0.781
34968W        W98692  32.590  19.214  12.376
34969W        W98693  27.156  36.942   0.282
34970W        W98694  43.894  44.396   0.756
34971W        W98695  15.623  42.466   0.732
34972W        W98696  43.883  20.636  10.590
34973W        W98697  23.633   1.303  14.789
34974W        W98698  37.484  32.544   2.848
34975W        W98699  23.122  34.370  10.441
34976W        W98700  41.031  26.007   5.090
34977W        W98701  16.668  19.081  10.894
34978W        W98702  37.994  19.540   0.752
34979W        W98703  30.457  25.649  11.855
34980W        W98704  14.632  41.348   2.205
34981W        W98705  27.486  19.047  14.868
34982W        W98706  33.994  41.439  11.947
34983W        W98707  39.823  28.122  13.966
34984W        W98708  24.111  26.040   1.816
34985W        W98709  35.498   5.829   3.219
34986W        W98710  13.259  15.735  10.107
34987W        W98711   4.868  42.853   2.345
34988W        W98712  30.460  32.104  11.874
34989W        W98713   5.809  15.172  13.841
34990W        W98714  11.813  17.606   0.734
34991W        W98715  37.053  31.975   0.247
34992W        W98716  35.594   0.875   2.852
34993W        W98717   0.318  25.107  14.796
34994W        W98718  14.233  42.335  14.762
34995W        W98719  26.022  30.164   1.331
34996W        W98720   6.346  37.884   2.828
34997W        W98721  34.534   2.933   0.806
34998W        W98722  26.535  33.912   1.335
34999W        W98723  32.537  34.925  14.839
35000W        W98724  24.672  40.046  13.535
35001W        W98725  32.005  20.236   2.709
35002W        W98726  12.172  41.953  14.330
35003W        W98727   1.371  23.515   4.350
35004W        W98728  12.256  19.637  14.509
35005W        W98729  33.939  26.555  14.386
35006W        W98730   3.385  34.576   0.869
35007W        W98731  17.236  13.124   2.824
35008W        W98732  43.878   7.884   3.825
35009W        W98733   0.475  26.010  14.900
35010W        W98734  28.525  36.049   0.302
35011W        W98735  12.330  30.625   2.293
35012W        W98736  14.116  32.025   0.903
35013W        W98737  18.077  27.951  14.465
35014W        W98738   6.797  11.759  11.532
35015W        W98739   2.903   1.843   0.964
35016W        W98740  36.372  35.424  11.067
35017W        W98741  24.059   0.344  10.541
35018W        W98742   8.780  23.615   4.669
35019W        W98743  18.061  33.893   2.731
35020W        W98744  11.647  35.105   2.826
35021W        W98745  25.492   1.476   0.815
35022W        W98746  21.756  32.514   3.694
35023W        W98747  39.506  24.185   2.755
35024W        W98748  22.679  36.358  11.974
35025W        W98749  19.755  24.201   0.298
35026W        W98750   0.779  41.883  13.519
35027W        W98751  31.551  16.266  13.829
35028W        W98752  25.213  43.414   3.273
35029W        W98753  22.014  33.949  12.390
35030W        W98754   2.410   6.283  13.499
35031W        W98755   9.173   2.960  12.958
35032W        W98756  10.230  43.788  11.858
35033W        W98757  28.116   7.266   0.455
35034W        W98758  35.007  13.641   1.297
35035W        W98759  16.680  11.189  11.520
35036W        W98760  41.018  15.811  14.810
35037W        W98761  42.469  38.892   0.335
35038W        W98762   0.766  21.695   1.271
35039W        W98763   2.809  16.309   1.879
35040W        W98764  10.261  28.530   3.786
35041W        W98765  11.251  28.063  12.922
35042W        W98766  15.202  15.626  14.356
35043W        W98767  44.348   6.240   0.464
35044W        W98768   2.755   7.192  13.312
35045W        W98769  32.135  15.629   4.143
35046W        W98770   2.740  17.233   1.719
35047W        W98771  27.608  14.226  11.081
35048W        W98772  18.595  41.422   1.407
35049W        W98773   1.462   1.290  14.781
35050W        W98774  27.686  21.095  13.397
35051W        W98775  12.816  33.391   4.609
35052W        W98776  12.710  37.534  14.452
35053W        W98777  22.652  43.332  13.839
35054W        W98778   9.834  22.229   3.820
35055W        W98779  38.508   9.159   3.230
35056W        W98780  25.102  14.240   0.767
35057W        W98781  26.959  19.671   2.870
35058W        W98782  24.223  25.528  12.842
35059W        W98783  33.082  21.019   2.837
35060W        W98784  33.083   7.182   2.248
35061W        W98785  19.090  29.069  14.773
35062W        W98786  44.294  10.809  13.359
35063W        W98787   7.172  29.543  13.988
35064W        W98788  44.882  44.310   4.620
35065W        W98789  42.418   3.299   3.823
35066W        W98790   9.748   4.702   1.859
35067W        W98791  40.310  33.011   2.201
35068W        W98792  37.069  35.536  13.513
35069W        W98793  19.217  19.236  13.802
35070W        W98794  37.851   7.673  13.414
35071W        W98795  40.489  44.819  12.453
35072W        W98796  19.731  17.207  12.387
35073W        W98797  19.207  25.179  13.435
35074W        W98798  12.302  15.088  13.948
35075W        W98799  10.141  30.064  13.943
35076W        W98800  40.923  25.554  10.118
35077W        W98801  43.788  34.587   9.675
35078W        W98802  29.596  36.540   3.243
35079W        W98803   6.887  37.455  13.325
35080W        W98804  11.250  27.670  13.384
35081W        W98805   6.849  33.948  10.645
35082W        W98806  26.548   3.457   0.776
35083W        W98807  28.628  15.132   3.638
35084W        W98808  24.974  17.149  11.866
35085W        W98809   3.822  11.336   3.742
35086W        W98810   7.351  27.570  13.951
35087W        W98811   9.685  30.629   1.426
35088W        W98812  24.626  28.124  10.611
35089W        W98813  22.685  19.266  12.457
35090W        W98814  19.601  12.346   3.344
35091W        W98815  35.937  34.424  11.108
35092W        W98816  18.660  32.540   0.774
35093W        W98817   5.752   4.790   3.228
35094W        W98818  23.592  43.830   1.353
35095W        W98819  17.178   5.930  14.005
35096W        W98820   3.429  18.652  13.882
35097W        W98821   3.717  30.482  14.458
35098W        W98822  36.391   3.909   1.904
35099W        W98823  31.134   7.242   1.750
35100W        W98824  21.608  33.027  14.863
35101W        W98825  13.330   3.931  13.405
35102W        W98826  30.441  13.618  10.914
35103W        W98827   5.216  18.605   3.718
35104W        W98828  37.939  23.989  12.401
35105W        W98829  27.121   6.201  13.062
35106W        W98830  43.930   8.816  12.012
35107W        W98831  40.848  16.699  12.846
35108W        W98832  22.229  14.590  13.486
35109W        W98833   3.437  38.541   0.478
35110W        W98834  31.930   2.746   1.906
35111W        W98835  42.370  17.688   0.738
35112W        W98836   4.220  39.440  10.996
35113W        W98837  11.781   6.422  10.608
35114W        W98838   2.767  27.166  10.430
35115W        W98839  17.284  16.759  14.890
35116W        W98840   9.344  21.113   1.772
35117W        W98841  40.345   0.358  10.131
35118W        W98842   0.900  13.806   3.635
35119W        W98843  17.228  38.943   1.301
35120W        W98844  30.634  23.494  10.540
35121W        W98845  23.595   3.801   2.343
35122W        W98846  14.257  13.658  13.928
35123W        W98847   2.774  32.422   0.461
35124W        W98848  35.053  34.964  13.984
35125W        W98849   7.755  31.583  12.490
35126W        W98850  23.622  37.967  11.574
35127W        W98851  17.281   9.847   4.193
35128W        W98852  21.639  31.036  10.140
35129W        W98853  34.538   3.824   3.794
35130W        W98854  11.853  22.209   3.663
35131W        W98855  29.434  31.971   4.678
35132W        W98856  22.158  43.877   3.155
35133W        W98857  28.011  32.552   0.253
35134W        W98858  43.889  27.069   3.360
35135W        W98859   5.841  23.591   4.813
35136W        W98860  35.864  15.820   0.873
35137W        W98861  19.143   1.259  11.401
35138W        W98862  11.846  20.665  11.065
35139W        W98863   9.377  11.677  14.021
35140W        W98864  42.338  30.521  10.431
35141W        W98865   0.914  37.859  13.489
35142W        W98866   8.763  40.324  10.415
35143W        W98867   4.374   4.337   0.812
35144W        W98868  10.662  15.678  10.510
35145W        W98869  35.466  44.969  11.587
35146W        W98870  32.110  40.003   2.875
35147W        W98871  27.973  30.020  12.354
35148W        W98872  42.014   0.804   4.225
35149W        W98873  20.155  43.354  13.010
35150W        W98874  14.721  38.415   4.226
35151W        W98875  29.004  10.370  12.922
35152W        W98876  13.251  17.720  13.848
35153W        W98877   1.408  19.564   3.370
35154W        W98878  41.517  16.592  13.062
35155W        W98879  33.017  34.593  11.086
35156W        W98880  16.118  13.116  10.939
35157W        W98881  23.521  41.368   4.702
35158W        W98882  38.899  30.616  14.004
35159W        W98883  12.292  22.214   4.779
35160W        W98884  41.943  24.206  14.360
35161W        W98885   3.421  23.005  12.406
35162W        W98886  23.003  31.606  10.986
35163W        W98887  19.622  34.016  14.460
35164W        W98888  26.661  25.034  11.936
35165W        W98889  14.592  31.555  11.995
35166W        W98890  27.063  31.989   1.387
35167W        W98891  22.041  34.882   0.908
35168W        W98892  12.235   9.663   2.180
35169W        W98893   6.726   6.678  12.929
35170W        W98894  42.925  21.610   2.276
35171W        W98895  32.565  26.160  13.926
35172W        W98896   5.692   1.776   2.358
35173W        W98897  40.434  42.949  12.438
35174W        W98898  34.024  27.029   4.207
35175W        W98899  32.999   7.805   2.854
35176W        W98900  31.016  15.740  10.893
35177W        W98901  33.551  14.235   1.368
35178W        W98902  43.941   3.404  14.417
35179W        W98903  31.099  29.545  14.942
35180W        W98904  10.644   8.881  12.395
35181W        W98905  17.130  24.508   3.639
35182W        W98906  24.026  34.891   0.931
35183W        W98907  42.319   4.757   1.903
35184W        W98908  38.449  15.325  14.877
35185W        W98909  14.813  10.758   4.781
35186W        W98910   8.699  43.845   0.329
35187W        W98911  25.490  30.068   2.814
35188W        W98912   2.238   2.343   4.806
35189W        W98913  38.349  35.938  11.073
35190W        W98914  39.877   3.748  14.839
35191W        W98915   2.828  38.532   3.267
35192W        W98916  24.017  39.454   3.650
35193W        W98917  19.772   7.396   3.363
35194W        W98918   5.417   5.340   0.798
35195W        W98919  39.023   2.402  11.379
35196W        W98920  20.561  30.532   4.255
35197W        W98921  22.696   5.256   2.856
35198W        W98922  33.452   4.230   0.831
35199W        W98923  36.391  38.976  10.509
35200W        W98924  11.332   4.909  14.773
35201W        W98925  37.955  19.592  12.973
35202W        W98926  27.514   8.778  14.282
35203W        W98927   7.355  30.115  13.881
35204W        W98928  21.243  10.224   3.286
35205W        W98929  24.222  33.615   3.845
35206W        W98930  40.957   0.850  13.326
35207W        W98931  43.344  12.731   3.227
35208W        W98932  14.702   0.934   0.412
35209W        W98933  42.396  31.985   4.680
35210W        W98934  20.081   4.368  11.997
35211W        W98935   4.816  22.741   4.706
35212W        W98936  36.936  44.413  14.419
35213W        W98937  28.592   1.772  10.592
35214W        W98938  11.760  34.494   4.705
35215W        W98939  21.753  39.998  13.905
35216W        W98940  23.685  12.260   4.768
35217W        W98941  29.625  36.901   2.255
35218W        W98942  28.519  31.496   0.845
35219W        W98943  15.270  24.977  12.977
35220W        W98944  42.469  27.184  11.874
35221W        W98945  31.626  30.098   2.327
35222W        W98946   2.235   1.293   1.751
35223W        W98947  27.650  35.526  11.490
35224W        W98948  27.077  40.042   3.316
35225W        W98949   8.795  38.876  10.580
35226W        W98950   5.263   6.811   1.933
35227W        W98951  43.876   8.834  11.007
35228W        W98952  22.739  30.566   0.931
35229W        W98953  26.189  12.830  14.492
35230W        W98954   8.319  39.816   4.630
35231W        W98955   6.186  35.444  14.783
35232W        W98956  44.756  28.655  12.980
35233W        W98957  26.600  14.651  11.112
35234W        W98958  32.026  19.162  13.536
35235W        W98959  16.590  24.649   1.876
35236W        W98960  39.377  33.025  10.920
35237W        W98961  34.043  27.485  10.971
35238W        W98962   8.683   6.896  14.444
35239W        W98963  20.565  22.584   3.654
35240W        W98964  42.952  31.910  10.989
35241W        W98965   4.801   7.699   1.264
35242W        W98966  26.590   9.721  12.944
35243W        W98967  24.701   8.798   4.665
35244W        W98968  22.127  28.536  13.494
35245W        W98969  40.360  22.652  14.465
35246W        W98970   3.821  32.631  13.062
35247W        W98971  42.398   8.885   3.177
35248W        W98972  31.081  42.793  11.399
35249W        W98973  20.702  40.449  14.426
35250W        W98974   6.261  25.482  10.529
35251W        W98975  13.600  38.052   3.802
35252W        W98976  15.770  35.393  13.421
35253W        W98977   0.418  22.647  14.021
35254W        W98978  40.315  12.355  14.340
35255W        W98979  13.341  27.571  12.900
35256W        W98980  29.146  28.112  13.375
35257W        W98981  31.932  20.553  11.956
35258W        W98982   4.896  32.466   2.219
35259W        W98983  22.028  30.536   4.129
35260W        W98984  16.316  38.892  12.947
35261W        W98985  24.171  43.364  11.076
35262W        W98986  11.152  37.370  12.060
35263W        W98987  27.121  36.453   4.723
35264W        W98988  29.451  42.804   2.702
35265W        W98989  17.103  26.123   1.339
35266W        W98990  37.392  11.665   2.734
35267W        W98991  29.984   7.338  13.961
35268W        W98992  11.708  36.355   2.765
35269W        W98993  11.858  38.838  14.828
35270W        W98994  34.584  25.204  13.488
35271W        W98995   0.373  16.675   2.297
35272W        W98996  15.682  32.603  12.065
35273W        W98997  13.771  36.417  13.968
35274W        W98998  16.319   9.236   0.299
35275W        W98999  31.002  15.133   2.306
35276W        W99000  20.109  25.087  11.123
35277W        W99001  23.113  44.993   0.911
35278W        W99002  40.399  14.750   3.708
35279W        W99003  24.049  40.529  14.505
35280W        W99004  36.502   4.235   4.280
35281W        W99005  27.631   3.852   3.294
35282W        W99006  20.584  41.945  12.884
35283W        W99007   1.865  43.508  14.820
35284W        W99008  20.715  26.103  10.550
35285W        W99009  31.927  11.851   3.222
35286W        W99010  14.226  28.032   3.386
35287W        W99011   7.406  34.478  12.428
35288W        W99012  33.466   5.261  11.049
35289W        W99013  19.104   3.741  14.472
35290W        W99014  19.670   5.382   0.299
35291W        W99015   9.784  34.029  14.009
35292W        W99016  24.646  29.660  14.496
35293W        W99017   0.410  35.867  11.050
35294W        W99018  25.218  16.239   1.907
35295W        W99019  43.971  31.467   3.212
35296W        W99020  18.217  36.402   0.325
35297W        W99021  28.047  35.438  13.449
35298W        W99022  16.747  13.238  13.510
35299W        W99023  30.991  35.108  13.375
35300W        W99024  33.540  19.748  11.376
35301W        W99025  33.498  31.938   5.282
35302W        W99026   4.859  20.224  11.388
35303W        W99027   0.792   0.494  10.910
35304W        W99028  13.818  10.288  13.441
35305W        W99029  37.415   0.450   2.708
35306W        W99030  21.523  31.571  14.436
35307W        W99031   9.787  25.178   2.757
35308W        W99032  43.789  35.540  14.438
35309W        W99033  23.722  37.435  10.942
35310W        W99034  17.074  18.591  11.116
35311W        W99035   2.832  22.693  14.847
35312W        W99036   8.189  29.973  13.023
35313W        W99037  23.098  16.220   4.267
35314W        W99038  23.017  43.006   0.898
35315W        W99039  28.610  24.484   3.185
35316W        W99040  15.665  24.583  12.906
35317W        W99041   0.411  39.051  10.910
35318W        W99042  31.044   1.236  14.998
35319W        W99043  37.881  30.966   3.345
35320W        W99044  25.182  19.094  11.883
35321W        W99045   3.287  37.987   0.272
35322W        W99046  32.960  43.782  11.378
35323W        W99047  40.489  18.747  11.502
35324W        W99048   3.335   1.254   2.755
35325W        W99049  26.583   4.904   2.804
35326W        W99050  41.942  43.414  10.494
35327W        W99051  23.227   4.217   2.300
35328W        W99052   5.763  34.072   4.771
35329W        W99053  32.033  13.625  10.135
35330W        W99054  37.872   4.942  10.923
35331W        W99055  14.610  19.123   1.771
35332W        W99056  19.195  42.925   0.446
35333W        W99057  18.166  26.462   2.887
35334W        W99058  40.945  12.221  13.848
35335W        W99059  20.556  15.121   2.261
35336W        W99060  21.748  44.004  10.471
35337W        W99061  36.944  30.009  12.088
35338W        W99062  30.945  21.511  10.440
35339W        W99063  37.534  28.047  14.294
35340W        W99064  43.400  42.883   4.693
35341W        W99065  19.173  37.031  13.345
35342W        W99066  41.486  10.370  11.872
35343W        W99067  32.999   9.766  10.942
35344W        W99068   3.877  39.032   0.896
35345W        W99069   5.286   0.817   0.474
35346W        W99070  39.872   5.858  14.439
35347W        W99071  39.823  35.513   0.397
35348W        W99072  33.995  39.335  14.489
35349W        W99073  15.106   6.706  13.962
35350W        W99074   0.967  28.033  12.918
35351W        W99075  25.174   9.190   3.210
35352W        W99076  19.561  23.503   4.161
35353W        W99077  38.072  27.013   3.738
35354W        W99078  23.645  16.115  14.986
35355W        W99079   7.293   8.799   0.443
35356W        W99080  21.719  33.063   4.632
35357W        W99081  34.880  26.191  12.362
35358W        W99082   2.357   9.665  12.482
35359W        W99083  28.135  41.415   3.212
35360W        W99084  33.615  40.529  11.917
35361W        W99085   9.673  24.189  11.891
35362W        W99086  40.005   2.865   3.164
35363W        W99087   4.441  22.701   2.320
35364W        W99088   7.332  16.314   3.307
35365W        W99089   2.871  17.086  11.104
35366W        W99090  22.218  26.654  11.485
35367W        W99091  39.838   2.470   3.685
35368W        W99092  30.091  28.930  12.949
35369W        W99093  11.847  40.987  11.604
35370W        W99094   5.896  14.798  12.403
35371W        W99095  41.813  33.915  10.462
35372W        W99096  23.989  44.000   2.719
35373W        W99097  33.544   8.310  14.879
35374W        W99098  38.993  22.584   0.923
35375W        W99099   7.230  43.921  14.294
35376W        W99100  12.271  43.285  11.428
35377W        W99101  26.524  37.948   5.256
35378W        W99102   2.775  44.907  10.982
35379W        W99103  14.666  23.985   1.747
35380W        W99104   6.903   6.692   0.733
35381W        W99105  31.005  14.177  10.534
35382W        W99106  19.065  31.062   0.747
35383W        W99107  26.680  38.948  11.543
35384W        W99108   7.236  36.018   4.269
35385W        W99109  15.329  26.079   1.858
35386W        W99110   4.251  18.552   4.708
35387W        W99111   3.747  12.199   0.347
35388W        W99112   7.235   7.404   4.823
35389W        W99113   9.379  16.102  12.957
35390W        W99114  37.884  36.570   1.223
35391W        W99115  22.536  44.360  10.442
35392W        W99116  32.533  31.531   2.238
35393W        W99117   9.208  28.138   1.713
35394W        W99118  25.213  42.978   1.933
35395W        W99119  36.936  10.822  12.092
35396W        W99120   9.280  10.203   4.792
35397W        W99121  20.702  21.735  10.486
35398W        W99122   0.349  32.012  12.875
35399W        W99123  21.241   2.286   4.271
35400W        W99124  39.491  17.247   1.790
35401W        W99125  35.909  42.437   1.779
35402W        W99126   7.753  42.949  14.299
35403W        W99127  24.230  29.133  13.024
35404W        W99128  25.129  20.107  13.329
35405W        W99129  13.146  16.088  14.811
35406W        W99130  27.450  32.565  10.571
35407W        W99131   4.316  15.283  12.831
35408W        W99132  40.495   8.762   4.760
35409W        W99133  41.896  42.378  13.972
35410W        W99134  34.513  27.965  11.388
35411W        W99135   3.384  37.492   2.858
35412W        W99136  19.734  14.185  11.878
35413W        W99137  39.847  35.088   4.343
35414W        W99138  23.196  26.198  14.991
35415W        W99139  28.534  12.286  12.066
35416W        W99140  34.512  11.280  11.920
35417W        W99141  36.363  40.547  13.449
35418W        W99142  43.997   9.331   4.318
35419W        W99143  13.839   6.280  10.558
35420W        W99144   9.759  26.683  11.112
35421W        W99145  28.609  18.674  13.508
35422W        W99146  21.700  39.888   1.743
35423W        W99147  37.504  22.190  13.061
35424W        W99148   1.923  19.280  14.856
35425W        W99149  44.002  31.504  13.035
35426W        W99150  34.940  27.495  10.634
35427W        W99151  23.508  13.278   2.386
35428W        W99152  20.087   4.267   0.729
35429W        W99153  36.412  26.000   1.871
35430W        W99154  32.508   2.934  11.532
35431W        W99155  25.467   6.315  12.829
35432W        W99156  44.437   1.299  14.411
35433W        W99157  12.135  16.716   1.758
35434W        W99158  18.744  14.198  13.337
35435W        W99159  40.320  43.786  12.412
35436W        W99160  16.634  26.174  13.407
35437W        W99161  28.487   2.911  11.542
35438W        W99162  30.450  25.530  11.551
35439W        W99163  44.497  35.874   3.152
35440W        W99164  30.983  23.569  14.776
35441W        W99165  25.629  41.428  12.824
35442W        W99166  21.757   6.203  14.986
35443W        W99167  25.561  13.714   3.647
35444W        W99168   5.934  38.043  11.008
35445W        W99169  24.514  26.189   5.673
35446W        W99170  23.146   0.964   1.219
35447W        W99171  38.949   3.896  14.845
35448W        W99172  44.437  43.850   2.266
35449W        W99173   3.910  25.503  13.827
35450W        W99174  29.659  18.684   3.697
35451W        W99175  43.970  15.785  14.855
35452W        W99176  26.115  32.971   3.169
35453W        W99177   5.750  43.808  12.535
35454W        W99178  36.375  44.298  11.551
35455W        W99179   8.747   0.816  14.772
35456W        W99180  12.766  35.953   2.380
35457W        W99181  21.553  34.094  10.544
35458W        W99182  13.127   3.270   0.870
35459W        W99183  39.453  40.835   1.876
35460W        W99184   7.270  11.653   1.343
35461W        W99185  24.072   4.285   4.663
35462W        W99186  40.455  44.930  11.928
35463W        W99187  34.963   4.741  13.812
35464W        W99188  10.180  39.392  12.836
35465W        W99189   1.255   6.887   0.899
35466W        W99190  43.350  14.649  11.431
35467W        W99191   8.700  39.970  11.549
35468W        W99192   7.245  37.357   9.959
35469W        W99193   3.320  40.994   2.898
35470W        W99194  43.887  39.809  14.768
35471W        W99195  35.852  22.065   0.894
35472W        W99196  39.887   7.804   1.908
35473W        W99197  32.106  14.757   3.300
35474W        W99198  40.876  35.594   2.886
35475W        W99199   5.388  40.937  10.498
35476W        W99200  43.511   0.377  10.505
35477W        W99201  38.356  12.758   0.865
35478W        W99202   6.704  25.544  11.606
35479W        W99203  23.587  24.109   0.324
35480W        W99204   1.459   0.248   4.264
35481W        W99205  29.562  18.638   0.964
35482W        W99206  44.889  36.432   5.178
35483W        W99207   9.743  25.982   3.226
35484W        W99208  33.019  22.536  11.867
35485W        W99209  25.633   6.423   3.757
35486W        W99210  38.945   6.727  13.536
35487W        W99211  28.550   4.885   4.347
35488W        W99212   5.809  44.449   4.185
35489W        W99213  14.827  10.778   2.860
35490W        W99214  16.760  44.409  14.868
35491W        W99215  41.996  38.871   4.134
35492W        W99216  37.881  38.911   3.724
35493W        W99217   7.361   4.317  12.056
35494W        W99218  19.545  16.103  13.442
35495W        W99219  30.079  22.643  10.590
35496W        W99220  42.966   1.775  10.514
35497W        W99221   6.331   5.386   4.805
35498W        W99222   2.441  10.801   3.278
35499W        W99223  12.234   5.303   4.293
35500W        W99224  42.413  23.072   4.210
35501W        W99225   4.837   9.706   2.346
35502W        W99226  34.421  26.981  11.435
35503W        W99227  40.878  33.567  12.913
35504W        W99228  43.915  11.210  11.559
35505W        W99229  10.793  43.426  13.895
35506W        W99230   6.817  35.943  12.556
35507W        W99231  25.531   3.844   1.822
35508W        W99232  12.303  14.222   4.703
35509W        W99233  44.266  19.111   2.357
35510W        W99234  23.580  34.369   2.377
35511W        W99235  41.473   8.866   0.377
35512W        W99236   2.457  11.837   4.207
35513W        W99237  24.174   3.836  12.947
35514W        W99238  44.762  33.402   3.644
35515W        W99239  26.053  38.515   2.728
35516W        W99240  33.106   3.442   2.803
35517W        W99241  14.164   8.897   2.230
35518W        W99242  30.531  28.131  14.925
35519W        W99243  41.952  35.462  14.811
35520W        W99244  30.521  43.384   2.708
35521W        W99245  32.004  35.535  13.376
35522W        W99246   3.897  41.306   2.411
35523W        W99247  41.327  34.003   1.393
35524W        W99248   0.931  22.590  14.016
35525W        W99249  30.968  21.550  13.807
35526W        W99250   7.775  30.112  11.514
35527W        W99251  35.499   6.725  10.446
35528W        W99252   7.816  20.220  11.488
35529W        W99253   3.938  31.471   3.658
35530W        W99254  35.868  22.215   3.653
35531W        W99255   3.826  38.959  14.834
35532W        W99256   3.228   3.831  13.983
35533W        W99257  23.654  27.520   9.455
35534W        W99258  44.398  15.616   3.297
35535W        W99259  35.574   4.219  11.516
35536W        W99260  19.283  37.022  12.882
35537W        W99261  44.268  44.354   0.273
35538W        W99262  20.091  39.481   3.642
35539W        W99263  17.186  32.495   3.847
35540W        W99264  39.360  43.877  14.375
35541W        W99265   0.851  11.628  10.566
35542W        W99266  30.581  19.736  10.406
35543W        W99267  31.973  26.033   1.783
35544W        W99268  43.424  26.700   1.895
35545W        W99269  21.573  11.786  11.040
35546W        W99270   4.870  36.868  14.775
35547W        W99271  34.922   0.420  10.931
35548W        W99272  13.793  22.573   2.686
35549W        W99273   1.937  32.475   3.662
35550W        W99274  43.772  39.331  12.448
35551W        W99275  23.531  12.195   1.801
35552W        W99276  16.785  39.956   3.727
35553W        W99277  22.634  43.982   4.626
35554W        W99278  32.569  43.865  14.330
35555W        W99279  15.216   1.832   3.648
35556W        W99280  18.570  18.606   0.340
35557W        W99281  17.716  17.558  14.277
35558W        W99282  12.678  25.103   0.460
35559W        W99283  44.364  29.553   2.230
35560W        W99284   7.393  15.221  12.927
35561W        W99285  14.101   8.784   1.908
35562W        W99286  26.186  16.253   4.785
35563W        W99287  37.085   1.307   4.279
35564W        W99288  43.885  38.010  12.979
35565W        W99289  23.548  14.632  11.013
35566W        W99290  41.360  37.878  12.839
35567W        W99291  28.162  17.611   0.292
35568W        W99292  23.593  26.474  10.581
35569W        W99293  12.840  40.491  11.097
35570W        W99294  10.189  44.988   2.388
35571W        W99295  14.669  34.372   0.867
35572W        W99296  27.541  43.300   0.472
35573W        W99297   7.672  15.799   0.810
35574W        W99298  11.143  10.845   1.830
35575W        W99299  41.355  11.641   0.755
35576W        W99300  28.147   6.325   5.320
35577W        W99301  16.195  19.135  11.045
35578W        W99302  23.645  43.924   2.290
35579W        W99303  42.491  22.112   2.711
35580W        W99304  33.556  20.104   1.224
35581W        W99305  32.063  31.049  11.457
35582W        W99306   7.329  26.513  13.406
35583W        W99307  40.342   2.320  10.923
35584W        W99308  41.838  22.728  11.571
35585W        W99309  11.283  26.507   4.125
35586W        W99310  38.385  34.497  10.435
35587W        W99311  28.072  37.984   2.786
35588W        W99312  27.175  15.638   3.363
35589W        W99313  27.577  37.348  14.973
35590W        W99314   2.903  19.146  10.535
35591W        W99315   0.315   4.783  14.403
35592W        W99316  41.431  24.981   3.827
35593W        W99317  13.778  30.116  10.932
35594W        W99318  30.476  15.675  10.413
35595W        W99319  27.553  44.304   2.368
35596W        W99320   9.391  25.039   5.222
35597W        W99321  29.646  21.607   0.811
35598W        W99322  10.142  13.179   4.335
35599W        W99323  20.761  23.004   0.262
35600W        W99324  16.676   6.718   4.198
35601W        W99325  16.147   5.876  13.020
35602W        W99326  20.737  29.624  14.837
35603W        W99327   1.787  24.129   1.926
35604W        W99328  43.813  25.039   1.784
35605W        W99329  22.011   1.918  10.636
35606W        W99330  25.025  33.563  10.947
35607W        W99331  33.539   3.801  13.446
35608W        W99332  39.491   3.333  10.528
35609W        W99333  17.107   9.662   3.224
35610W        W99334  37.418   6.810   0.770
35611W        W99335  41.788  44.336  10.911
35612W        W99336  29.665  11.326  14.409
35613W        W99337  12.256   3.417  12.429
35614W        W99338  12.215  37.342  12.525
35615W        W99339   4.273   6.722  14.489
35616W        W99340  25.161  37.862  14.934
35617W        W99341  35.400  11.865  11.449
35618W        W99342  44.278  42.304  13.823
35619W        W99343  29.941  31.968   4.325
35620W        W99344  25.183  29.581  12.851
35621W        W99345   2.365  18.262   1.309
35622W        W99346  44.917  11.235   1.332
35623W        W99347  31.049  30.514   3.165
35624W        W99348  17.643  41.350  13.881
35625W        W99349  42.850   2.745   3.731
35626W        W99350  25.609  40.430  10.599
35627W        W99351  33.095  21.710  10.897
35628W        W99352  40.845  14.216   4.248
35629W        W99353  19.082   1.413  12.417
35630W        W99354  18.127  19.087  14.496
35631W        W99355  25.671   9.783  12.499
35632W        W99356   3.299   3.369  14.770
35633W        W99357   6.397  11.642   1.412
35634W        W99358   2.889  20.630   1.376
35635W        W99359   8.867   6.806   2.860
35636W        W99360  11.742  26.026   3.723
35637W        W99361   3.812  12.116   3.166
35638W        W99362   1.330  42.961   2.718
35639W        W99363   2.292   9.803  14.440
35640W        W99364  11.344   4.854  13.962
35641W        W99365  19.750  24.574   4.329
35642W        W99366  41.801  14.758   4.812
35643W        W99367  44.284  16.281  10.109
35644W        W99368  38.434  34.409   4.751
35645W        W99369  19.117  27.186  11.086
35646W        W99370  39.957   6.388  13.904
35647W        W99371  29.000  21.747  10.515
35648W        W99372   9.662   1.252  11.584
35649W        W99373  39.846  13.203   2.775
35650W        W99374  33.007  17.777  14.950
35651W        W99375  31.500   4.294   1.718
35652W        W99376   8.775  30.020   3.200
35653W        W99377  28.948   6.371   2.261
35654W        W99378  38.937  19.043  10.640
35655W        W99379   5.418   7.711  14.022
35656W        W99380   3.235  30.582  12.858
35657W        W99381  15.304   2.724   3.209
35658W        W99382  20.089  30.996  11.587
35659W        W99383  12.746  33.585   4.338
35660W        W99384  13.621  37.354   2.255
35661W        W99385   6.414  28.102   1.318
35662W        W99386  17.248  22.556  14.437
35663W        W99387  10.790  15.772   4.606
35664W        W99388  34.036  10.726   2.211
35665W        W99389  33.105  36.510  10.937
35666W        W99390  44.431  39.340   4.760
35667W        W99391  29.567  11.648  14.850
35668W        W99392  41.951  40.461  11.979
35669W        W99393  32.422  37.457   1.885
35670W        W99394   0.761   7.375   2.375
35671W        W99395  30.953  39.845  13.964
35672W        W99396   2.312  18.244   2.898
35673W        W99397  37.436  44.762  12.884
35674W        W99398  17.093  40.006  10.062
35675W        W99399   2.832  12.715  14.408
35676W        W99400   1.913  26.627   0.874
35677W        W99401   2.465  11.801  13.955
35678W        W99402   0.461  21.649  12.488
35679W        W99403  34.913   7.809   4.190
35680W        W99404  34.914  44.426  10.010
35681W        W99405  17.745  14.805   0.859
35682W        W99406  33.926  19.748   1.865
35683W        W99407  17.754  44.833  14.839
35684W        W99408  10.845  40.500  11.896
35685W        W99409  42.365  23.544  13.373
35686W        W99410  13.254  38.828  13.543
35687W        W99411   1.801   4.367   1.383
35688W        W99412   4.816   8.283   4.287
35689W        W99413  42.489  20.678  10.532
35690W        W99414   7.400  19.661  12.431
35691W        W99415  35.902  11.294   2.864
35692W        W99416  13.627  19.587  13.960
35693W        W99417  42.970  44.788   1.315
35694W        W99418  40.316  27.541   3.290
35695W        W99419   0.353  36.896  12.072
35696W        W99420  23.707  39.863   5.108
35697W        W99421  13.718  37.432  13.313
35698W        W99422  26.658  42.876  13.948
35699W        W99423  31.993  16.652   2.275
35700W        W99424  20.628  16.638  14.030
35701W        W99425   5.733  16.732  10.529
35702W        W99426  32.112   5.820  10.529
35703W        W99427  23.529   9.650  12.388
35704W        W99428  23.158   7.296  12.006
35705W        W99429   5.360   6.344   2.400
35706W        W99430  17.305   6.347  12.530
35707W        W99431  12.829  30.112  12.524
35708W        W99432  25.641  29.104   0.422
35709W        W99433  31.568  14.812  11.059
35710W        W99434  15.322  13.195   4.817
35711W        W99435   6.831   4.322   4.709
35712W        W99436   9.730   1.259   4.694
35713W        W99437  31.594  32.014  11.895
35714W        W99438   5.691  22.567   3.336
35715W        W99439  23.514   1.823  10.464
35716W        W99440  29.000   9.188  11.526
35717W        W99441   6.743  41.490  12.057
35718W        W99442  36.400  23.239   1.447
35719W        W99443  41.807  43.895   3.762
35720W        W99444  23.503  42.882   0.424
35721W        W99445   5.351  40.950   2.815
35722W        W99446  27.078   7.275   5.789
35723W        W99447   9.341  23.672  14.512
35724W        W99448   2.738  11.167  11.458
35725W        W99449   8.742  13.646   2.710
35726W        W99450  22.581  15.121   4.700
35727W        W99451   1.902   5.416  13.500
35728W        W99452  39.886  25.145  12.498
35729W        W99453  15.110   2.270  14.515
35730W        W99454  43.278  38.351   1.917
35731W        W99455  21.746   0.480   1.860
35732W        W99456  30.500  15.647  11.559
35733W        W99457  17.256  40.893  14.804
35734W        W99458  30.971  10.866  12.434
35735W        W99459  33.960   4.320  14.353
35736W        W99460  35.549  40.942  11.092
35737W        W99461   8.303   5.703  13.967
35738W        W99462   4.205   7.735   1.395
35739W        W99463  40.538  36.940  13.906
35740W        W99464  35.087  31.069  12.422
35741W        W99465  20.558  40.387  10.017
35742W        W99466  31.567  19.099  11.103
35743W        W99467   6.824  16.660   2.330
35744W        W99468  36.973  28.664  14.380
35745W        W99469  26.024  34.890   2.411
35746W        W99470  25.686  15.086   0.334
35747W        W99471  38.862  14.634  12.576
35748W        W99472  39.887  42.476   2.866
35749W        W99473  15.312  18.593   2.712
35750W        W99474  32.601  25.134  11.930
35751W        W99475  23.094  29.918  11.881
35752W        W99476  18.549   3.766  13.954
35753W        W99477  29.484  44.945  14.892
35754W        W99478  26.060  26.970   0.470
35755W        W99479  13.638  31.988   1.303
35756W        W99480   6.879  13.600   1.421
35757W        W99481  33.383   5.874   3.746
35758W        W99482  21.652  34.954   1.839
35759W        W99483   6.712   7.676  13.871
35760W        W99484  10.837   5.709   2.324
35761W        W99485  33.888  38.324   0.383
35762W        W99486  13.699  38.531   4.239
35763W        W99487   7.393  25.215   0.265
35764W        W99488  40.439  34.553  13.846
35765W        W99489  36.865  38.888  11.934
35766W        W99490  28.483  42.839   0.768
35767W        W99491  19.201  11.131  12.556
35768W        W99492   6.679   9.305   3.680
35769W        W99493  37.870  12.814  10.472
35770W        W99494  20.087   2.787   1.917
35771W        W99495   3.931  12.299   2.709
35772W        W99496  32.441  25.011  13.310
35773W        W99497   1.756  35.099   1.218
35774W        W99498  15.802  38.984   3.377
35775W        W99499  21.560  22.591   2.333
35776W        W99500  26.150  27.947  13.838
35777W        W99501  18.736  40.544   4.830
35778W        W99502  27.142   5.269  13.855
35779W        W99503  38.501  18.131  10.970
35780W        W99504   2.389   8.222  13.855
35781W        W99505   5.213   3.802  11.037
35782W        W99506   3.716  37.077   4.247
35783W        W99507  19.604  14.112  14.988
35784W        W99508  37.552   5.804   9.957
35785W        W99509   2.823  18.737  13.803
35786W        W99510  11.844   5.255   1.935
35787W        W99511   6.320  34.080   2.864
35788W        W99512  16.101  19.694  11.963
35789W        W99513  29.427  23.009   2.777
35790W        W99514   7.684  23.669   9.990
35791W        W99515   2.251  34.449  12.881
35792W        W99516  20.665  19.701  12.828
35793W        W99517  12.657  13.272   0.424
35794W        W99518  22.069  32.966   0.851
35795W        W99519   8.370  39.471  11.104
35796W        W99520   0.280  12.285  14.783
35797W        W99521   8.300  35.855   0.808
35798W        W99522   2.866  12.225  10.570
35799W        W99523  20.079   1.347   0.768
35800W        W99524  21.615  28.166  12.943
35801W        W99525   4.404   8.736  12.065
35802W        W99526   6.870  29.175   3.644
35803W        W99527  36.906  42.921   3.352
35804W        W99528   3.412  16.298  14.019
35805W        W99529   0.852  33.976  10.988
35806W        W99530  19.658  40.501   4.155
35807W        W99531  33.088  14.669  14.818
35808W        W99532   5.358  38.045   1.732
35809W        W99533   4.744  32.931   1.756
35810W        W99534  19.100  24.025   1.742
35811W        W99535  18.191  43.458  13.963
35812W        W99536  20.068   1.866  12.353
35813W        W99537  43.271  37.861  12.092
35814W        W99538  38.392  44.468   0.880
35815W        W99539  43.970  24.526  13.429
35816W        W99540  13.107   8.870  14.488
35817W        W99541  34.071  28.041   0.247
35818W        W99542   6.307  10.369   1.220
35819W        W99543  29.938   3.824  14.927
35820W        W99544   4.847  26.611   5.157
35821W        W99545  41.433  35.589   0.908
35822W        W99546  20.197  17.082  11.898
35823W        W99547   3.762  21.642   0.818
35824W        W99548  33.455  14.711   0.909
35825W        W99549  17.160  39.387   3.849
35826W        W99550   8.262   4.881  13.007
35827W        W99551  30.536  23.613   4.120
35828W        W99552   0.986   4.236   2.392
35829W        W99553  31.982  15.677   3.376
35830W        W99554  28.165   4.229   1.310
35831W        W99555  24.098  23.034  11.495
35832W        W99556  32.896   7.828  10.555
35833W        W99557  15.765  10.340  13.417
35834W        W99558  34.053  11.804  11.923
35835W        W99559  36.547   2.857  10.430
35836W        W99560  13.109   7.796  11.091
35837W        W99561  23.680   3.338  11.447
35838W        W99562  15.124   7.249  10.613
35839W        W99563  23.224   7.723  14.359
35840W        W99564  19.706   8.189  12.505
35841W        W99565  13.285  23.986  13.010
35842W        W99566  27.579  22.029  12.531
35843W        W99567  13.690  15.215  11.125
35844W        W99568  44.816  12.331  14.914
35845W        W99569  33.462  38.922   5.110
35846W        W99570   5.908   7.700  11.050
35847W        W99571  24.545  26.498   1.737
35848W        W99572  33.086  10.177  11.984
35849W        W99573  11.300  41.371   1.429
35850W        W99574   6.804   7.311   4.808
35851W        W99575  32.112   2.442  14.816
35852W        W99576  40.018  11.372  14.382
35853W        W99577   3.449  32.078  13.059
35854W        W99578  32.070  13.845  14.790
35855W        W99579  44.860  12.630  13.339
35856W        W99580  10.782  29.982   0.258
35857W        W99581  37.443  12.144  13.052
35858W        W99582  24.976  25.156  13.959
35859W        W99583   2.856  24.491   0.815
35860W        W99584  34.023  33.411   2.835
35861W        W99585  19.136  18.736   3.647
35862W        W99586  23.692   0.936  12.899
35863W        W99587   3.835  17.760  11.048
35864W        W99588  30.978  18.271   3.678
35865W        W99589  41.522   9.246   5.125
35866W        W99590  16.225  18.560   4.627
35867W        W99591  37.954  34.864  12.524
35868W        W99592   5.358  10.669   5.267
35869W        W99593   9.357  11.656   1.328
35870W        W99594  42.844  13.298   3.227
35871W        W99595  25.182  14.207  12.896
35872W        W99596   8.722  40.947  11.099
35873W        W99597   3.447  21.059  12.558
35874W        W99598  11.197  35.476  11.859
35875W        W99599   5.924  41.913  11.881
35876W        W99600  41.980  39.432   4.161
35877W        W99601   3.724  32.955  14.846
35878W        W99602  40.515  20.643   3.320
35879W        W99603  17.785  11.670  10.910
35880W        W99604  37.927   6.799   1.730
35881W        W99605  22.503  37.015   4.195
35882W        W99606   3.826  30.978   0.794
35883W        W99607  25.516  44.338  11.406
35884W        W99608  24.228  21.034  12.518
35885W        W99609   9.854  28.008  14.968
35886W        W99610  20.238  12.838   0.943
35887W        W99611  29.950  21.121  10.090
35888W        W99612  18.590   5.709   1.228
35889W        W99613  39.894  40.999  11.581
35890W        W99614  34.964   9.875   4.636
35891W        W99615  21.237   8.306  12.484
35892W        W99616  18.563  13.266  11.018
35893W        W99617  15.263  37.514  13.487
35894W        W99618  33.607  42.508   3.263
35895W        W99619  24.096  26.139  14.435
35896W        W99620  20.051  25.551  12.418
35897W        W99621  19.073  12.847  10.057
35898W        W99622  25.020   0.909  14.383
35899W        W99623  31.904  14.812   1.278
35900W        W99624  38.027  23.535   2.708
35901W        W99625  34.422  42.322  10.407
35902W        W99626   7.383   7.857   0.766
35903W        W99627  22.041  32.630   4.626
35904W        W99628  22.155  17.254  12.941
35905W        W99629  11.327  14.105   0.278
35906W        W99630  27.573  18.733  11.405
35907W        W99631  37.856  29.089  13.827
35908W        W99632  26.105  17.666  14.940
35909W        W99633  18.179   5.245  14.309
35910W        W99634  31.920   9.346   2.864
35911W        W99635  10.209  24.570  11.046
35912W        W99636  16.612  13.272   0.257
35913W        W99637  29.627  11.195   3.805
35914W        W99638  42.422   0.363  13.347
35915W        W99639  42.318  15.769  14.015
35916W        W99640  19.150  15.814  10.991
35917W        W99641  37.025  33.986   4.191
35918W        W99642   4.828   9.278  13.930
35919W        W99643  28.081  13.600  12.953
35920W        W99644  11.167   4.310  12.992
35921W        W99645  38.554   0.279   1.750
35922W        W99646  38.940   8.674  14.386
35923W        W99647  34.037  36.451   3.354
35924W        W99648  12.832  41.522  13.841
35925W        W99649  29.601  31.465  11.054
35926W        W99650  21.712   1.858   3.279
35927W        W99651  41.828  25.028   3.189
35928W        W99652  22.745   8.386   4.675
35929W        W99653  33.579  36.536  12.417
35930W        W99654  10.219  36.567  14.826
35931W        W99655   5.331  26.492   0.253
35932W        W99656  37.877  26.159   1.348
35933W        W99657  20.707  20.077   4.813
35934W        W99658  25.107  41.442  11.518
35935W        W99659   1.931  44.367  14.439
35936W        W99660  34.010  14.774  11.491
35937W        W99661  17.729  40.997   3.337
35938W        W99662  18.670  27.490   4.149
35939W        W99663  22.548   3.921  13.063
35940W        W99664   7.703   6.246  13.419
35941W        W99665  32.019  24.627   4.138
35942W        W99666  39.970  19.123  14.920
35943W        W99667  36.989  18.659   1.448
35944W        W99668  30.929  30.428   2.212
35945W        W99669  40.825  21.022  14.785
35946W        W99670  16.152  27.517  12.982
35947W        W99671   2.909   8.277  12.071
35948W        W99672  15.693   0.748  11.952
35949W        W99673  29.604  28.437  13.451
35950W        W99674  19.181  17.690   1.393
35951W        W99675  11.794   1.755  14.433
35952W        W99676  13.798  33.071  11.905
35953W        W99677  19.539   8.254  13.025
35954W        W99678  33.466  15.275  14.382
35955W        W99679  33.088  40.044  14.016
35956W        W99680  31.545  25.057   0.943
35957W        W99681  37.961  21.578   0.274
35958W        W99682  22.624  35.373   4.120
35959W        W99683  24.174  23.240  11.948
35960W        W99684   1.787  34.884  12.366
35961W        W99685  30.013  18.583  10.562
35962W        W99686  13.263  11.653   1.386
35963W        W99687  30.542  33.517   0.388
35964W        W99688  24.073   0.294   2.811
35965W        W99689  36.415  19.748  13.542
35966W        W99690  42.421   0.283   2.311
35967W        W99691  11.758  43.416  10.428
35968W        W99692   1.345  32.413  14.278
35969W        W99693  20.598  42.362  10.928
35970W        W99694  28.033  38.453  13.406
35971W        W99695  38.348  28.014  12.447
35972W        W99696  43.364  32.570  13.458
35973W        W99697  20.207  14.817   4.115
35974W        W99698   2.455   2.889  11.547
35975W        W99699  40.331  21.546   4.274
35976W        W99700   9.261   3.359   0.767
35977W        W99701  35.961  15.768  14.294
35978W        W99702  12.622   8.369  10.628
35979W        W99703  23.576  39.429  12.852
35980W        W99704  44.435   0.388  11.494
35981W        W99705  41.999  25.143   5.305
35982W        W99706  30.583  13.130   2.882
35983W        W99707  29.092  35.594   3.295
35984W        W99708  29.091   0.425   4.742
35985W        W99709   9.216   4.936   3.655
35986W        W99710   8.657  34.568  12.546
35987W        W99711  39.515  26.153   3.687
35988W        W99712  28.079  17.205   0.350
35989W        W99713  34.028  25.554   4.244
35990W        W99714  38.430  20.193  11.096
35991W        W99715  36.470  40.971   0.875
35992W        W99716  33.119  44.295   3.270
35993W        W99717  20.703  31.039   2.200
35994W        W99718   0.793   4.910   5.304
35995W        W99719  13.255  10.637   1.767
35996W        W99720  44.782  11.655   0.755
35997W        W99721  44.815  37.863   3.743
35998W        W99722   8.821   2.304   0.898
35999W        W99723  20.140  17.688  10.992
36000W        W99724  43.814   1.904   1.730
36001W        W99725  40.481  21.085  11.082
36002W        W99726  44.949  30.924   2.688
36003W        W99727  14.762   0.437  10.989
36004W        W99728  18.667  23.530  14.488
36005W        W99729  41.857   0.901   2.322
36006W        W99730  10.872  22.252   3.716
36007W        W99731  26.951  16.698   4.692
36008W        W99732  37.952  14.807  12.895
36009W        W99733  25.501  18.773  13.460
36010W        W99734  31.902  15.730  14.994
36011W        W99735  17.173   8.661  10.005
36012W        W99736  42.893   3.458  10.927
36013W        W99737   4.447  16.774  12.509
36014W        W99738   4.940   9.287   4.318
36015W        W99739  18.203  32.137   2.348
36016W        W99740  34.073  36.067  11.930
36017W        W99741  24.574  39.817   2.840
36018W        W99742   5.917   0.300   1.244
36019W        W99743  32.461  33.551   2.668
36020W        W99744   5.251  21.696  14.390
36021W        W99745  12.629  38.963  11.562
36022W        W99746   0.912   0.421   2.245
36023W        W99747  32.921  32.961   2.382
36024W        W99748  43.916  21.515  11.487
36025W        W99749  22.617  18.066   0.332
36026W        W99750  11.738  28.178  10.023
36027W        W99751  29.148  33.621   3.789
36028W        W99752  11.736  41.827   0.269
36029W        W99753  34.528   6.231   0.781
36030W        W99754  30.421  30.462   2.718
36031W        W99755  35.603  21.167   1.357
36032W        W99756  41.460  32.564   3.857
36033W        W99757  25.137  33.026   1.429
36034W        W99758   1.298  23.677   3.384
36035W        W99759  19.769  11.780  11.519
36036W        W99760  42.832  20.624  13.791
36037W        W99761  13.630  19.618   4.740
36038W        W99762   0.900  31.596   4.613
36039W        W99763  17.677  37.082  11.016
36040W        W99764  34.070  20.041   0.435
36041W        W99765  16.185   2.311  13.820
36042W        W99766  20.641  11.164   4.139
36043W        W99767   7.861  20.075   1.443
36044W        W99768  24.125  44.827   4.296
36045W        W99769  16.746   7.344  14.326
36046W        W99770  29.947   4.422   2.181
36047W        W99771  24.129  31.957  10.114
36048W        W99772  23.710  33.548  14.775
36049W        W99773   6.230   1.779   0.432
36050W        W99774  19.628  24.479  14.000
36051W        W99775  21.086  24.165   0.444
36052W        W99776  23.546   6.805   0.742
36053W        W99777  34.414  31.010   3.765
36054W        W99778   4.815  16.692   1.762
36055W        W99779   6.904   0.452  13.475
36056W        W99780   4.275   7.819   0.356
36057W        W99781  29.001   8.820   2.833
36058W        W99782  34.114  11.253   2.784
36059W        W99783  31.474   4.275  14.837
36060W        W99784  18.268  42.488   4.745
36061W        W99785   8.352  11.685   3.274
36062W        W99786  25.177   9.708   3.786
36063W        W99787  40.837  11.276  10.537
36064W        W99788   6.916  35.095   1.742
36065W        W99789  24.561  30.152  11.384
36066W        W99790  25.978  28.464  10.537
36067W        W99791  11.169  30.122  14.800
36068W        W99792   0.760  25.509   3.251
36069W        W99793  25.629   4.715   0.284
36070W        W99794  28.587  23.177  13.936
36071W        W99795  41.016  19.225  10.643
36072W        W99796  19.544  23.988   3.636
36073W        W99797  37.437  32.133   2.853
36074W        W99798  31.465  28.133  10.418
36075W        W99799  34.606  29.154   0.822
36076W        W99800  44.998  34.436   4.239
36077W        W99801  15.599  20.525  11.975
36078W        W99802  38.033  44.842  10.011
36079W        W99803  18.136   9.175  11.417
36080W        W99804  16.264   9.709   4.323
36081W        W99805  40.469  32.546   1.838
36082W        W99806   3.376  26.045   0.878
36083W        W99807  25.982  20.651  14.430
36084W        W99808  24.700   5.210  13.811
36085W        W99809  17.746  18.239  11.412
36086W        W99810  10.242  10.348  11.384
36087W        W99811  43.386   6.747   2.808
36088W        W99812  40.876  20.266  14.401
36089W        W99813  36.385  42.837  10.549
36090W        W99814  29.109  31.560   3.268
36091W        W99815   0.825  32.464  14.391
36092W        W99816  27.622  12.651   0.332
36093W        W99817  30.461  17.064  13.917
36094W        W99818  16.131   6.394   4.237
36095W        W99819  33.072   1.917   4.800
36096W        W99820   0.921  19.733   0.949
36097W        W99821  21.561  41.915  13.347
36098W        W99822  18.143   6.239   3.667
36099W        W99823  28.500  44.498  13.855
36100W        W99824   9.660  21.235  14.024
36101W        W99825  15.788  32.885  11.984
36102W        W99826  19.701  26.615   5.104
36103W        W99827  20.142  35.022   4.169
36104W        W99828  20.068  42.854  10.018
36105W        W99829  14.812  32.497  12.923
36106W        W99830  19.047  40.967  14.921
36107W        W99831  24.505  35.897   3.633
36108W        W99832  19.729  40.312   2.771
36109W        W99833  22.624  25.197   1.294
36110W        W99834   6.269  18.076  10.576
36111W        W99835  37.844  21.571   1.264
36112W        W99836   3.368  19.757   4.795
36113W        W99837   6.313  34.044  13.967
36114W        W99838  31.479  13.799  10.007
36115W        W99839  38.417   0.323  13.510
36116W        W99840  19.564   4.406  10.434
36117W        W99841  41.812  25.609   3.693
36118W        W99842   9.793   2.767   2.821
36119W        W99843  34.564   4.721  10.503
36120W        W99844  35.935   7.200  12.888
36121W        W99845  20.665  11.305   2.855
36122W        W99846  22.504  42.934  14.413
36123W        W99847  19.762  41.019   1.856
36124W        W99848  32.040  42.003   1.366
36125W        W99849  41.504  23.562   9.965
36126W        W99850  16.604   3.230  12.527
36127W        W99851  38.498   5.878  12.574
36128W        W99852  26.003  44.947  12.059
36129W        W99853  42.377  34.491  12.434
36130W        W99854   2.432  31.083  14.911
36131W        W99855  35.390  26.148  10.542
36132W        W99856  30.420  13.680  11.375
36133W        W99857  35.869  17.633  11.556
36134W        W99858  37.974  18.197   0.796
36135W        W99859   7.711  11.729   4.340
36136W        W99860   6.731   0.305  11.593
36137W        W99861  42.882  42.380   3.223
36138W        W99862  19.563   9.311   0.877
36139W        W99863   3.755  26.068  13.944
36140W        W99864  15.587  36.581  10.899
36141W        W99865  10.243   7.373  12.891
36142W        W99866  21.603   8.722   1.722
36143W        W99867   0.816  25.643  11.904
36144W        W99868  14.635  22.631  14.775
36145W        W99869  39.347   9.388  14.031
36146W        W99870  17.639  18.135  14.511
36147W        W99871  27.985  26.010   3.346
36148W        W99872  27.147  22.190   1.273
36149W        W99873   3.894  35.495   2.343
36150W        W99874  21.651   4.896   2.326
36151W        W99875  12.192  38.937  14.452
36152W        W99876  35.560  19.538  14.011
36153W        W99877   3.796  39.993   4.634
36154W        W99878  13.229   8.822  10.009
36155W        W99879  36.387  34.579   4.654
36156W        W99880   8.770  10.197   1.226
36157W        W99881   6.833  21.200  11.937
36158W        W99882  27.041  36.577  13.943
36159W        W99883  24.025  35.402   4.792
36160W        W99884   9.758   7.260  14.488
36161W        W99885  33.555  25.657  14.285
36162W        W99886  24.063  17.568  14.374
36163W        W99887  42.855  26.084   4.663
36164W        W99888  14.617  28.116   0.267
36165W        W99889  26.059  44.464   0.425
36166W        W99890  17.626   3.285   2.889
36167W        W99891  44.935  39.908  11.463
36168W        W99892  35.074   7.294   1.822
36169W        W99893  16.612  30.032   4.223
36170W        W99894  29.033   1.402   4.272
36171W        W99895  36.511  14.608   2.223
36172W        W99896  16.259   7.222  14.785
36173W        W99897   9.255  10.189  13.308
36174W        W99898  21.109  37.881  12.927
36175W        W99899  40.450   1.466  10.455
36176W        W99900  43.340  40.309   0.310
36177W        W99901  39.367  41.803   2.826
36178W        W99902  21.732   7.417  10.435
36179W        W99903  41.016  34.954  13.015
36180W        W99904   2.934  10.845   3.817
36181W        W99905  20.539  36.591  10.432
36182W        W99906  42.479  36.416  11.954
36183W        W99907  32.116  39.515   0.945
36184W        W99908  39.057  17.729  12.915
36185W        W99909  10.331   1.279   3.728
36186W        W99910  22.569   9.697   4.290
36187W        W99911  17.756  38.030  14.474
36188W        W99912  28.153  41.442  11.978
36189W        W99913   7.333  36.010  13.862
36190W        W99914  37.398  15.607   5.081
36191W        W99915  40.854  29.465  11.926
36192W        W99916  40.010   2.776  12.424
36193W        W99917  29.459  16.710   4.117
36194W        W99918   0.329   5.846   1.787
36195W        W99919  11.696  15.314  11.924
36196W        W99920   1.457  18.775  13.383
36197W        W99921  21.733  28.015   3.303
36198W        W99922  33.878  40.471   2.835
36199W        W99923  35.540  41.323   3.208
36200W        W99924  37.835  23.560  12.500
36201W        W99925   6.223  18.285  11.074
36202W        W99926  27.671  30.614   1.243
36203W        W99927  36.042  27.967   0.391
36204W        W99928  10.141  24.586  12.836
36205W        W99929   9.213  25.570  12.357
36206W        W99930  16.791  38.456   0.272
36207W        W99931  39.993  13.831   1.810
36208W        W99932  31.006  11.209   0.787
36209W        W99933   7.718  12.855  13.027
36210W        W99934  24.579  32.409  10.521
36211W        W99935  44.937  12.810   4.217
36212W        W99936   2.393  29.922   1.308
36213W        W99937  13.775  38.851  11.479
36214W        W99938  22.592  38.992  14.360
36215W        W99939  34.401  43.305  14.003
36216W        W99940  15.772  31.943  11.034
36217W        W99941  19.723  12.635  10.602
36218W        W99942  11.749  19.114   1.335
36219W        W99943  30.161  17.282   0.436
36220W        W99944  10.332  37.463   0.267
36221W        W99945   7.710  43.824  13.041
36222W        W99946  32.039  32.075  12.965
36223W        W99947   9.246  38.415   3.352
36224W        W99948  14.219  24.183  14.317
36225W        W99949  12.293  21.723   2.260
36226W        W99950   5.434  12.784  12.370
36227W        W99951  30.003  40.307  11.407
36228W        W99952   2.886  19.664  13.518
36229W        W99953  14.203   6.377   2.865
36230W        W99954  28.978   4.347  14.433
36231W        W99955  12.169   7.747  14.791
36232W        W99956  16.741  39.316  11.069
36233W        W99957  22.644  31.913  11.918
36234W        W99958  19.183  24.108  13.415
36235W        W99959  20.253  24.649  12.879
36236W        W99960  42.942  38.545  14.471
36237W        W99961  36.909  24.515  12.514
36238W        W99962  33.616  13.105   5.569
36239W        W99963  13.303  18.550  13.344
36240W        W99964  18.133  33.041  12.870
36241W        W99965  20.765  36.001   2.846
36242W        W99966  27.590   0.865  12.388
36243W        W99967  39.034  39.349   2.359
36244W        W99968  23.179  26.963  14.312
36245W        W99969   4.770   8.793  12.860
36246W        W99970   1.306  14.599  12.829
36247W        W99971  16.778  28.183   4.784
36248W        W99972  17.302  31.929  11.071
36249W        W99973  27.576  36.869  10.888
36250W        W99974   3.749  44.372  14.776
36251W        W99975  32.083  33.910   2.756
36252W        W99976  21.244  29.963   5.172
36253W        W99977  41.508   8.371   0.919
36254W        W99978  27.606   2.910   2.896
36255W        W99979  33.592   9.866   5.156
36256W        W99980  17.228  31.071  10.611
36257W        W99981  17.556   9.798   1.442
36258W        W99982  18.275  20.692   0.476
36259W        W99983  21.019  15.798  14.800
36260W        W99984  43.277   5.915  14.380
36261W        W99985  38.460  10.168  12.368
36262W        W99986  40.402  43.868   1.343
36263W        W99987  23.024   5.247  12.436
36264W        W99988  29.108   7.226  12.039
36265W        W99989  26.003  37.370  12.020
36266W        W99990  33.121   8.845  11.539
36267W        W99991  42.418  27.651   1.402
36268W        W99992  22.126  19.704   2.370
36269W        W99993  41.385  17.147   2.694
36270W        W99994  13.229  13.840  13.456
36271W        W99995  26.498  13.316  10.456
36272W        W99996  20.112  19.666   3.355
36273W        W99997  11.316   4.732   2.276
36274W        W99998  44.944  18.708   2.288
36275W        W99999   5.919  11.810   3.714
36276W        W    0  27.511  18.616  14.498
36277W        W    1  40.923   6.290   3.648
36278W        W    2  33.591   4.940  13.036
36279W        W    3  16.581  37.348  10.131
36280W        W    4  35.875  39.047  10.518
36281W        W    5   1.408   8.225  11.116
36282W        W    6   4.798  37.039  12.549
36283W        W    7   4.728   3.266   2.215
36284W        W    8  43.468  13.663  11.924
36285W        W    9  23.690  28.547   1.879
36286W        W   10  24.179  22.187   2.251
36287W        W   11   4.928   9.324   1.386
36288W        W   12  36.085  17.711   1.438
36289W        W   13   6.788   4.782  11.061
36290W        W   14   7.249  11.247   3.694
36291W        W   15  12.137  25.702  14.030
36292W        W   16  36.383  33.504   0.261
36293W        W   17  30.643  14.175  12.883
36294W        W   18  24.045  34.947   0.259
36295W        W   19  23.232   0.771   3.789
36296W        W   20  36.897  18.625  11.603
36297W        W   21  11.746  38.927  12.524
36298W        W   22  39.451  37.498  12.851
36299W        W   23  30.563  28.088   3.299
36300W        W   24  18.058  10.352  10.550
36301W        W   25   1.399  26.029  10.981
36302W        W   26   5.290  39.867   3.838
36303W        W   27   2.966  15.156  11.373
36304W        W   28   7.326   1.257   1.296
36305W        W   29   0.339  20.226  12.064
36306W        W   30  26.005  12.654  11.127
36307W        W   31  40.497   5.902  11.910
36308W        W   32  18.132  15.199   0.457
36309W        W   33  12.669  30.572  11.919
36310W        W   34  22.680   6.191  12.829
36311W        W   35  41.869  33.383   9.648
36312W        W   36  17.572  35.889   1.371
36313W        W   37   1.965   1.833   1.893
36314W        W   38  39.824  39.315  13.315
36315W        W   39  26.068  29.645  14.390
36316W        W   40  41.470  34.916  14.883
36317W        W   41  39.019   0.478   4.724
36318W        W   42  16.076  23.179  10.640
36319W        W   43  42.901   5.234   3.714
36320W        W   44  13.111  13.841   4.826
36321W        W   45  11.348  10.862   0.331
36322W        W   46  22.563   4.766  14.374
36323W        W   47  19.692  35.854  10.508
36324W        W   48   4.227   2.788   3.785
36325W        W   49  27.033  41.293  11.866
36326W        W   50   0.411   4.247   4.817
36327W        W   51  33.626  19.121  12.400
36328W        W   52  43.008  44.774  11.026
36329W        W   53  41.826  29.581  11.890
36330W        W   54   5.859  39.988   1.900
36331W        W   55  19.184  39.952   5.801
36332W        W   56  44.835  15.226  13.808
36333W        W   57  40.341  20.164  14.773
36334W        W   58  23.021  31.117   0.761
36335W        W   59  32.549  13.320   3.811
36336W        W   60   8.262  15.233   4.157
36337W        W   61  32.946  25.558  12.022
36338W        W   62   1.358  39.011   4.205
36339W        W   63  26.108  38.887  12.965
36340W        W   64  26.174  31.574   0.875
36341W        W   65  37.516  30.003  10.581
36342W        W   66  10.342  29.556  10.934
36343W        W   67  18.656  36.405  14.948
36344W        W   68   6.915   5.361   4.817
36345W        W   69  39.007  16.190   1.889
36346W        W   70  43.388  20.119   2.817
36347W        W   71   2.328  37.404   0.858
36348W        W   72   5.855  27.160  13.904
36349W        W   73  44.307  43.879   4.696
36350W        W   74  23.197  15.615  11.922
36351W        W   75  14.621  13.836  13.020
36352W        W   76  11.133  15.217   2.371
36353W        W   77  25.635   3.395   0.938
36354W        W   78  41.938  12.828   4.833
36355W        W   79   5.729   3.317  11.892
36356W        W   80  33.449  31.637  12.087
36357W        W   81  17.710  28.957   4.353
36358W        W   82   6.184  10.687   2.194
36359W        W   83  18.060  22.011  10.473
36360W        W   84  24.698  24.702  14.021
36361W        W   85  36.087   9.308  10.927
36362W        W   86  18.116  17.625   2.371
36363W        W   87  39.042  22.726  11.547
36364W        W   88  15.129  18.687  12.446
36365W        W   89  43.318  11.240  10.133
36366W        W   90  22.673   4.337  11.563
36367W        W   91  36.089  14.714   4.281
36368W        W   92   1.269  24.084   2.798
36369W        W   93  40.996  24.021   4.252
36370W        W   94   4.450  40.341  13.946
36371W        W   95  42.777  39.398  14.935
36372W        W   96  11.360  37.524  14.847
36373W        W   97  43.485  40.013  13.504
36374W        W   98  16.588  38.935  11.901
36375W        W   99  37.348   9.855  13.474
36376W        W  100   8.811  33.972   3.330
36377W        W  101  33.083  31.915  11.089
36378W        W  102   9.676  37.443   4.754
36379W        W  103  40.912  23.566  13.063
36380W        W  104  32.986  28.014   4.653
36381W        W  105  15.775  23.199   3.740
36382W        W  106  10.196  17.077   1.922
36383W        W  107  14.595  36.588   2.376
36384W        W  108  21.550  17.272   0.918
36385W        W  109  43.437  18.281   2.178
36386W        W  110  16.588   2.279  11.084
36387W        W  111  14.215  42.517   2.411
36388W        W  112  35.012  26.138  14.904
36389W        W  113  29.123  22.127  14.339
36390W        W  114  36.516  15.179  12.438
36391W        W  115  25.098  34.932  14.478
36392W        W  116  10.239  41.954   4.598
36393W        W  117  24.005  11.313  12.076
36394W        W  118  28.674  21.726   1.912
36395W        W  119  40.960  36.956   4.278
36396W        W  120  18.619  32.966  11.466
36397W        W  121  24.658   5.878   0.249
36398W        W  122  28.477  33.600  14.341
36399W        W  123  10.633  33.061   3.151
36400W        W  124  26.996  29.056  14.970
36401W        W  125   9.299  17.694  11.441
36402W        W  126   8.331  23.572  11.569
36403W        W  127  43.921   2.332   3.838
36404W        W  128  41.903  26.530   0.325
36405W        W  129  32.558  11.371  14.418
36406W        W  130  23.064  37.943   2.777
36407W        W  131  42.008  23.652  11.118
36408W        W  132  40.531  34.907  13.478
36409W        W  133  25.481  21.643   1.758
36410W        W  134  10.702   8.212   4.265
36411W        W  135  36.365  11.219   4.304
36412W        W  136  44.450   8.323  10.415
36413W        W  137   1.273  20.648   3.683
36414W        W  138   8.291  31.448  14.985
36415W        W  139  32.980   7.215   1.242
36416W        W  140   6.404   7.910  13.930
36417W        W  141  24.645  27.093  14.510
36418W        W  142  22.208  42.328   3.237
36419W        W  143  16.166   1.387   1.216
36420W        W  144  34.575  17.604  14.331
36421W        W  145   4.745  17.566   0.940
36422W        W  146  10.677  31.480   3.788
36423W        W  147  34.901  27.507  13.340
36424W        W  148  22.707  24.230   4.211
36425W        W  149  17.195  11.623   4.143
36426W        W  150  34.899  35.482  13.002
36427W        W  151  14.736  14.720   4.690
36428W        W  152  26.109  20.526   4.337
36429W        W  153   6.373  40.461   1.788
36430W        W  154  30.057  24.063  12.947
36431W        W  155  37.561  13.746   1.267
36432W        W  156   2.910  44.824  11.946
36433W        W  157  21.065  17.739   2.690
36434W        W  158  43.272  44.976  12.973
36435W        W  159  36.393  44.492   4.824
36436W        W  160  23.070   3.772  12.847
36437W        W  161   2.404  33.434   4.218
36438W        W  162  30.027  32.896  14.914
36439W        W  163  40.412  28.990   0.399
36440W        W  164  11.650   1.889  11.129
36441W        W  165  15.821  32.005  13.998
36442W        W  166  32.959  21.519  12.518
36443W        W  167  32.498  12.278  11.403
36444W        W  168  41.040   7.378  13.356
36445W        W  169  13.806   3.415  11.422
36446W        W  170   8.864   8.311  13.038
36447W        W  171  44.822  36.528   3.148
36448W        W  172   1.923  38.964  13.444
36449W        W  173  29.168  35.507  11.091
36450W        W  174  22.093  24.701  13.357
36451W        W  175  22.061  37.884   3.674
36452W        W  176  34.897  29.993   1.891
36453W        W  177  38.570   8.249  10.414
36454W        W  178  44.769  18.655   2.801
36455W        W  179  11.139  33.055  12.579
36456W        W  180  14.781  33.480  12.483
36457W        W  181  27.568  12.647  11.120
36458W        W  182   3.791   4.873  12.354
36459W        W  183  39.027  37.846   4.640
36460W        W  184   2.283  26.144  11.921
36461W        W  185  27.134  25.011   3.230
36462W        W  186  13.675   0.975   3.700
36463W        W  187  35.432   5.311  10.641
36464W        W  188  37.865  15.761   1.350
36465W        W  189   5.885  34.439  13.420
36466W        W  190  22.142   9.724  14.900
36467W        W  191  41.852  24.196   1.787
36468W        W  192   5.402  32.582  13.936
36469W        W  193  15.176  31.646  12.433
36470W        W  194  22.117  19.616  14.985
36471W        W  195  36.870  36.090  11.565
36472W        W  196  30.498  10.279  12.043
36473W        W  197  42.915  29.666  11.503
36474W        W  198  36.064   8.659   5.266
36475W        W  199  19.563  30.022  14.850
36476W        W  200  22.523  17.138  13.818
36477W        W  201  25.041  17.800   1.920
36478W        W  202  20.207   0.788  14.356
36479W        W  203  33.564  16.784   5.098
36480W        W  204  17.657  35.905  13.448
36481W        W  205  25.643  29.033  10.950
36482W        W  206  19.703   7.732  13.393
36483W        W  207  21.569  14.647   2.897
36484W        W  208  20.208  44.793  14.975
36485W        W  209  28.593  12.734   3.291
36486W        W  210  10.663   6.196   1.374
36487W        W  211  25.984  39.458  11.086
36488W        W  212  19.547  40.391   4.708
36489W        W  213  18.631  30.479  13.342
36490W        W  214   8.381  43.932  10.490
36491W        W  215  42.896  30.083  13.511
36492W        W  216   0.930   3.930   3.320
36493W        W  217  40.823  38.379   3.198
36494W        W  218  37.409   9.340  13.531
36495W        W  219  17.675   7.332  12.413
36496W        W  220  42.494  21.109  11.598
36497W        W  221  38.375  15.765   4.605
36498W        W  222  39.910   3.227   4.212
36499W        W  223  13.648  36.543   3.329
36500W        W  224  27.612  40.907  12.444
36501W        W  225  20.188   6.204   4.272
36502W        W  226  10.803  23.609  12.541
36503W        W  227  12.772  31.553   2.324
36504W        W  228  28.559   7.701  12.060
36505W        W  229   6.709   6.294   0.867
36506W        W  230   6.288  34.452  10.958
36507W        W  231  24.589   7.370   0.380
36508W        W  232  16.153  32.038   2.900
36509W        W  233  13.658   7.360   0.896
36510W        W  234   6.320   6.783   0.423
36511W        W  235   8.715  13.705   1.873
36512W        W  236  41.306   9.361   0.475
36513W        W  237  28.653  16.699  10.552
36514W        W  238  23.736  38.842   1.225
36515W        W  239  31.143  12.655   9.990
36516W        W  240  36.039   3.277  13.998
36517W        W  241  23.511  32.013  14.018
36518W        W  242  12.356  23.161   3.685
36519W        W  243   0.256  34.965   1.279
36520W        W  244  39.332  14.747  12.935
36521W        W  245   5.893  19.697  10.587
36522W        W  246  16.308  22.062  13.013
36523W        W  247  33.386  44.993  12.876
36524W        W  248  32.391   0.909  14.984
36525W        W  249  28.552  25.074  13.458
36526W        W  250  21.047  28.027  10.525
36527W        W  251  41.942  25.499  12.518
36528W        W  252  28.623   6.870  11.050
36529W        W  253   4.383  18.261  14.870
36530W        W  254   9.300   0.794  13.810
36531W        W  255  15.819   6.826  14.338
36532W        W  256  19.081  33.069  10.429
36533W        W  257  37.864  23.637   1.824
36534W        W  258   5.793   0.446  14.775
36535W        W  259  42.466  29.577   4.311
36536W        W  260   3.748  39.001   4.198
36537W        W  261   3.223  14.721  11.108
36538W        W  262   3.449  37.893  12.943
36539W        W  263  21.560  21.653   1.404
36540W        W  264  18.232  44.963  10.519
36541W        W  265  19.711  26.129   4.151
36542W        W  266  38.461  25.095   3.335
36543W        W  267  14.665  25.151   3.750
36544W        W  268  33.576  12.823   2.861
36545W        W  269   0.867  38.410  10.617
36546W        W  270  42.899  44.842  11.517
36547W        W  271  40.004   0.422   1.873
36548W        W  272   2.807   2.890   0.458
36549W        W  273  14.150  37.537  11.965
36550W        W  274  16.107  10.260   0.446
36551W        W  275  28.066  32.560   4.185
36552W        W  276  36.033  13.698  13.862
36553W        W  277  29.602   2.294   0.296
36554W        W  278  17.648  12.745  14.285
36555W        W  279  34.046  38.000   3.696
36556W        W  280   7.747  33.439   0.788
36557W        W  281  16.657   1.374   4.798
36558W        W  282  43.990  13.204  13.462
36559W        W  283  32.000  44.305   0.931
36560W        W  284   5.426  36.390  11.523
36561W        W  285  34.087  21.037  13.362
36562W        W  286  32.595  10.828  10.436
36563W        W  287  39.914   7.866   2.716
36564W        W  288  29.039  21.688   2.204
36565W        W  289  18.290   2.289   4.234
36566W        W  290  18.184  37.419   0.871
36567W        W  291  14.253  33.014  11.601
36568W        W  292  32.625   5.231  13.382
36569W        W  293  23.059   7.368  12.390
36570W        W  294   3.299  42.444   2.253
36571W        W  295  38.394  44.009   4.164
36572W        W  296  17.656   8.725   3.830
36573W        W  297   6.736  20.078  12.465
36574W        W  298  44.467  18.225  11.067
36575W        W  299  16.109   5.784  10.153
36576W        W  300  12.818  30.479  13.496
36577W        W  301  34.983  28.131  13.924
36578W        W  302  12.256  28.962   3.700
36579W        W  303   3.806  37.967  10.927
36580W        W  304  11.834  37.830   0.903
36581W        W  305   4.239  42.383  12.022
36582W        W  306  19.086  42.389  12.460
36583W        W  307  27.023  26.973  14.898
36584W        W  308  11.365  31.096  10.999
36585W        W  309  23.533  25.548   4.350
36586W        W  310  18.212   5.215  13.498
36587W        W  311  15.588  21.701   1.828
36588W        W  312  35.546   0.304   1.449
36589W        W  313  41.327  38.477   3.379
36590W        W  314  31.146  38.069  14.484
36591W        W  315  36.054   7.700   1.750
36592W        W  316  29.167  21.189   3.329
36593W        W  317   0.464   0.914  12.035
36594W        W  318  27.150  26.607   3.148
36595W        W  319   2.271  26.482  12.830
36596W        W  320  42.995   3.336   2.193
36597W        W  321  42.970  39.515  13.847
36598W        W  322  43.410  35.546  10.031
36599W        W  323  31.590  16.657  14.823
36600W        W  324   0.359  19.624   2.385
36601W        W  325  17.209   5.200   0.407
36602W        W  326   5.323  11.848   1.694
36603W        W  327   4.786   6.256   2.256
36604W        W  328  37.504  39.054   0.915
36605W        W  329   7.802   3.232  12.511
36606W        W  330  28.535  29.580  11.555
36607W        W  331  21.217   2.857   4.610
36608W        W  332  12.123  19.252   0.325
36609W        W  333  35.405  15.295   4.620
36610W        W  334  38.423   3.876   2.408
36611W        W  335  28.594   1.847  12.869
36612W        W  336  18.101  27.537   0.846
36613W        W  337  24.667  23.546   3.702
36614W        W  338  21.559  28.058  13.920
36615W        W  339  37.968   2.346   2.415
36616W        W  340  42.955  32.489   1.911
36617W        W  341  22.078  38.562  12.913
36618W        W  342  40.347  17.768   3.788
36619W        W  343   4.428  17.231   1.232
36620W        W  344  12.170  10.693  14.359
36621W        W  345  21.560  38.564  11.869
36622W        W  346  31.438   9.273  14.937
36623W        W  347  36.016  17.690   4.750
36624W        W  348  15.652  41.890  13.455
36625W        W  349  13.830  21.685  11.389
36626W        W  350  29.048  29.154   1.776
36627W        W  351  44.938  24.050  11.986
36628W        W  352  41.432  27.023  12.973
36629W        W  353  32.453  33.971   0.826
36630W        W  354  17.070  40.040  14.859
36631W        W  355  40.324   1.820   2.865
36632W        W  356  24.052  18.120  12.841
36633W        W  357  22.618  44.999   0.959
36634W        W  358  24.047  21.528  14.020
36635W        W  359  25.581  32.397   4.688
36636W        W  360  37.905  44.433  12.021
36637W        W  361   0.367   2.325   0.379
36638W        W  362  33.123  20.094  13.039
36639W        W  363  10.665  24.574   4.260
36640W        W  364   3.255   9.715   2.841
36641W        W  365   0.461  30.141   1.451
36642W        W  366  34.503  37.937   4.638
36643W        W  367   5.709  17.753   4.136
36644W        W  368   6.883  23.219   1.927
36645W        W  369  13.741   7.373   2.823
36646W        W  370  27.052   8.266   1.861
36647W        W  371  10.249   8.252   0.937
36648W        W  372  44.397  10.186  12.391
36649W        W  373  26.138  27.625   1.787
36650W        W  374   9.656  17.669  14.829
36651W        W  375   3.225   8.399  11.030
36652W        W  376  23.542  19.540  12.970
36653W        W  377  18.209   8.663   3.729
36654W        W  378   3.777  43.933  13.368
36655W        W  379  22.223   5.711  10.557
36656W        W  380   1.479   9.794  11.879
36657W        W  381  19.283  15.645  13.524
36658W        W  382  10.802   9.208  12.910
36659W        W  383   2.810  35.588  12.443
36660W        W  384  44.484  26.990  14.441
36661W        W  385  26.002  21.756  12.881
36662W        W  386  31.626  35.390  13.834
36663W        W  387  32.972  24.713  11.570
36664W        W  388  25.129  40.535  14.916
36665W        W  389  20.685  43.014   0.899
36666W        W  390  41.528  11.686  11.485
36667W        W  391  15.708  42.973  10.923
36668W        W  392  32.404  41.851  10.516
36669W        W  393  26.575  22.047  13.326
36670W        W  394   2.811  43.389  14.318
36671W        W  395  14.117   9.793  11.088
36672W        W  396  18.203   6.197  11.033
36673W        W  397  18.287  10.678  12.960
36674W        W  398  30.104  36.073  12.463
36675W        W  399  38.050  26.106   2.810
36676W        W  400  16.103  41.969  13.053
36677W        W  401  18.734  39.832   4.312
36678W        W  402   8.844  43.465  10.570
36679W        W  403  12.653   8.335   3.364
36680W        W  404   5.697  37.987   3.744
36681W        W  405  14.708  18.767  14.911
36682W        W  406  11.178  25.977   2.709
36683W        W  407   3.740  16.579  12.074
36684W        W  408  14.704  30.429  13.417
36685W        W  409  32.105   5.930  12.385
36686W        W  410  34.488  13.772   1.924
36687W        W  411  43.888  42.842   0.425
36688W        W  412   0.425  17.585  12.351
36689W        W  413  35.945  39.317  13.403
36690W        W  414  32.467  38.394  14.019
36691W        W  415  32.552   8.282   0.778
36692W        W  416  26.497  18.628  14.877
36693W        W  417   6.898  25.071  14.454
36694W        W  418  14.304  28.161   2.234
36695W        W  419   0.264   9.241  10.606
36696W        W  420  35.959   4.332   4.134
36697W        W  421   9.298  42.527   1.444
36698W        W  422   5.261   5.823  13.346
36699W        W  423  11.717   9.887  12.053
36700W        W  424  22.542   5.325   4.350
36701W        W  425  22.665  28.554  14.422
36702W        W  426  17.624  10.210   4.328
36703W        W  427   6.183  41.853  14.801
36704W        W  428  40.443  38.947  14.808
36705W        W  429  29.623  27.685   2.290
36706W        W  430  14.179  17.205  14.859
36707W        W  431  12.822  28.439  13.534
36708W        W  432   7.676  29.551   4.171
36709W        W  433  30.011   4.387  13.379
36710W        W  434  22.028   8.350  11.010
36711W        W  435  39.016  41.903   2.691
36712W        W  436  30.456  32.457  11.967
36713W        W  437  33.065   5.235   2.193
36714W        W  438   7.257  40.991   3.187
36715W        W  439  33.098  39.869   1.289
36716W        W  440  24.534   0.262  14.947
36717W        W  441   0.322  28.669  13.813
36718W        W  442  29.426  29.525  14.294
36719W        W  443  22.640  25.122  11.925
36720W        W  444  15.214  30.498   2.398
36721W        W  445  15.198  22.741  12.514
36722W        W  446   6.333  10.140   0.759
36723W        W  447  24.174  22.571  12.991
36724W        W  448  20.121  24.677  11.916
36725W        W  449   9.244  28.551   4.345
36726W        W  450  27.644  38.482   3.226
36727W        W  451  12.358  40.881   2.733
36728W        W  452  19.780   9.315  14.376
36729W        W  453  41.787  28.454  14.857
36730W        W  454  12.303  18.168  13.366
36731W        W  455  39.916  16.594   2.267
36732W        W  456  38.852  24.604   2.350
36733W        W  457  23.206  41.520  14.462
36734W        W  458   4.265   0.300   3.706
36735W        W  459  43.301  10.858  14.870
36736W        W  460   4.908   6.920   3.739
36737W        W  461  11.690  31.070  10.629
36738W        W  462  11.156  35.538   2.181
36739W        W  463  32.960   0.868   4.626
36740W        W  464   4.298  22.639  10.952
36741W        W  465   8.252  36.519   1.310
36742W        W  466  31.118  15.628  14.459
36743W        W  467  16.669  43.776  10.945
36744W        W  468  11.304  27.484  14.342
36745W        W  469  11.806  34.437   0.746
36746W        W  470   6.301   1.890   3.365
36747W        W  471  32.915  42.343  11.595
36748W        W  472   8.182  24.223  13.444
36749W        W  473  32.620  23.517  13.379
36750W        W  474  19.739  27.546   3.722
36751W        W  475  15.150  29.033  11.467
36752W        W  476  10.212  30.131   0.947
36753W        W  477  34.598   1.334   3.811
36754W        W  478  34.541  39.403   4.645
36755W        W  479  42.884  26.953   0.960
36756W        W  480  14.688  28.024  11.502
36757W        W  481   4.343  42.284   2.770
36758W        W  482  25.050  43.397   2.233
36759W        W  483  14.134  21.538  14.843
36760W        W  484  18.229   7.300   2.848
36761W        W  485  44.945  19.145   0.726
36762W        W  486   3.252  10.248  11.040
36763W        W  487   0.406  25.534  12.559
36764W        W  488  20.711   6.807   0.466
36765W        W  489  43.768  26.202   1.740
36766W        W  490  24.576  28.064  11.877
36767W        W  491  15.147   7.287  14.846
36768W        W  492   0.262  16.621  10.639
36769W        W  493  22.669  33.923   4.349
36770W        W  494  43.978   6.381   0.262
36771W        W  495  11.348   7.330   3.340
36772W        W  496  26.145  30.142   0.917
36773W        W  497  39.054  15.593   3.779
36774W        W  498  42.319   8.679  13.529
36775W        W  499  20.269  23.559   4.646
36776W        W  500  32.916  39.991   1.735
36777W        W  501  40.518  23.179  14.457
36778W        W  502  14.737  38.436  10.598
36779W        W  503   0.873  25.111  14.506
36780W        W  504  15.744  13.733   4.780
36781W        W  505  29.078  42.443  13.431
36782W        W  506  10.742   4.911  13.332
36783W        W  507  42.022   2.399  11.607
36784W        W  508  25.602  32.477   4.251
36785W        W  509   4.367  15.315  14.857
36786W        W  510  17.267   5.827   1.407
36787W        W  511  13.298  15.764  11.038
36788W        W  512  17.159  26.678   4.150
36789W        W  513  23.592  21.659  14.293
36790W        W  514  19.605  12.187   0.798
36791W        W  515  28.494  10.800  13.966
36792W        W  516  37.435  16.186  11.917
36793W        W  517  44.777  11.681   4.308
36794W        W  518   4.765   4.721   0.407
36795W        W  519  22.735  24.567   4.153
36796W        W  520  19.644  33.582  14.894
36797W        W  521   6.286  25.492  14.399
36798W        W  522  13.162  28.988  11.455
36799W        W  523   6.693  20.124   3.806
36800W        W  524  21.708   9.385   0.441
36801W        W  525   6.253  36.936  10.570
36802W        W  526  43.924  42.881  12.900
36803W        W  527  38.859  37.854  14.020
36804W        W  528  26.551  34.582   2.891
36805W        W  529  14.788  41.894  10.976
36806W        W  530  36.568  15.767  13.491
36807W        W  531  26.080  23.511   2.734
36808W        W  532  21.228  33.901  11.489
36809W        W  533  16.147  40.342   0.437
36810W        W  534  12.809  14.810   1.287
36811W        W  535  23.065  27.650   1.314
36812W        W  536  27.553   5.282  10.478
36813W        W  537  30.981  27.649  12.479
36814W        W  538  43.966  31.600  12.435
36815W        W  539  24.982   4.217  13.029
36816W        W  540  30.163  26.022   1.708
36817W        W  541  24.676  29.149   3.326
36818W        W  542  13.795   3.834  13.491
36819W        W  543  41.044  29.921  11.956
36820W        W  544  16.130  22.115  14.837
36821W        W  545  43.940  33.546   2.700
36822W        W  546  44.860  20.688  12.875
36823W        W  547   9.798  33.952   2.405
36824W        W  548  11.825  26.478  12.895
36825W        W  549  18.186  24.674  14.961
36826W        W  550   5.705  26.668   4.638
36827W        W  551  23.546   0.743   3.635
36828W        W  552  10.769  40.852  11.857
36829W        W  553  40.441  19.056   2.834
36830W        W  554  30.973  40.818   2.828
36831W        W  555  15.780   4.437  12.829
36832W        W  556  34.887   8.825   2.836
36833W        W  557  31.992  16.279  13.494
36834W        W  558  10.704  42.812  11.861
36835W        W  559  14.673   2.350   3.726
36836W        W  560  37.864   2.885   1.778
36837W        W  561  11.760  31.546  13.490
36838W        W  562  12.750  27.104   0.802
36839W        W  563  31.446   3.339   4.690
36840W        W  564  17.800  41.835   2.672
36841W        W  565  20.747  20.668  12.348
36842W        W  566  10.725  10.787  14.825
36843W        W  567   9.812  38.432   0.861
36844W        W  568  14.144  35.506   0.968
36845W        W  569  11.823  25.516  11.965
36846W        W  570  39.918   0.412  10.131
36847W        W  571  24.085  13.252   3.760
36848W        W  572  17.680   6.758   3.223
36849W        W  573  36.556  32.627   0.872
36850W        W  574  39.834  11.131   1.763
36851W        W  575  15.306  36.456   1.396
36852W        W  576  26.570  23.646   4.242
36853W        W  577  30.425  16.073   1.240
36854W        W  578   6.193  24.175   4.216
36855W        W  579   3.444   0.864   3.641
36856W        W  580  40.939  23.030   2.778
36857W        W  581  31.080  29.630  13.543
36858W        W  582  40.426  13.797   0.344
36859W        W  583  24.084  28.442   0.291
36860W        W  584  38.985  30.471  14.895
36861W        W  585  28.599  28.583  12.354
36862W        W  586  43.899  25.213   0.942
36863W        W  587  11.653   2.809  12.471
36864W        W  588  30.928  41.883  12.405
36865W        W  589  36.380   3.795   0.888
36866W        W  590  15.754  31.448   3.639
36867W        W  591  29.615  36.540  10.614
36868W        W  592  17.265  29.612   2.265
36869W        W  593  39.329  42.343  14.966
36870W        W  594  37.885  30.561   0.354
36871W        W  595  38.011  33.497   4.232
36872W        W  596  43.468  35.387  12.460
36873W        W  597   3.279  33.604  13.834
36874W        W  598  31.639  21.575  11.594
36875W        W  599  42.986  35.395   3.789
36876W        W  600  10.660   6.846  10.547
36877W        W  601  17.218  36.976   1.428
36878W        W  602  31.412  18.713  13.472
36879W        W  603  44.274   2.915   1.261
36880W        W  604  42.518   1.828  14.975
36881W        W  605  22.138   5.424  11.494
36882W        W  606   6.788  35.414  14.779
36883W        W  607  21.153  22.187   0.928
36884W        W  608  10.817  37.437   0.795
36885W        W  609  40.854  33.087  12.531
36886W        W  610  15.822   6.384  10.596
36887W        W  611   5.752  27.632  11.448
36888W        W  612   8.890  24.138   4.771
36889W        W  613   1.358  37.356   1.866
36890W        W  614  34.432  28.662   4.181
36891W        W  615  44.756   3.716  12.522
36892W        W  616  39.381   4.849   0.385
36893W        W  617  18.668  13.140   3.280
36894W        W  618  13.633  10.860   3.739
36895W        W  619  26.642   5.857   2.270
36896W        W  620   3.382   0.260   0.330
36897W        W  621  41.432   2.905   0.922
36898W        W  622  41.895  33.032  12.580
36899W        W  623  17.688  20.653  10.999
36900W        W  624  13.285  37.526   2.835
36901W        W  625  13.679  36.988  14.294
36902W        W  626  32.116  19.246  11.109
36903W        W  627   0.445  29.172   3.864
36904W        W  628  23.577  14.631  11.581
36905W        W  629   3.751  14.675  12.849
36906W        W  630  39.410  38.436  14.317
36907W        W  631  22.147  13.797   1.774
36908W        W  632  18.071  24.973   0.890
36909W        W  633   0.456  34.031  14.874
36910W        W  634  30.447  38.908  14.955
36911W        W  635  26.656  17.069   3.802
36912W        W  636  22.635  34.489  14.802
36913W        W  637   9.667  37.374   1.405
36914W        W  638  34.051  30.105   2.724
36915W        W  639   5.360  36.941   0.365
36916W        W  640  20.098  25.105  11.417
36917W        W  641  25.532  12.120   4.714
36918W        W  642  18.786  29.491   3.842
36919W        W  643  16.770   9.213   3.343
36920W        W  644  41.411  41.980  11.490
36921W        W  645  44.817  21.215  14.834
36922W        W  646  23.048  20.040   4.180
36923W        W  647  26.571  37.060   3.315
36924W        W  648  17.306  10.686  14.951
36925W        W  649  22.019  30.547   1.784
36926W        W  650  44.265  22.034   3.822
36927W        W  651  31.491  42.472   1.221
36928W        W  652  25.162   8.223   2.397
36929W        W  653  27.681  24.006   3.840
36930W        W  654  25.617  43.455   0.260
36931W        W  655  30.159  22.152   3.290
36932W        W  656  31.010  12.793  10.993
36933W        W  657  14.298  36.402  13.499
36934W        W  658  17.303  30.978  12.432
36935W        W  659  19.068   3.905   3.848
36936W        W  660  40.857  11.194  12.485
36937W        W  661  30.630  34.523   2.401
36938W        W  662  20.199   5.299  14.760
36939W        W  663  18.290  38.838   1.766
36940W        W  664  19.705   2.325   0.936
36941W        W  665  38.992  17.580  12.453
36942W        W  666  24.571  25.515   3.335
36943W        W  667  28.084   2.425   4.597
36944W        W  668   0.396  26.003  10.485
36945W        W  669  27.612   2.456  13.819
36946W        W  670   7.820  21.692   0.288
36947W        W  671  16.767  38.054   4.290
36948W        W  672  26.206  35.417  10.897
36949W        W  673  35.038  12.663  11.121
36950W        W  674  18.763   2.278   3.634
36951W        W  675  12.333  30.981  11.015
36952W        W  676  35.475  35.566  14.417
36953W        W  677  11.344  38.945   4.199
36954W        W  678  35.465   3.424   2.698
36955W        W  679  12.835  40.495  12.513
36956W        W  680  38.460  36.346  10.589
36957W        W  681   0.918  33.066   0.363
36958W        W  682  11.190  22.503  12.061
36959W        W  683  19.189  25.108  13.827
36960W        W  684   2.775  30.543  12.526
36961W        W  685  39.465  22.636   5.189
36962W        W  686  20.196  24.180   2.366
36963W        W  687  27.671  29.629  11.591
36964W        W  688  37.002  24.687  12.938
36965W        W  689  13.328  27.530   4.209
36966W        W  690  31.468  16.575  14.283
36967W        W  691  19.695  29.661   3.850
36968W        W  692   4.812   8.829  13.915
36969W        W  693  19.061  34.564  12.925
36970W        W  694  38.438  11.318  12.890
36971W        W  695   5.404  24.213  11.597
36972W        W  696   2.455  28.981  11.100
36973W        W  697   3.257  43.426   3.678
36974W        W  698  25.988   1.349   2.271
36975W        W  699  11.342  26.145   3.751
36976W        W  700  40.318  19.158  14.902
36977W        W  701  35.508  24.542   0.963
36978W        W  702  37.522   6.787   4.767
36979W        W  703   4.787  26.972   2.750
36980W        W  704  15.166  35.090   4.700
36981W        W  705   7.906  42.498  13.973
36982W        W  706  14.335  16.789   3.647
36983W        W  707  43.500   6.876  12.914
36984W        W  708   8.819  18.691  11.552
36985W        W  709   1.265  13.153  11.902
36986W        W  710  36.853  44.948   3.179
36987W        W  711  12.226  25.972  13.048
36988W        W  712  23.179   2.880  11.069
36989W        W  713  26.085  30.924  13.406
36990W        W  714   6.401  18.063  12.508
36991W        W  715   6.824  34.064   2.307
36992W        W  716  42.332  44.370   5.176
36993W        W  717   6.291  44.411   0.342
36994W        W  718  27.634  24.714   1.860
36995W        W  719  13.783   1.384  10.526
36996W        W  720  43.890  30.966   0.803
36997W        W  721  36.583  19.777  10.022
36998W        W  722  41.935   1.348   1.240
36999W        W  723   1.391  28.522   1.847
37000W        W  724  17.072  17.276   0.243
37001W        W  725  12.333  41.841  14.948
37002W        W  726  13.679   0.372  14.023
37003W        W  727   3.313  29.439   5.217
37004W        W  728  29.162  36.050  13.540
37005W        W  729  15.689   0.411   3.753
37006W        W  730   5.260  30.489  13.935
37007W        W  731   5.374  35.490   3.156
37008W        W  732   1.265  40.546  13.956
37009W        W  733   5.820  33.467  13.910
37010W        W  734  33.526  28.046   4.697
37011W        W  735   5.351  44.826  12.874
37012W        W  736  16.680  20.708  11.594
37013W        W  737  29.451  24.101  12.407
37014W        W  738  37.412  36.564  11.968
37015W        W  739  18.285  30.484  11.493
37016W        W  740  20.727  12.352  10.511
37017W        W  741   1.348   1.291   1.887
37018W        W  742  21.216  34.388  10.626
37019W        W  743  26.141  37.851   2.771
37020W        W  744   4.787  39.982   4.229
37021W        W  745  44.390   3.878   1.240
37022W        W  746  17.746  27.976  14.463
37023W        W  747  26.484   3.898  12.397
37024W        W  748  38.843  42.377   0.407
37025W        W  749  31.450   2.899  11.598
37026W        W  750   0.851  14.716   2.851
37027W        W  751  20.216  25.122   4.779
37028W        W  752  19.664   7.748  12.907
37029W        W  753  22.175  13.185   0.267
37030W        W  754  29.919   4.718  11.102
37031W        W  755  38.966   8.344  10.536
37032W        W  756  23.203   9.227   4.114
37033W        W  757  44.892  32.005  14.459
37034W        W  758  35.059   2.275   2.330
37035W        W  759  24.053   7.200   2.823
37036W        W  760  23.733   7.287  12.074
37037W        W  761  28.450   5.922   1.806
37038W        W  762  38.421   9.804   2.874
37039W        W  763  16.731  27.070   3.152
37040W        W  764   6.773  14.257   1.761
37041W        W  765  30.029  11.165   4.117
37042W        W  766  24.668  36.445  10.638
37043W        W  767  39.065  11.218  12.565
37044W        W  768  15.771   0.922  13.882
37045W        W  769   3.432   6.810  14.867
37046W        W  770  43.346  39.401   2.415
37047W        W  771  42.870  40.505   2.865
37048W        W  772   3.430  33.988  11.937
37049W        W  773   9.771  19.594  13.497
37050W        W  774  23.219  27.620  13.956
37051W        W  775  37.477   2.951  12.999
37052W        W  776  41.857  23.642  14.447
37053W        W  777  26.618  37.831   4.774
37054W        W  778   1.317  20.590   3.247
37055W        W  779   9.186  13.232  13.414
37056W        W  780  36.940  35.971   3.743
37057W        W  781  14.187  20.194   0.819
37058W        W  782   2.450  18.567   4.614
37059W        W  783  10.358  26.676  14.510
37060W        W  784  23.506  32.976   2.864
37061W        W  785  44.943  29.145   3.768
37062W        W  786  20.737   1.941  11.037
37063W        W  787  31.421  26.054  11.872
37064W        W  788  23.075  30.547  14.884
37065W        W  789  24.583  15.209   4.764
37066W        W  790  24.135  35.412   4.253
37067W        W  791  28.090  17.303  11.919
37068W        W  792  34.864  25.588  11.123
37069W        W  793  31.040  44.875  14.939
37070W        W  794  33.564  32.017  11.049
37071W        W  795   2.369   5.284   4.719
37072W        W  796  18.074  20.059  11.003
37073W        W  797  41.315  24.550  12.385
37074W        W  798  18.226  15.154   1.909
37075W        W  799  39.554  43.996   3.669
37076W        W  800   5.421  12.147   0.752
37077W        W  801  13.234  13.187   1.791
37078W        W  802   8.257  30.549  13.051
37079W        W  803  36.417  12.791  14.289
37080W        W  804  37.947  16.294   4.599
37081W        W  805  22.072   1.346  13.037
37082W        W  806  34.439  11.854  13.864
37083W        W  807   7.301  27.462  12.544
37084W        W  808   6.263   4.942  10.535
37085W        W  809  16.804  32.562   4.698
37086W        W  810  31.613  26.613   1.400
37087W        W  811  24.989  30.617  11.006
37088W        W  812  27.641  10.188   5.792
37089W        W  813   8.847   0.481   0.757
37090W        W  814   9.823  23.234   3.724
37091W        W  815  22.733  40.513   2.366
37092W        W  816  16.749  20.137   2.390
37093W        W  817  14.666  12.313   4.779
37094W        W  818   8.223  14.267  14.501
37095W        W  819  42.852  24.029   4.262
37096W        W  820  25.522  28.173   0.956
37097W        W  821   5.270  10.311  13.366
37098W        W  822  24.658  35.102  11.496
37099W        W  823   0.831  14.262   3.381
37100W        W  824  29.067  21.751  10.959
37101W        W  825  38.392  32.415  13.523
37102W        W  826  29.480  35.886  12.823
37103W        W  827  13.131   9.713   1.406
37104W        W  828  25.979   0.342  10.580
37105W        W  829   0.436   2.262  12.977
37106W        W  830  40.311  16.278  12.074
37107W        W  831   2.277  37.852   1.352
37108W        W  832   7.829  20.747  10.442
37109W        W  833  35.369  26.961   3.658
37110W        W  834   0.298  39.059  12.949
37111W        W  835  11.175  39.524   2.195
37112W        W  836  11.299   7.275  14.961
37113W        W  837  31.095  26.461  11.428
37114W        W  838  32.909  16.623   3.192
37115W        W  839  10.184  18.603   2.401
37116W        W  840  14.712  15.140  11.400
37117W        W  841   9.808   9.344  10.637
37118W        W  842  41.375  26.051   3.156
37119W        W  843   2.835  32.928  13.483
37120W        W  844   8.225   1.242  10.526
37121W        W  845  25.623   0.299  14.277
37122W        W  846  38.922  12.323   4.780
37123W        W  847   6.800  16.809  13.363
37124W        W  848  14.199  30.941   2.787
37125W        W  849  42.448  16.148  14.805
37126W        W  850  39.812  35.590  14.785
37127W        W  851  42.859   4.231  12.536
37128W        W  852  39.481   6.322  14.444
37129W        W  853  25.685  10.264   5.255
37130W        W  854  25.520  18.650  10.943
37131W        W  855  10.227   3.309   5.109
37132W        W  856  42.330  31.073  11.977
37133W        W  857  23.723  32.608   1.229
37134W        W  858   4.809  39.341   2.668
37135W        W  859  12.689  30.449  13.995
37136W        W  860  17.670  41.467  14.824
37137W        W  861   9.364   2.784  12.579
37138W        W  862   8.693  24.028   5.160
37139W        W  863  31.631  15.264   1.237
37140W        W  864  15.176  18.623   1.258
37141W        W  865  44.001   1.891   3.168
37142W        W  866   1.968  11.354  10.587
37143W        W  867   2.421  30.547  10.430
37144W        W  868  28.124  14.218   3.633
37145W        W  869  14.730  32.104  10.501
37146W        W  870  19.718  14.676   2.238
37147W        W  871  15.806  25.519   0.900
37148W        W  872  32.540  20.573  14.398
37149W        W  873  24.230  14.739   4.114
37150W        W  874  27.100  23.188   4.344
37151W        W  875  39.386  16.714   4.191
37152W        W  876   0.325   1.303  13.803
37153W        W  877  35.988  36.861  12.493
37154W        W  878   8.825   8.660  12.868
37155W        W  879  24.036   9.751   3.677
37156W        W  880  25.618   9.719   0.833
37157W        W  881  35.870   9.810   2.708
37158W        W  882  16.804  43.440  13.460
37159W        W  883  41.996   8.348   4.709
37160W        W  884   3.912  35.070  11.515
37161W        W  885  17.286  17.643   0.276
37162W        W  886   0.888  31.146   2.715
37163W        W  887  33.459  39.961  11.990
37164W        W  888  13.660  36.962  12.358
37165W        W  889  12.229  42.856   0.965
37166W        W  890  23.098   3.930  12.501
37167W        W  891  40.388   1.872   1.217
37168W        W  892  28.608  27.575  12.472
37169W        W  893  25.133  41.847   2.832
37170W        W  894   1.349  38.331   0.246
37171W        W  895   1.274  37.845  10.641
37172W        W  896  29.522  21.177   2.848
37173W        W  897  27.949  13.668   9.978
37174W        W  898  29.519  43.911  10.533
37175W        W  899  41.899  38.553   4.303
37176W        W  900  36.413  24.148   3.824
37177W        W  901  32.937  33.986  13.972
37178W        W  902  40.953  14.707  11.097
37179W        W  903   7.235  34.970   2.317
37180W        W  904  39.941  37.051  11.514
37181W        W  905   8.193   4.266  14.278
37182W        W  906  14.831  24.539  11.396
37183W        W  907  43.885   3.339   5.106
37184W        W  908  16.288  12.783  14.914
37185W        W  909   4.821  21.035   1.357
37186W        W  910  34.930  38.856   1.921
37187W        W  911  20.685   7.755  13.960
37188W        W  912  25.620  19.195   0.820
37189W        W  913  40.974  31.453  11.086
37190W        W  914  18.736  13.299   0.870
37191W        W  915  36.074   6.847   0.345
37192W        W  916  35.099  22.524   4.182
37193W        W  917  28.583   8.742   1.776
37194W        W  918  44.377  42.440  13.533
37195W        W  919  40.012  40.424   1.758
37196W        W  920   4.733  28.486  13.819
37197W        W  921  35.987  24.480  14.288
37198W        W  922  41.314  29.510   2.734
37199W        W  923  35.494  29.084  14.965
37200W        W  924   7.824   1.431   3.803
37201W        W  925   2.881   2.726  10.577
37202W        W  926  36.502   0.267  12.497
37203W        W  927  17.602  44.773   0.288
37204W        W  928   5.235   0.761  12.904
37205W        W  929  28.166   5.272   3.785
37206W        W  930  40.495  34.119   4.812
37207W        W  931  42.476   6.756  11.566
37208W        W  932   8.255  21.687   2.847
37209W        W  933   9.723  35.450  14.834
37210W        W  934  10.141  30.921   1.312
37211W        W  935  33.472  30.496  12.825
37212W        W  936  32.442  34.045  11.119
37213W        W  937  22.539  34.430   1.901
37214W        W  938  43.845  43.287  10.557
37215W        W  939  31.626   7.772  13.958
37216W        W  940  27.134  27.955  10.079
37217W        W  941  36.476  31.514   4.645
37218W        W  942  16.309   4.707   0.271
37219W        W  943  22.714  29.463  11.414
37220W        W  944  38.488  34.372   4.310
37221W        W  945  38.074  38.417  11.383
37222W        W  946  22.045  31.030  11.939
37223W        W  947  33.406  18.730  11.045
37224W        W  948   6.200  24.045   4.732
37225W        W  949  17.255  23.711   9.972
37226W        W  950  38.934  33.603  14.884
37227W        W  951  43.821  43.363  12.074
37228W        W  952  18.628  43.289   1.389
37229W        W  953  18.168  37.571   1.844
37230W        W  954   2.429   6.270  13.995
37231W        W  955  25.174  42.886   1.395
37232W        W  956   9.790  28.445  14.794
37233W        W  957   7.301  14.762  10.486
37234W        W  958  21.516  44.863  12.049
37235W        W  959  33.916   1.390  13.390
37236W        W  960  38.831   2.753  13.815
37237W        W  961   6.780  35.374  12.849
37238W        W  962  38.445  31.614  10.490
37239W        W  963  44.805  21.671  14.860
37240W        W  964  40.798  37.893   1.821
37241W        W  965  25.062   2.867   1.722
37242W        W  966   1.481  17.126   3.656
37243W        W  967  23.632  23.191   4.163
37244W        W  968   7.907  26.613  10.595
37245W        W  969   2.431  41.952  13.962
37246W        W  970  19.104  43.857   4.765
37247W        W  971  14.751  10.314  10.492
37248W        W  972  12.315  35.384  14.855
37249W        W  973  37.424  39.467  11.039
37250W        W  974  43.824   6.381  13.954
37251W        W  975  19.582  33.590  11.082
37252W        W  976  19.606   8.861   4.222
37253W        W  977  19.614   5.718  11.906
37254W        W  978  36.583   0.862  10.085
37255W        W  979  16.791   6.306  13.994
37256W        W  980  14.714  28.494  10.482
37257W        W  981   4.738  43.981   0.370
37258W        W  982  17.556  35.065   3.199
37259W        W  983  22.626  42.826  11.586
37260W        W  984   5.913  29.086  14.980
37261W        W  985  33.011  21.112   0.369
37262W        W  986   7.261   1.273  13.339
37263W        W  987  36.097  23.677  13.309
37264W        W  988  35.366  15.779  14.304
37265W        W  989   3.314  32.072  13.520
37266W        W  990  29.440  18.564   1.438
37267W        W  991  18.199  14.104  13.062
37268W        W  992  38.073  42.507   3.254
37269W        W  993   8.880  19.748   4.657
37270W        W  994   8.162  41.987   0.930
37271W        W  995  43.309  26.576   4.166
37272W        W  996  41.953  30.077   2.717
37273W        W  997   1.408  24.189  11.538
37274W        W  998  43.392   5.269   0.940
37275W        W  999   8.880  14.272  12.850
37276W        W 1000  27.606   4.369  11.572
37277W        W 1001  21.142  39.399   3.669
37278W        W 1002  38.000   0.746  10.935
37279W        W 1003  42.353  12.158   2.869
37280W        W 1004  27.493  20.567   2.682
37281W        W 1005   8.232  10.865   4.246
37282W        W 1006  36.997  22.580   1.886
37283W        W 1007  24.017  36.446   4.303
37284W        W 1008   2.879   0.810  13.322
37285W        W 1009  44.854  13.207  12.091
37286W        W 1010  32.118  20.587   0.267
37287W        W 1011  12.285   2.900   3.833
37288W        W 1012  37.891  30.118  10.535
37289W        W 1013  38.414  37.042  14.485
37290W        W 1014  42.386  21.130  10.578
37291W        W 1015   1.418   5.882  11.390
37292W        W 1016  34.073  30.943  14.492
37293W        W 1017  36.053  30.069   4.118
37294W        W 1018   5.196  35.862  11.947
37295W        W 1019  38.430  29.604  13.312
37296W        W 1020  23.999  21.563  12.387
37297W        W 1021  16.170  34.969   4.186
37298W        W 1022  33.427   4.721   5.218
37299W        W 1023  35.480  30.162  11.890
37300W        W 1024  13.136  29.602   4.211
37301W        W 1025  18.152  21.631   4.165
37302W        W 1026  21.589  23.153  13.449
37303W        W 1027  38.570  13.691   3.320
37304W        W 1028   2.307  37.432   4.137
37305W        W 1029   9.342  14.763  11.882
37306W        W 1030   5.421  31.121  12.551
37307W        W 1031  35.894  29.438  11.560
37308W        W 1032  36.904  18.191  14.913
37309W        W 1033  14.123  33.572   0.765
37310W        W 1034   6.747   2.268   1.213
37311W        W 1035  17.774  26.500   2.353
37312W        W 1036  34.108  38.002   1.929
37313W        W 1037  44.806  17.200   3.796
37314W        W 1038  38.546  26.126  14.412
37315W        W 1039  11.358  26.467   3.146
37316W        W 1040  16.152  19.725  13.839
37317W        W 1041  15.151   0.325  12.449
37318W        W 1042  14.652  34.034   1.725
37319W        W 1043   0.298  39.557  13.010
37320W        W 1044  21.580  42.330  14.007
37321W        W 1045  14.109  15.122   3.686
37322W        W 1046  10.240  38.965   3.272
37323W        W 1047  16.602  14.820  13.934
37324W        W 1048  44.462  42.331  10.494
37325W        W 1049  25.207  26.084  13.408
37326W        W 1050  24.705  20.060  11.555
37327W        W 1051  23.189  18.598   3.369
37328W        W 1052  21.725   1.831  12.430
37329W        W 1053  43.423   6.320  10.016
37330W        W 1054  18.122   2.936   3.166
37331W        W 1055  40.038  11.179   1.247
37332W        W 1056  38.057  26.064  12.011
37333W        W 1057   3.926  22.200   4.701
37334W        W 1058  13.148  19.717  14.864
37335W        W 1059  27.174  28.589   1.331
37336W        W 1060  36.924  30.065  14.788
37337W        W 1061   9.746  35.416   2.313
37338W        W 1062   8.656  11.314   1.255
37339W        W 1063  44.832   6.370  14.339
37340W        W 1064  12.225   4.789  10.157
37341W        W 1065  18.656  26.630  10.012
37342W        W 1066  34.090  29.116   1.432
37343W        W 1067  14.226  23.521  14.772
37344W        W 1068   1.901  43.875  11.916
37345W        W 1069  39.028   3.370  12.426
37346W        W 1070   7.669   0.251  10.950
37347W        W 1071  37.434  15.315  11.920
37348W        W 1072  20.719  30.636   3.672
37349W        W 1073  41.488  20.081  10.978
37350W        W 1074  23.146  44.393   4.188
37351W        W 1075  12.824  26.073   0.791
37352W        W 1076  32.451  25.027  12.906
37353W        W 1077   2.816  13.262  10.525
37354W        W 1078  11.748  11.299  10.908
37355W        W 1079  42.432  41.915   4.785
37356W        W 1080  30.469  23.119   4.628
37357W        W 1081  31.112  21.590   2.264
37358W        W 1082  19.132  17.579  11.430
37359W        W 1083   5.317   4.923   2.385
37360W        W 1084  38.852   1.908   1.303
37361W        W 1085  44.874  42.910   1.843
37362W        W 1086  15.597   4.408  11.974
37363W        W 1087  17.737  22.996   1.327
37364W        W 1088  17.565  38.387   0.457
37365W        W 1089   7.833  42.776   0.332
37366W        W 1090  12.318  15.602   4.166
37367W        W 1091   2.810  41.925  10.644
37368W        W 1092  40.027  13.839  12.952
37369W        W 1093  35.412  43.921   1.817
37370W        W 1094  41.033   1.933  14.785
37371W        W 1095  26.121  15.258  10.486
37372W        W 1096  43.277  40.907  11.402
37373W        W 1097  11.695  36.560   4.812
37374W        W 1098  42.518  39.314  14.926
37375W        W 1099  10.837  17.087  14.480
37376W        W 1100  10.828   1.270  14.799
37377W        W 1101  27.946   9.747  11.933
37378W        W 1102   8.219  43.492   0.446
37379W        W 1103  30.434  10.828   4.719
37380W        W 1104  27.632   3.897  14.032
37381W        W 1105  37.856  26.685  14.314
37382W        W 1106  11.634   9.333  13.339
37383W        W 1107  44.424  34.442  12.055
37384W        W 1108  41.485  36.038   0.470
37385W        W 1109  25.213  29.083  14.011
37386W        W 1110  11.292  37.467   5.083
37387W        W 1111   4.800   3.417   3.653
37388W        W 1112   6.841  19.266  12.833
37389W        W 1113  35.051  33.920  10.568
37390W        W 1114  26.080  12.650  13.940
37391W        W 1115  43.962  18.137   4.676
37392W        W 1116  22.679   4.244   0.316
37393W        W 1117  33.960  14.704   2.789
37394W        W 1118  32.134  44.496  13.806
37395W        W 1119  28.126  25.983   0.894
37396W        W 1120  28.177  34.120   0.791
37397W        W 1121  30.076  26.614   2.413
37398W        W 1122  27.985   2.329   0.396
37399W        W 1123   8.162  37.397  11.465
37400W        W 1124   2.338   2.866  11.084
37401W        W 1125  25.624  22.140   1.733
37402W        W 1126  22.158  38.958   2.352
37403W        W 1127  26.186  42.323   1.783
37404W        W 1128  18.084   7.883   3.319
37405W        W 1129  30.501  13.708   3.856
37406W        W 1130  34.609  43.796   0.402
37407W        W 1131   8.864  32.114  13.311
37408W        W 1132  20.121  27.545  14.412
37409W        W 1133  22.669  37.996   4.761
37410W        W 1134  23.110  12.224   2.831
37411W        W 1135  15.615   3.935   0.914
37412W        W 1136   0.985  19.192   3.148
37413W        W 1137  42.785  14.817  11.401
37414W        W 1138  22.132   2.400   1.252
37415W        W 1139   1.430  34.043   3.809
37416W        W 1140   7.392  35.360   1.447
37417W        W 1141  32.036  24.520   1.909
37418W        W 1142  37.499  19.606   1.695
37419W        W 1143   8.745  37.978  11.372
37420W        W 1144  32.893  21.081  11.390
37421W        W 1145  24.020   2.370   0.798
37422W        W 1146   8.782  20.052   4.775
37423W        W 1147   6.223  42.848  10.568
37424W        W 1148  36.861  13.222  11.079
37425W        W 1149   9.158  39.448   4.174
37426W        W 1150  17.611  28.492  13.888
37427W        W 1151  31.968   7.215   4.221
37428W        W 1152  11.756  10.682   1.210
37429W        W 1153  24.128  19.753   0.785
37430W        W 1154  42.447  22.532   9.505
37431W        W 1155  10.679  10.211  14.449
37432W        W 1156   9.308  14.174   1.759
37433W        W 1157  28.010  28.048   2.880
37434W        W 1158  14.296  20.632   1.754
37435W        W 1159  15.257  42.979  13.340
37436W        W 1160  11.768  31.515   2.816
37437W        W 1161  32.483   9.837   1.847
37438W        W 1162  37.045  32.499  11.030
37439W        W 1163  12.200  36.528  13.057
37440W        W 1164  22.224  32.587  11.917
37441W        W 1165   6.804  22.099   2.206
37442W        W 1166  12.789   4.291  13.346
37443W        W 1167  23.582  34.496   2.800
37444W        W 1168  22.162  42.286   3.706
37445W        W 1169  20.710  37.347  10.620
37446W        W 1170   4.858  41.943   3.170
37447W        W 1171  26.066  22.209   0.877
37448W        W 1172   0.781  15.772   3.227
37449W        W 1173  28.080  19.535   2.843
37450W        W 1174   2.940  19.630   0.904
37451W        W 1175  36.568  33.602   3.743
37452W        W 1176  42.895  22.547   2.837
37453W        W 1177   4.763  12.323   5.242
37454W        W 1178  16.721  21.065   4.728
37455W        W 1179  20.223  27.967  12.526
37456W        W 1180  11.696  16.311  13.865
37457W        W 1181  15.685  43.865  13.850
37458W        W 1182  24.975  36.494   1.825
37459W        W 1183   6.902   4.796  12.390
37460W        W 1184  11.827   8.834   0.289
37461W        W 1185   8.709  12.814   3.747
37462W        W 1186  42.437  13.765  13.410
37463W        W 1187  40.450  31.467   4.121
37464W        W 1188  20.148  15.195  11.419
37465W        W 1189  14.244  35.559   4.747
37466W        W 1190  38.871  29.434  13.539
37467W        W 1191  44.942  34.445  10.502
37468W        W 1192   0.379  26.069   2.783
37469W        W 1193  27.011   1.339   3.284
37470W        W 1194  35.872  22.075  12.079
37471W        W 1195  25.995  18.275   4.292
37472W        W 1196  31.553  29.120  14.780
37473W        W 1197  18.570   6.272  10.983
37474W        W 1198  33.590  42.496   0.792
37475W        W 1199  22.081  12.345  12.401
37476W        W 1200  15.193  42.966   0.851
37477W        W 1201  41.390  23.091  14.462
37478W        W 1202  37.830  19.588  11.962
37479W        W 1203  26.544  29.175   3.715
37480W        W 1204  44.280  28.595  13.531
37481W        W 1205   0.332  23.574   4.703
37482W        W 1206  35.869   7.398  13.374
37483W        W 1207  23.201  30.034  11.579
37484W        W 1208  33.118   6.265  13.888
37485W        W 1209  29.475  39.014  13.365
37486W        W 1210   5.907  15.302  14.333
37487W        W 1211  37.042  37.007   1.845
37488W        W 1212  30.573  24.650  12.511
37489W        W 1213  13.173  30.156   0.267
37490W        W 1214  28.976   9.226   3.771
37491W        W 1215   0.947   1.482   4.351
37492W        W 1216  17.746  36.567   0.324
37493W        W 1217  42.905  43.409  13.990
37494W        W 1218  40.397  19.557   3.745
37495W        W 1219   5.876   5.280  11.029
37496W        W 1220  44.485  38.837   4.200
37497W        W 1221  42.941  26.992   3.208
37498W        W 1222  44.962  29.113   1.868
37499W        W 1223   5.923  41.983  13.459
37500W        W 1224  37.414   4.407  12.078
37501W        W 1225  24.156  10.740  13.978
37502W        W 1226  19.060   2.903   2.214
37503W        W 1227  22.160  24.108   0.466
37504W        W 1228  17.728   1.237  10.529
37505W        W 1229  25.203   1.359  10.577
37506W        W 1230  34.999   3.902   3.662
37507W        W 1231  29.453  21.240   0.417
37508W        W 1232  12.177  23.594   4.126
37509W        W 1233   3.753  13.248  11.858
37510W        W 1234  39.872  25.030   3.186
37511W        W 1235  16.270  36.576  11.117
37512W        W 1236  36.401   6.362   4.257
37513W        W 1237  23.712  16.091  10.436
37514W        W 1238   0.330  19.128  14.024
37515W        W 1239   4.754  20.670   4.711
37516W        W 1240  19.091   1.943  12.974
37517W        W 1241  33.390  38.905  11.405
37518W        W 1242  34.947  32.083  10.062
37519W        W 1243  43.813  36.525  11.855
37520W        W 1244   6.402  43.771  11.553
37521W        W 1245  34.921  43.427  12.401
37522W        W 1246  17.795  19.682  11.992
37523W        W 1247  19.718  43.480  10.919
37524W        W 1248  22.080  40.877   5.171
37525W        W 1249  44.270  16.217   0.791
37526W        W 1250  44.474  11.804   4.186
37527W        W 1251   0.462   4.299  11.497
37528W        W 1252  33.515  14.217   3.314
37529W        W 1253  26.196  23.535  11.124
37530W        W 1254  25.138  30.645  12.570
37531W        W 1255  39.441  31.909   0.469
37532W        W 1256   8.165  44.406   0.844
37533W        W 1257   5.898  36.872   2.715
37534W        W 1258  29.448  19.083   2.727
37535W        W 1259   2.721  20.548  13.831
37536W        W 1260   0.438  44.847   0.443
37537W        W 1261  19.546  43.013  12.381
37538W        W 1262   2.348  22.243  14.366
37539W        W 1263  15.171  37.364  12.452
37540W        W 1264  36.929  18.596  12.919
37541W        W 1265  38.037  16.105  13.842
37542W        W 1266   4.384  21.617  12.440
37543W        W 1267  43.495   6.392  14.504
37544W        W 1268   1.938   2.386   4.255
37545W        W 1269  16.119   2.251  13.414
37546W        W 1270  43.305  40.353  10.138
37547W        W 1271  32.935   7.337  12.848
37548W        W 1272  39.397  26.690  11.867
37549W        W 1273  23.659  20.551   2.250
37550W        W 1274   2.838  33.091  12.354
37551W        W 1275   8.218  30.507   1.732
37552W        W 1276  33.969  29.496  13.988
37553W        W 1277  32.091  13.796  14.385
37554W        W 1278  20.151  23.505  11.375
37555W        W 1279  35.913  21.254   2.310
37556W        W 1280   6.746  24.190  10.442
37557W        W 1281  30.634  15.281   3.384
37558W        W 1282  21.221   8.788  12.547
37559W        W 1283   0.357   7.186  12.463
37560W        W 1284   1.941  15.226  14.829
37561W        W 1285  41.912   8.271   0.808
37562W        W 1286  22.142  27.164  12.823
37563W        W 1287   8.378  40.358   1.865
37564W        W 1288  26.691   8.390   0.804
37565W        W 1289  28.072  43.465   3.835
37566W        W 1290  22.526  15.592   5.159
37567W        W 1291  24.487  42.897  12.554
37568W        W 1292  36.039  18.295   2.747
37569W        W 1293   2.334  34.612   4.217
37570W        W 1294  14.745  30.925   0.296
37571W        W 1295   4.943  30.983   0.361
37572W        W 1296  37.450  25.980  14.000
37573W        W 1297  40.829  26.608  10.520
37574W        W 1298  13.191  20.263   2.869
37575W        W 1299  32.942  21.163  13.061
37576W        W 1300  23.539   4.413   2.239
37577W        W 1301  17.278  36.082   1.883
37578W        W 1302   3.789  42.834  11.953
37579W        W 1303   3.764  11.741   0.772
37580W        W 1304  28.167  36.032  13.515
37581W        W 1305  26.086  39.513  12.576
37582W        W 1306   8.189  19.195  12.009
37583W        W 1307  18.683  17.177   5.254
37584W        W 1308   5.285  18.256  12.010
37585W        W 1309  15.613   5.355   0.324
37586W        W 1310  18.141   2.783  11.902
37587W        W 1311  32.459  44.290  14.791
37588W        W 1312  38.554  25.021   9.559
37589W        W 1313  24.609  35.975  14.959
37590W        W 1314  34.074  38.518  12.029
37591W        W 1315   0.933  23.734  14.920
37592W        W 1316  22.163  18.695   4.147
37593W        W 1317   3.791  14.109   0.393
37594W        W 1318  15.702  15.759  10.930
37595W        W 1319   7.736  10.214  11.887
37596W        W 1320  42.915  23.516  11.489
37597W        W 1321  43.363  36.850  14.288
37598W        W 1322  36.354  40.321  10.974
37599W        W 1323  17.711  42.488  13.028
37600W        W 1324   5.350  29.918  13.938
37601W        W 1325   0.490  16.137   0.473
37602W        W 1326  43.886  18.250  14.395
37603W        W 1327  40.811  16.185   0.803
37604W        W 1328   5.863  36.086  11.446
37605W        W 1329  36.066  34.548   3.715
37606W        W 1330   4.702   8.743   0.392
37607W        W 1331  22.076  41.528   2.900
37608W        W 1332  14.799  44.853   3.270
37609W        W 1333   4.842   4.831  12.510
37610W        W 1334   7.859  35.533   2.410
37611W        W 1335  39.929  16.142  11.892
37612W        W 1336  27.012   6.235  13.373
37613W        W 1337  27.626  25.136  13.449
37614W        W 1338  28.527  30.550  12.095
37615W        W 1339  37.422  41.040  11.535
37616W        W 1340   4.818  27.613   1.723
37617W        W 1341  10.835  40.800  14.467
37618W        W 1342  13.798  38.067   4.138
37619W        W 1343  22.693   1.812   4.600
37620W        W 1344  38.377  30.475  11.537
37621W        W 1345  17.252  18.617   2.247
37622W        W 1346  14.826  41.845  14.025
37623W        W 1347  40.945   5.790   0.814
37624W        W 1348  24.074  34.545  12.351
37625W        W 1349  23.031  24.588   2.365
37626W        W 1350  41.820  28.056  11.373
37627W        W 1351  40.546  18.702  10.627
37628W        W 1352  36.379  28.065  14.999
37629W        W 1353   4.728  29.603   1.726
37630W        W 1354  13.707  11.359  12.993
37631W        W 1355  14.644  12.758   3.196
37632W        W 1356  38.560  36.574  12.518
37633W        W 1357   1.911  28.544   1.261
37634W        W 1358  25.547  14.326  10.028
37635W        W 1359  29.945   3.459  14.945
37636W        W 1360   0.949  43.944  13.878
37637W        W 1361  18.140  38.074  13.967
37638W        W 1362  13.210  10.279   0.962
37639W        W 1363  29.642  22.569  10.094
37640W        W 1364  31.596  23.064   2.741
37641W        W 1365  22.197  23.531  12.091
37642W        W 1366  36.970  37.540  13.446
37643W        W 1367  25.578  26.603   2.801
37644W        W 1368  33.417  14.600  12.971
37645W        W 1369   5.746  18.245   2.416
37646W        W 1370  12.731  25.629   0.284
37647W        W 1371  44.493   5.888   0.872
37648W        W 1372   5.253  13.635   9.659
37649W        W 1373  24.148   0.909   3.730
37650W        W 1374  14.329  43.337   1.816
37651W        W 1375  17.765  36.027   3.387
37652W        W 1376  35.518   7.399  13.505
37653W        W 1377  12.611  25.548  10.916
37654W        W 1378  31.534  30.531  10.967
37655W        W 1379  11.710  35.367  11.469
37656W        W 1380  22.060   1.771   4.738
37657W        W 1381   7.184  26.595  14.028
37658W        W 1382  10.345  20.658   3.218
37659W        W 1383   4.207  39.449  13.057
37660W        W 1384   3.316   9.243  11.558
37661W        W 1385  34.474  13.719   3.673
37662W        W 1386  37.446  40.511  10.501
37663W        W 1387  14.760  38.543   1.738
37664W        W 1388  44.439  39.497   1.440
37665W        W 1389  11.740  28.562   1.293
37666W        W 1390   7.245  13.108  13.049
37667W        W 1391  13.207  43.909   0.255
37668W        W 1392   4.829   1.355   2.245
37669W        W 1393  33.107  25.580   4.838
37670W        W 1394  23.084  34.871   4.826
37671W        W 1395  31.484   8.263   4.724
37672W        W 1396  26.091  25.178  13.046
37673W        W 1397  18.175  38.437  12.485
37674W        W 1398  44.390  15.752   1.407
37675W        W 1399  11.777  34.517   4.238
37676W        W 1400  16.803  26.987  14.900
37677W        W 1401   7.682  12.783   4.129
37678W        W 1402  34.910  16.089   4.612
37679W        W 1403  21.612  37.338  12.494
37680W        W 1404   0.757  39.834   0.913
37681W        W 1405   4.709  33.508  12.445
37682W        W 1406  43.510  29.071   1.917
37683W        W 1407  43.001   1.474   2.738
37684W        W 1408   8.676  41.300  14.895
37685W        W 1409  38.017  18.634   1.745
37686W        W 1410   6.773  33.971  11.499
37687W        W 1411  26.010   3.293  10.433
37688W        W 1412  27.015  35.601   2.690
37689W        W 1413  40.982  14.220  13.052
37690W        W 1414   4.874  42.490   0.816
37691W        W 1415  39.438  25.568   1.309
37692W        W 1416  11.635  27.046  11.443
37693W        W 1417  15.641  35.853   3.735
37694W        W 1418  38.325  13.703   1.323
37695W        W 1419   4.350  16.283   2.271
37696W        W 1420   0.902  18.726  11.509
37697W        W 1421   3.942  32.590   4.797
37698W        W 1422  27.660   6.860   3.864
37699W        W 1423  35.900   1.942  10.436
37700W        W 1424  31.141  25.190  12.452
37701W        W 1425  17.677   4.277  12.504
37702W        W 1426   6.221   3.712   2.880
37703W        W 1427  17.597   0.924   4.262
37704W        W 1428  11.199  36.540   3.253
37705W        W 1429  21.174   8.888   2.412
37706W        W 1430  13.288  38.869  13.917
37707W        W 1431  10.719  22.587   0.879
37708W        W 1432  44.357  41.788   1.340
37709W        W 1433  28.596  36.971   4.634
37710W        W 1434  14.182  22.534   1.437
37711W        W 1435  28.137  26.999  14.385
37712W        W 1436  20.098  29.499  10.513
37713W        W 1437  14.293  36.561   0.384
37714W        W 1438  31.502  15.655   5.108
37715W        W 1439  19.630  42.926  13.435
37716W        W 1440  22.164  29.601  11.408
37717W        W 1441  25.488  23.011   3.760
37718W        W 1442  15.648   5.720   2.772
37719W        W 1443   5.854  19.750  13.980
37720W        W 1444  12.280  31.437   1.349
37721W        W 1445  40.925  37.506   5.726
37722W        W 1446   4.890  10.747  11.600
37723W        W 1447   3.333  23.239   3.827
37724W        W 1448  26.613  17.712   1.749
37725W        W 1449  23.491  15.220  13.849
37726W        W 1450  15.680  37.484  10.528
37727W        W 1451  13.840  42.461  14.322
37728W        W 1452  38.842  10.670   4.186
37729W        W 1453  20.185  25.993   0.471
37730W        W 1454  41.391  18.777   3.200
37731W        W 1455  44.324  24.487   1.362
37732W        W 1456  28.981   2.337   3.208
37733W        W 1457  19.542  29.546  10.943
37734W        W 1458   9.340  32.034   1.836
37735W        W 1459  13.649  13.276   4.192
37736W        W 1460  38.019  12.292   0.761
37737W        W 1461  26.000  31.557  13.429
37738W        W 1462  30.133  23.104   2.787
37739W        W 1463   1.900  22.564   1.353
37740W        W 1464  36.925   2.957   1.348
37741W        W 1465   3.866  43.447   3.860
37742W        W 1466  18.233  13.631  11.924
37743W        W 1467   1.368   3.858  12.499
37744W        W 1468   2.341  28.464   2.678
37745W        W 1469  37.924  35.923  14.842
37746W        W 1470  39.384  32.991   2.847
37747W        W 1471  13.320   1.412   4.220
37748W        W 1472  23.700  30.441   0.864
37749W        W 1473  22.678  26.082   3.744
37750W        W 1474   7.788  33.418   3.728
37751W        W 1475   6.335  12.344   0.741
37752W        W 1476  30.067  22.679   3.193
37753W        W 1477  17.278  13.314   1.871
37754W        W 1478  34.909   9.373  14.946
37755W        W 1479  24.004  21.019   3.365
37756W        W 1480  27.102  19.232  12.076
37757W        W 1481  35.392  23.706  14.874
37758W        W 1482   0.342  28.440  12.059
37759W        W 1483  20.756   2.311   3.779
37760W        W 1484  16.749   0.817  14.421
37761W        W 1485   8.660   1.473  10.897
37762W        W 1486  42.912   2.923  12.466
37763W        W 1487  12.274  33.913   1.759
37764W        W 1488   6.337  29.460   2.290
37765W        W 1489   6.910   8.175  11.019
37766W        W 1490  11.798  15.584   5.294
37767W        W 1491  36.945  36.378   0.734
37768W        W 1492  33.120   9.313   0.375
37769W        W 1493   5.407  26.095   0.766
37770W        W 1494  35.443  39.487  14.301
37771W        W 1495  30.513  10.204  10.977
37772W        W 1496  19.172  42.323  12.999
37773W        W 1497  30.019  14.754   0.374
37774W        W 1498  17.225  12.315  11.018
37775W        W 1499  20.633   8.261   0.954
37776W        W 1500  26.164  27.597  13.442
37777W        W 1501   8.878  39.975  13.316
37778W        W 1502  37.918  36.447   0.893
37779W        W 1503  37.412  35.557  10.566
37780W        W 1504  15.232  13.179  14.824
37781W        W 1505   5.293   3.903   1.762
37782W        W 1506  38.349  23.029   5.677
37783W        W 1507  18.594  32.624  11.464
37784W        W 1508   8.704  34.923   5.260
37785W        W 1509  19.239   3.446   1.434
37786W        W 1510  32.632   8.684   4.168
37787W        W 1511  31.404  19.068   4.225
37788W        W 1512  28.037  44.877   1.275
37789W        W 1513  17.269  18.151   2.817
37790W        W 1514  14.212   0.826   3.723
37791W        W 1515  43.476  16.240   0.937
37792W        W 1516  37.055  43.358  13.366
37793W        W 1517  39.442  13.307  10.487
37794W        W 1518  23.240  22.207   2.362
37795W        W 1519  25.467  31.002   2.856
37796W        W 1520   0.338  38.370   2.867
37797W        W 1521  28.016  31.954   2.377
37798W        W 1522   2.376   4.940  10.045
37799W        W 1523   0.494  12.815   0.791
37800W        W 1524  37.832  41.426   9.976
37801W        W 1525  21.221   8.236   4.703
37802W        W 1526  39.010  19.620  10.595
37803W        W 1527  30.558  44.931   0.389
37804W        W 1528  12.217   3.711  10.017
37805W        W 1529   7.255  29.460   0.828
37806W        W 1530  30.981  34.893   0.450
37807W        W 1531  35.442  23.692   2.849
37808W        W 1532  21.258   8.727   3.636
37809W        W 1533   4.296  37.561  14.375
37810W        W 1534   8.160  20.549  13.378
37811W        W 1535  38.513  43.501   2.242
37812W        W 1536  29.971  13.113   0.251
37813W        W 1537  33.518  25.163   0.408
37814W        W 1538  29.032  31.114   0.912
37815W        W 1539  30.653   2.951  12.979
37816W        W 1540  25.984  38.571   3.648
37817W        W 1541  42.358  17.637  11.888
37818W        W 1542  19.649  12.171   4.340
37819W        W 1543  17.559  29.994   1.385
37820W        W 1544   2.772  30.089   3.754
37821W        W 1545  20.675  17.065   0.751
37822W        W 1546  24.076  38.989  10.489
37823W        W 1547  26.960  30.510   3.760
37824W        W 1548   6.191  11.782  14.780
37825W        W 1549  35.496  15.663  14.965
37826W        W 1550  36.536   5.866   1.436
37827W        W 1551  36.034   6.722   4.680
37828W        W 1552   6.303  31.642   2.265
37829W        W 1553  25.575   7.686   1.715
37830W        W 1554  17.134  34.394   2.260
37831W        W 1555  31.639   6.401   1.732
37832W        W 1556  38.405   4.346  10.601
37833W        W 1557  41.829  21.662  11.448
37834W        W 1558  36.390  10.229   4.679
37835W        W 1559  19.698  17.685   1.221
37836W        W 1560  23.734  32.987   0.467
37837W        W 1561  20.752  11.317  12.550
37838W        W 1562  10.749  34.389  14.848
37839W        W 1563  31.002  26.127   3.859
37840W        W 1564   8.861  10.652  11.546
37841W        W 1565  26.102  27.971  12.554
37842W        W 1566   6.186  16.796  14.011
37843W        W 1567  15.735   9.837  14.472
37844W        W 1568   9.648  22.167  12.369
37845W        W 1569  32.071  28.079  11.924
37846W        W 1570  20.689   5.833   1.399
37847W        W 1571   8.672   2.318  10.588
37848W        W 1572  26.496  21.609   3.175
37849W        W 1573  43.308  21.218  14.773
37850W        W 1574  22.207  26.018  12.420
37851W        W 1575  34.599  36.443  13.847
37852W        W 1576  14.663  40.905   1.330
37853W        W 1577   5.834   2.755   3.680
37854W        W 1578   6.215  10.865   1.898
37855W        W 1579  37.340   9.346   0.322
37856W        W 1580  12.721   7.736  10.046
37857W        W 1581  25.025  23.008   1.788
37858W        W 1582   8.279  42.981   4.626
37859W        W 1583  14.112  31.417   3.741
37860W        W 1584  15.195  26.106   1.233
37861W        W 1585  44.267  34.556  11.415
37862W        W 1586  44.871   5.700  12.068
37863W        W 1587  42.354  21.195  14.325
37864W        W 1588  34.519  22.705  14.310
37865W        W 1589  31.080   3.755  12.883
37866W        W 1590   2.737  19.060  13.483
37867W        W 1591  13.654  32.900  14.781
37868W        W 1592  33.951   8.859  11.913
37869W        W 1593   7.708   3.375   5.166
37870W        W 1594  40.843   0.884   2.724
37871W        W 1595  26.144  13.244   4.723
37872W        W 1596  26.703  26.697   3.869
37873W        W 1597  38.427   6.206  13.061
37874W        W 1598  25.609  33.880  10.981
37875W        W 1599   7.351  29.954  14.441
37876W        W 1600  39.364  31.430  12.529
37877W        W 1601  44.373   3.929  13.997
37878W        W 1602  15.221   9.336  14.421
37879W        W 1603  20.212   4.351   4.653
37880W        W 1604   7.725  14.325   4.255
37881W        W 1605  39.381  20.565   1.827
37882W        W 1606  24.534  38.055   0.876
37883W        W 1607  37.490  39.889  10.519
37884W        W 1608  10.288  42.416  13.319
37885W        W 1609  36.042  29.530   2.372
37886W        W 1610  26.670  25.627  10.892
37887W        W 1611  34.050  38.928  12.081
37888W        W 1612  21.594  42.480   9.481
37889W        W 1613   5.284  34.009   2.331
37890W        W 1614  28.582  36.045  11.448
37891W        W 1615  44.901  14.636  14.455
37892W        W 1616  40.992  36.938   5.204
37893W        W 1617  30.054  26.583  10.968
37894W        W 1618   2.760  27.676   3.278
37895W        W 1619   0.768   8.364  12.438
37896W        W 1620  25.607  17.136  12.469
37897W        W 1621  34.910  40.407   1.405
37898W        W 1622  26.952  33.021   3.155
37899W        W 1623  38.002  25.632   0.957
37900W        W 1624  41.905  33.929   2.310
37901W        W 1625   9.213  19.679  13.356
37902W        W 1626  25.596  13.684  12.928
37903W        W 1627  35.448  15.084   0.331
37904W        W 1628  20.703  42.024  10.632
37905W        W 1629  40.499   8.322   2.662
37906W        W 1630  13.177   2.879  10.942
37907W        W 1631  28.674  20.035  14.948
37908W        W 1632  44.993   1.781  11.920
37909W        W 1633   7.300  10.808   4.159
37910W        W 1634  19.259  10.771   3.258
37911W        W 1635  17.257  26.128  13.318
37912W        W 1636  17.763  15.163  13.323
37913W        W 1637  22.058   8.881   4.169
37914W        W 1638   1.741  21.193  12.367
37915W        W 1639   1.892  21.713  14.366
37916W        W 1640  20.585   4.300  14.310
37917W        W 1641   4.774  16.135  12.407
37918W        W 1642  12.181  40.980  13.836
37919W        W 1643  34.919   1.244  14.381
37920W        W 1644  10.743  14.638  11.899
37921W        W 1645  11.717  16.593  11.003
37922W        W 1646  11.276  14.799   4.291
37923W        W 1647  37.044  29.436   0.370
37924W        W 1648  29.139   7.340  12.849
37925W        W 1649  28.986   3.765   2.228
37926W        W 1650  32.059  11.184   4.244
37927W        W 1651  19.627  38.038  14.802
37928W        W 1652  36.469  37.049   0.360
37929W        W 1653  33.620   4.445  11.075
37930W        W 1654  33.094  34.487  14.298
37931W        W 1655  43.886  28.157   3.164
37932W        W 1656   6.819  44.460  10.587
37933W        W 1657  41.473  27.093  10.421
37934W        W 1658   4.259  23.229  10.594
37935W        W 1659  33.992  32.897   1.840
37936W        W 1660   0.448  12.783   3.156
37937W        W 1661  18.753  41.513  13.849
37938W        W 1662  41.374  27.617   1.901
37939W        W 1663  10.283   3.950   4.628
37940W        W 1664  14.662  42.483   2.384
37941W        W 1665  14.815   8.386  10.140
37942W        W 1666   7.847  34.929   0.299
37943W        W 1667   4.739  11.283   3.849
37944W        W 1668   3.724  16.714  14.890
37945W        W 1669   0.919  29.963  14.486
37946W        W 1670   8.805  22.587   3.870
37947W        W 1671  35.036  32.490   1.296
37948W        W 1672   5.745  27.105   2.844
37949W        W 1673  44.799  42.965  14.383
37950W        W 1674  17.222   8.720   2.740
37951W        W 1675  42.383  22.701  13.812
37952W        W 1676  13.841  31.004  14.788
37953W        W 1677  12.166  26.090   1.447
37954W        W 1678  21.085   1.791  11.020
37955W        W 1679   4.217  21.151  10.428
37956W        W 1680  42.346  20.045  13.905
37957W        W 1681  18.056   0.824   3.151
37958W        W 1682  22.043  13.667   4.325
37959W        W 1683   1.413  23.123  12.896
37960W        W 1684  22.639  10.293   0.736
37961W        W 1685  43.424  13.699   4.258
37962W        W 1686  42.382  43.786   1.699
37963W        W 1687  34.941   7.871   2.849
37964W        W 1688  41.351  32.464  14.300
37965W        W 1689   8.895  11.807   0.963
37966W        W 1690  39.368  39.416  11.105
37967W        W 1691  18.596   3.226   5.204
37968W        W 1692  36.351  26.519   1.826
37969W        W 1693   9.789   0.913  10.440
37970W        W 1694  36.490  33.105  11.040
37971W        W 1695  14.762  11.240  11.096
37972W        W 1696   5.380  42.486   3.363
37973W        W 1697   8.666  25.608  10.501
37974W        W 1698  18.091  25.515   2.315
37975W        W 1699  15.782  25.054   1.293
37976W        W 1700  43.456   3.722  10.513
37977W        W 1701  31.085  35.470  14.931
37978W        W 1702  24.663  28.615  11.521
37979W        W 1703   5.902  39.853  10.582
37980W        W 1704  32.439  34.546   2.844
37981W        W 1705  13.350  22.175   0.747
37982W        W 1706  40.888  25.618  12.445
37983W        W 1707  28.956  19.645   1.914
37984W        W 1708  12.785   3.373  12.964
37985W        W 1709   3.455  10.225  12.010
37986W        W 1710  10.382  17.236   4.319
37987W        W 1711  12.327  11.779  11.997
37988W        W 1712   8.287  38.908  11.385
37989W        W 1713   6.332  40.378  13.357
37990W        W 1714   3.412  25.110   1.897
37991W        W 1715   0.379   6.803   1.849
37992W        W 1716  38.976  24.025  14.507
37993W        W 1717  33.967  12.781   2.897
37994W        W 1718  11.202   4.357  11.969
37995W        W 1719   4.913   3.406  12.913
37996W        W 1720   9.826  40.478  13.328
37997W        W 1721   7.281  19.742  10.503
37998W        W 1722  27.961  33.619  14.307
37999W        W 1723  39.818  14.607  10.981
38000W        W 1724  37.892  35.397   0.405
38001W        W 1725  24.614  25.015  14.824
38002W        W 1726  39.345   3.370  14.426
38003W        W 1727  10.723   3.934   3.669
38004W        W 1728  44.346  24.718   1.849
38005W        W 1729  41.931  36.922  11.884
38006W        W 1730   6.240  23.643  13.996
38007W        W 1731  12.343  34.373  11.890
38008W        W 1732  13.207  42.981   0.397
38009W        W 1733  20.265  10.281   4.809
38010W        W 1734  23.059  23.532  11.107
38011W        W 1735  21.019  34.871  14.924
38012W        W 1736   8.369  39.496   0.359
38013W        W 1737  40.920  20.204   3.293
38014W        W 1738  10.355  34.948  14.881
38015W        W 1739  20.129  25.623   3.640
38016W        W 1740   3.944   3.402   4.301
38017W        W 1741  15.086  21.625   2.221
38018W        W 1742   1.342  39.885   2.861
38019W        W 1743  21.127  28.456   3.225
38020W        W 1744   8.784  11.302  11.387
38021W        W 1745  26.460  23.612  10.531
38022W        W 1746  26.953   0.896   4.667
38023W        W 1747  29.592  31.139  10.530
38024W        W 1748   5.860  41.869   2.827
38025W        W 1749  10.169  17.722  13.031
38026W        W 1750  16.692  30.572   4.129
38027W        W 1751  36.854   6.277  13.931
38028W        W 1752  11.858   5.919   4.664
38029W        W 1753  17.667   6.284   0.426
38030W        W 1754   8.711  36.516   0.438
38031W        W 1755  19.274  40.014   9.456
38032W        W 1756   3.862  12.857   1.297
38033W        W 1757  22.614  39.402  14.493
38034W        W 1758  42.392  33.881  11.556
38035W        W 1759  35.926   7.670  11.455
38036W        W 1760   1.386  40.866  14.921
38037W        W 1761   7.233  28.045   3.223
38038W        W 1762  28.639   0.271   0.915
38039W        W 1763  37.563  44.881  10.115
38040W        W 1764  11.188   1.865  13.834
38041W        W 1765   1.915  27.488  10.503
38042W        W 1766   7.885   8.758  14.960
38043W        W 1767   0.369  37.953   3.718
38044W        W 1768   4.436  44.389   1.827
38045W        W 1769  44.339   5.752  14.836
38046W        W 1770  23.085  22.661   3.377
38047W        W 1771  24.722  29.668   0.251
38048W        W 1772   7.720  38.439  14.818
38049W        W 1773  21.566  33.034   4.176
38050W        W 1774  24.014   7.782  14.349
38051W        W 1775  27.006  12.675   1.371
38052W        W 1776   5.850  44.918  13.370
38053W        W 1777  18.696  10.218   1.348
38054W        W 1778   1.783  10.653   0.779
38055W        W 1779   9.779  44.942   2.326
38056W        W 1780  13.659  36.942  10.626
38057W        W 1781  27.531   8.743  12.527
38058W        W 1782  24.016  20.106   0.878
38059W        W 1783   7.814  25.480  14.997
38060W        W 1784  28.038  38.013   0.935
38061W        W 1785  38.435  14.254  13.320
38062W        W 1786  16.144   7.708   2.354
38063W        W 1787  37.065  14.228   0.739
38064W        W 1788  19.255  10.280  14.841
38065W        W 1789  37.966  29.430   3.307
38066W        W 1790  43.782  13.132   2.255
38067W        W 1791  25.585  10.675   4.708
38068W        W 1792  13.206   3.952   2.893
38069W        W 1793  20.225   0.750   1.433
38070W        W 1794  13.661  37.409   4.206
38071W        W 1795  37.852   2.725  12.082
38072W        W 1796  31.123   6.876  13.985
38073W        W 1797  10.844  38.852  11.962
38074W        W 1798  17.785  44.358  10.443
38075W        W 1799  21.182   8.837   0.354
38076W        W 1800  21.041  30.968  10.136
38077W        W 1801  15.704  18.693   2.717
38078W        W 1802  28.154   6.703  12.832
38079W        W 1803  16.128  37.030  10.926
38080W        W 1804  19.739  23.631  12.829
38081W        W 1805  40.382  19.110   4.659
38082W        W 1806   0.263  38.876  13.452
38083W        W 1807   2.367   3.773  12.471
38084W        W 1808  41.818  29.006  10.917
38085W        W 1809  21.556  35.510  14.344
38086W        W 1810  30.483  19.231  12.977
38087W        W 1811   7.254  29.154   2.398
38088W        W 1812   7.335  10.278   2.698
38089W        W 1813  12.341  18.105   0.356
38090W        W 1814  32.529  16.230  14.793
38091W        W 1815  29.632  20.171   2.410
38092W        W 1816  32.976   8.252   0.264
38093W        W 1817   5.707  41.430  10.509
38094W        W 1818   3.256  24.700  13.969
38095W        W 1819  15.320  14.651   2.690
38096W        W 1820  42.389  22.172   3.349
38097W        W 1821  23.094   8.160   2.334
38098W        W 1822  38.553  13.271   2.812
38099W        W 1823  42.878  22.683   2.258
38100W        W 1824  25.680  25.635   1.853
38101W        W 1825  10.854  31.483   1.780
38102W        W 1826  12.252  15.655  13.051
38103W        W 1827  11.189  19.161  14.003
38104W        W 1828  37.928  22.674  13.006
38105W        W 1829  29.470  24.165  11.878
38106W        W 1830  37.052   8.397  13.025
38107W        W 1831  33.902   0.427   2.876
38108W        W 1832  31.459  37.367  12.563
38109W        W 1833  20.102  33.428   2.884
38110W        W 1834  35.084  43.979   3.816
38111W        W 1835  32.932   5.261   0.341
38112W        W 1836  10.782  25.987   1.827
38113W        W 1837  27.121   4.809   1.851
38114W        W 1838  44.997  30.502   0.300
38115W        W 1839  16.163  16.170   1.803
38116W        W 1840  24.055   3.807   4.124
38117W        W 1841   1.811  20.152   1.732
38118W        W 1842  17.792   8.202  12.410
38119W        W 1843  19.116   6.297   0.939
38120W        W 1844  33.970   4.801  14.455
38121W        W 1845  44.907   8.368  11.483
38122W        W 1846   3.770  13.325   4.244
38123W        W 1847   7.839  30.513  12.967
38124W        W 1848  42.416  41.022  13.061
38125W        W 1849  28.102  37.563   2.194
38126W        W 1850  38.359  10.370   3.257
38127W        W 1851  43.447   7.720   4.620
38128W        W 1852  30.481  20.648   3.267
38129W        W 1853  41.342  20.029   4.788
38130W        W 1854  21.135  17.114   1.284
38131W        W 1855  24.516  23.190  14.006
38132W        W 1856   9.356  33.874  11.548
38133W        W 1857  19.252   6.422   1.837
38134W        W 1858  17.701  29.033   0.464
38135W        W 1859  44.815  44.761  11.963
38136W        W 1860  31.420   9.871   4.352
38137W        W 1861  30.078  38.374   0.275
38138W        W 1862  27.614  33.935  12.980
38139W        W 1863   3.882   7.356  10.933
38140W        W 1864  34.485  19.553   1.910
38141W        W 1865  37.411   7.349  13.944
38142W        W 1866  42.931  19.759  13.801
38143W        W 1867  28.526   0.870   2.195
38144W        W 1868  23.099  16.096  14.312
38145W        W 1869  39.908  18.151   2.686
38146W        W 1870  19.651  19.179   2.280
38147W        W 1871  15.791   4.821   3.220
38148W        W 1872  33.385  16.166   4.239
38149W        W 1873  11.825   2.793  11.036
38150W        W 1874   6.732  16.265  10.563
38151W        W 1875  33.472  39.410  12.571
38152W        W 1876   5.727   8.275  12.497
38153W        W 1877  23.536  37.893   3.354
38154W        W 1878  24.059  33.505   4.702
38155W        W 1879  12.831  25.646  13.975
38156W        W 1880  24.660  34.984   2.825
38157W        W 1881  21.065  11.860   5.294
38158W        W 1882  26.555  37.030  14.808
38159W        W 1883  22.186  40.523   3.797
38160W        W 1884   2.802  40.442  11.968
38161W        W 1885  20.034  40.308   0.948
38162W        W 1886  33.875   4.248   3.373
38163W        W 1887   2.391   7.675   0.297
38164W        W 1888   8.227  36.591   0.383
38165W        W 1889   4.848  39.954   2.419
38166W        W 1890  38.982  11.864   2.269
38167W        W 1891  42.498  25.523   1.860
38168W        W 1892  15.083   8.892   2.782
38169W        W 1893  14.831  29.148   2.385
38170W        W 1894   9.189  14.704   1.309
38171W        W 1895   6.387   1.335   3.718
38172W        W 1896  14.239  37.551   1.242
38173W        W 1897  40.358  22.639  11.100
38174W        W 1898  14.831  30.079  13.311
38175W        W 1899   5.864  25.091  13.864
38176W        W 1900  44.395  21.205  11.567
38177W        W 1901  39.908   5.776   1.923
38178W        W 1902  36.907  19.758  14.419
38179W        W 1903  41.531  17.680   0.298
38180W        W 1904  21.536  31.015   3.721
38181W        W 1905  18.126  42.784   1.261
38182W        W 1906  41.974  36.027   1.713
38183W        W 1907  36.446   5.369   4.219
38184W        W 1908  27.613  40.837   4.160
38185W        W 1909  21.180  21.716  13.063
38186W        W 1910  37.843  36.843   1.446
38187W        W 1911   6.399  32.069   1.717
38188W        W 1912  20.542  40.036  10.601
38189W        W 1913  15.621  36.854   0.379
38190W        W 1914  15.669  38.068  10.422
38191W        W 1915  22.008  35.891  12.545
38192W        W 1916  42.821  31.582  14.856
38193W        W 1917  23.131   4.327   3.160
38194W        W 1918  21.081  13.644   0.897
38195W        W 1919   8.214  33.422   2.823
38196W        W 1920  35.024  15.166   5.731
38197W        W 1921  44.435   5.299  12.826
38198W        W 1922   0.338  27.575  14.924
38199W        W 1923   3.404  26.666  14.901
38200W        W 1924   0.356  26.535   1.744
38201W        W 1925   2.884   8.770  13.891
38202W        W 1926  35.401  11.731   4.143
38203W        W 1927  17.072  36.970   4.118
38204W        W 1928  37.553  29.029  10.437
38205W        W 1929  35.916   7.308   3.288
38206W        W 1930  30.013  42.915   4.695
38207W        W 1931  34.996  41.412  10.090
38208W        W 1932  19.744  35.040  14.002
38209W        W 1933   6.269  25.472   1.269
38210W        W 1934  11.627  25.468   3.672
38211W        W 1935  34.527  23.030   4.639
38212W        W 1936  36.404  10.263  14.851
38213W        W 1937  16.079  30.517  14.798
38214W        W 1938   2.793  33.970  12.445
38215W        W 1939  19.216  36.084  12.055
38216W        W 1940   3.776  11.755  14.474
38217W        W 1941  43.010  17.239  14.976
38218W        W 1942  32.992  37.957  13.465
38219W        W 1943  31.984  34.517  11.034
38220W        W 1944  16.702  35.379  10.918
38221W        W 1945  39.472   4.414   1.896
38222W        W 1946  43.877   0.986  11.468
38223W        W 1947  40.486   1.315   0.281
38224W        W 1948   5.760  14.745   4.326
38225W        W 1949  20.052  43.856   1.699
38226W        W 1950  35.857  41.456  13.368
38227W        W 1951  36.847  15.799  11.010
38228W        W 1952  29.080  19.682  12.049
38229W        W 1953  43.011   4.442   3.854
38230W        W 1954   3.287  43.360  12.091
38231W        W 1955  17.133  24.632   0.422
38232W        W 1956   0.449  18.572   1.730
38233W        W 1957   4.355   1.395  14.408
38234W        W 1958  27.042   7.330   0.352
38235W        W 1959  22.640  24.979   2.394
38236W        W 1960  23.547   1.886   2.902
38237W        W 1961  19.621  23.236   2.329
38238W        W 1962  25.587   8.263  14.378
38239W        W 1963  42.831   2.337  10.431
38240W        W 1964   7.386   3.365   4.674
38241W        W 1965  34.108  35.106  10.960
38242W        W 1966  16.671   3.231  14.488
38243W        W 1967   1.834  33.425   4.244
38244W        W 1968   8.396  34.948   2.294
38245W        W 1969  20.110   2.852   3.161
38246W        W 1970   1.367   0.744   0.440
38247W        W 1971  12.249  15.653  11.502
38248W        W 1972  29.464   3.858   0.474
38249W        W 1973   2.314  13.823   4.222
38250W        W 1974   2.785  21.725   0.907
38251W        W 1975  32.482  26.097   4.641
38252W        W 1976  34.500  38.357  13.491
38253W        W 1977  18.118   4.892   4.330
38254W        W 1978  25.699  36.967   2.397
38255W        W 1979  31.986   6.921  11.590
38256W        W 1980  30.038  22.706  10.999
38257W        W 1981  18.598  16.711   1.723
38258W        W 1982  25.561  33.425  11.078
38259W        W 1983  29.552  20.750   3.272
38260W        W 1984  13.240  17.305  11.469
38261W        W 1985  38.033  43.291   2.895
38262W        W 1986  35.443  38.051  13.930
38263W        W 1987  23.137   5.344  12.832
38264W        W 1988   0.430   0.477   4.211
38265W        W 1989   6.195   6.816  12.944
38266W        W 1990   7.899  38.488  11.526
38267W        W 1991  19.714   9.674   2.419
38268W        W 1992  41.873  27.168  12.071
38269W        W 1993  12.246  41.790  11.944
38270W        W 1994  12.117   2.923   0.808
38271W        W 1995  41.787  38.032  12.447
38272W        W 1996  16.696   9.265   0.438
38273W        W 1997  28.107  44.421   3.300
38274W        W 1998   7.178  23.984  12.551
38275W        W 1999  26.631  13.236   3.667
38276W        W 2000  43.817  10.867   2.708
38277W        W 2001  25.029  36.093  11.427
38278W        W 2002  20.202  42.472   2.803
38279W        W 2003  30.082  32.097   1.279
38280W        W 2004  14.700  14.199   0.433
38281W        W 2005  26.060  27.050   5.652
38282W        W 2006  40.861  18.170   0.936
38283W        W 2007  35.041   4.245  10.468
38284W        W 2008   3.239  19.153  11.087
38285W        W 2009  10.139  34.436  14.006
38286W        W 2010  25.089   1.867  11.590
38287W        W 2011   5.405   4.793   4.640
38288W        W 2012  41.026  39.323   2.844
38289W        W 2013  36.079  24.706   3.243
38290W        W 2014  31.920  26.969   1.334
38291W        W 2015  22.688   9.768   0.864
38292W        W 2016  21.733  40.803  10.609
38293W        W 2017  35.502  29.153  14.502
38294W        W 2018  27.678   2.894  14.010
38295W        W 2019  28.005   1.777  11.488
38296W        W 2020  14.240  14.294  10.497
38297W        W 2021   7.791  38.820  13.992
38298W        W 2022  43.276   9.861  13.054
38299W        W 2023  18.699   6.303  12.956
38300W        W 2024  13.774   9.161   4.222
38301W        W 2025   8.211  12.645  13.974
38302W        W 2026  14.642   3.247  14.310
38303W        W 2027   5.410  15.812   1.269
38304W        W 2028  43.913  40.966   1.215
38305W        W 2029   7.298  42.839  14.822
38306W        W 2030  32.053  11.183  12.401
38307W        W 2031   6.702  23.526  11.421
38308W        W 2032  24.660  33.044  13.399
38309W        W 2033  40.430  18.726   5.091
38310W        W 2034  27.067  36.960  13.844
38311W        W 2035  37.525  44.938   2.696
38312W        W 2036  18.775  25.974   0.281
38313W        W 2037  24.110  39.830   2.726
38314W        W 2038   3.802  20.532   1.440
38315W        W 2039   1.319   1.353  11.943
38316W        W 2040  42.951  28.023   1.752
38317W        W 2041   2.873  19.671  12.394
38318W        W 2042  39.817  44.833  11.422
38319W        W 2043  31.940   6.891  13.999
38320W        W 2044  42.870  44.944  13.856
38321W        W 2045  24.696  10.869   9.651
38322W        W 2046  11.342  14.783   2.386
38323W        W 2047  40.840  27.626  12.913
38324W        W 2048   3.732  39.888   2.901
38325W        W 2049   4.914   2.905  11.874
38326W        W 2050  24.055   9.168  13.019
38327W        W 2051  33.517  36.919   3.673
38328W        W 2052  37.472  44.360  14.425
38329W        W 2053   2.731   2.452   4.708
38330W        W 2054   8.764  23.694  14.389
38331W        W 2055  30.946  16.154   1.898
38332W        W 2056  28.132  24.115   0.483
38333W        W 2057  17.227  43.338   4.660
38334W        W 2058  11.224  25.622  11.524
38335W        W 2059  16.176  20.245  12.859
38336W        W 2060  28.607  13.191   1.234
38337W        W 2061  31.488  30.073   2.690
38338W        W 2062   0.854  13.231   0.769
38339W        W 2063  41.863  39.508   3.644
38340W        W 2064   4.909  29.435  14.951
38341W        W 2065  21.718  33.051  13.381
38342W        W 2066  21.136  35.490   2.233
38343W        W 2067  20.271  18.156  13.530
38344W        W 2068  27.564  11.866   3.148
38345W        W 2069  19.596  11.665   0.848
38346W        W 2070  36.970   9.196   2.758
38347W        W 2071  42.846   6.692   0.339
38348W        W 2072  15.262  19.241   4.660
38349W        W 2073  28.606   4.752  12.869
38350W        W 2074  11.748   4.813  14.417
38351W        W 2075  26.468  11.749   4.241
38352W        W 2076  25.629  14.179  12.089
38353W        W 2077  42.470  20.525   4.702
38354W        W 2078  28.455  24.174  14.998
38355W        W 2079   0.336  12.216  12.879
38356W        W 2080  27.508  33.000  10.570
38357W        W 2081  44.317   5.728   4.612
38358W        W 2082  23.077  27.591  11.510
38359W        W 2083   5.691  36.009  11.994
38360W        W 2084  41.420  10.275  11.483
38361W        W 2085  32.624  24.224   0.818
38362W        W 2086   0.850  20.531  12.829
38363W        W 2087  26.495   9.162  14.795
38364W        W 2088  42.938  26.474   2.341
38365W        W 2089   5.286   0.362   2.409
38366W        W 2090  34.569  34.071   0.828
38367W        W 2091  12.126  14.672   2.263
38368W        W 2092  30.088  14.738   4.159
38369W        W 2093  22.231   5.372   3.181
38370W        W 2094  41.465  17.294   4.721
38371W        W 2095  20.093  43.318  10.412
38372W        W 2096  39.457   1.319   2.216
38373W        W 2097  33.908   9.749  12.505
38374W        W 2098  18.169  14.754   1.727
38375W        W 2099  26.961  12.661   3.742
38376W        W 2100  38.891  31.132  13.527
38377W        W 2101  20.097   4.340   1.371
38378W        W 2102  33.384  24.608   0.442
38379W        W 2103  31.409  31.075   1.892
38380W        W 2104  24.101  34.927   1.448
38381W        W 2105  32.985  36.439  11.884
38382W        W 2106   8.800  18.557   1.296
38383W        W 2107  18.102  41.835   3.834
38384W        W 2108  15.325  25.618   2.200
38385W        W 2109   2.250  25.973   1.279
38386W        W 2110  18.098  13.296   0.849
38387W        W 2111   0.368  44.807   1.344
38388W        W 2112   9.789  11.713   4.810
38389W        W 2113  23.068  27.957  11.959
38390W        W 2114  44.814  44.002   0.872
38391W        W 2115  43.307  25.506   2.268
38392W        W 2116  39.817  26.600   0.340
38393W        W 2117  35.931  25.015  11.400
38394W        W 2118   5.344  39.484  10.441
38395W        W 2119  16.789   2.408  13.043
38396W        W 2120   6.818  44.848  13.832
38397W        W 2121  22.018   3.798   4.741
38398W        W 2122  11.160  16.689   1.282
38399W        W 2123  40.413  26.677   1.733
38400W        W 2124   3.874  14.752   0.243
38401W        W 2125  44.997  39.860   3.791
38402W        W 2126   2.472   8.325  13.407
38403W        W 2127  43.372   0.341  12.442
38404W        W 2128  25.030   7.747  14.279
38405W        W 2129  28.980  10.311   1.313
38406W        W 2130   4.884  14.770  14.399
38407W        W 2131  15.090  10.649   0.277
38408W        W 2132  29.441   1.953  12.049
38409W        W 2133  35.960  27.494   1.788
38410W        W 2134  20.630  24.542  12.404
38411W        W 2135  27.055   9.374   4.292
38412W        W 2136  43.782   0.356   3.299
38413W        W 2137   2.919  44.504   4.345
38414W        W 2138  36.359  34.934   3.146
38415W        W 2139  44.832  23.583   1.430
38416W        W 2140  43.855  31.037  14.806
38417W        W 2141  30.625  39.946  13.928
38418W        W 2142  21.641  14.639   0.781
38419W        W 2143  20.609  11.662   2.811
38420W        W 2144  31.976  40.537  14.879
38421W        W 2145  36.970  27.630   1.792
38422W        W 2146  38.068  19.060   3.658
38423W        W 2147  22.611  12.847   1.860
38424W        W 2148  36.540  27.495   4.179
38425W        W 2149   1.323  14.128   4.194
38426W        W 2150  28.105  43.399   0.280
38427W        W 2151  10.740  25.538  11.543
38428W        W 2152  38.820  14.298   0.397
38429W        W 2153   1.279   5.890  10.919
38430W        W 2154  28.107  15.818  10.900
38431W        W 2155  43.288   5.753   1.916
38432W        W 2156  37.863   2.270  12.888
38433W        W 2157   2.827   9.225   3.736
38434W        W 2158  39.541  23.198  10.912
38435W        W 2159  41.909  27.169  12.917
38436W        W 2160  35.385  10.300   4.604
38437W        W 2161  37.919   0.974  14.323
38438W        W 2162   9.329  40.536   1.229
38439W        W 2163  39.332   6.357   2.283
38440W        W 2164   9.787   6.718  12.361
38441W        W 2165  34.385   1.388  13.365
38442W        W 2166   0.818  34.395   2.867
38443W        W 2167  34.580  33.884   2.846
38444W        W 2168  33.432  31.021  13.440
38445W        W 2169  40.475  15.267   4.341
38446W        W 2170  30.051  30.080  14.291
38447W        W 2171   9.253  27.077   4.330
38448W        W 2172   5.246  24.999  14.467
38449W        W 2173  18.192  32.103   3.652
38450W        W 2174  26.633  37.449  14.957
38451W        W 2175  18.166  12.272  11.065
38452W        W 2176   4.909   2.963   0.471
38453W        W 2177   9.335  37.984   2.386
38454W        W 2178  38.431  38.935   4.625
38455W        W 2179  39.980  25.613  11.511
38456W        W 2180  43.894   7.310  10.531
38457W        W 2181  16.126   7.759  12.467
38458W        W 2182  25.028  17.166   0.376
38459W        W 2183  38.845  17.238   5.103
38460W        W 2184  44.814  38.989   1.791
38461W        W 2185  20.618  15.131   1.725
38462W        W 2186  17.120  23.633   2.773
38463W        W 2187  37.376  36.967  13.973
38464W        W 2188  29.576  43.476  11.381
38465W        W 2189   0.400  17.154  11.043
38466W        W 2190  41.029   4.337   4.309
38467W        W 2191   3.823  34.094  13.863
38468W        W 2192  13.218  18.132   5.279
38469W        W 2193  27.978   1.291   4.237
38470W        W 2194  12.219   5.892  11.579
38471W        W 2195   1.420  23.517  11.476
38472W        W 2196  18.757   3.246   9.958
38473W        W 2197  39.824  27.955   3.345
38474W        W 2198  21.634  35.876   2.694
38475W        W 2199   0.291   8.163  12.442
38476W        W 2200   5.851  32.914   0.481
38477W        W 2201  18.562  15.627   3.871
38478W        W 2202  20.127   9.347   0.816
38479W        W 2203   7.325  16.680  12.874
38480W        W 2204  23.610  25.994  11.458
38481W        W 2205  32.494  10.736   0.886
38482W        W 2206  29.097  12.335   4.748
38483W        W 2207  13.657   5.202   1.320
38484W        W 2208  15.622  30.093  11.503
38485W        W 2209  38.958  44.976  11.063
38486W        W 2210  39.414   9.195  10.890
38487W        W 2211   8.842  39.036  12.999
38488W        W 2212   1.926  14.178  14.443
38489W        W 2213  19.066  13.633   5.645
38490W        W 2214  40.798  43.966   2.214
38491W        W 2215  29.631  16.724  13.544
38492W        W 2216  41.862  39.991  11.381
38493W        W 2217  38.957  38.399  11.549
38494W        W 2218  27.052  29.487   4.337
38495W        W 2219  33.464  11.162  14.391
38496W        W 2220   2.293  21.184   0.440
38497W        W 2221  42.340   9.253  12.001
38498W        W 2222  43.430  13.662   4.739
38499W        W 2223  31.507   3.323  10.950
38500W        W 2224  37.514  22.656   3.866
38501W        W 2225  10.791  15.264  12.901
38502W        W 2226  14.647  29.033   1.257
38503W        W 2227  35.425  38.336   4.741
38504W        W 2228  35.857  10.688  12.508
38505W        W 2229  32.449  22.639   1.742
38506W        W 2230  29.466  31.477   3.655
38507W        W 2231  32.419  14.729   0.413
38508W        W 2232  30.116   6.722   4.174
38509W        W 2233  23.500  31.477   4.792
38510W        W 2234  16.771  35.939  10.963
38511W        W 2235  42.890  34.388  13.518
38512W        W 2236   9.325   8.286   1.269
38513W        W 2237   6.316  14.294  13.877
38514W        W 2238  29.098   4.351   2.192
38515W        W 2239  19.540  13.737   1.347
38516W        W 2240  30.519   5.383   3.658
38517W        W 2241  13.819  32.942  13.483
38518W        W 2242  13.147  33.566   2.823
38519W        W 2243   1.827  31.490  10.590
38520W        W 2244  14.661  28.650   1.817
38521W        W 2245  19.044  23.643   1.780
38522W        W 2246   1.321  38.057  12.043
38523W        W 2247   3.415  25.547   4.338
38524W        W 2248  26.566   6.266  13.485
38525W        W 2249  39.875  15.752  13.056
38526W        W 2250  41.387  24.666   4.795
38527W        W 2251  39.413   5.854   2.207
38528W        W 2252  28.469   7.192   2.393
38529W        W 2253  30.919  19.246   4.309
38530W        W 2254  12.345  37.065   4.653
38531W        W 2255  16.802  38.540   0.943
38532W        W 2256  43.926  13.678   1.237
38533W        W 2257  32.126  37.860  14.995
38534W        W 2258   8.824   5.262   0.827
38535W        W 2259   3.331  19.133   3.788
38536W        W 2260   1.966  36.060  10.488
38537W        W 2261   8.347   3.722  12.580
38538W        W 2262   2.732  40.884   0.825
38539W        W 2263  20.113  10.374  14.003
38540W        W 2264   4.440  34.588  12.879
38541W        W 2265  42.996  23.695  12.840
38542W        W 2266  22.551   0.258  12.476
38543W        W 2267  18.188  36.523   4.757
38544W        W 2268  19.188  36.399  13.963
38545W        W 2269  19.059  19.251  13.308
38546W        W 2270   6.749  25.589  14.360
38547W        W 2271  42.947  19.533  10.952
38548W        W 2272  12.804   8.853  12.489
38549W        W 2273  18.682  10.819   4.299
38550W        W 2274   0.886  18.782  13.972
38551W        W 2275  43.976  35.534   2.782
38552W        W 2276  22.547  12.131   0.733
38553W        W 2277  23.012  30.564   0.260
38554W        W 2278  15.217  23.997   3.285
38555W        W 2279   8.391   7.685   2.204
38556W        W 2280  21.738   5.835   0.375
38557W        W 2281  28.624  41.858   0.349
38558W        W 2282   4.421  41.974   3.216
38559W        W 2283   7.388   7.850   2.190
38560W        W 2284   8.883  28.047  12.464
38561W        W 2285   5.837  35.482  14.964
38562W        W 2286   6.690  39.543  14.936
38563W        W 2287  43.307  26.982   1.316
38564W        W 2288  32.637  32.965  11.127
38565W        W 2289  13.241  44.815  13.018
38566W        W 2290  23.591  21.185   0.387
38567W        W 2291  20.552  11.762   0.372
38568W        W 2292  24.648   4.718  12.453
38569W        W 2293   9.647  34.457   1.351
38570W        W 2294  36.973  37.045  11.931
38571W        W 2295  43.412  19.642   5.318
38572W        W 2296   9.355  33.903   0.948
38573W        W 2297  40.388  12.844  12.919
38574W        W 2298   7.397  37.043   1.419
38575W        W 2299  31.502  15.277   9.541
38576W        W 2300  12.148  40.017   0.816
38577W        W 2301  19.584  16.181  10.620
38578W        W 2302  31.500  36.062  14.314
38579W        W 2303  29.625  23.127  11.584
38580W        W 2304  18.579  25.083   4.767
38581W        W 2305  13.340  25.060   4.700
38582W        W 2306  18.665  41.806   0.738
38583W        W 2307  30.594  10.699  10.465
38584W        W 2308   7.681  15.812   4.154
38585W        W 2309  40.961  22.668  12.351
38586W        W 2310  31.607  21.756  12.048
38587W        W 2311  40.009  12.197   1.840
38588W        W 2312  18.056   8.393  11.604
38589W        W 2313  33.593  38.352   1.274
38590W        W 2314  28.010  35.483   0.743
38591W        W 2315   9.195  10.199  14.450
38592W        W 2316  20.767  14.134   4.837
38593W        W 2317  42.336  39.551  14.391
38594W        W 2318   7.731   1.460   4.804
38595W        W 2319  36.000  38.910   1.802
38596W        W 2320  38.010   6.832  13.016
38597W        W 2321  26.013  28.435   0.878
38598W        W 2322  37.577   7.303  12.983
38599W        W 2323  34.378   1.932  13.522
38600W        W 2324  37.407   5.851  14.904
38601W        W 2325  12.136  42.801   1.396
38602W        W 2326  12.331  15.299   1.789
38603W        W 2327  32.481  24.687   4.814
38604W        W 2328   4.837   6.338  13.946
38605W        W 2329  13.311  28.931   4.154
38606W        W 2330  36.477   9.223  13.329
38607W        W 2331   5.215  18.094   3.631
38608W        W 2332  15.158  19.777  13.937
38609W        W 2333   6.810  12.693   0.738
38610W        W 2334  43.375  28.517   4.183
38611W        W 2335  44.461  44.948   1.706
38612W        W 2336  23.189  28.605   2.765
38613W        W 2337  40.942   6.849   4.721
38614W        W 2338   5.227  27.481  13.986
38615W        W 2339  42.372  36.555   2.419
38616W        W 2340   1.343   2.297   1.819
38617W        W 2341  10.710   6.302  14.404
38618W        W 2342  33.076  22.028  14.495
38619W        W 2343  19.163  28.545  10.457
38620W        W 2344  25.212  35.892  10.508
38621W        W 2345  23.089  13.113  11.582
38622W        W 2346  26.974   1.907  11.956
38623W        W 2347  29.010  37.497   1.789
38624W        W 2348  37.890  32.986   4.291
38625W        W 2349  27.188  33.036  14.288
38626W        W 2350  25.578  23.726   2.744
38627W        W 2351  12.248   0.419  10.890
38628W        W 2352  34.465  40.973  13.041
38629W        W 2353  12.692  29.117  11.937
38630W        W 2354  24.625  37.504   0.880
38631W        W 2355  29.485   2.806   4.214
38632W        W 2356  38.067   9.684   4.355
38633W        W 2357  31.590  23.141  11.877
38634W        W 2358  43.843  34.462   1.334
38635W        W 2359   0.274   7.666   1.736
38636W        W 2360  12.180  30.516  14.820
38637W        W 2361   3.806  27.561  12.064
38638W        W 2362   6.313  10.333   2.729
38639W        W 2363  31.135  33.066   1.858
38640W        W 2364   3.295  20.082  14.945
38641W        W 2365  26.140  42.341  14.843
38642W        W 2366  44.305   1.924   3.853
38643W        W 2367   9.171  24.088   1.701
38644W        W 2368  32.447  43.839  13.917
38645W        W 2369  35.524   0.401  14.450
38646W        W 2370   8.287  33.935  11.045
38647W        W 2371  39.342   3.864   0.757
38648W        W 2372   8.870  24.211   3.331
38649W        W 2373  35.912  10.299  12.932
38650W        W 2374  39.447  33.973   1.432
38651W        W 2375  21.652  31.556  13.339
38652W        W 2376   8.681  26.591   5.255
38653W        W 2377  29.086  19.144   0.483
38654W        W 2378  33.621  21.067   0.781
38655W        W 2379  19.112  25.714  11.052
38656W        W 2380  39.413  14.243  11.437
38657W        W 2381  31.945  25.103   1.442
38658W        W 2382   3.311   1.805  10.514
38659W        W 2383  42.862  44.289   0.271
38660W        W 2384  29.944  24.060  10.476
38661W        W 2385  27.663   6.247  11.585
38662W        W 2386  17.795   4.306  11.567
38663W        W 2387  23.643  32.112  14.340
38664W        W 2388  36.032   4.900   4.266
38665W        W 2389   3.862  36.845  12.371
38666W        W 2390  42.824   0.805  12.092
38667W        W 2391  22.168  42.855   5.086
38668W        W 2392  19.053  41.380  11.080
38669W        W 2393  28.621  22.047  13.452
38670W        W 2394  25.150  30.522   4.792
38671W        W 2395  31.980  33.499  12.482
38672W        W 2396  44.951  25.482  12.922
38673W        W 2397  11.757  17.604   4.293
38674W        W 2398  39.026  16.193   3.385
38675W        W 2399  44.792   1.390   3.179
38676W        W 2400  43.925  29.441  11.568
38677W        W 2401  30.532  36.478   1.739
38678W        W 2402  13.337  29.921  12.557
38679W        W 2403  25.637  19.650  13.861
38680W        W 2404  40.932  32.028  12.482
38681W        W 2405  26.092  19.707   0.784
38682W        W 2406  29.040  12.835  11.010
38683W        W 2407  44.761  35.540   3.146
38684W        W 2408  35.384   8.793   0.953
38685W        W 2409  32.445  20.707  13.871
38686W        W 2410  35.895   5.869   1.333
38687W        W 2411  15.153  13.142   0.385
38688W        W 2412   0.964   1.749  12.538
38689W        W 2413  31.590   5.701  13.977
38690W        W 2414  18.233  37.929  12.576
38691W        W 2415  29.434  38.977  14.497
38692W        W 2416  12.297   6.878  13.959
38693W        W 2417  12.320  29.104   1.744
38694W        W 2418  44.799  15.751  13.394
38695W        W 2419  35.547  38.940   0.335
38696W        W 2420  27.995  29.493   3.328
38697W        W 2421  40.026   9.279  10.419
38698W        W 2422  33.053   0.457   2.223
38699W        W 2423   1.405  39.325   4.132
38700W        W 2424  23.574  22.147  13.325
38701W        W 2425  42.497  43.810  12.437
38702W        W 2426  23.544  36.036   1.292
38703W        W 2427   1.436  16.192   3.191
38704W        W 2428  31.041  20.661  11.433
38705W        W 2429  16.804  43.782   2.263
38706W        W 2430  23.092  15.671  11.379
38707W        W 2431  11.850  32.113  11.920
38708W        W 2432  42.474  34.477  11.561
38709W        W 2433  33.131  36.413  12.486
38710W        W 2434  34.396   5.195  12.344
38711W        W 2435  35.519   5.246  10.888
38712W        W 2436  12.193  13.763  13.918
38713W        W 2437  15.113   0.751  12.921
38714W        W 2438  35.420  29.638   4.812
38715W        W 2439   1.400   2.246   0.808
38716W        W 2440  23.228  17.167   3.764
38717W        W 2441  44.408  11.846   4.667
38718W        W 2442  16.203   0.884  12.540
38719W        W 2443   3.428  35.852   0.941
38720W        W 2444  15.196  21.616  14.779
38721W        W 2445  10.246  23.077   0.442
38722W        W 2446  34.014  38.868   0.759
38723W        W 2447   6.412  18.691  12.027
38724W        W 2448   2.900   5.775  13.927
38725W        W 2449  12.357  41.870   2.304
38726W        W 2450   2.816  29.070  13.891
38727W        W 2451  31.087  18.123  14.936
38728W        W 2452  14.274   7.726  10.631
38729W        W 2453  26.668   6.199  12.942
38730W        W 2454   3.287  39.451   0.333
38731W        W 2455   9.213  10.368   3.230
38732W        W 2456   3.943  38.913  12.568
38733W        W 2457   3.337  31.599   0.243
38734W        W 2458  41.001  34.875   2.796
38735W        W 2459  29.618  25.513   3.767
38736W        W 2460  24.684   8.334  14.487
38737W        W 2461  14.757  38.952  11.526
38738W        W 2462  15.732  28.005  13.030
38739W        W 2463   6.204  29.050  14.938
38740W        W 2464   5.908  12.748  13.023
38741W        W 2465  23.622  31.983  11.598
38742W        W 2466   5.371  25.061   3.275
38743W        W 2467  21.188  15.252   2.355
38744W        W 2468  11.187  20.197   3.192
38745W        W 2469  42.808  28.459  13.985
38746W        W 2470  10.735   0.846  12.466
38747W        W 2471  20.111  24.555   0.854
38748W        W 2472   9.857  17.228  11.101
38749W        W 2473  34.044  41.039  13.452
38750W        W 2474  19.622  31.440  13.992
38751W        W 2475   2.943  14.337   3.261
38752W        W 2476  35.563  29.935   1.860
38753W        W 2477  28.453  42.971   2.233
38754W        W 2478  44.286  11.309  10.487
38755W        W 2479  13.155   6.769  12.946
38756W        W 2480  23.575  41.823   9.601
38757W        W 2481  36.905  17.093  14.369
38758W        W 2482   4.734   2.422  13.445
38759W        W 2483  14.723  34.108  11.905
38760W        W 2484  30.493  18.241   2.405
38761W        W 2485  41.877   6.331   2.671
38762W        W 2486  25.664  34.885  10.918
38763W        W 2487  39.037  26.694   1.269
38764W        W 2488  29.564  31.144   3.373
38765W        W 2489  36.079  17.079   1.774
38766W        W 2490   8.657  21.687   2.833
38767W        W 2491  34.446  30.470  11.448
38768W        W 2492   3.736  19.724  10.940
38769W        W 2493  36.979  30.629   3.845
38770W        W 2494  42.968  43.882   4.623
38771W        W 2495  38.419  21.546  11.524
38772W        W 2496  15.270  25.198   1.261
38773W        W 2497  12.190  38.996   2.680
38774W        W 2498   3.945  17.615  14.434
38775W        W 2499  18.755  16.253  10.479
38776W        W 2500  15.325   3.712   2.268
38777W        W 2501  36.347  26.621   3.836
38778W        W 2502  32.927  11.859  11.059
38779W        W 2503  14.688  44.925   4.250
38780W        W 2504  43.840   5.833   3.817
38781W        W 2505  44.892  30.418  12.380
38782W        W 2506  43.281   2.430  10.954
38783W        W 2507  18.595  42.893   4.154
38784W        W 2508  28.949  23.539   2.308
38785W        W 2509  19.664  20.643   0.364
38786W        W 2510  20.251  19.646  11.437
38787W        W 2511   8.859  16.724   1.211
38788W        W 2512  23.517  10.147   1.858
38789W        W 2513   9.830  29.030   3.768
38790W        W 2514  25.064   2.940  11.567
38791W        W 2515   4.936  19.684  10.525
38792W        W 2516  37.877   1.816   4.241
38793W        W 2517  39.506  14.248  13.035
38794W        W 2518  41.429  20.566  11.855
38795W        W 2519  40.901  20.538   1.922
38796W        W 2520  23.697  16.086  12.091
38797W        W 2521  26.671  16.676  12.446
38798W        W 2522  33.061  19.048   2.208
38799W        W 2523   7.745  37.557   1.911
38800W        W 2524  34.558  38.910   1.891
38801W        W 2525   6.391  19.703   4.750
38802W        W 2526  11.802   0.477   2.869
38803W        W 2527  33.023  11.770  13.051
38804W        W 2528  15.665  11.260  13.876
38805W        W 2529  10.795  14.211   1.269
38806W        W 2530  12.331  31.428   2.357
38807W        W 2531  13.348  20.123   4.129
38808W        W 2532   7.708  27.163  11.485
38809W        W 2533  44.938   8.753  12.003
38810W        W 2534  10.712  26.638   0.351
38811W        W 2535  35.361   3.215   0.933
38812W        W 2536  29.460  38.945   1.278
38813W        W 2537   8.187  14.254   4.673
38814W        W 2538  27.513  38.406  12.348
38815W        W 2539  34.387  38.001  11.038
38816W        W 2540  22.233  41.925   3.824
38817W        W 2541  32.141  18.277  12.990
38818W        W 2542  11.340  33.895  14.805
38819W        W 2543   6.698  27.062  10.622
38820W        W 2544  20.541   4.859  13.485
38821W        W 2545  15.305  11.697  14.368
38822W        W 2546   9.850  14.719  12.542
38823W        W 2547   4.788  14.723  13.478
38824W        W 2548  10.227  19.284  13.046
38825W        W 2549  33.524   1.387  11.492
38826W        W 2550  12.623  31.016  11.423
38827W        W 2551  35.889  29.455  13.417
38828W        W 2552   7.416  26.011   4.138
38829W        W 2553   7.259  40.424   3.298
38830W        W 2554  21.117  27.018   1.696
38831W        W 2555  11.205  19.214   3.737
38832W        W 2556  13.703  14.646   2.870
38833W        W 2557  32.940  26.077  10.567
38834W        W 2558   9.780  35.463   0.259
38835W        W 2559   6.187   7.293  11.891
38836W        W 2560   2.938  29.560   2.686
38837W        W 2561   0.899  23.660  10.464
38838W        W 2562   7.282  41.470   2.775
38839W        W 2563  12.129  38.972  12.058
38840W        W 2564  39.538  29.427   4.629
38841W        W 2565  17.197  38.853   3.647
38842W        W 2566  44.422   3.399   3.784
38843W        W 2567   7.406  22.607  13.033
38844W        W 2568  10.335  12.654  12.506
38845W        W 2569  26.003   3.944  11.608
38846W        W 2570  20.598  17.718   3.249
38847W        W 2571   9.683  31.533  10.930
38848W        W 2572  20.638   7.911   0.340
38849W        W 2573  31.920  42.986   4.735
38850W        W 2574  24.483  29.091  12.349
38851W        W 2575  37.542  34.925   5.146
38852W        W 2576   1.743  17.217  10.967
38853W        W 2577  12.135  18.580  13.447
38854W        W 2578  17.142  11.336   4.305
38855W        W 2579  41.374  41.446   3.690
38856W        W 2580  25.649  42.923   3.716
38857W        W 2581  20.733  23.509   3.845
38858W        W 2582  32.427  17.161   5.147
38859W        W 2583   7.840  22.523   3.785
38860W        W 2584  17.799  10.329  12.979
38861W        W 2585  43.309  19.698  12.916
38862W        W 2586   0.815   1.949  14.437
38863W        W 2587  42.421  12.196  14.770
38864W        W 2588   8.318  42.336   0.817
38865W        W 2589   6.798  33.940   4.165
38866W        W 2590  40.047  41.845  13.882
38867W        W 2591  14.763  35.364  14.898
38868W        W 2592  17.210   0.316   3.639
38869W        W 2593  23.212  41.381   0.279
38870W        W 2594  41.002  21.747  13.997
38871W        W 2595  40.475   1.276  13.821
38872W        W 2596  26.549  15.648   1.345
38873W        W 2597  35.388  29.170   0.928
38874W        W 2598   4.769  42.313  12.424
38875W        W 2599  33.119  31.009  14.996
38876W        W 2600  18.690  18.133  14.430
38877W        W 2601   7.254   7.681   3.640
38878W        W 2602  24.535  10.815   4.190
38879W        W 2603  21.745  26.956   2.859
38880W        W 2604  11.786  38.829   0.767
38881W        W 2605  19.163  41.458   2.271
38882W        W 2606  40.860  28.625   2.852
38883W        W 2607  34.043  13.663  10.897
38884W        W 2608  15.623  37.436   3.755
38885W        W 2609  28.584  28.553   2.755
38886W        W 2610  22.548  19.601  11.122
38887W        W 2611  17.250  14.784   3.645
38888W        W 2612  38.034  35.026   1.236
38889W        W 2613  37.942  34.380   3.718
38890W        W 2614  33.406  17.589  12.544
38891W        W 2615  42.297   6.688   2.366
38892W        W 2616  40.505  26.067   0.919
38893W        W 2617   9.288  39.016  12.926
38894W        W 2618  35.883  40.314   2.384
38895W        W 2619  31.614  11.189  13.351
38896W        W 2620   7.227   9.737  11.101
38897W        W 2621  35.897  27.171   2.299
38898W        W 2622  26.677  32.392  12.476
38899W        W 2623  28.595  14.144  14.837
38900W        W 2624  15.686   6.354   2.881
38901W        W 2625   5.818  27.964   4.288
38902W        W 2626   5.259  42.982   1.919
38903W        W 2627  42.416  36.441   9.555
38904W        W 2628  38.878  26.537  11.591
38905W        W 2629   0.837  20.523  10.928
38906W        W 2630   5.726  40.460  13.354
38907W        W 2631  24.222  37.887  13.897
38908W        W 2632  13.154  14.675  12.093
38909W        W 2633   9.323   7.266   1.390
38910W        W 2634  12.793  44.261   4.612
38911W        W 2635   5.227  25.622  14.820
38912W        W 2636  23.173  29.478   3.271
38913W        W 2637  26.589  25.621  12.562
38914W        W 2638  29.436   6.890   4.804
38915W        W 2639  39.439   2.865  13.984
38916W        W 2640  24.194   2.799  14.961
38917W        W 2641  35.944  12.261   0.305
38918W        W 2642  35.540   1.310   4.770
38919W        W 2643  43.828  40.506   4.185
38920W        W 2644  42.912  35.435  14.344
38921W        W 2645  30.637  42.947   4.673
38922W        W 2646   4.215  21.157   0.386
38923W        W 2647   2.307  16.087   1.752
38924W        W 2648  19.261  34.568  13.885
38925W        W 2649  34.596  44.260  14.778
38926W        W 2650   4.444  15.669   2.675
38927W        W 2651  15.759   1.784   0.863
38928W        W 2652  18.055   2.420  14.992
38929W        W 2653   0.881  13.238  12.944
38930W        W 2654   4.303  35.915   4.271
38931W        W 2655  38.883  43.285  12.854
38932W        W 2656  22.135  39.478  13.841
38933W        W 2657  16.190  10.140  14.961
38934W        W 2658  22.536  29.095   2.284
38935W        W 2659  29.019  19.580  13.892
38936W        W 2660   7.296  38.385  12.832
38937W        W 2661  14.172  21.194  12.920
38938W        W 2662  20.225  25.516  11.905
38939W        W 2663  10.216  13.269  14.794
38940W        W 2664  28.022   9.719   2.706
38941W        W 2665   8.353  31.037   4.303
38942W        W 2666  21.025  14.660   0.787
38943W        W 2667  15.166  36.352  14.787
38944W        W 2668  40.342  38.906   3.187
38945W        W 2669   1.748   3.926   4.329
38946W        W 2670  30.138   7.835  13.921
38947W        W 2671   0.253  20.765   2.777
38948W        W 2672  31.906  29.668  11.027
38949W        W 2673  27.496   6.274  12.537
38950W        W 2674  18.062   7.227  10.609
38951W        W 2675  10.235  40.981   3.852
38952W        W 2676  44.497   8.753  11.384
38953W        W 2677  32.440   1.300  11.912
38954W        W 2678  37.854   3.868   4.123
38955W        W 2679   8.884  14.614   1.917
38956W        W 2680  35.974  26.004  11.877
38957W        W 2681   5.380   7.843  10.556
38958W        W 2682  20.133   4.925  14.819
38959W        W 2683  13.308   6.223  10.894
38960W        W 2684  12.623  32.138   4.721
38961W        W 2685  16.096   6.725  12.868
38962W        W 2686  40.981  25.604  11.857
38963W        W 2687  34.892  35.593  13.389
38964W        W 2688  27.558   6.205  13.416
38965W        W 2689   4.324   0.796  13.384
38966W        W 2690  35.002   5.887  12.965
38967W        W 2691  42.280   6.422   3.839
38968W        W 2692   8.323  38.394   2.864
38969W        W 2693  38.548  37.384   0.735
38970W        W 2694   1.310  24.213   2.365
38971W        W 2695   3.259  32.983  14.356
38972W        W 2696  32.900  38.026   0.265
38973W        W 2697  13.275  18.081  13.461
38974W        W 2698  32.403  21.694  11.909
38975W        W 2699   8.266  44.326  14.296
38976W        W 2700  38.936  33.389  12.418
38977W        W 2701  20.222   5.203  11.520
38978W        W 2702  14.157  10.869   1.390
38979W        W 2703  34.937  42.331  11.077
38980W        W 2704   6.752  41.800  13.425
38981W        W 2705  37.875  13.613  12.388
38982W        W 2706  16.641   7.732  10.583
38983W        W 2707  30.453   4.373   2.191
38984W        W 2708  20.657   5.391   1.344
38985W        W 2709  18.218  13.779   4.125
38986W        W 2710  30.046  37.076  14.465
38987W        W 2711   2.848   8.186   0.342
38988W        W 2712  14.635   7.291  12.565
38989W        W 2713  23.202  37.033   3.344
38990W        W 2714  34.029  32.478   1.755
38991W        W 2715  35.591   1.450   2.693
38992W        W 2716  26.077  18.609   0.361
38993W        W 2717  33.033  16.756   2.389
38994W        W 2718   1.297  34.062   1.790
38995W        W 2719  21.658   2.938   2.858
38996W        W 2720  25.639   2.931   3.785
38997W        W 2721   5.895  15.232  13.365
38998W        W 2722  43.292  23.607  10.605
38999W        W 2723  20.574  15.685   2.707
39000W        W 2724   7.740  39.504  13.414
39001W        W 2725  35.097  21.643  11.588
39002W        W 2726  31.909  30.652   4.187
39003W        W 2727   0.302  19.715   1.243
39004W        W 2728  27.676  33.612   3.338
39005W        W 2729  23.144  39.970   5.680
39006W        W 2730  44.965  27.476  12.534
39007W        W 2731  24.096  16.715   0.799
39008W        W 2732  12.219  21.126  10.152
39009W        W 2733  21.104  17.175   2.322
39010W        W 2734   4.283  22.625   0.385
39011W        W 2735  19.625  18.296  11.930
39012W        W 2736  18.203  13.720  10.953
39013W        W 2737  24.097  32.496  10.147
39014W        W 2738  22.655   1.295   2.185
39015W        W 2739  20.145  23.125  13.030
39016W        W 2740  15.810  41.420   2.704
39017W        W 2741  30.095  31.149   4.346
39018W        W 2742  26.691   6.341  10.613
39019W        W 2743  36.952   6.343   0.817
39020W        W 2744   7.285  40.955   1.381
39021W        W 2745  17.766  17.734  13.791
39022W        W 2746  24.715  40.993   0.915
39023W        W 2747  30.011  40.971  13.350
39024W        W 2748   3.292  17.258   4.226
39025W        W 2749  30.412  40.356  13.901
39026W        W 2750  10.769  34.091  14.380
39027W        W 2751  37.464   7.375  11.391
39028W        W 2752   5.849   0.364   2.790
39029W        W 2753   3.303  33.046   1.355
39030W        W 2754  41.015  21.531   0.737
39031W        W 2755  11.302  40.032   4.251
39032W        W 2756   0.342  26.173  12.884
39033W        W 2757  15.267  19.757   4.334
39034W        W 2758  10.777   4.882   9.985
39035W        W 2759  42.859  30.438   2.305
39036W        W 2760  21.743  10.846   3.865
39037W        W 2761  30.083  36.992   2.243
39038W        W 2762   2.890  39.909  10.950
39039W        W 2763  44.437  20.534   0.770
39040W        W 2764  37.483  14.639   2.725
39041W        W 2765  14.329  33.103   1.719
39042W        W 2766  17.763  17.139   3.785
39043W        W 2767  39.003  13.165   3.847
39044W        W 2768  16.221  32.891   1.835
39045W        W 2769  36.354  40.906  10.910
39046W        W 2770  40.040  23.515   1.267
39047W        W 2771  42.011  19.639   4.766
39048W        W 2772   3.811  42.021   4.341
39049W        W 2773  42.943  24.200  13.491
39050W        W 2774  37.842  10.283   3.283
39051W        W 2775  27.554   6.858  10.072
39052W        W 2776   0.260  33.524  11.098
39053W        W 2777  14.151  12.738  12.953
39054W        W 2778  13.228  32.407  10.545
39055W        W 2779  25.609  37.411  10.019
39056W        W 2780  19.105  26.592   0.407
39057W        W 2781   3.243   8.734  12.054
39058W        W 2782  11.679  44.303  10.954
39059W        W 2783  40.907  39.932   0.768
39060W        W 2784  38.886  34.059  13.376
39061W        W 2785  29.074  11.190   2.683
39062W        W 2786  37.544  41.339   4.661
39063W        W 2787   0.950  18.707  12.948
39064W        W 2788  37.461  17.694   2.284
39065W        W 2789  27.098  10.269  10.603
39066W        W 2790  25.521  24.536  11.894
39067W        W 2791  24.182  32.543   3.727
39068W        W 2792  20.699  20.071  12.846
39069W        W 2793   7.722   2.867   0.335
39070W        W 2794  24.070  41.431   5.316
39071W        W 2795  11.723  35.539  10.595
39072W        W 2796   0.354  11.805   2.212
39073W        W 2797  14.249  28.657  12.931
39074W        W 2798  16.710  42.492  12.007
39075W        W 2799  14.633  25.060   0.445
39076W        W 2800  34.006  14.825   5.232
39077W        W 2801   0.862  22.657  10.024
39078W        W 2802   6.404  34.115  13.050
39079W        W 2803  19.730   6.336   1.299
39080W        W 2804  29.170  26.673   4.725
39081W        W 2805  43.365  31.001   2.316
39082W        W 2806  23.995   9.199  12.040
39083W        W 2807   4.818  13.202   1.386
39084W        W 2808   9.223  43.343  14.288
39085W        W 2809  39.517  22.185   2.837
39086W        W 2810   6.721   3.257   4.310
39087W        W 2811  11.236   5.707  13.395
39088W        W 2812   0.751  21.022  11.459
39089W        W 2813  27.476  12.820   1.869
39090W        W 2814  28.503  14.687  13.046
39091W        W 2815  32.409  28.484  13.323
39092W        W 2816   2.251  11.283  10.985
39093W        W 2817  33.972  36.883  11.036
39094W        W 2818  42.857  18.589  11.995
39095W        W 2819  20.642  23.658   2.413
39096W        W 2820  32.977  38.450   0.367
39097W        W 2821  38.060  43.900   0.471
39098W        W 2822  26.982  18.590  11.081
39099W        W 2823   3.370   1.450  10.922
39100W        W 2824  21.058   1.820   3.232
39101W        W 2825  44.916  30.486  10.963
39102W        W 2826  10.157  13.253  10.406
39103W        W 2827   1.381  27.583   1.366
39104W        W 2828  27.469  43.405   3.863
39105W        W 2829  41.426  34.545   4.717
39106W        W 2830  19.650  34.043   0.932
39107W        W 2831  25.650  12.751   1.238
39108W        W 2832   3.735  22.208  13.374
39109W        W 2833   2.470   3.921   0.348
39110W        W 2834  22.251   3.459  14.301
39111W        W 2835  16.219  43.312   1.778
39112W        W 2836  37.483  41.984   2.737
39113W        W 2837  17.677  12.326   4.751
39114W        W 2838  10.824  43.477  14.310
39115W        W 2839  28.941  17.171  14.030
39116W        W 2840  42.915   3.791  11.037
39117W        W 2841  32.631   1.241   1.310
39118W        W 2842  11.665  35.492  12.081
39119W        W 2843   7.720   1.853  14.002
39120W        W 2844  31.147   1.801   1.272
39121W        W 2845  18.156   9.368  11.080
39122W        W 2846   1.480  40.020   3.853
39123W        W 2847  24.692  30.950   3.283
39124W        W 2848  22.184  23.085   4.326
39125W        W 2849   2.834   8.696  13.524
39126W        W 2850   8.389   9.215  13.865
39127W        W 2851  33.510  38.398  13.423
39128W        W 2852  14.813  12.645   0.794
39129W        W 2853  25.048  27.950  13.830
39130W        W 2854  26.581   2.743   4.673
39131W        W 2855   3.405  42.851   2.723
39132W        W 2856  15.661  13.713   2.344
39133W        W 2857  44.905  15.692  11.433
39134W        W 2858  22.666  24.155   2.813
39135W        W 2859  27.496  33.539  10.461
39136W        W 2860  24.092   2.406  14.479
39137W        W 2861  33.449  16.704   0.392
39138W        W 2862   2.365  19.606  10.132
39139W        W 2863  44.915  40.955   3.182
39140W        W 2864  11.696  40.362   3.329
39141W        W 2865  26.543  20.165  14.360
39142W        W 2866  14.334  31.518   2.824
39143W        W 2867   0.901  41.827  13.922
39144W        W 2868  26.485  37.022  12.917
39145W        W 2869  28.081  13.294   1.775
39146W        W 2870   3.865  19.697  12.411
39147W        W 2871  37.036   9.679  14.897
39148W        W 2872  16.569   2.836   3.274
39149W        W 2873  28.168  25.159  12.418
39150W        W 2874   5.340  18.560  12.492
39151W        W 2875  29.017  15.591  10.557
39152W        W 2876  28.505  10.383  11.453
39153W        W 2877  35.450  27.576   3.632
39154W        W 2878  38.565  37.395   1.885
39155W        W 2879  25.030  17.641  11.057
39156W        W 2880  25.083  20.030   4.184
39157W        W 2881  26.059   9.742   2.881
39158W        W 2882  14.137   1.927   1.733
39159W        W 2883  39.504  38.442   1.339
39160W        W 2884  18.079  18.195   2.316
39161W        W 2885  36.893  39.963   4.801
39162W        W 2886  10.728  35.979   1.716
39163W        W 2887  41.348  13.268   4.733
39164W        W 2888  41.477  17.161   3.783
39165W        W 2889  24.131   9.302   0.877
39166W        W 2890  10.838   5.878   3.737
39167W        W 2891  41.966  15.676   1.255
39168W        W 2892  20.039  21.134  14.284
39169W        W 2893  43.368  11.648   1.845
39170W        W 2894  40.408  30.079   2.370
39171W        W 2895  44.472  41.959  12.883
39172W        W 2896  42.891  16.603   0.466
39173W        W 2897  25.561  39.460  12.985
39174W        W 2898   3.927   5.254   3.841
39175W        W 2899  13.682   6.355   3.348
39176W        W 2900   7.287  14.340  13.349
39177W        W 2901  41.535   9.828   2.765
39178W        W 2902  31.948  18.678  14.395
39179W        W 2903   9.780   1.751   2.276
39180W        W 2904  27.481  30.648  12.531
39181W        W 2905  35.483  27.181  12.021
39182W        W 2906  42.287  20.630  13.331
39183W        W 2907  24.193  35.935   2.669
39184W        W 2908   7.289   6.411  11.941
39185W        W 2909  33.539   5.768  11.867
39186W        W 2910  27.564  13.807   3.824
39187W        W 2911  13.336  19.103   4.232
39188W        W 2912   5.725  24.563  14.351
39189W        W 2913  28.960  33.443  13.064
39190W        W 2914  36.884  18.160  12.546
39191W        W 2915  20.547   9.719  12.549
39192W        W 2916  25.167  16.190  11.503
39193W        W 2917   4.700  11.283   2.377
39194W        W 2918  20.196  41.968   4.211
39195W        W 2919  42.820  29.957   4.250
39196W        W 2920  33.418  42.315  12.901
39197W        W 2921   6.268  23.731  11.597
39198W        W 2922  10.143  13.245   2.747
39199W        W 2923  19.049  39.416   0.797
39200W        W 2924  40.404  30.606  12.981
39201W        W 2925  10.158  38.505   2.831
39202W        W 2926  15.635  32.023  12.542
39203W        W 2927  39.513   3.237  11.371
39204W        W 2928  25.628  36.008   1.827
39205W        W 2929   0.412  43.957  11.093
39206W        W 2930  20.535  41.467  13.042
39207W        W 2931  38.399   5.792   1.851
39208W        W 2932   7.845   6.891   3.657
39209W        W 2933  10.318  33.385  12.526
39210W        W 2934   6.203  21.667   1.439
39211W        W 2935  15.158  26.484  13.031
39212W        W 2936   8.753  40.460   2.404
39213W        W 2937  15.610  33.547  14.866
39214W        W 2938  38.976  27.087   0.912
39215W        W 2939  29.668  12.237   3.802
39216W        W 2940  10.731  38.976   3.754
39217W        W 2941  42.326  43.292  10.598
39218W        W 2942  17.629  14.750   0.481
39219W        W 2943  37.907  34.084  10.634
39220W        W 2944  10.151  41.366   4.124
39221W        W 2945  32.898   0.946   2.713
39222W        W 2946  39.423  26.667   0.352
39223W        W 2947  37.433  33.058  11.612
39224W        W 2948  19.635   2.894  11.984
39225W        W 2949  20.252  13.222  14.010
39226W        W 2950  43.450   2.438  13.921
39227W        W 2951  42.810  34.497   3.850
39228W        W 2952  31.470  39.387   4.222
39229W        W 2953  33.549   1.839  12.051
39230W        W 2954  44.320  16.801  11.085
39231W        W 2955  13.674   0.358  12.931
39232W        W 2956  29.096  21.562  12.975
39233W        W 2957   6.718  15.289  11.871
39234W        W 2958  17.243  41.910  13.937
39235W        W 2959  24.659  30.536  13.401
39236W        W 2960  33.401  19.204   2.720
39237W        W 2961  15.148  18.248  14.856
39238W        W 2962  35.552  28.452  14.361
39239W        W 2963  44.837  30.455   4.135
39240W        W 2964  28.500  44.791   3.638
39241W        W 2965  30.962  32.136  12.927
39242W        W 2966   9.838  37.919  14.912
39243W        W 2967  28.495  26.462   4.729
39244W        W 2968  38.851  28.143  13.434
39245W        W 2969  23.557  32.548  12.523
39246W        W 2970  35.970  11.211  12.884
39247W        W 2971  41.505   7.753   0.244
39248W        W 2972  17.583   2.961  13.010
39249W        W 2973  10.871  12.678   2.884
39250W        W 2974   5.850  11.697  12.431
39251W        W 2975  32.910  13.254   5.258
39252W        W 2976   7.269   9.807   5.698
39253W        W 2977  38.563  30.117   4.695
39254W        W 2978  13.210  39.361   4.314
39255W        W 2979  16.174   5.238  11.373
39256W        W 2980  18.216  43.821  13.461
39257W        W 2981  17.134  19.102   3.830
39258W        W 2982  33.561   9.193   4.296
39259W        W 2983   5.401  13.184   9.959
39260W        W 2984  37.421   0.251  10.900
39261W        W 2985  25.478   3.780  14.287
39262W        W 2986  23.075  41.315   4.766
39263W        W 2987   7.724   2.869  10.984
39264W        W 2988   0.763  41.920   0.323
39265W        W 2989  26.980   9.693   1.314
39266W        W 2990  41.531  41.467  14.836
39267W        W 2991   4.348   5.326   0.449
39268W        W 2992  15.232  21.638  13.362
39269W        W 2993  27.130   7.196  14.913
39270W        W 2994  38.518  10.270   4.626
39271W        W 2995  10.680   8.809  12.996
39272W        W 2996  39.550  20.525   3.162
39273W        W 2997  36.876  26.008  12.929
39274W        W 2998  25.165   6.393   3.145
39275W        W 2999  40.840  42.957   0.735
39276W        W 3000  40.977  21.702  12.991
39277W        W 3001  34.958  28.145  14.998
39278W        W 3002  36.897  33.496   4.163
39279W        W 3003  17.286  14.107   5.702
39280W        W 3004  33.626  20.236  12.413
39281W        W 3005  34.036   0.417   1.268
39282W        W 3006  22.147  44.393   4.174
39283W        W 3007  36.948   4.830  12.992
39284W        W 3008  24.010   1.946  11.599
39285W        W 3009   3.864   2.872  12.564
39286W        W 3010  11.231  19.634   4.281
39287W        W 3011  38.962  10.204  14.460
39288W        W 3012  44.876  17.143   4.703
39289W        W 3013  19.740  16.257   3.259
39290W        W 3014   2.733  31.479   3.229
39291W        W 3015  12.660  43.998   1.289
39292W        W 3016  29.504  38.480  13.372
39293W        W 3017  10.252  21.048   2.216
39294W        W 3018  21.033   5.805   4.714
39295W        W 3019  14.681  35.042  10.458
39296W        W 3020  30.019  20.523  10.523
39297W        W 3021  13.141  26.571   4.154
39298W        W 3022  12.294  12.624  11.942
39299W        W 3023  36.909   6.256   4.117
39300W        W 3024  16.264  11.185  13.876
39301W        W 3025  38.995  35.594  13.440
39302W        W 3026  37.047  32.597   2.823
39303W        W 3027  27.632  39.989   1.311
39304W        W 3028   1.881  26.624  13.920
39305W        W 3029  23.617   2.918   1.918
39306W        W 3030   2.939   9.690   0.354
39307W        W 3031  40.314  11.359  14.839
39308W        W 3032   6.253   3.219   0.383
39309W        W 3033   3.298   8.764  14.971
39310W        W 3034  14.600  32.967  12.384
39311W        W 3035  39.418   4.343   0.364
39312W        W 3036  24.590   1.242  13.403
39313W        W 3037  17.160  10.713   0.337
39314W        W 3038  43.339  17.292  14.957
39315W        W 3039  18.703  13.237   4.812
39316W        W 3040  17.173   4.445  10.407
39317W        W 3041  38.013  35.972  12.469
39318W        W 3042   4.290  15.130  14.278
39319W        W 3043  22.160  29.558   2.189
39320W        W 3044  14.821   0.960   3.226
39321W        W 3045  12.632  37.831   2.737
39322W        W 3046   6.251  34.476  12.872
39323W        W 3047  14.178   2.964   4.788
39324W        W 3048  35.055  28.675  10.965
39325W        W 3049  18.096   2.906   1.849
39326W        W 3050   0.873  36.052  10.116
39327W        W 3051   6.733   4.797  13.371
39328W        W 3052  27.605   0.786   0.356
39329W        W 3053  16.658   3.924  13.391
39330W        W 3054  24.126  40.495   3.817
39331W        W 3055  37.486  37.364   4.348
39332W        W 3056  37.907  29.428  13.487
39333W        W 3057  43.327  34.453   2.347
39334W        W 3058  19.584  13.231  10.936
39335W        W 3059  11.867  28.160   4.624
39336W        W 3060  14.669  14.641   4.333
39337W        W 3061  19.224  30.072   0.291
39338W        W 3062   3.429   3.244   4.169
39339W        W 3063   0.915  43.949   4.673
39340W        W 3064  12.749  35.566   0.462
39341W        W 3065  29.442  20.748   4.170
39342W        W 3066  40.921  10.790   3.235
39343W        W 3067  28.935  30.600  10.555
39344W        W 3068  37.004   8.327   2.294
39345W        W 3069  43.841  31.446   2.368
39346W        W 3070  31.913  20.223   3.730
39347W        W 3071  35.896  22.186   0.433
39348W        W 3072  22.061   3.955   2.387
39349W        W 3073  28.670  34.428  11.551
39350W        W 3074  39.402  11.145   3.853
39351W        W 3075  14.715   9.385   2.312
39352W        W 3076  34.019   1.470  14.953
39353W        W 3077  31.444   0.493   1.779
39354W        W 3078  15.821   9.258  12.499
39355W        W 3079  43.925  23.207  10.896
39356W        W 3080   8.796  30.642  11.491
39357W        W 3081   4.815  18.621   1.765
39358W        W 3082  10.325  21.724   2.748
39359W        W 3083  36.413  11.642  13.420
39360W        W 3084  37.375   5.342  12.954
39361W        W 3085   5.294  27.135  11.984
39362W        W 3086  42.967   2.352  13.839
39363W        W 3087  22.569  33.981  10.531
39364W        W 3088  32.037  28.149  12.848
39365W        W 3089   4.744  12.118  12.499
39366W        W 3090   3.413  21.520   0.865
39367W        W 3091   5.879   1.802   1.298
39368W        W 3092  27.491  10.199  10.930
39369W        W 3093   1.849  41.516   2.303
39370W        W 3094   0.773   2.386   4.764
39371W        W 3095  35.044  30.083  13.416
39372W        W 3096  39.322   7.394  12.428
39373W        W 3097  38.905   2.469   3.201
39374W        W 3098  16.675  34.611   2.784
39375W        W 3099  10.165  14.659   2.363
39376W        W 3100  43.399  44.961   4.619
39377W        W 3101   7.280   3.756  13.486
39378W        W 3102   8.822  18.560   2.879
39379W        W 3103  10.741  18.127   2.413
39380W        W 3104  21.635  11.283  13.316
39381W        W 3105  33.016  36.028   4.327
39382W        W 3106  17.203   8.756   4.610
39383W        W 3107  36.016  23.017  14.772
39384W        W 3108  12.245  39.045  13.814
39385W        W 3109  22.183  12.850   3.695
39386W        W 3110  29.072  33.950   3.820
39387W        W 3111   0.878   2.924   0.854
39388W        W 3112  23.638   8.795  12.056
39389W        W 3113   2.271  19.063  14.456
39390W        W 3114  40.842  16.144  12.835
39391W        W 3115  23.012  39.499   1.282
39392W        W 3116  41.974   8.207   1.447
39393W        W 3117  21.192   5.192   1.304
39394W        W 3118   3.366  29.009  11.517
39395W        W 3119  38.383  17.690  14.832
39396W        W 3120  37.010  16.163   3.768
39397W        W 3121  28.589  31.944  13.025
39398W        W 3122  40.808  25.623   0.887
39399W        W 3123  34.465  37.400   3.662
39400W        W 3124  31.623   2.435  14.978
39401W        W 3125  36.029  34.038   3.252
39402W        W 3126  18.129  14.605  13.063
39403W        W 3127  40.932  34.040   5.229
39404W        W 3128  22.102  33.076   1.757
39405W        W 3129   1.296   0.444  12.395
39406W        W 3130  30.023   8.263   5.702
39407W        W 3131  13.204  10.329   2.684
39408W        W 3132  21.664   7.741  12.891
39409W        W 3133  34.376  17.074   1.716
39410W        W 3134  44.797   4.273   2.766
39411W        W 3135   2.270  44.278  10.096
39412W        W 3136  27.512   6.916  11.943
39413W        W 3137  38.444  32.596   2.325
39414W        W 3138  32.967  18.280   4.600
39415W        W 3139  34.095   1.386   0.314
39416W        W 3140  38.361  32.400  11.551
39417W        W 3141  37.365  20.761  13.510
39418W        W 3142  35.893  13.764   9.959
39419W        W 3143   9.794  35.412  11.568
39420W        W 3144  18.671   1.883  11.117
39421W        W 3145  10.284  37.856   2.208
39422W        W 3146   8.326  18.133  13.851
39423W        W 3147  19.658  38.943  12.955
39424W        W 3148  14.629   3.261  12.392
39425W        W 3149  20.637  15.698   1.281
39426W        W 3150  27.943  13.709  14.386
39427W        W 3151  14.697  23.098  11.956
39428W        W 3152  11.643  11.188  11.418
39429W        W 3153  44.857  28.497  14.362
39430W        W 3154  10.861  30.562  14.916
39431W        W 3155  22.140  42.865   1.436
39432W        W 3156  40.344  14.833  10.974
39433W        W 3157  36.865  16.764   2.865
39434W        W 3158  24.095  29.430  12.953
39435W        W 3159  27.169   4.213   0.300
39436W        W 3160  21.154   5.264  10.407
39437W        W 3161  15.148  19.598   1.222
39438W        W 3162  20.535  12.173  12.973
39439W        W 3163  33.117  27.606   2.242
39440W        W 3164   0.932   4.827  14.323
39441W        W 3165  38.965  31.641  11.963
39442W        W 3166  21.697  39.880   4.192
39443W        W 3167  22.170  30.475  10.583
39444W        W 3168  14.592  36.498  10.478
39445W        W 3169   4.269  32.399  12.495
39446W        W 3170   9.193   3.778  12.856
39447W        W 3171  44.381  18.578   3.312
39448W        W 3172  11.705   6.800  11.425
39449W        W 3173  29.977  22.036   1.445
39450W        W 3174  22.060  25.005   4.114
39451W        W 3175  25.559  19.618   2.352
39452W        W 3176  31.038  35.458  12.390
39453W        W 3177   3.259  26.026  10.584
39454W        W 3178  21.066   4.348  10.526
39455W        W 3179  40.353  13.276   3.735
39456W        W 3180  17.074  31.956  12.899
39457W        W 3181  40.992   1.236  13.397
39458W        W 3182  33.521   0.969  10.080
39459W        W 3183   9.756  35.475   3.384
39460W        W 3184  39.326  21.130  10.458
39461W        W 3185  31.904   1.835   0.826
39462W        W 3186  44.476  31.017   9.960
39463W        W 3187  29.649  23.621  14.898
39464W        W 3188  25.140  21.708   3.329
39465W        W 3189  42.290  24.136  13.911
39466W        W 3190  10.744  23.715  14.771
39467W        W 3191  44.392  34.531  14.477
39468W        W 3192  26.972  19.661  11.033
39469W        W 3193   1.859  37.532  13.064
39470W        W 3194  14.765  25.554  12.893
39471W        W 3195  26.000  42.461   0.258
39472W        W 3196  21.612   3.368   2.757
39473W        W 3197  10.748   0.816  13.875
39474W        W 3198  39.518  19.576   4.621
39475W        W 3199   2.299  38.420   4.621
39476W        W 3200  31.454  11.658  14.305
39477W        W 3201   5.923  35.389   3.379
39478W        W 3202  19.136   8.816   3.327
39479W        W 3203  21.166   7.699   3.727
39480W        W 3204  40.303  42.990   0.364
39481W        W 3205  15.303  30.591  10.632
39482W        W 3206  32.980   4.722   1.292
39483W        W 3207  36.434   6.186   2.399
39484W        W 3208  18.644  24.664  11.419
39485W        W 3209   2.908  15.824   4.786
39486W        W 3210  25.203  18.604  13.444
39487W        W 3211  32.979  43.940  14.997
39488W        W 3212  34.906   6.811  12.458
39489W        W 3213  30.155  12.198  14.402
39490W        W 3214   8.869  29.941   1.737
39491W        W 3215   6.375  30.124  12.086
39492W        W 3216  34.414  22.559  11.924
39493W        W 3217  30.576  43.838   4.343
39494W        W 3218  30.105  22.618   1.245
39495W        W 3219   3.782  31.608  11.456
39496W        W 3220  28.080  36.429   1.387
39497W        W 3221  21.016  17.679   3.316
39498W        W 3222  17.678  41.002   1.785
39499W        W 3223  21.142  14.749  14.842
39500W        W 3224  41.486  23.240   2.720
39501W        W 3225   6.856   4.931   0.854
39502W        W 3226  25.008   8.261  12.501
39503W        W 3227  18.602  35.494  11.565
39504W        W 3228  11.188  30.460  11.887
39505W        W 3229  29.050  10.687   2.703
39506W        W 3230  29.104   3.873  12.554
39507W        W 3231  39.410  20.567   2.744
39508W        W 3232  25.197  25.146  12.374
39509W        W 3233  19.048  18.696   2.196
39510W        W 3234  40.832  28.162   2.785
39511W        W 3235  12.683   5.332   1.794
39512W        W 3236   7.175  40.953  13.946
39513W        W 3237  23.034  12.689  14.960
39514W        W 3238  29.660  24.522   2.183
39515W        W 3239  37.400  37.857  11.947
39516W        W 3240  37.877  40.051   3.755
39517W        W 3241  39.502  18.240  12.426
39518W        W 3242  30.928  12.623  10.639
39519W        W 3243  24.622  21.128   0.448
39520W        W 3244  31.402  21.136   3.297
39521W        W 3245  25.532  12.270   4.292
39522W        W 3246  42.366  16.160   3.326
39523W        W 3247   0.843  25.074   1.382
39524W        W 3248  10.767   7.902  14.298
39525W        W 3249  27.609   7.688   1.394
39526W        W 3250   8.244  14.178  10.440
39527W        W 3251  21.197  16.108  13.883
39528W        W 3252  44.776  39.950  13.316
39529W        W 3253  27.480   9.287   9.933
39530W        W 3254  39.440  44.445   3.848
39531W        W 3255  10.714  35.884  12.017
39532W        W 3256  26.595  30.116  12.404
39533W        W 3257  38.992  41.965  13.933
39534W        W 3258   5.246  21.051  12.994
39535W        W 3259  18.664   4.745  12.983
39536W        W 3260  11.305  44.317  11.382
39537W        W 3261  26.543  27.956  11.426
39538W        W 3262   4.793  20.068  13.928
39539W        W 3263   6.791  31.583  11.008
39540W        W 3264  13.348   8.248  14.307
39541W        W 3265  40.906  37.477  11.077
39542W        W 3266  31.069  18.638   0.810
39543W        W 3267  14.771  36.032  11.932
39544W        W 3268   1.912  12.637   0.422
39545W        W 3269  22.579  28.056  11.536
39546W        W 3270  23.524  10.709   4.280
39547W        W 3271   7.720  29.653  14.935
39548W        W 3272  32.599  27.671  13.440
39549W        W 3273   4.430  43.986   1.775
39550W        W 3274  10.221   0.839   1.411
39551W        W 3275  43.432   5.364  13.352
39552W        W 3276   6.374  43.885  13.546
39553W        W 3277  40.871  34.476   1.269
39554W        W 3278  39.963  25.490  10.591
39555W        W 3279  12.812  15.730   3.825
39556W        W 3280  36.370  27.499   0.383
39557W        W 3281  42.502  43.886  11.055
39558W        W 3282  21.156  18.265  11.374
39559W        W 3283   4.778  37.406  10.634
39560W        W 3284  39.016  22.140  13.949
39561W        W 3285   2.824  24.983   4.675
39562W        W 3286   5.289  15.604   0.257
39563W        W 3287  42.282  25.659  11.419
39564W        W 3288  15.817  28.542   1.806
39565W        W 3289  37.080  25.712  13.382
39566W        W 3290   8.686  29.987  13.395
39567W        W 3291   1.463  20.088   2.862
39568W        W 3292  42.875  10.305  11.091
39569W        W 3293  38.003   9.742   1.256
39570W        W 3294   8.399  34.471  13.445
39571W        W 3295  38.424  17.685  12.435
39572W        W 3296  19.777  10.663   0.338
39573W        W 3297  26.685  31.480  10.632
39574W        W 3298  12.316  12.337  14.902
39575W        W 3299  15.740  40.838  10.418
39576W        W 3300  20.661  28.964   0.759
39577W        W 3301   9.218  26.159   0.958
39578W        W 3302  16.081  43.361  11.923
39579W        W 3303  32.118   0.890  13.338
39580W        W 3304   9.752  43.007   1.357
39581W        W 3305  22.115  22.634  11.588
39582W        W 3306  20.736  20.258   3.777
39583W        W 3307   5.708  30.010   1.324
39584W        W 3308  39.950   9.731  14.279
39585W        W 3309  34.560  44.505   1.234
39586W        W 3310  40.355  33.029   1.699
39587W        W 3311  41.422  33.059  10.432
39588W        W 3312  43.355  23.595  11.070
39589W        W 3313  34.371  18.067  10.428
39590W        W 3314  35.008  43.290   0.914
39591W        W 3315  41.465  35.541   1.340
39592W        W 3316  37.015  20.239  14.391
39593W        W 3317   8.697   4.882   0.261
39594W        W 3318  37.032   1.368  13.816
39595W        W 3319  31.147   2.820   1.213
39596W        W 3320  31.513   2.431   3.773
39597W        W 3321  27.950  37.511  12.963
39598W        W 3322  38.854  11.773  11.482
39599W        W 3323  29.168  31.547  10.500
39600W        W 3324  43.897   0.800  10.424
39601W        W 3325   4.282   7.281   2.789
39602W        W 3326  12.817  17.260  13.794
39603W        W 3327  44.770  44.308   4.247
39604W        W 3328  26.684   7.214  14.429
39605W        W 3329   6.703  36.874  13.943
39606W        W 3330  10.213  14.775  12.577
39607W        W 3331  10.275  21.174   2.791
39608W        W 3332  31.410  16.742   4.821
39609W        W 3333   7.374  39.855  11.989
39610W        W 3334  17.663   0.953   1.834
39611W        W 3335  39.826   3.777  10.985
39612W        W 3336  11.370  29.548  11.866
39613W        W 3337  41.809  44.300   0.880
39614W        W 3338  43.815  34.573  14.826
39615W        W 3339   6.234  41.457   2.316
39616W        W 3340   0.742   1.288   3.262
39617W        W 3341   2.362  28.120  14.811
39618W        W 3342  29.010   2.728  14.410
39619W        W 3343  14.265   3.880   5.275
39620W        W 3344  34.455  16.791   4.686
39621W        W 3345   8.657  11.830   4.113
39622W        W 3346  37.892  40.461  13.363
39623W        W 3347  17.252  29.539  14.411
39624W        W 3348  37.005  14.270   4.329
39625W        W 3349  14.186  18.575  11.892
39626W        W 3350  41.827  33.113   5.574
39627W        W 3351  21.069  43.916  13.894
39628W        W 3352  29.934  15.622   1.220
39629W        W 3353  39.432   2.770   4.117
39630W        W 3354  24.519   0.774  14.998
39631W        W 3355  20.710   6.705   3.769
39632W        W 3356  33.584  15.740   1.828
39633W        W 3357  35.442   5.234   2.281
39634W        W 3358   4.884  38.416  10.098
39635W        W 3359   9.185   3.359  13.993
39636W        W 3360  16.601   8.260  10.517
39637W        W 3361  37.528  44.962  11.416
39638W        W 3362  35.392  35.008   0.401
39639W        W 3363   1.840  37.581   0.295
39640W        W 3364  31.008  20.273   1.380
39641W        W 3365   4.400   6.369  12.963
39642W        W 3366  30.056   1.752   4.706
39643W        W 3367   3.378  11.829   2.785
39644W        W 3368  18.200  40.456  12.467
39645W        W 3369  18.105   2.236  13.519
39646W        W 3370  11.326  38.890  11.605
39647W        W 3371  12.144   0.454  14.987
39648W        W 3372  11.669  44.906   0.905
39649W        W 3373   5.275  40.004   2.749
39650W        W 3374  14.814  40.939   0.342
39651W        W 3375  22.012  19.541  11.568
39652W        W 3376  13.634  41.983  14.907
39653W        W 3377   3.297  10.703   3.834
39654W        W 3378  25.590  38.064   2.763
39655W        W 3379  25.979   1.326   3.869
39656W        W 3380  11.222  34.937   1.887
39657W        W 3381  17.559  38.435   3.217
39658W        W 3382  35.865  25.181   2.768
39659W        W 3383  44.971   0.818   0.930
39660W        W 3384   6.904  19.264  12.017
39661W        W 3385  18.692  30.125   1.298
39662W        W 3386  17.762  42.366  12.488
39663W        W 3387  36.421   6.242   1.823
39664W        W 3388   1.937  26.518  11.893
39665W        W 3389  41.921  29.498   2.786
39666W        W 3390  23.586  18.753  11.473
39667W        W 3391  17.761  22.157  14.454
39668W        W 3392  19.238  41.910   1.376
39669W        W 3393   0.375  26.574   4.320
39670W        W 3394  23.721  29.107   3.863
39671W        W 3395   2.389  34.042  13.034
39672W        W 3396  21.529   5.394   1.450
39673W        W 3397  21.634   3.878  14.350
39674W        W 3398  37.442  40.485  11.983
39675W        W 3399  10.814  20.176  12.524
39676W        W 3400   5.413  19.118   0.813
39677W        W 3401   8.732  33.415   2.785
39678W        W 3402   6.217  29.549   1.910
39679W        W 3403  15.738  27.164   3.158
39680W        W 3404  42.357  42.843  11.012
39681W        W 3405  23.994  32.889   4.344
39682W        W 3406  38.841  40.358   2.388
39683W        W 3407  33.922  32.113   0.401
39684W        W 3408  21.231  20.683  12.826
39685W        W 3409  37.502  35.409  11.012
39686W        W 3410  44.298   9.673   1.242
39687W        W 3411   6.909  28.159   1.329
39688W        W 3412  10.186  22.617  10.410
39689W        W 3413   1.453  22.721  13.362
39690W        W 3414  41.969  42.882   2.832
39691W        W 3415   8.404  24.561   4.151
39692W        W 3416  14.803  27.028  13.491
39693W        W 3417  35.903  44.963   0.914
39694W        W 3418  26.559   7.348  11.897
39695W        W 3419  19.205  15.247   2.362
39696W        W 3420  13.663  18.062   0.367
39697W        W 3421  30.560  30.608   2.385
39698W        W 3422  13.680   6.739  13.880
39699W        W 3423  21.019  23.575   4.349
39700W        W 3424  43.020  26.508  10.980
39701W        W 3425  37.403  38.400  14.369
39702W        W 3426  29.552  33.402   1.213
39703W        W 3427  16.110   0.486   3.263
39704W        W 3428  25.497  43.021   4.668
39705W        W 3429  26.490  35.478  12.011
39706W        W 3430  14.602  31.053   3.311
39707W        W 3431  39.554  20.633   1.399
39708W        W 3432  15.323   6.372   4.660
39709W        W 3433  23.563   0.386   1.848
39710W        W 3434  32.586  19.669   0.912
39711W        W 3435  16.261  29.561   1.299
39712W        W 3436   1.842  19.661   0.296
39713W        W 3437  36.995  24.211   3.291
39714W        W 3438  36.095  29.955  10.982
39715W        W 3439   7.363  25.492   0.869
39716W        W 3440  40.521  33.906   5.588
39717W        W 3441  39.044  16.164  14.960
39718W        W 3442  43.928  26.660   1.356
39719W        W 3443  36.350  18.278  10.943
39720W        W 3444  35.437  15.224   2.240
39721W        W 3445  12.206  27.949   4.125
39722W        W 3446  42.377   4.845   3.719
39723W        W 3447  32.529  26.165   1.420
39724W        W 3448  27.177  38.889  10.918
39725W        W 3449  38.387   2.347   3.196
39726W        W 3450  40.824  22.014  13.443
39727W        W 3451  15.304   0.845   4.161
39728W        W 3452  34.522  44.846   1.713
39729W        W 3453  27.481  22.091  14.467
39730W        W 3454  44.488  30.426   0.304
39731W        W 3455   6.296   9.879  12.477
39732W        W 3456   9.746   9.665   3.808
39733W        W 3457  30.005  32.603  14.418
39734W        W 3458  44.493   5.209   3.169
39735W        W 3459   3.327  42.523  13.419
39736W        W 3460  32.437  38.043  13.872
39737W        W 3461  25.600  37.388   2.838
39738W        W 3462  17.104  11.752   2.846
39739W        W 3463  37.888  42.826   1.398
39740W        W 3464  28.567  21.034  10.529
39741W        W 3465  32.586  23.226   3.724
39742W        W 3466   3.278  21.551   4.318
39743W        W 3467  10.643  10.747   2.284
39744W        W 3468  33.522   9.712  11.437
39745W        W 3469  13.172  37.037   4.627
39746W        W 3470  41.472  25.560  10.427
39747W        W 3471  25.687  21.592   4.315
39748W        W 3472  43.895  17.602  14.393
39749W        W 3473  29.438  13.338  11.952
39750W        W 3474   9.847  35.979  12.057
39751W        W 3475   2.376  23.217   4.642
39752W        W 3476  44.895  26.062  11.491
39753W        W 3477  14.699  37.575   2.355
39754W        W 3478  39.045   9.805  12.510
39755W        W 3479  10.840  18.705  11.032
39756W        W 3480   4.403  42.306   1.414
39757W        W 3481   1.830   7.248   1.428
39758W        W 3482  12.635  10.766   4.333
39759W        W 3483  36.989  23.035  13.318
39760W        W 3484  28.101   1.861   4.125
39761W        W 3485  35.425  35.872   1.231
39762W        W 3486  11.631  38.435  11.377
39763W        W 3487  37.872  36.910  14.360
39764W        W 3488   2.400  10.768   1.272
39765W        W 3489  40.467  24.529  13.406
39766W        W 3490   9.668  30.949  14.796
39767W        W 3491  34.480  27.571   0.936
39768W        W 3492  41.471  26.624   2.323
39769W        W 3493   7.288  27.110  10.935
39770W        W 3494  18.647  27.493   3.734
39771W        W 3495   2.843  13.703   0.465
39772W        W 3496  36.584  11.143   0.850
39773W        W 3497  28.500  15.688   2.381
39774W        W 3498  23.171  33.070  12.952
39775W        W 3499  22.684  32.501  13.378
39776W        W 3500  32.409  10.690   1.804
39777W        W 3501  38.957   3.731  13.387
39778W        W 3502  26.094  14.686  13.813
39779W        W 3503  33.540  37.996   3.695
39780W        W 3504  14.591   9.316   2.867
39781W        W 3505   8.713  12.131   0.244
39782W        W 3506  39.539  13.199  13.394
39783W        W 3507  16.094  19.099  14.917
39784W        W 3508  33.988  41.303   2.270
39785W        W 3509  31.964  12.341   1.741
39786W        W 3510   7.836  44.262   4.121
39787W        W 3511   1.395  17.273   2.872
39788W        W 3512   8.828  35.902  14.779
39789W        W 3513  42.405  24.568  11.609
39790W        W 3514   5.280  37.510  10.902
39791W        W 3515  26.616   3.318  14.868
39792W        W 3516   0.905  44.401  11.059
39793W        W 3517  41.843   2.748   0.853
39794W        W 3518  21.531  13.836  10.527
39795W        W 3519  41.293  40.420   1.312
39796W        W 3520  28.570  19.570   2.718
39797W        W 3521   7.888  10.804   1.391
39798W        W 3522  30.423  34.510  13.895
39799W        W 3523  27.578   4.321   2.665
39800W        W 3524  39.065   3.915   3.221
39801W        W 3525  19.605  25.147   1.432
39802W        W 3526   7.849   3.352  13.956
39803W        W 3527  36.870  44.447  10.420
39804W        W 3528   2.231  43.863  14.486
39805W        W 3529  35.020  33.481   5.314
39806W        W 3530  20.180  23.030   0.463
39807W        W 3531  26.534  22.052  12.478
39808W        W 3532  31.494   3.417   1.307
39809W        W 3533  16.567  12.341  14.798
39810W        W 3534  38.481  37.975  11.097
39811W        W 3535  34.964  44.929  11.537
39812W        W 3536  22.578  26.072  14.818
39813W        W 3537  13.740  10.317  14.011
39814W        W 3538  42.338   8.729   3.808
39815W        W 3539   3.909  30.432  12.957
39816W        W 3540  29.069   9.244  14.871
39817W        W 3541  11.734   0.812   3.211
39818W        W 3542  29.590  37.037  12.927
39819W        W 3543  27.035  15.679   4.287
39820W        W 3544  13.639  30.565   4.134
39821W        W 3545   1.738   4.843   1.353
39822W        W 3546  28.972  15.091  12.090
39823W        W 3547  23.230   7.764  13.411
39824W        W 3548  32.399  32.570   2.391
39825W        W 3549   8.805  29.480   4.168
39826W        W 3550  32.110  16.279  12.559
39827W        W 3551  33.076  14.800  12.488
39828W        W 3552  38.352  39.328  12.867
39829W        W 3553  35.110  10.681  10.964
39830W        W 3554  24.161   3.761   1.419
39831W        W 3555  12.703  17.615   2.837
39832W        W 3556   7.269  16.721  14.312
39833W        W 3557  12.169  17.102  11.903
39834W        W 3558   4.931  23.601  14.949
39835W        W 3559   8.236  15.767  13.427
39836W        W 3560  13.171  17.180  10.025
39837W        W 3561  32.577  27.169   1.847
39838W        W 3562  14.784  34.598  12.536
39839W        W 3563  29.447   7.873   2.857
39840W        W 3564  28.138   3.766   2.859
39841W        W 3565  11.738  44.822  14.925
39842W        W 3566  42.465   8.354   1.881
39843W        W 3567  10.833  41.982   3.771
39844W        W 3568  28.567   6.239  12.886
39845W        W 3569  30.593   3.916  13.844
39846W        W 3570  34.102   0.859   0.850
39847W        W 3571  19.063  41.976   4.674
39848W        W 3572  35.358  14.192  14.510
39849W        W 3573  29.126  18.226  13.494
39850W        W 3574   6.712   7.759   3.258
39851W        W 3575  36.855   7.332   3.190
39852W        W 3576  37.472  38.935   1.732
39853W        W 3577  35.571  23.073   3.684
39854W        W 3578   4.809   6.876  12.503
39855W        W 3579  25.131  17.635  11.885
39856W        W 3580  35.920  10.798  13.812
39857W        W 3581  44.385  11.148  10.897
39858W        W 3582  17.159  24.695   0.917
39859W        W 3583  37.392   8.827   1.321
39860W        W 3584   9.384   2.367   0.258
39861W        W 3585  40.824  26.662   0.477
39862W        W 3586  10.288  26.114  13.875
39863W        W 3587  12.810  18.656  10.926
39864W        W 3588  14.609  38.375   1.292
39865W        W 3589  34.953  38.011   2.382
39866W        W 3590  22.096  37.939   1.779
39867W        W 3591  30.458   4.229   0.388
39868W        W 3592   1.410  32.888  13.859
39869W        W 3593   1.431  32.441  13.329
39870W        W 3594  22.106  39.447  12.408
39871W        W 3595   3.930  18.586  13.902
39872W        W 3596  24.046  36.870   3.844
39873W        W 3597  26.702  23.056   1.315
39874W        W 3598  26.182  34.890  11.477
39875W        W 3599  24.077  43.898  14.967
39876W        W 3600  42.019  41.457   0.869
39877W        W 3601  27.602  33.129   1.920
39878W        W 3602  26.645  27.949   2.268
39879W        W 3603  12.226  27.985  13.474
39880W        W 3604  38.488  36.525   2.766
39881W        W 3605  27.541  35.540   3.313
39882W        W 3606  23.025  13.154   2.753
39883W        W 3607  42.427  37.354  11.096
39884W        W 3608   1.966  34.589  11.550
39885W        W 3609  37.900  16.315   0.287
39886W        W 3610  43.817  44.830   3.867
39887W        W 3611  42.820  20.562   0.913
39888W        W 3612  35.532   2.366   4.212
39889W        W 3613   4.438  32.502  14.379
39890W        W 3614  16.684  43.764   3.341
39891W        W 3615  32.616  40.986   1.362
39892W        W 3616  18.099  41.890   1.275
39893W        W 3617  40.848  29.981  10.524
39894W        W 3618  32.955  34.426   1.889
39895W        W 3619  10.160  25.521   0.297
39896W        W 3620  13.673  39.461  12.916
39897W        W 3621  23.020  17.742   2.666
39898W        W 3622  34.931  12.785  12.971
39899W        W 3623   0.811  41.951  11.591
39900W        W 3624  37.938   2.897  12.517
39901W        W 3625  31.973  20.761  11.058
39902W        W 3626  34.107   9.195  12.464
39903W        W 3627  40.541  42.316  12.935
39904W        W 3628  42.438   3.850  12.893
39905W        W 3629  14.199  16.285   0.949
39906W        W 3630  27.061  38.016  11.959
39907W        W 3631  26.482  26.190  13.356
39908W        W 3632   7.714  41.865   3.791
39909W        W 3633  27.070  21.126   1.393
39910W        W 3634  40.528  17.265  12.053
39911W        W 3635  35.594  35.436   1.761
39912W        W 3636  11.265  32.612  14.342
39913W        W 3637  13.599  31.950   2.212
39914W        W 3638  25.681   8.177   2.822
39915W        W 3639  30.149   4.229   4.209
39916W        W 3640  27.102  19.676  10.551
39917W        W 3641  20.198  16.720  12.043
39918W        W 3642  26.193   7.690  12.062
39919W        W 3643  10.659  39.853   2.408
39920W        W 3644  21.116  11.652  11.867
39921W        W 3645  41.498   4.306  12.095
39922W        W 3646   6.748  35.587  11.994
39923W        W 3647   4.434  35.069   2.377
39924W        W 3648  40.421  20.544  10.438
39925W        W 3649   8.172  20.766  14.993
39926W        W 3650   8.879  14.817  14.853
39927W        W 3651  25.975  15.139   2.400
39928W        W 3652  35.095  18.128  14.899
39929W        W 3653   3.783  41.525  13.028
39930W        W 3654  37.073  44.349  14.955
39931W        W 3655  26.502  20.607   9.945
39932W        W 3656  23.239  25.714   2.747
39933W        W 3657  22.567  45.000  14.906
39934W        W 3658   5.881  31.134   4.727
39935W        W 3659  41.025  15.792  10.994
39936W        W 3660  21.082  25.473  11.887
39937W        W 3661   3.266  37.041  14.515
39938W        W 3662   0.761  30.092   0.916
39939W        W 3663  30.574  35.963  11.995
39940W        W 3664  22.513  17.122  14.289
39941W        W 3665  15.164   3.811  12.871
39942W        W 3666  20.065  31.572   0.843
39943W        W 3667  14.327  31.051   1.430
39944W        W 3668   3.801  43.017   1.276
39945W        W 3669   0.384  31.918  13.456
39946W        W 3670   5.371  28.674  11.490
39947W        W 3671   3.231  21.190   3.227
39948W        W 3672  25.500   9.880   3.829
39949W        W 3673  39.929  11.755  11.042
39950W        W 3674  34.969  39.537  14.946
39951W        W 3675  13.215  24.027  11.484
39952W        W 3676  18.642  29.654  11.994
39953W        W 3677  26.524  35.082   1.299
39954W        W 3678  31.523  31.138  13.384
39955W        W 3679  16.075  43.382  13.009
39956W        W 3680  39.855  38.367   0.907
39957W        W 3681  40.478  29.638   9.996
39958W        W 3682  42.284  41.487   1.396
39959W        W 3683  33.999  38.515  14.780
39960W        W 3684  41.417  25.023   4.269
39961W        W 3685  19.554  28.508  11.082
39962W        W 3686  11.712  18.697   2.701
39963W        W 3687  32.630  31.045   2.298
39964W        W 3688  32.486  43.343  14.280
39965W        W 3689  18.677  40.949   1.420
39966W        W 3690  41.334  19.067   0.318
39967W        W 3691  30.437  16.250  14.313
39968W        W 3692   4.774  20.524  11.119
39969W        W 3693  26.005   5.722  12.041
39970W        W 3694  42.791  41.382   0.934
39971W        W 3695   1.835   0.878  12.387
39972W        W 3696   2.795  27.134  14.777
39973W        W 3697   9.852  29.116  12.844
39974W        W 3698  17.556  22.104   0.934
39975W        W 3699  44.947  11.856  14.295
39976W        W 3700  24.492   8.251   0.365
39977W        W 3701  27.131  11.715   4.273
39978W        W 3702   4.853  28.092   9.961
39979W        W 3703   0.364  31.120   0.823
39980W        W 3704  33.450  31.462  14.929
39981W        W 3705   2.844  31.049   0.421
39982W        W 3706  19.580  18.650   3.632
39983W        W 3707  39.855  26.562  11.610
39984W        W 3708  42.807  36.971  13.945
39985W        W 3709  35.497   7.263   3.265
39986W        W 3710  26.962  22.204  13.317
39987W        W 3711  32.518  36.397  12.529
39988W        W 3712  17.759  36.583   0.876
39989W        W 3713  13.149  14.746  12.556
39990W        W 3714  22.674  13.310   3.340
39991W        W 3715  42.973  34.032  10.011
39992W        W 3716  29.535  12.347  13.510
39993W        W 3717   4.899  23.049  11.864
39994W        W 3718  25.165  41.817  13.032
39995W        W 3719  12.797  21.751  12.068
39996W        W 3720   2.780  20.690  13.031
39997W        W 3721  14.829  13.113  14.416
39998W        W 3722   7.897   0.979  10.623
39999W        W 3723  20.651  14.693  11.516
40000W        W 3724  30.433  40.044   0.835
40001W        W 3725  14.212  15.217   4.617
40002W        W 3726  14.716  15.699  12.543
40003W        W 3727  15.134  24.038   0.310
40004W        W 3728  10.674   0.320  12.365
40005W        W 3729  18.136   4.896  10.032
40006W        W 3730   2.926  16.123  13.328
40007W        W 3731   3.831  11.705  12.390
40008W        W 3732  21.137   4.239  12.006
40009W        W 3733   6.881   5.348   3.816
40010W        W 3734   5.297  10.297   1.717
40011W        W 3735  13.720  14.210   0.897
40012W        W 3736  39.405   8.233  10.407
40013W        W 3737   3.789  41.996   3.757
40014W        W 3738  31.901   5.737  14.359
40015W        W 3739  24.537  21.564  14.332
40016W        W 3740  33.403  18.576  10.533
40017W        W 3741   2.276   1.394   3.733
40018W        W 3742  16.215  30.047  12.561
40019W        W 3743  18.294  17.627  11.077
40020W        W 3744  16.267  24.215  13.527
40021W        W 3745   7.323  22.730  11.433
40022W        W 3746  14.304   8.370   1.245
40023W        W 3747  14.143  19.533  14.866
40024W        W 3748  26.616   3.739   2.766
40025W        W 3749  24.986  25.066  11.386
40026W        W 3750  36.083  39.938   2.895
40027W        W 3751   3.414  34.406  13.417
40028W        W 3752  11.849  39.850   1.415
40029W        W 3753   4.395   7.815  14.335
40030W        W 3754   1.434   8.778   3.832
40031W        W 3755  29.943  26.667   4.834
40032W        W 3756  21.556  38.545   0.312
40033W        W 3757  39.841  39.397  10.445
40034W        W 3758  40.321  42.444  12.547
40035W        W 3759  30.463  29.093   3.185
40036W        W 3760  38.041   4.222  13.048
40037W        W 3761   0.878   8.276  14.851
40038W        W 3762  28.997  38.463   1.365
40039W        W 3763   6.333  18.157  13.796
40040W        W 3764   5.710  17.135  12.469
40041W        W 3765   0.820  10.277  11.986
40042W        W 3766   2.451  27.002  10.595
40043W        W 3767   9.783  24.507  14.353
40044W        W 3768  44.383  24.524  14.988
40045W        W 3769  34.953  38.923   4.658
40046W        W 3770   4.703  33.604   0.731
40047W        W 3771  12.676   9.672  10.407
40048W        W 3772   8.704  29.149   9.965
40049W        W 3773  19.151  22.663  11.098
40050W        W 3774   6.332  42.479   4.309
40051W        W 3775  25.599  17.736   0.457
40052W        W 3776  30.100  28.157   3.169
40053W        W 3777  36.083  39.911   0.910
40054W        W 3778   1.842  24.209   4.119
40055W        W 3779  15.208  16.809  12.918
40056W        W 3780   1.809  15.278  10.424
40057W        W 3781  21.126  32.596  10.452
40058W        W 3782  34.423   4.878  13.868
40059W        W 3783  21.257  34.885   0.285
40060W        W 3784  38.848  23.653   2.319
40061W        W 3785  10.700  14.777  12.477
40062W        W 3786  15.099  34.470   1.748
40063W        W 3787  26.491  16.708   3.723
40064W        W 3788  17.570  35.571   4.235
40065W        W 3789  41.492  26.547  12.038
40066W        W 3790  25.096  43.303   5.276
40067W        W 3791  19.232   9.840   4.285
40068W        W 3792  36.458  34.960   2.327
40069W        W 3793  42.027  36.977  14.764
40070W        W 3794  20.038  20.146  11.548
40071W        W 3795  15.690  21.149   9.970
40072W        W 3796   5.434  42.000  11.462
40073W        W 3797  42.827  29.119   2.709
40074W        W 3798  25.663  40.977   2.400
40075W        W 3799  38.895  36.447   4.317
40076W        W 3800  24.027   7.902  13.882
40077W        W 3801  25.991  24.706   2.302
40078W        W 3802  29.164  40.803   2.280
40079W        W 3803  33.114  22.671   3.772
40080W        W 3804   2.379  43.279   1.705
40081W        W 3805   2.433  11.142   2.396
40082W        W 3806   2.761  32.981   3.387
40083W        W 3807  43.900  31.493  13.473
40084W        W 3808  40.388  21.539  14.443
40085W        W 3809  37.973  30.533   1.407
40086W        W 3810   7.355  32.970   0.447
40087W        W 3811   2.966  12.840  13.359
40088W        W 3812   5.797  40.801  12.057
40089W        W 3813  35.078  15.787  13.014
40090W        W 3814  40.811   6.315  13.393
40091W        W 3815  28.043  19.727  11.892
40092W        W 3816  34.469  16.637  10.968
40093W        W 3817   0.252  23.685  11.019
40094W        W 3818   0.816  32.100  13.332
40095W        W 3819  42.818  38.929   4.288
40096W        W 3820   5.207   9.322  11.548
40097W        W 3821  35.368  25.161   0.934
40098W        W 3822   6.845  31.490   4.308
40099W        W 3823  28.941  43.360  13.797
40100W        W 3824  37.891  43.942   1.908
40101W        W 3825  21.058  24.161  12.341
40102W        W 3826  13.840  24.629  11.594
40103W        W 3827  17.115  41.340  13.377
40104W        W 3828  26.478  31.984  11.914
40105W        W 3829  24.149   6.211  11.113
40106W        W 3830  42.444  31.993  11.916
40107W        W 3831  11.276  38.961  14.904
40108W        W 3832   9.656  34.516  13.926
40109W        W 3833  22.140  44.896  10.553
40110W        W 3834  30.456  32.011  13.411
40111W        W 3835  37.425  36.870   2.888
40112W        W 3836  44.269   7.334  14.408
40113W        W 3837  32.095  33.606   1.869
40114W        W 3838   6.826  34.971  12.914
40115W        W 3839   5.276   3.869  11.873
40116W        W 3840   3.835   8.244  10.557
40117W        W 3841  22.668   8.221   0.429
40118W        W 3842  40.806  43.306  13.842
40119W        W 3843  36.545  34.095   2.703
40120W        W 3844  22.693  30.935   0.760
40121W        W 3845  28.445  35.095  11.890
40122W        W 3846  33.019  19.614   2.684
40123W        W 3847  33.037  43.329  12.401
40124W        W 3848  10.782   8.276  13.321
40125W        W 3849  42.987  20.146  13.963
40126W        W 3850  32.564  18.667  14.392
40127W        W 3851   0.294   6.216   0.766
40128W        W 3852  27.545  18.682  10.996
40129W        W 3853  10.816  27.525   2.733
40130W        W 3854  24.011  22.121  13.413
40131W        W 3855  21.740  32.476  14.972
40132W        W 3856  18.721  11.328   2.706
40133W        W 3857  39.378   1.766   1.860
40134W        W 3858  41.014  11.349   1.846
40135W        W 3859  10.342  24.099   0.860
40136W        W 3860  38.066  28.469  12.923
40137W        W 3861  36.466  15.750  10.624
40138W        W 3862  27.124  20.252   2.396
40139W        W 3863  29.630  23.128   4.824
40140W        W 3864  10.726  28.042   3.291
40141W        W 3865  11.186  33.508   1.879
40142W        W 3866   8.355   6.354  12.072
40143W        W 3867  12.753  25.613   4.798
40144W        W 3868  21.251  11.696   0.364
40145W        W 3869  19.091  39.492  10.594
40146W        W 3870  40.019   6.316   4.276
40147W        W 3871  14.108  19.198  13.927
40148W        W 3872  43.320   3.731  12.094
40149W        W 3873  31.091  40.019   3.834
40150W        W 3874  17.610  24.606  11.051
40151W        W 3875  20.555  21.729  11.491
40152W        W 3876  17.675  26.630   0.933
40153W        W 3877  27.114  14.668   4.811
40154W        W 3878  44.780   2.327  13.508
40155W        W 3879  23.622  13.703  10.617
40156W        W 3880  12.659  41.917   0.796
40157W        W 3881  33.385   5.864  13.401
40158W        W 3882   4.709  10.181  10.404
40159W        W 3883  21.060  27.664  11.074
40160W        W 3884  10.814  39.966  11.389
40161W        W 3885  31.044  29.474  10.115
40162W        W 3886  15.322  16.317  11.914
40163W        W 3887  20.734  16.105   2.673
40164W        W 3888  33.415  42.956   0.364
40165W        W 3889   3.428  28.555   2.667
40166W        W 3890  16.092  10.861  12.850
40167W        W 3891   6.702  26.571  13.864
40168W        W 3892  22.145  26.067   1.887
40169W        W 3893  30.973   0.971  13.477
40170W        W 3894  38.936  14.128  14.788
40171W        W 3895   9.784  23.612   4.151
40172W        W 3896  35.586  27.957  14.327
40173W        W 3897  37.399  15.691  11.906
40174W        W 3898   1.763  19.187  13.851
40175W        W 3899   1.912  41.502  14.426
40176W        W 3900  21.115   7.698  13.991
40177W        W 3901   3.808   0.313  14.000
40178W        W 3902  19.561   4.738   1.747
40179W        W 3903  34.528  31.632   1.834
40180W        W 3904  31.420  26.486   0.904
40181W        W 3905  15.138  27.681  13.825
40182W        W 3906  36.936  12.713  11.545
40183W        W 3907  28.459  39.423   1.214
40184W        W 3908  41.406  24.686   1.395
40185W        W 3909  22.057  15.108   2.350
40186W        W 3910   2.366  13.752  12.913
40187W        W 3911  41.295  19.756  14.900
40188W        W 3912  22.610   9.309  11.042
40189W        W 3913   7.760  32.626  11.936
40190W        W 3914  10.222   8.315   4.670
40191W        W 3915   7.726  30.571   3.862
40192W        W 3916  22.576  12.816  12.550
40193W        W 3917  11.368  33.004  10.596
40194W        W 3918  11.128  34.452   3.712
40195W        W 3919  34.537   7.681  12.488
40196W        W 3920   1.403   8.341  12.571
40197W        W 3921  37.395  19.637  11.591
40198W        W 3922  33.087  11.834   0.325
40199W        W 3923   3.454  44.445  10.988
40200W        W 3924  37.044   8.225   3.342
40201W        W 3925  26.152  15.586  10.484
40202W        W 3926  20.105  38.407   0.821
40203W        W 3927   7.263  43.381  14.030
40204W        W 3928  44.381  19.601  11.012
40205W        W 3929  27.506  13.771  13.396
40206W        W 3930  23.672   6.854   1.723
40207W        W 3931  16.106  13.796   3.843
40208W        W 3932  31.502  36.900  11.121
40209W        W 3933  31.914  23.639  10.457
40210W        W 3934   8.738   1.321   4.304
40211W        W 3935  17.211   0.896  14.305
40212W        W 3936  23.130  11.245  10.536
40213W        W 3937  21.537  11.732  12.982
40214W        W 3938  39.335  30.089   4.265
40215W        W 3939  29.942  13.798   2.329
40216W        W 3940  42.854  35.933   0.729
40217W        W 3941   4.776  29.541   5.142
40218W        W 3942  43.839   2.458   0.402
40219W        W 3943   4.750  40.430   5.207
40220W        W 3944  21.567  34.063  14.422
40221W        W 3945  43.511   7.819   1.889
40222W        W 3946  26.537   2.812  14.478
40223W        W 3947  26.597  25.128  13.320
40224W        W 3948   5.784  27.117   0.438
40225W        W 3949  20.036  32.454   2.756
40226W        W 3950   4.718  22.212   4.124
40227W        W 3951   5.795  22.599  12.956
40228W        W 3952   2.885  14.751   0.268
40229W        W 3953  32.089  39.357  10.409
40230W        W 3954  32.451  18.082   2.274
40231W        W 3955  33.917  36.852  13.345
40232W        W 3956  32.533  43.405   2.191
40233W        W 3957   2.405  34.513  12.565
40234W        W 3958  36.422  42.869   2.694
40235W        W 3959  11.240  39.387  13.326
40236W        W 3960  24.043  29.658  13.439
40237W        W 3961  15.657  15.613   0.345
40238W        W 3962  25.017  29.449   2.711
40239W        W 3963  23.086   0.911  11.497
40240W        W 3964  32.587  43.351   0.295
40241W        W 3965  14.169  18.763   4.781
40242W        W 3966   9.727  38.479  13.955
40243W        W 3967  42.963  40.323  14.486
40244W        W 3968  23.598  40.004   0.765
40245W        W 3969  13.111   7.239  14.802
40246W        W 3970  27.480  19.133  11.059
40247W        W 3971  40.403  35.901  11.498
40248W        W 3972  39.025   5.433  14.779
40249W        W 3973   8.237  43.345  14.434
40250W        W 3974  43.317  35.509   3.249
40251W        W 3975   7.669  25.070   1.412
40252W        W 3976  30.160  31.109   0.883
40253W        W 3977   3.396   9.685  11.501
40254W        W 3978  23.988   9.834  10.954
40255W        W 3979  28.529  43.314  10.615
40256W        W 3980  14.187   6.382  12.914
40257W        W 3981  11.292  43.494   2.253
40258W        W 3982  27.611  11.811  14.802
40259W        W 3983  10.867  13.643   3.168
40260W        W 3984  26.960   9.265   3.710
40261W        W 3985  41.004  34.384   0.379
40262W        W 3986  40.519  15.309   0.294
40263W        W 3987   6.326  22.234   3.147
40264W        W 3988  15.155  18.786   0.804
40265W        W 3989  42.298  31.500   1.910
40266W        W 3990  19.586  27.685   3.295
40267W        W 3991  21.738  39.892   2.676
40268W        W 3992  24.105  22.009  12.344
40269W        W 3993  16.312  14.797   2.891
40270W        W 3994  20.616  28.449   4.825
40271W        W 3995  41.927   2.352   3.308
40272W        W 3996  28.033   8.759   2.318
40273W        W 3997  15.668  13.330   2.297
40274W        W 3998  32.437   8.717   4.681
40275W        W 3999  39.366  21.550  11.099
40276W        W 4000  44.922  27.639   4.271
40277W        W 4001  26.190  20.527  12.022
40278W        W 4002  11.212  15.119  11.473
40279W        W 4003   9.748  10.761   1.255
40280W        W 4004   2.419  19.614   2.757
40281W        W 4005   9.157  12.629   1.775
40282W        W 4006  26.673  25.575   2.890
40283W        W 4007  11.667  16.751   3.217
40284W        W 4008  18.095  38.507   1.927
40285W        W 4009  14.151   5.786   3.648
40286W        W 4010  20.233   2.917   2.784
40287W        W 4011  10.141  31.919   1.258
40288W        W 4012  16.088  29.068  11.436
40289W        W 4013  14.800  31.923  11.408
40290W        W 4014  35.018   6.294  11.019
40291W        W 4015  23.101  29.175   1.343
40292W        W 4016   0.366  26.590   2.186
40293W        W 4017  16.158   3.330   0.409
40294W        W 4018  35.945   0.793  14.911
40295W        W 4019  16.589  23.624  13.842
40296W        W 4020  17.793  33.904   3.154
40297W        W 4021  15.754  23.511  12.078
40298W        W 4022  40.802  19.197  14.456
40299W        W 4023  19.558  34.416   1.351
40300W        W 4024  30.006  44.898  14.487
40301W        W 4025  11.324  42.011  12.574
40302W        W 4026  41.858  24.011  13.950
40303W        W 4027   1.290  14.685   2.352
40304W        W 4028   7.706  25.537  12.532
40305W        W 4029   1.813  31.507   0.368
40306W        W 4030  36.020  30.029   2.393
40307W        W 4031   4.892  40.314  14.490
40308W        W 4032  31.148  20.546  10.999
40309W        W 4033  42.303  28.565   4.763
40310W        W 4034   3.736  18.575  12.866
40311W        W 4035  23.728  39.969  13.896
40312W        W 4036   9.155  21.548  13.865
40313W        W 4037  38.953  31.915  13.912
40314W        W 4038   6.201   8.842  10.943
40315W        W 4039  10.803  35.064   4.315
40316W        W 4040  35.364   1.793   0.803
40317W        W 4041  39.963  20.224  14.838
40318W        W 4042   8.683  11.746   1.324
40319W        W 4043   4.277  17.107  14.440
40320W        W 4044  33.587   5.281  13.532
40321W        W 4045  42.512  12.643   1.380
40322W        W 4046  32.976  37.545  14.823
40323W        W 4047  17.802  26.674  13.996
40324W        W 4048  20.262  30.029  10.480
40325W        W 4049   2.891  36.098  11.391
40326W        W 4050   9.753   6.323   2.677
40327W        W 4051  34.562  32.973   2.232
40328W        W 4052   2.351  30.476  13.465
40329W        W 4053  17.652  21.084  13.013
40330W        W 4054   4.366   3.306  13.400
40331W        W 4055  30.143  16.613  14.008
40332W        W 4056  10.221  35.437  13.317
40333W        W 4057  21.693  14.140   2.380
40334W        W 4058   7.769  32.437   2.765
40335W        W 4059   8.839   0.432   0.304
40336W        W 4060  33.086  12.321  12.418
40337W        W 4061  14.273  22.139  12.884
40338W        W 4062   8.261  25.986  12.884
40339W        W 4063   1.376  36.377  14.961
40340W        W 4064  13.703  17.701  10.612
40341W        W 4065  38.993  44.944   1.285
40342W        W 4066  33.964  15.715   0.921
40343W        W 4067  36.975  27.178   4.118
40344W        W 4068  12.244   5.745   1.325
40345W        W 4069  28.437  44.379  12.861
40346W        W 4070  29.585  15.263   2.397
40347W        W 4071  41.802   4.446  12.887
40348W        W 4072  35.879  31.511   3.786
40349W        W 4073   8.174  19.600   3.658
40350W        W 4074  34.055  10.841   4.338
40351W        W 4075  21.591  44.884  14.873
40352W        W 4076   0.743   5.726  12.840
40353W        W 4077   2.739  13.635   2.295
40354W        W 4078  16.151  22.196  11.039
40355W        W 4079  31.616  13.106   1.914
40356W        W 4080   7.751  40.382  10.412
40357W        W 4081  24.645   5.390  11.549
40358W        W 4082   0.273  17.721   0.772
40359W        W 4083  22.631  12.772   2.242
40360W        W 4084  33.509  27.014   2.802
40361W        W 4085   7.309  15.637   3.250
40362W        W 4086  40.528  40.977  10.519
40363W        W 4087  24.020  12.186   1.262
40364W        W 4088   4.242  24.174  13.519
40365W        W 4089   5.384  21.514   0.806
40366W        W 4090   7.256   2.279  13.502
40367W        W 4091  26.608  12.731   0.940
40368W        W 4092  31.080  18.060   2.870
40369W        W 4093   4.932   6.863   4.822
40370W        W 4094   4.254  34.560  11.978
40371W        W 4095   1.946   2.422  10.982
40372W        W 4096  43.837   4.825   0.811
40373W        W 4097  32.057  12.845  14.295
40374W        W 4098  24.612  10.785  11.012
40375W        W 4099  39.451  41.806   2.255
40376W        W 4100  24.099  23.236   2.410
40377W        W 4101  27.077  18.259   4.261
40378W        W 4102   0.469  19.079   3.754
40379W        W 4103  44.765  11.163  11.586
40380W        W 4104  39.913   0.481   0.249
40381W        W 4105  40.340  12.239   4.297
40382W        W 4106  28.541  10.830  14.929
40383W        W 4107  16.073  16.577   4.337
40384W        W 4108  22.593  41.474   5.733
40385W        W 4109   2.865  34.603  14.787
40386W        W 4110  23.177  14.194   4.245
40387W        W 4111  29.509  42.354  12.026
40388W        W 4112  28.058  41.321   2.208
40389W        W 4113  37.383   6.236  10.545
40390W        W 4114  13.233   0.382   4.688
40391W        W 4115  36.412   6.413   4.762
40392W        W 4116   4.864  26.510   3.718
40393W        W 4117   9.668  30.926   3.701
40394W        W 4118  24.227  21.129   4.142
40395W        W 4119  21.118  38.560   3.684
40396W        W 4120  16.779   5.743   4.141
40397W        W 4121  26.030  13.816  14.878
40398W        W 4122   7.725   3.440  14.481
40399W        W 4123   7.217  31.573  10.513
40400W        W 4124  43.997  25.061  10.564
40401W        W 4125  34.991  25.541   1.269
40402W        W 4126   6.741   9.652   2.675
40403W        W 4127  18.096  16.273  13.964
40404W        W 4128  11.656  35.901  14.325
40405W        W 4129  38.975  40.049   4.828
40406W        W 4130  22.570  17.731  13.980
40407W        W 4131  26.622  34.494   2.341
40408W        W 4132  30.978  12.277   2.182
40409W        W 4133   7.677  28.044   0.937
40410W        W 4134  19.614   4.390  11.456
40411W        W 4135   3.935  18.244   1.793
40412W        W 4136  37.525   0.967   4.212
40413W        W 4137  41.437   4.373  11.413
40414W        W 4138  40.325  34.451  11.040
40415W        W 4139  40.411  29.081   3.169
40416W        W 4140  39.812  29.948  14.488
40417W        W 4141  43.961  31.514   4.677
40418W        W 4142   4.302  28.146   1.749
40419W        W 4143   4.435  35.093   4.208
40420W        W 4144   3.802  13.707   4.259
40421W        W 4145  24.675  20.767  12.997
40422W        W 4146  29.078  20.715   2.403
40423W        W 4147   2.445   4.897   4.198
40424W        W 4148  32.967  23.085  10.594
40425W        W 4149  21.030  41.471   4.733
40426W        W 4150   6.717  42.960  11.972
40427W        W 4151  17.179   8.764  11.918
40428W        W 4152   6.282  11.133   0.887
40429W        W 4153  38.829  14.297   1.818
40430W        W 4154  36.071  33.490  13.001
40431W        W 4155   5.260   3.895  13.817
40432W        W 4156  32.026  12.795  13.375
40433W        W 4157  18.753   6.307   2.888
40434W        W 4158   7.301  17.161  11.939
40435W        W 4159  36.518  19.215   3.349
40436W        W 4160  18.777  22.127  13.525
40437W        W 4161  44.904  37.063   5.610
40438W        W 4162  17.174  15.694   1.366
40439W        W 4163  16.698   5.738   2.727
40440W        W 4164  34.467  26.528  11.379
40441W        W 4165   0.892   6.370  14.435
40442W        W 4166  41.028  18.221   4.832
40443W        W 4167  43.338  19.608  10.545
40444W        W 4168  30.438   9.884   1.716
40445W        W 4169  38.443  12.800   1.362
40446W        W 4170  25.045   5.279  13.496
40447W        W 4171  37.968  19.723   5.232
40448W        W 4172  30.044  44.778  13.968
40449W        W 4173  19.135  25.017  14.284
40450W        W 4174  14.794  37.025  13.378
40451W        W 4175  37.554  42.947   4.119
40452W        W 4176  35.564   4.434  13.831
40453W        W 4177  16.287  28.680   4.682
40454W        W 4178  35.501  23.702  13.997
40455W        W 4179  31.026   2.729   4.306
40456W        W 4180  37.433  13.628  14.799
40457W        W 4181  13.769   4.329  11.874
40458W        W 4182  27.043   3.955   2.310
40459W        W 4183  20.728  16.680   2.258
40460W        W 4184  25.031  15.266  14.930
40461W        W 4185  17.611   8.248  11.031
40462W        W 4186  22.187   1.938  12.455
40463W        W 4187   1.878  26.127  13.960
40464W        W 4188  35.583   9.181   3.197
40465W        W 4189  21.047  40.404   3.687
40466W        W 4190  13.189   7.803  10.470
40467W        W 4191  37.509  10.752   1.279
40468W        W 4192   9.344  28.007   5.236
40469W        W 4193  21.116   3.253   4.156
40470W        W 4194  24.676   7.344   4.333
40471W        W 4195  35.938   6.330   4.794
40472W        W 4196  32.111  16.132   3.795
40473W        W 4197   3.356  44.757   2.693
40474W        W 4198  13.780  20.266  12.556
40475W        W 4199  32.442   9.855  11.105
40476W        W 4200  20.661  44.835   2.892
40477W        W 4201  22.647  38.956   0.762
40478W        W 4202  42.342   4.218  10.523
40479W        W 4203  19.190   5.307   1.300
40480W        W 4204   3.820  27.606  12.436
40481W        W 4205  27.173   0.777  13.870
40482W        W 4206  20.191  27.981  10.559
40483W        W 4207  14.251  44.822   0.260
40484W        W 4208  44.260  36.478   4.682
40485W        W 4209  31.596  13.737   0.935
40486W        W 4210   3.450  25.161   4.211
40487W        W 4211  44.907   3.300   1.386
40488W        W 4212   2.320  43.809  11.129
40489W        W 4213  39.460  26.483   2.371
40490W        W 4214  16.629   0.276   3.280
40491W        W 4215  28.068  39.560  11.448
40492W        W 4216  38.437  10.236   1.229
40493W        W 4217  37.877  21.120   1.696
40494W        W 4218  37.888  43.352  11.564
40495W        W 4219  40.018  44.295   3.373
40496W        W 4220  10.646  16.727   2.772
40497W        W 4221  38.043  44.869  11.963
40498W        W 4222  43.806  40.051  12.455
40499W        W 4223  31.148  44.483  12.972
40500W        W 4224  12.182  13.636   4.778
40501W        W 4225  30.560   2.824   3.158
40502W        W 4226  35.487  19.724  14.433
40503W        W 4227  22.692  43.442   4.599
40504W        W 4228  34.430  20.205   1.379
40505W        W 4229  11.780  27.598   3.368
40506W        W 4230  34.469  39.873   2.850
40507W        W 4231   8.349  28.113   1.807
40508W        W 4232  18.079   1.878   4.778
40509W        W 4233  37.556  39.845   2.187
40510W        W 4234  34.052  42.368   4.188
40511W        W 4235  38.021   2.346   0.293
40512W        W 4236   0.768  35.861  13.801
40513W        W 4237  40.364   6.338   1.735
40514W        W 4238  37.000   0.377  14.860
40515W        W 4239  26.476  44.363   1.403
40516W        W 4240   5.360  42.957  10.612
40517W        W 4241  32.555  26.637  14.484
40518W        W 4242  14.612  40.313  10.537
40519W        W 4243  43.426  37.071  10.076
40520W        W 4244  42.939  35.595  10.973
40521W        W 4245   4.799  32.475  12.447
40522W        W 4246  26.581  40.479  11.076
40523W        W 4247  29.098  24.700   3.272
40524W        W 4248   4.368  32.100  14.514
40525W        W 4249  23.722  38.502   2.251
40526W        W 4250   0.474  42.861   4.148
40527W        W 4251   0.919  32.600   1.429
40528W        W 4252  33.076   8.400  10.906
40529W        W 4253   6.378  20.698  13.812
40530W        W 4254  16.795  36.361   3.327
40531W        W 4255   0.870  21.056  14.410
40532W        W 4256  13.795  23.661  10.515
40533W        W 4257  28.651  12.258   2.330
40534W        W 4258  42.488  25.669   0.870
40535W        W 4259  10.243  40.380   3.657
40536W        W 4260   1.828  37.966  11.985
40537W        W 4261  26.058  17.228  14.990
40538W        W 4262  42.442  15.753   4.134
40539W        W 4263   5.808  16.181   2.842
40540W        W 4264  34.574   2.813  12.540
40541W        W 4265  43.418  36.563  14.923
40542W        W 4266  42.932  41.993   4.620
40543W        W 4267  36.447  29.044  14.369
40544W        W 4268  20.743  21.549  12.911
40545W        W 4269  28.503  10.253  10.924
40546W        W 4270  38.533   5.205  13.469
40547W        W 4271  18.078  15.679   1.830
40548W        W 4272  41.374   2.471   0.873
40549W        W 4273  36.871  32.581   0.865
40550W        W 4274  37.537   6.269  12.344
40551W        W 4275   2.361   9.740   4.122
40552W        W 4276  13.625  25.037  11.982
40553W        W 4277   3.833  43.270   0.787
40554W        W 4278  17.696  19.145  12.017
40555W        W 4279   5.197  16.124  14.306
40556W        W 4280  40.319  31.014  11.411
40557W        W 4281  20.204  38.050   0.294
40558W        W 4282   0.339  32.978   1.213
40559W        W 4283  15.716  21.621   3.205
40560W        W 4284   6.218   7.271  14.796
40561W        W 4285  21.565  40.808  11.913
40562W        W 4286   4.293   6.790   4.677
40563W        W 4287  40.319  42.853   3.774
40564W        W 4288  26.996  38.849   3.809
40565W        W 4289  14.236  36.851   0.799
40566W        W 4290  26.095  31.480   3.672
40567W        W 4291  43.431   9.265   1.821
40568W        W 4292  19.122  13.708   3.781
40569W        W 4293   1.390   4.870  11.445
40570W        W 4294  38.405  42.285  11.604
40571W        W 4295  32.124   4.295  10.939
40572W        W 4296  33.534   7.736  13.892
40573W        W 4297  14.779  44.862  10.986
40574W        W 4298  38.954  12.762   0.937
40575W        W 4299  13.195  39.833   0.299
40576W        W 4300  30.462  24.665  14.364
40577W        W 4301  35.877  16.251   0.409
40578W        W 4302  23.714  16.715   4.653
40579W        W 4303  27.671  29.614   4.777
40580W        W 4304  38.412  38.491   1.811
40581W        W 4305  42.421  18.660  13.464
40582W        W 4306   3.838  15.322   3.794
40583W        W 4307  17.179   0.439  11.553
40584W        W 4308  23.631  24.508  14.439
40585W        W 4309   3.753   5.421   1.403
40586W        W 4310  10.848   3.909   4.166
40587W        W 4311  31.569  37.508  10.964
40588W        W 4312  21.121  15.102   3.781
40589W        W 4313  44.314  10.749   1.852
40590W        W 4314  16.783  25.152   4.207
40591W        W 4315  23.698  12.760   4.668
40592W        W 4316  13.216  12.285  10.632
40593W        W 4317   0.792  37.357   4.218
40594W        W 4318  33.520  26.078   1.412
40595W        W 4319  34.890  13.221  12.037
40596W        W 4320   9.695   3.407  14.947
40597W        W 4321  23.721  14.099  14.501
40598W        W 4322  21.582   1.348   3.198
40599W        W 4323  18.779  40.378   1.698
40600W        W 4324   4.727  13.801   1.358
40601W        W 4325  19.054  15.578   4.636
40602W        W 4326  19.247  16.663   4.727
40603W        W 4327  15.126  40.975  10.999
40604W        W 4328  23.221  19.668   0.967
40605W        W 4329  27.593  37.505   0.301
40606W        W 4330  24.696   1.465   0.482
40607W        W 4331  34.943  33.999   3.181
40608W        W 4332  20.576  16.680   2.702
40609W        W 4333  43.921  16.123   4.296
40610W        W 4334  44.832  28.600  12.460
40611W        W 4335  25.592   0.297  13.316
40612W        W 4336  32.128   6.193   1.765
40613W        W 4337   0.251   2.951  11.408
40614W        W 4338  15.170  10.346  12.965
40615W        W 4339   7.700  32.533   3.870
40616W        W 4340  42.301   0.963   2.708
40617W        W 4341   9.733  23.223  13.019
40618W        W 4342  28.617   9.890  11.120
40619W        W 4343  44.832  21.625  13.852
40620W        W 4344  12.798  10.358  14.466
40621W        W 4345  44.772  41.299   3.154
40622W        W 4346  40.933  20.688  14.394
40623W        W 4347  25.620  17.799  11.577
40624W        W 4348   9.788  31.013  10.979
40625W        W 4349  22.029  12.849   1.293
40626W        W 4350  20.155  38.372   2.724
40627W        W 4351  42.031  32.117  13.834
40628W        W 4352  33.499  10.283   4.776
40629W        W 4353  21.618  44.784  11.040
40630W        W 4354   0.761  16.812  14.032
40631W        W 4355  33.598   8.200  13.015
40632W        W 4356  14.700   7.852  11.876
40633W        W 4357  34.428  27.030   1.306
40634W        W 4358  36.353  44.773  11.122
40635W        W 4359  31.436  35.598  11.091
40636W        W 4360  31.005  27.115   4.330
40637W        W 4361  15.317  32.632  14.829
40638W        W 4362  16.676  11.230  14.504
40639W        W 4363  37.545  25.213   3.745
40640W        W 4364  25.503  17.167   1.406
40641W        W 4365  42.498   8.389  12.966
40642W        W 4366  35.049  34.533   4.151
40643W        W 4367  26.991  31.511   2.368
40644W        W 4368  13.771  36.985  12.828
40645W        W 4369  26.480  30.086   1.301
40646W        W 4370  34.575  26.981  13.931
40647W        W 4371  31.143  43.432   4.806
40648W        W 4372  30.974   7.396  14.906
40649W        W 4373  29.009   5.385  14.494
40650W        W 4374  15.733  10.704  14.927
40651W        W 4375  38.026  42.938  12.026
40652W        W 4376  43.768  11.735  14.472
40653W        W 4377  37.548   4.440  10.985
40654W        W 4378  15.189   3.458  11.487
40655W        W 4379  25.099   7.333  13.354
40656W        W 4380   4.790  28.487   9.961
40657W        W 4381  33.095  38.878  12.468
40658W        W 4382   3.954  34.603   4.785
40659W        W 4383  33.070  22.049  12.932
40660W        W 4384  13.226  15.619   3.268
40661W        W 4385  15.306  44.495  14.337
40662W        W 4386  36.854  21.231   2.263
40663W        W 4387  16.762   7.897   3.744
40664W        W 4388  16.725  21.626  11.494
40665W        W 4389  24.134  32.070  14.287
40666W        W 4390  27.493  43.411  10.498
40667W        W 4391   3.938   6.898   0.898
40668W        W 4392  30.418  12.273  10.447
40669W        W 4393  39.460  13.612   4.329
40670W        W 4394  15.664   6.760   3.854
40671W        W 4395   2.318  38.545  14.922
40672W        W 4396  22.130   9.686   0.446
40673W        W 4397  35.032  32.465  12.479
40674W        W 4398  30.562  42.518   3.685
40675W        W 4399  32.438  19.088  11.986
40676W        W 4400  34.503  12.613  10.937
40677W        W 4401  43.948   3.375  12.934
40678W        W 4402   1.940  20.274   3.656
40679W        W 4403  10.823  26.121   3.332
40680W        W 4404  44.948  26.542   1.273
40681W        W 4405   6.829  21.646   3.787
40682W        W 4406  23.126  27.111  11.582
40683W        W 4407  19.177  24.122  14.468
40684W        W 4408   3.930  25.005  10.586
40685W        W 4409   1.782  20.730  13.901
40686W        W 4410  23.084  34.474   4.297
40687W        W 4411  31.076  27.988   2.402
40688W        W 4412  43.286  21.646   1.833
40689W        W 4413  31.450  20.585   2.801
40690W        W 4414  13.269  11.182   3.865
40691W        W 4415  28.155  25.525   0.768
40692W        W 4416   2.385  41.314   0.866
40693W        W 4417  37.371  18.250  12.916
40694W        W 4418  13.709   8.256   1.887
40695W        W 4419   3.308  20.616   0.822
40696W        W 4420   5.929  13.609  10.622
40697W        W 4421  12.785  41.373  12.352
40698W        W 4422  34.927   2.420  14.942
40699W        W 4423  25.198   1.357   2.738
40700W        W 4424  31.062  15.253  14.379
40701W        W 4425  13.245   8.312   0.967
40702W        W 4426  10.796  30.520  13.961
40703W        W 4427  33.118   3.385   4.831
40704W        W 4428  13.629  33.026   4.249
40705W        W 4429  12.136  17.117  14.907
40706W        W 4430  10.267   5.856  11.099
40707W        W 4431  29.487  13.245   2.211
40708W        W 4432  24.549  38.517   2.229
40709W        W 4433  19.285  16.567   3.274
40710W        W 4434  43.301  22.606  12.379
40711W        W 4435  40.455  19.261  10.593
40712W        W 4436   5.798  38.866   2.711
40713W        W 4437  13.168   9.248  12.052
40714W        W 4438  44.464  15.292  12.995
40715W        W 4439  31.998  22.549  14.363
40716W        W 4440  11.181  35.949   1.824
40717W        W 4441  43.863  18.733  11.516
40718W        W 4442  33.111  42.527   3.697
40719W        W 4443  23.136  41.500  13.500
40720W        W 4444  42.931   9.880  14.276
40721W        W 4445  42.347  36.369   5.787
40722W        W 4446  10.828  19.677   1.275
40723W        W 4447  12.212  16.752  13.005
40724W        W 4448  34.502  25.664   2.754
40725W        W 4449   1.936   0.400   2.900
40726W        W 4450  28.587   3.346   1.257
40727W        W 4451  14.200  15.759   1.303
40728W        W 4452  34.506  22.637   2.730
40729W        W 4453  35.083  12.162  10.461
40730W        W 4454   6.731   1.775  11.889
40731W        W 4455   5.788  19.062  11.568
40732W        W 4456  15.085  43.335   1.402
40733W        W 4457  22.736  27.965   2.782
40734W        W 4458   4.381  44.459  12.425
40735W        W 4459  32.603   7.799   2.196
40736W        W 4460  13.142  42.318  12.898
40737W        W 4461   8.195  37.062  14.909
40738W        W 4462  25.160   9.828   0.379
40739W        W 4463  20.259  19.130   3.283
40740W        W 4464  35.108  30.458  13.470
40741W        W 4465  25.208  19.754  12.038
40742W        W 4466  40.348   3.409   0.744
40743W        W 4467  37.360  27.197  11.412
40744W        W 4468   4.908  41.956  12.834
40745W        W 4469   5.708  21.095  11.378
40746W        W 4470   6.377  37.482  12.515
40747W        W 4471  11.765   5.827  14.352
40748W        W 4472   8.753  34.449  11.577
40749W        W 4473  26.667  26.201  12.007
40750W        W 4474  10.699  18.667  12.831
40751W        W 4475  40.488  28.528  10.903
40752W        W 4476   9.789  32.623  13.538
40753W        W 4477  38.339  38.566  14.899
40754W        W 4478   5.399  32.562  13.452
40755W        W 4479  24.150  15.257   2.337
40756W        W 4480  39.931   7.768   0.800
40757W        W 4481  30.462   7.736   4.289
40758W        W 4482   3.813   6.725   0.431
40759W        W 4483   4.735  18.763  13.844
40760W        W 4484  18.624  20.559   0.270
40761W        W 4485  38.523   8.384   1.405
40762W        W 4486  37.958  41.389  14.759
40763W        W 4487  39.840  15.093  12.358
40764W        W 4488   7.247  44.339  11.969
40765W        W 4489   7.289  37.508  10.563
40766W        W 4490  17.582   0.959  14.913
40767W        W 4491  38.835  22.500   2.318
40768W        W 4492  34.873  26.501   3.865
40769W        W 4493  20.140  44.380  11.959
40770W        W 4494  15.173  30.488   1.739
40771W        W 4495  35.360  38.421  10.616
40772W        W 4496  27.524  12.265  13.335
40773W        W 4497  27.565   4.755  14.453
40774W        W 4498  34.558   3.794  14.411
40775W        W 4499  11.140   2.415   1.891
40776W        W 4500  20.122  19.746   3.838
40777W        W 4501  43.921  13.742  10.551
40778W        W 4502  39.527  25.710   0.307
40779W        W 4503  22.731  41.880  12.029
40780W        W 4504  36.872   7.385   2.279
40781W        W 4505  32.129   4.891  14.326
40782W        W 4506  34.997  24.983   0.298
40783W        W 4507  11.673  21.648   0.475
40784W        W 4508  10.224  35.022   4.707
40785W        W 4509  20.576  23.094   2.691
40786W        W 4510  24.678   5.922  10.455
40787W        W 4511  11.183   6.251   0.424
40788W        W 4512  28.946  16.620  14.960
40789W        W 4513   7.181   4.857   1.368
40790W        W 4514  36.362   2.459  13.513
40791W        W 4515  33.125  41.982  13.048
40792W        W 4516  40.840  13.621   2.411
40793W        W 4517  32.409  15.328  11.520
40794W        W 4518  23.695  39.348  10.920
40795W        W 4519  39.505  16.267  13.925
40796W        W 4520  34.509   4.218  14.454
40797W        W 4521   3.274   9.302   1.447
40798W        W 4522  11.277  31.102  12.490
40799W        W 4523  10.702   0.269   3.254
40800W        W 4524  40.433   0.779   0.451
40801W        W 4525  35.009  40.806   1.717
40802W        W 4526  43.508  13.198   4.781
40803W        W 4527  28.672  17.183   3.184
40804W        W 4528  30.995  34.115  11.122
40805W        W 4529  28.519  35.583   3.784
40806W        W 4530  31.487  35.929  14.873
40807W        W 4531   2.856  34.890  13.910
40808W        W 4532  35.458  26.661   0.316
40809W        W 4533  21.233  18.247  14.357
40810W        W 4534   5.367   4.718   4.269
40811W        W 4535   6.818  25.205  11.950
40812W        W 4536   2.761   1.273  10.909
40813W        W 4537   2.743  16.207  11.532
40814W        W 4538  17.142  23.986   1.229
40815W        W 4539  42.454   4.334   4.833
40816W        W 4540  24.628  28.457  14.825
40817W        W 4541  11.667  36.048   2.296
40818W        W 4542  37.378  12.695  14.459
40819W        W 4543   5.765   1.911   4.825
40820W        W 4544   0.374  34.398  14.505
40821W        W 4545   4.901  34.542   0.383
40822W        W 4546   4.736  23.544   3.718
40823W        W 4547  40.495  28.608  12.076
40824W        W 4548  21.120  26.976  13.997
40825W        W 4549   5.213  27.102  11.507
40826W        W 4550  28.172  36.090  12.521
40827W        W 4551  44.419   8.662  13.368
40828W        W 4552  14.665  22.573  11.395
40829W        W 4553   8.171  44.989   3.761
40830W        W 4554  27.643   5.796  13.376
40831W        W 4555  24.062  30.998   3.202
40832W        W 4556  32.117  36.988   2.757
40833W        W 4557  29.631  18.625  13.900
40834W        W 4558   5.831  12.122   3.340
40835W        W 4559   3.739  44.470  12.015
40836W        W 4560  24.686  42.930   4.650
40837W        W 4561  32.399  11.727  10.923
40838W        W 4562  21.633  19.097   0.852
40839W        W 4563   9.388  22.714  10.907
40840W        W 4564   4.369   1.851  13.051
40841W        W 4565  29.920  35.944   4.141
40842W        W 4566  40.482  39.424   3.788
40843W        W 4567  35.386  16.287  12.010
40844W        W 4568  26.566   4.335  11.900
40845W        W 4569   9.837   6.788  12.055
40846W        W 4570   6.874  13.606   2.344
40847W        W 4571  19.607  20.699   1.265
40848W        W 4572  20.631  13.346  14.391
40849W        W 4573  13.128  15.597   4.701
40850W        W 4574  41.952  44.393   4.825
40851W        W 4575  20.587   7.729  10.474
40852W        W 4576  40.379  23.588   2.356
40853W        W 4577   7.390  11.766  12.426
40854W        W 4578  26.619  31.429  14.996
40855W        W 4579  29.108  23.043   0.889
40856W        W 4580  38.539  21.040   3.710
40857W        W 4581  16.586  39.480  12.079
40858W        W 4582  38.375  25.616   3.746
40859W        W 4583   5.890  24.106   2.673
40860W        W 4584  30.449  41.021   4.171
40861W        W 4585  12.712   3.457   4.746
40862W        W 4586  27.082  33.398  14.809
40863W        W 4587  39.929  28.148   2.337
40864W        W 4588  37.980  16.183   2.336
40865W        W 4589  20.087  10.173  10.591
40866W        W 4590  34.987  17.244  13.977
40867W        W 4591   3.916   5.932  14.480
40868W        W 4592  36.852  10.344   1.435
40869W        W 4593  14.132  20.127   2.768
40870W        W 4594   7.185   2.751  14.762
40871W        W 4595  19.243  24.563  14.877
40872W        W 4596  35.068  32.619   1.715
40873W        W 4597  27.680  15.791   2.779
40874W        W 4598  23.592  23.014  13.886
40875W        W 4599  10.706   9.759  14.965
40876W        W 4600  30.945  20.100   4.639
40877W        W 4601  12.129  18.156   4.704
40878W        W 4602  29.590  19.692  12.430
40879W        W 4603  26.161  10.315   3.855
40880W        W 4604   7.833  14.275   9.930
40881W        W 4605  30.536  37.502   5.318
40882W        W 4606  13.152  40.885   3.379
40883W        W 4607  38.068   8.802   2.894
40884W        W 4608   3.934  12.847  13.035
40885W        W 4609  26.702  33.000   0.373
40886W        W 4610  12.669  21.219   0.920
40887W        W 4611  34.534   6.258   2.317
40888W        W 4612  36.016  22.175   3.228
40889W        W 4613  33.960  32.540  11.898
40890W        W 4614  14.173   6.918   0.855
40891W        W 4615   3.771  24.197  13.358
40892W        W 4616  18.744  25.474   2.739
40893W        W 4617  41.441  28.013  12.877
40894W        W 4618  25.699  34.519  14.440
40895W        W 4619  21.021  42.288   4.618
40896W        W 4620  19.182  26.045  11.874
40897W        W 4621  37.954  44.873   1.335
40898W        W 4622  40.422  12.628   4.696
40899W        W 4623  33.038  21.654   3.160
40900W        W 4624  42.970  27.667   0.879
40901W        W 4625   4.774  19.644   4.200
40902W        W 4626  10.167  33.972   0.891
40903W        W 4627  22.696   1.272  14.338
40904W        W 4628  35.102   0.429   2.347
40905W        W 4629  19.043  34.050   3.775
40906W        W 4630   6.790   5.409   3.312
40907W        W 4631  38.417  44.495   3.333
40908W        W 4632  22.165  18.700   3.332
40909W        W 4633  40.972  31.949  11.599
40910W        W 4634  11.836  18.660   4.324
40911W        W 4635  33.400  30.591   0.414
40912W        W 4636  39.432  33.417  11.116
40913W        W 4637  24.192  23.582   0.943
40914W        W 4638   5.226  34.368   0.466
40915W        W 4639   4.325  15.305   3.709
40916W        W 4640  38.847  22.630  11.044
40917W        W 4641  44.851  42.372  14.492
40918W        W 4642  16.081  43.500   3.661
40919W        W 4643  29.050   8.856   0.740
40920W        W 4644   1.826  40.801  12.419
40921W        W 4645  21.580   3.713  12.010
40922W        W 4646  12.665   8.834  13.029
40923W        W 4647  17.573  12.333  13.428
40924W        W 4648   6.407  36.957   0.831
40925W        W 4649   2.824  17.681  14.847
40926W        W 4650  25.075  21.184   1.809
40927W        W 4651  26.480  40.389   5.260
40928W        W 4652  37.444  37.519  12.899
40929W        W 4653  19.052  37.958  10.000
40930W        W 4654  16.794   3.832  11.415
40931W        W 4655  18.635  44.450  11.066
40932W        W 4656  26.641  35.073  12.554
40933W        W 4657   3.766  43.813  12.360
40934W        W 4658  13.825  35.516   3.290
40935W        W 4659  32.548  22.032   4.282
40936W        W 4660  20.651  13.280   3.378
40937W        W 4661  11.816   1.479  11.481
40938W        W 4662   0.797  17.222   5.170
40939W        W 4663  10.858  21.060  13.034
40940W        W 4664  14.813  35.594  10.985
40941W        W 4665  16.777  24.129   2.868
40942W        W 4666   4.778  32.019   0.896
40943W        W 4667  44.295   2.763   2.278
40944W        W 4668  19.057  36.380  14.957
40945W        W 4669  33.939   8.212   3.316
40946W        W 4670  11.299  18.684   0.482
40947W        W 4671  43.342  24.541   2.675
40948W        W 4672  15.718  14.234  11.447
40949W        W 4673  24.664  40.323   2.857
40950W        W 4674  26.987   4.882  13.061
40951W        W 4675  36.015   7.316  12.466
40952W        W 4676  16.144  25.977   0.434
40953W        W 4677  21.663  30.603  11.505
40954W        W 4678  14.821   2.816   0.366
40955W        W 4679  26.053  26.594  14.809
40956W        W 4680   8.199  14.293  11.475
40957W        W 4681  43.497   7.802  14.452
40958W        W 4682   2.961  18.731  12.389
40959W        W 4683   2.273  11.851   0.256
40960W        W 4684   9.188  28.082  11.015
40961W        W 4685  25.504  23.987   1.244
40962W        W 4686  21.567  21.207  12.075
40963W        W 4687  19.553  18.124  14.853
40964W        W 4688   0.768  13.776   0.836
40965W        W 4689   7.346  20.115  12.089
40966W        W 4690  32.563  17.705  10.534
40967W        W 4691  18.790  24.571  14.478
40968W        W 4692  26.544   1.352   1.319
40969W        W 4693  32.998  19.646  11.940
40970W        W 4694  20.257  32.578   4.215
40971W        W 4695  28.058   1.258  11.549
40972W        W 4696  30.163  37.399   3.295
40973W        W 4697   4.358  18.150  11.918
40974W        W 4698  21.180  11.163  10.531
40975W        W 4699  35.991   5.876  11.522
40976W        W 4700  12.829  33.922  14.447
40977W        W 4701  21.159  24.661   1.789
40978W        W 4702  25.471  28.627   3.690
40979W        W 4703   9.235  10.260   3.791
40980W        W 4704  27.651  42.884   0.301
40981W        W 4705   9.809  13.711   0.882
40982W        W 4706  13.124  32.024  12.468
40983W        W 4707   2.233  23.212   0.945
40984W        W 4708   8.197  31.984  13.372
40985W        W 4709  24.990  21.205   3.636
40986W        W 4710  37.890  42.292   1.822
40987W        W 4711  38.918  24.717   0.270
40988W        W 4712  40.324  14.162  11.941
40989W        W 4713  29.500  37.489   4.263
40990W        W 4714  33.028  18.102  11.953
40991W        W 4715  34.387  43.859   0.771
40992W        W 4716   0.447  20.624   0.471
40993W        W 4717  25.163   3.873   0.733
40994W        W 4718  29.666  14.132   3.339
40995W        W 4719  28.509   2.961   1.393
40996W        W 4720  10.302  32.071   9.998
40997W        W 4721  15.249  32.094   3.257
40998W        W 4722  44.302   1.900  13.998
40999W        W 4723   7.370   9.758   9.519
41000W        W 4724  43.294   5.424  12.477
41001W        W 4725   9.745  40.872  14.763
41002W        W 4726  28.490  42.469   0.902
41003W        W 4727   5.254  43.485   0.760
41004W        W 4728  11.844  41.994  14.935
41005W        W 4729  19.141  37.338  10.939
41006W        W 4730  19.268  40.936  13.935
41007W        W 4731  37.972  32.130   3.799
41008W        W 4732   2.848  21.523  13.050
41009W        W 4733  23.616  31.631  10.079
41010W        W 4734  35.908  26.509  14.764
41011W        W 4735   9.817  43.857  13.487
41012W        W 4736   8.318  40.439   0.845
41013W        W 4737  11.678  16.657   2.696
41014W        W 4738   1.946  19.099   4.795
41015W        W 4739  44.965  22.518   1.782
41016W        W 4740   1.738   1.247  13.032
41017W        W 4741  20.731   7.908   3.255
41018W        W 4742  37.086   6.681  11.996
41019W        W 4743   0.891   4.921  12.519
41020W        W 4744  20.141  15.175  13.503
41021W        W 4745  40.512  21.733   3.647
41022W        W 4746  33.088  38.392   1.430
41023W        W 4747  29.172  39.896  11.909
41024W        W 4748  44.367  35.868   1.808
41025W        W 4749  18.697  38.341  11.485
41026W        W 4750  34.596   3.406   1.840
41027W        W 4751  14.123  14.627   2.380
41028W        W 4752  28.564  41.873   4.291
41029W        W 4753   9.292   0.335   3.287
41030W        W 4754  14.121  42.838  13.833
41031W        W 4755  42.923  15.601   0.784
41032W        W 4756   4.800  39.884  12.874
41033W        W 4757  30.430  34.467  10.888
41034W        W 4758  33.979  16.679   5.158
41035W        W 4759  30.046  19.130   2.187
41036W        W 4760   3.403  19.610  12.889
41037W        W 4761  42.818   2.334   4.242
41038W        W 4762  34.921  10.691  13.904
41039W        W 4763  37.498   5.307   0.800
41040W        W 4764  18.143  33.429   1.745
41041W        W 4765  27.044  14.662  11.560
41042W        W 4766  15.794   1.313   3.852
41043W        W 4767  23.070  10.298  11.003
41044W        W 4768   1.755   6.784  12.522
41045W        W 4769  31.015  18.680  11.604
41046W        W 4770   7.343  12.131   1.892
41047W        W 4771  12.311  26.521   2.199
41048W        W 4772  37.371  11.771   1.734
41049W        W 4773  19.201  35.070  14.801
41050W        W 4774  27.657  15.581   1.384
41051W        W 4775  28.469  43.430  12.579
41052W        W 4776   6.413  35.966   2.210
41053W        W 4777  24.991  41.383   1.393
41054W        W 4778  12.230  26.593   0.741
41055W        W 4779  36.989   2.907  13.544
41056W        W 4780  44.334  12.130  12.454
41057W        W 4781  24.079   8.350   0.311
41058W        W 4782  38.460  34.905  10.502
41059W        W 4783  10.694  36.927  13.806
41060W        W 4784   9.268  40.405  14.305
41061W        W 4785  22.522  35.568   3.283
41062W        W 4786  21.100  30.507  12.427
41063W        W 4787  13.234  13.336   4.306
41064W        W 4788  19.203  16.677  13.340
41065W        W 4789  32.468  29.637  12.397
41066W        W 4790   3.900  21.151  13.545
41067W        W 4791   2.295  13.792  10.993
41068W        W 4792  11.148  44.801  12.843
41069W        W 4793  23.194   8.805   2.781
41070W        W 4794  20.157   6.882   3.336
41071W        W 4795  20.585  12.129  11.055
41072W        W 4796  37.345  25.693  11.056
41073W        W 4797  39.527   3.243   0.474
41074W        W 4798  42.847  27.035  14.510
41075W        W 4799  32.564  13.283   2.250
41076W        W 4800   9.165  30.637  13.320
41077W        W 4801  21.036  32.085   5.124
41078W        W 4802  31.062  11.360  11.554
41079W        W 4803  35.082  25.105   1.866
41080W        W 4804  37.459  20.670  10.523
41081W        W 4805  31.459  35.539  14.767
41082W        W 4806  11.366  44.497  13.501
41083W        W 4807   6.304  20.259   3.369
41084W        W 4808  25.583  21.017   0.946
41085W        W 4809  36.085  20.274  10.620
41086W        W 4810   2.362  22.050   4.349
41087W        W 4811  31.981   4.333   3.865
41088W        W 4812   8.387  33.923   3.724
41089W        W 4813  19.721  17.141   2.276
41090W        W 4814  20.628   8.851   5.185
41091W        W 4815  42.293   8.718   1.712
41092W        W 4816   2.918  41.409  11.496
41093W        W 4817   6.767  12.706  11.893
41094W        W 4818  31.427   4.366   2.691
41095W        W 4819  19.227  29.586  14.762
41096W        W 4820  12.744   2.834   3.301
41097W        W 4821  38.434  23.703   3.772
41098W        W 4822  28.620  34.549  14.330
41099W        W 4823   1.947  38.540   4.680
41100W        W 4824  32.066  10.725   1.312
41101W        W 4825  34.420  44.401   2.846
41102W        W 4826  31.605   2.452  13.856
41103W        W 4827  44.851  44.325  12.065
41104W        W 4828  30.557  38.883  12.380
41105W        W 4829  23.164  42.882  12.545
41106W        W 4830  31.085  27.945  10.118
41107W        W 4831  15.598  43.798  12.919
41108W        W 4832  13.304  33.004   3.755
41109W        W 4833  18.107  23.680  11.460
41110W        W 4834  18.177  28.026   4.818
41111W        W 4835  11.231  34.482  14.463
41112W        W 4836  20.555  11.156  13.990
41113W        W 4837  16.629  14.115   0.854
41114W        W 4838  40.358  14.668   3.254
41115W        W 4839  14.138  28.144  14.939
41116W        W 4840  24.994  44.390  10.004
41117W        W 4841  28.438  40.519  14.377
41118W        W 4842   6.374  35.861  14.496
41119W        W 4843  16.072  28.589  14.410
41120W        W 4844  21.598  35.571   0.801
41121W        W 4845  10.272   9.651  12.067
41122W        W 4846  21.747   0.476   2.257
41123W        W 4847  40.917  13.782   3.262
41124W        W 4848  30.993  40.040  13.468
41125W        W 4849  12.668  10.730  14.439
41126W        W 4850  31.952  25.114  14.030
41127W        W 4851   6.276  28.014   4.662
41128W        W 4852  35.553  39.970   1.317
41129W        W 4853  22.653   0.298   0.742
41130W        W 4854  37.461  40.485   1.728
41131W        W 4855  31.524  31.945  13.940
41132W        W 4856  27.484  38.953  14.327
41133W        W 4857  36.534  29.969  12.367
41134W        W 4858   4.797  26.102  10.616
41135W        W 4859   2.787  25.014   0.394
41136W        W 4860  13.837   2.926   1.715
41137W        W 4861   1.298  20.258  12.363
41138W        W 4862   9.727  27.193  11.100
41139W        W 4863  36.930  17.093  11.931
41140W        W 4864  39.946  24.218  13.971
41141W        W 4865  42.776  19.696   1.795
41142W        W 4866   6.773  38.881   0.314
41143W        W 4867  16.243   7.347   1.354
41144W        W 4868  44.341  16.155  12.982
41145W        W 4869   2.365  32.437  10.976
41146W        W 4870  10.635  44.379   0.825
41147W        W 4871  20.145  28.085  11.456
41148W        W 4872  31.644  41.837  14.882
41149W        W 4873   6.740  37.857   3.206
41150W        W 4874   5.348  44.355  14.303
41151W        W 4875  19.079  42.287   4.267
41152W        W 4876   6.396  30.963   1.424
41153W        W 4877  28.482  40.013   0.356
41154W        W 4878  11.280  44.371   3.176
41155W        W 4879   6.313  39.336   3.354
41156W        W 4880  12.795   0.261  14.012
41157W        W 4881   9.877  26.011  10.432
41158W        W 4882  42.030  40.407  11.400
41159W        W 4883  30.036  16.153  14.301
41160W        W 4884  42.025  13.611  12.487
41161W        W 4885   9.754  41.017   3.718
41162W        W 4886  37.507  37.037  13.521
41163W        W 4887  10.731  16.299   3.859
41164W        W 4888  32.564  21.521   4.206
41165W        W 4889  30.445  29.670  10.582
41166W        W 4890  24.043  37.867   4.790
41167W        W 4891  19.650  22.611  11.566
41168W        W 4892  12.253  32.960   2.810
41169W        W 4893  21.076   2.317   4.702
41170W        W 4894   0.743   9.795  11.043
41171W        W 4895  22.533   9.822   1.414
41172W        W 4896  35.058  16.228  11.027
41173W        W 4897   4.405  12.718   1.260
41174W        W 4898  26.957  21.581   4.796
41175W        W 4899  44.948   3.236   4.333
41176W        W 4900  43.480   3.716   3.691
41177W        W 4901   8.710  10.204   3.757
41178W        W 4902   4.389  43.274  14.935
41179W        W 4903  13.137   9.308   3.373
41180W        W 4904  15.309   0.751  12.551
41181W        W 4905  26.571   8.832   0.375
41182W        W 4906  14.785  30.493  10.128
41183W        W 4907  27.513  22.712   3.810
41184W        W 4908  16.249   5.225  13.528
41185W        W 4909   8.350   9.661  11.523
41186W        W 4910  33.906   3.869   4.736
41187W        W 4911  24.148  40.491   2.224
41188W        W 4912  40.947  36.859  12.074
41189W        W 4913  19.767  35.447   2.312
41190W        W 4914  27.960  10.738   4.623
41191W        W 4915  11.172  19.753   0.818
41192W        W 4916  42.413   3.831   3.780
41193W        W 4917   4.345  15.685  10.628
41194W        W 4918  42.441  42.864   2.784
41195W        W 4919   0.337   9.352   3.818
41196W        W 4920  44.854  21.026   1.420
41197W        W 4921  28.054  14.695   1.705
41198W        W 4922   6.722  44.896  11.016
41199W        W 4923  17.148  36.452   2.880
41200W        W 4924  25.659  19.282  12.050
41201W        W 4925  10.236  44.010   4.197
41202W        W 4926  15.748  42.500   2.769
41203W        W 4927  38.838  18.125  12.880
41204W        W 4928  37.084  29.545   4.670
41205W        W 4929  37.364  26.644  14.808
41206W        W 4930  18.686  21.526   3.721
41207W        W 4931  28.562   1.737  11.011
41208W        W 4932  21.099  30.021   2.880
41209W        W 4933   2.389  11.715   1.771
41210W        W 4934  29.924  14.642  10.459
41211W        W 4935  38.994   5.392   1.352
41212W        W 4936  17.591  34.572   0.742
41213W        W 4937  24.583   8.284   1.706
41214W        W 4938  18.250   2.376   3.222
41215W        W 4939  30.067  36.379   1.809
41216W        W 4940  42.469  25.700  11.107
41217W        W 4941  27.580   8.850  14.855
41218W        W 4942   1.323  15.316   3.249
41219W        W 4943  10.316   5.765   1.917
41220W        W 4944   4.433  12.837  12.902
41221W        W 4945  28.935  31.403  13.341
41222W        W 4946  39.051  24.135  12.443
41223W        W 4947  10.250  13.253  13.970
41224W        W 4948  27.098  25.149  14.004
41225W        W 4949  16.150  16.147   2.211
41226W        W 4950  35.879   2.343  11.499
41227W        W 4951  34.076  17.635   3.286
41228W        W 4952  20.638  23.693  10.610
41229W        W 4953   3.829  17.103  11.378
41230W        W 4954  37.445  39.514   4.214
41231W        W 4955   4.229  19.584   1.447
41232W        W 4956  23.161  43.887   4.745
41233W        W 4957  31.510   6.306   0.956
41234W        W 4958   0.280  13.294  13.887
41235W        W 4959   8.796  15.636   5.242
41236W        W 4960   7.175  14.628  11.484
41237W        W 4961  43.315   0.365  11.373
41238W        W 4962  26.166  30.976  10.576
41239W        W 4963  30.074  18.589  11.433
41240W        W 4964  38.336   3.856   3.753
41241W        W 4965  25.488  16.782  10.026
41242W        W 4966   4.313   1.863  10.611
41243W        W 4967  38.924  36.842   4.638
41244W        W 4968  11.774  11.360   2.264
41245W        W 4969   7.765   9.691  10.139
41246W        W 4970  16.102   2.855   3.668
41247W        W 4971  35.436  29.045   1.300
41248W        W 4972   1.839  23.006   3.796
41249W        W 4973  15.615  32.586  12.477
41250W        W 4974  37.505  28.438  12.005
41251W        W 4975   8.815  36.532   1.289
41252W        W 4976  31.099  39.054   1.922
41253W        W 4977   4.261  32.982  14.392
41254W        W 4978  42.404   8.209   2.807
41255W        W 4979  14.238  44.428   4.205
41256W        W 4980   2.847  33.567   1.279
41257W        W 4981   2.848  16.728   4.213
41258W        W 4982  23.074  14.172  10.975
41259W        W 4983  31.636  16.079   2.210
41260W        W 4984   1.239   1.924  13.435
41261W        W 4985  34.920   7.815  13.398
41262W        W 4986  16.117   5.289  14.458
41263W        W 4987  23.060  20.711   1.805
41264W        W 4988  33.380  16.657   9.609
41265W        W 4989  20.173  37.045   1.720
41266W        W 4990  30.628  32.935   0.453
41267W        W 4991  18.612   9.671   3.835
41268W        W 4992  15.665  26.090   4.637
41269W        W 4993  35.463  39.555  12.865
41270W        W 4994  30.910  41.513  10.443
41271W        W 4995   0.271  44.482   3.792
41272W        W 4996   0.929  27.038  10.615
41273W        W 4997  43.437   4.855  11.097
41274W        W 4998  34.912  13.268  12.404
41275W        W 4999  19.040  44.909   2.711
41276W        W 5000   6.201  26.159  11.012
41277W        W 5001  41.025   3.827  11.877
41278W        W 5002  41.930  10.868   2.887
41279W        W 5003  21.204  32.558  11.993
41280W        W 5004  15.821  11.257   1.374
41281W        W 5005   5.690  38.444  11.028
41282W        W 5006  29.137  16.182   2.200
41283W        W 5007  29.022  36.017   1.321
41284W        W 5008   4.224  14.767  11.428
41285W        W 5009  17.799  16.767   4.119
41286W        W 5010   7.876   5.358   0.399
41287W        W 5011  26.080  19.212  13.512
41288W        W 5012  22.083  13.816  14.375
41289W        W 5013  28.060  10.375  11.383
41290W        W 5014  18.763   0.467   1.738
41291W        W 5015   6.700  43.480   1.430
41292W        W 5016  36.394   7.740   3.841
41293W        W 5017  18.119   0.861  12.343
41294W        W 5018  15.747  15.273   1.386
41295W        W 5019  15.283  37.466   4.239
41296W        W 5020  24.528  13.733  10.482
41297W        W 5021  13.802  34.017  14.816
41298W        W 5022  28.636  21.208  12.481
41299W        W 5023  12.721  25.537   2.209
41300W        W 5024   9.294   9.877   0.839
41301W        W 5025  28.113  32.576   1.237
41302W        W 5026   8.689  42.816   0.899
41303W        W 5027   9.836  19.250  13.945
41304W        W 5028  23.233  43.487  14.310
41305W        W 5029   1.443  36.853   3.771
41306W        W 5030  20.645  16.162  11.017
41307W        W 5031  23.674   2.866  11.442
41308W        W 5032   4.409  42.436   0.421
41309W        W 5033  32.436   4.801   1.880
41310W        W 5034  44.782  20.112  10.562
41311W        W 5035  35.437  44.995  13.442
41312W        W 5036  40.857  25.007   1.277
41313W        W 5037  25.215  32.394  11.043
41314W        W 5038  41.849  14.128  14.478
41315W        W 5039   0.872  40.018  12.842
41316W        W 5040  27.950  10.744  12.936
41317W        W 5041   4.727   4.332  13.341
41318W        W 5042   2.942   0.831  11.079
41319W        W 5043  22.614  11.827   3.704
41320W        W 5044  42.791   6.913  13.474
41321W        W 5045   0.983  34.454   1.695
41322W        W 5046  30.914  38.862  11.063
41323W        W 5047  37.527  38.887   3.711
41324W        W 5048  18.171  38.561   2.883
41325W        W 5049  39.357  25.069  13.896
41326W        W 5050  13.722  21.199  14.488
41327W        W 5051  25.153  35.028  11.022
41328W        W 5052   8.833  26.021  14.006
41329W        W 5053  27.960  25.673  12.463
41330W        W 5054  16.720  17.066   4.671
41331W        W 5055  13.140  42.510  14.390
41332W        W 5056  31.937   5.860   1.810
41333W        W 5057  22.606  29.560  13.537
41334W        W 5058  31.910  17.073   2.894
41335W        W 5059  39.497  10.370   0.772
41336W        W 5060  12.284  32.556  11.503
41337W        W 5061  39.905  21.086   1.812
41338W        W 5062  18.706   8.832  13.040
41339W        W 5063  35.927  10.843   1.407
41340W        W 5064  36.482   7.817  14.305
41341W        W 5065  16.671  41.997  14.817
41342W        W 5066  34.579  31.601   3.860
41343W        W 5067   6.762  27.025   2.410
41344W        W 5068  43.500  10.379   3.824
41345W        W 5069  14.662  20.052  10.490
41346W        W 5070  16.201  25.166  14.406
41347W        W 5071   2.322  28.150  12.969
41348W        W 5072  11.302  22.550   2.891
41349W        W 5073  16.238  42.846   4.605
41350W        W 5074  41.903  27.105  11.090
41351W        W 5075  24.676  14.159  14.979
41352W        W 5076  44.270   5.378   2.780
41353W        W 5077  22.608  44.920  13.971
41354W        W 5078  37.999  34.493   3.190
41355W        W 5079  29.080  29.479   4.785
41356W        W 5080   5.710   5.826   4.711
41357W        W 5081  30.907  16.136  13.840
41358W        W 5082  20.241  13.279   1.346
41359W        W 5083  10.825  43.511   0.820
41360W        W 5084  15.727  21.597   4.816
41361W        W 5085  12.794  23.159   2.256
41362W        W 5086  40.970  37.064  11.506
41363W        W 5087  36.421  11.697  13.908
41364W        W 5088  34.963  38.501  11.111
41365W        W 5089  42.933   4.823   5.084
41366W        W 5090   0.430  16.795   0.281
41367W        W 5091  30.456  18.761  14.398
41368W        W 5092  19.059  23.136  14.831
41369W        W 5093   9.333  40.524  11.867
41370W        W 5094  29.170  40.968   1.287
41371W        W 5095   6.405  16.772  13.450
41372W        W 5096  40.799  11.685  11.083
41373W        W 5097  17.736  26.086  14.344
41374W        W 5098  42.970  18.645   3.797
41375W        W 5099  20.269  31.460   3.161
41376W        W 5100  14.733  37.006   4.259
41377W        W 5101  40.828  31.412   0.263
41378W        W 5102  32.953  33.616  13.331
41379W        W 5103  23.512  11.213  14.028
41380W        W 5104  26.584   7.310  14.936
41381W        W 5105  10.318  18.130  13.488
41382W        W 5106   9.689  37.512  11.455
41383W        W 5107  13.317  24.550   3.355
41384W        W 5108  34.469  31.996   0.899
41385W        W 5109  13.218  25.004   5.203
41386W        W 5110  41.454  19.679   1.814
41387W        W 5111  37.532  12.796   1.283
41388W        W 5112  34.041   3.230   3.785
41389W        W 5113  10.806  24.176   3.319
41390W        W 5114   2.468  43.982   1.375
41391W        W 5115  26.037  14.113   0.244
41392W        W 5116  15.319  35.050  14.462
41393W        W 5117  21.616  33.460   3.644
41394W        W 5118  35.395  34.052  13.053
41395W        W 5119  20.638  41.915   1.902
41396W        W 5120  16.193  39.915  14.907
41397W        W 5121  17.159  28.550  13.962
41398W        W 5122  40.982  38.058  12.573
41399W        W 5123  26.481   2.270  12.398
41400W        W 5124   4.710   1.336  14.312
41401W        W 5125  24.129  28.971   0.964
41402W        W 5126  24.029  17.060   2.780
41403W        W 5127  21.208  13.123   9.925
41404W        W 5128   3.927  39.333  11.068
41405W        W 5129  26.019  32.922   4.313
41406W        W 5130  25.687  16.584  13.015
41407W        W 5131  22.112  19.751  10.551
41408W        W 5132  27.169  22.599  12.095
41409W        W 5133  17.779  44.430   4.758
41410W        W 5134  36.512  34.906   1.242
41411W        W 5135   7.381  42.964  12.015
41412W        W 5136  36.478  33.437  10.530
41413W        W 5137  44.852  42.359  13.036
41414W        W 5138  20.188  12.694  14.426
41415W        W 5139  30.549  33.092  12.506
41416W        W 5140  16.641  27.585  10.436
41417W        W 5141  27.069  27.953   4.660
41418W        W 5142  35.978   5.338   0.361
41419W        W 5143   6.759  32.509  12.363
41420W        W 5144  28.582  33.540   3.386
41421W        W 5145  39.378  20.681  11.861
41422W        W 5146  22.180   1.456   2.873
41423W        W 5147   8.708   8.700  13.837
41424W        W 5148  10.818  11.696  14.962
41425W        W 5149  18.785   9.783   1.260
41426W        W 5150  28.038  18.584   4.336
41427W        W 5151  23.526   5.841   2.245
41428W        W 5152  25.564  44.330   3.349
41429W        W 5153  26.623   5.924   0.920
41430W        W 5154   5.717  16.801   4.833
41431W        W 5155   0.450  11.662  10.624
41432W        W 5156   3.358  15.301  14.000
41433W        W 5157  26.599  42.287   3.200
41434W        W 5158   1.864  24.711   2.729
41435W        W 5159   8.693  42.908  14.836
41436W        W 5160  24.605   2.361   0.293
41437W        W 5161  22.652   2.797   0.829
41438W        W 5162  18.139  34.385   3.166
41439W        W 5163  29.597   8.859  10.012
41440W        W 5164  44.974   2.422   2.343
41441W        W 5165  24.649  41.835  14.773
41442W        W 5166  30.515  31.463  11.872
41443W        W 5167  37.524  13.128   1.878
41444W        W 5168  31.584  38.893  13.828
41445W        W 5169  29.618   0.418   1.433
41446W        W 5170  29.078  24.137  13.547
41447W        W 5171  29.648   9.885   0.946
41448W        W 5172  31.575  40.546  12.828
41449W        W 5173  38.829  22.583   3.637
41450W        W 5174  10.355   4.362  14.016
41451W        W 5175  14.760  39.483  14.876
41452W        W 5176  10.362  26.702  12.077
41453W        W 5177  29.157  31.904  13.374
41454W        W 5178   7.887  12.362  14.471
41455W        W 5179  38.038  21.564   1.796
41456W        W 5180   7.788   0.813   4.256
41457W        W 5181  13.664  33.128   1.723
41458W        W 5182   6.711   4.731  10.626
41459W        W 5183  28.155  11.732   0.966
41460W        W 5184   2.799  31.498  14.027
41461W        W 5185  44.945   0.903   4.277
41462W        W 5186   0.343  38.535   1.355
41463W        W 5187  31.920  39.508   0.418
41464W        W 5188  23.673  29.552  14.844
41465W        W 5189  16.102  16.715  14.489
41466W        W 5190  36.955   7.381  13.977
41467W        W 5191  24.572  42.469   0.756
41468W        W 5192  31.565  35.083   3.150
41469W        W 5193  30.045   1.742   1.745
41470W        W 5194   2.319  11.654   0.906
41471W        W 5195  36.910  26.540   3.669
41472W        W 5196   6.272  39.400  12.504
41473W        W 5197   6.911   1.246  12.834
41474W        W 5198  14.708   9.871  13.473
41475W        W 5199  10.214   4.203  14.812
41476W        W 5200  37.578  40.942  14.890
41477W        W 5201   2.823  13.309  13.797
41478W        W 5202   1.787  40.916   2.723
41479W        W 5203  19.677  37.494  11.039
41480W        W 5204  13.156   9.791   0.252
41481W        W 5205  11.704  19.251   3.198
41482W        W 5206  23.588  24.208  10.416
41483W        W 5207  12.267  14.205  14.794
41484W        W 5208  15.093  25.017  14.967
41485W        W 5209   5.362   2.746   4.155
41486W        W 5210  30.548  17.237   1.743
41487W        W 5211  29.551  13.194   3.148
41488W        W 5212  40.365  19.608  12.400
41489W        W 5213  33.016  33.404   0.331
41490W        W 5214  12.282  40.444  11.475
41491W        W 5215   9.852   7.877  12.466
41492W        W 5216  20.066   8.298   2.754
41493W        W 5217  12.621   3.949  11.487
41494W        W 5218  43.434  34.382   4.296
41495W        W 5219  19.148  44.968   1.276
41496W        W 5220  43.394  26.614  12.051
41497W        W 5221  11.155  16.798  14.485
41498W        W 5222  10.812  25.082   3.863
41499W        W 5223  35.997  31.459  13.972
41500W        W 5224  40.048  33.613   3.281
41501W        W 5225  16.314  38.467   2.678
41502W        W 5226  11.705  22.137  14.010
41503W        W 5227  10.734  38.856  11.493
41504W        W 5228  34.916  32.600  12.018
41505W        W 5229  25.520  34.879   3.300
41506W        W 5230  37.412  43.451   3.830
41507W        W 5231  12.777  40.509  11.587
41508W        W 5232  10.669  12.315  14.896
41509W        W 5233  44.395  12.146   3.731
41510W        W 5234  13.265  13.128  14.814
41511W        W 5235  32.102  44.349  11.027
41512W        W 5236  39.383  24.496  12.407
41513W        W 5237  36.898  35.440   3.364
41514W        W 5238  37.400   3.729   2.829
41515W        W 5239  37.940  32.431   2.808
41516W        W 5240  19.647  31.951  14.006
41517W        W 5241   0.751  19.065   4.639
41518W        W 5242  15.617  26.700   1.921
41519W        W 5243  34.390  31.897   4.307
41520W        W 5244  42.949  35.998   0.416
41521W        W 5245  18.287  28.068   1.934
41522W        W 5246   6.814  26.557  14.338
41523W        W 5247  33.577  39.321  14.344
41524W        W 5248  30.079  40.967  11.934
41525W        W 5249   7.684  17.794   0.818
41526W        W 5250  10.348  26.161   0.779
41527W        W 5251  21.075   7.252  12.574
41528W        W 5252  15.786  34.118   4.301
41529W        W 5253   9.273  32.412   2.409
41530W        W 5254  18.586  12.277   3.238
41531W        W 5255   3.944  40.886  14.276
41532W        W 5256   1.343  29.616   2.865
41533W        W 5257  13.610  33.121   4.772
41534W        W 5258  34.603  40.913  13.468
41535W        W 5259  43.289   1.918  14.906
41536W        W 5260   8.721   8.852   5.288
41537W        W 5261  42.791  13.205   5.207
41538W        W 5262  35.391  25.214  13.888
41539W        W 5263  33.445  19.723   2.789
41540W        W 5264   7.751  36.474   3.304
41541W        W 5265  44.928   6.345   3.244
41542W        W 5266  30.489   1.805  14.437
41543W        W 5267  42.021  21.548   2.830
41544W        W 5268  13.779  17.236   4.776
41545W        W 5269  32.405  32.524  12.450
41546W        W 5270  11.712  36.848  14.811
41547W        W 5271  24.601  37.853   3.653
41548W        W 5272  35.913  41.374  11.859
41549W        W 5273  17.232  37.468  11.019
41550W        W 5274   0.876  32.952  12.928
41551W        W 5275   0.867   8.756  10.049
41552W        W 5276  39.897   5.240   3.640
41553W        W 5277  43.858   0.478  12.092
41554W        W 5278   9.299  21.728   0.924
41555W        W 5279  28.941  23.188  10.527
41556W        W 5280  16.214  16.242  14.321
41557W        W 5281  34.499  21.166  12.987
41558W        W 5282  25.147  10.863   1.355
41559W        W 5283  37.521   8.296   4.213
41560W        W 5284  41.808  36.963  13.820
41561W        W 5285   6.312  36.037   1.340
41562W        W 5286  17.676  42.800   0.952
41563W        W 5287  21.134  44.295  14.016
41564W        W 5288  29.114  31.549   3.757
41565W        W 5289  35.885  41.460   0.319
41566W        W 5290  36.412  26.617  11.089
41567W        W 5291   0.791   5.732   1.805
41568W        W 5292  20.565  19.772  14.389
41569W        W 5293   4.400  18.294  12.887
41570W        W 5294   3.372  28.003  12.070
41571W        W 5295  33.110  19.602  14.361
41572W        W 5296  22.724  39.445   2.340
41573W        W 5297  11.642   6.823  11.029
41574W        W 5298  11.324  27.181  14.466
41575W        W 5299  44.955  15.695   1.433
41576W        W 5300  32.996  42.401   3.177
41577W        W 5301  26.007  30.624   1.322
41578W        W 5302  40.540  12.801  11.012
41579W        W 5303  41.388  20.552   9.926
41580W        W 5304  38.838  20.151  10.899
41581W        W 5305  36.452  10.237   5.208
41582W        W 5306  14.237  26.035  14.467
41583W        W 5307   5.381   9.248  13.869
41584W        W 5308  22.636  17.704   1.293
41585W        W 5309   0.422  30.947  12.835
41586W        W 5310   1.292  16.644   4.694
41587W        W 5311  42.375  29.460   2.702
41588W        W 5312   9.751  10.802   5.709
41589W        W 5313  41.373   6.391   4.741
41590W        W 5314  11.151  18.585  11.018
41591W        W 5315   4.244  24.980   2.889
41592W        W 5316  26.044   7.337   3.736
41593W        W 5317  20.579  40.312   1.855
41594W        W 5318  40.522  41.905   4.124
41595W        W 5319   8.657  15.582   0.334
41596W        W 5320  37.893  40.464   2.374
41597W        W 5321  20.066   8.845   4.801
41598W        W 5322  41.368   5.436  13.527
41599W        W 5323   2.323  17.123  13.021
41600W        W 5324  24.574  36.917   2.775
41601W        W 5325  15.804  40.865  11.600
41602W        W 5326  39.823  43.972   1.709
41603W        W 5327  18.758  17.749  13.412
41604W        W 5328  34.486   9.245   4.655
41605W        W 5329  21.682   2.777   3.816
41606W        W 5330  41.518  26.024   3.848
41607W        W 5331  10.359   8.792  11.604
41608W        W 5332  29.450  19.225   0.955
41609W        W 5333  35.096  24.679  13.791
41610W        W 5334   8.721  32.045  12.558
41611W        W 5335  16.721  23.696   4.302
41612W        W 5336  20.679  13.282  12.456
41613W        W 5337  41.811  32.410   1.319
41614W        W 5338  18.717  25.702   0.271
41615W        W 5339   2.305  25.005   3.181
41616W        W 5340   0.287   7.750  14.780
41617W        W 5341  14.190  30.977  11.456
41618W        W 5342  38.828  43.773   3.300
41619W        W 5343  25.213  43.765  13.501
41620W        W 5344  11.663   2.255   3.305
41621W        W 5345  37.440  35.543   0.395
41622W        W 5346   1.434   6.848   2.231
41623W        W 5347  43.398  34.922   2.850
41624W        W 5348  29.967  44.440   2.838
41625W        W 5349   7.898  38.420   0.746
41626W        W 5350  39.006  26.162  12.978
41627W        W 5351   6.858  13.291   4.196
41628W        W 5352   6.807  32.023  12.352
41629W        W 5353  32.122  34.581   3.324
41630W        W 5354   4.824  24.159   3.192
41631W        W 5355  32.548   4.814   0.789
41632W        W 5356  14.705  22.664   1.708
41633W        W 5357  39.502   1.282  11.407
41634W        W 5358  21.538  30.549  12.968
41635W        W 5359  19.565  38.402   2.232
41636W        W 5360  15.200  29.472  10.973
41637W        W 5361  14.648  13.747   2.286
41638W        W 5362   5.339   8.813   3.853
41639W        W 5363  22.150  23.535   3.742
41640W        W 5364  27.143  30.566  12.913
41641W        W 5365   3.367  31.598  12.905
41642W        W 5366  17.237  15.782  14.339
41643W        W 5367  43.796  40.488  11.019
41644W        W 5368  21.688  36.549   5.140
41645W        W 5369  44.441  40.533  13.365
41646W        W 5370   4.420  10.826   0.744
41647W        W 5371  36.458  44.808  13.896
41648W        W 5372  12.262   3.810   4.772
41649W        W 5373   7.215  21.566  14.942
41650W        W 5374   9.753  16.204   4.618
41651W        W 5375  13.227  16.290   2.312
41652W        W 5376  18.212   4.930  14.317
41653W        W 5377   5.208  38.570  14.848
41654W        W 5378  15.240  21.663  10.408
41655W        W 5379  17.203   9.302  12.901
41656W        W 5380   0.945  36.423  12.010
41657W        W 5381  22.504  44.982   0.258
41658W        W 5382  43.881  32.393   2.665
41659W        W 5383  12.670  24.535   2.853
41660W        W 5384  22.088  44.955   0.270
41661W        W 5385   6.794  43.496   3.231
41662W        W 5386  16.766  43.786  12.477
41663W        W 5387  11.719  25.526  13.397
41664W        W 5388  29.136  24.556   0.347
41665W        W 5389  43.851  25.001   2.306
41666W        W 5390  11.822   9.309   4.162
41667W        W 5391   2.817   7.751  11.519
41668W        W 5392  36.911  43.795   0.333
41669W        W 5393  25.142   9.820  11.896
41670W        W 5394  24.552  41.835  11.056
41671W        W 5395  27.012  40.338   3.218
41672W        W 5396  14.291  26.656   3.387
41673W        W 5397  33.544  16.603  14.371
41674W        W 5398  44.294  26.649  13.054
41675W        W 5399  14.161  25.070   2.678
41676W        W 5400   1.912  30.989   4.678
41677W        W 5401  20.667  26.987   2.710
41678W        W 5402  43.964  44.271   0.386
41679W        W 5403  14.792  14.786   0.388
41680W        W 5404  36.394  17.615   1.731
41681W        W 5405   3.447   9.150   3.166
41682W        W 5406  18.648  35.516   4.334
41683W        W 5407  18.267  16.287   4.198
41684W        W 5408  35.364  20.589  13.376
41685W        W 5409  12.322  24.049  11.570
41686W        W 5410  12.761  22.156  11.442
41687W        W 5411  17.700   3.722   1.875
41688W        W 5412   9.878  26.045   4.614
41689W        W 5413  10.646   9.306  12.527
41690W        W 5414   2.831  18.101  12.357
41691W        W 5415  20.271  16.223  13.004
41692W        W 5416  28.595  25.609   1.445
41693W        W 5417  29.025  14.687  12.905
41694W        W 5418   1.892  18.215   3.688
41695W        W 5419  13.785  34.460   2.348
41696W        W 5420  36.590  35.872  10.111
41697W        W 5421  32.986  11.765   3.253
41698W        W 5422  40.001  18.252   3.350
41699W        W 5423   5.261  38.917   3.682
41700W        W 5424  27.053  24.183   0.890
41701W        W 5425  20.128   3.376   2.816
41702W        W 5426  34.446  29.572  14.388
41703W        W 5427  18.544  34.514  11.960
41704W        W 5428   7.876   8.198  12.493
41705W        W 5429  29.548  35.450  13.881
41706W        W 5430  16.760  18.108  13.390
41707W        W 5431  30.118  27.183   4.686
41708W        W 5432  13.660  16.164  13.922
41709W        W 5433  40.531   2.936   2.334
41710W        W 5434  24.545  11.846  14.957
41711W        W 5435   9.279  31.093  10.493
41712W        W 5436  39.811  32.543   4.721
41713W        W 5437   9.212  30.102  14.454
41714W        W 5438  31.429   3.933  12.089
41715W        W 5439  25.690   8.853  14.310
41716W        W 5440  43.856  15.221  14.318
41717W        W 5441  10.250   9.704  12.447
41718W        W 5442  36.484  39.812  14.289
41719W        W 5443  28.128  10.647  10.988
41720W        W 5444  43.379   1.941  12.956
41721W        W 5445  30.421   6.687   2.391
41722W        W 5446   1.296   6.922   0.419
41723W        W 5447  38.932  28.988   0.753
41724W        W 5448  20.111  35.873   1.875
41725W        W 5449  31.585  43.355  14.275
41726W        W 5450  39.884  30.001   0.805
41727W        W 5451  43.330  14.157   3.740
41728W        W 5452  27.590  17.266  10.590
41729W        W 5453  28.499  36.524  11.892
41730W        W 5454   9.676  43.940   4.281
41731W        W 5455  31.050  18.110   1.770
41732W        W 5456  37.357   1.380  13.358
41733W        W 5457  42.431   5.235  14.368
41734W        W 5458  30.126   3.859   0.957
41735W        W 5459  11.310  12.162  12.525
41736W        W 5460   3.452  37.060   4.675
41737W        W 5461   8.330  11.337  11.557
41738W        W 5462   1.385  38.863   2.254
41739W        W 5463  39.404  34.968   2.776
41740W        W 5464  10.251  34.887  12.553
41741W        W 5465   3.290  36.037   4.113
41742W        W 5466  10.290   1.252   2.793
41743W        W 5467  25.575  14.714  12.976
41744W        W 5468  28.595  10.165  14.758
41745W        W 5469  13.845   3.939   4.650
41746W        W 5470  38.951  15.668  13.062
41747W        W 5471  30.978  20.644  14.462
41748W        W 5472   4.810  22.075   1.310
41749W        W 5473  43.874  37.522   9.527
41750W        W 5474   2.962   3.866   0.378
41751W        W 5475   8.215  39.949  11.013
41752W        W 5476  32.633  26.610   4.158
41753W        W 5477   6.240  19.217  13.447
41754W        W 5478  33.091  12.728  10.013
41755W        W 5479  33.062  19.682   1.749
41756W        W 5480   9.810  16.699  13.455
41757W        W 5481  36.381  20.151   2.785
41758W        W 5482  27.457  11.851  11.501
41759W        W 5483  40.919   0.969   5.305
41760W        W 5484  31.506  29.104   0.961
41761W        W 5485  22.207   0.318  13.348
41762W        W 5486  15.777   1.356   0.409
41763W        W 5487  21.055  31.901   2.283
41764W        W 5488  43.923  32.108   4.288
41765W        W 5489   4.371   3.802   1.849
41766W        W 5490  23.653  42.397   3.292
41767W        W 5491   8.281  18.740  13.933
41768W        W 5492  23.577  16.632  11.568
41769W        W 5493  30.986   4.715   2.740
41770W        W 5494  20.599   8.666   1.397
41771W        W 5495  15.207  35.372   1.308
41772W        W 5496  26.665  19.165  13.400
41773W        W 5497  18.260  23.199  10.897
41774W        W 5498  16.073  41.871  10.992
41775W        W 5499   2.906   5.817  12.457
41776W        W 5500   8.669  18.136  13.957
41777W        W 5501  29.481  35.906   3.298
41778W        W 5502  24.152  22.597   2.328
41779W        W 5503  21.101  11.749   2.722
41780W        W 5504  35.373  32.523  12.918
41781W        W 5505  25.102  36.927   0.418
41782W        W 5506  15.212  20.762  14.797
41783W        W 5507  22.006  20.624   2.329
41784W        W 5508   5.300  38.330  14.488
41785W        W 5509  21.643   0.393   4.236
41786W        W 5510  17.740  37.346  13.317
41787W        W 5511  24.543  36.056   0.781
41788W        W 5512  25.624  39.000  14.313
41789W        W 5513   9.157   9.379  10.975
41790W        W 5514   3.433  44.331   0.307
41791W        W 5515  33.956  14.137  11.386
41792W        W 5516  42.410  15.647   2.277
41793W        W 5517   3.380  22.616   2.303
41794W        W 5518  39.534  14.594  11.413
41795W        W 5519   9.659  25.510   0.898
41796W        W 5520   0.922   8.250   3.158
41797W        W 5521   9.652  38.358  13.059
41798W        W 5522  17.181  17.249  12.955
41799W        W 5523   9.832  28.148  10.900
41800W        W 5524  27.984  23.017   1.760
41801W        W 5525  42.810   8.821  10.639
41802W        W 5526  29.981  20.547   0.286
41803W        W 5527   6.876   5.362  12.967
41804W        W 5528  20.650  33.988  12.083
41805W        W 5529  22.642   4.893  11.126
41806W        W 5530  37.057  43.790   1.723
41807W        W 5531   2.227  32.009  12.991
41808W        W 5532  12.317  43.797  14.794
41809W        W 5533   1.758   2.241   4.806
41810W        W 5534  38.853  32.451  12.348
41811W        W 5535  38.904   1.876  11.606
41812W        W 5536  10.307  37.963  11.890
41813W        W 5537   6.344   0.781  10.140
41814W        W 5538  41.361  21.720   3.694
41815W        W 5539  25.086  15.244  11.447
41816W        W 5540  16.216   3.809   4.676
41817W        W 5541  23.184  40.913  10.562
41818W        W 5542  14.679   9.878  11.059
41819W        W 5543   3.327  15.607  13.947
41820W        W 5544   7.724  23.547   1.236
41821W        W 5545  24.169  15.816  11.934
41822W        W 5546   0.850  16.222   2.869
41823W        W 5547  12.750  27.974   4.667
41824W        W 5548  18.746   0.467   4.766
41825W        W 5549  22.705  24.170  10.531
41826W        W 5550  33.120  36.349   1.865
41827W        W 5551  40.975  37.458  12.895
41828W        W 5552  10.312  39.387  10.918
41829W        W 5553  27.491   8.402  11.530
41830W        W 5554  41.977  29.529  13.939
41831W        W 5555  18.182  29.520   2.761
41832W        W 5556  32.922  40.495   2.745
41833W        W 5557   9.757  26.503  14.859
41834W        W 5558  16.300  35.373   0.348
41835W        W 5559  15.642   3.240  11.524
41836W        W 5560  18.292   0.313  14.831
41837W        W 5561  38.397  35.996  13.851
41838W        W 5562  32.072  34.396  11.898
41839W        W 5563  44.994  17.674   2.257
41840W        W 5564  16.222  13.721  14.825
41841W        W 5565   4.941  41.491  14.349
41842W        W 5566  39.885   7.344   0.922
41843W        W 5567  41.353  19.544  13.965
41844W        W 5568  15.297  17.560   0.816
41845W        W 5569  27.049   3.275   0.865
41846W        W 5570  16.251  22.654  12.418
41847W        W 5571  37.529   5.742  11.536
41848W        W 5572  26.151  41.921   1.732
41849W        W 5573  28.439   9.798   5.796
41850W        W 5574  21.735  20.563   1.708
41851W        W 5575   8.785   1.922  13.857
41852W        W 5576  24.228  31.959   2.698
41853W        W 5577  39.371  37.977  11.043
41854W        W 5578  17.616  29.056  10.447
41855W        W 5579  34.069  22.566  11.974
41856W        W 5580  33.926  28.148   2.335
41857W        W 5581  11.759  39.525  14.008
41858W        W 5582  13.691  41.381  10.550
41859W        W 5583  26.007  43.995  14.505
41860W        W 5584  18.728  37.847  13.392
41861W        W 5585  21.739  42.940  10.431
41862W        W 5586   8.339   0.427   0.334
41863W        W 5587  15.305   4.349  11.593
41864W        W 5588  10.834  23.722  14.445
41865W        W 5589  35.901  11.346  14.933
41866W        W 5590  32.064  26.635  10.504
41867W        W 5591  14.289  18.218   1.243
41868W        W 5592  43.475  31.047  13.944
41869W        W 5593  15.739  38.858   1.213
41870W        W 5594   7.391  15.243  14.389
41871W        W 5595   2.340  41.801   3.232
41872W        W 5596   5.381  38.386  12.910
41873W        W 5597   8.242  24.019   2.226
41874W        W 5598  41.981  16.620   2.354
41875W        W 5599  32.039  42.312  12.010
41876W        W 5600  32.494  29.163  11.088
41877W        W 5601  15.688  15.579  11.983
41878W        W 5602  10.856   6.690   4.248
41879W        W 5603   1.776  15.199   1.744
41880W        W 5604  30.931   1.807   2.187
41881W        W 5605  44.821  40.885  14.389
41882W        W 5606  41.386   1.792   1.406
41883W        W 5607  36.484  12.330   4.177
41884W        W 5608  23.712   4.396   1.409
41885W        W 5609  33.489   8.710   3.325
41886W        W 5610   6.332  20.157  13.480
41887W        W 5611  25.972  38.985  11.992
41888W        W 5612  14.234  32.495  14.031
41889W        W 5613  20.150  34.086  12.870
41890W        W 5614  41.299  21.733  11.571
41891W        W 5615  24.634  40.417   0.849
41892W        W 5616  28.026  11.866  13.056
41893W        W 5617  20.610  27.483  12.913
41894W        W 5618  37.026  38.836  13.539
41895W        W 5619  27.962  34.930  11.442
41896W        W 5620   8.887  14.299   2.307
41897W        W 5621  27.655   0.493   2.740
41898W        W 5622  25.026   8.274  11.491
41899W        W 5623  44.282   3.261  14.373
41900W        W 5624  11.225  43.466   4.829
41901W        W 5625   8.243  18.111  14.357
41902W        W 5626  22.125   9.260  10.633
41903W        W 5627  32.109  35.867   1.367
41904W        W 5628  38.431  30.506   3.238
41905W        W 5629  30.570  17.735  14.473
41906W        W 5630   0.351  40.345   1.409
41907W        W 5631  33.979  27.029   2.401
41908W        W 5632  15.766  22.199  13.050
41909W        W 5633  29.967   3.391   3.853
41910W        W 5634  38.020  41.536   0.812
41911W        W 5635  36.434  31.027  10.488
41912W        W 5636   0.360  29.965   0.849
41913W        W 5637   4.888  13.602  14.318
41914W        W 5638  40.983  43.866  12.475
41915W        W 5639  36.086  31.014   1.272
41916W        W 5640  40.980  38.921   3.786
41917W        W 5641  14.789  13.281  12.875
41918W        W 5642  11.367  18.141   3.351
41919W        W 5643  27.158   8.228   3.214
41920W        W 5644  41.488  32.979  13.370
41921W        W 5645  39.865  42.333   3.688
41922W        W 5646  19.193  27.017   3.159
41923W        W 5647  13.124   9.362  11.466
41924W        W 5648  16.727  14.794   2.229
41925W        W 5649  18.683  23.573  11.051
41926W        W 5650  27.023  44.942   2.825
41927W        W 5651  13.255  30.522  14.936
41928W        W 5652  38.869  25.708   3.319
41929W        W 5653  27.025  21.671   1.325
41930W        W 5654   2.373  26.569   3.182
41931W        W 5655  41.895  32.406   3.352
41932W        W 5656  22.547  41.481   9.654
41933W        W 5657  23.025  19.659  12.510
41934W        W 5658  39.017  42.300  12.563
41935W        W 5659  42.497  22.616   2.182
41936W        W 5660  30.585  13.160   3.312
41937W        W 5661  11.709  11.825   0.856
41938W        W 5662  22.608  20.131   1.738
41939W        W 5663  17.769   1.742   1.923
41940W        W 5664  38.822  23.179  10.542
41941W        W 5665  14.615  34.604   2.874
41942W        W 5666   4.879  35.552  12.826
41943W        W 5667  17.594  13.158  12.849
41944W        W 5668   6.243  28.441  12.347
41945W        W 5669  10.791  35.572  14.863
41946W        W 5670  34.916  18.197  10.556
41947W        W 5671   8.235  37.871  13.965
41948W        W 5672   1.359   6.686  10.466
41949W        W 5673  13.686  19.597  13.390
41950W        W 5674  20.072  22.720   4.733
41951W        W 5675  23.056   3.916   2.709
41952W        W 5676  44.859  25.640  13.915
41953W        W 5677  12.141   5.758  14.398
41954W        W 5678   8.189  14.319   2.835
41955W        W 5679  34.547  33.061   1.345
41956W        W 5680   0.989  35.068  11.095
41957W        W 5681  36.030  34.508   1.910
41958W        W 5682  12.298  25.033  12.023
41959W        W 5683   5.693   4.802   2.857
41960W        W 5684  14.785  36.021  11.417
41961W        W 5685  32.402  11.782   4.121
41962W        W 5686   4.785  17.637  10.146
41963W        W 5687  30.576  42.816  11.452
41964W        W 5688  26.669  38.025   1.446
41965W        W 5689  20.601  12.645   1.917
41966W        W 5690   1.910  26.575  13.516
41967W        W 5691  23.087  38.507   0.869
41968W        W 5692   2.822  14.267  11.118
41969W        W 5693  25.194  16.207   2.405
41970W        W 5694  28.033  22.078   3.648
41971W        W 5695  15.326   7.350   1.768
41972W        W 5696  28.573   9.734  12.043
41973W        W 5697  27.012   6.345  12.038
41974W        W 5698  33.435  32.900   5.200
41975W        W 5699  23.097  16.151   4.623
41976W        W 5700  32.096   0.871   3.260
41977W        W 5701  31.995  35.589   2.801
41978W        W 5702   5.919  19.675  14.971
41979W        W 5703  25.535  38.552   2.225
41980W        W 5704  18.767  24.630   4.791
41981W        W 5705  26.969  34.380   1.390
41982W        W 5706   7.229  41.986  10.435
41983W        W 5707   1.916  38.359  14.811
41984W        W 5708   5.800  34.021   3.203
41985W        W 5709  44.490  19.215  13.485
41986W        W 5710  19.172  23.115  13.060
41987W        W 5711  40.039   8.304   1.302
41988W        W 5712   7.178  36.491  11.521
41989W        W 5713   4.359  27.041   2.855
41990W        W 5714  44.456   4.700   0.254
41991W        W 5715  42.927  23.180   1.238
41992W        W 5716  22.648  43.809  13.528
41993W        W 5717  17.271  17.148   1.764
41994W        W 5718  11.806  11.230  13.052
41995W        W 5719  32.550  43.945  13.417
41996W        W 5720  13.171   7.854   0.242
41997W        W 5721  20.669  41.370   2.213
41998W        W 5722   5.350  35.377  13.936
41999W        W 5723   5.693  41.477  13.532
42000W        W 5724   5.759  16.750  14.925
42001W        W 5725  29.570  23.617   2.747
42002W        W 5726  37.552  28.002   3.207
42003W        W 5727  42.992  11.276  13.030
42004W        W 5728   2.427  10.158   0.451
42005W        W 5729  25.966   9.361   1.786
42006W        W 5730   5.888  22.681   2.387
42007W        W 5731  18.070  38.368  10.532
42008W        W 5732   5.869  37.571  12.364
42009W        W 5733  43.780  40.892  14.765
42010W        W 5734   5.736  21.691   3.642
42011W        W 5735  23.180  30.933   4.637
42012W        W 5736  37.512  24.025  13.042
42013W        W 5737  37.068  43.790   9.441
42014W        W 5738  39.446  42.326   2.237
42015W        W 5739  30.069  31.112   4.676
42016W        W 5740   9.261  29.173   0.737
42017W        W 5741  25.131   8.780   4.156
42018W        W 5742  28.499   2.294   0.383
42019W        W 5743  26.645  23.237  10.544
42020W        W 5744  31.046  34.117   1.291
42021W        W 5745  20.112  18.086  11.079
42022W        W 5746  31.146  15.216   0.936
42023W        W 5747   4.749  32.406   4.168
42024W        W 5748  24.580  13.330   3.766
42025W        W 5749  40.496  36.854   0.480
42026W        W 5750  31.094   6.384  11.073
42027W        W 5751  35.561  27.074  12.995
42028W        W 5752   6.890   7.848   4.338
42029W        W 5753  32.099   4.233  14.401
42030W        W 5754  36.019   9.158  13.060
42031W        W 5755   6.405  25.572   4.619
42032W        W 5756  20.621  34.013   2.903
42033W        W 5757  18.701  18.773  11.008
42034W        W 5758  10.144  34.404  12.470
42035W        W 5759  43.968  36.963  11.595
42036W        W 5760  44.441   9.302  12.537
42037W        W 5761  36.561   7.868  14.779
42038W        W 5762   6.195  27.189  10.637
42039W        W 5763  31.980  10.141   5.175
42040W        W 5764  10.186  19.562   4.632
42041W        W 5765   0.459  13.197  10.479
42042W        W 5766  15.194  26.650  14.280
42043W        W 5767  14.672  22.117  12.929
42044W        W 5768  42.925  12.290   3.668
42045W        W 5769  25.607  28.493  14.331
42046W        W 5770  28.497  39.028   4.327
42047W        W 5771  32.972  13.185  11.086
42048W        W 5772   8.312  31.990   3.677
42049W        W 5773  10.721   0.754   2.181
42050W        W 5774  21.727  37.542   5.100
42051W        W 5775  35.089  19.082  12.349
42052W        W 5776  12.623  15.764  12.464
42053W        W 5777  32.055  37.416   1.911
42054W        W 5778  35.087   9.265  12.992
42055W        W 5779  36.048  19.648   1.818
42056W        W 5780  35.891  13.707  14.502
42057W        W 5781  19.690  23.192  11.485
42058W        W 5782   1.771  40.876  14.434
42059W        W 5783  37.998  29.052  11.927
42060W        W 5784  20.095  18.760  12.829
42061W        W 5785  21.702  41.367  14.771
42062W        W 5786  43.397  16.316  13.908
42063W        W 5787   0.923   4.856   4.113
42064W        W 5788  30.630   0.466   1.857
42065W        W 5789  20.765  17.611  13.329
42066W        W 5790  19.608  36.428   0.364
42067W        W 5791  34.472  19.058  14.965
42068W        W 5792  40.007   5.906   4.687
42069W        W 5793  24.038  35.492  12.874
42070W        W 5794  15.208  30.621  14.027
42071W        W 5795   5.773  18.715  13.323
42072W        W 5796  35.415  36.940   1.243
42073W        W 5797  38.896  31.921  12.003
42074W        W 5798   4.874  14.274   4.336
42075W        W 5799  35.875  38.915   2.831
42076W        W 5800   8.372  35.889  10.426
42077W        W 5801  10.825   9.839  14.337
42078W        W 5802  30.524   5.327  12.859
42079W        W 5803  35.492  21.532   1.413
42080W        W 5804  10.370  40.490   2.412
42081W        W 5805   0.439  19.078  14.360
42082W        W 5806  41.393   5.825   2.307
42083W        W 5807   4.720  10.853  12.010
42084W        W 5808   4.344  29.108  10.501
42085W        W 5809  13.707  35.437  13.030
42086W        W 5810  40.548  26.154  10.600
42087W        W 5811  38.417  14.835   2.672
42088W        W 5812   5.229  38.370  12.361
42089W        W 5813   0.396   2.421  14.998
42090W        W 5814  12.121   0.792   3.148
42091W        W 5815  26.032  42.978  12.881
42092W        W 5816  29.058  13.140  10.479
42093W        W 5817  27.121  43.374   2.898
42094W        W 5818  27.676  38.910  13.360
42095W        W 5819  18.647  26.671   1.753
42096W        W 5820   9.792  26.976  13.024
42097W        W 5821  43.366   7.171  11.867
42098W        W 5822  23.179  41.850  12.922
42099W        W 5823  35.075  30.052  10.568
42100W        W 5824  25.484  32.932  10.915
42101W        W 5825   4.759  31.640   1.724
42102W        W 5826  15.595  25.997  12.094
42103W        W 5827  16.683  42.430  13.978
42104W        W 5828  39.349  44.486   1.405
42105W        W 5829  21.162  20.723   1.281
42106W        W 5830   2.309   1.949  12.846
42107W        W 5831  14.591  31.090  10.910
42108W        W 5832   8.251  28.504   4.324
42109W        W 5833   2.356   5.893   1.418
42110W        W 5834  15.318  32.903  12.461
42111W        W 5835  32.928  31.437  14.834
42112W        W 5836   0.869  28.168  11.910
42113W        W 5837  37.956  15.761   9.980
42114W        W 5838  31.526  10.163  12.572
42115W        W 5839   9.241  13.242   3.343
42116W        W 5840  15.095  42.398   2.201
42117W        W 5841   5.316  44.428   1.705
42118W        W 5842  37.471  25.023  12.899
42119W        W 5843  16.802   9.751   0.823
42120W        W 5844  26.020  35.870   2.678
42121W        W 5845  42.310  41.879   4.324
42122W        W 5846   7.227  35.546  12.829
42123W        W 5847  43.867  20.650   2.739
42124W        W 5848  28.585  22.594  10.985
42125W        W 5849   9.271  16.592   1.742
42126W        W 5850   0.802  27.084  12.075
42127W        W 5851  16.165  14.294   2.836
42128W        W 5852  14.332  40.974  13.535
42129W        W 5853  41.508  12.825  12.079
42130W        W 5854   6.839  17.143  13.385
42131W        W 5855   9.868  23.619  12.981
42132W        W 5856   4.267  38.518  14.416
42133W        W 5857  36.860   0.859  13.978
42134W        W 5858  12.338  28.605   0.251
42135W        W 5859  32.944  29.949   0.852
42136W        W 5860  24.168  14.719   3.821
42137W        W 5861  28.018  37.377  10.093
42138W        W 5862  20.540  28.141  12.485
42139W        W 5863  20.150  34.496   3.358
42140W        W 5864  13.664   1.434  12.945
42141W        W 5865  36.453  16.207  10.136
42142W        W 5866   0.324  11.727  13.852
42143W        W 5867  15.303  28.568  11.858
42144W        W 5868  19.148  43.985  14.471
42145W        W 5869  37.535  10.684  11.882
42146W        W 5870  10.160  18.074   2.356
42147W        W 5871  15.269   3.344   3.180
42148W        W 5872  39.379  23.217  13.878
42149W        W 5873  10.331   7.185   3.676
42150W        W 5874  30.501  22.049   1.359
42151W        W 5875  34.879  12.310  13.383
42152W        W 5876  42.033  34.041  11.868
42153W        W 5877  39.839  32.008   0.353
42154W        W 5878  31.532  21.236   2.846
42155W        W 5879  24.542  30.016  14.321
42156W        W 5880  11.644  17.281   0.946
42157W        W 5881   2.276   6.285  14.793
42158W        W 5882  32.923  21.218   3.806
42159W        W 5883   0.753  42.023   4.308
42160W        W 5884  33.487   4.863   0.436
42161W        W 5885  33.978   4.863   1.809
42162W        W 5886   6.700  25.620   3.748
42163W        W 5887  11.844  32.414  14.765
42164W        W 5888  38.331  20.614  13.025
42165W        W 5889  39.315   0.776  13.844
42166W        W 5890  16.626  13.243  13.945
42167W        W 5891  35.077  13.842   2.240
42168W        W 5892  32.462  26.469  13.331
42169W        W 5893  42.778  30.608   4.299
42170W        W 5894  28.478   1.965   0.853
42171W        W 5895  43.936  26.484   3.822
42172W        W 5896  43.403  14.208  12.083
42173W        W 5897  21.589  16.674   3.778
42174W        W 5898  15.685  40.526  10.464
42175W        W 5899   8.281  31.107   4.614
42176W        W 5900  21.516  44.855   1.862
42177W        W 5901  40.870  31.579   3.630
42178W        W 5902  30.526   7.317   4.605
42179W        W 5903   6.897  27.079  12.889
42180W        W 5904  12.629  18.620   0.381
42181W        W 5905  37.359  40.926   0.918
42182W        W 5906  12.751  28.623   1.921
42183W        W 5907  23.611  15.682  14.904
42184W        W 5908  34.114   4.759   3.731
42185W        W 5909  37.475  12.313   3.183
42186W        W 5910  44.275   0.440  11.979
42187W        W 5911  32.486   9.179  14.514
42188W        W 5912   7.368  27.502  10.505
42189W        W 5913  27.688  10.141   3.640
42190W        W 5914  18.670  13.241  12.485
42191W        W 5915  35.923   8.248   0.786
42192W        W 5916  12.184  20.715   4.237
42193W        W 5917  11.250  27.491   2.734
42194W        W 5918  33.540   4.232  10.562
42195W        W 5919  35.042   0.377   0.826
42196W        W 5920   1.263   3.319  13.958
42197W        W 5921  31.553  44.394  12.078
42198W        W 5922  25.184  36.430  10.640
42199W        W 5923   0.988  19.700   3.158
42200W        W 5924  20.748  32.121   3.684
42201W        W 5925  22.525  27.614  14.493
42202W        W 5926  30.419   9.653   2.779
42203W        W 5927  22.573  16.622  12.502
42204W        W 5928  38.873  12.828   5.193
42205W        W 5929   5.261  15.634   0.778
42206W        W 5930  24.620  10.206  14.027
42207W        W 5931   5.320  30.942   3.844
42208W        W 5932  11.714   3.842  12.939
42209W        W 5933  24.040   0.310   4.609
42210W        W 5934  16.778  13.751   4.628
42211W        W 5935  27.683  22.543  14.874
42212W        W 5936   5.273  14.786  12.999
42213W        W 5937  27.153  35.945  13.850
42214W        W 5938  18.108  24.094   1.926
42215W        W 5939  32.134   6.376  12.532
42216W        W 5940  29.602   8.665   2.705
42217W        W 5941  16.760   1.263   4.296
42218W        W 5942  23.722  39.975  10.557
42219W        W 5943  38.921  21.141   2.843
42220W        W 5944  10.691  16.626   1.837
42221W        W 5945   5.868  28.464  11.396
42222W        W 5946  37.056  24.205  10.445
42223W        W 5947  30.597  21.731  13.034
42224W        W 5948  11.752  36.449   0.924
42225W        W 5949   2.294   2.837  14.778
42226W        W 5950   1.473  24.568  13.377
42227W        W 5951  25.027  18.563   0.929
42228W        W 5952  15.586  11.200   9.989
42229W        W 5953   8.838  18.615  14.445
42230W        W 5954   0.828  17.685  10.918
42231W        W 5955  29.070   1.326   0.342
42232W        W 5956  28.065  41.330  10.014
42233W        W 5957  29.977  24.063   1.243
42234W        W 5958  29.509   4.930  14.876
42235W        W 5959  21.224  18.552  12.443
42236W        W 5960  24.996  33.513  14.802
42237W        W 5961  20.602  13.260   3.835
42238W        W 5962  37.350  25.164  12.524
42239W        W 5963  37.562  25.139  11.127
42240W        W 5964  44.441  31.442  12.504
42241W        W 5965   7.764  16.602   3.722
42242W        W 5966   0.852  10.854  14.388
42243W        W 5967  24.708  33.420   1.316
42244W        W 5968  38.935   6.247   0.325
42245W        W 5969  17.238   8.315   2.765
42246W        W 5970  37.008  14.606  14.405
42247W        W 5971  17.580  22.081   0.433
42248W        W 5972  11.822  10.159   5.253
42249W        W 5973  41.796  31.546  14.313
42250W        W 5974  26.559   2.848  12.952
42251W        W 5975  10.655   9.800  12.576
42252W        W 5976   3.848  25.008  11.982
42253W        W 5977  13.708  28.458   4.202
42254W        W 5978  24.520  32.550   0.791
42255W        W 5979  44.818  13.739  11.916
42256W        W 5980  36.416  31.508   2.280
42257W        W 5981  29.588  15.597   4.320
42258W        W 5982  25.679  13.817  13.826
42259W        W 5983  27.164  26.967  13.914
42260W        W 5984  21.139   1.308  11.531
42261W        W 5985   9.888   4.900  12.956
42262W        W 5986  28.937  24.214  14.926
42263W        W 5987  30.541  41.305  14.307
42264W        W 5988  17.299  29.466  14.910
42265W        W 5989  37.855   7.374   3.310
42266W        W 5990  21.681  44.262   2.865
42267W        W 5991  32.566   1.735   4.724
42268W        W 5992  43.874  40.031  11.507
42269W        W 5993  37.519  22.620  14.916
42270W        W 5994  39.412   4.407  14.781
42271W        W 5995  30.913  25.180  13.497
42272W        W 5996  41.009  41.795   0.477
42273W        W 5997  25.052   8.302   3.684
42274W        W 5998  43.498  30.598   4.202
42275W        W 5999  16.301   1.454   4.839
42276W        W 6000  16.181  19.708   4.185
42277W        W 6001  27.955   3.918   3.683
42278W        W 6002   0.392  40.987  11.071
42279W        W 6003  40.443  32.454   2.699
42280W        W 6004  29.973   1.303   4.655
42281W        W 6005   9.177   1.461  12.057
42282W        W 6006  20.069  30.159  14.389
42283W        W 6007  28.063  16.300   4.835
42284W        W 6008   0.808  11.662   3.687
42285W        W 6009  17.251   7.176  14.841
42286W        W 6010  20.596   3.384   1.838
42287W        W 6011  29.479  17.100  11.024
42288W        W 6012  18.687  32.518   0.336
42289W        W 6013   8.350  13.838  10.535
42290W        W 6014  27.033  14.217   2.269
42291W        W 6015  23.046  10.141   1.911
42292W        W 6016  23.054  43.999   4.117
42293W        W 6017  11.624   8.289   4.704
42294W        W 6018  42.924   2.443   2.178
42295W        W 6019  17.687   1.920  10.624
42296W        W 6020  25.580   6.808  11.039
42297W        W 6021  40.939  39.954   4.628
42298W        W 6022   5.269  26.064   3.344
42299W        W 6023  44.885   1.910  14.344
42300W        W 6024  23.651  23.074   3.680
42301W        W 6025  29.654  29.464   4.794
42302W        W 6026  22.242   0.467   2.759
42303W        W 6027  22.676  34.892  13.856
42304W        W 6028  40.450  13.637   1.384
42305W        W 6029  19.612  32.611  11.867
42306W        W 6030  24.080   2.820  14.315
42307W        W 6031  30.516  10.854  13.855
42308W        W 6032  28.999  42.781   4.205
42309W        W 6033  12.339  23.647  10.893
42310W        W 6034  38.379  39.870   4.713
42311W        W 6035  44.333   2.775   4.326
42312W        W 6036  11.850  25.161  14.951
42313W        W 6037  11.197  16.210  11.062
42314W        W 6038  17.597  37.562   0.325
42315W        W 6039  33.461  14.800   2.257
42316W        W 6040  41.377  34.067   3.344
42317W        W 6041  25.987  12.317   3.252
42318W        W 6042   9.264   5.716  10.639
42319W        W 6043   6.387  36.513   4.701
42320W        W 6044  37.460  14.217   2.327
42321W        W 6045  13.124  30.420  11.910
42322W        W 6046   8.349   3.853  11.895
42323W        W 6047  31.466  14.120  11.932
42324W        W 6048  16.568  10.804  13.027
42325W        W 6049  10.179  20.735   0.764
42326W        W 6050   2.243  42.423  11.127
42327W        W 6051   8.293  41.484   3.826
42328W        W 6052  20.746  13.844  13.032
42329W        W 6053  33.050  20.058   0.835
42330W        W 6054  29.447  25.207   4.294
42331W        W 6055  11.765   1.869  10.606
42332W        W 6056  25.616   1.433   0.377
42333W        W 6057  13.803   7.370   1.821
42334W        W 6058  33.625  40.851  14.511
42335W        W 6059  35.028  14.098   0.942
42336W        W 6060  23.666  10.654   2.390
42337W        W 6061  24.044  28.120  13.516
42338W        W 6062  35.539  19.760   0.378
42339W        W 6063  38.479  16.120  14.344
42340W        W 6064  28.666  42.944  10.435
42341W        W 6065  37.581   8.782  12.453
42342W        W 6066  11.153  12.222   2.373
42343W        W 6067  43.779  25.682  11.924
42344W        W 6068  16.170  25.644   3.739
42345W        W 6069  26.579  41.316   4.183
42346W        W 6070  36.368  13.312   5.150
42347W        W 6071  17.261  23.566   0.267
42348W        W 6072   4.234   9.711  11.039
42349W        W 6073  41.480  43.907  12.013
42350W        W 6074  14.238  41.373  12.949
42351W        W 6075  34.410  15.300   2.293
42352W        W 6076  20.060   6.679   4.275
42353W        W 6077   8.773  16.808  13.371
42354W        W 6078   4.753   8.739   5.247
42355W        W 6079  22.218  30.526   3.178
42356W        W 6080  33.057   2.824   2.763
42357W        W 6081  20.162  20.678  11.600
42358W        W 6082   9.720  40.409  14.297
42359W        W 6083  38.824  41.354  12.512
42360W        W 6084  33.397   4.218  13.483
42361W        W 6085  27.473   7.716   0.774
42362W        W 6086  40.038  30.639   4.257
42363W        W 6087  44.357  13.832   1.338
42364W        W 6088  14.340   9.664   2.745
42365W        W 6089  35.005   9.683  11.110
42366W        W 6090  37.430  13.766   0.961
42367W        W 6091  14.643  27.675  13.450
42368W        W 6092   4.220  35.468  13.008
42369W        W 6093  23.519  12.345   1.282
42370W        W 6094  30.586  39.516  12.498
42371W        W 6095  10.261  44.991  10.564
42372W        W 6096   8.236  18.701  10.598
42373W        W 6097  21.524  20.094  12.865
42374W        W 6098  40.841   9.197   0.392
42375W        W 6099   6.256  15.771   2.751
42376W        W 6100  43.422  25.217   1.214
42377W        W 6101  18.627  15.173  12.094
42378W        W 6102  21.741   0.471   4.780
42379W        W 6103  36.451   5.414  12.376
42380W        W 6104  40.365  24.583   9.971
42381W        W 6105  44.766  19.151   4.225
42382W        W 6106  19.104   3.748   0.960
42383W        W 6107  40.328  34.391  12.074
42384W        W 6108   0.854  21.103  13.891
42385W        W 6109  44.370  29.455  12.026
42386W        W 6110  43.807  23.728  13.310
42387W        W 6111  32.636  33.554  12.077
42388W        W 6112  27.140  34.487   2.202
42389W        W 6113  40.488  24.550  11.439
42390W        W 6114  13.270  33.130  11.472
42391W        W 6115   6.344   1.897   1.786
42392W        W 6116   5.225  11.140   1.755
42393W        W 6117  10.364   9.354  11.106
42394W        W 6118  43.925   9.225  14.786
42395W        W 6119  37.032  21.730  13.872
42396W        W 6120   8.266   5.879  12.434
42397W        W 6121  26.058   3.410   5.160
42398W        W 6122  33.945  11.747  11.441
42399W        W 6123  20.258  23.532  13.022
42400W        W 6124  23.706  21.049  13.033
42401W        W 6125  13.201  33.602   2.344
42402W        W 6126  28.004  12.702   4.311
42403W        W 6127   7.832  26.097  13.933
42404W        W 6128   4.876  26.522   2.384
42405W        W 6129  23.027  15.239   0.870
42406W        W 6130  24.499  38.456  12.015
42407W        W 6131   6.890   8.396  14.025
42408W        W 6132  34.025  27.003   0.451
42409W        W 6133  28.101   5.316  12.032
42410W        W 6134   1.870   8.385   2.752
42411W        W 6135  44.837  17.606   4.639
42412W        W 6136  38.489  38.901  13.936
42413W        W 6137  35.916  20.557  13.501
42414W        W 6138  29.946  35.864  10.408
42415W        W 6139  42.915  42.377  12.989
42416W        W 6140   2.370  10.734  14.281
42417W        W 6141   2.339  22.586  14.352
42418W        W 6142  27.667  11.261   0.248
42419W        W 6143  20.231   3.915  12.512
42420W        W 6144  15.293  43.893  13.865
42421W        W 6145  25.708  24.588   1.316
42422W        W 6146   6.403   1.436  10.947
42423W        W 6147  11.255  14.210  11.462
42424W        W 6148  44.306   6.868   3.319
42425W        W 6149  24.599  21.160   0.757
42426W        W 6150  29.076  28.573   4.312
42427W        W 6151  13.265  26.525   0.818
42428W        W 6152  38.896  15.765   0.333
42429W        W 6153  13.110  40.472  13.338
42430W        W 6154   7.667  13.610   1.916
42431W        W 6155   2.837  19.630   3.676
42432W        W 6156  44.388  20.029  13.845
42433W        W 6157  43.773  42.443   2.351
42434W        W 6158  36.000  17.760  10.566
42435W        W 6159  24.684  27.631   4.278
42436W        W 6160  41.418  12.176  10.641
42437W        W 6161   2.429   7.854   4.710
42438W        W 6162  44.355  40.367   3.665
42439W        W 6163  29.080  35.918  13.869
42440W        W 6164  24.137  26.057   5.671
42441W        W 6165  25.053   6.784   2.684
42442W        W 6166   3.373  29.513  14.365
42443W        W 6167  18.161   6.426   2.822
42444W        W 6168   9.391   8.708  10.529
42445W        W 6169  40.802   7.383  14.811
42446W        W 6170  34.370  31.609  12.529
42447W        W 6171  44.388  26.459   4.775
42448W        W 6172  28.969  24.664  13.812
42449W        W 6173   7.804  14.826  10.969
42450W        W 6174  38.029  25.096  11.068
42451W        W 6175  42.315   8.329  10.604
42452W        W 6176  21.672  36.479  12.396
42453W        W 6177   3.298  27.614  14.878
42454W        W 6178  31.636  43.956   3.663
42455W        W 6179  40.023  19.251  14.294
42456W        W 6180  26.588  20.742   3.146
42457W        W 6181  20.077  41.954  10.564
42458W        W 6182  44.840  21.729  12.462
42459W        W 6183   4.822  17.565   1.900
42460W        W 6184  11.860   1.975   1.318
42461W        W 6185   9.848  23.009  12.529
42462W        W 6186  29.970  43.273  10.570
42463W        W 6187   1.312   1.754   2.875
42464W        W 6188  36.361  41.312  12.063
42465W        W 6189  43.873  34.874  12.937
42466W        W 6190  30.062  24.634  12.867
42467W        W 6191  12.336  22.506  10.596
42468W        W 6192  40.802  28.593  11.522
42469W        W 6193  34.549  13.113   2.875
42470W        W 6194  11.188  37.513  11.410
42471W        W 6195  38.018  25.505  13.045
42472W        W 6196  21.033  26.635  14.467
42473W        W 6197  15.649  36.850   0.892
42474W        W 6198  15.320  28.047  12.867
42475W        W 6199   1.893   5.711   2.717
42476W        W 6200   5.248   2.391   4.769
42477W        W 6201  19.622  34.594  10.988
42478W        W 6202  33.123  19.542   4.136
42479W        W 6203  23.203   7.180   3.824
42480W        W 6204  27.023  44.361   4.781
42481W        W 6205  38.416   2.380   4.346
42482W        W 6206  22.095   5.221  14.017
42483W        W 6207  44.296  35.586   3.327
42484W        W 6208  44.780  42.301   4.313
42485W        W 6209  35.389  36.993  11.879
42486W        W 6210  33.449  19.746  10.936
42487W        W 6211   1.245  22.670   4.322
42488W        W 6212  19.659   5.896   3.325
42489W        W 6213  22.010  17.250   4.769
42490W        W 6214  31.053  16.580  12.507
42491W        W 6215  14.115  25.694  11.431
42492W        W 6216  37.999  17.629   4.273
42493W        W 6217  25.088  34.543   3.323
42494W        W 6218  17.293  11.335   1.808
42495W        W 6219  39.471  32.005  14.422
42496W        W 6220   0.304  43.509  10.622
42497W        W 6221  31.961  28.484  12.963
42498W        W 6222  41.501  11.774   2.309
42499W        W 6223  26.190  23.691   1.744
42500W        W 6224  26.633  16.289  12.905
42501W        W 6225  15.804  37.969   3.207
42502W        W 6226  34.414  11.805   2.295
42503W        W 6227  23.647  21.254   4.117
42504W        W 6228  33.894  33.117  10.510
42505W        W 6229  32.498  17.120  10.152
42506W        W 6230   5.822  14.591   1.708
42507W        W 6231  24.700  42.838   3.700
42508W        W 6232  34.885  43.326  10.934
42509W        W 6233  42.410   8.366  14.423
42510W        W 6234  17.718   3.369  11.398
42511W        W 6235  30.075  30.117  10.960
42512W        W 6236   6.311  39.057   4.285
42513W        W 6237   5.702  28.136  11.420
42514W        W 6238  37.495  10.365   0.276
42515W        W 6239  32.438   6.288   3.700
42516W        W 6240  23.013   3.271  10.638
42517W        W 6241  23.707  42.476  14.471
42518W        W 6242   5.740  43.371   1.719
42519W        W 6243  19.257  12.172  12.409
42520W        W 6244   0.914  42.989  13.952
42521W        W 6245  43.414  25.561   5.314
42522W        W 6246  23.238   3.905   0.441
42523W        W 6247  36.383  20.244  12.940
42524W        W 6248  17.773  21.110  13.975
42525W        W 6249  22.743  11.735  14.308
42526W        W 6250  26.003  16.628   1.418
42527W        W 6251  37.479  13.148   2.717
42528W        W 6252  26.495  43.926  10.501
42529W        W 6253  19.263  21.028  13.855
42530W        W 6254  21.682  44.845  13.541
42531W        W 6255  14.826  10.778   0.481
42532W        W 6256  33.406  40.415  10.410
42533W        W 6257   8.746  42.013   2.682
42534W        W 6258  32.141  44.269   3.292
42535W        W 6259  22.672   0.950   1.827
42536W        W 6260   1.373  29.933  14.876
42537W        W 6261  37.844  19.772  14.796
42538W        W 6262  18.647  14.718   3.253
42539W        W 6263  37.537   9.342  14.804
42540W        W 6264  26.478  40.871  11.044
42541W        W 6265   8.275  36.927   4.706
42542W        W 6266   3.737  37.410  10.968
42543W        W 6267   0.812   6.263  14.936
42544W        W 6268  22.622  13.650   3.268
42545W        W 6269  11.719  12.265   0.335
42546W        W 6270  35.388  33.889   4.263
42547W        W 6271   8.343  24.034  13.881
42548W        W 6272  23.698  36.084  11.902
42549W        W 6273   4.710  34.558  10.045
42550W        W 6274  32.074  17.121   4.642
42551W        W 6275  14.124  21.734   3.637
42552W        W 6276  13.827  13.624  12.873
42553W        W 6277  29.627  12.317  12.084
42554W        W 6278   6.921   2.839   3.162
42555W        W 6279  28.477  12.193   1.729
42556W        W 6280   7.719  29.153  13.532
42557W        W 6281  19.567  25.159  13.375
42558W        W 6282  27.188  20.572  11.016
42559W        W 6283   3.432  15.582  11.939
42560W        W 6284   0.887  42.781  12.960
42561W        W 6285  42.787  17.114  13.512
42562W        W 6286  41.415   8.391  13.808
42563W        W 6287   2.930   5.425  11.379
42564W        W 6288  21.518  26.605  10.146
42565W        W 6289   7.256   7.309  13.797
42566W        W 6290  34.119  19.265   2.416
42567W        W 6291  16.273   7.779   3.157
42568W        W 6292  43.506  20.633   3.186
42569W        W 6293  21.748  16.720   4.717
42570W        W 6294  29.955  40.368  12.926
42571W        W 6295  44.334  31.956  10.518
42572W        W 6296   5.291  22.669  12.008
42573W        W 6297   0.478  41.003  12.073
42574W        W 6298  44.968  20.052  14.844
42575W        W 6299  40.515  29.006   3.709
42576W        W 6300   1.912  23.056  13.854
42577W        W 6301  30.984  28.510  14.792
42578W        W 6302  28.489   6.321  11.868
42579W        W 6303  15.746  29.969   1.393
42580W        W 6304  15.288  44.858  13.843
42581W        W 6305  16.724   8.727   4.183
42582W        W 6306  20.560  27.155  10.999
42583W        W 6307   2.849  18.229   0.875
42584W        W 6308  37.846  19.093   4.153
42585W        W 6309  23.611  29.099  14.331
42586W        W 6310  24.600  41.901   2.668
42587W        W 6311  14.239  18.602  12.471
42588W        W 6312  34.437  37.407  13.996
42589W        W 6313  25.540  42.001   4.239
42590W        W 6314  38.991  22.587   2.872
42591W        W 6315  37.560  32.545   0.896
42592W        W 6316  23.702  44.907   0.932
42593W        W 6317  15.703  27.055   2.356
42594W        W 6318  14.770   1.848  13.049
42595W        W 6319   6.795  33.404  12.038
42596W        W 6320  21.239  27.478  14.793
42597W        W 6321  34.955  17.658  12.046
42598W        W 6322  31.047  16.097   2.410
42599W        W 6323  36.514  24.105   4.216
42600W        W 6324   0.292   8.777   2.207
42601W        W 6325  22.110  36.903  10.062
42602W        W 6326  17.197  10.217  11.072
42603W        W 6327   4.344  15.719   4.655
42604W        W 6328  26.582  38.820  13.897
42605W        W 6329   1.378  31.976   1.874
42606W        W 6330  30.093  23.524   2.700
42607W        W 6331  18.766  22.211  12.341
42608W        W 6332  39.981  38.517   3.746
42609W        W 6333  33.422  15.681  14.032
42610W        W 6334  39.459  18.608   3.779
42611W        W 6335  32.977   1.944  10.981
42612W        W 6336  21.109  24.517  12.355
42613W        W 6337  30.465  14.144  10.417
42614W        W 6338  32.123  44.929   4.810
42615W        W 6339  29.613  11.217   4.687
42616W        W 6340  44.264  12.631   0.470
42617W        W 6341   5.860  40.843   1.735
42618W        W 6342  34.459  14.773  11.016
42619W        W 6343  26.967  19.076   3.737
42620W        W 6344   8.781   8.829  11.410
42621W        W 6345  32.441  41.469   0.897
42622W        W 6346   2.328  28.548  11.101
42623W        W 6347  39.472  19.177  12.077
42624W        W 6348   6.871  38.947  11.436
42625W        W 6349   4.366   4.243  12.090
42626W        W 6350  21.029   6.331   1.908
42627W        W 6351  24.183  25.707   0.902
42628W        W 6352   8.255  33.877   4.161
42629W        W 6353   8.321  11.624   2.262
42630W        W 6354  40.858  19.651   3.856
42631W        W 6355   8.723  24.042   0.901
42632W        W 6356   4.829   7.726   2.776
42633W        W 6357  27.473  14.599  14.894
42634W        W 6358  36.554   2.916  10.907
42635W        W 6359   5.433  36.029   4.601
42636W        W 6360  21.610  41.891   5.132
42637W        W 6361  13.167  33.934   4.762
42638W        W 6362   2.274  31.908   0.793
42639W        W 6363   4.319  11.219  14.361
42640W        W 6364  12.242  39.352  11.612
42641W        W 6365  30.628   4.897  13.038
42642W        W 6366   2.759  24.149  12.466
42643W        W 6367  30.127  21.573   2.847
42644W        W 6368   0.289   6.248   0.440
42645W        W 6369   4.311   5.918  10.897
42646W        W 6370  22.514  14.223  11.465
42647W        W 6371  16.147   2.759   9.616
42648W        W 6372  32.105  43.782   4.182
42649W        W 6373  14.602  41.460  11.494
42650W        W 6374   1.902  22.156   1.366
42651W        W 6375  26.512  13.300   5.127
42652W        W 6376  39.868   8.818  12.429
42653W        W 6377  15.129  42.481  11.472
42654W        W 6378   5.894  24.588  11.045
42655W        W 6379  28.036  22.999   4.354
42656W        W 6380  43.905  26.615   0.763
42657W        W 6381  21.074  25.124  14.978
42658W        W 6382  13.844   4.260   2.183
42659W        W 6383  31.569   9.291  11.998
42660W        W 6384  43.774   4.234  10.950
42661W        W 6385   6.825  32.023   3.204
42662W        W 6386  26.133   8.819  11.479
42663W        W 6387  37.437  12.719   3.147
42664W        W 6388  15.210  41.496   3.367
42665W        W 6389  40.425  26.170  12.467
42666W        W 6390  40.801  18.649   4.229
42667W        W 6391  29.948  38.889  14.294
42668W        W 6392  35.545  12.846   2.895
42669W        W 6393  19.274   0.961  13.884
42670W        W 6394  26.139  34.446   4.666
42671W        W 6395  15.112  23.613  12.427
42672W        W 6396  19.604  29.436   0.891
42673W        W 6397  42.891  35.359   1.800
42674W        W 6398  33.514  30.030  12.921
42675W        W 6399  40.922  36.361  11.012
42676W        W 6400   6.822  41.803  14.763
42677W        W 6401   6.748  15.190  14.424
42678W        W 6402  43.344  33.972  13.992
42679W        W 6403  30.935  34.476  14.297
42680W        W 6404   9.318  12.175   2.226
42681W        W 6405  19.556  30.644  13.009
42682W        W 6406  32.531   1.288   4.832
42683W        W 6407  20.585  17.226   2.729
42684W        W 6408  20.639  36.918  11.876
42685W        W 6409   0.478  25.171   0.730
42686W        W 6410  43.497   5.280  11.597
42687W        W 6411  39.012  20.679   1.807
42688W        W 6412  30.990  35.403   0.960
42689W        W 6413  33.892   4.274   0.428
42690W        W 6414  16.775   3.377  11.426
42691W        W 6415   3.426  40.944  13.497
42692W        W 6416   4.743  33.108  12.344
42693W        W 6417  41.471  33.483  12.976
42694W        W 6418  26.042   4.756  14.809
42695W        W 6419  21.040   2.870  14.771
42696W        W 6420  19.723  17.166   3.345
42697W        W 6421  12.296  13.649  10.618
42698W        W 6422  23.201  35.066  10.895
42699W        W 6423   7.852  38.358   3.699
42700W        W 6424  26.526  32.955  11.003
42701W        W 6425  28.046  44.339   1.432
42702W        W 6426  13.717  16.760  14.289
42703W        W 6427  36.904   4.319   3.274
42704W        W 6428  41.856  30.994  10.568
42705W        W 6429  33.006   4.390   0.920
42706W        W 6430  23.054  16.616   2.728
42707W        W 6431  15.686  43.944  13.324
42708W        W 6432  19.645  26.620  13.795
42709W        W 6433  41.011  41.455   3.296
42710W        W 6434  25.616   6.884   3.248
42711W        W 6435  15.711  18.081   4.797
42712W        W 6436  26.047   6.725  14.786
42713W        W 6437  36.463  29.668   0.398
42714W        W 6438  41.936  42.004   3.739
42715W        W 6439   1.839   9.382  14.907
42716W        W 6440   7.880   7.769  10.537
42717W        W 6441  36.875   7.803   2.665
42718W        W 6442  30.940  25.593   1.286
42719W        W 6443   7.185  27.183   0.788
42720W        W 6444  36.534  12.649   3.713
42721W        W 6445  32.419  35.911   4.215
42722W        W 6446  37.917  42.821  13.054
42723W        W 6447  32.420   4.817  14.940
42724W        W 6448   4.214   3.419   3.690
42725W        W 6449  37.473  21.679  12.480
42726W        W 6450  32.084  29.034   0.820
42727W        W 6451  33.543   4.924   4.184
42728W        W 6452  42.026   4.263   2.842
42729W        W 6453  31.929   9.829  12.548
42730W        W 6454  17.086  15.135  14.401
42731W        W 6455   3.804   2.782   0.390
42732W        W 6456  30.640  26.171   0.356
42733W        W 6457   1.950  43.864  13.461
42734W        W 6458  15.744   6.267  11.470
42735W        W 6459   2.423  37.847  12.965
42736W        W 6460   0.329  25.534   3.636
42737W        W 6461   5.431  17.153   3.225
42738W        W 6462   4.376  35.944   4.659
42739W        W 6463  41.996  43.881   4.290
42740W        W 6464  43.317  20.676   4.348
42741W        W 6465  40.849  43.473   1.903
42742W        W 6466  32.481  26.666   4.663
42743W        W 6467   9.873  11.651   0.857
42744W        W 6468  12.289  24.995  10.926
42745W        W 6469  36.083  38.331   3.179
42746W        W 6470  17.722  30.098  11.929
42747W        W 6471  23.524  43.976  12.564
42748W        W 6472  16.130  34.494   2.779
42749W        W 6473  31.452  29.921   0.800
42750W        W 6474  29.922  40.847  13.034
42751W        W 6475  42.000  28.462   0.881
42752W        W 6476   8.207  15.321  11.960
42753W        W 6477  22.012  33.530   3.694
42754W        W 6478   4.783  41.938  14.785
42755W        W 6479  26.624  29.534   4.741
42756W        W 6480  12.841  23.126  14.937
42757W        W 6481   8.209  10.333   5.084
42758W        W 6482  30.534   5.438   1.739
42759W        W 6483  28.068  10.346   1.853
42760W        W 6484  29.614   1.747   0.279
42761W        W 6485  23.618  20.654   0.922
42762W        W 6486  16.089  20.252   2.182
42763W        W 6487  44.777   9.697   2.294
42764W        W 6488  34.601   1.812   2.781
42765W        W 6489  38.896  21.176   0.452
42766W        W 6490  19.643  15.638  11.480
42767W        W 6491  39.817  23.103   1.380
42768W        W 6492   8.281  13.231   0.769
42769W        W 6493  18.557  36.033  10.954
42770W        W 6494  11.173  36.993   1.312
42771W        W 6495  12.718  13.133  13.961
42772W        W 6496   4.715  37.954   1.225
42773W        W 6497  43.339   6.202  11.914
42774W        W 6498   6.804  33.486   3.220
42775W        W 6499   6.719  37.431  14.923
42776W        W 6500  22.504  42.508  12.047
42777W        W 6501  13.654  34.942   2.801
42778W        W 6502   8.819   5.887   0.447
42779W        W 6503  43.989  13.762  11.491
42780W        W 6504  14.320  36.897   1.744
42781W        W 6505  36.359  28.159   3.184
42782W        W 6506  19.141  44.465  14.827
42783W        W 6507   2.932  10.733   4.777
42784W        W 6508  10.783  32.419   4.342
42785W        W 6509  27.631   6.287  14.810
42786W        W 6510  18.584   1.881  14.513
42787W        W 6511  15.263   5.707  12.913
42788W        W 6512  32.102  24.639   1.332
42789W        W 6513  34.038  12.822  14.895
42790W        W 6514  20.122  27.017  14.010
42791W        W 6515  44.937  44.907  13.463
42792W        W 6516  33.432  40.342  13.822
42793W        W 6517  10.790  34.001   4.821
42794W        W 6518  14.602  39.354  12.488
42795W        W 6519  39.525   5.905   1.737
42796W        W 6520  10.775  11.789   1.713
42797W        W 6521   0.932  12.241   0.743
42798W        W 6522  30.464  13.324  13.973
42799W        W 6523  28.068   3.215   2.316
42800W        W 6524   4.225  26.957  10.922
42801W        W 6525  37.499  29.538   1.842
42802W        W 6526   4.253   4.250   2.782
42803W        W 6527   7.868   3.363  10.081
42804W        W 6528  30.143   6.233   3.783
42805W        W 6529  17.755  10.195   2.394
42806W        W 6530  12.659  41.926   1.725
42807W        W 6531  22.125   2.302  14.764
42808W        W 6532   9.302  21.522   3.301
42809W        W 6533  31.609  23.122  12.838
42810W        W 6534  23.716  13.266  14.873
42811W        W 6535  21.699  19.563  12.084
42812W        W 6536   7.398  25.105  10.556
42813W        W 6537  14.206  20.769  13.937
42814W        W 6538   3.803  11.719   2.747
42815W        W 6539  43.985  18.768  10.953
42816W        W 6540   2.450   5.386  14.347
42817W        W 6541  43.956  10.219   4.819
42818W        W 6542  32.428  11.628   3.261
42819W        W 6543  23.125  39.558   0.266
42820W        W 6544  41.330  11.646   0.377
42821W        W 6545  35.032  34.424   3.253
42822W        W 6546  34.384   4.287   4.146
42823W        W 6547  43.904   4.405   3.289
42824W        W 6548  29.936  42.021  13.027
42825W        W 6549  16.772  10.866   4.308
42826W        W 6550  38.956  37.832   4.251
42827W        W 6551  35.930  20.570  12.470
42828W        W 6552   2.275  28.126   1.447
42829W        W 6553  39.963  44.505  12.510
42830W        W 6554   8.806   9.722   2.887
42831W        W 6555  41.529  37.520  14.014
42832W        W 6556  41.909  14.756   3.634
42833W        W 6557  16.181  35.090   2.744
42834W        W 6558  14.164   2.250   1.394
42835W        W 6559   4.730  27.555   3.722
42836W        W 6560  36.365  27.065   4.256
42837W        W 6561  27.128  38.549   4.142
42838W        W 6562  15.593  33.545  14.444
42839W        W 6563  25.474   2.302   2.892
42840W        W 6564  14.229  18.069  14.412
42841W        W 6565  38.842  15.723  10.618
42842W        W 6566  37.017  17.680  14.477
42843W        W 6567  31.424  42.364  14.865
42844W        W 6568  43.382   0.898   1.402
42845W        W 6569   9.671  14.250  14.287
42846W        W 6570   1.805   9.671   1.353
42847W        W 6571  43.446  15.705   4.261
42848W        W 6572  32.016  40.331   4.252
42849W        W 6573  10.634  19.097  14.420
42850W        W 6574  22.008  36.935  14.969
42851W        W 6575  22.005  24.664  13.976
42852W        W 6576   2.291  36.483   3.752
42853W        W 6577  21.194  26.669   0.382
42854W        W 6578  10.681   6.428   0.282
42855W        W 6579  25.050  28.975   1.242
42856W        W 6580  28.136  15.139   4.764
42857W        W 6581   2.818  20.725  13.442
42858W        W 6582  36.041  19.086  12.850
42859W        W 6583   9.800  10.820  11.060
42860W        W 6584  20.217  33.490   4.599
42861W        W 6585   4.828  20.547  14.494
42862W        W 6586  16.669  44.978   2.835
42863W        W 6587  33.935   9.384   3.803
42864W        W 6588  17.705  26.003  14.847
42865W        W 6589  34.985  32.535  14.309
42866W        W 6590   1.304  25.528  13.514
42867W        W 6591   5.330  17.247   1.414
42868W        W 6592  44.964   4.389  13.048
42869W        W 6593  22.031  12.697   1.730
42870W        W 6594  34.384  37.048  11.010
42871W        W 6595  13.666  25.552  10.597
42872W        W 6596  36.550   5.381   2.738
42873W        W 6597  10.344  12.813  11.994
42874W        W 6598   8.271  22.533   1.787
42875W        W 6599  17.119   7.399  10.601
42876W        W 6600   7.848   0.976  12.370
42877W        W 6601   5.295  36.863  12.082
42878W        W 6602  43.921   4.832   3.268
42879W        W 6603   1.327  23.629  14.849
42880W        W 6604  31.500   2.319   2.233
42881W        W 6605  41.885  44.354   1.384
42882W        W 6606  19.172  26.007  13.420
42883W        W 6607  26.502  20.083   1.746
42884W        W 6608  44.817  39.426  13.332
42885W        W 6609  16.297  15.797  13.392
42886W        W 6610  12.660  16.292  10.997
42887W        W 6611  42.293  42.986   1.353
42888W        W 6612   2.761  21.169   4.163
42889W        W 6613  22.225  29.444   1.903
42890W        W 6614  30.045  38.339  14.491
42891W        W 6615  24.554  36.948  11.919
42892W        W 6616  34.607  11.307  12.353
42893W        W 6617  18.255  33.062  12.465
42894W        W 6618   7.407  31.063   3.327
42895W        W 6619  40.346  36.503   1.267
42896W        W 6620  43.512  33.877   5.237
42897W        W 6621  39.498  39.415   4.264
42898W        W 6622  11.197  17.234  11.388
42899W        W 6623  28.573   6.722   4.715
42900W        W 6624  33.019   7.239  13.357
42901W        W 6625   4.716  40.005   3.808
42902W        W 6626   1.814  18.565   1.834
42903W        W 6627   8.246   4.921  10.566
42904W        W 6628  18.217   5.799  10.475
42905W        W 6629   8.186   3.946   1.698
42906W        W 6630  14.791  31.567  10.905
42907W        W 6631  35.489  18.618   2.211
42908W        W 6632  25.979  26.119  13.795
42909W        W 6633  17.147  32.991  13.973
42910W        W 6634  38.029  32.584   4.298
42911W        W 6635   6.749  38.506   3.232
42912W        W 6636   7.691  10.860  10.892
42913W        W 6637   0.977  12.324   4.752
42914W        W 6638  35.964   5.255  13.838
42915W        W 6639  20.527  32.449   3.249
42916W        W 6640  28.045  42.475  14.369
42917W        W 6641  13.266  13.661  14.905
42918W        W 6642  16.650   3.854  14.903
42919W        W 6643  41.805  32.070   2.187
42920W        W 6644   6.354  30.089  12.976
42921W        W 6645  40.876  24.496   0.935
42922W        W 6646  19.775  18.680   5.183
42923W        W 6647  20.566  40.433   3.381
42924W        W 6648  28.000  40.850   3.168
42925W        W 6649  10.361  32.586  14.457
42926W        W 6650  23.699  39.449   1.325
42927W        W 6651  26.010  44.309  12.085
42928W        W 6652   9.207  33.892  12.353
42929W        W 6653   5.404  43.784   1.310
42930W        W 6654  27.581  29.071  12.827
42931W        W 6655  19.548  44.917  10.938
42932W        W 6656  41.335  40.382   2.672
42933W        W 6657  20.743  25.036  12.407
42934W        W 6658  25.623  11.248   2.792
42935W        W 6659  40.938   8.760   2.253
42936W        W 6660  32.619   6.426   4.838
42937W        W 6661  36.911  26.613  13.343
42938W        W 6662  25.577  36.503  13.445
42939W        W 6663  11.298  34.069   2.371
42940W        W 6664  11.199  33.906   2.737
42941W        W 6665  22.207   6.688   0.417
42942W        W 6666  19.751   3.834  13.984
42943W        W 6667   3.386  13.777   1.326
42944W        W 6668  32.107  22.588  10.503
42945W        W 6669  24.167  30.074   5.235
42946W        W 6670  32.573  39.488   0.738
42947W        W 6671  24.117  23.222   1.877
42948W        W 6672  30.479  21.193  10.627
42949W        W 6673  43.818  20.047  12.096
42950W        W 6674  36.480  13.681   0.840
42951W        W 6675  25.593  13.138   5.107
42952W        W 6676  29.627  35.534   0.726
42953W        W 6677   8.761  26.148   0.929
42954W        W 6678  36.898  14.833  13.435
42955W        W 6679  21.217   3.951  12.433
42956W        W 6680  33.516  33.422   3.177
42957W        W 6681  12.200  40.418  13.928
42958W        W 6682  23.210  11.152   2.796
42959W        W 6683   3.300   2.934  13.327
42960W        W 6684  19.226  35.598   3.778
42961W        W 6685  29.561   5.352   2.187
42962W        W 6686  32.924  41.021   2.771
42963W        W 6687  24.083   5.425  14.458
42964W        W 6688  21.084   3.384   3.187
42965W        W 6689  14.604  23.628   2.350
42966W        W 6690  14.256  32.569  12.913
42967W        W 6691  13.110   2.811  14.806
42968W        W 6692  36.950   9.886  12.542
42969W        W 6693   5.833  31.443  12.862
42970W        W 6694  37.484   0.272   2.178
42971W        W 6695  30.491  34.452  13.455
42972W        W 6696  19.744  26.203   2.832
42973W        W 6697  11.189  20.657   3.705
42974W        W 6698  32.948  22.100  13.852
42975W        W 6699  15.326  11.818   0.959
42976W        W 6700  44.895  10.688  14.805
42977W        W 6701  17.081  12.739  11.523
42978W        W 6702  36.053  36.051  13.492
42979W        W 6703  24.508  35.094  13.500
42980W        W 6704  27.570  31.434  10.428
42981W        W 6705   0.771  40.481   5.232
42982W        W 6706  25.516  31.639  14.317
42983W        W 6707  23.578  27.054   5.246
42984W        W 6708  15.152  34.966   0.922
42985W        W 6709  29.424  23.028   0.860
42986W        W 6710  41.535  11.251   1.400
42987W        W 6711  38.327   5.861   3.248
42988W        W 6712  12.164  41.422  11.878
42989W        W 6713  10.266  44.364   0.478
42990W        W 6714  34.051   5.801  12.538
42991W        W 6715  22.725  44.381  14.007
42992W        W 6716  10.248  32.585   0.939
42993W        W 6717  43.472  29.431   0.420
42994W        W 6718  40.011  18.619   0.325
42995W        W 6719  26.512   0.438   2.758
42996W        W 6720  28.576  31.031  13.061
42997W        W 6721  37.062  12.613   4.224
42998W        W 6722  34.425  38.946  12.860
42999W        W 6723  14.750   4.875  11.583
43000W        W 6724  28.484  21.715   0.253
43001W        W 6725  33.949  27.570  14.897
43002W        W 6726  10.860   8.894  11.583
43003W        W 6727   2.428  22.634  12.354
43004W        W 6728  37.938  15.679  13.864
43005W        W 6729  29.161  31.420  12.840
43006W        W 6730   9.765  36.476  13.838
43007W        W 6731   1.758   4.329   4.655
43008W        W 6732  13.330  23.170   0.735
43009W        W 6733  33.625  22.581  12.885
43010W        W 6734  17.074   5.424  13.415
43011W        W 6735   9.307  25.522  10.569
43012W        W 6736  25.977   1.840   2.686
43013W        W 6737  34.906  44.993   1.245
43014W        W 6738  38.468  26.504  13.825
43015W        W 6739   7.815  20.098  12.019
43016W        W 6740  44.394  32.433   0.733
43017W        W 6741  42.463  19.247  12.470
43018W        W 6742  12.698  39.880   1.791
43019W        W 6743   4.308  17.774  14.887
43020W        W 6744  30.024  25.039  10.913
43021W        W 6745   7.790  43.333  10.957
43022W        W 6746   8.221   7.673  12.877
43023W        W 6747  12.196  25.079   3.279
43024W        W 6748  38.507  24.047   4.744
43025W        W 6749   9.209  24.121  14.775
43026W        W 6750   3.795  44.476  14.388
43027W        W 6751  31.063  25.628  11.994
43028W        W 6752  42.791  24.135   1.778
43029W        W 6753  35.421   5.696   2.689
43030W        W 6754   8.686  27.460   4.230
43031W        W 6755  12.762  27.148  11.401
43032W        W 6756   0.252  30.992   0.336
43033W        W 6757  37.442   2.902  13.941
43034W        W 6758   4.207  21.543  10.503
43035W        W 6759  30.449  26.165   2.238
43036W        W 6760   4.827  39.450  14.311
43037W        W 6761  22.054  30.545  11.876
43038W        W 6762  24.033  36.441   3.690
43039W        W 6763  10.338   2.302  14.331
43040W        W 6764   3.847  38.508  11.019
43041W        W 6765  20.173  26.530   0.799
43042W        W 6766  31.069   2.363   0.393
43043W        W 6767  13.256  10.757  11.064
43044W        W 6768  22.116   2.447   4.172
43045W        W 6769  31.425  10.299  12.096
43046W        W 6770  33.928  26.662  13.904
43047W        W 6771  21.754  17.644   3.756
43048W        W 6772  25.671   2.793  11.036
43049W        W 6773  37.374  26.964   2.826
43050W        W 6774  16.656   9.670   4.701
43051W        W 6775  20.766  38.340  10.025
43052W        W 6776  28.125  31.149  10.425
43053W        W 6777  14.648   0.784   1.773
43054W        W 6778  25.641  10.710  11.887
43055W        W 6779  13.638  23.031  13.481
43056W        W 6780  41.847   6.702  13.385
43057W        W 6781  30.439  22.171   0.374
43058W        W 6782   6.186  35.540  13.443
43059W        W 6783  39.416  13.326   0.399
43060W        W 6784  20.041   2.401   0.268
43061W        W 6785  34.398  44.363   2.291
43062W        W 6786  39.878  19.224   4.601
43063W        W 6787   2.939  36.471  11.598
43064W        W 6788   6.783  36.377  11.575
43065W        W 6789   1.266  41.793   1.367
43066W        W 6790  42.929  43.922  14.383
43067W        W 6791   7.801  29.000   0.913
43068W        W 6792   2.948  21.073  11.498
43069W        W 6793  37.470  16.582  10.934
43070W        W 6794  44.877  24.985   0.753
43071W        W 6795   7.399  18.551   1.249
43072W        W 6796  26.971  42.399  13.896
43073W        W 6797  11.747   2.793  13.832
43074W        W 6798   6.275  13.142  13.023
43075W        W 6799  44.904  44.480  14.859
43076W        W 6800  40.808  43.389   3.202
43077W        W 6801  24.025   5.315  11.080
43078W        W 6802   4.438  12.714  10.987
43079W        W 6803  25.053   4.912  10.538
43080W        W 6804  19.195  28.109  13.042
43081W        W 6805  40.433  10.678   3.820
43082W        W 6806  40.051   4.940  14.487
43083W        W 6807  39.408  37.030  13.394
43084W        W 6808  36.534  15.595  11.987
43085W        W 6809  44.968  32.095   1.839
43086W        W 6810  32.091  21.137  11.376
43087W        W 6811  35.471  27.130  12.341
43088W        W 6812   6.770   9.643   3.260
43089W        W 6813  18.560  22.566  12.543
43090W        W 6814  29.513  28.476   0.849
43091W        W 6815  31.427  25.156  13.520
43092W        W 6816  36.513   6.278   0.380
43093W        W 6817  25.163  42.838  12.477
43094W        W 6818  42.303  15.324   1.210
43095W        W 6819  18.717   8.759   4.700
43096W        W 6820  29.130   7.770   1.244
43097W        W 6821  18.574  36.549  11.515
43098W        W 6822   2.798  18.669   0.908
43099W        W 6823  11.758   4.944   0.270
43100W        W 6824   3.363  17.107   3.752
43101W        W 6825   3.362  27.614   1.437
43102W        W 6826   3.257  15.110   1.785
43103W        W 6827   0.859  19.666  13.901
43104W        W 6828  27.092  27.630   0.967
43105W        W 6829  29.926  27.664   0.813
43106W        W 6830  42.306  10.718   3.800
43107W        W 6831  16.129   2.923  12.850
43108W        W 6832  17.170  33.901  14.939
43109W        W 6833  29.457  42.363   1.744
43110W        W 6834  43.001  44.347  13.326
43111W        W 6835  22.018  40.858  14.970
43112W        W 6836  24.105  37.937  12.569
43113W        W 6837  10.702  24.199  14.767
43114W        W 6838  21.252   8.656   4.274
43115W        W 6839   4.801  29.130   3.639
43116W        W 6840   7.826  17.251   5.119
43117W        W 6841  33.968  13.775   4.821
43118W        W 6842  25.113  32.485   4.178
43119W        W 6843  36.431  14.714   2.805
43120W        W 6844  15.106   3.377   2.340
43121W        W 6845   6.205  15.327  13.438
43122W        W 6846  25.963  31.004   0.816
43123W        W 6847  35.494   3.223   4.190
43124W        W 6848  41.952   0.791  13.519
43125W        W 6849  34.577  19.575   1.335
43126W        W 6850   7.861   7.174  10.099
43127W        W 6851  15.214  11.649  12.562
43128W        W 6852  40.806  37.507  14.848
43129W        W 6853   3.929  30.448   5.157
43130W        W 6854  35.450  29.528  14.375
43131W        W 6855  43.326  35.901   1.363
43132W        W 6856  28.950  39.935  10.923
43133W        W 6857   0.959   4.319  14.327
43134W        W 6858   4.865  44.896   0.478
43135W        W 6859   0.261  19.072  12.851
43136W        W 6860  18.734  35.899   2.839
43137W        W 6861  43.293  20.629   0.408
43138W        W 6862  38.420  43.338  12.863
43139W        W 6863  10.377  26.502  13.004
43140W        W 6864   8.899  31.547  14.926
43141W        W 6865  24.151  27.134   0.754
43142W        W 6866  34.892  14.738   3.162
43143W        W 6867   9.826   0.889  14.484
43144W        W 6868  34.042   8.179  14.796
43145W        W 6869  27.487  44.007  12.450
43146W        W 6870  38.912  31.493  14.364
43147W        W 6871  33.391   9.827   2.754
43148W        W 6872   0.275   2.274   2.236
43149W        W 6873  27.680  34.482   1.322
43150W        W 6874  42.413  29.617  10.941
43151W        W 6875  35.410  27.464  12.383
43152W        W 6876  16.659  17.689  14.481
43153W        W 6877  44.449   4.909   1.793
43154W        W 6878   9.363  33.049   2.341
43155W        W 6879   2.368   8.696   2.730
43156W        W 6880   9.881   9.758   2.702
43157W        W 6881  17.785  31.033   4.739
43158W        W 6882  43.951  24.058   3.219
43159W        W 6883  44.348  22.995   0.828
43160W        W 6884  40.027  35.024   1.826
43161W        W 6885  35.603  23.497   2.276
43162W        W 6886   7.311  18.084   2.229
43163W        W 6887  41.787  17.274  13.537
43164W        W 6888  41.333  31.929   4.225
43165W        W 6889  39.810  33.018   4.823
43166W        W 6890  23.081  40.903  12.565
43167W        W 6891  29.547  14.322  14.410
43168W        W 6892  26.700  34.590   1.785
43169W        W 6893   8.291   2.829   0.459
43170W        W 6894  40.921   8.681  14.349
43171W        W 6895   4.262  31.016  14.847
43172W        W 6896  25.205  32.551  13.353
43173W        W 6897  41.392  30.137  13.897
43174W        W 6898  19.756  44.981   2.200
43175W        W 6899  32.501  17.244   4.175
43176W        W 6900  17.116   4.747  13.037
43177W        W 6901  34.870   9.806   1.813
43178W        W 6902  13.334  43.428   4.131
43179W        W 6903  16.226  24.163   0.801
43180W        W 6904  18.599  42.785   1.829
43181W        W 6905  11.655  33.128  12.401
43182W        W 6906   9.660  18.079   3.269
43183W        W 6907  40.377  22.118   5.118
43184W        W 6908   2.915  42.359  11.866
43185W        W 6909  20.143  30.919  10.921
43186W        W 6910   2.909  10.774  13.454
43187W        W 6911  20.083  20.524   3.224
43188W        W 6912  24.615  39.405  13.995
43189W        W 6913  44.292  35.002  11.606
43190W        W 6914  37.918   3.943  11.078
43191W        W 6915  17.110  39.920  12.421
43192W        W 6916   1.370  26.134   1.786
43193W        W 6917  26.592   7.741   2.399
43194W        W 6918  37.435  30.047   3.671
43195W        W 6919   2.966   8.884   4.154
43196W        W 6920   4.871  41.822   4.657
43197W        W 6921  21.726  29.141  11.509
43198W        W 6922  36.506   2.369  11.893
43199W        W 6923  11.784  23.592   3.641
43200W        W 6924   5.194  35.495   1.908
43201W        W 6925  20.240  13.344   4.274
43202W        W 6926   2.787  26.624  11.859
43203W        W 6927  32.535  44.904  13.923
43204W        W 6928  42.940  21.587   4.616
43205W        W 6929  29.978  14.287   3.244
43206W        W 6930  40.460  34.397   1.394
43207W        W 6931  15.816  41.391   2.184
43208W        W 6932  19.115  38.881   2.715
43209W        W 6933  27.147  21.238   1.697
43210W        W 6934  11.198   4.879   0.915
43211W        W 6935   2.800  13.275  14.421
43212W        W 6936  28.630  40.383   4.156
43213W        W 6937  21.210  11.651   3.633
43214W        W 6938  35.872  44.754   3.642
43215W        W 6939  43.514  36.016  12.069
43216W        W 6940  32.973  41.910   1.932
43217W        W 6941   0.931  24.981   4.165
43218W        W 6942  26.495   7.764  13.892
43219W        W 6943  28.498  18.118  13.543
43220W        W 6944   0.845   3.892  10.453
43221W        W 6945  37.940  17.706   4.688
43222W        W 6946   2.395  31.525  10.612
43223W        W 6947  22.235  42.020  12.053
43224W        W 6948  15.087  17.569  11.584
43225W        W 6949  25.216  42.301   3.661
43226W        W 6950  30.563  20.610   0.351
43227W        W 6951  29.662  44.271   5.214
43228W        W 6952  32.958  23.204   1.311
43229W        W 6953  22.657  17.694   4.348
43230W        W 6954  29.440  16.093   0.903
43231W        W 6955   2.398  42.291   1.919
43232W        W 6956  33.061  19.735  12.355
43233W        W 6957  35.011  34.401   4.794
43234W        W 6958   2.341   4.219  12.025
43235W        W 6959  36.889   8.319  10.917
43236W        W 6960   3.769   1.412  11.417
43237W        W 6961  21.742  29.057  12.428
43238W        W 6962   0.782   9.195   3.272
43239W        W 6963   8.336   0.420   2.783
43240W        W 6964  22.697  19.086   1.235
43241W        W 6965  21.160   3.311  11.971
43242W        W 6966  39.524   8.735  13.037
43243W        W 6967  18.567  28.089  13.417
43244W        W 6968  18.064  35.069  11.871
43245W        W 6969  36.499  18.626   2.328
43246W        W 6970  21.702  13.151   2.846
43247W        W 6971   4.229  40.009   4.205
43248W        W 6972  21.535  27.496  13.881
43249W        W 6973   7.797  26.003   0.257
43250W        W 6974  29.433   7.787  14.453
43251W        W 6975  25.962  40.868   0.401
43252W        W 6976  20.153  36.064  11.502
43253W        W 6977  41.443  37.920  11.892
43254W        W 6978  40.376  16.096   3.166
43255W        W 6979  15.237  39.557  12.560
43256W        W 6980  22.746  25.706  10.453
43257W        W 6981  29.082  10.781  14.032
43258W        W 6982  39.965   2.922   0.429
43259W        W 6983  23.575  43.503  12.571
43260W        W 6984  18.585  17.728  13.917
43261W        W 6985  34.062   0.885   3.682
43262W        W 6986  12.623  15.327   1.726
43263W        W 6987  18.751   2.721  12.001
43264W        W 6988   2.844  25.578  11.096
43265W        W 6989  42.353   5.845   1.866
43266W        W 6990  43.345  31.949  14.360
43267W        W 6991   3.938  13.313   1.363
43268W        W 6992  10.334   2.328   2.885
43269W        W 6993  28.053  35.094   5.126
43270W        W 6994   2.865  41.961   2.893
43271W        W 6995  15.754  25.214  12.580
43272W        W 6996   3.883   6.320   0.472
43273W        W 6997  33.904  44.887   1.900
43274W        W 6998   3.920   2.792  13.922
43275W        W 6999  28.472  39.901  11.879
43276W        W 7000  10.859  10.184   4.803
43277W        W 7001  44.297  13.282   3.386
43278W        W 7002  38.911  25.108  11.495
43279W        W 7003  42.967  11.670  10.499
43280W        W 7004  22.208  28.573  10.110
43281W        W 7005  30.070  37.077  11.604
43282W        W 7006  22.704   4.235  12.872
43283W        W 7007  10.702  39.031   2.701
43284W        W 7008  15.304  19.553  12.971
43285W        W 7009  33.490  41.523  13.344
43286W        W 7010  33.433  27.530  13.967
43287W        W 7011  21.211  21.149   1.385
43288W        W 7012  43.304  34.472  10.998
43289W        W 7013  33.878  24.539  13.456
43290W        W 7014  27.197  15.696   1.348
43291W        W 7015  21.080   2.789   3.862
43292W        W 7016  20.264   8.295  11.371
43293W        W 7017  14.270  40.442   4.203
43294W        W 7018  41.971  28.973  13.374
43295W        W 7019   7.805  24.009  13.835
43296W        W 7020  13.801  32.405   1.379
43297W        W 7021  17.634  37.039   0.966
43298W        W 7022  25.201  14.156  13.884
43299W        W 7023  14.601  11.773   0.299
43300W        W 7024   2.801  30.463   1.449
43301W        W 7025  39.928   4.712   4.201
43302W        W 7026   6.878  35.861   1.438
43303W        W 7027  24.639  16.798  14.952
43304W        W 7028   0.250  30.990   2.856
43305W        W 7029  20.704  42.438   0.861
43306W        W 7030  20.252  31.137   2.675
43307W        W 7031  42.998   0.336   3.819
43308W        W 7032  19.720  25.654   2.711
43309W        W 7033  43.768  21.140   1.394
43310W        W 7034  19.603  36.513  12.032
43311W        W 7035  25.612   4.791   0.749
43312W        W 7036  36.417  22.674  10.031
43313W        W 7037   1.959  41.866   1.322
43314W        W 7038   3.345  18.235   0.855
43315W        W 7039   0.942  14.657  10.598
43316W        W 7040  11.196   8.849   2.202
43317W        W 7041  32.038  38.972  14.941
43318W        W 7042  11.842   0.862  10.579
43319W        W 7043   2.804  14.330  13.418
43320W        W 7044  12.297  23.520   1.297
43321W        W 7045  34.598  13.762  13.037
43322W        W 7046  44.318  27.011   2.854
43323W        W 7047  26.629  11.230  14.362
43324W        W 7048   2.865   5.769  12.870
43325W        W 7049  38.360   4.204   1.335
43326W        W 7050  18.676   6.223   0.327
43327W        W 7051  17.262  26.029   4.331
43328W        W 7052  42.457  21.568  10.903
43329W        W 7053   2.929  16.204   4.336
43330W        W 7054  12.346   0.369   1.837
43331W        W 7055  24.716   9.215  11.420
43332W        W 7056  43.781  41.535   0.762
43333W        W 7057  10.373   0.460  11.031
43334W        W 7058  14.756  22.580   4.815
43335W        W 7059   5.409  30.086  14.984
43336W        W 7060  10.143  20.730   1.697
43337W        W 7061   1.812  31.997   1.875
43338W        W 7062   5.369  12.309   4.807
43339W        W 7063  20.205  32.550  10.593
43340W        W 7064  30.038  15.310  14.437
43341W        W 7065  17.588  17.743  12.862
43342W        W 7066  43.380  42.472  14.443
43343W        W 7067  18.073  22.732   0.891
43344W        W 7068   6.706   9.679   1.783
43345W        W 7069  42.958  12.255  11.522
43346W        W 7070   3.376  18.713   2.391
43347W        W 7071   6.730  20.726  10.468
43348W        W 7072  33.962   1.768   0.741
43349W        W 7073  43.323  13.835  11.608
43350W        W 7074  16.166  44.429   4.773
43351W        W 7075  18.055  28.528   2.730
43352W        W 7076  33.036  42.922   2.756
43353W        W 7077  41.498   6.707   3.775
43354W        W 7078  26.584  37.859   0.373
43355W        W 7079  42.397  25.962   0.948
43356W        W 7080  20.753  26.115  10.938
43357W        W 7081   7.795   3.898  14.002
43358W        W 7082   9.377   0.757   4.797
43359W        W 7083   8.178   5.315   0.902
43360W        W 7084  40.370  42.481   3.357
43361W        W 7085  40.545  16.226  13.923
43362W        W 7086  19.157  35.517   0.926
43363W        W 7087  10.847   1.781   5.214
43364W        W 7088   0.432   7.280   3.655
43365W        W 7089  32.961  37.378  12.441
43366W        W 7090  29.638  27.940   4.705
43367W        W 7091  17.708   3.350  10.929
43368W        W 7092  25.992  29.471   3.679
43369W        W 7093  40.035  43.822   2.719
43370W        W 7094  27.587  38.457  11.379
43371W        W 7095  28.082  13.746  10.519
43372W        W 7096  26.103   6.696   2.345
43373W        W 7097  31.587  14.116   1.827
43374W        W 7098  26.619   6.867  11.589
43375W        W 7099   6.750  32.560  13.862
43376W        W 7100  42.481  13.605  11.591
43377W        W 7101   8.242  15.251   1.285
43378W        W 7102  29.494   8.230   0.337
43379W        W 7103  44.867  28.465   3.631
43380W        W 7104  24.980  29.991   1.239
43381W        W 7105  17.642  40.030   1.291
43382W        W 7106   1.962  33.616   3.779
43383W        W 7107   5.204  40.328   1.821
43384W        W 7108   4.446  42.452  12.859
43385W        W 7109  32.013   4.269  13.878
43386W        W 7110  22.582  31.900  11.411
43387W        W 7111  40.962  17.286  10.931
43388W        W 7112  41.434  28.646   4.351
43389W        W 7113  11.164   9.704  14.501
43390W        W 7114  21.606   1.889  14.914
43391W        W 7115  16.285  17.589   3.377
43392W        W 7116  12.645   7.867  12.980
43393W        W 7117  30.659  12.135   4.138
43394W        W 7118  33.555  35.522   4.647
43395W        W 7119  33.408   5.854   4.836
43396W        W 7120  19.674  20.226   0.380
43397W        W 7121  40.034  36.405  13.521
43398W        W 7122  15.606  26.105   1.335
43399W        W 7123  18.221  26.155   1.813
43400W        W 7124  29.925  17.065   3.828
43401W        W 7125  40.347  17.147  10.420
43402W        W 7126  23.702   9.259  11.583
43403W        W 7127  32.486  15.685  12.562
43404W        W 7128  31.087  37.379   1.233
43405W        W 7129  23.649  16.149   0.932
43406W        W 7130   1.915  25.533  12.940
43407W        W 7131  30.978  31.551   1.307
43408W        W 7132  36.528  36.398   3.819
43409W        W 7133  27.451  29.175   1.892
43410W        W 7134   9.852  30.126   2.328
43411W        W 7135   7.706  34.554   9.945
43412W        W 7136  11.246   7.865  13.434
43413W        W 7137   5.416   8.808  14.876
43414W        W 7138  22.051  43.789  14.445
43415W        W 7139  12.723  27.053   0.456
43416W        W 7140  32.123  36.470  14.284
43417W        W 7141  13.828  39.458  13.923
43418W        W 7142  40.812   5.428  11.394
43419W        W 7143  43.809  25.183   4.721
43420W        W 7144  42.823   3.916   2.415
43421W        W 7145  11.757  24.116   4.727
43422W        W 7146  35.580  37.008   1.753
43423W        W 7147  23.494  18.259  14.312
43424W        W 7148  27.106  44.787   2.283
43425W        W 7149  35.394   0.882  13.814
43426W        W 7150  16.678  36.859   1.289
43427W        W 7151  18.100  17.557  13.862
43428W        W 7152  30.916  37.459   3.786
43429W        W 7153  16.802  25.031  13.502
43430W        W 7154  30.118   3.358  12.986
43431W        W 7155  37.068  14.222   0.450
43432W        W 7156  42.798  10.641  11.947
43433W        W 7157  28.614  43.512   1.831
43434W        W 7158  18.688  19.555  11.083
43435W        W 7159  24.582   4.211  13.363
43436W        W 7160  23.624   4.898  11.553
43437W        W 7161  24.215  16.632   3.720
43438W        W 7162  32.000  13.730  11.494
43439W        W 7163  41.498   2.400   1.817
43440W        W 7164  39.352   1.811   4.623
43441W        W 7165  11.264  22.072  12.998
43442W        W 7166  35.477  17.614   2.293
43443W        W 7167  20.596  19.259   0.475
43444W        W 7168  10.356  41.995  13.400
43445W        W 7169   5.355  27.491   2.807
43446W        W 7170  44.991  40.305  11.481
43447W        W 7171  36.881   2.921   0.733
43448W        W 7172   5.275  37.569   5.192
43449W        W 7173  29.022  26.104  14.318
43450W        W 7174   4.284  33.073   1.341
43451W        W 7175  15.628  21.148  12.543
43452W        W 7176  12.298  13.657  14.404
43453W        W 7177  24.211   8.370  11.485
43454W        W 7178  37.898  35.870  13.941
43455W        W 7179  17.779  13.213   2.233
43456W        W 7180   0.894  28.654  13.421
43457W        W 7181  43.324  17.284  11.039
43458W        W 7182  28.129  20.753  10.600
43459W        W 7183  43.019   2.375   4.666
43460W        W 7184  16.595   6.238   9.983
43461W        W 7185  28.578  26.960  13.960
43462W        W 7186   6.720  12.177  13.449
43463W        W 7187  24.652  23.082   4.231
43464W        W 7188  29.953  16.207  12.824
43465W        W 7189  14.797  37.540   9.998
43466W        W 7190  34.430  17.132   4.611
43467W        W 7191  39.500  33.002   1.395
43468W        W 7192  21.063  22.044   3.289
43469W        W 7193   4.865  40.976   1.304
43470W        W 7194  38.531  22.743  14.378
43471W        W 7195   5.727  37.938  14.024
43472W        W 7196  10.243   5.844   4.732
43473W        W 7197  33.885   1.967   2.735
43474W        W 7198  11.679   3.949  11.525
43475W        W 7199  20.745  27.660  12.442
43476W        W 7200  25.218  17.781  13.872
43477W        W 7201  10.746  41.389  11.552
43478W        W 7202   3.389  27.535  12.077
43479W        W 7203  39.437   6.757   3.274
43480W        W 7204   2.830  23.152  13.014
43481W        W 7205  29.136   0.953  10.458
43482W        W 7206   6.411  30.928   0.372
43483W        W 7207  17.227  23.019   0.772
43484W        W 7208  41.957   9.368   3.152
43485W        W 7209   1.303  29.624   1.311
43486W        W 7210  37.071   0.278  13.842
43487W        W 7211  12.679  34.480   3.290
43488W        W 7212  44.399  23.225  12.060
43489W        W 7213  42.512  44.370   4.211
43490W        W 7214  33.946  21.526   4.335
43491W        W 7215  15.648  37.960   2.674
43492W        W 7216   8.175  14.828  13.369
43493W        W 7217   8.734  22.727  12.086
43494W        W 7218  32.069   4.350  10.629
43495W        W 7219  31.540   0.416   3.295
43496W        W 7220  38.863  41.818  11.031
43497W        W 7221   0.852  35.033  14.000
43498W        W 7222  41.944  12.799  10.053
43499W        W 7223   0.840   4.371   2.799
43500W        W 7224  24.070  34.403  11.496
43501W        W 7225   2.472  25.102  13.474
43502W        W 7226  12.667   4.215  12.418
43503W        W 7227   0.906  17.673  10.561
43504W        W 7228  23.627   0.344  14.860
43505W        W 7229  19.543  20.081   3.775
43506W        W 7230  10.870  25.170   2.881
43507W        W 7231  44.870  23.665  14.470
43508W        W 7232   8.302   2.741   1.313
43509W        W 7233  35.006  15.639  12.360
43510W        W 7234  42.853  10.326   1.809
43511W        W 7235  11.854  31.576  12.838
43512W        W 7236  21.049  39.532   4.283
43513W        W 7237   4.401  20.604  14.883
43514W        W 7238  12.237  10.726  14.002
43515W        W 7239   5.747  30.990  11.082
43516W        W 7240  26.180  35.092   4.171
43517W        W 7241  28.157   9.272   4.201
43518W        W 7242  21.752  13.798   4.635
43519W        W 7243   2.936  36.413  12.930
43520W        W 7244  15.151  26.112  12.513
43521W        W 7245  17.616  37.950  14.026
43522W        W 7246  10.167  10.641  13.394
43523W        W 7247  24.154  15.308   4.266
43524W        W 7248  20.130  16.666   2.778
43525W        W 7249   2.282  38.522   2.857
43526W        W 7250  43.808  39.459   1.799
43527W        W 7251  42.296  19.180   0.808
43528W        W 7252   0.809  29.030   0.902
43529W        W 7253   1.382  32.414   3.157
43530W        W 7254   4.258  16.678   3.755
43531W        W 7255  43.785  39.450   1.233
43532W        W 7256  30.413  28.946  11.972
43533W        W 7257  25.214   3.855   1.829
43534W        W 7258   9.194  31.454   1.224
43535W        W 7259  40.422  13.724   2.206
43536W        W 7260  42.502  29.100   0.800
43537W        W 7261  31.585  22.582   0.303
43538W        W 7262  40.412   4.767   4.307
43539W        W 7263  17.692   4.804  14.406
43540W        W 7264  16.809  27.141   4.171
43541W        W 7265   6.707  36.501   1.224
43542W        W 7266  27.574  13.276   4.166
43543W        W 7267  23.690  14.741  13.415
43544W        W 7268  34.396  12.161   4.348
43545W        W 7269  42.996  28.534   1.777
43546W        W 7270  31.954  29.504  13.917
43547W        W 7271  25.692   7.316   1.816
43548W        W 7272  27.549  39.426   2.356
43549W        W 7273  31.412   2.823   4.118
43550W        W 7274  19.156  17.559  13.362
43551W        W 7275   4.273  11.249   1.753
43552W        W 7276  11.235   2.431   4.209
43553W        W 7277  20.140  15.273   2.290
43554W        W 7278  40.350  34.879  14.306
43555W        W 7279  12.652  29.049  13.520
43556W        W 7280   9.355  26.028   1.875
43557W        W 7281  15.813  41.391  13.035
43558W        W 7282  23.186  16.798   2.212
43559W        W 7283   3.407  17.778  11.449
43560W        W 7284  25.211   4.733   0.772
43561W        W 7285   4.300  33.054   1.739
43562W        W 7286  34.076  21.044  11.977
43563W        W 7287  36.463  37.014   4.175
43564W        W 7288  18.229  39.884   1.291
43565W        W 7289   6.189  22.732   4.165
43566W        W 7290  39.493  38.366   0.305
43567W        W 7291  10.139   1.331  13.397
43568W        W 7292   6.855  17.086   2.859
43569W        W 7293  20.104  13.645  10.123
43570W        W 7294  44.896  19.662  11.935
43571W        W 7295  19.167   9.818   0.390
43572W        W 7296  13.350  42.851   9.968
43573W        W 7297  27.554  14.294  12.460
43574W        W 7298   5.228  31.447  11.520
43575W        W 7299   3.752  21.245  13.847
43576W        W 7300  35.972  23.587   2.795
43577W        W 7301   2.465  37.076  11.048
43578W        W 7302   3.710  34.900   2.768
43579W        W 7303  42.966  39.039  11.513
43580W        W 7304  25.091  37.543   1.391
43581W        W 7305  16.713   4.868   3.199
43582W        W 7306  28.466   8.255   0.437
43583W        W 7307  10.796  23.211  10.903
43584W        W 7308   6.395   5.284  12.983
43585W        W 7309  12.631  15.677  11.946
43586W        W 7310  20.761  40.981  10.928
43587W        W 7311  38.981  25.557  13.458
43588W        W 7312  25.127  13.835   2.901
43589W        W 7313   6.236  23.512  12.087
43590W        W 7314  38.878  28.514   2.193
43591W        W 7315   5.886  30.475   2.354
43592W        W 7316   2.864  37.884   4.661
43593W        W 7317  22.134  11.742   2.860
43594W        W 7318   8.850  22.646  10.433
43595W        W 7319  34.025   3.317   0.476
43596W        W 7320  43.412   4.944   4.813
43597W        W 7321  11.793  33.502   2.826
43598W        W 7322  31.960  11.217  13.832
43599W        W 7323  42.494  35.428  14.855
43600W        W 7324  22.996  43.424   2.769
43601W        W 7325  28.073  38.557  11.455
43602W        W 7326   6.381  17.287  11.419
43603W        W 7327  34.593  27.679   4.329
43604W        W 7328  41.816  34.450  11.531
43605W        W 7329   8.351  22.644   3.234
43606W        W 7330  21.219  43.286  13.520
43607W        W 7331   1.888  32.398   0.771
43608W        W 7332   2.317  27.552   2.900
43609W        W 7333  28.580  20.661   2.804
43610W        W 7334  31.080  34.444   2.824
43611W        W 7335  20.660   1.420  10.516
43612W        W 7336   2.791  28.092  11.066
43613W        W 7337  43.971   6.207   4.600
43614W        W 7338  43.299   3.750   3.191
43615W        W 7339  30.488  11.843  14.990
43616W        W 7340  28.451   0.885  10.455
43617W        W 7341  15.284  25.091  12.452
43618W        W 7342  17.297  38.877  11.575
43619W        W 7343  37.975  22.141  13.973
43620W        W 7344  33.027   9.671  14.501
43621W        W 7345  30.119  11.622   0.839
43622W        W 7346  25.091  38.835  13.886
43623W        W 7347   9.217  19.208  11.910
43624W        W 7348  35.879  35.023  12.951
43625W        W 7349  22.165  25.097   2.880
43626W        W 7350   4.878  36.060  14.450
43627W        W 7351  35.904   7.226   2.238
43628W        W 7352  32.535  42.454  10.635
43629W        W 7353  17.188  12.167  13.393
43630W        W 7354  44.895  27.450   1.716
43631W        W 7355  40.366  40.344   1.212
43632W        W 7356  25.564   8.845   1.861
43633W        W 7357  38.425  23.003  11.010
43634W        W 7358   1.842  17.118  11.563
43635W        W 7359  20.692  14.622  11.867
43636W        W 7360   5.367  37.503   3.855
43637W        W 7361  34.507  43.467  12.939
43638W        W 7362  11.812   4.353   3.778
43639W        W 7363  28.665   4.257  11.539
43640W        W 7364  29.940  41.494  10.535
43641W        W 7365  14.749  24.009  11.574
43642W        W 7366  19.246   1.366   1.770
43643W        W 7367  17.570  37.075  11.372
43644W        W 7368  28.145   3.446   0.301
43645W        W 7369  37.394  20.565   3.814
43646W        W 7370  34.612   3.282   2.334
43647W        W 7371  27.956  10.296   2.201
43648W        W 7372  29.614  11.721   3.637
43649W        W 7373  26.072  24.643   4.683
43650W        W 7374   8.296   1.965   3.291
43651W        W 7375  40.018  13.186   3.332
43652W        W 7376  41.018  12.761   0.479
43653W        W 7377  21.251  19.195   0.875
43654W        W 7378  14.695  42.859   1.907
43655W        W 7379  31.900  17.223  11.076
43656W        W 7380  25.151  41.303   2.244
43657W        W 7381  33.623   8.770   4.251
43658W        W 7382  29.129   6.344  14.903
43659W        W 7383  21.583  30.911   4.353
43660W        W 7384  41.950  31.441   1.232
43661W        W 7385  12.623  37.030  13.318
43662W        W 7386   2.926   3.792   2.875
43663W        W 7387  44.777  32.134  13.827
43664W        W 7388   7.885  20.588  12.518
43665W        W 7389  12.631  42.474   0.792
43666W        W 7390   5.421  21.189   4.828
43667W        W 7391  22.697   7.266   0.474
43668W        W 7392   5.928  24.047   4.229
43669W        W 7393  21.234  24.195  13.522
43670W        W 7394  32.139  39.911   4.281
43671W        W 7395  27.451  43.834  11.583
43672W        W 7396  13.696  40.378  14.978
43673W        W 7397   5.694  23.175  11.456
43674W        W 7398  36.448  28.989   3.641
43675W        W 7399  21.594   6.238   1.734
43676W        W 7400  17.067  20.053   0.458
43677W        W 7401  44.410  39.489   1.834
43678W        W 7402  20.601  37.343  13.929
43679W        W 7403   3.742  41.423  12.084
43680W        W 7404  25.525  25.002   3.289
43681W        W 7405  18.710   9.690  12.451
43682W        W 7406  25.493  32.477  13.921
43683W        W 7407  43.942  33.956  11.392
43684W        W 7408  20.052  35.105  14.391
43685W        W 7409  21.157  28.662   1.741
43686W        W 7410  21.735  23.575   1.836
43687W        W 7411   5.779  44.849   3.342
43688W        W 7412  33.460  29.159  14.459
43689W        W 7413  11.659  39.988  10.433
43690W        W 7414  18.175   9.179   0.838
43691W        W 7415  13.632  28.024  11.430
43692W        W 7416  12.687  20.554   4.243
43693W        W 7417   5.822  14.610   3.172
43694W        W 7418  22.096  12.640  11.091
43695W        W 7419   9.217  44.339   4.638
43696W        W 7420  32.037  41.391   1.417
43697W        W 7421  21.750  43.478   0.481
43698W        W 7422  16.784   7.285   1.841
43699W        W 7423  15.594  24.676  13.437
43700W        W 7424  28.498  33.430   1.356
43701W        W 7425  18.246  14.258   1.782
43702W        W 7426  39.531  16.220   1.412
43703W        W 7427   7.304   9.860  13.015
43704W        W 7428  31.596  29.010   2.688
43705W        W 7429  33.874  41.438  13.934
43706W        W 7430  44.858   7.785  14.300
43707W        W 7431   6.330  10.224   1.798
43708W        W 7432  12.708  25.214  13.318
43709W        W 7433  14.653   9.156  14.362
43710W        W 7434  22.036  26.578  14.295
43711W        W 7435  23.506   4.856  11.050
43712W        W 7436  15.786  35.082  10.943
43713W        W 7437  36.945  11.714  12.388
43714W        W 7438   8.872  15.632  14.369
43715W        W 7439  38.378  21.196  10.594
43716W        W 7440  39.941  27.673   1.289
43717W        W 7441  17.601  21.572  14.361
43718W        W 7442   0.315  17.741   3.211
43719W        W 7443  44.333   6.196   1.348
43720W        W 7444   9.281  36.962   0.904
43721W        W 7445  32.571   6.860  14.933
43722W        W 7446  25.037  13.742  13.918
43723W        W 7447  22.136  14.723   0.345
43724W        W 7448  43.934  40.046  13.491
43725W        W 7449  35.997  22.580   4.312
43726W        W 7450  15.197  25.993   2.225
43727W        W 7451  29.970   8.188  11.958
43728W        W 7452  23.689  13.683  13.926
43729W        W 7453  14.279  29.029   3.252
43730W        W 7454  18.216  19.546  14.395
43731W        W 7455   6.363  15.219   3.342
43732W        W 7456  40.856   8.860   2.792
43733W        W 7457   4.749  16.572   4.669
43734W        W 7458  42.882  10.760   3.641
43735W        W 7459  30.917  12.655   1.362
43736W        W 7460   7.856   6.403  13.031
43737W        W 7461  14.094  44.358   0.281
43738W        W 7462  42.006  17.187  10.895
43739W        W 7463   6.305  25.194   4.675
43740W        W 7464  32.588  39.369   4.648
43741W        W 7465   9.715  10.796  11.926
43742W        W 7466   2.895  40.402   2.238
43743W        W 7467  43.956  10.299   3.307
43744W        W 7468   5.819  10.857   5.611
43745W        W 7469  10.862  32.038   2.337
43746W        W 7470  26.565   8.700  14.359
43747W        W 7471  28.443  36.585   3.722
43748W        W 7472  39.527  11.865   0.470
43749W        W 7473  17.130  21.136  12.579
43750W        W 7474   4.445  34.405  11.465
43751W        W 7475  42.872  27.657  10.079
43752W        W 7476  16.166  34.378  13.516
43753W        W 7477  20.751  23.170  12.570
43754W        W 7478  44.998  28.057  10.621
43755W        W 7479  18.729  22.667   3.307
43756W        W 7480  42.016  31.912   0.258
43757W        W 7481  33.919  17.787   4.647
43758W        W 7482  37.983  17.563   2.699
43759W        W 7483  39.371  43.832   1.818
43760W        W 7484  33.564   2.745   4.650
43761W        W 7485  16.704  35.868  13.851
43762W        W 7486  20.626  17.753   1.426
43763W        W 7487  14.668  34.525  12.067
43764W        W 7488  38.836  28.509  14.946
43765W        W 7489  23.583  36.478  11.032
43766W        W 7490  34.950   9.713   1.400
43767W        W 7491  31.123  43.966  12.509
43768W        W 7492  25.138  21.644   1.422
43769W        W 7493  44.822  29.574  11.865
43770W        W 7494  32.064  28.129   1.289
43771W        W 7495   0.386  21.656   2.768
43772W        W 7496   2.840   6.425   0.379
43773W        W 7497  29.494   3.751   4.129
43774W        W 7498  44.937   8.823  13.347
43775W        W 7499  42.792  34.995  13.343
43776W        W 7500  11.288  19.541   1.411
43777W        W 7501  18.661  10.300   1.913
43778W        W 7502  27.087  37.933  13.463
43779W        W 7503  23.663  23.150   4.811
43780W        W 7504  16.074  33.911   1.694
43781W        W 7505  17.103  43.420   0.740
43782W        W 7506  28.596   0.299   2.387
43783W        W 7507  42.346  25.522   2.292
43784W        W 7508  24.705  28.994   2.730
43785W        W 7509  20.059  32.589  13.898
43786W        W 7510  26.630  25.111  14.009
43787W        W 7511  16.235  20.718  12.451
43788W        W 7512   3.884  40.003   1.824
43789W        W 7513  37.931  11.354  13.407
43790W        W 7514  24.562  27.610   0.330
43791W        W 7515  40.875  20.070   0.766
43792W        W 7516   1.404  36.074   4.737
43793W        W 7517  34.916  19.129  14.402
43794W        W 7518   2.769   9.884   4.273
43795W        W 7519  13.806  27.567  14.455
43796W        W 7520  43.363  22.023  13.006
43797W        W 7521  13.769  24.667   4.334
43798W        W 7522  15.229   2.808  13.458
43799W        W 7523  44.439  24.206   5.314
43800W        W 7524  26.044  15.740   4.162
43801W        W 7525  25.049   5.810  12.341
43802W        W 7526  40.037  25.497   3.217
43803W        W 7527  34.403  41.865  13.022
43804W        W 7528  27.598  17.108  10.913
43805W        W 7529  33.410  23.604   1.330
43806W        W 7530  34.965  33.058   1.288
43807W        W 7531   5.791  23.601  11.448
43808W        W 7532  18.069  41.846   4.119
43809W        W 7533   4.306  15.295   1.739
43810W        W 7534   5.433  30.413   1.286
43811W        W 7535  18.108  38.426  11.430
43812W        W 7536   5.273  11.310   3.713
43813W        W 7537   4.308  40.983   3.841
43814W        W 7538  38.928   4.311   3.839
43815W        W 7539  39.922  27.657  11.939
43816W        W 7540   3.714  15.196   2.382
43817W        W 7541  23.642  37.360  10.131
43818W        W 7542  23.714  18.078   3.184
43819W        W 7543  16.291  29.490   4.241
43820W        W 7544  24.581  15.711  13.829
43821W        W 7545  36.348  36.934   3.169
43822W        W 7546  42.478  38.963  13.463
43823W        W 7547   6.363  31.027   2.237
43824W        W 7548  21.520  30.954  10.520
43825W        W 7549  38.999  14.224   1.390
43826W        W 7550  17.684  22.044   4.245
43827W        W 7551   6.721  22.047   2.874
43828W        W 7552  31.149  31.525   3.642
43829W        W 7553  18.179   3.941  11.886
43830W        W 7554  27.599  16.102   4.631
43831W        W 7555   0.987  34.881   4.798
43832W        W 7556  31.409  14.717   5.679
43833W        W 7557  10.255  31.425   0.786
43834W        W 7558  27.559  41.848  11.034
43835W        W 7559  30.534   5.746  12.972
43836W        W 7560   1.363   7.284   0.744
43837W        W 7561  18.132  40.818  10.588
43838W        W 7562  42.464  14.711  13.849
43839W        W 7563  29.432  14.644  11.919
43840W        W 7564  18.672  30.952   4.645
43841W        W 7565  36.992  38.462   3.250
43842W        W 7566  33.610  23.523  12.340
43843W        W 7567   5.911  36.409   4.229
43844W        W 7568   0.429  26.160  13.455
43845W        W 7569  31.944  17.601   0.817
43846W        W 7570  29.565  43.789   3.290
43847W        W 7571  41.985  20.615   0.790
43848W        W 7572  41.025  31.426  13.813
43849W        W 7573  31.508  44.429   1.435
43850W        W 7574  32.625  25.565  12.984
43851W        W 7575  38.537  34.489   0.823
43852W        W 7576  11.741  29.143  11.434
43853W        W 7577  17.603  39.374   4.692
43854W        W 7578  24.535  26.494  13.512
43855W        W 7579  30.961   2.289  11.042
43856W        W 7580  38.337   9.760   0.895
43857W        W 7581  28.155  37.018  14.786
43858W        W 7582  35.038  38.888   3.841
43859W        W 7583  28.617  35.490   4.801
43860W        W 7584  28.451  20.241  11.583
43861W        W 7585  12.618  14.666  11.058
43862W        W 7586  13.656  33.499   4.285
43863W        W 7587  34.035  34.932   3.852
43864W        W 7588  32.452   4.435  11.103
43865W        W 7589   5.402  12.780   2.785
43866W        W 7590  38.984  34.083  11.963
43867W        W 7591  43.506  31.921  14.002
43868W        W 7592  19.535  43.021   4.770
43869W        W 7593  44.766  19.210  14.772
43870W        W 7594   7.382  33.131  12.524
43871W        W 7595   7.838   5.211   1.312
43872W        W 7596  28.119  44.809   2.797
43873W        W 7597  43.779  34.421   3.835
43874W        W 7598   4.355  10.636   5.258
43875W        W 7599   6.300  39.328  14.901
43876W        W 7600  31.084  28.039  11.905
43877W        W 7601  36.013  25.144  14.396
43878W        W 7602  29.105  13.839   3.763
43879W        W 7603  10.868   9.810   2.336
43880W        W 7604  37.558   4.731   3.266
43881W        W 7605  22.996  37.447   4.598
43882W        W 7606   4.279  25.554   3.864
43883W        W 7607  10.665  21.517  14.967
43884W        W 7608  34.501  30.115   4.131
43885W        W 7609  21.120  12.830  11.004
43886W        W 7610  25.619  28.640  14.028
43887W        W 7611  39.390   3.747  10.937
43888W        W 7612   7.873  40.541  11.089
43889W        W 7613   4.292  12.162   2.300
43890W        W 7614  30.113  35.588  11.909
43891W        W 7615  39.431  41.823  12.034
43892W        W 7616  12.206  29.482   1.443
43893W        W 7617  25.019   4.771  12.012
43894W        W 7618  14.827  13.602  10.621
43895W        W 7619  30.450  23.107   2.317
43896W        W 7620  41.449  17.663   0.928
43897W        W 7621  30.567   3.255  11.487
43898W        W 7622  20.747   8.837   3.806
43899W        W 7623  21.047  10.868  13.815
43900W        W 7624  17.180   5.294  12.853
43901W        W 7625  40.048  24.229  11.578
43902W        W 7626   8.835  19.190  13.481
43903W        W 7627  23.026   3.447  14.346
43904W        W 7628  44.428  37.493  12.389
43905W        W 7629  36.896  25.204   1.896
43906W        W 7630   7.332  15.296   1.727
43907W        W 7631  21.247  19.128  13.430
43908W        W 7632  35.929  43.412   0.329
43909W        W 7633   0.385  22.557  12.491
43910W        W 7634  33.940   2.314   4.321
43911W        W 7635   6.188  18.688  14.809
43912W        W 7636   6.721  27.159  11.540
43913W        W 7637  30.643  34.970  13.999
43914W        W 7638   1.903  21.114   0.727
43915W        W 7639  42.518  30.512  12.080
43916W        W 7640  40.997   6.367  11.036
43917W        W 7641  29.624  26.548  12.994
43918W        W 7642  12.171  28.952  10.950
43919W        W 7643  33.549  25.510  11.418
43920W        W 7644  42.354  20.591  14.430
43921W        W 7645  17.203  27.059   0.730
43922W        W 7646  20.577  38.047  14.457
43923W        W 7647   2.958  29.139   0.864
43924W        W 7648  26.677   2.377   1.318
43925W        W 7649  34.943   2.226  12.437
43926W        W 7650  42.307  16.286   2.755
43927W        W 7651  23.584  11.346   4.777
43928W        W 7652  33.616  23.682   4.145
43929W        W 7653  11.172  17.086  13.012
43930W        W 7654  18.178  17.197   4.241
43931W        W 7655   7.682  39.485   4.279
43932W        W 7656  10.688  10.740  11.384
43933W        W 7657  40.323  25.056  14.277
43934W        W 7658  12.123  38.928   0.831
43935W        W 7659   8.791  38.993  10.893
43936W        W 7660  18.230   1.851   1.278
43937W        W 7661  32.538  40.828   4.293
43938W        W 7662  42.896  23.509  14.337
43939W        W 7663   8.876   8.183  10.581
43940W        W 7664  21.559  11.224  12.093
43941W        W 7665  40.995  25.118  11.513
43942W        W 7666  16.739   7.846  12.089
43943W        W 7667  19.715  39.835  10.512
43944W        W 7668  26.536   7.746  14.863
43945W        W 7669  25.620  18.225   0.923
43946W        W 7670  27.032   2.886  11.540
43947W        W 7671  24.632  43.952   0.924
43948W        W 7672   9.778   3.921   1.335
43949W        W 7673  41.017   9.801   3.286
43950W        W 7674  14.632  24.973  13.934
43951W        W 7675  33.586  22.578  14.335
43952W        W 7676  32.126  30.981  14.490
43953W        W 7677   5.387  35.432  12.092
43954W        W 7678  28.988   5.909  11.879
43955W        W 7679   3.308  30.088   4.675
43956W        W 7680  28.448  25.706  12.933
43957W        W 7681  29.601   0.835   2.265
43958W        W 7682  24.030  27.988   4.147
43959W        W 7683   9.782  11.323   0.879
43960W        W 7684  36.498  21.738   1.343
43961W        W 7685  25.564  28.114   1.738
43962W        W 7686  29.460  39.000   2.306
43963W        W 7687  26.527  29.077   4.698
43964W        W 7688   8.242  21.116  13.013
43965W        W 7689  19.762  42.984  14.341
43966W        W 7690  28.516   0.865   0.468
43967W        W 7691  25.009  33.017   2.290
43968W        W 7692   2.877  30.435   0.431
43969W        W 7693  11.171   8.206   4.731
43970W        W 7694   2.379  33.615   1.742
43971W        W 7695  23.680  34.500  10.474
43972W        W 7696  38.541   1.243  14.445
43973W        W 7697  18.616  27.072   4.763
43974W        W 7698  12.791  22.995   3.722
43975W        W 7699  28.008   2.393   3.253
43976W        W 7700  30.956   5.394   1.450
43977W        W 7701   4.913  17.665  13.964
43978W        W 7702  16.795   9.193  10.528
43979W        W 7703  21.262  26.956   0.826
43980W        W 7704  37.476   8.801  13.846
43981W        W 7705   3.281  23.021   2.855
43982W        W 7706  40.362   7.675   1.374
43983W        W 7707   3.939   1.405   0.790
43984W        W 7708  37.973  20.077   2.883
43985W        W 7709   3.256   3.377   0.425
43986W        W 7710  42.978  28.640   3.330
43987W        W 7711  31.129  15.226  12.985
43988W        W 7712   7.686  42.508  12.503
43989W        W 7713  21.534  17.658  10.511
43990W        W 7714  26.030  20.084   2.730
43991W        W 7715  27.664  18.562  14.791
43992W        W 7716  10.646  25.158  13.356
43993W        W 7717  10.856  33.517  13.800
43994W        W 7718  35.456   9.696  13.838
43995W        W 7719  18.744  16.294   2.747
43996W        W 7720  13.664  25.083  14.920
43997W        W 7721  29.030  17.262  13.021
43998W        W 7722  19.078  25.098   4.712
43999W        W 7723  37.440   0.798   1.411
44000W        W 7724  27.198  15.723  10.132
44001W        W 7725  11.346  25.165  12.833
44002W        W 7726  44.363  14.230  14.812
44003W        W 7727   0.421  30.107   1.865
44004W        W 7728  13.623   7.883   2.378
44005W        W 7729  22.596  35.953  12.506
44006W        W 7730  28.592   9.794   3.823
44007W        W 7731  18.138  38.510  13.482
44008W        W 7732   4.880  38.479   0.783
44009W        W 7733  20.716   5.248  11.006
44010W        W 7734  14.183  24.632   0.469
44011W        W 7735  24.007  36.516  11.939
44012W        W 7736   8.765  17.081   2.361
44013W        W 7737  20.259  11.825   1.409
44014W        W 7738  17.746   9.794  14.870
44015W        W 7739  22.544  26.123   0.916
44016W        W 7740   0.476  39.989  11.871
44017W        W 7741  27.987  42.397   2.683
44018W        W 7742  15.642  34.025   2.344
44019W        W 7743  43.913  15.667   2.852
44020W        W 7744   7.349  23.069   2.669
44021W        W 7745  24.176  31.446   1.298
44022W        W 7746  23.066  44.425   1.697
44023W        W 7747  33.616  43.979   0.807
44024W        W 7748   7.282  17.139   1.743
44025W        W 7749   2.290   7.335  11.988
44026W        W 7750   0.944  27.625   0.967
44027W        W 7751   0.310  10.179   0.422
44028W        W 7752  30.909   5.692   2.203
44029W        W 7753  18.622  44.454  11.516
44030W        W 7754  31.107   0.758   4.751
44031W        W 7755  40.507  26.152  11.439
44032W        W 7756  22.522  23.532  14.447
44033W        W 7757   5.306  43.865  11.860
44034W        W 7758  12.128   3.780  11.887
44035W        W 7759   1.814  42.367   1.323
44036W        W 7760   9.283  16.154  13.362
44037W        W 7761  24.158   3.770   2.387
44038W        W 7762  33.882  25.708  12.942
44039W        W 7763  33.516  22.250  14.819
44040W        W 7764   4.387   5.238  10.507
44041W        W 7765  24.631  23.697  10.574
44042W        W 7766  33.389  37.560  13.993
44043W        W 7767  10.655  14.790   4.157
44044W        W 7768  30.572  16.573   1.286
44045W        W 7769  22.703  17.771  14.845
44046W        W 7770   5.779  11.853  13.426
44047W        W 7771  35.069  32.576   3.280
44048W        W 7772  15.112  29.156   2.707
44049W        W 7773  27.993  35.984  13.889
44050W        W 7774  29.132   4.817  10.608
44051W        W 7775  25.480  18.275   5.132
44052W        W 7776  41.406   0.403   3.218
44053W        W 7777  32.524  28.532  13.849
44054W        W 7778  31.487  39.881  10.418
44055W        W 7779  33.025   4.722  11.867
44056W        W 7780  11.737   0.268  14.373
44057W        W 7781  23.545  37.558  10.544
44058W        W 7782  16.580  34.039  10.416
44059W        W 7783   9.764  19.099   4.820
44060W        W 7784   8.687  36.428   2.713
44061W        W 7785  16.617  11.782  12.022
44062W        W 7786  24.493  17.765   3.838
44063W        W 7787  25.009   1.890  10.521
44064W        W 7788   0.301   7.783  14.445
44065W        W 7789   4.787  39.482  11.928
44066W        W 7790   9.822  29.585  11.572
44067W        W 7791   6.357  29.092  11.924
44068W        W 7792  28.483  19.126   3.352
44069W        W 7793  11.636  16.736  11.415
44070W        W 7794  18.564  26.130   2.667
44071W        W 7795  22.204  26.013   2.253
44072W        W 7796   8.243  43.456  14.820
44073W        W 7797  29.072  37.479   1.291
44074W        W 7798  32.069  21.030   1.322
44075W        W 7799  13.197  33.416  12.391
44076W        W 7800  33.118  27.966  13.463
44077W        W 7801  30.413  35.003  13.439
44078W        W 7802  24.697  28.110  13.864
44079W        W 7803  39.905  21.110  13.482
44080W        W 7804  28.951  27.197  12.824
44081W        W 7805  36.939   1.795   1.779
44082W        W 7806  24.656  26.576   9.465
44083W        W 7807  39.835  37.532   0.301
44084W        W 7808  34.383  41.969   4.599
44085W        W 7809  16.285  10.706  13.491
44086W        W 7810  14.324  22.510  12.023
44087W        W 7811   4.794  42.375  10.931
44088W        W 7812  19.201  27.116  12.498
44089W        W 7813  32.062  16.217   4.660
44090W        W 7814   3.731  30.020  13.796
44091W        W 7815  40.390   3.401  10.627
44092W        W 7816  31.004  14.281   5.123
44093W        W 7817   8.349  17.284  12.472
44094W        W 7818  19.183  41.945   3.337
44095W        W 7819  39.507  34.924  11.487
44096W        W 7820   9.187  42.417  14.836
44097W        W 7821  24.666  38.349   9.597
44098W        W 7822   7.861   1.800   1.766
44099W        W 7823  10.339  38.888   1.258
44100W        W 7824   9.856  35.897  13.908
44101W        W 7825  38.070  10.225   1.929
44102W        W 7826  36.508   5.762  12.399
44103W        W 7827  41.439  29.086   1.329
44104W        W 7828   9.767   2.960  14.949
44105W        W 7829  35.894  41.436   1.274
44106W        W 7830   2.815  31.560   0.465
44107W        W 7831   8.327  28.988  10.498
44108W        W 7832   7.402  36.966   0.832
44109W        W 7833  31.095  44.365   1.362
44110W        W 7834  36.351  17.650   2.697
44111W        W 7835  29.521  30.142   1.752
44112W        W 7836  32.141  17.097  10.427
44113W        W 7837  43.483  12.722  11.403
44114W        W 7838  16.231   3.426  12.573
44115W        W 7839  39.398   3.785  11.583
44116W        W 7840  38.540  29.003   0.251
44117W        W 7841  35.490  21.212  11.375
44118W        W 7842  20.160  32.057  13.313
44119W        W 7843  39.004  33.086  10.639
44120W        W 7844  33.059  25.113  13.963
44121W        W 7845  18.082  32.437   0.945
44122W        W 7846  30.631  39.860  14.405
44123W        W 7847  38.067   3.814  12.060
44124W        W 7848  10.746  39.547  11.942
44125W        W 7849  24.642  14.589  11.392
44126W        W 7850  44.864  19.694  12.926
44127W        W 7851  37.568  16.566  13.057
44128W        W 7852  41.790  16.798  13.496
44129W        W 7853  22.563  33.029  11.028
44130W        W 7854  24.980   8.359   2.776
44131W        W 7855  44.754  31.475   1.935
44132W        W 7856  15.808   0.938   3.293
44133W        W 7857  11.155   3.251   2.309
44134W        W 7858   6.272  13.702  14.275
44135W        W 7859  28.126   6.210  14.398
44136W        W 7860  19.661  16.079   4.334
44137W        W 7861   1.818  44.860  12.047
44138W        W 7862  38.936  22.676   0.387
44139W        W 7863   0.980  25.098   2.805
44140W        W 7864  35.433  27.112   2.318
44141W        W 7865  25.672  44.481  10.985
44142W        W 7866  25.219  12.731   2.717
44143W        W 7867  22.136  19.167  11.924
44144W        W 7868  18.131   4.938   3.814
44145W        W 7869  24.231  10.241   0.338
44146W        W 7870   9.377  12.175  13.939
44147W        W 7871  28.581  21.578  14.917
44148W        W 7872   2.334  30.140  14.375
44149W        W 7873  18.136   0.940   2.347
44150W        W 7874  26.097   1.788   0.326
44151W        W 7875  11.204  13.773   0.767
44152W        W 7876   3.846  41.998  12.905
44153W        W 7877  19.692  10.809   4.649
44154W        W 7878  24.092  30.164   0.482
44155W        W 7879  33.107  21.153  13.961
44156W        W 7880  41.837  17.746  13.371
44157W        W 7881  10.275  28.620  10.548
44158W        W 7882  42.891  25.968   1.223
44159W        W 7883   3.403  29.028   2.334
44160W        W 7884  44.289  21.161   0.377
44161W        W 7885   2.273  26.118   2.806
44162W        W 7886  35.390  12.646  10.565
44163W        W 7887  42.918  27.184  11.012
44164W        W 7888  32.457  29.490   2.200
44165W        W 7889  40.393  30.162  11.603
44166W        W 7890  11.852  34.986   0.901
44167W        W 7891  15.164  24.509  14.886
44168W        W 7892  43.427  44.370   2.238
44169W        W 7893  28.954  25.518   0.943
44170W        W 7894  19.055  35.089   2.894
44171W        W 7895  38.464  29.169  11.520
44172W        W 7896  20.753  19.046   3.297
44173W        W 7897  44.956   1.317  11.068
44174W        W 7898  41.958  12.784   2.897
44175W        W 7899   3.323  15.127  12.843
44176W        W 7900  21.165  20.628   1.752
44177W        W 7901  30.034  25.704  12.477
44178W        W 7902  41.527   5.361   4.838
44179W        W 7903  12.737  37.070  11.085
44180W        W 7904  30.000  33.955  10.557
44181W        W 7905   0.933  18.097   1.309
44182W        W 7906  23.227   8.236   0.947
44183W        W 7907  15.773  18.579   0.733
44184W        W 7908  32.090   1.429   1.233
44185W        W 7909  24.698  20.044  11.996
44186W        W 7910  17.570  35.933   2.281
44187W        W 7911   5.345  35.990  13.937
44188W        W 7912  13.689  35.911  12.927
44189W        W 7913  26.973  26.992   2.720
44190W        W 7914  12.717  24.078   1.761
44191W        W 7915  37.338  18.097   9.973
44192W        W 7916  32.421  25.625   1.900
44193W        W 7917   7.820  37.395   3.295
44194W        W 7918  41.837  33.553   0.966
44195W        W 7919  29.926   0.259  13.021
44196W        W 7920   3.360  20.201  11.954
44197W        W 7921  27.977   8.821   1.266
44198W        W 7922   6.797   7.829   1.431
44199W        W 7923   6.917  12.845   1.857
44200W        W 7924  28.528  28.499  14.853
44201W        W 7925  33.107  14.628   0.756
44202W        W 7926  25.980  19.698   2.283
44203W        W 7927  10.753  25.014  11.104
44204W        W 7928  15.767  10.834  13.446
44205W        W 7929  40.856  21.193   4.340
44206W        W 7930  44.914  28.087   2.215
44207W        W 7931  28.937  27.971   4.720
44208W        W 7932   5.818  31.599  10.450
44209W        W 7933  17.216  24.056   0.329
44210W        W 7934  23.736  34.423  14.322
44211W        W 7935  44.476  37.863   9.471
44212W        W 7936  29.505  37.048   1.339
44213W        W 7937  40.961   5.824  11.099
44214W        W 7938  11.272   0.862   4.128
44215W        W 7939  11.679  42.292   0.939
44216W        W 7940  38.369   1.922  13.363
44217W        W 7941  11.848  19.073  12.549
44218W        W 7942   2.915   3.371  11.097
44219W        W 7943  20.056  29.587  10.146
44220W        W 7944  13.616  24.119   3.799
44221W        W 7945  44.314  34.997   5.237
44222W        W 7946  21.182  17.661  13.917
44223W        W 7947  39.930  20.653  11.536
44224W        W 7948  37.955  18.128   2.745
44225W        W 7949  13.117  40.530   3.862
44226W        W 7950  35.575  23.032   0.883
44227W        W 7951  20.234  34.097   2.692
44228W        W 7952  32.933  40.962  10.438
44229W        W 7953  11.779  15.699   3.163
44230W        W 7954  39.317  26.105   0.821
44231W        W 7955  39.877  12.675   1.253
44232W        W 7956  22.227  11.278   1.875
44233W        W 7957  30.073  33.009   2.324
44234W        W 7958   5.209   3.845   1.323
44235W        W 7959   0.261  38.996  12.357
44236W        W 7960  27.117  34.903  10.475
44237W        W 7961  30.133  24.580  10.515
44238W        W 7962  30.022  38.062   4.641
44239W        W 7963  19.144  37.961   0.748
44240W        W 7964  25.196  15.211   3.242
44241W        W 7965   6.840  21.023   5.290
44242W        W 7966  10.302  19.713   1.429
44243W        W 7967  11.174  31.536  10.592
44244W        W 7968   6.903  11.357  11.956
44245W        W 7969  21.720  23.036  12.886
44246W        W 7970  13.779   3.315   3.282
44247W        W 7971  24.661  33.518  10.561
44248W        W 7972  38.049   2.880   2.885
44249W        W 7973  13.648  20.059   1.928
44250W        W 7974  22.646  30.594   3.674
44251W        W 7975  18.600   2.439   4.151
44252W        W 7976   4.841  36.391   0.371
44253W        W 7977  38.061   3.241  11.443
44254W        W 7978  44.262   0.875  10.641
44255W        W 7979  32.577  23.524   0.316
44256W        W 7980  31.009   6.753  11.977
44257W        W 7981  21.195  23.711   2.777
44258W        W 7982  16.085  10.325   2.277
44259W        W 7983  32.062  42.979  13.054
44260W        W 7984  36.475  42.840  12.875
44261W        W 7985  18.145  12.668   0.884
44262W        W 7986  23.019  37.048   1.399
44263W        W 7987  19.748  37.906  11.508
44264W        W 7988  13.295  18.055   3.843
44265W        W 7989  42.846  36.532   5.156
44266W        W 7990  39.949  10.839   0.885
44267W        W 7991  10.856  18.181   4.337
44268W        W 7992  22.703  19.180   1.930
44269W        W 7993  33.523  11.704  11.033
44270W        W 7994  29.123  35.407   4.207
44271W        W 7995  21.614  14.094   4.234
44272W        W 7996  12.169  26.970   4.759
44273W        W 7997  19.191  20.119  11.957
44274W        W 7998  33.127  19.589   0.865
44275W        W 7999  27.573   9.176  12.395
44276W        W 8000  29.093  17.781  11.490
44277W        W 8001  18.569   9.719  10.444
44278W        W 8002  31.418  43.768  11.597
44279W        W 8003  36.880  21.711  11.952
44280W        W 8004  12.699  41.393   3.286
44281W        W 8005  41.000  41.004  11.380
44282W        W 8006  13.813  24.058  12.065
44283W        W 8007  30.144  39.916   1.827
44284W        W 8008  35.584  23.009  11.128
44285W        W 8009  11.162   5.785   0.903
44286W        W 8010  43.321  13.345   3.808
44287W        W 8011  26.037  20.711  11.373
44288W        W 8012  35.993  36.965  14.011
44289W        W 8013  14.595  34.441   0.481
44290W        W 8014  31.100  43.427   0.865
44291W        W 8015  20.207  43.893  11.061
44292W        W 8016  24.553  44.270  12.521
44293W        W 8017  19.601  22.139   2.416
44294W        W 8018  30.427   4.920   4.221
44295W        W 8019  28.628   5.304  11.901
44296W        W 8020   9.853  18.724   0.416
44297W        W 8021  44.787  37.031   0.784
44298W        W 8022  22.745  38.461  13.535
44299W        W 8023  17.604  28.534  10.557
44300W        W 8024  38.963  38.903   5.229
44301W        W 8025  36.894  32.072   2.792
44302W        W 8026  31.516   8.814   1.231
44303W        W 8027  33.924  34.385  11.894
44304W        W 8028  12.172  43.996   1.213
44305W        W 8029  34.926  11.289  12.890
44306W        W 8030  34.004   2.284   3.370
44307W        W 8031  12.209  40.464   4.769
44308W        W 8032  25.139   6.731   4.292
44309W        W 8033  25.545  27.145  14.372
44310W        W 8034  35.393  37.576  10.617
44311W        W 8035  14.598  29.623  14.960
44312W        W 8036   6.396  31.411  11.460
44313W        W 8037   2.325  34.879   3.218
44314W        W 8038  30.017  10.694   0.774
44315W        W 8039   8.852  32.970  13.535
44316W        W 8040   5.300  20.640  13.937
44317W        W 8041  37.052  30.449   4.753
44318W        W 8042  11.271  18.552   1.440
44319W        W 8043  28.999  44.949  11.887
44320W        W 8044  37.837  15.257   2.750
44321W        W 8045  14.275  24.069  10.455
44322W        W 8046  25.158  38.467   2.792
44323W        W 8047  17.135  43.388  10.589
44324W        W 8048  39.540   0.784   3.850
44325W        W 8049  22.073  17.683   3.845
44326W        W 8050  25.583  44.475  10.412
44327W        W 8051  39.931  19.240   2.835
44328W        W 8052  18.609  32.027   0.739
44329W        W 8053   9.261  12.752   4.209
44330W        W 8054  35.881   5.765   0.927
44331W        W 8055   9.728  24.598  12.398
44332W        W 8056  33.071   1.951  13.307
44333W        W 8057  11.868   2.906   3.701
44334W        W 8058  26.506  16.224  13.968
44335W        W 8059  15.723  16.594  10.538
44336W        W 8060  16.303  33.404   2.809
44337W        W 8061  25.018  16.290   1.367
44338W        W 8062  19.579  25.099  12.508
44339W        W 8063   5.356  25.561   3.708
44340W        W 8064   5.273  25.198   4.725
44341W        W 8065  12.746  37.012   3.256
44342W        W 8066  35.525  43.352   3.320
44343W        W 8067  42.410  10.848   2.287
44344W        W 8068  25.540   1.734   3.326
44345W        W 8069  25.697  40.458  12.021
44346W        W 8070  25.039  28.118   1.737
44347W        W 8071  33.959  13.803   3.329
44348W        W 8072  23.036  25.015   0.360
44349W        W 8073  13.608  43.931   1.261
44350W        W 8074  12.204  17.663   4.600
44351W        W 8075  44.355  44.815   1.423
44352W        W 8076  13.798  14.606   4.124
44353W        W 8077   3.946  26.090  10.482
44354W        W 8078   6.253  16.807   1.751
44355W        W 8079  30.152  32.530  10.460
44356W        W 8080  20.590   9.294   4.700
44357W        W 8081  34.909  31.633  14.419
44358W        W 8082   7.775  23.141   3.640
44359W        W 8083   6.322   1.451  13.995
44360W        W 8084  10.293  11.670   1.862
44361W        W 8085  39.967   7.262   2.891
44362W        W 8086  11.645  30.529   0.728
44363W        W 8087   5.310  23.169  11.517
44364W        W 8088  37.568  44.464  12.986
44365W        W 8089  10.748  12.824  13.866
44366W        W 8090   8.764  37.421  10.629
44367W        W 8091  40.015  20.212  13.954
44368W        W 8092  25.687  36.390   4.765
44369W        W 8093   1.886  19.099   3.192
44370W        W 8094   9.224  17.279  13.029
44371W        W 8095  14.171  30.507  10.940
44372W        W 8096  25.088  26.639   3.308
44373W        W 8097  16.642   4.927   5.625
44374W        W 8098   0.308  15.149  12.055
44375W        W 8099  19.088  38.360   1.248
44376W        W 8100  42.900  15.206  10.954
44377W        W 8101  43.317  19.252  11.429
44378W        W 8102  25.559  15.672   5.311
44379W        W 8103   5.287   6.323   0.786
44380W        W 8104   6.351  39.509  11.414
44381W        W 8105  37.359  43.911  14.337
44382W        W 8106  43.016  20.046  11.541
44383W        W 8107  20.192  30.610   1.390
44384W        W 8108  27.158  10.655  12.448
44385W        W 8109  15.781  18.727   1.354
44386W        W 8110  10.202  24.203  11.563
44387W        W 8111  25.066  13.303   1.383
44388W        W 8112  41.008  27.130  13.383
44389W        W 8113  34.885  36.074  13.479
44390W        W 8114   7.791  41.028  14.945
44391W        W 8115  11.721  26.577  14.974
44392W        W 8116  16.099  35.863  10.932
44393W        W 8117  18.223  30.652   3.212
44394W        W 8118  14.119  44.989   3.660
44395W        W 8119  11.285  35.917   3.145
44396W        W 8120  33.002  17.582  13.830
44397W        W 8121  42.384  36.001   0.249
44398W        W 8122   3.333   9.223  11.990
44399W        W 8123  10.811  24.550  10.451
44400W        W 8124  14.302   8.210  13.860
44401W        W 8125  11.268   9.877   3.808
44402W        W 8126  15.106   0.908   4.688
44403W        W 8127  42.375   2.300  14.021
44404W        W 8128  44.333   0.427   0.261
44405W        W 8129  12.124  28.087  11.413
44406W        W 8130   7.367  17.578  10.475
44407W        W 8131  36.568  17.112   2.866
44408W        W 8132  24.616  44.427   1.790
44409W        W 8133  32.012  25.183  14.784
44410W        W 8134  18.786   3.954   3.234
44411W        W 8135  38.010  36.974   0.888
44412W        W 8136  30.641  30.624  10.925
44413W        W 8137  23.023  18.152   0.453
44414W        W 8138  33.896  24.223  12.858
44415W        W 8139   9.336  27.180  12.553
44416W        W 8140  10.384  28.134   5.216
44417W        W 8141   2.911   7.779   2.207
44418W        W 8142  27.102  42.936   3.710
44419W        W 8143  11.206  39.374  12.034
44420W        W 8144   1.458  40.343   3.777
44421W        W 8145  18.791  19.101   1.219
44422W        W 8146   7.845   8.242  12.017
44423W        W 8147  15.278  20.657   2.709
44424W        W 8148  29.535  41.865  10.576
44425W        W 8149  26.594  24.097   0.427
44426W        W 8150  33.024  30.974  12.013
44427W        W 8151  14.190   5.263   1.742
44428W        W 8152   8.789  41.487   3.837
44429W        W 8153  31.044  43.976  10.416
44430W        W 8154  29.547  42.954  10.977
44431W        W 8155   9.793  43.013   2.848
44432W        W 8156  33.957  19.042   3.703
44433W        W 8157   5.278  11.740  12.860
44434W        W 8158  12.732  13.746   2.344
44435W        W 8159  21.144  27.132   3.212
44436W        W 8160  31.989  41.978  13.384
44437W        W 8161  22.537  13.197  11.098
44438W        W 8162  16.598  25.517  13.496
44439W        W 8163   1.462  22.582   3.258
44440W        W 8164  16.263  10.862   4.673
44441W        W 8165  30.615  37.005  14.841
44442W        W 8166  20.080  37.362  10.540
44443W        W 8167  30.928  19.258   4.670
44444W        W 8168  42.414   4.437   3.853
44445W        W 8169   5.383   2.960   4.754
44446W        W 8170   6.792  43.505  11.966
44447W        W 8171  17.067  36.089   2.847
44448W        W 8172  24.568  14.127   4.208
44449W        W 8173  39.942  12.251   2.413
44450W        W 8174  22.536  37.420  11.411
44451W        W 8175   7.280   5.925   4.147
44452W        W 8176  33.950   9.319   2.240
44453W        W 8177  40.915   9.818  13.860
44454W        W 8178   7.172   7.286   3.268
44455W        W 8179  39.365  27.998   0.310
44456W        W 8180  39.058  15.312   0.469
44457W        W 8181  31.008  10.694  11.406
44458W        W 8182  35.400  35.045   0.809
44459W        W 8183  37.988  21.687   3.789
44460W        W 8184  30.530  14.203   5.083
44461W        W 8185  24.630   0.946  14.422
44462W        W 8186  44.826  10.163   3.654
44463W        W 8187  30.642  17.676   2.269
44464W        W 8188  20.696  12.270   2.194
44465W        W 8189   7.905  15.735   4.714
44466W        W 8190  40.902  31.014  14.455
44467W        W 8191   3.393  37.999   1.343
44468W        W 8192   0.455   0.783   2.670
44469W        W 8193  22.563  42.339  14.512
44470W        W 8194  17.712  42.506  10.424
44471W        W 8195   4.922  20.145   1.751
44472W        W 8196  27.060  44.369   1.749
44473W        W 8197   7.306   6.382   2.296
44474W        W 8198   2.942  31.137  14.412
44475W        W 8199  43.013  35.037   5.313
44476W        W 8200  19.616  13.645   2.196
44477W        W 8201  43.418  34.933   3.366
44478W        W 8202   7.414  31.538   4.224
44479W        W 8203  43.899   6.427  10.888
44480W        W 8204  40.496  33.116  14.997
44481W        W 8205   0.919  38.515   1.382
44482W        W 8206  14.131   8.733   3.803
44483W        W 8207   6.222  25.962   0.402
44484W        W 8208  43.397  22.225   2.281
44485W        W 8209  33.578  29.011  13.506
44486W        W 8210  38.933  37.450   1.223
44487W        W 8211  24.689  26.041  13.511
44488W        W 8212  14.215   6.320  10.978
44489W        W 8213   1.444  23.605  12.950
44490W        W 8214  33.065  36.469   0.879
44491W        W 8215   8.344  31.942  12.928
44492W        W 8216  40.042  18.775   4.758
44493W        W 8217  20.189  27.457   2.197
44494W        W 8218  41.816  43.002   2.398
44495W        W 8219  13.763  40.452  11.112
44496W        W 8220  40.472  12.619  12.405
44497W        W 8221   0.849  30.457  11.500
44498W        W 8222  15.092  29.110  11.947
44499W        W 8223  19.062  42.419  14.815
44500W        W 8224  16.214   1.813  13.923
44501W        W 8225  40.340  15.749  14.402
44502W        W 8226  42.826  19.708   4.698
44503W        W 8227  40.917  34.997  13.977
44504W        W 8228  12.260  28.995  13.022
44505W        W 8229  12.134   7.183  10.456
44506W        W 8230  29.923  34.507  10.887
44507W        W 8231  37.933  14.109  14.499
44508W        W 8232  43.472  23.064   4.189
44509W        W 8233   1.350   0.321   3.789
44510W        W 8234  32.067  17.786  11.576
44511W        W 8235  44.857   6.802   0.885
44512W        W 8236   7.695  36.982   2.751
44513W        W 8237   3.294  42.311  14.961
44514W        W 8238   2.911   4.348   4.228
44515W        W 8239  10.719  44.303  12.540
44516W        W 8240   3.419  15.748  11.548
44517W        W 8241  32.025  37.851  11.384
44518W        W 8242  14.682   6.919   9.654
44519W        W 8243  41.044  39.900  14.772
44520W        W 8244  16.304  15.582   0.804
44521W        W 8245   4.715  41.857   1.700
44522W        W 8246  19.195  18.716  12.578
44523W        W 8247   1.789  32.029  10.488
44524W        W 8248  43.467  35.553  11.078
44525W        W 8249  24.078  34.416   5.141
44526W        W 8250  20.553   3.734   3.854
44527W        W 8251   8.290  36.857   0.318
44528W        W 8252  33.457  41.514   1.878
44529W        W 8253  35.381  25.588   2.245
44530W        W 8254   9.329  36.544   1.284
44531W        W 8255  12.315  38.402   4.758
44532W        W 8256  23.619  16.285   1.304
44533W        W 8257   2.286  31.481   0.835
44534W        W 8258  37.402  40.460  13.460
44535W        W 8259   6.884   5.272  12.433
44536W        W 8260   7.873  39.448   2.254
44537W        W 8261   1.419  21.044  14.937
44538W        W 8262  43.282  24.710  13.807
44539W        W 8263  27.076  35.460  12.527
44540W        W 8264  12.225  31.919  12.497
44541W        W 8265  10.835  43.511  11.886
44542W        W 8266   7.768  23.567   2.686
44543W        W 8267  19.745  40.433  14.405
44544W        W 8268  11.209  32.505   4.634
44545W        W 8269  31.111  16.641  11.089
44546W        W 8270  22.552  16.185   0.437
44547W        W 8271  38.350   1.315   2.329
44548W        W 8272  12.616  33.040   0.389
44549W        W 8273  27.056  33.976  10.645
44550W        W 8274   5.842  37.083   4.187
44551W        W 8275  23.643  33.602   2.266
44552W        W 8276  36.078   9.353  12.008
44553W        W 8277   3.939   3.762  13.854
44554W        W 8278  32.912  19.190  12.999
44555W        W 8279  35.384  38.418   2.351
44556W        W 8280  38.325  38.032  13.427
44557W        W 8281   7.285  40.425   0.819
44558W        W 8282   7.350  41.327   3.818
44559W        W 8283  14.167  44.842   0.784
44560W        W 8284  13.302  33.476   1.255
44561W        W 8285  17.771  42.408   1.293
44562W        W 8286  44.778   9.349  14.346
44563W        W 8287  20.634  14.601  14.917
44564W        W 8288  35.003   0.931  13.368
44565W        W 8289  31.422  23.032   4.335
44566W        W 8290  41.946   0.932   4.827
44567W        W 8291   0.805  33.032   2.747
44568W        W 8292  19.086  34.962  12.447
44569W        W 8293  15.729  14.120   4.620
44570W        W 8294   8.899  29.572   4.654
44571W        W 8295  21.187   0.325  13.388
44572W        W 8296  11.207   7.403   2.688
44573W        W 8297  38.398  14.597   3.836
44574W        W 8298  23.559  27.522   1.717
44575W        W 8299   1.928  13.771   0.920
44576W        W 8300  34.495  42.025   2.891
44577W        W 8301  43.368  44.269  13.374
44578W        W 8302   8.180  39.043  13.984
44579W        W 8303  19.725  26.075   2.273
44580W        W 8304  13.677  35.008   1.728
44581W        W 8305  42.351  32.950   0.432
44582W        W 8306  23.140  30.017  13.029
44583W        W 8307  33.923  31.597   2.261
44584W        W 8308  13.803  39.983  12.087
44585W        W 8309  21.042   6.870  11.412
44586W        W 8310  40.856  15.277   2.415
44587W        W 8311  26.496  10.714   4.263
44588W        W 8312  19.625  44.303   4.810
44589W        W 8313  38.439   6.761  14.339
44590W        W 8314  10.304   7.199  11.126
44591W        W 8315  28.971  16.583   4.647
44592W        W 8316  23.098  32.941  13.809
44593W        W 8317  42.432  43.884  12.980
44594W        W 8318  16.257  36.557   2.701
44595W        W 8319  26.571   0.297   3.638
44596W        W 8320   8.246  16.287  14.453
44597W        W 8321  36.861  17.689   3.768
44598W        W 8322  25.646  37.582   1.781
44599W        W 8323  10.340  20.231   3.218
44600W        W 8324   1.332  15.702   4.183
44601W        W 8325  40.969   4.824  10.550
44602W        W 8326  15.773  33.548  13.930
44603W        W 8327  34.525  31.404  10.987
44604W        W 8328  15.211  14.144  13.517
44605W        W 8329   2.904  40.984  10.528
44606W        W 8330   1.935  25.034  13.872
44607W        W 8331  24.136  28.536   2.867
44608W        W 8332  16.587  34.508   4.701
44609W        W 8333  26.583   6.887   0.784
44610W        W 8334  18.642   4.383  11.886
44611W        W 8335   1.289  33.590   0.317
44612W        W 8336  26.461  41.802   2.229
44613W        W 8337   4.835   5.241  12.539
44614W        W 8338  32.117  12.740   1.930
44615W        W 8339  16.585  40.500  12.526
44616W        W 8340  43.844  32.026   1.335
44617W        W 8341   7.896  25.509   3.853
44618W        W 8342   6.704  25.701   2.306
44619W        W 8343  37.409  26.119  14.332
44620W        W 8344  21.116  17.782   2.274
44621W        W 8345  13.748  34.901   0.364
44622W        W 8346   5.213  11.373  12.941
44623W        W 8347   4.317  15.112   2.756
44624W        W 8348  37.582  18.169  13.446
44625W        W 8349  18.063   6.918  14.029
44626W        W 8350  14.274  11.759   2.372
44627W        W 8351  18.647   6.733   2.405
44628W        W 8352  26.108  28.521   0.431
44629W        W 8353   6.415  26.484  13.509
44630W        W 8354  33.411  19.715   0.854
44631W        W 8355  36.404  11.326  11.495
44632W        W 8356   0.332  24.610   3.710
44633W        W 8357  38.950  29.509   4.170
44634W        W 8358   1.481   7.332  14.918
44635W        W 8359  34.906  15.167   0.299
44636W        W 8360   4.906  41.969  10.579
44637W        W 8361   6.369  42.476   2.351
44638W        W 8362  39.960  14.180   2.853
44639W        W 8363  37.944   1.248   4.647
44640W        W 8364  39.825  37.067   4.127
44641W        W 8365   0.357  19.609  14.479
44642W        W 8366  26.641   2.363   2.337
44643W        W 8367  40.495   0.417   3.646
44644W        W 8368  35.445  41.527  13.841
44645W        W 8369  34.453   8.898   2.278
44646W        W 8370  25.579  28.517   2.359
44647W        W 8371  24.133  40.396   1.415
44648W        W 8372  31.540  33.077  10.919
44649W        W 8373  29.489  36.050   0.462
44650W        W 8374  12.278  30.075  10.642
44651W        W 8375   3.408  12.791   1.314
44652W        W 8376  27.151   3.846   0.733
44653W        W 8377   3.419  20.678  14.909
44654W        W 8378   7.829   9.855  11.451
44655W        W 8379  34.043   1.875  14.990
44656W        W 8380  30.420  18.572   0.345
44657W        W 8381  19.620  30.030  10.491
44658W        W 8382  19.705  29.048   2.331
44659W        W 8383  23.127  44.263   0.818
44660W        W 8384   7.897  33.008   4.187
44661W        W 8385  10.636  29.019  14.392
44662W        W 8386  31.987  32.948  10.154
44663W        W 8387  41.347  13.732   0.958
44664W        W 8388  23.128  40.836   4.275
44665W        W 8389  36.031   9.367  12.557
44666W        W 8390  28.152  30.158  10.470
44667W        W 8391  13.192  12.728  11.863
44668W        W 8392  41.355  16.601   3.336
44669W        W 8393  26.611   5.312  10.495
44670W        W 8394   4.762  38.072   2.207
44671W        W 8395  44.803  44.945  11.398
44672W        W 8396  11.806  42.834   3.697
44673W        W 8397  29.028  32.591   3.844
44674W        W 8398  34.588  19.058   2.313
44675W        W 8399  11.268  40.401   4.295
44676W        W 8400   1.734  32.530   4.190
44677W        W 8401  39.968  28.032   1.446
44678W        W 8402   6.376  14.295  11.941
44679W        W 8403  17.203  31.068  13.345
44680W        W 8404   9.176  23.517   0.881
44681W        W 8405   6.424  26.209   0.903
44682W        W 8406  38.552  31.602   1.807
44683W        W 8407  42.016  26.978   3.759
44684W        W 8408  22.149  28.081  11.416
44685W        W 8409   1.946  20.152  14.768
44686W        W 8410  20.044  35.560   3.200
44687W        W 8411  25.651   8.219   1.435
44688W        W 8412  16.254  30.014  14.291
44689W        W 8413  17.266  16.566  11.858
44690W        W 8414  42.957  36.454   2.791
44691W        W 8415  21.545  23.101  10.411
44692W        W 8416  41.875  16.673  13.043
44693W        W 8417  26.542   1.926  14.315
44694W        W 8418  40.312  17.207  11.486
44695W        W 8419  36.578  33.396  13.481
44696W        W 8420  27.098  43.774   1.748
44697W        W 8421  24.074  23.522  13.421
44698W        W 8422  12.786  17.180   1.219
44699W        W 8423  13.174  42.522   4.644
44700W        W 8424   4.911  30.476   4.159
44701W        W 8425  44.932  12.285   0.904
44702W        W 8426  38.063  43.898   3.838
44703W        W 8427  25.683  17.710   2.709
44704W        W 8428  43.429  25.640  12.495
44705W        W 8429  36.923  18.643  14.412
44706W        W 8430  36.856  41.028   3.635
44707W        W 8431  20.107  21.653   0.431
44708W        W 8432  43.491  41.932   2.227
44709W        W 8433  14.711   5.872   2.225
44710W        W 8434  36.881   7.771   1.318
44711W        W 8435  40.046  20.199  11.608
44712W        W 8436  11.208  38.385   2.780
44713W        W 8437  40.457  27.615  12.506
44714W        W 8438  41.954  16.205  13.008
44715W        W 8439   9.875  31.513   1.347
44716W        W 8440  34.050  12.759  12.999
44717W        W 8441   9.361  17.276  11.595
44718W        W 8442  14.736  26.636  11.558
44719W        W 8443  41.520  42.017   0.416
44720W        W 8444   0.845   6.213   1.718
44721W        W 8445  29.638  41.455   0.293
44722W        W 8446   1.812  29.055   4.828
44723W        W 8447  14.679   1.387   0.936
44724W        W 8448   8.294  11.205   1.331
44725W        W 8449  25.021  14.104  13.385
44726W        W 8450  44.470  29.997   2.824
44727W        W 8451  20.540  22.106   4.759
44728W        W 8452  30.918  42.313  13.012
44729W        W 8453  10.698  25.650   3.712
44730W        W 8454  29.626   9.688  13.413
44731W        W 8455   4.873  18.276  13.929
44732W        W 8456  13.727   8.171  13.818
44733W        W 8457  22.155  31.554  13.027
44734W        W 8458  41.900  40.935   0.884
44735W        W 8459  36.371  43.454  14.995
44736W        W 8460  33.470  38.008  14.025
44737W        W 8461  19.543  22.520  12.000
44738W        W 8462  11.723  43.367   0.429
44739W        W 8463  11.838  32.079   1.261
44740W        W 8464   7.181  15.752  13.384
44741W        W 8465   7.767  44.892   1.306
44742W        W 8466   3.252  19.723  14.368
44743W        W 8467  44.360  10.366  12.958
44744W        W 8468   5.821   7.797  11.490
44745W        W 8469  23.172   5.228  12.095
44746W        W 8470  34.925   0.480  14.425
44747W        W 8471  36.542  42.342  10.452
44748W        W 8472  10.764  26.617  13.380
44749W        W 8473  44.788  14.277   3.748
44750W        W 8474  13.105  44.287   3.219
44751W        W 8475  43.918   6.383   4.169
44752W        W 8476   0.828  12.181   0.446
44753W        W 8477  24.191  23.551  14.911
44754W        W 8478  43.904   6.846   1.300
44755W        W 8479  35.458  29.922   1.246
44756W        W 8480  19.745   1.429   3.715
44757W        W 8481   5.771  24.174  14.361
44758W        W 8482  10.663  17.145  13.363
44759W        W 8483   5.260  26.625  11.428
44760W        W 8484  22.039  30.062  14.021
44761W        W 8485  27.641  13.205  12.900
44762W        W 8486  18.226  40.430   0.858
44763W        W 8487  40.375  13.233   1.388
44764W        W 8488   1.881  14.277   4.354
44765W        W 8489  42.372   0.844  14.792
44766W        W 8490  20.724   8.841   0.257
44767W        W 8491  10.352  34.939   3.659
44768W        W 8492  23.077  28.559  10.976
44769W        W 8493  29.532  33.589  11.584
44770W        W 8494  15.179  31.496  13.422
44771W        W 8495  17.730  25.993   2.334
44772W        W 8496   3.280  32.889  12.350
44773W        W 8497  40.846  11.698  13.413
44774W        W 8498  14.304  23.546   1.844
44775W        W 8499  39.814  14.719  13.920
44776W        W 8500  15.286  43.984   4.797
44777W        W 8501  34.994  13.211   0.915
44778W        W 8502  20.194   1.330  11.990
44779W        W 8503  19.218  13.256  13.053
44780W        W 8504   3.718   6.314  10.059
44781W        W 8505  27.025  16.638   4.220
44782W        W 8506  38.832   9.391  11.950
44783W        W 8507  24.160   6.265   4.247
44784W        W 8508  37.923  31.573  14.355
44785W        W 8509  31.538  23.674   1.912
44786W        W 8510  31.584  40.473  11.984
44787W        W 8511  33.461  25.526   1.717
44788W        W 8512   9.271  21.208   2.677
44789W        W 8513  11.151   8.674   1.430
44790W        W 8514   8.714  12.655  14.987
44791W        W 8515  16.209  36.593   4.232
44792W        W 8516  19.168  10.713   1.792
44793W        W 8517  15.105  22.079  13.962
44794W        W 8518  11.341   8.842   0.870
44795W        W 8519   8.760  31.640  10.515
44796W        W 8520  18.191  40.412  11.874
44797W        W 8521  37.965   3.735  11.514
44798W        W 8522  35.865  43.828  14.374
44799W        W 8523  37.431  37.573   1.370
44800W        W 8524  29.991  28.067   4.215
44801W        W 8525  14.314  29.080   0.419
44802W        W 8526  23.718  17.253   4.227
44803W        W 8527  28.101  11.641  11.119
44804W        W 8528  29.171  25.506  12.471
44805W        W 8529  37.026  29.109   1.240
44806W        W 8530  12.291  36.902   3.236
44807W        W 8531  11.158  44.931   0.893
44808W        W 8532  22.711  26.966   3.281
44809W        W 8533   6.413   4.319   4.602
44810W        W 8534  40.008  35.011  11.122
44811W        W 8535  40.516   3.300   0.334
44812W        W 8536  15.676  41.381   9.954
44813W        W 8537  25.519  11.699   0.860
44814W        W 8538   3.932  29.640   1.288
44815W        W 8539  43.896  27.034   2.392
44816W        W 8540  20.672   8.662   0.735
44817W        W 8541  24.507  21.546   1.451
44818W        W 8542   4.290  41.349   2.306
44819W        W 8543  10.363  40.534  14.361
44820W        W 8544  21.154  34.889   0.754
44821W        W 8545  23.538  20.731   3.740
44822W        W 8546  39.059  22.220  12.456
44823W        W 8547  42.429   3.807   4.708
44824W        W 8548  35.572  12.751  14.489
44825W        W 8549  43.008   8.719  11.574
44826W        W 8550  29.980   4.707  14.917
44827W        W 8551  29.612  44.286  10.619
44828W        W 8552  15.269  12.133  13.534
44829W        W 8553  25.697  43.418  10.531
44830W        W 8554  16.093  43.924   2.413
44831W        W 8555  43.774  12.644   2.675
44832W        W 8556  24.163   6.258  14.468
44833W        W 8557  17.735  42.464   2.805
44834W        W 8558  13.751  18.096   3.313
44835W        W 8559  32.097  29.162  10.479
44836W        W 8560  27.559   8.701  11.411
44837W        W 8561   5.421  40.828   0.872
44838W        W 8562  27.576  40.341  14.811
44839W        W 8563   7.732  17.141   2.300
44840W        W 8564  42.966   4.211  13.457
44841W        W 8565  23.064  43.977   0.820
44842W        W 8566  26.496  34.386   4.214
44843W        W 8567  15.652  12.354   3.351
44844W        W 8568   4.875   8.211   2.207
44845W        W 8569   1.413  33.088   1.262
44846W        W 8570  20.584  14.734  13.887
44847W        W 8571  43.318  35.380  13.036
44848W        W 8572  28.628  24.230  14.478
44849W        W 8573  36.404   7.360  14.994
44850W        W 8574  38.387  14.203   0.262
44851W        W 8575  33.097  14.194  13.805
44852W        W 8576  14.632   2.264   0.451
44853W        W 8577  10.862  36.507  11.095
44854W        W 8578  19.148  34.417   2.396
44855W        W 8579  25.642  41.877  12.943
44856W        W 8580  11.216  22.541   3.385
44857W        W 8581  38.532   0.332  10.459
44858W        W 8582  11.798  31.128  13.368
44859W        W 8583  25.673  44.819  11.981
44860W        W 8584  16.129  18.584  14.869
44861W        W 8585  19.175  17.233  12.383
44862W        W 8586   8.280   2.962   1.762
44863W        W 8587  27.979  24.490  11.126
44864W        W 8588  34.541  37.010   3.840
44865W        W 8589   6.424  16.772  12.533
44866W        W 8590  18.135   5.690   0.870
44867W        W 8591  36.943   2.748  14.986
44868W        W 8592  44.885  33.380  14.479
44869W        W 8593  17.665  29.633   4.609
44870W        W 8594   4.418  34.533   1.872
44871W        W 8595  18.069  19.767   2.846
44872W        W 8596   4.398  44.370   2.309
44873W        W 8597  17.205  35.506  13.505
44874W        W 8598  34.419   1.272   0.435
44875W        W 8599   9.179  21.087   2.313
44876W        W 8600  16.790  36.434  10.445
44877W        W 8601  21.097   9.690   2.199
44878W        W 8602  36.497  24.645  13.403
44879W        W 8603  24.712  18.252   2.739
44880W        W 8604  20.034  20.675   2.682
44881W        W 8605  19.633  25.627   2.187
44882W        W 8606  10.811   7.762   0.865
44883W        W 8607  35.444  20.253  13.011
44884W        W 8608  44.289  24.985   0.324
44885W        W 8609  22.500   0.989   4.159
44886W        W 8610  27.963   2.909  12.037
44887W        W 8611  14.317  38.882  14.850
44888W        W 8612  34.389  26.627   4.329
44889W        W 8613   5.802  13.722   1.846
44890W        W 8614  33.488  24.993  11.454
44891W        W 8615  31.150  20.768   4.165
44892W        W 8616  22.217  41.906  14.496
44893W        W 8617   3.899  12.271  10.471
44894W        W 8618  32.119  21.216   0.250
44895W        W 8619   5.887  39.477   2.764
44896W        W 8620  10.184  24.481   0.889
44897W        W 8621  17.632  37.031   3.738
44898W        W 8622  22.141  31.922  13.483
44899W        W 8623  42.514  12.693   0.313
44900W        W 8624  12.361   6.862  14.401
44901W        W 8625  42.825  28.930  11.924
44902W        W 8626  16.678  26.674  13.484
44903W        W 8627  40.823  25.054   9.541
44904W        W 8628  34.427  36.448  14.850
44905W        W 8629   8.358   1.848  14.389
44906W        W 8630  15.686  12.193   5.171
44907W        W 8631   2.304  41.022  11.118
44908W        W 8632  14.240  31.519  13.353
44909W        W 8633  30.416   6.804   2.872
44910W        W 8634   6.847  35.410  11.572
44911W        W 8635  43.942   9.833  14.338
44912W        W 8636   0.966  15.307   2.695
44913W        W 8637   0.949  34.572  12.075
44914W        W 8638  41.892   1.884  11.511
44915W        W 8639  28.002  22.115  13.385
44916W        W 8640  19.146  19.686  10.462
44917W        W 8641  11.274  25.985   4.182
44918W        W 8642  17.223   4.783  11.965
44919W        W 8643   8.723   2.253   4.800
44920W        W 8644  44.259  25.513  13.011
44921W        W 8645  28.085  11.692  13.459
44922W        W 8646  27.985  44.324  13.349
44923W        W 8647   6.401  40.987  10.590
44924W        W 8648  26.560  25.534   4.716
44925W        W 8649   5.790  37.018  10.449
44926W        W 8650   2.401  23.161  14.776
44927W        W 8651   7.733  26.180  14.968
44928W        W 8652  26.182  29.616   2.242
44929W        W 8653  37.040   0.373  12.016
44930W        W 8654  11.779  17.176  12.845
44931W        W 8655  17.635  31.134  11.374
44932W        W 8656  41.862  29.524   4.174
44933W        W 8657  28.584   9.245  13.400
44934W        W 8658  25.062   3.775   4.638
44935W        W 8659  25.991   0.377   0.455
44936W        W 8660  11.235  25.144   2.380
44937W        W 8661  17.195  42.500  14.823
44938W        W 8662  18.596  10.144   3.251
44939W        W 8663  21.560  16.076  13.455
44940W        W 8664   1.377  25.535  11.895
44941W        W 8665  36.527  35.986   3.372
44942W        W 8666   1.921  29.091  11.469
44943W        W 8667  24.539  14.767   1.782
44944W        W 8668  33.475  33.471   2.894
44945W        W 8669   0.474  39.328  13.955
44946W        W 8670   0.920  10.729   2.351
44947W        W 8671   7.339  24.686   0.916
44948W        W 8672  21.027  24.177   1.851
44949W        W 8673  26.048  43.289  10.506
44950W        W 8674  37.466  40.815   2.369
44951W        W 8675  37.075   3.329   4.157
44952W        W 8676  24.623  19.652   3.813
44953W        W 8677  26.078  25.105   4.282
44954W        W 8678  21.096  12.288  11.111
44955W        W 8679  33.526  11.158  13.971
44956W        W 8680   5.363  39.947  14.428
44957W        W 8681  18.693  21.563   1.260
44958W        W 8682  17.261  39.393   0.963
44959W        W 8683  32.010  37.347  12.096
44960W        W 8684  35.577  20.075   0.395
44961W        W 8685   5.844  12.341   3.751
44962W        W 8686  42.800  28.570  10.888
44963W        W 8687  26.964  27.166   3.709
44964W        W 8688   3.716  35.467   4.191
44965W        W 8689  20.101   1.970  13.522
44966W        W 8690   9.653  15.587  10.922
44967W        W 8691  33.906  44.493  14.916
44968W        W 8692   2.432  40.417   3.788
44969W        W 8693  38.495   5.409   0.856
44970W        W 8694  42.420  10.733   0.784
44971W        W 8695  23.617  16.673  11.930
44972W        W 8696  43.978  36.441   2.220
44973W        W 8697  20.189  27.154  13.413
44974W        W 8698   8.188  42.931   4.309
44975W        W 8699  33.473   2.260   1.892
44976W        W 8700  17.187   5.759   0.784
44977W        W 8701  29.986   0.415   3.247
44978W        W 8702  19.714  44.441   0.786
44979W        W 8703  21.528  24.513   3.276
44980W        W 8704  37.953  23.704  14.863
44981W        W 8705   1.315  42.951  11.868
44982W        W 8706  21.665  26.094   1.698
44983W        W 8707  24.000  11.213  10.593
44984W        W 8708  43.882  17.067  11.441
44985W        W 8709  32.097  19.108  11.898
44986W        W 8710  26.167  11.314   4.603
44987W        W 8711  23.211  25.052   4.651
44988W        W 8712  27.515  22.741   0.871
44989W        W 8713  33.497  35.494   2.683
44990W        W 8714  28.458  27.194   4.220
44991W        W 8715  38.417  26.544   2.716
44992W        W 8716  28.483  39.013  12.372
44993W        W 8717  20.734  34.415   0.283
44994W        W 8718  30.958  11.364   0.275
44995W        W 8719  39.367   7.311  11.555
44996W        W 8720   7.898   6.719   1.266
44997W        W 8721  33.055  30.156  10.476
44998W        W 8722  33.478   2.747   1.806
44999W        W 8723  29.121  35.927   2.705
45000W        W 8724  36.544  14.262   0.785
45001W        W 8725  35.563  30.598   3.220
45002W        W 8726  43.336  30.459  10.984
45003W        W 8727  18.769  20.127   0.889
45004W        W 8728  36.875  37.078   4.747
45005W        W 8729  41.827  23.605   2.681
45006W        W 8730  39.315  16.286  13.386
45007W        W 8731  20.163   0.853   0.399
45008W        W 8732  31.111  28.167  11.104
45009W        W 8733   8.764  39.374   0.435
45010W        W 8734  44.272  30.474  11.488
45011W        W 8735  15.265  20.743   4.211
45012W        W 8736  44.760  31.507   1.448
45013W        W 8737  26.997  35.906  14.471
45014W        W 8738   7.815  24.120   2.871
45015W        W 8739  24.071  24.686   3.335
45016W        W 8740  30.573  26.592   2.729
45017W        W 8741  23.014  25.022  12.089
45018W        W 8742  15.278  35.966   3.722
45019W        W 8743  26.000  19.586   3.630
45020W        W 8744  43.777  11.736   0.310
45021W        W 8745  17.299  15.785  11.505
45022W        W 8746  41.404   7.856  11.949
45023W        W 8747  17.780  31.576  12.835
45024W        W 8748  12.669  24.178   2.242
45025W        W 8749  30.641  43.499  12.982
45026W        W 8750   7.406  33.498  11.455
45027W        W 8751  23.569  17.765   3.150
45028W        W 8752  24.564  31.492   0.961
45029W        W 8753  39.963  25.086   2.249
45030W        W 8754  40.935   8.269   3.757
45031W        W 8755   7.382  32.531   0.900
45032W        W 8756  42.953  18.668  13.854
45033W        W 8757  30.956  13.759  14.938
45034W        W 8758  34.939   7.768  10.518
45035W        W 8759   2.936  28.538   0.299
45036W        W 8760   2.946  28.671   1.317
45037W        W 8761   6.696  31.103   2.794
45038W        W 8762  24.500  27.046  10.111
45039W        W 8763   4.345  40.478  13.470
45040W        W 8764  34.900  21.682   0.741
45041W        W 8765  37.549   7.861   3.271
45042W        W 8766  44.867  40.321  12.963
45043W        W 8767  41.328  11.318   3.730
45044W        W 8768  14.736   8.271   2.288
45045W        W 8769   3.407  13.611   4.175
45046W        W 8770  38.872   8.234   1.439
45047W        W 8771   8.305  25.033   3.349
45048W        W 8772  12.341  14.144   3.840
45049W        W 8773  39.364  35.881   4.147
45050W        W 8774   7.244  10.730   1.785
45051W        W 8775  44.500   7.207   5.274
45052W        W 8776  13.240  18.741  12.843
45053W        W 8777   2.731  37.873  13.521
45054W        W 8778  43.016  25.532  13.370
45055W        W 8779  22.658  31.617  14.911
45056W        W 8780  33.914   7.811  14.932
45057W        W 8781  27.692  31.108  11.545
45058W        W 8782  40.343  31.008   2.824
45059W        W 8783  24.044   7.341  12.011
45060W        W 8784  10.192   4.821   4.791
45061W        W 8785  26.546  28.677   5.230
45062W        W 8786  15.758  15.164   2.811
45063W        W 8787  16.639  14.811   1.409
45064W        W 8788  39.373  17.718   4.646
45065W        W 8789  41.950  37.528  14.025
45066W        W 8790  26.581  39.331   3.734
45067W        W 8791  32.907   6.732  11.124
45068W        W 8792   5.899  33.111   1.318
45069W        W 8793  27.565  36.347  10.897
45070W        W 8794  41.855  21.724   1.361
45071W        W 8795  38.053   4.380  14.355
45072W        W 8796  11.823  36.090   3.685
45073W        W 8797  43.017  16.641   3.812
45074W        W 8798  25.471   2.326  13.357
45075W        W 8799  34.405  25.042  11.918
45076W        W 8800  34.552  31.047   2.393
45077W        W 8801  14.141  30.087   4.171
45078W        W 8802  33.579  31.140  12.993
45079W        W 8803  28.673   3.844  12.518
45080W        W 8804   0.359  36.561  10.484
45081W        W 8805  36.031  25.648  14.941
45082W        W 8806  19.590   2.757   0.313
45083W        W 8807  11.361  30.029   0.754
45084W        W 8808  32.474   7.817  10.481
45085W        W 8809  44.296  36.476   3.691
45086W        W 8810   8.676   0.773   5.302
45087W        W 8811  35.574  12.228   5.278
45088W        W 8812   6.780  35.911  14.384
45089W        W 8813  35.957  20.105  12.342
45090W        W 8814  40.016  39.826  14.440
45091W        W 8815  37.978  14.119   2.832
45092W        W 8816  24.480  41.894  11.887
45093W        W 8817   4.885  32.032   4.635
45094W        W 8818  31.454  41.881   3.683
45095W        W 8819  28.109  22.068  14.786
45096W        W 8820  35.913  36.531  10.438
45097W        W 8821  19.549  34.457   3.747
45098W        W 8822  33.395  22.100   3.825
45099W        W 8823  35.026  41.476  12.466
45100W        W 8824  38.487  19.082   4.758
45101W        W 8825  36.385   1.275  13.980
45102W        W 8826  27.493  33.993   3.691
45103W        W 8827  30.160   9.217  11.900
45104W        W 8828  22.550  27.494   5.269
45105W        W 8829  30.124  22.734  11.486
45106W        W 8830  13.126  11.338  13.027
45107W        W 8831  37.983   1.362   3.806
45108W        W 8832  43.383  24.713   4.204
45109W        W 8833  13.840  29.529   3.268
45110W        W 8834  33.083  23.157   1.845
45111W        W 8835   4.699  26.026  11.877
45112W        W 8836  15.798   3.428   1.890
45113W        W 8837  26.955  44.322   3.691
45114W        W 8838   7.741   7.334  13.480
45115W        W 8839  10.180  11.338   1.921
45116W        W 8840   9.261  25.163  12.887
45117W        W 8841   6.747  13.204  12.018
45118W        W 8842  17.137  19.604  10.121
45119W        W 8843  16.126  14.600  14.449
45120W        W 8844   8.274  27.538   0.892
45121W        W 8845  33.601  32.087  14.885
45122W        W 8846  40.412  34.104  10.518
45123W        W 8847  21.514  35.970  13.864
45124W        W 8848  38.452  14.646  13.426
45125W        W 8849  40.858   5.354  14.004
45126W        W 8850  25.672   3.942   4.304
45127W        W 8851  17.117   3.898  12.580
45128W        W 8852  26.200  35.916   1.331
45129W        W 8853  28.670  17.726   0.398
45130W        W 8854  30.136  26.042   3.694
45131W        W 8855   4.744  13.770  11.372
45132W        W 8856  16.130  18.708  11.549
45133W        W 8857  32.559  31.517   4.345
45134W        W 8858  30.658  39.062   0.964
45135W        W 8859  32.624  40.042  13.871
45136W        W 8860  42.363  34.615  10.510
45137W        W 8861  33.392  21.729   1.344
45138W        W 8862  36.890  30.944   2.259
45139W        W 8863  37.447  18.546  10.499
45140W        W 8864   0.898  29.077   4.128
45141W        W 8865  10.695  11.353   4.801
45142W        W 8866  22.042  31.429   4.319
45143W        W 8867  21.236  23.547  11.523
45144W        W 8868   5.220  19.658  13.851
45145W        W 8869   0.263  25.120   2.357
45146W        W 8870  24.103   6.922  12.566
45147W        W 8871  41.357  10.717  10.622
45148W        W 8872  29.642  27.969   3.781
45149W        W 8873  20.272  36.407   2.201
45150W        W 8874  26.181  19.093  14.940
45151W        W 8875  38.406   8.675   0.301
45152W        W 8876   5.802  13.734   3.642
45153W        W 8877  35.954  37.844  12.036
45154W        W 8878  31.117  28.625  13.375
45155W        W 8879  16.159  41.368  10.506
45156W        W 8880  43.854   1.956   0.392
45157W        W 8881  34.509  25.085  14.999
45158W        W 8882  30.970  19.638   2.291
45159W        W 8883  40.369  36.974   5.126
45160W        W 8884  25.112   0.300   1.274
45161W        W 8885  44.292  30.949  10.971
45162W        W 8886  27.018  11.720  12.348
45163W        W 8887  12.793  44.321  14.796
45164W        W 8888  28.638  44.433   0.799
45165W        W 8889   9.194   5.380   1.296
45166W        W 8890  19.569  34.391  11.454
45167W        W 8891   1.833   5.245   4.162
45168W        W 8892  16.082  21.021  13.986
45169W        W 8893  15.694  39.029  14.376
45170W        W 8894  10.791  20.082  14.886
45171W        W 8895  31.125  16.113   4.768
45172W        W 8896  18.699  38.378  10.483
45173W        W 8897   9.267  25.071   3.792
45174W        W 8898  38.932  28.015   2.379
45175W        W 8899  20.601  37.871   1.920
45176W        W 8900  10.680  12.354   0.438
45177W        W 8901  18.732   0.478   3.733
45178W        W 8902   1.251  31.095   2.391
45179W        W 8903   9.277  29.650  11.507
45180W        W 8904   3.402  21.598  12.376
45181W        W 8905   5.324  26.581   1.318
45182W        W 8906  37.371  43.443  14.359
45183W        W 8907  16.269  26.049  13.001
45184W        W 8908  11.752  37.000   1.227
45185W        W 8909  14.203  11.752  13.326
45186W        W 8910  15.772  18.088  12.574
45187W        W 8911  13.167  14.313   1.419
45188W        W 8912  38.437  12.261  11.855
45189W        W 8913  28.598  16.119  14.505
45190W        W 8914   2.738   4.923  10.949
45191W        W 8915  30.592  39.885  11.917
45192W        W 8916  39.004   4.313  14.000
45193W        W 8917  19.040  16.624  12.523
45194W        W 8918   1.379  40.815   0.353
45195W        W 8919  30.524  13.681   4.781
45196W        W 8920  33.436  39.900  10.643
45197W        W 8921   3.943  16.579   4.824
45198W        W 8922  28.522  24.137  10.602
45199W        W 8923   3.445  13.350   1.231
45200W        W 8924   2.423   2.288   0.812
45201W        W 8925   1.809  12.219  12.351
45202W        W 8926  36.865  23.509   4.265
45203W        W 8927  32.607  37.875   0.472
45204W        W 8928  20.247  26.132  11.401
45205W        W 8929  28.459   7.346   4.626
45206W        W 8930  14.609  22.015   2.736
45207W        W 8931  34.049   7.309   0.298
45208W        W 8932  27.100   9.810  14.968
45209W        W 8933   7.202  31.062   1.740
45210W        W 8934  18.785   9.763   2.307
45211W        W 8935   3.832   9.883   3.639
45212W        W 8936  12.793   8.380   3.831
45213W        W 8937  16.786  12.676  11.539
45214W        W 8938  29.455  33.572   4.743
45215W        W 8939  37.871  33.917   2.732
45216W        W 8940  18.096  10.741  13.931
45217W        W 8941  20.612  26.043  12.515
45218W        W 8942  35.383  30.996   4.751
45219W        W 8943  13.669  12.840  10.433
45220W        W 8944  42.986  42.878  14.896
45221W        W 8945   7.813  13.815   3.749
45222W        W 8946  41.367  27.529  11.865
45223W        W 8947  38.448  40.374  14.448
45224W        W 8948   6.386  29.662  14.366
45225W        W 8949  43.973  43.365  11.395
45226W        W 8950  44.933  18.149  12.366
45227W        W 8951  21.628  35.027   2.740
45228W        W 8952  38.008  20.093   0.249
45229W        W 8953   0.841  44.422   5.175
45230W        W 8954   4.349  38.928   0.271
45231W        W 8955   9.350  30.914  10.953
45232W        W 8956   1.974  27.002  12.570
45233W        W 8957  44.942  29.427  13.423
45234W        W 8958  21.160  10.377   1.299
45235W        W 8959   8.850  32.011  14.879
45236W        W 8960  20.683  37.835   4.264
45237W        W 8961  23.716  27.178   3.202
45238W        W 8962  11.730  42.919  12.827
45239W        W 8963  35.359  42.031  14.882
45240W        W 8964   3.243  28.469   0.391
45241W        W 8965  31.007  11.746   0.837
45242W        W 8966  22.029  13.616   5.788
45243W        W 8967  22.513  21.249   4.252
45244W        W 8968  12.611  12.237  11.877
45245W        W 8969  11.698  43.329   3.859
45246W        W 8970  10.362  43.357  10.545
45247W        W 8971  25.480  24.220  14.398
45248W        W 8972  35.592  38.855   3.367
45249W        W 8973   6.189  12.634   1.317
45250W        W 8974   9.786  26.536  14.024
45251W        W 8975  30.122  28.992   0.385
45252W        W 8976  36.852  21.149  11.598
45253W        W 8977  38.866   8.894  14.841
45254W        W 8978  38.567   1.890  13.833
45255W        W 8979  22.223  35.570  10.594
45256W        W 8980  42.946  38.426   2.705
45257W        W 8981  13.113   6.419  14.813
45258W        W 8982  38.421   8.282   4.693
45259W        W 8983   0.743  44.883   2.382
45260W        W 8984  19.265   6.225  12.920
45261W        W 8985  42.857  26.135  11.436
45262W        W 8986  29.562  21.584  11.387
45263W        W 8987  23.105   1.900   0.368
45264W        W 8988  25.968  43.316  14.880
45265W        W 8989  26.566  41.325  14.909
45266W        W 8990  18.653  25.620  13.444
45267W        W 8991  15.758  31.041  13.413
45268W        W 8992  25.613  17.173   5.269
45269W        W 8993  12.252  23.722   1.750
45270W        W 8994  19.692  23.140   0.731
45271W        W 8995  13.299  15.308  12.476
45272W        W 8996  19.109  14.296  12.515
45273W        W 8997  20.067  44.864   3.315
45274W        W 8998  26.194   8.216  12.520
45275W        W 8999  25.124  16.798  10.435
45276W        W 9000  17.095  38.530   0.920
45277W        W 9001   0.315  26.614  13.352
45278W        W 9002   1.477   0.405  10.502
45279W        W 9003  31.934  15.279   3.164
45280W        W 9004  38.886  36.004  12.559
45281W        W 9005  42.400  17.585  11.082
45282W        W 9006  15.753  43.980   3.249
45283W        W 9007  39.923   9.282  13.328
45284W        W 9008  44.349  16.740   1.405
45285W        W 9009  39.860  37.342  12.893
45286W        W 9010   6.799   8.753   5.286
45287W        W 9011  39.922  40.029   9.960
45288W        W 9012   7.398  18.597   4.735
45289W        W 9013  26.112  21.627   2.764
45290W        W 9014  24.702   4.816   4.662
45291W        W 9015   7.719  35.380   1.354
45292W        W 9016  39.443  20.701  11.603
45293W        W 9017  32.571  28.107  13.913
45294W        W 9018  16.113   3.324  11.456
45295W        W 9019  21.574  15.775   3.386
45296W        W 9020  25.521   3.276   3.274
45297W        W 9021  13.267  38.927  10.126
45298W        W 9022  12.850   7.892   3.661
45299W        W 9023   7.741   0.821   1.414
45300W        W 9024   5.236  12.749   2.289
45301W        W 9025  30.151   1.893  12.986
45302W        W 9026  11.832  36.575   3.288
45303W        W 9027  42.004   2.962   3.689
45304W        W 9028   5.383  26.148   2.191
45305W        W 9029  14.822  21.028   0.401
45306W        W 9030   7.899  38.527  13.826
45307W        W 9031  20.169  24.127   1.713
45308W        W 9032  34.930  40.950  10.451
45309W        W 9033  44.272  11.825  12.540
45310W        W 9034  17.298  37.933  12.877
45311W        W 9035  27.942  39.519  12.492
45312W        W 9036  17.227   3.323   2.367
45313W        W 9037  43.459  36.967  10.995
45314W        W 9038  44.491  18.182  14.514
45315W        W 9039  41.514  39.501   0.943
45316W        W 9040  40.343  23.687  14.353
45317W        W 9041  17.294  29.559  13.881
45318W        W 9042   5.720  34.515   4.192
45319W        W 9043  20.715  10.698   0.366
45320W        W 9044  22.530   9.383   0.798
45321W        W 9045   6.725  13.766   3.632
45322W        W 9046  25.056  27.127  11.059
45323W        W 9047  44.319  31.991   1.735
45324W        W 9048  39.549  24.507  13.956
45325W        W 9049  27.166  33.001  11.894
45326W        W 9050  30.159  38.551   4.656
45327W        W 9051  26.959  15.667  10.968
45328W        W 9052  20.537  38.498  10.554
45329W        W 9053  28.473  20.747   3.277
45330W        W 9054  10.265  36.025   3.267
45331W        W 9055   2.252  33.081  12.386
45332W        W 9056   1.936  20.569  14.906
45333W        W 9057  24.120  37.449   1.422
45334W        W 9058  14.233  25.688  12.457
45335W        W 9059  32.083  23.625  14.460
45336W        W 9060  20.095  43.764   2.297
45337W        W 9061  13.821   8.279  10.994
45338W        W 9062  23.110  20.154  12.579
45339W        W 9063  40.368  20.270  14.004
45340W        W 9064  16.104   0.371   4.208
45341W        W 9065   7.319  22.530  14.390
45342W        W 9066  16.224  15.809  11.105
45343W        W 9067  28.080  30.437   0.755
45344W        W 9068   0.374  14.145  14.334
45345W        W 9069  17.298  21.153  14.432
45346W        W 9070  14.269  21.617  13.864
45347W        W 9071  36.404  44.798  13.387
45348W        W 9072  34.937  25.575  12.009
45349W        W 9073  27.455   4.442   1.899
45350W        W 9074  12.186  43.342   3.278
45351W        W 9075   2.402  32.971   0.337
45352W        W 9076  13.650  39.318   4.346
45353W        W 9077  31.061  13.811   2.745
45354W        W 9078  43.367   4.417   3.264
45355W        W 9079  26.594   4.290   3.826
45356W        W 9080  44.301   9.306  13.460
45357W        W 9081  33.429  22.174   0.797
45358W        W 9082  23.234   6.408   4.162
45359W        W 9083  23.078  37.968   3.296
45360W        W 9084  34.544   2.427   1.277
45361W        W 9085  43.423   6.320   0.264
45362W        W 9086   4.320  43.894  10.940
45363W        W 9087   6.265  17.651  14.310
45364W        W 9088  33.024   1.408  11.566
45365W        W 9089   1.317  25.614  13.018
45366W        W 9090  19.254  24.981  10.563
45367W        W 9091   1.431  29.004   1.434
45368W        W 9092  27.976  15.099   0.791
45369W        W 9093  38.488  41.296  12.056
45370W        W 9094   9.758  30.081   1.718
45371W        W 9095  41.963  11.204   4.278
45372W        W 9096   4.285  30.481  11.971
45373W        W 9097  11.641   5.704  13.876
45374W        W 9098  43.963  15.614   4.641
45375W        W 9099  24.004  43.775   4.608
45376W        W 9100   9.779  35.880   3.290
45377W        W 9101  24.202  43.416   1.274
45378W        W 9102  23.620   5.317  12.489
45379W        W 9103  43.404  24.121  11.408
45380W        W 9104  39.955  39.415   2.266
45381W        W 9105  28.658  22.569  13.028
45382W        W 9106  44.396  43.922  14.367
45383W        W 9107  37.833   3.368   2.745
45384W        W 9108  29.976  20.700  13.334
45385W        W 9109  39.324  13.237  11.987
45386W        W 9110  24.164   9.186   4.159
45387W        W 9111   5.730   0.415  12.922
45388W        W 9112  36.035   9.693   1.380
45389W        W 9113  19.550  20.644  13.874
45390W        W 9114  11.702  15.318   4.637
45391W        W 9115  24.651   9.855  13.954
45392W        W 9116  43.323  17.214  12.410
45393W        W 9117  21.536   9.658  11.380
45394W        W 9118  44.274  16.265   3.167
45395W        W 9119  14.738  16.315   1.416
45396W        W 9120  43.435   1.861   0.321
45397W        W 9121   7.863  24.013   4.775
45398W        W 9122  44.478  11.759  11.084
45399W        W 9123  29.547  24.040   0.338
45400W        W 9124  42.393  27.134  12.485
45401W        W 9125  40.517   4.734  10.123
45402W        W 9126  36.418  15.693  10.151
45403W        W 9127  29.510  38.377  14.311
45404W        W 9128  12.236  14.101  11.550
45405W        W 9129  28.962  38.537   3.635
45406W        W 9130  37.958  21.178   4.668
45407W        W 9131  19.607  34.959   4.599
45408W        W 9132  35.879  41.914   2.883
45409W        W 9133  14.730  15.756   0.315
45410W        W 9134   0.853   6.845  12.990
45411W        W 9135  18.245  21.737  14.309
45412W        W 9136  20.189  14.146  11.896
45413W        W 9137   9.734   9.688  12.392
45414W        W 9138  23.124  41.882   2.761
45415W        W 9139  18.640   4.234   1.817
45416W        W 9140   8.779  38.961   1.797
45417W        W 9141   1.422  37.450   4.751
45418W        W 9142  21.577  18.143   1.858
45419W        W 9143  22.220  28.930   0.868
45420W        W 9144  27.469   6.725   1.364
45421W        W 9145   2.741  29.011  10.547
45422W        W 9146  34.429   7.341   0.257
45423W        W 9147  43.414  31.945  12.370
45424W        W 9148  10.261  23.990   0.247
45425W        W 9149  39.457  13.768   2.253
45426W        W 9150  16.698  13.149   1.761
45427W        W 9151  30.571  22.537  12.091
45428W        W 9152  10.350  39.928   2.809
45429W        W 9153  23.616  26.592  14.495
45430W        W 9154  19.073  37.564   4.755
45431W        W 9155  30.440  15.691   1.862
45432W        W 9156  33.012  20.763   0.464
45433W        W 9157  31.954  18.157   0.283
45434W        W 9158  11.282  25.607  13.820
45435W        W 9159  37.521   6.874   3.217
45436W        W 9160  43.879  26.099  11.089
45437W        W 9161  36.923  30.972   4.743
45438W        W 9162  35.480  39.463   1.357
45439W        W 9163  25.617   4.357  10.893
45440W        W 9164   7.725   6.426   2.860
45441W        W 9165   5.718  24.010   2.292
45442W        W 9166  32.123  28.933   4.124
45443W        W 9167   8.682   2.350   1.394
45444W        W 9168  27.520  44.895   1.438
45445W        W 9169  14.175  20.216  14.311
45446W        W 9170  11.655  31.992  13.457
45447W        W 9171  11.721   9.344  12.474
45448W        W 9172   4.770  35.567  13.852
45449W        W 9173  41.971  37.504  10.073
45450W        W 9174  33.962  39.038   1.863
45451W        W 9175  19.761  44.816   0.256
45452W        W 9176  23.609  19.230  13.837
45453W        W 9177  10.154  26.202   4.825
45454W        W 9178  20.099  10.242   4.331
45455W        W 9179   8.265   9.159  10.944
45456W        W 9180  44.931   5.279  12.370
45457W        W 9181  36.580   4.826  11.489
45458W        W 9182  19.756   1.830   2.903
45459W        W 9183  29.590  12.174   0.962
45460W        W 9184  13.826  27.045  14.357
45461W        W 9185  26.582  43.902  10.898
45462W        W 9186   9.649   7.844   3.167
45463W        W 9187   9.262  27.652   4.201
45464W        W 9188   4.933  17.756   4.251
45465W        W 9189   8.166   5.910  10.477
45466W        W 9190   7.262  19.764  13.850
45467W        W 9191   2.376  22.692   0.922
45468W        W 9192   7.750  36.882  12.845
45469W        W 9193   6.740   3.341  12.556
45470W        W 9194  31.961  18.088   1.874
45471W        W 9195   3.726  10.337   4.181
45472W        W 9196   5.709  11.656   1.339
45473W        W 9197   4.388  39.923   0.726
45474W        W 9198  24.216  23.536   5.146
45475W        W 9199   9.351   0.356   1.837
45476W        W 9200   0.441  29.985  13.998
45477W        W 9201  15.642  30.103  13.949
45478W        W 9202  12.652  40.490   1.412
45479W        W 9203   2.919  24.686  11.560
45480W        W 9204  10.872   5.398   3.165
45481W        W 9205   3.789  41.001  13.341
45482W        W 9206  25.012  40.804  13.378
45483W        W 9207  23.044  16.087   2.306
45484W        W 9208  39.330  39.815  13.878
45485W        W 9209  14.673  23.109   1.264
45486W        W 9210   5.347  32.946  11.004
45487W        W 9211   5.395  19.707   0.455
45488W        W 9212  18.675  43.352   2.184
45489W        W 9213  19.635  21.616   1.864
45490W        W 9214  17.204  39.924   1.850
45491W        W 9215  10.699  30.459   4.792
45492W        W 9216  37.892   0.273  12.427
45493W        W 9217   2.459  33.907   3.146
45494W        W 9218  44.312  13.203  13.329
45495W        W 9219  23.691  15.287   3.313
45496W        W 9220   0.365  31.924   1.815
45497W        W 9221   4.377  41.018   4.246
45498W        W 9222  28.186   8.682   4.295
45499W        W 9223  36.068  23.114   1.253
45500W        W 9224  10.640  17.666   3.869
45501W        W 9225  32.569   0.427   2.822
45502W        W 9226   3.333  16.154   2.361
45503W        W 9227  13.759  37.980   4.713
45504W        W 9228   6.744   6.194  13.834
45505W        W 9229   4.259   6.797   3.775
45506W        W 9230   7.196  21.622   3.696
45507W        W 9231   2.819  12.299   3.341
45508W        W 9232   2.409  24.082  13.791
45509W        W 9233  35.066  12.634  12.526
45510W        W 9234  14.650   3.760   4.169
45511W        W 9235  43.364  17.209   1.382
45512W        W 9236  18.641   4.712   3.656
45513W        W 9237  42.502  38.841   1.808
45514W        W 9238   4.730  42.838   4.620
45515W        W 9239  31.057  18.238   4.815
45516W        W 9240  44.503   1.251  12.411
45517W        W 9241  33.977  27.642   4.290
45518W        W 9242   8.665  13.110   3.217
45519W        W 9243  29.059  26.509  12.514
45520W        W 9244  41.015   5.352  12.900
45521W        W 9245  26.147   8.351   3.674
45522W        W 9246  37.852  29.956  14.805
45523W        W 9247  24.165  40.964  11.065
45524W        W 9248  19.086   6.912  13.935
45525W        W 9249  12.771  36.852  14.320
45526W        W 9250  23.166  33.894  10.593
45527W        W 9251   5.750  35.095   4.293
45528W        W 9252  43.424  39.000  13.429
45529W        W 9253   2.848  30.919  11.498
45530W        W 9254  15.762  27.598   0.825
45531W        W 9255  31.559  18.126   4.161
45532W        W 9256   2.442  28.527   0.870
45533W        W 9257  34.936  18.111   1.296
45534W        W 9258  15.768  25.694   2.686
45535W        W 9259  30.937  34.970   1.263
45536W        W 9260  41.794  41.804  14.933
45537W        W 9261  23.729  32.470   3.162
45538W        W 9262  23.658  26.978  12.343
45539W        W 9263  35.950  33.096   2.830
45540W        W 9264  28.019  44.470   4.170
45541W        W 9265   2.833  20.696  10.608
45542W        W 9266  15.815   9.310   1.859
45543W        W 9267  10.185   9.825  14.799
45544W        W 9268   3.836  11.779   3.706
45545W        W 9269  18.706  25.153  14.474
45546W        W 9270   2.839  36.907   0.247
45547W        W 9271   9.253  43.488  12.863
45548W        W 9272  29.138  12.121  13.869
45549W        W 9273  26.675  19.069  14.467
45550W        W 9274  35.938  26.961  13.027
45551W        W 9275  17.152  21.723   1.342
45552W        W 9276  33.059  16.787  12.437
45553W        W 9277  36.086  19.659  14.031
45554W        W 9278   0.817  16.632  14.977
45555W        W 9279  25.099  33.018  10.468
45556W        W 9280  27.017   6.351   3.366
45557W        W 9281  28.968  30.443   0.470
45558W        W 9282  24.627   4.707  13.020
45559W        W 9283  20.681  31.011  14.436
45560W        W 9284  27.601   2.310   2.408
45561W        W 9285  21.581  41.981  12.070
45562W        W 9286  44.448  15.094   4.201
45563W        W 9287  10.216   8.805   0.869
45564W        W 9288  20.167   8.386  10.953
45565W        W 9289   0.378  21.540  12.870
45566W        W 9290  27.638  21.164  12.875
45567W        W 9291  31.595  44.852  13.393
45568W        W 9292   5.300   2.428   2.736
45569W        W 9293  12.232  25.203   2.355
45570W        W 9294  41.003  21.675   3.267
45571W        W 9295  30.497  35.479  13.969
45572W        W 9296   5.729  44.326  14.334
45573W        W 9297   4.745  25.042   2.841
45574W        W 9298  30.960  13.750   1.239
45575W        W 9299   2.327  33.543   0.834
45576W        W 9300  38.074  29.476   3.865
45577W        W 9301  13.150   2.459   1.728
45578W        W 9302   7.180  34.375   2.714
45579W        W 9303  23.669  12.777  12.391
45580W        W 9304  41.429  37.071  14.921
45581W        W 9305  15.296  15.201   0.917
45582W        W 9306  17.261  32.588   3.365
45583W        W 9307  43.429  40.037  12.432
45584W        W 9308   0.411  22.572   3.223
45585W        W 9309   7.402  10.659   5.131
45586W        W 9310  32.916   9.208   1.798
45587W        W 9311  14.753  38.470   2.730
45588W        W 9312  26.049  31.588   5.636
45589W        W 9313   6.817  16.109   1.803
45590W        W 9314  23.716   5.434   3.161
45591W        W 9315  14.710  42.014   1.873
45592W        W 9316  43.999  20.722   0.913
45593W        W 9317  24.019  40.541  10.073
45594W        W 9318  42.884  40.417  14.945
45595W        W 9319  42.968  40.328   4.799
45596W        W 9320  17.253  20.692  13.932
45597W        W 9321  27.635  11.336   3.272
45598W        W 9322  41.503  41.992   1.404
45599W        W 9323   3.369  38.449   3.688
45600W        W 9324  11.713  29.093   3.374
45601W        W 9325  25.498  43.380  10.918
45602W        W 9326  38.851  14.267  10.464
45603W        W 9327  15.095  29.066  14.806
45604W        W 9328  41.907  27.586   3.739
45605W        W 9329  15.735  24.513   0.894
45606W        W 9330  38.901  41.515   1.401
45607W        W 9331   3.386  41.026  14.315
45608W        W 9332  24.147  20.744  13.363
45609W        W 9333  25.102  33.069  14.837
45610W        W 9334  14.294  32.942  13.059
45611W        W 9335  35.473   3.333   1.247
45612W        W 9336  42.481  21.050   2.309
45613W        W 9337   1.812  20.211  12.844
45614W        W 9338  35.046  38.423   2.196
45615W        W 9339  20.592  21.237  14.800
45616W        W 9340  13.672  15.619   2.337
45617W        W 9341  30.975  24.024   4.814
45618W        W 9342  24.003   0.967  13.837
45619W        W 9343  28.132   3.340   1.816
45620W        W 9344  12.642  16.186   3.151
45621W        W 9345  38.501  29.530   0.351
45622W        W 9346  27.450  38.948   0.461
45623W        W 9347  35.488  39.425  14.017
45624W        W 9348   4.239   1.428   4.269
45625W        W 9349  26.664  31.606   3.206
45626W        W 9350  10.207   5.738   0.839
45627W        W 9351  26.627  29.159  11.476
45628W        W 9352   7.269   3.267   3.219
45629W        W 9353  23.089   4.350   0.856
45630W        W 9354  31.632  20.686  13.792
45631W        W 9355  37.516  20.542  11.578
45632W        W 9356  33.911   1.332  12.535
45633W        W 9357  19.713  32.415   2.232
45634W        W 9358  42.812  35.596  14.898
45635W        W 9359  32.079  26.062  14.329
45636W        W 9360  36.972  21.047   1.782
45637W        W 9361   9.860  31.565  10.630
45638W        W 9362  35.921   0.941   4.300
45639W        W 9363  42.029  43.326  14.018
45640W        W 9364  18.152  34.872   2.199
45641W        W 9365   6.843  32.522   3.693
45642W        W 9366  23.098  38.053  13.032
45643W        W 9367  14.124  36.559   4.679
45644W        W 9368  15.165  15.197   3.825
45645W        W 9369   8.890  30.160   2.329
45646W        W 9370  40.035  39.909   5.128
45647W        W 9371  29.423   4.281  14.879
45648W        W 9372  12.224  23.217  14.806
45649W        W 9373  22.083  41.019   1.452
45650W        W 9374   9.364  11.215   1.314
45651W        W 9375   9.155  35.922  14.986
45652W        W 9376  37.879  30.981  11.867
45653W        W 9377  42.413   1.406   3.834
45654W        W 9378  28.084  35.042   4.175
45655W        W 9379   2.960   3.766   4.220
45656W        W 9380  16.217  18.603  12.403
45657W        W 9381  26.498  28.676   4.838
45658W        W 9382  44.753  29.030   0.409
45659W        W 9383   6.352  17.658   3.341
45660W        W 9384  29.134   3.332   0.475
45661W        W 9385  16.636  15.758   0.962
45662W        W 9386  31.143  40.455  10.426
45663W        W 9387  24.641   5.912   3.741
45664W        W 9388  31.924   4.734   0.475
45665W        W 9389  13.788  41.001   2.859
45666W        W 9390  40.892  24.046   0.438
45667W        W 9391  39.811   1.349  13.975
45668W        W 9392  29.469  43.427  12.436
45669W        W 9393   6.393  15.643   4.766
45670W        W 9394  22.676  16.301  13.792
45671W        W 9395  25.031   4.359  10.955
45672W        W 9396  33.001  24.101  14.504
45673W        W 9397  33.534  25.984   4.606
45674W        W 9398  32.112  44.821   1.928
45675W        W 9399  30.530  13.809  13.391
45676W        W 9400  25.058  31.153  11.452
45677W        W 9401  17.555   0.422  11.080
45678W        W 9402  39.384  32.573   2.194
45679W        W 9403   9.863  14.179   2.785
45680W        W 9404  16.702  20.101   0.845
45681W        W 9405  37.905  15.250   1.731
45682W        W 9406  44.485   7.375  10.499
45683W        W 9407  12.132  26.155  14.007
45684W        W 9408  30.924  32.137   2.320
45685W        W 9409  40.503   3.932   1.430
45686W        W 9410  35.938   4.315  10.493
45687W        W 9411  16.130   1.243  13.997
45688W        W 9412  30.648   3.225   2.728
45689W        W 9413  39.473  22.028  14.829
45690W        W 9414   9.704  34.426   4.328
45691W        W 9415  21.535   2.282   2.737
45692W        W 9416  14.780  30.512  12.539
45693W        W 9417   0.907  19.733   4.259
45694W        W 9418  11.222  37.841   4.221
45695W        W 9419  21.563  15.135  11.569
45696W        W 9420   1.476  25.029  14.994
45697W        W 9421  44.298  28.162   3.192
45698W        W 9422  29.134  41.797   2.898
45699W        W 9423  39.400  18.125   4.742
45700W        W 9424  25.549  43.307  13.894
45701W        W 9425  21.555  36.390  14.411
45702W        W 9426  13.657  13.813  12.016
45703W        W 9427  41.441  17.720   3.739
45704W        W 9428   0.373  16.108   3.773
45705W        W 9429  30.011  30.534   3.372
45706W        W 9430  35.363  14.235   3.817
45707W        W 9431  11.794   1.948   4.637
45708W        W 9432  40.800  34.573   3.729
45709W        W 9433  17.286   0.800  11.381
45710W        W 9434  44.845  29.543   3.235
45711W        W 9435  38.490  33.939  11.863
45712W        W 9436  39.965  33.903   3.822
45713W        W 9437  36.472  36.368  14.459
45714W        W 9438  32.892  25.141  10.556
45715W        W 9439  26.558   3.952   1.761
45716W        W 9440   9.728  12.322   1.401
45717W        W 9441   8.662  32.621  14.399
45718W        W 9442  31.980   2.866  12.395
45719W        W 9443  39.903   1.785  13.050
45720W        W 9444  19.221  30.960  10.622
45721W        W 9445  18.708  33.381  12.899
45722W        W 9446   7.260   3.249   2.889
45723W        W 9447   9.311  41.311   2.703
45724W        W 9448  38.056   3.376   4.723
45725W        W 9449   3.229  20.080  13.842
45726W        W 9450  22.519  18.078  12.981
45727W        W 9451  27.159  42.811   0.478
45728W        W 9452   1.881  12.343   2.312
45729W        W 9453  16.077  42.399   3.677
45730W        W 9454  15.722   7.832  13.837
45731W        W 9455  31.093   6.844   3.653
45732W        W 9456  10.862  26.007  10.928
45733W        W 9457  35.104  15.185   3.788
45734W        W 9458  37.943  38.340   1.410
45735W        W 9459  32.010  22.175   3.855
45736W        W 9460  10.221  36.852  14.459
45737W        W 9461  20.732  20.045  11.037
45738W        W 9462  40.456  38.425   1.771
45739W        W 9463  14.800  35.109  13.538
45740W        W 9464  44.432  23.574  12.453
45741W        W 9465  44.888  36.539   1.837
45742W        W 9466  20.255  29.122  12.459
45743W        W 9467  39.889  20.053   1.319
45744W        W 9468  24.054   7.236   1.354
45745W        W 9469  14.126  41.798  14.381
45746W        W 9470  20.661   0.488   0.443
45747W        W 9471   6.345  25.163  10.479
45748W        W 9472   2.276  42.515   3.336
45749W        W 9473  16.679  39.989  12.435
45750W        W 9474   5.698  28.013   2.801
45751W        W 9475  18.280  33.903  14.397
45752W        W 9476  40.849  42.480   0.484
45753W        W 9477  20.101   4.822  13.862
45754W        W 9478   2.452  14.672  14.842
45755W        W 9479   8.784  38.075  14.785
45756W        W 9480   5.732  33.481   2.865
45757W        W 9481  42.326  29.543  10.509
45758W        W 9482   7.381   7.251  13.033
45759W        W 9483  31.489  14.205  14.872
45760W        W 9484  30.484   7.687  11.523
45761W        W 9485  19.229  18.161   4.308
45762W        W 9486  10.160  16.137  12.339
45763W        W 9487  43.340  18.166  12.373
45764W        W 9488   1.332  22.022  12.358
45765W        W 9489  13.135  29.660  13.326
45766W        W 9490   5.226  30.072   4.824
45767W        W 9491  25.986  26.980  13.822
45768W        W 9492  37.481  41.807   1.734
45769W        W 9493   1.939  23.080  11.603
45770W        W 9494  10.772  29.942   0.964
45771W        W 9495   8.379   3.375  10.440
45772W        W 9496  22.190  24.570   0.954
45773W        W 9497  40.459  31.580   3.849
45774W        W 9498  23.526   5.871  13.882
45775W        W 9499  38.936  24.072   2.309
45776W        W 9500  21.049   3.828   2.284
45777W        W 9501  24.112  18.599   1.778
45778W        W 9502  37.349  14.223  11.013
45779W        W 9503  22.071  28.674   4.148
45780W        W 9504  44.874  19.095  10.578
45781W        W 9505  21.174   2.306   1.780
45782W        W 9506  22.056   7.742   0.245
45783W        W 9507  33.476   8.674  14.513
45784W        W 9508  21.651   2.960  14.275
45785W        W 9509  38.546  39.314  13.326
45786W        W 9510  16.736  39.866   4.303
45787W        W 9511  17.263   3.862   0.765
45788W        W 9512  32.405   8.771   2.901
45789W        W 9513  44.496   8.245  11.918
45790W        W 9514  43.406  25.057  14.794
45791W        W 9515  34.941  36.549   3.355
45792W        W 9516  13.289   2.401  12.083
45793W        W 9517  28.933  40.990   3.656
45794W        W 9518  32.501  22.518  14.417
45795W        W 9519  40.519  24.481   2.725
45796W        W 9520  30.426   4.906   3.648
45797W        W 9521  26.203   9.223   2.791
45798W        W 9522  35.451  39.962  10.603
45799W        W 9523  13.696  37.570  11.985
45800W        W 9524  28.458   2.273  14.389
45801W        W 9525  25.496  26.112  12.010
45802W        W 9526  14.644  18.621   0.478
45803W        W 9527  12.355  32.564   4.768
45804W        W 9528   5.422  18.074   4.207
45805W        W 9529  15.297   1.292   3.380
45806W        W 9530  17.172   8.872  11.037
45807W        W 9531  12.158  37.544   4.206
45808W        W 9532   7.806  37.915   3.830
45809W        W 9533  29.646   9.331  12.086
45810W        W 9534  41.380  42.424  14.797
45811W        W 9535   8.786  43.864   3.332
45812W        W 9536  32.528   2.439   2.310
45813W        W 9537  33.111  23.022  14.825
45814W        W 9538   0.929   6.736   0.836
45815W        W 9539  21.689   7.773  14.867
45816W        W 9540  41.434   2.433   1.213
45817W        W 9541  43.513  28.940  14.454
45818W        W 9542  23.053   3.282  14.988
45819W        W 9543  43.986   7.198  14.407
45820W        W 9544  25.546  38.000   3.866
45821W        W 9545  27.016  21.617   4.190
45822W        W 9546   2.319   4.224  14.285
45823W        W 9547  28.961  28.552  12.885
45824W        W 9548  13.304  13.777   2.900
45825W        W 9549  12.787  11.261  13.833
45826W        W 9550  15.743   8.690   2.275
45827W        W 9551  16.124  30.512  11.953
45828W        W 9552  43.772  27.102   4.148
45829W        W 9553  40.302  18.591  13.377
45830W        W 9554  12.670  23.710  11.044
45831W        W 9555   0.747  44.464  13.308
45832W        W 9556   6.772   1.857  12.498
45833W        W 9557  17.707  10.188  11.388
45834W        W 9558  19.538  43.817   0.886
45835W        W 9559  16.156   9.758   2.855
45836W        W 9560  36.902  43.425  12.920
45837W        W 9561  38.325  15.284  11.462
45838W        W 9562  21.197  25.556  11.602
45839W        W 9563   8.349  28.510   0.786
45840W        W 9564   8.352   4.373   1.811
45841W        W 9565   8.769  29.175   4.666
45842W        W 9566  27.688   8.219   1.788
45843W        W 9567  20.049  16.650  11.093
45844W        W 9568  21.240  11.194  12.380
45845W        W 9569   2.883  15.818  14.351
45846W        W 9570   5.710   2.235  13.468
45847W        W 9571  33.901  30.603   3.795
45848W        W 9572  32.136  24.186   1.905
45849W        W 9573   1.358  17.208   4.339
45850W        W 9574  32.517  19.746  14.926
45851W        W 9575   8.351  32.399  11.407
45852W        W 9576  14.788  17.208  11.029
45853W        W 9577  40.019  40.449  10.627
45854W        W 9578  21.240  20.029   3.768
45855W        W 9579  15.102   7.821   2.229
45856W        W 9580   0.352   7.709  10.634
45857W        W 9581  37.866  40.909  13.333
45858W        W 9582  10.733  31.927   0.799
45859W        W 9583  27.162  37.501   0.879
45860W        W 9584  35.033  37.482   2.279
45861W        W 9585  27.457  28.609   1.798
45862W        W 9586  26.070   6.893  13.318
45863W        W 9587  43.340  17.142   2.414
45864W        W 9588  26.070  24.491   0.769
45865W        W 9589   4.296  16.233  10.546
45866W        W 9590  14.624  28.951   0.797
45867W        W 9591  44.470  41.986  12.512
45868W        W 9592   0.976  10.759  13.914
45869W        W 9593  39.527  35.948   0.428
45870W        W 9594   2.350  36.572   1.769
45871W        W 9595  44.372   9.311   3.238
45872W        W 9596  27.488  19.193   1.748
45873W        W 9597   9.720   6.873  13.510
45874W        W 9598   5.400  35.867   5.271
45875W        W 9599  25.996  21.569   4.721
45876W        W 9600   9.161  25.048  11.936
45877W        W 9601  44.406  11.313  11.940
45878W        W 9602  12.626  24.499  11.988
45879W        W 9603   1.885  14.624  14.305
45880W        W 9604  26.171  15.823   3.730
45881W        W 9605  16.090  23.080  11.963
45882W        W 9606  29.560  37.368   4.652
45883W        W 9607  13.777  25.002  10.455
45884W        W 9608  37.535  29.150   0.940
45885W        W 9609  17.187   3.787   4.165
45886W        W 9610  18.263   8.819   4.330
45887W        W 9611  44.790  36.593  13.036
45888W        W 9612  24.223  26.495   1.365
45889W        W 9613   2.236  38.382  11.540
45890W        W 9614  34.422   3.863  13.893
45891W        W 9615  21.591  26.524  11.106
45892W        W 9616  18.787  30.419   4.805
45893W        W 9617  18.594  13.637   3.789
45894W        W 9618  18.117  18.603   3.372
45895W        W 9619  44.770  10.252  10.455
45896W        W 9620  43.985  15.696   3.858
45897W        W 9621  14.790  41.891  12.957
45898W        W 9622  32.563  17.137   0.420
45899W        W 9623  25.098   5.376  12.872
45900W        W 9624  43.311  20.158   3.680
45901W        W 9625  10.314   3.763   3.257
45902W        W 9626  26.035  20.117  14.910
45903W        W 9627  29.952   7.358   3.246
45904W        W 9628  44.769  34.375  14.778
45905W        W 9629  39.492  43.985   2.782
45906W        W 9630  13.758   4.208  13.987
45907W        W 9631   5.774  26.601   3.715
45908W        W 9632  10.222  10.653   5.150
45909W        W 9633  44.268  42.872  14.995
45910W        W 9634  36.084  26.640  13.307
45911W        W 9635  24.588   8.738  12.900
45912W        W 9636   6.766  25.507  12.570
45913W        W 9637  21.018  31.047  11.405
45914W        W 9638   1.852   4.245   2.733
45915W        W 9639  12.706  33.514  11.950
45916W        W 9640  14.728  19.621   4.684
45917W        W 9641  30.474   9.154  14.927
45918W        W 9642  33.431  28.052  10.096
45919W        W 9643  30.962  10.332  10.521
45920W        W 9644  31.494  26.087  11.588
45921W        W 9645  30.620  41.475  13.839
45922W        W 9646  10.825  20.523  13.326
45923W        W 9647  23.541  19.177   3.675
45924W        W 9648  37.059  19.650   2.361
45925W        W 9649  36.043   5.289   3.333
45926W        W 9650  20.584  37.055  12.496
45927W        W 9651   7.699  44.393  11.905
45928W        W 9652  32.034  33.037   3.785
45929W        W 9653   4.252  31.638   4.116
45930W        W 9654  25.520  12.159  11.601
45931W        W 9655  15.240  41.041   3.179
45932W        W 9656  37.967  22.568  10.976
45933W        W 9657   5.884  38.433   1.704
45934W        W 9658  35.869  42.332  14.843
45935W        W 9659   7.309  33.092   0.768
45936W        W 9660   0.308  22.722  12.846
45937W        W 9661  38.561  19.642  13.914
45938W        W 9662   7.890  23.533  11.066
45939W        W 9663  35.947   1.300   0.879
45940W        W 9664   8.391  10.735  10.993
45941W        W 9665  31.491  33.388   1.705
45942W        W 9666  32.137  32.959   2.282
45943W        W 9667   5.327  29.941  13.058
45944W        W 9668  29.424  23.198  14.308
45945W        W 9669  42.313  30.073   0.368
45946W        W 9670   0.752  37.862   3.807
45947W        W 9671  29.613  28.629   3.747
45948W        W 9672  14.764  15.618  11.552
45949W        W 9673  23.659  36.880   2.275
45950W        W 9674  15.285  13.312   1.697
45951W        W 9675  29.923  28.554   4.599
45952W        W 9676  31.636  11.830  10.460
45953W        W 9677  40.347  22.162  13.366
45954W        W 9678  34.987  19.250  13.031
45955W        W 9679   2.296  21.709   3.179
45956W        W 9680  42.950  15.711  10.916
45957W        W 9681   1.923  34.589   1.789
45958W        W 9682   5.762   6.812   3.794
45959W        W 9683  32.085  41.808  13.838
45960W        W 9684  41.802  17.198  11.512
45961W        W 9685   8.832  27.580  13.028
45962W        W 9686  41.028   8.359   2.291
45963W        W 9687  12.117  16.135   4.612
45964W        W 9688   2.271  35.990  10.934
45965W        W 9689  25.155  36.378   2.300
45966W        W 9690  37.538  38.939   2.749
45967W        W 9691  39.061   6.397   0.940
45968W        W 9692  34.025   2.965  12.868
45969W        W 9693  11.642  35.453   2.827
45970W        W 9694  44.949   3.805  14.475
45971W        W 9695   5.319  40.385  14.443
45972W        W 9696  15.241   1.932  10.410
45973W        W 9697   5.353  28.050   4.247
45974W        W 9698   1.832  21.025   4.709
45975W        W 9699  30.458  39.372   1.439
45976W        W 9700  13.193  27.178  14.859
45977W        W 9701  11.171  24.489   3.688
45978W        W 9702  43.823   2.405   4.227
45979W        W 9703   4.828  18.699   3.771
45980W        W 9704  18.090   3.337  10.951
45981W        W 9705   6.789  14.786   2.305
45982W        W 9706  18.703  34.089  10.471
45983W        W 9707  19.221  19.074  11.385
45984W        W 9708  26.543  12.848  13.433
45985W        W 9709  13.123  22.129  13.972
45986W        W 9710  12.781  22.045   0.356
45987W        W 9711  18.652  33.574   0.438
45988W        W 9712  14.100  24.605  13.032
45989W        W 9713  17.723  43.921   3.767
45990W        W 9714  27.591  40.305   3.182
45991W        W 9715   3.293  23.198  14.816
45992W        W 9716   0.372  37.995  10.537
45993W        W 9717   5.711  31.114   2.211
45994W        W 9718  21.223  14.183  10.124
45995W        W 9719   8.818  17.237   1.810
45996W        W 9720  34.477  20.670  13.026
45997W        W 9721  38.556   4.368  12.096
45998W        W 9722  39.448  32.950  11.574
45999W        W 9723  11.310   6.352   1.246
46000W        W 9724  16.733   6.877   3.718
46001W        W 9725   7.894  30.129   0.430
46002W        W 9726  32.589  38.455  10.611
46003W        W 9727  17.736  23.099  12.926
46004W        W 9728  33.483  44.464   4.314
46005W        W 9729  34.525  16.811   3.669
46006W        W 9730  10.258  26.982  12.917
46007W        W 9731  12.348  27.136  12.518
46008W        W 9732   6.418   7.176  14.281
46009W        W 9733  37.514  37.427  14.849
46010W        W 9734  15.164  42.973   4.153
46011W        W 9735  39.913  29.615  10.472
46012W        W 9736   2.851  27.149   3.743
46013W        W 9737  26.487   3.427   0.479
46014W        W 9738  11.169  21.114  12.016
46015W        W 9739  15.263  25.204  10.405
46016W        W 9740   0.363  37.421  12.367
46017W        W 9741  15.281  36.554  10.461
46018W        W 9742  39.493  22.138   1.291
46019W        W 9743  21.153  19.557   4.706
46020W        W 9744  38.960  16.587   3.234
46021W        W 9745  24.614  12.221   0.354
46022W        W 9746  41.522  28.166  13.971
46023W        W 9747   2.301   3.951  14.277
46024W        W 9748  17.167  23.200   3.178
46025W        W 9749  17.090  20.659   2.384
46026W        W 9750  32.531  34.470  13.400
46027W        W 9751  42.812  32.895  11.382
46028W        W 9752  39.910  20.581  12.456
46029W        W 9753   2.841  34.876  14.934
46030W        W 9754  36.379   8.742  10.501
46031W        W 9755  43.371  10.713   4.823
46032W        W 9756  22.587  40.992  10.488
46033W        W 9757  16.294  38.438   0.790
46034W        W 9758  35.061   1.317   2.412
46035W        W 9759  38.939  41.007  14.379
46036W        W 9760  37.995  38.066   0.469
46037W        W 9761   0.968  11.341  13.840
46038W        W 9762  29.554  11.170  12.988
46039W        W 9763  19.095  36.910  13.958
46040W        W 9764  31.107  14.094  11.014
46041W        W 9765  40.397   1.899  10.900
46042W        W 9766   9.235  12.667   2.868
46043W        W 9767   3.297   8.832   4.152
46044W        W 9768   5.198  35.986   1.445
46045W        W 9769  15.153  27.658   4.257
46046W        W 9770   7.343  30.132   4.807
46047W        W 9771  25.030  26.986   1.914
46048W        W 9772   6.894  16.664  12.090
46049W        W 9773   6.907  32.924  11.434
46050W        W 9774  23.120  25.980  11.982
46051W        W 9775  41.378  12.843   0.322
46052W        W 9776  30.622  43.864   1.303
46053W        W 9777  10.334  11.833   5.106
46054W        W 9778  20.163  10.166   3.335
46055W        W 9779   9.847   3.764  10.506
46056W        W 9780  10.753   0.862  12.859
46057W        W 9781   6.789  11.799   1.813
46058W        W 9782  16.113  14.731  10.080
46059W        W 9783  35.951  24.125  11.879
46060W        W 9784  21.055  14.195   1.410
46061W        W 9785   3.829  32.003   3.792
46062W        W 9786   6.696  18.778  11.417
46063W        W 9787  23.622   7.891  14.319
46064W        W 9788  25.545  42.444   3.632
46065W        W 9789  11.279  40.972  11.025
46066W        W 9790  38.489  18.637  13.014
46067W        W 9791  38.500  27.183   3.279
46068W        W 9792  32.521  36.997   2.314
46069W        W 9793   7.340  23.657  11.915
46070W        W 9794  37.032  16.720  13.840
46071W        W 9795  32.629  30.611   1.276
46072W        W 9796  19.718  40.346   0.841
46073W        W 9797   9.650  35.898   2.354
46074W        W 9798  31.042  36.967   3.232
46075W        W 9799  24.666  12.777  11.469
46076W        W 9800  39.538  35.089  10.436
46077W        W 9801   4.259  27.173  13.839
46078W        W 9802  18.055  17.114   1.451
46079W        W 9803  19.053  44.992  13.898
46080W        W 9804  36.032  34.926   1.353
46081W        W 9805  19.778  35.854   0.442
46082W        W 9806  14.654  34.885   2.782
46083W        W 9807   3.755  30.423   1.743
46084W        W 9808   7.764  31.147  13.999
46085W        W 9809  11.775  33.027  13.312
46086W        W 9810   2.811  13.689  13.901
46087W        W 9811  25.128   7.281   3.829
46088W        W 9812  38.909  21.239   2.243
46089W        W 9813  42.879  28.631  12.526
46090W        W 9814   9.151  35.998   2.366
46091W        W 9815   9.320  30.073  10.594
46092W        W 9816   3.919  22.550   4.688
46093W        W 9817   9.751  26.196  10.891
46094W        W 9818   0.418   8.894  10.900
46095W        W 9819  36.027  11.219   0.842
46096W        W 9820  35.942  33.096  12.545
46097W        W 9821  24.601  23.210  13.033
46098W        W 9822   6.894  22.035  14.921
46099W        W 9823  32.430  29.454  11.105
46100W        W 9824  16.156  23.702  11.998
46101W        W 9825  42.413  33.057   5.318
46102W        W 9826   5.713  21.577  11.024
46103W        W 9827  36.491  39.347  14.863
46104W        W 9828  15.820  28.095   0.355
46105W        W 9829  25.217   3.303  11.036
46106W        W 9830  25.076   9.374  11.411
46107W        W 9831  24.528   2.922  13.944
46108W        W 9832  24.544  39.508   4.282
46109W        W 9833  11.234  22.026   2.808
46110W        W 9834   2.274  17.608   2.295
46111W        W 9835  42.320  21.248   0.337
46112W        W 9836  15.313  39.524   1.934
46113W        W 9837  18.583   1.386   1.432
46114W        W 9838  34.062  43.369  14.885
46115W        W 9839  30.137  11.230  12.534
46116W        W 9840  43.361   0.302  13.005
46117W        W 9841  35.589  11.666   1.902
46118W        W 9842  18.614  26.532  12.014
46119W        W 9843  16.581  32.474  14.440
46120W        W 9844  22.598  28.653   0.309
46121W        W 9845  15.771  39.932   2.764
46122W        W 9846   7.676  25.093   0.421
46123W        W 9847  16.717  33.454   3.805
46124W        W 9848   9.877  31.075  10.550
46125W        W 9849  24.479  41.297  14.450
46126W        W 9850  30.072  17.119  14.487
46127W        W 9851  30.963  40.512   4.213
46128W        W 9852   0.973  44.414  14.301
46129W        W 9853  40.852  33.608   0.393
46130W        W 9854  29.429   7.368   4.301
46131W        W 9855  13.276   4.782   3.665
46132W        W 9856   3.253  29.661   3.273
46133W        W 9857   5.800  39.815  13.370
46134W        W 9858  36.891  22.252  14.804
46135W        W 9859  36.444   7.330  10.104
46136W        W 9860   0.884  29.033  12.901
46137W        W 9861  21.645  39.861   3.862
46138W        W 9862   4.813  35.454  14.501
46139W        W 9863  34.101  17.227   3.252
46140W        W 9864  24.581   1.957  10.961
46141W        W 9865   7.912  20.639  13.790
46142W        W 9866  39.335   8.843   4.354
46143W        W 9867  29.566  24.652   3.827
46144W        W 9868   5.365  25.030  13.357
46145W        W 9869  34.544  31.039  11.476
46146W        W 9870   7.246  27.495  14.285
46147W        W 9871  19.727   7.398   0.746
46148W        W 9872  15.198  38.043  11.928
46149W        W 9873  37.915  41.895  12.553
46150W        W 9874  26.661  18.153   3.188
46151W        W 9875  17.724  27.624  11.897
46152W        W 9876  29.579   3.795  14.762
46153W        W 9877  20.659   5.916  12.948
46154W        W 9878   8.830   5.708  14.803
46155W        W 9879  33.484  17.139   4.613
46156W        W 9880  38.988  17.190  14.894
46157W        W 9881  24.534   8.262   5.154
46158W        W 9882   4.907  30.162   2.183
46159W        W 9883   9.684  44.758   0.320
46160W        W 9884  39.471  26.649   0.961
46161W        W 9885  20.623  39.433   1.424
46162W        W 9886   1.260   1.949   3.838
46163W        W 9887  15.585  16.193  14.828
46164W        W 9888  37.569  41.445  12.349
46165W        W 9889   7.822  26.197  13.032
46166W        W 9890  34.506  43.848  10.546
46167W        W 9891  16.612   1.884   2.386
46168W        W 9892  22.715   3.431  12.085
46169W        W 9893  26.196   9.762  14.920
46170W        W 9894  20.691  37.530  11.547
46171W        W 9895   7.787   4.941   2.248
46172W        W 9896   2.241  36.028   0.472
46173W        W 9897  43.905  23.527   3.767
46174W        W 9898  33.939  43.831   1.228
46175W        W 9899  33.877  26.102   1.342
46176W        W 9900   9.656   4.435  12.927
46177W        W 9901  25.569  41.016  13.853
46178W        W 9902  21.741   7.762   0.247
46179W        W 9903  34.952  32.047   5.301
46180W        W 9904  32.889  20.667  12.028
46181W        W 9905  35.878   0.288   3.215
46182W        W 9906  22.658  24.056   3.268
46183W        W 9907   2.269   0.794  11.064
46184W        W 9908  17.256  40.368   2.263
46185W        W 9909   9.785   5.273  12.047
46186W        W 9910  20.037  34.506  14.420
46187W        W 9911  36.850  30.541  11.478
46188W        W 9912  42.994  13.316   4.234
46189W        W 9913  41.482   3.765  10.526
46190W        W 9914  37.408  31.973  13.368
46191W        W 9915  10.698  19.649  14.329
46192W        W 9916  14.170  23.150   2.746
46193W        W 9917  19.541  17.581   1.784
46194W        W 9918  39.860  12.714  14.943
46195W        W 9919  19.182  24.206  11.018
46196W        W 9920   1.936  31.507   4.326
46197W        W 9921   7.336  24.217  10.605
46198W        W 9922   9.652  26.525  12.998
46199W        W 9923  41.011  18.206  11.951
46200W        W 9924   8.274   1.435  14.310
46201W        W 9925  17.194  34.467   0.454
46202W        W 9926  36.397  44.779  14.344
46203W        W 9927   5.754  34.517  14.926
46204W        W 9928  14.157   3.402   3.279
46205W        W 9929  36.397   5.929   3.641
46206W        W 9930  44.380  35.028   9.650
46207W        W 9931   5.409  35.024   0.839
46208W        W 9932  25.535  10.140  10.438
46209W        W 9933  10.250  17.274   3.734
46210W        W 9934   8.214   8.867   4.665
46211W        W 9935  20.243  13.617   4.719
46212W        W 9936  37.962  37.385   3.356
46213W        W 9937  44.407  24.220   3.856
46214W        W 9938  13.615   4.719   0.365
46215W        W 9939  22.702  17.166  11.104
46216W        W 9940   2.886  10.797  14.485
46217W        W 9941  42.784  11.146   3.246
46218W        W 9942   9.818  18.065   2.801
46219W        W 9943  40.334  32.122  12.894
46220W        W 9944  29.646   1.747  13.874
46221W        W 9945  20.769   8.303   4.608
46222W        W 9946   3.346   3.937  10.490
46223W        W 9947  12.208  27.120   2.662
46224W        W 9948  11.709  15.131  12.391
46225W        W 9949  29.079  34.455  11.094
46226W        W 9950  32.117  14.654  13.539
46227W        W 9951  39.042   9.681  13.033
46228W        W 9952  38.847  34.541  14.395
46229W        W 9953  27.458  22.142   4.344
46230W        W 9954  21.075  44.362  14.504
46231W        W 9955  14.754  43.396  11.980
46232W        W 9956  11.733   5.313  13.934
46233W        W 9957  14.271  16.076   1.333
46234W        W 9958   2.391   6.287   2.222
46235W        W 9959  40.546  10.702  13.352
46236W        W 9960  14.240  38.054   1.874
46237W        W 9961  30.064  23.038  14.395
46238W        W 9962  29.530   1.334  13.542
46239W        W 9963  41.447  34.102   2.787
46240W        W 9964   9.718  11.311   0.298
46241W        W 9965  15.121  33.566  14.284
46242W        W 9966  41.496  22.508  10.936
46243W        W 9967  30.620  42.825  12.061
46244W        W 9968   8.403   0.920   1.223
46245W        W 9969   8.184   5.802  13.464
46246W        W 9970  20.229  34.951  10.135
46247W        W 9971   5.222  35.404  10.590
46248W        W 9972  42.488  21.223   4.730
46249W        W 9973  40.957   4.773  11.453
46250W        W 9974  34.509  31.066  12.935
46251W        W 9975  26.201  13.304   2.198
46252W        W 9976   3.781  40.821   1.711
46253W        W 9977   5.913  25.539   0.383
46254W        W 9978  12.234  37.486  13.891
46255W        W 9979  19.681  30.119  13.024
46256W        W 9980   3.344  22.233   2.245
46257W        W 9981  44.869  11.831   1.263
46258W        W 9982   0.453  44.262   0.833
46259W        W 9983  42.502  40.952   4.138
46260W        W 9984   8.679   0.764   3.828
46261W        W 9985  16.239  41.822   0.760
46262W        W 9986  20.750  13.146   1.768
46263W        W 9987   0.956   8.812  12.472
46264W        W 9988  32.065  31.527  10.491
46265W        W 9989  38.012   6.743   1.256
46266W        W 9990  18.707  44.999   2.331
46267W        W 9991  35.879  33.531   2.255
46268W        W 9992   1.804  11.277   3.353
46269W        W 9993  42.837  20.035   0.874
46270W        W 9994  39.366  24.120  10.445
46271W        W 9995  24.135  36.471  12.383
46272W        W 9996  20.660  28.178   2.293
46273W        W 9997  30.424   0.899   4.808
46274W        W 9998  21.651   1.946  12.876
46275W        W 9999  24.480  42.493  13.997
46276W        W10000  26.501  28.945   3.284
46277W        W10001  16.218  18.769   1.313
46278W        W10002   6.289  38.480  14.430
46279W        W10003  24.521  41.508   3.253
46280W        W10004  33.442  43.885   4.767
46281W        W10005   2.943   8.257  14.947
46282W        W10006  16.181  38.440   1.357
46283W        W10007  36.369  15.126   3.208
46284W        W10008  37.346  17.263   4.302
46285W        W10009  17.074  34.449  13.987
46286W        W10010  23.730  32.132  10.518
46287W        W10011  34.079   3.435   4.739
46288W        W10012  24.540   2.347  12.005
46289W        W10013  43.783  36.070  14.789
46290W        W10014  26.197  16.238   4.218
46291W        W10015  38.496  31.575  10.960
46292W        W10016   8.226  29.153  12.510
46293W        W10017   8.302  17.123  13.313
46294W        W10018  40.389  41.831   3.785
46295W        W10019   2.768  27.479  13.976
46296W        W10020  28.045  15.816   5.261
46297W        W10021   7.375  22.093  10.434
46298W        W10022  21.067  15.580   2.719
46299W        W10023  11.182  27.689   4.727
46300W        W10024  22.199  39.461  11.013
46301W        W10025  15.121  39.054   0.840
46302W        W10026  15.685   0.855   2.813
46303W        W10027  43.376   6.858  13.464
46304W        W10028  31.462  34.060  14.794
46305W        W10029  39.463   9.687   4.764
46306W        W10030  19.758  43.886  13.939
46307W        W10031  17.581   2.326   1.709
46308W        W10032  13.708  26.641   4.815
46309W        W10033  34.065  43.434   1.267
46310W        W10034   8.696   2.264  10.899
46311W        W10035  30.554  15.725  12.040
46312W        W10036  23.681  38.038  10.890
46313W        W10037  20.658  19.149   2.797
46314W        W10038  10.266  27.510  10.037
46315W        W10039  15.097   2.950   3.717
46316W        W10040  15.664  17.152   1.907
46317W        W10041  16.091   3.736  10.097
46318W        W10042  26.144  43.866  12.466
46319W        W10043  20.756  31.921  10.900
46320W        W10044  43.377  26.486   3.371
46321W        W10045   0.320  23.028  10.627
46322W        W10046  19.118   6.325  10.485
46323W        W10047  19.680  39.943  11.598
46324W        W10048   7.286  19.737   1.250
46325W        W10049   2.265   0.831  10.631
46326W        W10050  18.272  43.433  14.928
46327W        W10051  23.509  15.615  12.567
46328W        W10052  43.863  16.169  12.530
46329W        W10053  15.626  15.166  10.096
46330W        W10054  42.995  26.990   0.299
46331W        W10055  19.771  44.845   2.837
46332W        W10056  26.993  16.151   2.413
46333W        W10057  16.317   9.374   3.816
46334W        W10058  40.854   1.472  11.513
46335W        W10059  43.846   1.416   0.463
46336W        W10060  25.570   2.347  11.895
46337W        W10061  12.286  39.540   4.648
46338W        W10062  23.670  27.571   5.214
46339W        W10063   7.910   9.354   5.210
46340W        W10064  10.355  35.403   0.302
46341W        W10065   7.171  43.011   4.228
46342W        W10066  27.126  23.045  10.410
46343W        W10067  32.098  30.911  11.114
46344W        W10068   0.843   4.892   1.257
46345W        W10069  15.699  10.721   3.742
46346W        W10070  18.166  33.606   4.179
46347W        W10071   1.274  41.492   0.838
46348W        W10072   9.695  33.473  14.369
46349W        W10073   4.223  34.394  13.326
46350W        W10074  28.510   3.818   1.298
46351W        W10075  22.014  44.823  12.470
46352W        W10076  15.186   6.362  13.417
46353W        W10077   0.327  24.499   0.905
46354W        W10078  17.076   6.392   5.107
46355W        W10079  38.475  40.330   4.728
46356W        W10080  35.053  12.289   1.911
46357W        W10081  19.058   4.250  14.992
46358W        W10082  26.508  23.150   0.900
46359W        W10083   3.893  34.006   2.730
46360W        W10084  25.041  13.280   2.898
46361W        W10085  29.162   4.209  11.555
46362W        W10086  17.565  31.916  11.505
46363W        W10087  39.322  41.798  12.541
46364W        W10088  27.107  21.641   0.785
46365W        W10089  37.576  15.114  10.444
46366W        W10090  20.090  26.127  14.849
46367W        W10091  24.093   4.245  14.773
46368W        W10092  17.078  44.362  11.577
46369W        W10093   1.847  15.687   1.363
46370W        W10094  22.096   2.400   1.703
46371W        W10095  25.202  40.925   1.254
46372W        W10096  30.100   7.723  13.483
46373W        W10097  16.566  30.655  12.570
46374W        W10098  12.824  28.962   2.759
46375W        W10099  19.140  38.444   2.376
46376W        W10100   1.331  22.221   2.786
46377W        W10101  37.842  14.146   5.226
46378W        W10102  26.152  16.105  10.507
46379W        W10103  33.989  12.628  13.865
46380W        W10104   6.835   8.879  10.101
46381W        W10105  32.606   8.759  12.389
46382W        W10106  12.634   0.441  10.434
46383W        W10107   9.771  33.528  11.510
46384W        W10108  41.401  43.304  13.395
46385W        W10109  22.135   4.410   3.321
46386W        W10110  26.023  36.018  10.449
46387W        W10111  26.096   4.389  11.578
46388W        W10112  12.193  18.550  10.537
46389W        W10113  33.525  22.695   4.604
46390W        W10114  40.047  44.814   5.246
46391W        W10115  41.018  43.479   2.317
46392W        W10116  22.737  43.492  12.848
46393W        W10117   2.727   0.817   1.338
46394W        W10118  31.924   8.782  14.296
46395W        W10119  30.927   8.843  10.972
46396W        W10120  36.355  39.529  11.066
46397W        W10121  22.511  23.698  11.600
46398W        W10122  40.999  26.085  11.561
46399W        W10123  18.235  43.967   3.367
46400W        W10124  21.522  31.066   1.750
46401W        W10125  35.471  26.501  13.389
46402W        W10126  15.298  43.861   1.793
46403W        W10127  35.485   9.841   4.651
46404W        W10128  27.574  19.254  13.461
46405W        W10129   0.459  34.417  11.102
46406W        W10130  21.073   1.434   4.640
46407W        W10131  36.359  44.900   3.679
46408W        W10132  44.948  42.927  12.355
46409W        W10133  30.049  10.219   2.772
46410W        W10134  33.996  40.928   3.639
46411W        W10135  26.549  37.068   2.241
46412W        W10136  25.177  41.526   0.310
46413W        W10137  10.704  43.859  10.578
46414W        W10138   1.793  27.107  14.764
46415W        W10139  29.604  42.803  14.494
46416W        W10140   6.776   4.768   2.289
46417W        W10141  36.020  22.550   1.442
46418W        W10142  13.627  17.560  11.064
46419W        W10143  31.967   3.719   3.778
46420W        W10144  10.145  18.117   0.755
46421W        W10145  41.481  36.054   9.501
46422W        W10146  18.679   9.194   2.835
46423W        W10147   9.379  33.020   4.639
46424W        W10148  16.584  24.517  14.781
46425W        W10149  42.428  33.106   3.752
46426W        W10150  15.797   9.643  11.423
46427W        W10151  11.666   6.378  11.062
46428W        W10152  31.546  27.083   1.868
46429W        W10153  14.157  27.189  13.976
46430W        W10154  18.295  29.432   1.325
46431W        W10155  17.674  22.996   3.298
46432W        W10156  13.204  42.830  14.283
46433W        W10157   3.265  27.475   1.747
46434W        W10158  28.481  11.232   4.776
46435W        W10159  43.317  34.409  12.440
46436W        W10160  25.683   3.290  14.469
46437W        W10161  26.136  25.214   2.194
46438W        W10162   6.187  31.913   1.372
46439W        W10163  43.947   9.281   4.688
46440W        W10164   5.312  36.561   0.742
46441W        W10165  17.702  17.206   4.746
46442W        W10166  18.775  20.034   1.256
46443W        W10167  35.525  33.550  12.875
46444W        W10168  15.625  39.038   9.925
46445W        W10169   6.702   8.284  11.400
46446W        W10170  41.445  39.823  14.011
46447W        W10171  23.108   0.286  11.989
46448W        W10172  19.276  28.584  12.007
46449W        W10173  14.740   3.763  11.499
46450W        W10174  21.121  19.597  11.950
46451W        W10175  18.236  20.537  10.439
46452W        W10176  43.514  14.767  11.068
46453W        W10177   0.837  31.610  10.536
46454W        W10178  40.488   3.332   2.370
46455W        W10179  38.062  10.191   4.305
46456W        W10180   0.490  20.062   0.774
46457W        W10181   2.275  12.293  12.895
46458W        W10182  11.326  41.459  14.397
46459W        W10183  39.944  31.114  13.823
46460W        W10184  41.019  41.371   2.255
46461W        W10185  34.008   2.411  11.437
46462W        W10186  34.949  37.971  14.432
46463W        W10187   9.385  14.677  14.973
46464W        W10188  22.137  19.085  10.484
46465W        W10189  36.904  39.873   2.738
46466W        W10190  42.308  31.613   0.863
46467W        W10191   5.285  40.326   2.264
46468W        W10192   3.737  39.957  12.347
46469W        W10193  37.846  19.268   2.394
46470W        W10194  36.406  28.556   4.670
46471W        W10195  24.151  38.895   0.823
46472W        W10196  39.874   2.800  13.054
46473W        W10197  27.995  12.720  11.937
46474W        W10198   8.241   8.279  11.920
46475W        W10199   8.396   5.363  10.921
46476W        W10200  36.485  18.111   4.695
46477W        W10201  20.140  25.159  14.437
46478W        W10202  21.152  18.707   5.298
46479W        W10203  12.216  35.021   0.881
46480W        W10204  30.622  31.504  14.439
46481W        W10205   1.266  40.046   2.365
46482W        W10206  23.560   0.288   1.445
46483W        W10207  41.430  11.780  12.950
46484W        W10208  26.692  39.810  11.460
46485W        W10209   0.776  31.413  12.877
46486W        W10210   9.858  11.742   1.237
46487W        W10211  41.422  29.103  11.038
46488W        W10212   4.889  41.870  11.383
46489W        W10213  30.096  41.930   3.713
46490W        W10214  41.538   8.340   4.796
46491W        W10215   7.839  17.134   4.638
46492W        W10216  29.107  11.680  14.453
46493W        W10217  12.318  44.788  13.859
46494W        W10218  28.557  35.940   1.423
46495W        W10219  19.583  26.601   4.135
46496W        W10220  21.138  26.497   4.600
46497W        W10221  23.709  30.563  13.059
46498W        W10222  30.490  31.963   2.742
46499W        W10223  11.356  32.036   4.255
46500W        W10224   0.383  32.545   3.146
46501W        W10225  11.171   5.309   1.896
46502W        W10226  27.122  35.515  10.438
46503W        W10227   7.235  30.152  12.359
46504W        W10228   4.843  24.995  14.874
46505W        W10229  27.690  25.651   0.364
46506W        W10230  19.183  14.804  10.150
46507W        W10231  33.382  33.509   1.934
46508W        W10232  28.009  34.944   3.740
46509W        W10233   3.246   7.371   2.852
46510W        W10234  12.211  31.634  14.487
46511W        W10235  15.719  43.346  13.895
46512W        W10236  25.532  34.593   3.186
46513W        W10237  20.706  27.480   1.759
46514W        W10238  10.367  21.253   0.296
46515W        W10239   7.884  12.307   2.897
46516W        W10240  36.882   3.318  10.432
46517W        W10241   7.368  28.467  10.501
46518W        W10242  25.594  21.162  10.037
46519W        W10243   5.362  28.472   4.239
46520W        W10244  32.943  40.435   3.177
46521W        W10245   6.242  35.489   4.220
46522W        W10246   8.283  17.207   2.706
46523W        W10247   2.226  41.954  14.817
46524W        W10248  27.962  14.771  14.325
46525W        W10249  39.998  15.802   3.852
46526W        W10250  40.900  22.626   4.625
46527W        W10251  41.975  15.228   0.881
46528W        W10252  26.652  41.860   1.826
46529W        W10253  39.055   1.740   0.364
46530W        W10254  43.451  12.699  14.472
46531W        W10255  26.195  23.001  14.470
46532W        W10256  36.056  11.867  13.524
46533W        W10257  40.813  17.780   3.165
46534W        W10258  18.628  34.938   2.319
46535W        W10259  30.984   1.749  13.043
46536W        W10260   9.247  13.185   2.824
46537W        W10261  31.070   5.929  10.901
46538W        W10262  22.688  30.107  12.368
46539W        W10263  42.795   1.977  12.997
46540W        W10264   2.850  35.100   0.897
46541W        W10265  38.500  17.645   2.751
46542W        W10266  40.501   5.396   0.947
46543W        W10267  30.025  43.455  11.392
46544W        W10268  43.885  29.573  12.490
46545W        W10269  20.623  18.758   4.212
46546W        W10270  43.781  16.649  10.974
46547W        W10271  13.804  23.731   4.657
46548W        W10272  28.153   4.243  10.991
46549W        W10273   4.361  38.432   2.304
46550W        W10274  19.664  24.630   2.782
46551W        W10275  31.472   8.227   3.788
46552W        W10276  35.015  30.110   4.209
46553W        W10277  39.879  44.300   3.645
46554W        W10278  19.586  28.071  11.443
46555W        W10279  22.705  39.025  11.856
46556W        W10280   6.214  30.471  14.502
46557W        W10281  21.111  21.550   4.795
46558W        W10282  14.266  14.254   0.457
46559W        W10283  39.845  11.826   4.289
46560W        W10284  14.269  38.904   5.244
46561W        W10285  21.708  32.556  11.516
46562W        W10286   1.951  18.283   0.366
46563W        W10287  39.464  38.438  13.932
46564W        W10288   4.755  15.137  10.998
46565W        W10289   3.312  23.995   3.759
46566W        W10290  25.479   5.315  13.945
46567W        W10291  10.745   9.322   4.787
46568W        W10292  28.439  34.549   3.320
46569W        W10293  42.506   3.922   2.683
46570W        W10294  24.558   2.459   3.381
46571W        W10295  43.433  12.168   4.134
46572W        W10296  24.509   7.886  12.034
46573W        W10297  19.570  12.190  10.128
46574W        W10298  20.235  16.765  13.361
46575W        W10299   8.765  19.694  10.509
46576W        W10300  32.112   1.752   1.797
46577W        W10301  29.930  32.928  11.004
46578W        W10302  26.013  23.201   1.450
46579W        W10303  19.738  31.084   0.965
46580W        W10304  26.570  40.956  14.366
46581W        W10305  34.958  42.835   1.920
46582W        W10306  30.503  30.159  14.444
46583W        W10307  34.937  11.669  11.450
46584W        W10308  43.426  32.004  11.379
46585W        W10309  21.167   5.410   4.651
46586W        W10310  30.465  13.739   5.103
46587W        W10311  31.502   9.653  11.015
46588W        W10312  40.517   9.225   4.632
46589W        W10313  20.561   6.841  12.900
46590W        W10314  20.662  33.947  12.470
46591W        W10315  30.634  36.098   2.870
46592W        W10316   0.829  44.331   3.812
46593W        W10317   6.816   6.735  12.081
46594W        W10318  34.599  34.506   0.423
46595W        W10319  25.077  35.598  13.414
46596W        W10320  15.162  43.488   3.145
46597W        W10321   0.889   6.310   5.292
46598W        W10322  32.889   2.771   1.881
46599W        W10323  39.944  14.252  11.058
46600W        W10324  39.358  44.947  14.807
46601W        W10325   0.455   9.180   1.278
46602W        W10326  17.188  33.055  10.414
46603W        W10327  44.494  44.413  10.617
46604W        W10328  35.896   7.288   1.725
46605W        W10329  20.666   5.810   4.140
46606W        W10330  38.439   1.770   3.277
46607W        W10331  42.406  30.027  11.569
46608W        W10332  10.823  26.468   4.734
46609W        W10333  15.730   0.446   1.360
46610W        W10334  22.157   8.260  10.635
46611W        W10335  29.002  17.096  11.426
46612W        W10336  43.368  38.829  14.339
46613W        W10337   2.389  29.963   2.669
46614W        W10338   0.974  13.634  12.906
46615W        W10339   8.729  15.220   1.375
46616W        W10340  44.371  34.388   3.375
46617W        W10341   6.734  24.221  14.497
46618W        W10342  16.101  33.055   3.223
46619W        W10343  11.296   5.371  14.477
46620W        W10344  20.180   0.984   3.358
46621W        W10345  41.407  13.702   1.859
46622W        W10346   9.864  11.311  10.972
46623W        W10347  41.981   1.262   1.728
46624W        W10348  20.046  44.865   4.309
46625W        W10349  13.720  14.746   4.832
46626W        W10350  26.574   3.375   1.866
46627W        W10351  28.130   1.911   0.430
46628W        W10352  37.453   2.408  14.898
46629W        W10353   7.836  39.341  11.460
46630W        W10354  36.038  15.096   4.317
46631W        W10355  43.280  34.475  12.992
46632W        W10356  43.374  15.739   2.898
46633W        W10357  25.145  18.673  12.540
46634W        W10358  20.725   4.212  13.907
46635W        W10359  34.415  41.802  12.430
46636W        W10360  33.037  29.657  13.542
46637W        W10361   5.329   9.752  10.984
46638W        W10362  31.078  19.052   3.715
46639W        W10363  37.936  30.625  14.388
46640W        W10364  44.356  34.046  11.475
46641W        W10365  44.314  12.641  10.466
46642W        W10366  39.978  14.605   4.837
46643W        W10367   9.744  31.536  14.507
46644W        W10368  18.188  10.842   1.931
46645W        W10369  23.588  21.111  10.639
46646W        W10370   1.406   3.321   0.325
46647W        W10371   3.826   6.773   2.733
46648W        W10372  25.194  26.969  12.430
46649W        W10373  12.218  28.513  10.570
46650W        W10374  10.662  10.283   1.413
46651W        W10375  15.693  19.554   3.237
46652W        W10376  18.205  27.452  11.396
46653W        W10377  43.889   1.377   3.697
46654W        W10378  14.726  40.884  14.357
46655W        W10379  39.414   0.918  12.903
46656W        W10380  11.791   8.882   2.258
46657W        W10381  21.536  32.395  13.888
46658W        W10382  13.759  44.901   3.195
46659W        W10383   6.403  42.965  12.916
46660W        W10384  36.577  19.576  10.420
46661W        W10385  37.450  34.453  12.477
46662W        W10386  28.166  39.474   4.248
46663W        W10387  26.696  32.405  10.625
46664W        W10388  35.490   1.893  10.937
46665W        W10389  19.126   8.780   4.153
46666W        W10390   5.292  32.507  14.287
46667W        W10391  31.040  17.562   3.259
46668W        W10392  39.491  17.677   2.891
46669W        W10393  31.936  15.212   4.744
46670W        W10394  11.189  36.593   2.857
46671W        W10395  30.521   2.456  12.046
46672W        W10396  15.723   4.798  14.974
46673W        W10397  20.253  22.098   1.853
46674W        W10398  17.591  36.074  11.887
46675W        W10399  42.968  23.022   2.273
46676W        W10400  40.473  28.946   4.262
46677W        W10401  26.703   0.444  11.936
46678W        W10402  22.514  39.364   1.790
46679W        W10403  16.591  40.859  14.496
46680W        W10404  37.387   2.305   0.951
46681W        W10405  32.060  11.624   2.315
46682W        W10406  42.431  30.504  12.557
46683W        W10407  15.647  13.806   1.755
46684W        W10408  20.257   0.360  12.888
46685W        W10409  42.479  39.869  10.409
46686W        W10410  31.447   9.777   3.685
46687W        W10411  16.276  10.242  14.286
46688W        W10412  35.574   8.895  14.283
46689W        W10413  31.013  21.141   3.323
46690W        W10414  43.283  15.730   0.326
46691W        W10415  21.041  32.634   5.115
46692W        W10416  14.281  29.456   3.719
46693W        W10417  17.637  13.603   3.761
46694W        W10418   7.174  26.573  11.858
46695W        W10419  15.154  12.358  12.350
46696W        W10420  40.918   8.267  13.504
46697W        W10421  23.036  37.026  12.096
46698W        W10422  16.129  39.372  10.905
46699W        W10423   3.754  38.371  10.598
46700W        W10424  25.107  27.604  13.405
46701W        W10425  31.593   2.399  12.517
46702W        W10426  32.893   2.447  12.923
46703W        W10427  28.077  19.744  10.027
46704W        W10428   7.724  32.997   2.693
46705W        W10429  25.987  24.652   2.901
46706W        W10430  36.039  38.954  14.449
46707W        W10431  17.121  30.956  14.809
46708W        W10432  43.946   4.783   1.724
46709W        W10433  19.600  11.642  13.319
46710W        W10434   8.775  19.621   3.649
46711W        W10435  25.613   9.807  14.373
46712W        W10436   1.959  12.138  12.960
46713W        W10437  11.808  32.076   1.735
46714W        W10438  24.066  37.467  13.376
46715W        W10439  27.670  17.748  14.277
46716W        W10440  26.987  32.063  13.993
46717W        W10441   5.704  35.057   1.417
46718W        W10442  26.068  17.658  11.528
46719W        W10443  36.554  15.169   4.673
46720W        W10444  44.436  36.419  12.453
46721W        W10445  20.740   6.269  13.847
46722W        W10446  16.738  38.044   2.358
46723W        W10447  30.560  38.032   1.298
46724W        W10448  13.687  21.141   4.691
46725W        W10449  13.816  37.336   0.337
46726W        W10450  38.511  40.478  10.480
46727W        W10451  22.195  34.456   1.271
46728W        W10452   6.863  15.709   1.851
46729W        W10453  30.628  14.322  11.948
46730W        W10454  23.558  35.408  12.534
46731W        W10455  20.611  38.908  12.520
46732W        W10456  27.113   4.268  11.500
46733W        W10457  24.632   5.902   1.737
46734W        W10458  37.521  22.611  14.374
46735W        W10459  24.985  22.144   3.830
46736W        W10460  17.091  31.964   3.758
46737W        W10461  29.575  32.993  12.891
46738W        W10462  37.535  30.021  12.891
46739W        W10463  37.907  29.126   3.789
46740W        W10464  21.188  14.330   2.257
46741W        W10465  14.246  40.462  11.582
46742W        W10466  40.881  26.055   3.824
46743W        W10467   9.343  21.549  11.403
46744W        W10468  44.008  14.715   1.242
46745W        W10469  32.449  17.571  11.902
46746W        W10470  11.854  16.698   4.623
46747W        W10471  16.118  17.151  10.624
46748W        W10472  19.684  37.015   4.749
46749W        W10473  35.055  24.226  12.018
46750W        W10474  43.323  16.777   3.355
46751W        W10475   5.193  37.032  12.847
46752W        W10476   3.924  38.396  12.959
46753W        W10477   0.968  24.663  11.002
46754W        W10478  26.097   8.399  14.278
46755W        W10479  38.549  26.974   0.902
46756W        W10480  41.313   1.942   4.655
46757W        W10481  40.391   1.384  14.775
46758W        W10482  21.180  43.465   2.414
46759W        W10483  23.046  12.303   0.454
46760W        W10484  24.230  29.444   0.851
46761W        W10485  10.165  26.095  14.771
46762W        W10486  37.941  25.967  14.958
46763W        W10487  21.084   4.415   3.723
46764W        W10488  19.657  27.623  13.458
46765W        W10489   7.732  13.344  10.527
46766W        W10490   2.875  42.009  10.916
46767W        W10491  13.105  23.004  10.557
46768W        W10492  40.961  36.572   3.360
46769W        W10493  42.360  39.904   4.319
46770W        W10494  12.839  42.781  13.981
46771W        W10495   3.771  43.993   3.826
46772W        W10496   6.880   0.911  13.874
46773W        W10497  10.843  10.267  13.037
46774W        W10498  37.367  21.672  11.891
46775W        W10499  25.148  19.150   0.302
46776W        W10500  19.755  33.554   3.312
46777W        W10501   1.786   2.923   1.352
46778W        W10502  31.096  35.461   1.280
46779W        W10503  17.582   0.420   3.810
46780W        W10504  23.660  36.566  14.302
46781W        W10505  23.566  29.113  11.447
46782W        W10506  28.557   6.259   1.212
46783W        W10507   7.230  18.773   1.861
46784W        W10508   4.303  30.923  12.419
46785W        W10509  42.867  19.102   2.700
46786W        W10510  10.726   5.870  12.049
46787W        W10511  34.946  40.889  12.031
46788W        W10512  25.642   5.436  11.094
46789W        W10513  35.876  44.987  12.565
46790W        W10514  39.039  43.322  12.477
46791W        W10515  12.776  38.825   3.342
46792W        W10516  25.559   2.366   0.365
46793W        W10517  36.530  37.374  11.397
46794W        W10518  17.695   5.437   0.734
46795W        W10519  43.449   9.848  12.434
46796W        W10520   0.933  36.397  14.871
46797W        W10521   7.672  16.617  11.999
46798W        W10522  13.195  22.217   2.734
46799W        W10523  11.185   9.320   1.754
46800W        W10524  40.807  30.038   0.793
46801W        W10525  32.899  22.585   0.276
46802W        W10526  25.514   6.384   0.268
46803W        W10527   4.359  38.870   2.375
46804W        W10528  32.887   6.425   3.185
46805W        W10529  18.656   5.791   3.703
46806W        W10530  35.920  14.124   0.937
46807W        W10531  15.775  23.712  10.414
46808W        W10532  40.994  11.235  12.989
46809W        W10533  23.996   5.903   0.456
46810W        W10534   1.437  39.438  10.561
46811W        W10535  13.845  44.866   4.633
46812W        W10536  39.820  19.663  12.453
46813W        W10537  37.435  12.617   2.231
46814W        W10538  37.888  35.996   4.330
46815W        W10539  25.604  11.167   4.140
46816W        W10540   7.224  37.051  13.815
46817W        W10541  15.146  35.000   2.410
46818W        W10542  13.214  38.416   0.404
46819W        W10543  21.213   7.836   4.324
46820W        W10544  12.782  41.912  12.469
46821W        W10545   1.867  29.132   3.800
46822W        W10546  26.093  38.364  12.942
46823W        W10547  29.942   2.762   4.682
46824W        W10548  32.013  39.875  12.927
46825W        W10549  28.441  17.095   2.746
46826W        W10550   5.300  13.189  14.932
46827W        W10551  43.495  29.952   4.153
46828W        W10552  33.406  10.854   3.244
46829W        W10553  19.667  37.541  14.395
46830W        W10554   9.325  38.329  12.498
46831W        W10555  30.556  28.535   4.621
46832W        W10556  40.911  33.127  12.939
46833W        W10557  11.358  38.403   4.781
46834W        W10558  18.591  16.242  10.085
46835W        W10559   5.850  28.608   3.662
46836W        W10560  22.010  32.039   4.291
46837W        W10561  39.821   1.897   0.898
46838W        W10562  17.667  32.107   0.814
46839W        W10563  42.824  44.405  10.076
46840W        W10564  29.669   2.958   2.363
46841W        W10565  23.151  24.183  12.831
46842W        W10566  16.763  12.324   4.684
46843W        W10567   2.419  34.981   3.767
46844W        W10568  39.819  12.775  11.387
46845W        W10569  29.955  32.973   1.364
46846W        W10570  32.499  30.451   4.259
46847W        W10571  30.114  10.851   1.280
46848W        W10572  31.959  33.124  14.342
46849W        W10573  44.843   3.935   4.667
46850W        W10574  11.171  44.850  11.379
46851W        W10575  16.237  24.634  13.397
46852W        W10576  21.599  27.152   1.707
46853W        W10577   2.793  40.942   3.331
46854W        W10578  37.881  18.720   3.662
46855W        W10579  42.961  25.073  13.006
46856W        W10580   0.943  15.226   3.756
46857W        W10581  15.125  31.911   0.843
46858W        W10582  34.946  11.737  14.354
46859W        W10583  10.696  14.636   3.272
46860W        W10584  28.085  17.724  10.490
46861W        W10585  44.902  26.657  12.072
46862W        W10586  37.023   2.820  12.987
46863W        W10587   5.217  16.607  12.393
46864W        W10588  22.232  36.406   5.131
46865W        W10589  20.108   1.804   1.280
46866W        W10590   8.727   2.722  11.868
46867W        W10591  42.297  17.220   0.480
46868W        W10592   8.807  22.616   2.672
46869W        W10593  22.246  12.286  10.559
46870W        W10594  27.114   7.681  10.939
46871W        W10595   3.934  21.727  13.814
46872W        W10596   2.955   6.826  13.486
46873W        W10597  19.175  23.651   3.643
46874W        W10598  42.318  27.551   2.367
46875W        W10599  42.950  28.575   3.824
46876W        W10600   0.968  35.501   1.272
46877W        W10601  44.428  31.597  14.769
46878W        W10602   3.350  20.622  13.335
46879W        W10603  15.271  25.592  10.960
46880W        W10604  26.646  33.444  10.545
46881W        W10605  10.333  32.402  12.427
46882W        W10606  44.426  35.485  10.471
46883W        W10607  24.123  24.645   0.399
46884W        W10608  32.987  16.111   4.766
46885W        W10609  42.505  31.107   1.222
46886W        W10610  30.026  36.399   0.318
46887W        W10611  41.820   0.813  10.450
46888W        W10612  13.660  22.158   4.828
46889W        W10613  11.858  19.136  12.842
46890W        W10614   9.225   2.336  12.560
46891W        W10615  25.538  43.845   3.868
46892W        W10616   8.401  44.807   1.833
46893W        W10617   3.897  28.969  14.961
46894W        W10618  40.807  37.979   4.818
46895W        W10619  27.084   2.903  13.807
46896W        W10620  32.488  33.887   4.633
46897W        W10621  44.960  27.154   1.315
46898W        W10622  44.409  20.175  10.592
46899W        W10623  21.655  28.959   1.908
46900W        W10624   6.753  15.757  12.073
46901W        W10625  43.889  44.501   4.253
46902W        W10626  27.666   1.856   2.873
46903W        W10627  30.920  13.810   9.633
46904W        W10628  24.031  34.099  13.446
46905W        W10629   4.883  37.995   4.326
46906W        W10630   1.923  21.196   0.292
46907W        W10631  31.113  11.224   4.740
46908W        W10632   4.231  18.566  12.870
46909W        W10633  32.928  25.562   1.331
46910W        W10634  40.396  34.061  12.495
46911W        W10635  32.097   8.803   9.965
46912W        W10636  37.549  28.948   1.725
46913W        W10637  15.577  32.010   0.917
46914W        W10638  12.753   1.877  11.887
46915W        W10639   7.852  41.371  12.888
46916W        W10640  10.353   5.403  13.828
46917W        W10641   4.837   2.322   1.427
46918W        W10642  44.482   0.388  12.567
46919W        W10643  31.959  14.094  14.462
46920W        W10644   3.286  14.834   2.890
46921W        W10645  32.535  41.802   2.676
46922W        W10646  26.112  31.146   3.360
46923W        W10647  38.427  40.951  11.890
46924W        W10648  43.395  23.200   1.760
46925W        W10649   7.229   5.296  12.060
46926W        W10650  32.588   8.290   0.429
46927W        W10651  36.485  23.575  12.982
46928W        W10652  28.619  24.036   1.451
46929W        W10653  14.169   3.785  10.933
46930W        W10654  38.017  31.064   0.347
46931W        W10655   7.834  40.005   3.711
46932W        W10656  39.497  38.524  13.052
46933W        W10657  30.511  27.447  13.419
46934W        W10658  40.435   2.458  10.529
46935W        W10659  21.594  12.778   3.689
46936W        W10660  14.733   9.302  12.342
46937W        W10661   8.856  25.094  11.519
46938W        W10662  15.296  29.585   0.334
46939W        W10663  41.830  10.675   2.229
46940W        W10664  12.163  33.513  14.369
46941W        W10665  28.001  42.889  14.447
46942W        W10666  18.759  34.946  11.886
46943W        W10667  11.857  38.416  12.524
46944W        W10668   0.290  39.316   3.162
46945W        W10669  38.036  28.133  14.821
46946W        W10670  36.998  31.078  11.536
46947W        W10671  28.484  38.327  12.025
46948W        W10672   7.206   1.403   4.803
46949W        W10673   4.734   7.223  14.850
46950W        W10674  13.323  19.566  12.956
46951W        W10675  21.201   1.465   3.174
46952W        W10676  41.479  37.442  11.917
46953W        W10677  13.707  25.066  12.893
46954W        W10678  41.506  10.817   0.332
46955W        W10679  36.457  21.204  10.491
46956W        W10680  16.284  20.107  14.858
46957W        W10681  26.479  32.963   4.838
46958W        W10682  42.416  24.088  14.353
46959W        W10683  27.597  14.154  14.913
46960W        W10684   1.288  29.530  10.582
46961W        W10685  25.482   4.244   4.620
46962W        W10686  13.117  44.918   0.770
46963W        W10687   1.731  44.297   3.198
46964W        W10688  44.945  38.423   0.759
46965W        W10689  27.104  37.993  14.394
46966W        W10690   7.833  28.672  10.621
46967W        W10691  42.008   3.803   0.345
46968W        W10692  23.065  15.099  14.955
46969W        W10693  39.386  33.415   2.890
46970W        W10694  36.999  31.505   3.823
46971W        W10695  29.112  26.522  11.478
46972W        W10696   4.943  30.974   3.344
46973W        W10697  25.182   0.261  12.976
46974W        W10698  41.801  21.588   3.371
46975W        W10699  13.183  18.553  10.602
46976W        W10700   1.368  44.761  13.331
46977W        W10701  24.159  34.417   4.801
46978W        W10702  39.419  30.161  10.603
46979W        W10703  33.918  44.839  11.525
46980W        W10704  20.722  42.461   3.203
46981W        W10705  10.700  19.177   4.344
46982W        W10706  38.535  22.523  10.945
46983W        W10707   3.400  14.821  10.424
46984W        W10708  41.959   1.404  12.007
46985W        W10709  17.273  32.102   0.922
46986W        W10710  16.280  17.698   4.333
46987W        W10711  28.124   5.757   1.732
46988W        W10712   1.954  12.264  10.482
46989W        W10713  39.328  12.723  14.333
46990W        W10714   0.981  33.016   3.157
46991W        W10715   8.716   7.320  12.497
46992W        W10716  36.916  24.598  10.995
46993W        W10717  36.026   9.282   4.134
46994W        W10718  26.187   8.812  12.037
46995W        W10719   8.662  10.732  12.572
46996W        W10720  12.814  32.113   3.317
46997W        W10721  16.792  29.514   4.154
46998W        W10722  29.584  10.286  13.353
46999W        W10723  25.161   2.913  10.624
47000W        W10724  20.120  11.830   2.277
47001W        W10725  42.988   9.693   4.725
47002W        W10726  15.667   0.770  10.408
47003W        W10727  29.555  37.901  11.994
47004W        W10728  28.182  16.747   0.420
47005W        W10729  25.159  26.077   2.722
47006W        W10730   6.378  19.241  14.366
47007W        W10731  15.240   7.337   0.920
47008W        W10732  17.125   5.741  12.359
47009W        W10733  26.970  11.227  11.474
47010W        W10734   9.778   9.324  13.883
47011W        W10735  38.835   9.362   1.906
47012W        W10736  44.984  41.407   2.672
47013W        W10737   8.263  38.865   4.838
47014W        W10738  28.055  14.214  13.807
47015W        W10739  30.651  31.644   0.397
47016W        W10740   1.248  15.102  12.966
47017W        W10741   0.750  21.137  14.864
47018W        W10742  22.009  39.005   0.307
47019W        W10743  27.447  39.812  11.542
47020W        W10744  25.637  39.364   2.892
47021W        W10745  40.545  24.189  11.999
47022W        W10746  13.318  35.012  10.080
47023W        W10747  43.281  40.349  12.467
47024W        W10748  22.221  28.629  10.472
47025W        W10749  11.206  11.796  13.799
47026W        W10750  40.894  12.683   4.750
47027W        W10751  15.621  17.604  14.290
47028W        W10752   5.363  18.158   1.934
47029W        W10753  27.549  26.572   4.215
47030W        W10754  38.875  38.838  11.579
47031W        W10755   7.373  32.620   3.379
47032W        W10756  16.276  38.017   1.244
47033W        W10757   4.396  39.040  13.330
47034W        W10758  24.585  37.044   0.319
47035W        W10759  16.618  26.587   0.243
47036W        W10760  23.040  12.699  11.601
47037W        W10761   4.330  27.629   4.826
47038W        W10762  37.429   0.475  12.864
47039W        W10763  18.109  32.970   3.677
47040W        W10764   8.790  33.398   0.935
47041W        W10765  14.288  29.130  14.968
47042W        W10766  44.472  13.612   3.282
47043W        W10767   7.416   5.434   4.302
47044W        W10768  42.494   8.253  12.364
47045W        W10769  11.757  42.439   2.378
47046W        W10770  25.612  13.650   0.944
47047W        W10771   2.927  42.324  14.792
47048W        W10772  19.195  23.674   1.277
47049W        W10773  17.297  27.055   3.344
47050W        W10774  44.784  33.504   3.296
47051W        W10775  21.684  36.054   2.309
47052W        W10776  35.947   2.877   3.867
47053W        W10777  11.210  36.565  12.051
47054W        W10778  22.229  33.403  11.582
47055W        W10779  21.710  17.067   9.927
47056W        W10780  30.619  37.464   0.432
47057W        W10781   4.282  28.048  14.449
47058W        W10782  22.244  27.597   2.370
47059W        W10783  21.738   1.429   4.236
47060W        W10784  26.466  29.610  13.487
47061W        W10785  30.117  21.719  13.385
47062W        W10786  43.988  12.831   0.313
47063W        W10787   8.890   5.382   1.817
47064W        W10788  24.073   9.768  14.275
47065W        W10789  35.492  23.059  13.039
47066W        W10790  35.894   3.392  11.919
47067W        W10791   5.880  26.160  14.454
47068W        W10792  38.069  22.247  11.572
47069W        W10793  14.336  36.876  11.578
47070W        W10794   2.845  33.972   3.257
47071W        W10795   0.786  25.540   4.708
47072W        W10796  16.171  39.987   3.650
47073W        W10797   1.757  31.419  11.587
47074W        W10798  40.890  27.598   4.124
47075W        W10799  36.082  12.818   0.872
47076W        W10800   9.705  34.118   3.221
47077W        W10801  11.353  37.995   3.207
47078W        W10802   2.300   3.229  11.444
47079W        W10803  25.572  13.622  10.637
47080W        W10804  10.667   8.378   3.303
47081W        W10805  26.162  31.026  13.908
47082W        W10806  38.519   1.787  13.058
47083W        W10807  40.442  15.819  13.351
47084W        W10808  19.628  34.869  12.412
47085W        W10809  14.233   7.269   2.694
47086W        W10810  35.068  20.624   4.118
47087W        W10811  16.197  25.132   0.467
47088W        W10812  41.408  29.424  12.580
47089W        W10813  42.992  44.000   0.389
47090W        W10814   0.805  29.933  10.447
47091W        W10815  15.680  33.023   0.796
47092W        W10816  43.274  32.886  11.020
47093W        W10817   5.432  26.201   1.221
47094W        W10818  27.087  32.544   4.182
47095W        W10819  32.026  15.091   1.302
47096W        W10820   2.779  21.685  13.429
47097W        W10821  42.964  23.129   2.878
47098W        W10822   4.447  23.660  11.055
47099W        W10823  36.532  17.791  12.964
47100W        W10824  40.910  43.793  12.035
47101W        W10825  21.101  40.361  11.552
47102W        W10826  24.204  25.699   0.310
47103W        W10827   0.346  36.393   3.822
47104W        W10828  21.203  32.391   0.348
47105W        W10829   0.424   8.726   0.281
47106W        W10830  38.989  32.944   1.764
47107W        W10831  21.247   6.307  10.911
47108W        W10832  13.786   9.719   4.731
47109W        W10833  42.316  29.174   3.158
47110W        W10834  12.304  41.491  14.284
47111W        W10835  39.868  21.206  14.281
47112W        W10836   8.704  41.000   0.337
47113W        W10837  29.976  23.523  11.415
47114W        W10838  40.944  28.962   4.621
47115W        W10839   5.434  17.620  14.356
47116W        W10840  43.476   8.280  12.530
47117W        W10841  27.977  15.588   4.663
47118W        W10842   5.688  17.230   2.763
47119W        W10843  11.696  22.727  14.780
47120W        W10844  17.568  12.836   1.271
47121W        W10845  24.625  38.430  12.556
47122W        W10846   1.447  38.405   3.771
47123W        W10847  10.250   0.321  13.991
47124W        W10848  39.436  37.430  11.012
47125W        W10849  30.000  23.167   1.734
47126W        W10850  37.867  13.300  11.055
47127W        W10851  22.100  14.236   4.619
47128W        W10852  18.742   2.797   2.249
47129W        W10853  43.879  16.750   1.810
47130W        W10854  38.956  34.446   3.271
47131W        W10855  18.224  27.134   3.726
47132W        W10856   3.293   4.391  11.087
47133W        W10857  10.676  31.448  12.503
47134W        W10858  31.898  28.668  11.435
47135W        W10859  33.424  30.432   0.870
47136W        W10860  26.094  44.845   1.867
47137W        W10861   4.852   5.382   0.736
47138W        W10862  27.473  18.779   4.609
47139W        W10863   0.489   0.326  12.082
47140W        W10864  30.130  11.831   4.175
47141W        W10865  37.481  35.980   4.739
47142W        W10866  11.371  20.125  14.856
47143W        W10867  12.216  41.044   2.292
47144W        W10868   3.941   9.882  14.932
47145W        W10869  19.251  31.939  13.447
47146W        W10870   1.343  32.410  14.989
47147W        W10871  17.607   5.796   5.102
47148W        W10872  33.396  26.612   5.295
47149W        W10873  31.507  11.712   3.237
47150W        W10874   7.740  44.334  12.896
47151W        W10875  21.238  27.526   3.683
47152W        W10876  24.683  40.449   3.165
47153W        W10877  34.404  41.504  12.908
47154W        W10878   7.243  26.652   1.335
47155W        W10879   9.672   2.966  10.611
47156W        W10880   6.280  12.657  14.477
47157W        W10881   4.337   0.312  11.129
47158W        W10882  28.608  15.310   0.842
47159W        W10883  25.668  43.359  14.859
47160W        W10884   5.851  20.551   3.786
47161W        W10885  24.711  13.301  11.986
47162W        W10886  21.247   9.275  11.569
47163W        W10887   1.775  15.765   0.387
47164W        W10888  28.498   5.196  13.794
47165W        W10889   1.839  12.788   4.661
47166W        W10890   9.300   2.918  10.508
47167W        W10891  37.370   5.862   0.345
47168W        W10892  17.650  35.566   0.871
47169W        W10893   7.179  36.078  10.470
47170W        W10894   4.924  31.053  10.148
47171W        W10895  37.542  20.632  12.860
47172W        W10896  29.576   8.272   1.393
47173W        W10897  13.741   2.903   4.223
47174W        W10898  20.087   5.892  13.989
47175W        W10899  10.815   1.379   3.863
47176W        W10900  20.754  36.891   1.214
47177W        W10901   5.383  44.439   3.383
47178W        W10902  40.854  41.973   2.764
47179W        W10903  37.395   1.866   0.945
47180W        W10904  20.161  43.854   1.417
47181W        W10905  33.468  25.210  14.968
47182W        W10906  42.493  28.134   0.810
47183W        W10907  29.427   3.441  11.008
47184W        W10908   2.395  24.679   1.442
47185W        W10909  17.677  13.841  13.042
47186W        W10910  12.151  17.782   3.769
47187W        W10911  44.480  18.562   1.754
47188W        W10912  40.483  43.313   1.250
47189W        W10913  21.178  24.230  11.587
47190W        W10914  40.531  24.657   3.836
47191W        W10915  19.761   7.354  14.429
47192W        W10916  12.279  22.616   4.674
47193W        W10917   7.373  36.501   2.223
47194W        W10918   0.946  32.096   1.935
47195W        W10919  29.133   0.352   4.159
47196W        W10920  25.650  34.908  11.874
47197W        W10921   1.832  41.339   1.432
47198W        W10922  39.851   2.892   0.819
47199W        W10923  36.953  17.185  10.440
47200W        W10924  40.447   9.876  12.073
47201W        W10925  16.647  44.963  12.358
47202W        W10926  36.942  34.984  14.846
47203W        W10927   4.796  33.506  11.585
47204W        W10928  29.497   1.467   2.797
47205W        W10929   1.482  27.043   1.394
47206W        W10930  40.343  43.969   1.917
47207W        W10931  42.442  32.068   3.714
47208W        W10932   8.260  28.127   0.394
47209W        W10933  27.572  35.578  14.392
47210W        W10934  36.560  14.324   4.174
47211W        W10935  42.487  37.843   4.820
47212W        W10936  21.626  11.161   4.119
47213W        W10937   3.907  11.163  11.579
47214W        W10938  10.720  37.892   4.277
47215W        W10939   1.805  32.005  13.510
47216W        W10940  34.592  34.007   1.416
47217W        W10941  15.788  42.508   3.183
47218W        W10942  30.989  30.924  14.966
47219W        W10943  27.078  15.773  14.434
47220W        W10944  20.233  40.312   3.222
47221W        W10945  44.953  25.195  12.439
47222W        W10946  19.181  38.066   4.200
47223W        W10947   4.858  12.856   2.391
47224W        W10948  30.140  12.795   1.717
47225W        W10949  29.645  14.246   1.323
47226W        W10950  38.060  14.120   3.315
47227W        W10951  18.660   5.866  14.494
47228W        W10952  43.810  21.214  13.975
47229W        W10953  35.906   1.867   1.411
47230W        W10954  42.406  17.732   1.758
47231W        W10955   4.264  41.350   3.829
47232W        W10956   4.211  29.152  14.297
47233W        W10957  35.037  44.498  13.985
47234W        W10958   1.325  27.133  10.467
47235W        W10959  21.070  29.115  13.391
47236W        W10960   1.920  23.621   3.867
47237W        W10961   6.225  38.926   4.749
47238W        W10962   3.846  44.809   1.857
47239W        W10963  17.705   2.906   0.730
47240W        W10964  29.104  41.494   2.304
47241W        W10965   5.338   0.781  10.407
47242W        W10966  16.149   8.763   5.147
47243W        W10967  12.321   8.781  12.361
47244W        W10968   6.336  28.163   5.131
47245W        W10969  43.792   1.861   2.276
47246W        W10970  37.910  14.731   2.192
47247W        W10971   4.917  15.804   2.249
47248W        W10972  28.176  10.264  10.981
47249W        W10973  16.584  19.593  11.545
47250W        W10974  15.295  32.585  13.865
47251W        W10975  39.062  38.935   0.841
47252W        W10976  23.193  37.355  12.010
47253W        W10977   0.454  18.735   4.242
47254W        W10978  38.445  41.377   4.793
47255W        W10979   3.318  22.066   1.870
47256W        W10980  15.668  34.487   0.419
47257W        W10981   0.353  27.191   3.772
47258W        W10982  20.160  17.711   3.671
47259W        W10983  31.001   9.727  14.946
47260W        W10984   4.411  29.133   4.314
47261W        W10985  37.023  19.265   3.355
47262W        W10986  11.308  28.153  13.429
47263W        W10987   3.269  13.169  13.015
47264W        W10988  35.464  32.559  10.514
47265W        W10989  33.516  21.641   3.752
47266W        W10990  22.641  30.942  12.884
47267W        W10991  13.138  41.816   4.279
47268W        W10992  37.352  14.695   3.206
47269W        W10993  19.722  28.530   0.957
47270W        W10994  37.581  38.353   4.701
47271W        W10995  38.882  21.745  13.813
47272W        W10996  12.632  43.430  10.988
47273W        W10997  26.565  22.696   0.736
47274W        W10998  13.830  12.123   3.794
47275W        W10999  40.331  21.143   9.935
47276W        W11000  41.945  18.715   1.300
47277W        W11001  23.031   9.236   2.264
47278W        W11002  26.525  43.472   0.767
47279W        W11003  40.393  16.678   4.238
47280W        W11004  33.509   3.409  10.634
47281W        W11005  15.125  25.693   1.447
47282W        W11006  32.955  25.094   1.874
47283W        W11007  12.314  31.012  13.436
47284W        W11008   3.812  27.006  14.304
47285W        W11009  34.931  27.965   3.640
47286W        W11010   6.721  27.021  11.992
47287W        W11011  28.484   1.830   0.273
47288W        W11012  14.170  23.186  12.033
47289W        W11013  17.719  41.983  10.433
47290W        W11014  31.554   2.808   3.682
47291W        W11015  40.484  13.254  10.459
47292W        W11016  44.264  38.352   2.679
47293W        W11017   8.891  21.098   5.142
47294W        W11018  24.173  37.336   2.323
47295W        W11019  26.207   5.689   2.876
47296W        W11020  19.576   6.824  12.935
47297W        W11021  29.110  41.982  10.965
47298W        W11022  31.454  21.221  11.581
47299W        W11023  17.116  44.768   2.808
47300W        W11024  10.787  12.710   4.670
47301W        W11025   5.376  27.981  11.395
47302W        W11026   5.772   5.746   3.355
47303W        W11027   5.840  18.126   1.338
47304W        W11028  24.489  37.054  12.449
47305W        W11029  28.070   2.955  13.319
47306W        W11030  12.827  25.526  13.516
47307W        W11031   8.385  13.602  14.401
47308W        W11032   1.436  20.158   2.367
47309W        W11033  17.151  13.219   1.435
47310W        W11034  32.539   1.306   3.366
47311W        W11035  14.714   7.853  12.369
47312W        W11036   1.330   0.827   1.259
47313W        W11037   6.221  36.441  13.528
47314W        W11038   5.226   4.285   4.120
47315W        W11039  28.435   2.406  11.446
47316W        W11040  24.712  22.081   2.255
47317W        W11041  17.157  23.182   3.796
47318W        W11042  18.602  14.292  11.915
47319W        W11043  22.671  37.941  14.483
47320W        W11044  14.778  11.755  11.093
47321W        W11045  29.157   9.335  13.536
47322W        W11046  36.562   3.364   5.291
47323W        W11047  18.591  33.944   3.784
47324W        W11048  39.990  28.162   1.899
47325W        W11049  22.535  26.513  10.451
47326W        W11050  26.960   6.289   2.263
47327W        W11051  11.754  21.056  13.046
47328W        W11052  38.053  40.883   1.216
47329W        W11053  13.679  13.609  14.810
47330W        W11054   0.794  22.729   2.758
47331W        W11055  21.212  12.719   1.888
47332W        W11056  33.445   4.320   2.265
47333W        W11057   2.442   6.854  14.788
47334W        W11058  44.818  36.582   3.693
47335W        W11059  25.493  25.152   1.255
47336W        W11060  16.084  11.734  13.422
47337W        W11061  11.282  16.762   4.614
47338W        W11062  15.258  10.847   2.846
47339W        W11063  28.466  15.728   2.690
47340W        W11064  31.423  18.662   1.753
47341W        W11065  44.865   2.791  13.975
47342W        W11066  30.062   6.920  13.412
47343W        W11067  28.641  21.067   3.726
47344W        W11068  43.784  12.286   0.333
47345W        W11069  28.593  20.598   3.669
47346W        W11070  10.714  29.429  10.972
47347W        W11071  13.199  27.944   4.700
47348W        W11072  35.107  27.545  12.577
47349W        W11073  37.468  39.447  14.958
47350W        W11074   8.160  43.772  13.902
47351W        W11075  24.172  28.023   3.711
47352W        W11076  28.086   0.880  14.453
47353W        W11077   5.831  14.239   0.749
47354W        W11078   5.851  29.549   1.348
47355W        W11079  22.080  13.308  10.972
47356W        W11080  35.575   1.279  12.451
47357W        W11081  23.592  15.796   3.850
47358W        W11082  27.975  31.934  10.903
47359W        W11083  31.642  14.762  14.903
47360W        W11084  23.705  14.709  10.506
47361W        W11085   7.318  15.682  14.025
47362W        W11086  27.564  25.174   3.807
47363W        W11087  27.982  32.445   2.745
47364W        W11088   1.429  12.321   3.356
47365W        W11089  11.813  38.870   2.402
47366W        W11090  35.534   6.185   2.755
47367W        W11091  35.917  26.554   2.694
47368W        W11092  44.396   5.792  12.080
47369W        W11093  23.698   7.712  10.438
47370W        W11094  33.972  16.803  11.932
47371W        W11095   4.811  10.743  13.053
47372W        W11096  34.412  16.573   5.167
47373W        W11097   4.340  21.025   4.614
47374W        W11098  10.730  13.249  13.466
47375W        W11099  38.471  32.447   3.852
47376W        W11100  26.497  13.756   3.694
47377W        W11101  36.865  24.596   0.957
47378W        W11102  36.391  31.582  12.563
47379W        W11103  20.677  11.827  14.876
47380W        W11104   2.448   7.177   2.801
47381W        W11105   1.373  24.023  10.961
47382W        W11106   8.346  27.495  10.976
47383W        W11107  34.981  35.519   4.769
47384W        W11108  42.853  41.867  12.563
47385W        W11109  39.396   2.278   0.409
47386W        W11110  23.493  13.760  10.990
47387W        W11111  37.998  26.995  13.543
47388W        W11112  30.994   2.227   1.894
47389W        W11113  20.187  36.388  10.548
47390W        W11114   3.307  22.665  14.453
47391W        W11115  36.438   8.699  10.902
47392W        W11116  33.006  18.622  13.352
47393W        W11117  30.473   5.841   4.653
47394W        W11118   1.876   7.305  12.991
47395W        W11119  28.481  44.904  14.900
47396W        W11120  44.432  32.402  11.454
47397W        W11121  31.903   4.893  11.009
47398W        W11122  35.439  10.852  10.580
47399W        W11123  39.345  28.462   1.738
47400W        W11124   1.300  20.566   4.182
47401W        W11125  42.332  26.693   1.381
47402W        W11126  41.356  31.580   2.771
47403W        W11127  37.011   6.212  14.960
47404W        W11128  18.288  25.608   3.263
47405W        W11129  26.584  28.105  14.419
47406W        W11130   1.792  42.972   2.292
47407W        W11131  38.441   7.192   0.818
47408W        W11132  28.183   4.363   4.217
47409W        W11133   9.291  39.520   3.148
47410W        W11134  11.835  25.472   3.290
47411W        W11135  36.931  15.299   9.442
47412W        W11136  42.338  35.947   0.768
47413W        W11137  10.752  16.228   1.779
47414W        W11138   4.229  27.125   4.339
47415W        W11139  43.425  34.487  11.438
47416W        W11140  22.104  31.615  14.407
47417W        W11141  36.544   8.218  13.410
47418W        W11142   1.465  22.206  13.029
47419W        W11143  26.603  38.512  14.476
47420W        W11144   1.250  14.254  11.980
47421W        W11145   1.847  34.500   4.754
47422W        W11146  17.667  29.950  10.435
47423W        W11147  20.159  19.582   2.210
47424W        W11148  12.244  21.022  13.473
47425W        W11149  32.892  14.142  10.961
47426W        W11150  38.333   0.493   2.182
47427W        W11151  11.716  42.523  13.425
47428W        W11152  43.346  15.170  11.106
47429W        W11153  13.215  24.008   2.836
47430W        W11154  32.070  13.841  13.874
47431W        W11155  35.094  34.030  14.910
47432W        W11156  38.052  28.442  10.553
47433W        W11157  14.303  24.066   0.468
47434W        W11158  31.600  21.042  12.370
47435W        W11159  10.239  22.108   3.239
47436W        W11160  29.512  36.937  12.367
47437W        W11161  24.541  30.492  13.857
47438W        W11162  19.572  29.947   2.408
47439W        W11163  44.882  37.553   5.211
47440W        W11164   2.416  19.131   0.296
47441W        W11165  25.977  29.445   0.252
47442W        W11166  37.977  44.486   1.889
47443W        W11167  42.850   9.244  13.473
47444W        W11168  35.587  12.625  13.539
47445W        W11169  23.630  30.011   0.806
47446W        W11170  44.350  12.312   3.191
47447W        W11171  32.082  39.319  12.855
47448W        W11172  14.744   5.824   0.856
47449W        W11173   3.414  28.097   4.117
47450W        W11174  35.431  12.147   0.797
47451W        W11175  43.309   5.379   3.203
47452W        W11176  20.704  39.534  13.357
47453W        W11177  30.030  13.844   2.847
47454W        W11178  30.063  30.960  11.118
47455W        W11179   5.304  23.226  14.382
47456W        W11180   7.713  43.884  12.504
47457W        W11181  33.128  31.953   4.727
47458W        W11182  42.960  29.955   2.696
47459W        W11183   6.313  40.348   1.387
47460W        W11184  30.035  24.528   1.302
47461W        W11185  29.030   9.880   5.281
47462W        W11186   0.330  28.120   0.863
47463W        W11187  21.649  41.389  10.631
47464W        W11188  20.557  32.613  11.880
47465W        W11189  37.911  37.923  14.316
47466W        W11190  31.571   6.904  10.452
47467W        W11191  32.061   9.650  11.020
47468W        W11192  13.720   6.272   2.677
47469W        W11193  41.006   9.778   0.746
47470W        W11194  24.121  43.944   1.740
47471W        W11195  41.967  26.583  10.636
47472W        W11196   6.890  20.230   4.736
47473W        W11197  40.869  44.778   2.687
47474W        W11198  22.710   2.787   1.907
47475W        W11199  17.077  13.224   4.728
47476W        W11200  31.527   0.886   2.670
47477W        W11201   0.975   8.706  14.448
47478W        W11202  26.019  44.957  10.908
47479W        W11203  36.937   8.175  11.580
47480W        W11204  34.957  35.917  12.930
47481W        W11205  36.530  10.203  10.938
47482W        W11206   0.335  26.132   1.379
47483W        W11207  19.237  25.040   0.392
47484W        W11208  36.009  38.938  14.838
47485W        W11209  21.532   6.833  10.531
47486W        W11210   0.742  31.513  11.075
47487W        W11211  41.378  34.057   5.148
47488W        W11212  21.576  44.436  11.942
47489W        W11213   5.244  28.146  14.894
47490W        W11214  42.866  41.989   0.786
47491W        W11215  43.325  10.230   0.901
47492W        W11216   5.276  21.063  11.897
47493W        W11217  21.747  44.994  11.470
47494W        W11218  18.574   2.249   0.392
47495W        W11219  39.483  11.807  12.448
47496W        W11220  21.250  26.975  11.553
47497W        W11221  11.627  42.895  13.542
47498W        W11222  11.195  28.600  13.519
47499W        W11223  28.007  23.158  11.543
47500W        W11224  12.748  34.062  10.602
47501W        W11225  19.533  30.563  13.374
47502W        W11226  42.857  42.816  13.314
47503W        W11227  43.445  14.715  12.081
47504W        W11228  40.849   7.252  11.090
47505W        W11229  26.177  22.242   1.801
47506W        W11230  32.133  37.883  13.399
47507W        W11231  11.241  43.766   1.328
47508W        W11232  10.167   8.169  11.095
47509W        W11233  38.962   5.933  13.394
47510W        W11234   5.786  44.807  10.916
47511W        W11235  40.049   8.792  13.812
47512W        W11236  25.617  12.746  14.857
47513W        W11237  34.409  14.596  13.379
47514W        W11238   9.286  32.025   1.424
47515W        W11239  39.022  37.582   9.934
47516W        W11240  33.082   3.854   0.731
47517W        W11241  44.479   0.331   0.892
47518W        W11242  20.241   1.370  10.512
47519W        W11243  24.192  30.138  11.088
47520W        W11244   3.335  25.705   0.437
47521W        W11245  37.018   6.746   4.318
47522W        W11246   6.879  13.238   4.710
47523W        W11247  12.802  29.151  14.031
47524W        W11248  26.493   2.867   1.766
47525W        W11249  21.197   6.188   3.211
47526W        W11250  24.593  31.586  14.848
47527W        W11251   3.857  17.608   0.859
47528W        W11252   4.290  27.476  14.364
47529W        W11253  32.134  16.289   5.121
47530W        W11254  37.420  13.701   2.236
47531W        W11255   7.689  32.931  11.556
47532W        W11256  42.301  32.979  13.333
47533W        W11257  20.062  30.158  11.450
47534W        W11258  41.459  16.302   1.419
47535W        W11259   5.716  31.904   4.617
47536W        W11260  16.585  34.393   3.320
47537W        W11261  35.060   7.393  13.431
47538W        W11262  21.164   3.817   1.231
47539W        W11263  20.754  28.059  11.498
47540W        W11264  28.062   4.208   3.824
47541W        W11265  21.680  16.220   4.131
47542W        W11266  42.438  23.096   1.413
47543W        W11267  24.192  40.039  11.599
47544W        W11268  31.462  15.304   3.707
47545W        W11269  26.188  25.582  12.981
47546W        W11270  15.167  38.966   3.341
47547W        W11271  41.446  13.727  14.929
47548W        W11272  39.484  27.467   1.302
47549W        W11273   5.221  15.272  12.432
47550W        W11274  43.891  29.054   3.225
47551W        W11275   2.345  21.241  10.604
47552W        W11276  19.137  27.539  12.945
47553W        W11277  25.521  29.049   2.722
47554W        W11278  42.518  25.093   3.212
47555W        W11279  41.926  31.938  11.984
47556W        W11280  28.107  32.541  10.417
47557W        W11281  11.186   2.364   4.760
47558W        W11282  33.069  12.661   1.838
47559W        W11283   9.847   6.373   1.241
47560W        W11284  25.218  33.967   3.711
47561W        W11285  19.674  21.063  12.019
47562W        W11286  36.051   1.429   2.390
47563W        W11287  15.643  17.634   1.291
47564W        W11288   1.245  35.415  10.505
47565W        W11289  12.673   0.484   3.751
47566W        W11290  40.815  28.185  11.580
47567W        W11291  18.113  40.359   1.255
47568W        W11292   4.778   1.268   4.812
47569W        W11293   1.449   2.846   0.473
47570W        W11294  17.673   6.276  13.933
47571W        W11295  25.557  16.642   3.327
47572W        W11296   9.749   5.918   2.298
47573W        W11297  25.560  20.714  10.951
47574W        W11298  43.921  19.212  12.387
47575W        W11299  33.924  40.840   0.245
47576W        W11300  36.592  32.926  13.997
47577W        W11301  15.738  38.518   1.450
47578W        W11302   0.297  16.799   3.240
47579W        W11303  40.839  41.919   1.753
47580W        W11304  19.115  13.699  10.092
47581W        W11305  36.502  37.568   3.734
47582W        W11306  12.683  10.271  10.533
47583W        W11307  44.495   1.372  12.013
47584W        W11308  41.404  13.633  12.986
47585W        W11309   4.815  17.753  12.925
47586W        W11310  30.987  29.974  10.453
47587W        W11311  31.052  34.997   4.171
47588W        W11312  22.630  29.617   2.709
47589W        W11313  34.012  17.770  13.882
47590W        W11314  27.589   1.829   3.634
47591W        W11315   9.252  29.473   1.385
47592W        W11316   2.819  21.513   3.856
47593W        W11317  20.554  44.420   0.781
47594W        W11318  32.003  14.693   5.671
47595W        W11319  42.788  34.479   0.890
47596W        W11320  16.648  17.667   3.666
47597W        W11321  41.023   9.199   1.385
47598W        W11322  16.760  14.229  13.996
47599W        W11323  42.818   0.797   5.165
47600W        W11324  41.897  43.318  14.934
47601W        W11325  40.435  29.109   1.237
47602W        W11326   3.837  26.698  13.027
47603W        W11327  44.817   8.333   4.658
47604W        W11328  28.572  27.162  10.644
47605W        W11329  21.187  35.039  12.491
47606W        W11330  41.913  23.199  11.937
47607W        W11331  14.320  13.765  10.405
47608W        W11332  41.522  24.039   0.462
47609W        W11333  15.151  29.932  12.898
47610W        W11334  33.454  31.924  11.989
47611W        W11335   4.445  28.011  12.414
47612W        W11336   5.922  24.064  11.439
47613W        W11337  26.599   2.252  10.555
47614W        W11338  16.123  41.480   1.231
47615W        W11339   3.885  41.862  14.462
47616W        W11340   1.289   0.441  12.966
47617W        W11341  25.616  19.575   5.254
47618W        W11342  26.179  35.932   3.856
47619W        W11343   8.359  26.026   2.724
47620W        W11344  26.579  17.249  12.386
47621W        W11345   7.303  12.717  11.562
47622W        W11346  24.167   5.839  14.338
47623W        W11347  44.797  24.659   2.331
47624W        W11348  27.068   2.231   0.903
47625W        W11349  24.178  19.739  13.316
47626W        W11350  18.758  16.738  12.037
47627W        W11351  43.996  17.271  12.068
47628W        W11352   6.737  30.546  13.423
47629W        W11353   6.363   9.779  11.560
47630W        W11354  43.919  14.250   4.186
47631W        W11355  12.199  32.583  14.905
47632W        W11356  38.350  26.598  11.518
47633W        W11357  35.006   5.241  10.463
47634W        W11358  24.709   1.797  12.989
47635W        W11359  25.215  39.556  12.863
47636W        W11360  12.718  41.792  14.359
47637W        W11361   8.853  34.532  11.978
47638W        W11362  17.754   8.216  13.323
47639W        W11363  12.717  24.496  10.970
47640W        W11364  33.481  11.840   1.763
47641W        W11365  29.107  35.557  12.087
47642W        W11366  21.618  12.705   1.210
47643W        W11367  30.456   7.184  13.936
47644W        W11368  31.036  35.370   0.477
47645W        W11369  10.259  19.688   0.861
47646W        W11370  24.578  42.995   1.394
47647W        W11371  34.569   0.341   0.853
47648W        W11372  23.650  33.127  11.387
47649W        W11373  37.547   3.341   4.710
47650W        W11374  39.456  39.859   4.680
47651W        W11375  26.173  25.506   0.399
47652W        W11376   3.868  20.744   1.697
47653W        W11377   3.265   0.899  11.970
47654W        W11378   4.756   5.338  14.461
47655W        W11379  26.635  27.056   3.736
47656W        W11380  25.043  11.219   0.958
47657W        W11381   6.330  43.813   3.732
47658W        W11382  27.044   2.909   3.870
47659W        W11383  21.554  19.194   2.878
47660W        W11384  40.495  18.551   2.802
47661W        W11385  10.261  33.087   0.728
47662W        W11386   0.888   5.881   4.307
47663W        W11387   6.839   9.698  12.464
47664W        W11388  38.420  23.081  11.965
47665W        W11389  37.013  21.141   5.141
47666W        W11390  22.680   1.902   2.722
47667W        W11391  25.152  42.925  11.048
47668W        W11392  39.957  16.586  12.419
47669W        W11393  42.937  40.879  14.004
47670W        W11394  36.038  24.559   4.629
47671W        W11395  27.665  34.012   4.350
47672W        W11396   0.831   1.383  13.044
47673W        W11397  15.098  34.895   1.713
47674W        W11398  39.907   9.759   1.738
47675W        W11399  29.144   9.812  10.970
47676W        W11400  33.015  28.478   3.295
47677W        W11401  28.061  19.168   0.243
47678W        W11402  25.629  33.053   1.210
47679W        W11403  29.587  43.801  14.026
47680W        W11404  44.505   4.430  11.028
47681W        W11405  35.950   2.232  12.454
47682W        W11406  27.532  33.516  11.440
47683W        W11407  34.920   1.847  14.287
47684W        W11408  18.553  18.187   2.190
47685W        W11409  42.942   5.317   0.788
47686W        W11410   0.955  10.708  11.552
47687W        W11411   6.841   0.774  12.439
47688W        W11412  38.883  30.450   1.892
47689W        W11413  14.695  31.074  12.833
47690W        W11414  22.170  39.943  12.029
47691W        W11415  33.891  22.100   0.460
47692W        W11416  13.639  43.413  14.870
47693W        W11417  35.409   8.350   4.672
47694W        W11418  22.589  11.298  11.472
47695W        W11419   7.242  25.705  12.385
47696W        W11420  28.569  31.919   2.770
47697W        W11421  10.166  28.476  11.126
47698W        W11422  37.043  42.376  12.376
47699W        W11423  11.809   7.722  14.461
47700W        W11424  41.347  39.557  13.824
47701W        W11425  20.046  10.258  12.980
47702W        W11426  29.507  41.793   2.684
47703W        W11427  12.633  30.646   1.723
47704W        W11428  15.795  38.028  13.478
47705W        W11429  44.457  22.100  11.027
47706W        W11430  28.013  29.601  13.968
47707W        W11431  32.979   8.260   4.129
47708W        W11432  41.903  30.560   3.196
47709W        W11433  26.578  15.721  13.855
47710W        W11434  27.992  31.531   1.803
47711W        W11435   2.449   5.305   2.302
47712W        W11436  41.939   3.245  11.963
47713W        W11437  13.260   0.801   0.375
47714W        W11438  16.713  26.007  14.874
47715W        W11439  43.849   0.472   0.361
47716W        W11440  17.588  38.386   4.116
47717W        W11441  22.243   6.234  11.587
47718W        W11442  39.336  23.103  13.433
47719W        W11443  39.388  40.829  12.988
47720W        W11444  15.592  38.872   4.131
47721W        W11445  37.571   6.706   0.330
47722W        W11446  19.091   2.430  10.604
47723W        W11447   9.774  14.750  14.879
47724W        W11448   6.338   0.800  11.993
47725W        W11449  26.115   1.842   4.823
47726W        W11450  36.412  22.127   0.887
47727W        W11451  33.969  30.014  11.446
47728W        W11452  18.789  32.495  10.891
47729W        W11453  38.542   2.471   3.697
47730W        W11454  32.066  25.147  13.040
47731W        W11455  25.619  19.165   1.898
47732W        W11456  20.589  16.647  11.128
47733W        W11457  13.651  42.285  10.477
47734W        W11458  19.742  44.983  13.432
47735W        W11459  32.591  32.013  11.516
47736W        W11460  32.959  24.065  12.526
47737W        W11461  19.195   4.220  11.375
47738W        W11462  26.018  35.077   0.878
47739W        W11463  28.437  10.296   1.927
47740W        W11464  14.588  24.517  14.984
47741W        W11465  22.147  44.457   4.715
47742W        W11466   0.876  21.544  10.415
47743W        W11467  10.879  10.845  11.940
47744W        W11468  31.057  31.626   0.454
47745W        W11469  21.678   0.783  13.944
47746W        W11470  23.990  24.213  12.355
47747W        W11471   9.252  29.583  13.530
47748W        W11472  14.127  18.594  14.400
47749W        W11473  21.620  17.573   0.279
47750W        W11474  38.964   8.717   2.234
47751W        W11475  30.135   2.945  11.107
47752W        W11476   9.148  22.192   2.291
47753W        W11477  11.724  23.700   0.347
47754W        W11478   4.339  27.990  12.004
47755W        W11479  27.980  20.763  10.901
47756W        W11480  28.172   9.820  12.945
47757W        W11481  32.521   2.808  14.009
47758W        W11482  32.934  38.846   0.843
47759W        W11483  23.723  24.590   0.910
47760W        W11484   6.838  14.637  14.405
47761W        W11485  17.113   1.912  11.476
47762W        W11486  32.040  40.002   2.312
47763W        W11487  26.511  21.661   3.770
47764W        W11488  27.022  31.557   4.145
47765W        W11489  19.160   0.291   2.394
47766W        W11490  44.348  36.593  10.551
47767W        W11491  21.099   2.839   0.779
47768W        W11492   8.184   2.815   2.823
47769W        W11493  20.710  26.135   1.803
47770W        W11494   8.799  44.842   2.342
47771W        W11495   0.884  33.011   3.862
47772W        W11496  23.542   0.416   4.728
47773W        W11497  16.210  35.407  10.478
47774W        W11498   8.315  19.260  14.984
47775W        W11499  14.210   9.648   4.325
47776W        W11500  26.461   7.830  12.414
47777W        W11501  10.675  13.732  13.821
47778W        W11502  34.084  27.530  12.828
47779W        W11503  35.559   3.221  13.822
47780W        W11504  19.687   6.678  14.285
47781W        W11505  33.017  25.707  11.105
47782W        W11506  24.635  33.612  14.993
47783W        W11507  35.602   2.890  13.389
47784W        W11508  23.004  40.418  13.893
47785W        W11509  18.610  38.517   2.305
47786W        W11510   4.853  31.059  12.889
47787W        W11511  13.796   4.341  13.434
47788W        W11512  43.963  38.454  14.846
47789W        W11513  30.634  17.764   0.306
47790W        W11514  16.257  40.405   3.802
47791W        W11515  22.722  35.067   3.657
47792W        W11516  32.957  19.135   4.811
47793W        W11517  24.190   9.342   0.428
47794W        W11518  33.928  28.575   1.863
47795W        W11519  35.917  22.717   3.263
47796W        W11520  43.419  12.159  11.948
47797W        W11521  43.507  18.072  10.636
47798W        W11522  14.146  13.119  12.946
47799W        W11523  15.230  37.455   3.292
47800W        W11524  31.581   1.937   4.662
47801W        W11525   8.176  35.896   3.806
47802W        W11526   5.777  20.525   1.412
47803W        W11527  28.025  30.449   2.369
47804W        W11528   8.191  38.478   4.773
47805W        W11529   3.828   9.773  11.448
47806W        W11530  28.603  34.885  14.321
47807W        W11531  24.047  40.446  14.794
47808W        W11532   2.759  19.749   2.207
47809W        W11533  25.029   2.757   0.341
47810W        W11534  31.609  17.636  12.010
47811W        W11535  21.027  31.538   2.319
47812W        W11536  16.171  26.991  10.929
47813W        W11537   1.941   5.428   3.717
47814W        W11538  23.108  33.410  10.537
47815W        W11539  23.596  23.565   4.296
47816W        W11540  10.702  41.375  12.868
47817W        W11541   9.707  30.071  11.505
47818W        W11542  37.039  35.487   2.694
47819W        W11543  41.938  11.277   1.880
47820W        W11544  26.091  13.249   0.877
47821W        W11545  10.718  20.562  14.771
47822W        W11546  10.834  19.043   1.896
47823W        W11547  22.535  24.503   0.358
47824W        W11548   0.938  15.701  10.452
47825W        W11549  22.179   0.433  10.531
47826W        W11550  29.061  43.859   3.317
47827W        W11551  30.437   0.874  12.975
47828W        W11552  34.934  35.445   2.696
47829W        W11553   5.782  18.162   4.312
47830W        W11554  25.476  26.647  10.947
47831W        W11555  15.819  41.951   2.780
47832W        W11556  33.964   6.216   1.427
47833W        W11557  15.193  31.629   4.807
47834W        W11558  27.077   1.917  14.473
47835W        W11559  34.047   3.245   1.840
47836W        W11560  12.795  12.756   4.269
47837W        W11561  16.088  41.799  13.871
47838W        W11562  22.013  20.207  12.397
47839W        W11563  34.397  44.770  11.952
47840W        W11564  19.142   1.262  14.312
47841W        W11565   3.275  28.529  12.955
47842W        W11566  18.687  26.974   4.274
47843W        W11567  31.635  27.047   3.674
47844W        W11568  22.546  20.595  10.939
47845W        W11569  37.562  26.165  10.980
47846W        W11570  39.399  33.073   4.342
47847W        W11571   2.300  33.122  12.002
47848W        W11572  26.464   2.390   3.640
47849W        W11573  20.248  12.327  11.047
47850W        W11574  43.347  30.037   2.679
47851W        W11575  15.800  29.589   2.254
47852W        W11576  28.544  17.778   2.690
47853W        W11577  10.365  10.203   3.349
47854W        W11578  43.331  11.276   4.711
47855W        W11579  25.714  33.939   1.278
47856W        W11580  29.089   0.905  11.545
47857W        W11581   4.853  25.215   0.832
47858W        W11582  43.937  23.124  14.415
47859W        W11583  25.704   7.747   0.334
47860W        W11584  37.916   7.902  10.559
47861W        W11585  44.837  17.205   2.882
47862W        W11586   2.417  10.812  11.060
47863W        W11587   4.304   9.766   0.801
47864W        W11588  10.319  16.168   1.413
47865W        W11589   9.249   4.257   0.863
47866W        W11590  32.020  43.006  13.496
47867W        W11591  13.143  44.273  12.901
47868W        W11592   5.881  34.085  13.980
47869W        W11593   7.771  20.523   3.330
47870W        W11594   0.273  14.225   0.287
47871W        W11595  21.085   6.250   2.347
47872W        W11596   8.843  25.500   2.318
47873W        W11597  11.294  28.548  11.485
47874W        W11598  29.966  24.485  12.389
47875W        W11599  28.067  18.559   1.801
47876W        W11600  38.373  36.056   4.831
47877W        W11601  41.299  25.538   4.731
47878W        W11602  40.479  25.518   4.267
47879W        W11603  13.607  25.567  13.870
47880W        W11604  39.370  38.530  10.979
47881W        W11605  33.048  40.514   0.794
47882W        W11606  44.410  25.078   9.975
47883W        W11607   1.795  34.958  13.328
47884W        W11608  13.730  21.675   4.304
47885W        W11609  12.212  17.790  10.570
47886W        W11610  43.948  18.759  12.986
47887W        W11611  42.017  11.183   2.805
47888W        W11612   4.798  15.207  10.497
47889W        W11613  38.923  31.146  12.398
47890W        W11614  38.921  34.542   0.290
47891W        W11615  14.320  26.991  14.808
47892W        W11616  18.730  16.635  11.382
47893W        W11617  18.147  16.300   3.746
47894W        W11618  43.993  31.932  10.636
47895W        W11619  27.498  42.449  13.939
47896W        W11620  16.267   2.783   2.695
47897W        W11621  15.248  14.109   3.228
47898W        W11622  29.015   7.701  14.448
47899W        W11623  19.757  33.901   1.383
47900W        W11624  19.087  22.599   2.209
47901W        W11625   1.297  13.644  14.493
47902W        W11626   5.408  27.012  14.404
47903W        W11627  41.000   0.494   3.350
47904W        W11628  37.900  20.573  10.991
47905W        W11629  23.652  41.853  11.404
47906W        W11630   9.252  32.091  14.345
47907W        W11631  37.900  31.948   0.855
47908W        W11632  27.691  19.101   2.847
47909W        W11633  32.127  26.526   0.966
47910W        W11634  29.571  25.597  14.957
47911W        W11635  22.687  20.065   0.366
47912W        W11636  32.519   1.424   2.389
47913W        W11637  35.028  20.679   2.373
47914W        W11638  32.594  30.064   2.703
47915W        W11639  39.881  23.002   3.736
47916W        W11640   5.234   0.336  11.894
47917W        W11641  20.767  29.634   2.819
47918W        W11642  28.066  15.661  14.886
47919W        W11643   5.830   9.177   0.878
47920W        W11644  27.454  23.546  10.641
47921W        W11645  35.892  39.527   0.412
47922W        W11646  15.212  15.582   4.647
47923W        W11647   9.750  36.894   1.794
47924W        W11648  14.225  17.133  13.006
47925W        W11649   2.472   8.365   2.355
47926W        W11650  12.138  27.971   0.390
47927W        W11651   1.793  35.954  14.366
47928W        W11652   5.396  16.182  11.033
47929W        W11653  18.228  15.675  13.021
47930W        W11654   7.318  28.132   2.211
47931W        W11655  26.192  36.572   3.868
47932W        W11656  20.648   8.790  13.821
47933W        W11657  29.446  39.410   3.747
47934W        W11658  40.465  24.677   1.821
47935W        W11659  20.136  24.079  12.866
47936W        W11660   1.887   8.222  12.567
47937W        W11661   1.383   6.374   1.431
47938W        W11662  15.096  25.098  10.945
47939W        W11663  16.214  18.594   4.352
47940W        W11664  28.671   4.889   2.232
47941W        W11665  17.611   7.848   2.868
47942W        W11666  11.245  12.649  13.994
47943W        W11667   0.446   5.816  10.463
47944W        W11668  16.636  41.433  14.451
47945W        W11669  15.685  34.573   2.224
47946W        W11670  25.047  23.188   3.678
47947W        W11671  42.980  26.028   0.402
47948W        W11672  33.092   9.174  10.543
47949W        W11673   0.436   8.207  11.009
47950W        W11674   6.225  41.863  10.473
47951W        W11675  25.672  21.208   3.825
47952W        W11676  39.937  23.093  11.485
47953W        W11677  44.926   9.653   3.150
47954W        W11678   5.843   6.360   4.149
47955W        W11679  26.101  44.435  14.893
47956W        W11680   2.409   3.225  12.344
47957W        W11681  30.950  36.907  11.946
47958W        W11682   2.900  41.934  14.411
47959W        W11683  43.297  35.458  14.475
47960W        W11684  28.519  29.596   0.784
47961W        W11685  18.172  12.739   4.228
47962W        W11686  18.738  17.227  12.406
47963W        W11687  22.525  10.851  11.531
47964W        W11688  16.256  10.841  11.505
47965W        W11689  36.451   4.449  13.432
47966W        W11690  31.956  21.531   2.392
47967W        W11691  37.379  14.710  11.412
47968W        W11692  15.161  16.727  13.384
47969W        W11693   7.345  37.576   0.313
47970W        W11694  13.599   9.303  11.584
47971W        W11695  27.613  30.051   3.688
47972W        W11696  44.276   5.731   3.161
47973W        W11697   2.874  13.164   0.966
47974W        W11698   4.429   8.689  14.789
47975W        W11699  11.205  42.323   0.386
47976W        W11700  11.279   7.271  12.417
47977W        W11701  44.924  40.843  12.355
47978W        W11702  43.840   5.811  14.025
47979W        W11703   9.365   3.274  10.460
47980W        W11704  41.365   4.939   0.307
47981W        W11705  27.685  23.000   2.189
47982W        W11706  26.682  21.595  12.444
47983W        W11707  16.732   8.823   2.391
47984W        W11708  43.493  41.357   3.260
47985W        W11709   7.382   5.207   2.288
47986W        W11710  37.084   8.760   0.898
47987W        W11711  23.676  28.018  11.884
47988W        W11712  13.330  29.531  11.496
47989W        W11713  42.354  37.971   2.265
47990W        W11714  15.186  33.109  14.006
47991W        W11715  41.474  12.622  12.827
47992W        W11716  20.705   8.844  13.446
47993W        W11717  26.168  35.567  14.472
47994W        W11718  44.450  30.501  13.383
47995W        W11719  22.126  40.905  13.312
47996W        W11720  36.520  29.994   4.308
47997W        W11721  10.374   6.395   2.715
47998W        W11722  31.425  18.104   1.904
47999W        W11723  26.185  12.765   4.145
48000W        W11724  18.789  20.127  12.001
48001W        W11725  11.287  24.178  10.492
48002W        W11726   5.208  32.000   0.928
48003W        W11727  24.200  23.525  10.467
48004W        W11728   2.803  23.670   0.254
48005W        W11729  28.948  36.510   2.760
48006W        W11730  37.450  33.097   1.865
48007W        W11731  36.062  44.935  10.973
48008W        W11732   7.836   1.334  14.392
48009W        W11733  21.118  41.792  10.601
48010W        W11734  18.108  16.088   0.934
48011W        W11735  35.437  33.059  13.967
48012W        W11736  32.138   0.825   2.835
48013W        W11737  30.939  18.110   0.915
48014W        W11738  43.435  24.598   3.677
48015W        W11739  27.146   7.392  11.479
48016W        W11740  38.921   2.954  14.765
48017W        W11741  26.532  15.105  14.318
48018W        W11742  40.028  24.159   1.727
48019W        W11743  13.744  32.630   1.926
48020W        W11744  38.518   3.945   0.350
48021W        W11745  41.015   5.803  10.415
48022W        W11746  23.991   4.373  10.464
48023W        W11747  27.148  12.728  10.563
48024W        W11748  21.525  36.048   0.430
48025W        W11749  14.734   3.452   2.237
48026W        W11750   7.873   2.760  13.001
48027W        W11751  37.025  10.718  12.964
48028W        W11752  35.400  19.054   1.418
48029W        W11753   3.217  11.757  14.795
48030W        W11754  39.055  34.867   0.867
48031W        W11755  13.215  40.323  10.151
48032W        W11756   8.766  35.498  12.897
48033W        W11757  30.524  11.220   4.345
48034W        W11758  18.221  24.563  11.956
48035W        W11759  20.217  38.508  12.438
48036W        W11760  10.664  21.248   1.758
48037W        W11761  34.383  11.625   0.323
48038W        W11762   7.324  27.593  12.035
48039W        W11763   5.229  29.491  13.524
48040W        W11764  42.972  20.255  12.512
48041W        W11765   6.711  26.019   1.848
48042W        W11766  16.100  16.577  12.096
48043W        W11767  22.645  33.557   1.840
48044W        W11768   6.776   7.373  10.440
48045W        W11769  41.297   6.803  11.400
48046W        W11770  14.608  24.681   4.303
48047W        W11771  39.469  10.368  11.127
48048W        W11772  25.069   2.862   4.779
48049W        W11773  36.870   0.262  14.514
48050W        W11774  36.517  24.131   2.863
48051W        W11775  32.968  18.192   2.403
48052W        W11776  13.114  21.638  12.881
48053W        W11777  13.608  11.297   2.722
48054W        W11778  34.120   6.257  10.062
48055W        W11779  17.732  33.535   0.364
48056W        W11780   8.720  20.710   1.745
48057W        W11781  13.647  31.907  10.481
48058W        W11782   2.261  10.235   1.264
48059W        W11783   0.869  29.047  14.969
48060W        W11784  27.996   4.259  14.490
48061W        W11785  25.182  28.180   2.883
48062W        W11786  19.127  10.265   1.871
48063W        W11787  16.672  28.588  14.396
48064W        W11788  17.762   2.235   4.209
48065W        W11789  23.160  19.724  14.329
48066W        W11790   4.727   4.208   1.917
48067W        W11791  18.283   2.442   1.753
48068W        W11792   6.415  32.939   1.782
48069W        W11793   5.414  17.776   3.724
48070W        W11794  30.136  37.571   0.337
48071W        W11795  10.779  25.186  12.877
48072W        W11796  41.021   6.262  14.405
48073W        W11797   6.209  38.951  13.547
48074W        W11798  16.243  39.322  14.476
48075W        W11799   9.789   6.799   2.849
48076W        W11800  42.956  37.499   4.332
48077W        W11801   8.704  29.987  11.094
48078W        W11802  33.611  44.413  10.037
48079W        W11803  24.177  37.548  10.128
48080W        W11804  38.503  41.847   0.740
48081W        W11805  32.017   5.835  13.983
48082W        W11806   6.723  20.183   2.348
48083W        W11807  24.230  35.514   0.344
48084W        W11808  12.648  18.695  13.021
48085W        W11809   5.221   4.283   2.867
48086W        W11810   8.799  41.923   2.250
48087W        W11811   6.335  38.037   0.306
48088W        W11812  21.181  44.954   4.677
48089W        W11813  13.783  26.678  14.404
48090W        W11814  26.679   4.376   3.311
48091W        W11815  24.032  25.504  14.938
48092W        W11816  34.370  21.202   2.410
48093W        W11817  30.429  33.462  14.397
48094W        W11818  24.227  25.519  13.379
48095W        W11819  26.176  16.230  14.506
48096W        W11820   7.742  38.532   2.807
48097W        W11821  39.868  44.965   1.896
48098W        W11822  35.432  31.615  13.844
48099W        W11823  22.229  29.098   3.367
48100W        W11824  29.450  22.698   4.780
48101W        W11825  44.413  22.159  14.489
48102W        W11826  12.621  20.074   3.373
48103W        W11827  36.952  36.879  10.506
48104W        W11828  33.533  19.570   3.289
48105W        W11829   7.762  11.342  14.824
48106W        W11830  13.109  36.002   2.278
48107W        W11831  31.437   5.252   2.733
48108W        W11832  29.919   7.743   3.822
48109W        W11833  21.178  12.695   9.562
48110W        W11834  20.614  40.930   4.160
48111W        W11835  26.984  39.810  10.944
48112W        W11836  25.005  18.140  14.762
48113W        W11837   0.466  18.267   4.726
48114W        W11838  32.971   9.179   4.200
48115W        W11839   8.394   8.709   0.737
48116W        W11840  22.225  11.148  10.621
48117W        W11841  17.695  37.996   4.656
48118W        W11842  22.220  37.057  12.997
48119W        W11843  30.638  37.547   3.681
48120W        W11844  33.383  11.767  13.529
48121W        W11845  36.976  20.611  13.936
48122W        W11846  19.242  39.820   2.357
48123W        W11847  32.932   4.366   2.191
48124W        W11848   1.894  27.477   3.637
48125W        W11849  11.182  12.711   1.404
48126W        W11850  40.902  14.180  14.014
48127W        W11851  24.612  21.541  11.383
48128W        W11852  20.740  28.101  10.916
48129W        W11853   7.264  43.902   4.310
48130W        W11854  34.114  23.128   4.186
48131W        W11855  37.906  41.430  12.378
48132W        W11856   0.450  28.030   0.251
48133W        W11857   3.927  36.940   0.883
48134W        W11858   3.424  25.547  11.922
48135W        W11859  34.567   6.212  10.423
48136W        W11860  44.354  34.877   1.251
48137W        W11861  12.184   0.390   3.223
48138W        W11862  31.122  20.178  12.514
48139W        W11863  18.670  36.470   1.935
48140W        W11864   1.307  34.911   4.828
48141W        W11865  41.406   8.779  10.637
48142W        W11866  38.495   7.385  14.332
48143W        W11867  42.863  22.515   1.292
48144W        W11868  43.801   1.307   4.267
48145W        W11869  19.597  17.673  11.944
48146W        W11870   7.768  15.315   4.226
48147W        W11871   8.736  10.204   2.888
48148W        W11872  38.924  31.902   2.414
48149W        W11873  17.212  22.123  13.376
48150W        W11874   9.657   2.344   2.667
48151W        W11875  18.655  14.628   3.720
48152W        W11876  32.546  26.676  11.951
48153W        W11877   1.803   0.845   3.244
48154W        W11878   7.400  20.213   1.820
48155W        W11879  19.051  32.967   3.351
48156W        W11880  14.708  19.544  14.872
48157W        W11881   9.326  31.070   3.185
48158W        W11882  37.537   6.219   0.375
48159W        W11883  16.714   3.753   3.314
48160W        W11884   7.832  15.632   9.947
48161W        W11885  15.786  28.163  10.912
48162W        W11886  14.677  40.389  10.015
48163W        W11887  42.499  24.146   2.886
48164W        W11888  16.230   2.923  14.417
48165W        W11889   9.754  12.198  11.995
48166W        W11890  22.598  41.463  12.530
48167W        W11891  43.813   5.841  12.459
48168W        W11892  26.609  19.138   1.865
48169W        W11893  22.732  27.076   1.914
48170W        W11894   6.335  14.149  11.107
48171W        W11895  26.473  12.615   2.854
48172W        W11896  15.233  39.812  10.515
48173W        W11897  30.069  39.827   4.821
48174W        W11898  16.649  40.498   0.314
48175W        W11899  37.906  30.520   3.167
48176W        W11900  42.307  19.239  11.042
48177W        W11901   2.875  19.101   4.264
48178W        W11902   4.276   9.751  10.466
48179W        W11903   0.338  33.900  10.628
48180W        W11904  21.191  22.102  13.870
48181W        W11905  17.652  40.837  12.473
48182W        W11906  30.087  11.666   1.802
48183W        W11907   5.772  27.157  11.439
48184W        W11908  24.074  44.439   2.857
48185W        W11909  11.638   9.733   0.923
48186W        W11910  26.954  30.099  12.551
48187W        W11911  27.066  14.725   1.705
48188W        W11912   3.290  13.844  12.842
48189W        W11913  38.887   1.974  11.078
48190W        W11914  24.672  19.703  13.940
48191W        W11915  15.601  37.361   4.667
48192W        W11916  14.215  21.585   0.966
48193W        W11917  41.512  10.734  14.877
48194W        W11918   9.665  31.552   3.779
48195W        W11919  36.440  28.177  12.972
48196W        W11920  25.168  31.039   4.642
48197W        W11921  31.529  27.635   1.245
48198W        W11922  34.988   0.830  13.974
48199W        W11923  17.233   9.342  10.055
48200W        W11924  34.600  17.724  13.516
48201W        W11925  40.893  22.696  13.949
48202W        W11926  19.056  26.188   3.310
48203W        W11927   2.324   5.894  13.333
48204W        W11928  29.587   2.789   4.621
48205W        W11929  41.484  39.849   4.724
48206W        W11930  35.580  22.090   2.762
48207W        W11931  41.311  43.974   0.276
48208W        W11932  39.967  31.642  11.926
48209W        W11933  37.971   1.874  10.901
48210W        W11934  20.238  28.120  13.509
48211W        W11935  16.214  21.250  11.534
48212W        W11936   3.843   3.427   2.813
48213W        W11937  35.871  10.156   3.152
48214W        W11938   2.951  24.621   0.324
48215W        W11939  37.897  15.778  13.434
48216W        W11940   7.881  19.776   4.334
48217W        W11941  39.922  17.120  10.433
48218W        W11942  42.792  32.134  10.047
48219W        W11943  40.961  30.540  11.050
48220W        W11944  20.096  39.432  12.841
48221W        W11945  16.749  34.521   2.348
48222W        W11946  20.114  43.928  12.082
48223W        W11947  19.568  27.496  13.803
48224W        W11948  18.193  17.566  14.475
48225W        W11949  44.487   1.860  13.028
48226W        W11950  41.343  38.384   5.279
48227W        W11951  34.410  18.237   0.811
48228W        W11952  29.166   7.198  13.343
48229W        W11953   9.289   6.338  13.048
48230W        W11954  23.042   4.431  12.000
48231W        W11955  35.894  21.563  14.766
48232W        W11956   9.678   3.875  13.310
48233W        W11957  10.138  42.489   1.923
48234W        W11958  35.408   2.314  12.907
48235W        W11959   8.204  12.774  12.371
48236W        W11960  13.650  37.349   1.257
48237W        W11961  43.014   0.349  11.545
48238W        W11962  36.850   3.901   3.719
48239W        W11963   3.856  13.645  12.898
48240W        W11964  22.526  29.026  14.448
48241W        W11965  25.138  24.140  12.398
48242W        W11966  31.486  27.469   1.805
48243W        W11967   8.741  29.453   2.678
48244W        W11968  15.663  10.686   4.190
48245W        W11969  39.936  41.989   5.083
48246W        W11970   3.404  36.536   5.128
48247W        W11971  32.895  13.126  13.881
48248W        W11972  14.334  15.237  11.092
48249W        W11973  18.732   9.390   0.769
48250W        W11974  12.192  24.542  12.567
48251W        W11975  22.560  13.846  12.842
48252W        W11976  28.670  34.061   1.725
48253W        W11977  43.280  39.483   1.446
48254W        W11978  15.225  33.408   4.306
48255W        W11979   1.788  16.202   0.306
48256W        W11980  16.705  22.097  12.930
48257W        W11981  15.257  22.523  12.824
48258W        W11982  29.494  12.283  10.632
48259W        W11983   9.382  19.199   3.684
48260W        W11984  37.447   0.896  10.976
48261W        W11985  16.606   3.764   4.253
48262W        W11986  14.685  23.606  10.119
48263W        W11987  24.710  29.011  14.366
48264W        W11988  24.097  25.208   2.880
48265W        W11989   8.733   9.323  11.525
48266W        W11990  37.035  22.569  14.832
48267W        W11991  39.907  32.496   3.378
48268W        W11992  16.155  12.289  12.554
48269W        W11993   8.379  16.812   4.704
48270W        W11994  15.684   8.841  12.341
48271W        W11995   4.316  11.223  14.830
48272W        W11996  31.427  27.664  12.948
48273W        W11997   0.356  29.531  13.850
48274W        W11998  29.153  23.560  14.818
48275W        W11999   3.326  31.936   4.312
48276W        W12000   0.930  24.214   4.118
48277W        W12001  12.707   3.848  12.867
48278W        W12002  16.232  41.932   1.927
48279W        W12003   1.338  43.482   4.611
48280W        W12004  44.441  39.437  14.280
48281W        W12005  35.026  12.814  14.440
48282W        W12006  42.501   9.796   4.608
48283W        W12007  42.813  20.592   3.717
48284W        W12008   6.908  24.537   4.720
48285W        W12009  33.109   5.227   3.325
48286W        W12010  25.668  28.084  11.095
48287W        W12011  20.050  43.850  11.478
48288W        W12012  11.244  19.163   4.770
48289W        W12013  24.572   5.834   2.315
48290W        W12014  16.628   5.345  11.393
48291W        W12015  39.340  39.938  14.432
48292W        W12016  27.995  24.145  13.353
48293W        W12017  31.994  22.102   0.754
48294W        W12018  36.524  18.684   1.423
48295W        W12019  39.342   7.267  11.007
48296W        W12020  30.620  31.142   5.121
48297W        W12021  21.091  40.022  11.901
48298W        W12022  41.841  29.994  12.579
48299W        W12023  42.336  27.603   4.239
48300W        W12024  36.940  15.580   0.782
48301W        W12025  11.671  37.478   1.853
48302W        W12026  32.000  35.043  11.603
48303W        W12027   7.743  41.437   0.453
48304W        W12028  26.485  43.020  14.995
48305W        W12029  26.533   1.378  14.406
48306W        W12030  21.152  16.123   5.170
48307W        W12031  17.676  23.227  11.998
48308W        W12032  25.054   9.837   3.300
48309W        W12033  14.829  15.135  13.980
48310W        W12034   4.431   4.861   1.216
48311W        W12035   5.315  26.658   4.792
48312W        W12036  11.327   9.759  14.937
48313W        W12037  32.131  16.797  11.560
48314W        W12038  35.389  10.822   2.410
48315W        W12039  11.705  23.066   2.219
48316W        W12040  27.511  14.101  13.460
48317W        W12041   4.739  29.055   1.396
48318W        W12042   3.934  41.023   3.323
48319W        W12043  35.916  29.950  12.521
48320W        W12044  39.857  37.344  10.421
48321W        W12045  22.112  41.000   9.930
48322W        W12046  41.487   5.719   4.118
48323W        W12047  19.232  32.994  13.826
48324W        W12048  39.393  12.251   2.334
48325W        W12049  20.704  26.073  13.015
48326W        W12050   1.942   9.280  14.505
48327W        W12051  14.704  13.843  14.354
48328W        W12052  11.366   4.270  14.838
48329W        W12053  44.849  34.964  10.608
48330W        W12054   5.751  29.058   3.286
48331W        W12055   0.923  38.332  14.018
48332W        W12056  32.117  38.397  13.445
48333W        W12057  44.417  31.032  14.298
48334W        W12058  26.632   3.248   2.226
48335W        W12059  25.534  41.903   2.307
48336W        W12060  22.568  34.548  10.409
48337W        W12061  17.705  36.481   4.284
48338W        W12062   2.855   1.824  14.324
48339W        W12063   6.361  38.461  12.540
48340W        W12064   5.730  25.594   1.918
48341W        W12065  22.113  36.444   4.309
48342W        W12066  44.806  44.278   1.823
48343W        W12067  15.089  39.998   0.882
48344W        W12068  24.638   9.268   0.899
48345W        W12069  22.574  13.250   3.798
48346W        W12070  44.912  43.951  14.767
48347W        W12071  22.690  44.759   2.300
48348W        W12072  29.517  26.514   1.428
48349W        W12073  32.029  44.365   1.235
48350W        W12074  40.999  38.510  12.452
48351W        W12075  31.084   6.370  14.445
48352W        W12076  44.452  15.735  11.010
48353W        W12077  13.803  17.120  11.561
48354W        W12078   8.329  44.288  13.822
48355W        W12079  22.241   9.808  13.833
48356W        W12080  25.014  42.926   2.688
48357W        W12081   9.664  22.663  12.443
48358W        W12082  23.726  11.746  12.500
48359W        W12083  21.019  34.566   0.439
48360W        W12084  13.667  23.984  11.561
48361W        W12085  22.675  27.981  11.115
48362W        W12086  23.536  35.469   4.732
48363W        W12087   4.738  41.888  14.491
48364W        W12088  18.114  26.963   3.213
48365W        W12089   1.820  28.462   2.792
48366W        W12090  18.147  38.514   3.376
48367W        W12091  13.231  11.192  14.392
48368W        W12092  39.432  37.056   2.855
48369W        W12093  13.311  21.530  12.092
48370W        W12094  24.193  16.233   1.309
48371W        W12095   3.723   7.254   4.242
48372W        W12096  31.959  38.503   0.342
48373W        W12097   6.918   5.374   0.429
48374W        W12098  20.527  20.751   1.397
48375W        W12099  11.312  25.039  14.025
48376W        W12100  21.666  28.597  12.050
48377W        W12101  33.107   4.240   3.347
48378W        W12102  40.325  37.080   4.293
48379W        W12103  14.315  10.369  14.476
48380W        W12104   4.288  37.485   4.738
48381W        W12105  25.532  10.804  13.937
48382W        W12106  21.655  24.979   4.751
48383W        W12107  23.604  39.058  12.492
48384W        W12108   9.275  38.431  10.982
48385W        W12109  32.599  43.499   4.735
48386W        W12110  27.460  16.247   1.372
48387W        W12111  41.002  25.567  12.998
48388W        W12112   6.840  41.400  11.434
48389W        W12113   8.317  22.685  11.413
48390W        W12114  44.479   8.666   3.365
48391W        W12115   0.922   4.358   3.161
48392W        W12116  27.970   9.670   2.360
48393W        W12117  35.026  12.680  13.948
48394W        W12118  30.032  39.356  10.916
48395W        W12119  38.503  13.251   3.769
48396W        W12120  30.538   8.675  14.924
48397W        W12121  44.488  14.628  10.624
48398W        W12122  38.835  38.955   2.670
48399W        W12123  19.702  34.447  14.891
48400W        W12124  19.205  37.493   1.413
48401W        W12125  32.928  40.875   0.798
48402W        W12126   2.369  11.359  13.924
48403W        W12127   9.229  38.383  11.941
48404W        W12128  24.513  43.278  11.523
48405W        W12129  17.581  32.466  14.414
48406W        W12130   4.922  37.949   4.770
48407W        W12131  12.711   4.246   1.306
48408W        W12132  44.987  29.045  14.763
48409W        W12133  15.774  22.682  11.426
48410W        W12134  10.341  37.578   3.353
48411W        W12135  19.225  23.579  13.431
48412W        W12136   7.717  37.895   1.934
48413W        W12137  23.558  12.153  11.125
48414W        W12138  24.064  34.052   1.841
48415W        W12139  31.924  24.673  11.126
48416W        W12140   9.370  24.567  10.506
48417W        W12141  30.129   3.879  13.310
48418W        W12142   5.223   9.380  14.431
48419W        W12143  44.287  42.965   2.274
48420W        W12144  28.059  25.103   2.279
48421W        W12145  24.032  42.393  14.495
48422W        W12146  13.188  14.799   3.729
48423W        W12147  28.573  23.594   0.952
48424W        W12148   9.382   7.251  10.931
48425W        W12149  15.139   0.900   1.782
48426W        W12150   5.308   8.694   1.432
48427W        W12151  38.496  11.216   0.859
48428W        W12152  26.188  32.900  14.984
48429W        W12153  32.488   2.427  10.889
48430W        W12154  21.046   8.219  14.800
48431W        W12155  34.573  41.529   2.410
48432W        W12156  37.440  10.748   2.269
48433W        W12157  16.080  16.581   3.839
48434W        W12158  20.065  17.264  11.410
48435W        W12159  29.076  25.152  13.460
48436W        W12160  18.156  22.067  14.945
48437W        W12161  40.534  29.548  12.059
48438W        W12162  44.861  22.167   0.794
48439W        W12163  37.426  13.686  13.966
48440W        W12164   0.306  16.681  10.983
48441W        W12165  42.811  41.925  13.870
48442W        W12166  23.670  17.616  10.604
48443W        W12167  35.379   6.917  13.019
48444W        W12168  38.562  39.947   1.300
48445W        W12169  26.530  41.372  10.028
48446W        W12170  33.955  22.523   3.843
48447W        W12171  13.662  11.236  13.875
48448W        W12172  26.164  18.749  11.597
48449W        W12173   4.738  31.916   3.298
48450W        W12174  17.180  12.336   1.715
48451W        W12175  14.316  13.125  11.602
48452W        W12176  22.131  15.265   2.842
48453W        W12177   0.263  10.663   1.357
48454W        W12178  30.147  13.338  14.280
48455W        W12179  14.094  25.146   1.258
48456W        W12180  32.962  12.143  10.498
48457W        W12181  29.516  21.217  14.392
48458W        W12182   5.229  15.192   0.896
48459W        W12183  10.369  41.824   3.237
48460W        W12184   9.654   7.779  13.383
48461W        W12185   4.757  28.060   2.231
48462W        W12186   0.875   1.970   1.391
48463W        W12187  33.395   9.332  10.991
48464W        W12188  38.825  35.466  10.031
48465W        W12189  24.177  13.786   3.719
48466W        W12190  16.240  24.007   4.726
48467W        W12191   4.906  16.597   0.331
48468W        W12192   2.832   7.750   1.849
48469W        W12193  39.965  22.532   3.750
48470W        W12194  14.337  20.640   4.120
48471W        W12195   9.774  21.020  11.497
48472W        W12196  43.859  40.822  12.450
48473W        W12197   8.870  23.494  12.903
48474W        W12198  39.822  20.158   4.313
48475W        W12199  26.466  17.724   4.133
48476W        W12200   2.949  26.599  13.952
48477W        W12201  16.597  39.384   0.431
48478W        W12202   3.889   0.349  14.470
48479W        W12203   5.931  33.438   4.298
48480W        W12204  29.057  28.171   0.792
48481W        W12205  31.938  17.654  14.439
48482W        W12206  38.057  11.146   4.761
48483W        W12207  33.416  34.404   1.332
48484W        W12208   6.889  31.985   0.761
48485W        W12209  18.595  13.751   3.260
48486W        W12210  32.590   4.873   4.830
48487W        W12211  29.919  40.462  11.925
48488W        W12212  20.681  39.377   3.654
48489W        W12213  21.556  10.203   0.411
48490W        W12214   9.309  16.745  14.386
48491W        W12215  24.994   2.797  14.859
48492W        W12216  31.976  16.620   0.734
48493W        W12217  31.955   1.975   3.676
48494W        W12218  16.609  13.818   0.758
48495W        W12219  32.439  12.205   3.251
48496W        W12220  33.524   9.714   1.773
48497W        W12221   0.472  19.077   0.295
48498W        W12222  28.608  25.059   2.190
48499W        W12223  15.251  40.447  13.347
48500W        W12224  17.731  42.793  13.805
48501W        W12225  11.664  39.423   4.305
48502W        W12226  35.600   2.814   2.738
48503W        W12227   3.792  36.907   1.256
48504W        W12228  23.067  19.251   0.427
48505W        W12229   0.355  25.543   0.376
48506W        W12230  11.308  25.599   0.798
48507W        W12231  27.529  22.686   2.763
48508W        W12232  36.844  25.078   1.313
48509W        W12233  21.558  17.147   4.638
48510W        W12234  11.251   4.929  13.007
48511W        W12235  37.351  21.556   0.878
48512W        W12236  42.810   5.238  14.916
48513W        W12237  33.019  42.972   4.184
48514W        W12238  25.112  33.881  14.494
48515W        W12239  37.903   4.850  12.359
48516W        W12240   8.890  31.063  11.020
48517W        W12241  43.383  13.224   3.336
48518W        W12242  40.983  42.482   2.201
48519W        W12243  14.725  30.100  11.580
48520W        W12244   7.282   2.726  11.907
48521W        W12245   3.415  31.449  13.335
48522W        W12246  37.387  43.960   4.213
48523W        W12247  37.509   8.217   4.621
48524W        W12248  21.700  35.031  13.904
48525W        W12249   0.362  42.985  12.848
48526W        W12250  44.979   0.312  13.013
48527W        W12251   5.290   4.259  10.454
48528W        W12252  38.056   4.390   0.854
48529W        W12253  27.189   6.779   4.657
48530W        W12254  15.115  36.524   4.721
48531W        W12255  22.126   2.263  12.094
48532W        W12256  22.523  25.692  14.861
48533W        W12257  40.978  29.435   0.824
48534W        W12258  18.645  24.139   1.435
48535W        W12259  28.153  30.456  13.374
48536W        W12260  18.253   8.363   4.645
48537W        W12261  13.279   6.227   3.229
48538W        W12262   1.904   6.908  13.015
48539W        W12263   2.235  39.849   1.325
48540W        W12264  23.712  39.330  14.451
48541W        W12265  43.272  39.507  14.029
48542W        W12266  39.874  16.701   3.201
48543W        W12267  14.826   7.822  10.491
48544W        W12268  28.011  42.861  14.936
48545W        W12269   3.363  24.625  12.445
48546W        W12270  37.490  41.498  13.883
48547W        W12271  41.790  11.834  11.533
48548W        W12272  40.383   0.478  14.779
48549W        W12273  29.656  16.295   3.291
48550W        W12274  44.372  44.790   0.313
48551W        W12275  15.589  27.963  13.482
48552W        W12276  18.077  37.559   3.821
48553W        W12277  24.634  40.038  12.375
48554W        W12278  43.283  42.840   1.752
48555W        W12279  25.509  19.745   1.447
48556W        W12280  42.906  28.614  12.907
48557W        W12281  11.296  14.199   1.339
48558W        W12282  37.833  20.721  13.998
48559W        W12283  20.652  19.764   4.723
48560W        W12284  14.165  11.204  10.495
48561W        W12285  20.251   8.683  10.608
48562W        W12286  37.061   4.217  13.847
48563W        W12287  18.593  11.676   2.837
48564W        W12288  28.127  34.417  13.797
48565W        W12289  26.578  32.961   1.770
48566W        W12290  12.316   5.400   0.303
48567W        W12291  27.520  33.578   0.418
48568W        W12292   4.820  28.065   5.206
48569W        W12293  14.252  38.377   2.759
48570W        W12294  37.002   6.348  11.530
48571W        W12295  34.872  13.807   3.266
48572W        W12296  37.996   9.773  11.119
48573W        W12297   0.761  16.199  13.036
48574W        W12298  29.439   7.829  13.374
48575W        W12299  43.811   2.956   2.822
48576W        W12300  33.517  23.553  13.393
48577W        W12301  35.366  37.468  14.299
48578W        W12302  31.153  21.658  11.009
48579W        W12303  19.148  27.189   1.924
48580W        W12304  39.458  22.513   4.219
48581W        W12305  12.306  28.515  12.473
48582W        W12306  28.086  23.638   1.302
48583W        W12307  15.632  18.061   0.417
48584W        W12308  40.811  43.355   1.350
48585W        W12309  11.134   3.445   0.907
48586W        W12310   6.340  27.501   0.431
48587W        W12311  13.225  23.191  11.945
48588W        W12312  14.322  10.742   0.330
48589W        W12313  24.220   8.167  10.453
48590W        W12314  42.779  34.517   1.257
48591W        W12315  41.038  29.061  11.958
48592W        W12316  28.557  11.773  12.828
48593W        W12317  10.363  42.806   2.293
48594W        W12318  30.114  18.581   0.369
48595W        W12319  28.460   5.800  13.926
48596W        W12320  10.809  25.203  10.463
48597W        W12321  19.677   5.857  10.592
48598W        W12322  41.815  23.068  13.369
48599W        W12323   2.331   7.778  14.914
48600W        W12324  22.026  35.928   0.284
48601W        W12325   3.400  40.050   3.780
48602W        W12326  21.068  19.562  14.847
48603W        W12327  39.968  28.665   3.212
48604W        W12328  25.131  27.037   1.297
48605W        W12329  44.492  20.576   0.393
48606W        W12330  36.381  25.015  10.105
48607W        W12331  31.516  36.910  13.849
48608W        W12332   5.321  16.161   0.399
48609W        W12333  41.538  19.750   4.274
48610W        W12334  42.890  14.822   2.300
48611W        W12335   6.760  13.324  12.976
48612W        W12336  31.959   3.767   1.270
48613W        W12337  42.967  19.562  12.916
48614W        W12338   0.337  28.997   3.159
48615W        W12339   6.286   4.312   0.737
48616W        W12340   2.470  32.960   4.275
48617W        W12341  38.872  26.648   9.946
48618W        W12342  43.853  44.404  13.061
48619W        W12343  33.610  31.901  12.386
48620W        W12344  25.471  35.009  12.462
48621W        W12345  16.317  30.122   1.844
48622W        W12346  37.351   3.454  12.442
48623W        W12347  14.245  36.496   2.681
48624W        W12348   4.876  10.239   2.776
48625W        W12349  23.238  22.247  10.581
48626W        W12350   7.307  14.672   2.265
48627W        W12351  38.076   3.281   5.299
48628W        W12352  31.028  31.095   2.407
48629W        W12353  16.637  33.971  11.468
48630W        W12354  25.174  39.029   0.856
48631W        W12355  43.290  41.472  11.129
48632W        W12356  28.098  33.406   4.342
48633W        W12357  44.457   7.823  13.401
48634W        W12358  41.442  36.466   0.728
48635W        W12359  35.416  39.365   4.648
48636W        W12360  41.499  29.614  14.486
48637W        W12361   0.394   5.766  13.968
48638W        W12362   0.405  12.193   3.382
48639W        W12363  13.216   2.819  12.366
48640W        W12364  29.662  39.837  10.463
48641W        W12365  35.419   2.854  11.390
48642W        W12366  33.035  43.007  13.047
48643W        W12367  11.339  23.177   1.261
48644W        W12368  38.862  35.954  14.442
48645W        W12369  36.949   5.737  10.432
48646W        W12370  32.939  42.507  12.486
48647W        W12371  31.561  11.277   4.151
48648W        W12372  33.036  43.331   0.845
48649W        W12373  29.946  37.381   4.612
48650W        W12374   8.895   8.352   3.257
48651W        W12375  25.620  21.159   4.271
48652W        W12376  19.133  22.050  12.408
48653W        W12377  12.318  11.763   0.916
48654W        W12378  21.697  44.307   3.685
48655W        W12379   3.459  34.386   0.312
48656W        W12380   5.429  22.146  14.972
48657W        W12381  14.650   4.721   2.401
48658W        W12382  44.424  38.516  10.446
48659W        W12383   1.267   7.220   1.228
48660W        W12384  24.610  11.294  13.062
48661W        W12385   4.445  24.715   3.318
48662W        W12386  12.346  15.215  14.337
48663W        W12387  34.017  16.631   1.894
48664W        W12388  21.543  40.334  13.856
48665W        W12389  36.004   7.231   0.348
48666W        W12390   2.362  12.132   0.245
48667W        W12391  39.031   6.898  13.806
48668W        W12392  35.951  40.860  12.839
48669W        W12393  35.987  13.111  13.499
48670W        W12394  37.030   5.733   1.432
48671W        W12395   3.375  15.640   3.814
48672W        W12396  36.427  28.070   0.294
48673W        W12397  29.632  39.976   2.285
48674W        W12398  20.115  40.984  14.448
48675W        W12399  43.390   4.353  13.976
48676W        W12400  43.337  36.540  12.056
48677W        W12401  33.546   5.286   1.391
48678W        W12402  32.030  12.128   1.389
48679W        W12403  22.233  27.985  12.873
48680W        W12404  32.446  11.674  13.057
48681W        W12405  17.761  21.245   1.330
48682W        W12406  25.983  33.987   1.845
48683W        W12407  31.519  13.800  14.304
48684W        W12408   0.373   4.908  12.863
48685W        W12409  26.077   3.895  14.781
48686W        W12410  42.304   8.899  11.609
48687W        W12411  26.474  38.493  13.455
48688W        W12412  26.515  34.899  10.548
48689W        W12413  28.180  17.601   1.272
48690W        W12414  14.835   5.875  10.953
48691W        W12415  26.013  15.310  13.938
48692W        W12416  20.274  32.438   1.409
48693W        W12417  34.570  31.416  11.514
48694W        W12418   2.882  44.871   3.336
48695W        W12419   2.439   1.294   0.458
48696W        W12420  38.406  30.460  11.907
48697W        W12421  38.821  12.175   4.333
48698W        W12422  38.413  41.296  12.479
48699W        W12423  15.608  36.097   0.409
48700W        W12424   5.689   6.325   4.791
48701W        W12425   9.180   0.811   3.292
48702W        W12426  20.710  18.093  12.451
48703W        W12427  29.441  26.962  10.981
48704W        W12428  24.536  28.535   2.889
48705W        W12429  26.024   8.750  10.982
48706W        W12430  37.007  34.016  12.512
48707W        W12431  41.920  37.989  13.011
48708W        W12432   8.161  26.695  14.369
48709W        W12433  16.618  20.753   0.771
48710W        W12434  37.051  34.489   4.233
48711W        W12435   5.208  28.449   2.237
48712W        W12436  23.703  10.780   2.880
48713W        W12437  25.210  26.703  12.990
48714W        W12438  36.012  20.069   3.695
48715W        W12439  15.264  36.996   4.790
48716W        W12440  41.474  34.912  11.939
48717W        W12441  25.658  10.276  11.528
48718W        W12442  36.570  20.078  12.342
48719W        W12443  24.543  32.123  13.014
48720W        W12444  29.527  12.312   3.335
48721W        W12445  26.574  39.837  11.913
48722W        W12446  27.987  11.342  12.880
48723W        W12447  11.191  15.585  11.092
48724W        W12448  42.960  15.671   3.858
48725W        W12449  13.255  30.648   3.378
48726W        W12450  28.129  34.577   3.772
48727W        W12451  44.900  44.937   2.729
48728W        W12452  15.709  16.140   4.257
48729W        W12453  44.458  15.737  12.856
48730W        W12454  32.137  13.296   0.743
48731W        W12455  18.791  41.464  14.777
48732W        W12456  38.928  42.823  13.817
48733W        W12457  35.363  18.654   3.636
48734W        W12458  32.471  38.965   2.771
48735W        W12459   5.245  39.909  12.535
48736W        W12460  20.710  15.579   4.239
48737W        W12461  20.187  12.189   5.714
48738W        W12462   8.166  44.818  14.319
48739W        W12463  16.790  14.340   5.769
48740W        W12464  29.950  40.517  13.355
48741W        W12465   9.322  39.818   3.323
48742W        W12466   7.261  24.180   0.864
48743W        W12467  21.135  29.561  10.638
48744W        W12468  13.729  25.602   4.828
48745W        W12469  17.574  35.894  14.784
48746W        W12470   0.308  44.273   4.681
48747W        W12471  15.098  15.692  10.406
48748W        W12472  32.128  13.127  11.383
48749W        W12473  12.250  26.065  14.835
48750W        W12474  36.574  38.943   4.808
48751W        W12475   9.204  40.308   1.797
48752W        W12476   6.301   9.806   1.320
48753W        W12477  30.138  28.514   0.948
48754W        W12478  38.854  26.529  12.844
48755W        W12479  36.454  40.861   3.261
48756W        W12480  18.242  21.139  14.982
48757W        W12481  27.570  43.400   2.246
48758W        W12482  30.945  28.584   3.337
48759W        W12483  18.629  13.637   2.831
48760W        W12484  20.260   4.908   3.772
48761W        W12485  44.923   2.307  10.961
48762W        W12486  12.311  14.191  12.919
48763W        W12487  40.357  25.098  13.402
48764W        W12488  44.343  41.934  11.032
48765W        W12489  13.614  18.722   1.237
48766W        W12490  36.004   0.765  11.897
48767W        W12491   5.845  23.730   0.755
48768W        W12492  34.413   9.370  13.531
48769W        W12493  44.887  33.566   4.186
48770W        W12494   9.209   4.919   4.329
48771W        W12495  11.648  14.228   5.151
48772W        W12496  42.381  32.918  13.988
48773W        W12497  40.047  43.822   3.806
48774W        W12498  24.548   4.386   1.838
48775W        W12499  15.241   9.220   2.887
48776W        W12500  31.959  32.127   5.160
48777W        W12501  19.252   4.848  12.378
48778W        W12502   3.912  27.020  12.435
48779W        W12503  36.447  35.462  12.424
48780W        W12504  20.100   4.928  13.007
48781W        W12505  42.284  19.645  13.410
48782W        W12506  38.064   4.259  11.433
48783W        W12507   1.927  33.938  12.891
48784W        W12508  17.764  44.484   2.699
48785W        W12509  20.264  26.109   2.852
48786W        W12510   4.836  19.280  12.542
48787W        W12511  16.257  44.476   0.913
48788W        W12512  20.033  12.737  13.470
48789W        W12513  20.050  28.002   4.599
48790W        W12514  39.034  24.102   1.756
48791W        W12515   5.903  42.783   0.457
48792W        W12516   4.733  30.081   3.728
48793W        W12517  10.282  42.502   3.693
48794W        W12518  28.933  32.606  13.454
48795W        W12519   1.918  29.078  10.617
48796W        W12520  30.561   9.205  13.548
48797W        W12521  35.935  32.549  14.986
48798W        W12522  37.550  36.416   4.662
48799W        W12523  26.512  29.523  11.996
48800W        W12524   7.843  41.900  12.507
48801W        W12525   7.288   0.453  14.942
48802W        W12526  11.300  30.568  12.974
48803W        W12527  40.363  20.549  10.898
48804W        W12528  39.003  30.947   1.247
48805W        W12529  32.090  32.573   3.327
48806W        W12530  38.075  13.146  12.907
48807W        W12531   0.356  31.510   3.761
48808W        W12532  32.010   9.724  13.955
48809W        W12533  31.063   4.413   4.808
48810W        W12534  10.317   6.419  10.994
48811W        W12535  21.092  12.837   4.188
48812W        W12536   0.494  10.270  14.800
48813W        W12537  27.498  38.048  11.947
48814W        W12538  27.974  13.341  11.048
48815W        W12539   5.279  24.629   0.387
48816W        W12540  24.197  11.185   0.333
48817W        W12541  36.534  22.624  12.353
48818W        W12542  34.922   0.466  13.878
48819W        W12543  39.527  43.880   0.824
48820W        W12544  31.549  15.701   3.752
48821W        W12545  37.439  32.621  14.432
48822W        W12546  44.272  30.630  10.634
48823W        W12547  13.229  33.549  11.963
48824W        W12548   7.800  12.652  11.110
48825W        W12549  12.242   4.769  14.985
48826W        W12550  22.556  42.433   5.151
48827W        W12551  20.064   4.316   4.287
48828W        W12552  40.901   7.806  12.923
48829W        W12553  33.893  35.095  14.987
48830W        W12554  41.479  16.237   3.256
48831W        W12555  41.443  37.579   0.845
48832W        W12556   2.436  42.414  12.363
48833W        W12557   7.882   4.377  12.370
48834W        W12558  26.675  29.066   2.716
48835W        W12559   4.355  28.156   2.364
48836W        W12560  21.567   9.702   2.662
48837W        W12561  38.969  40.367   5.272
48838W        W12562  25.076  24.496   0.899
48839W        W12563  15.587   9.884  12.996
48840W        W12564   8.798  20.066  11.986
48841W        W12565  10.781  37.834  11.117
48842W        W12566   6.744  37.479  12.503
48843W        W12567   4.727   0.918  11.478
48844W        W12568  24.197  41.844  11.563
48845W        W12569  14.686  21.196  12.465
48846W        W12570  10.764  42.839  14.955
48847W        W12571  23.211  30.507   3.288
48848W        W12572  43.376   2.925   0.927
48849W        W12573  20.182  18.175  14.491
48850W        W12574  44.267  41.832   4.650
48851W        W12575   0.922  17.658  11.540
48852W        W12576   8.857  25.103   0.940
48853W        W12577  26.555  12.796  11.033
48854W        W12578  10.697  18.224  12.381
48855W        W12579  26.617  37.005   3.801
48856W        W12580  28.968  14.646  11.869
48857W        W12581  31.499  31.033  14.352
48858W        W12582  14.280   1.956   9.954
48859W        W12583  19.552   8.336  13.369
48860W        W12584  19.616  12.696   1.876
48861W        W12585   6.249  40.872   3.277
48862W        W12586  14.338  31.641  12.970
48863W        W12587  28.618   9.289  14.814
48864W        W12588  43.309  30.527   5.259
48865W        W12589  36.041  18.638   0.878
48866W        W12590   6.902  10.698  13.358
48867W        W12591  24.716  38.991   0.424
48868W        W12592  42.807  25.200   4.739
48869W        W12593   7.316  29.611  10.979
48870W        W12594  38.064  33.473   2.763
48871W        W12595  11.180  13.156  10.407
48872W        W12596   3.386  37.437   4.135
48873W        W12597  19.737  35.522  10.539
48874W        W12598  12.827  12.216   3.757
48875W        W12599  24.616   6.744  13.056
48876W        W12600  43.841  30.625  14.437
48877W        W12601  31.065  40.450   2.826
48878W        W12602  31.011  27.643  11.928
48879W        W12603  35.536  42.428  13.467
48880W        W12604  12.321   6.844   0.902
48881W        W12605  17.241  25.006   3.707
48882W        W12606  41.492   5.222   3.159
48883W        W12607  40.407  27.957   0.258
48884W        W12608  16.118   3.416  13.842
48885W        W12609  37.866  32.060  11.101
48886W        W12610  32.520  23.026  11.873
48887W        W12611  43.509  33.088  12.848
48888W        W12612  35.388  34.896  13.908
48889W        W12613  10.302  43.972  12.424
48890W        W12614  14.679  44.348  12.361
48891W        W12615  32.101  18.051   4.236
48892W        W12616  16.793  15.284  11.000
48893W        W12617  28.112  21.244  13.024
48894W        W12618  18.221   9.844   3.632
48895W        W12619   9.274  32.953   3.342
48896W        W12620  42.869  10.763  11.562
48897W        W12621  10.346  32.012  11.938
48898W        W12622  35.405  13.820  14.298
48899W        W12623   1.401  35.478  11.538
48900W        W12624  33.963  24.994  13.877
48901W        W12625  12.260   8.838   2.890
48902W        W12626  40.339  32.932  12.350
48903W        W12627  25.688   9.822   5.190
48904W        W12628   8.388   2.321   4.714
48905W        W12629  25.054  42.946  13.321
48906W        W12630  32.536   1.401   4.316
48907W        W12631   5.311   5.729  12.491
48908W        W12632   6.864  27.464  12.973
48909W        W12633  15.243  18.569   3.362
48910W        W12634  27.961  30.133  13.310
48911W        W12635   9.669  38.062   1.378
48912W        W12636   4.889  11.724   5.123
48913W        W12637  42.031  34.878  13.022
48914W        W12638  27.031  13.753  12.482
48915W        W12639  26.174   9.829   3.759
48916W        W12640  33.581  18.174   3.716
48917W        W12641  37.506  43.482  10.896
48918W        W12642  20.253  28.579   2.203
48919W        W12643  41.298  32.012   3.679
48920W        W12644  26.196  33.476  14.978
48921W        W12645   9.164  15.684   4.177
48922W        W12646  43.920   3.775   2.821
48923W        W12647  24.503  43.506  14.358
48924W        W12648  20.679  27.167   2.332
48925W        W12649  22.547  30.024   3.304
48926W        W12650   8.178  19.256   2.808
48927W        W12651  16.577  44.476  12.413
48928W        W12652   9.385  44.802   4.300
48929W        W12653  28.184  19.180  12.342
48930W        W12654  24.682   2.876   1.244
48931W        W12655  39.421  41.417  10.408
48932W        W12656  30.165  24.129  11.382
48933W        W12657  24.178   3.294   5.188
48934W        W12658   9.195  29.577   2.372
48935W        W12659   3.754   7.260   4.658
48936W        W12660  44.468   1.744   2.231
48937W        W12661  17.732  28.940  14.941
48938W        W12662  14.260  15.187   1.809
48939W        W12663  25.979   9.649  13.313
48940W        W12664  28.463  23.731   0.352
48941W        W12665   7.338  41.380  10.468
48942W        W12666  26.972  21.565  10.456
48943W        W12667  23.502  20.587  11.551
48944W        W12668   7.396  11.782  11.467
48945W        W12669  40.342  30.650  14.784
48946W        W12670  44.902  18.155  11.084
48947W        W12671  44.375   5.224  14.421
48948W        W12672   2.355   5.290  12.061
48949W        W12673  15.195  37.948  12.579
48950W        W12674  27.952  29.476  14.863
48951W        W12675  26.065  15.091   3.866
48952W        W12676  16.176  40.341   0.862
48953W        W12677  24.523  34.526   3.770
48954W        W12678  38.929  30.093  14.947
48955W        W12679  13.291   5.317   1.288
48956W        W12680   9.828  37.451   2.665
48957W        W12681   6.681  33.514  14.465
48958W        W12682   1.842   8.753   2.243
48959W        W12683  15.608  18.546   2.292
48960W        W12684   5.357  32.547   0.866
48961W        W12685  26.068  28.015  11.919
48962W        W12686  17.277  36.442  13.461
48963W        W12687   5.314   0.765   3.160
48964W        W12688  18.148  37.520  13.328
48965W        W12689  35.867  29.457   1.905
48966W        W12690   1.904   6.207  14.462
48967W        W12691  28.983  13.739  12.574
48968W        W12692  32.057   6.218   2.845
48969W        W12693  14.623  20.550   2.290
48970W        W12694  18.148  33.912   1.350
48971W        W12695  20.040   6.786   4.677
48972W        W12696  22.133   3.292  10.462
48973W        W12697  32.395  35.496  14.846
48974W        W12698  32.515  16.716  12.082
48975W        W12699   0.469  20.768   3.780
48976W        W12700  29.117  36.988  13.337
48977W        W12701   5.712   7.806   0.742
48978W        W12702   2.227  28.954   4.773
48979W        W12703  27.640  37.556   1.811
48980W        W12704  26.700  11.623   1.236
48981W        W12705  12.122   6.233  13.970
48982W        W12706  32.933  32.587   3.786
48983W        W12707  33.066  17.657   0.445
48984W        W12708  41.839  17.146   1.753
48985W        W12709  30.143  31.483   1.272
48986W        W12710  38.904  27.171   0.306
48987W        W12711  40.419  12.157   4.792
48988W        W12712  37.912  23.109   0.397
48989W        W12713  37.857  29.089  11.606
48990W        W12714  15.093   9.780  10.564
48991W        W12715  29.012   5.355  12.503
48992W        W12716   7.370   5.282   0.760
48993W        W12717  42.931  24.533   4.347
48994W        W12718  41.391  19.207   3.366
48995W        W12719  37.962   9.681  12.440
48996W        W12720  31.038   3.359   2.833
48997W        W12721  38.837  31.025   3.260
48998W        W12722  43.799  17.171   1.277
48999W        W12723  29.572  38.439  10.464
49000W        W12724  32.518   6.894  13.054
49001W        W12725  25.708  26.964   3.826
49002W        W12726  28.057  44.428  10.436
49003W        W12727   5.743  16.670  14.013
49004W        W12728   2.252   6.759   4.262
49005W        W12729  30.432  12.679  12.487
49006W        W12730   4.901  43.828  14.327
49007W        W12731  15.806   6.207  14.857
49008W        W12732   4.937  23.551  11.422
49009W        W12733   7.333  20.187  13.059
49010W        W12734  28.513   4.737   1.341
49011W        W12735  12.226  21.069   3.165
49012W        W12736   2.367  26.052  14.870
49013W        W12737   3.441  29.133   4.654
49014W        W12738  39.992  36.463  12.493
49015W        W12739  27.964  37.959   3.717
49016W        W12740  35.086  30.008  12.563
49017W        W12741  32.096  33.991   0.437
49018W        W12742  30.112  37.489   2.853
49019W        W12743  32.447  20.213   0.466
49020W        W12744  27.101  29.557   1.441
49021W        W12745  24.526  30.589  11.418
49022W        W12746  24.089  26.040   4.259
49023W        W12747  26.105   6.900   0.923
49024W        W12748  30.023  11.259  11.960
49025W        W12749  35.502   6.916  14.903
49026W        W12750  39.941  33.991  11.894
49027W        W12751  23.717  42.481  10.480
49028W        W12752  35.960  20.612   0.436
49029W        W12753   4.749  18.579  12.441
49030W        W12754  15.782  36.367   0.391
49031W        W12755   9.855  13.121   3.673
49032W        W12756  32.631  33.570   3.740
49033W        W12757  10.244  29.061  13.415
49034W        W12758  11.230  43.399   1.399
49035W        W12759   6.868  36.984   1.361
49036W        W12760   1.412  19.054  14.510
49037W        W12761  13.284   7.226  11.480
49038W        W12762  13.643  21.684   2.885
49039W        W12763  10.164  21.579  13.048
49040W        W12764  20.079   8.821   3.307
49041W        W12765  25.495   0.388  11.527
49042W        W12766  20.206   0.868  11.936
49043W        W12767   0.767  27.681   4.187
49044W        W12768  31.109  23.574  12.848
49045W        W12769  19.632   9.835  13.366
49046W        W12770   5.716  41.913  14.329
49047W        W12771  16.595   3.376   0.834
49048W        W12772   1.819  40.343  14.905
49049W        W12773  30.132  18.611  10.959
49050W        W12774  40.985  20.138  13.806
49051W        W12775  15.302   7.735  11.036
49052W        W12776  18.550  27.495  11.601
49053W        W12777  12.635  30.441  10.911
49054W        W12778  44.452   0.982   3.216
49055W        W12779   6.794   3.873  10.618
49056W        W12780  40.538  25.112  14.821
49057W        W12781  31.006  29.109  14.461
49058W        W12782  39.377  30.915  13.321
49059W        W12783  40.932   6.250  11.551
49060W        W12784  41.803   3.756   3.756
49061W        W12785  14.211  41.958  10.552
49062W        W12786  14.803   9.739   3.806
49063W        W12787   1.808  31.429   4.671
49064W        W12788   3.347  24.052  11.057
49065W        W12789  13.285   6.230   9.944
49066W        W12790   0.486  42.516   2.829
49067W        W12791  37.459   3.882   1.268
49068W        W12792  32.591  34.012   1.853
49069W        W12793  28.560  12.614  12.938
49070W        W12794  22.558  35.893   5.212
49071W        W12795  33.428  26.687   0.746
49072W        W12796  42.904   0.419  14.323
49073W        W12797  10.331  39.520   2.786
49074W        W12798  38.500   8.852  12.984
49075W        W12799  25.677  13.646  13.371
49076W        W12800  20.214  20.570   4.760
49077W        W12801  26.057  39.056  10.616
49078W        W12802  35.973  39.043   4.328
49079W        W12803  31.416  10.316  14.928
49080W        W12804  34.044  16.315  14.910
49081W        W12805  40.972  23.147  11.475
49082W        W12806  44.281  21.642  14.898
49083W        W12807  34.609  37.911  14.021
49084W        W12808  13.331   8.762   4.795
49085W        W12809   4.945  16.127  13.337
49086W        W12810  28.660  16.596  11.028
49087W        W12811   6.398  11.809  11.919
49088W        W12812  29.084  31.104  10.609
49089W        W12813   1.265  21.712   4.245
49090W        W12814  40.887  11.794   1.775
49091W        W12815   1.403  15.792   0.339
49092W        W12816  20.268   7.357  10.567
49093W        W12817  15.670  39.904   2.275
49094W        W12818  33.546  42.013   2.696
49095W        W12819  15.200  11.300  12.553
49096W        W12820   7.386  26.643   4.780
49097W        W12821  24.091  39.504   2.253
49098W        W12822  23.001  27.944   5.152
49099W        W12823  41.006   8.789  14.816
49100W        W12824  44.308  28.616   0.939
49101W        W12825   5.839  39.830   0.270
49102W        W12826  16.575  20.678   1.873
49103W        W12827   1.806   2.907   2.839
49104W        W12828  41.396  33.397  13.985
49105W        W12829  33.036  41.036  14.942
49106W        W12830  15.814  43.293   3.225
49107W        W12831  29.642   5.250  11.513
49108W        W12832  23.572   2.436   0.350
49109W        W12833  10.320   4.367  10.116
49110W        W12834  30.142  20.144   3.783
49111W        W12835  24.213  44.409  10.135
49112W        W12836  15.142  41.947  11.415
49113W        W12837  44.494  40.930  14.835
49114W        W12838  35.906  16.635   3.868
49115W        W12839   5.379   8.826  11.388
49116W        W12840  11.285  44.798   1.763
49117W        W12841   3.335  22.642  14.963
49118W        W12842  20.550  37.033  10.505
49119W        W12843   7.298  25.202   1.710
49120W        W12844   1.277  27.589   1.887
49121W        W12845  15.597  27.519   3.833
49122W        W12846   2.364  37.356  12.515
49123W        W12847  25.590   3.835  12.413
49124W        W12848  23.703   5.430   4.801
49125W        W12849  25.194   4.339   4.231
49126W        W12850  30.422   2.332   3.731
49127W        W12851  13.709  14.822   2.238
49128W        W12852  42.862  14.679   0.435
49129W        W12853  30.579   7.388   3.279
49130W        W12854   9.791  16.145   0.950
49131W        W12855  38.023  24.197  14.015
49132W        W12856  18.162  11.727   1.248
49133W        W12857  27.588  31.926  12.558
49134W        W12858  13.275  32.897  11.989
49135W        W12859  21.690  33.911   2.759
49136W        W12860  24.134  33.938   0.370
49137W        W12861   2.344  41.945   2.809
49138W        W12862   7.227  11.698   4.834
49139W        W12863  37.508  12.302  13.456
49140W        W12864   0.306  34.561  12.372
49141W        W12865  43.921  33.952  13.478
49142W        W12866  30.928  34.417   9.987
49143W        W12867  36.030   1.737  12.367
49144W        W12868   0.323   0.273  14.793
49145W        W12869   7.896  21.094   0.882
49146W        W12870  31.125  22.512   0.434
49147W        W12871   6.892  27.988  13.872
49148W        W12872  29.503  32.098  11.541
49149W        W12873  18.134  15.108  14.906
49150W        W12874  35.988   9.776  10.621
49151W        W12875  10.639   5.752  10.568
49152W        W12876  15.632   0.465   0.760
49153W        W12877  25.525  42.365   4.270
49154W        W12878  10.290  12.660  13.434
49155W        W12879   1.394  17.623   3.322
49156W        W12880   2.337   0.367  10.588
49157W        W12881  17.249  16.671   4.604
49158W        W12882  32.421  39.965   3.724
49159W        W12883  11.654  25.201  11.993
49160W        W12884  34.052  34.065  13.407
49161W        W12885  25.570  37.383  12.867
49162W        W12886  14.825   6.332   4.739
49163W        W12887  10.248  13.772  14.795
49164W        W12888   5.919  12.796  14.395
49165W        W12889  35.879   7.234   4.631
49166W        W12890  38.566  43.488  10.115
49167W        W12891   5.911  29.142  13.518
49168W        W12892  43.959  36.957   4.120
49169W        W12893  17.715  31.423   1.707
49170W        W12894  36.557   2.779   4.320
49171W        W12895  36.877  33.125   1.870
49172W        W12896  23.493  31.598  12.891
49173W        W12897  28.620  11.763   1.702
49174W        W12898  16.719  12.351  13.794
49175W        W12899   0.787  28.591  12.983
49176W        W12900  15.200  36.939   2.824
49177W        W12901  38.883  22.123  11.477
49178W        W12902  41.305   0.774   0.338
49179W        W12903  12.226  16.813   0.880
49180W        W12904  16.230  33.485  13.875
49181W        W12905   8.215  23.681   3.657
49182W        W12906  18.689  21.622   2.306
49183W        W12907  10.175  32.415   2.389
49184W        W12908  27.040  17.188  14.002
49185W        W12909  12.301  43.300   1.750
49186W        W12910  10.334  44.430  11.598
49187W        W12911  43.332  18.723  12.996
49188W        W12912  33.114   8.246  11.916
49189W        W12913  34.952  43.419  13.379
49190W        W12914   1.378   3.846  12.961
49191W        W12915   0.450   3.263   9.954
49192W        W12916   1.349   4.442  13.537
49193W        W12917   4.709  30.488   0.941
49194W        W12918   3.370   2.829  14.391
49195W        W12919  31.984  37.496  14.393
49196W        W12920  29.948  13.792  12.359
49197W        W12921  26.020  14.294   3.296
49198W        W12922   6.747  20.173  11.561
49199W        W12923  30.020  37.040   1.854
49200W        W12924  12.134  41.388  14.877
49201W        W12925  23.241  19.751  11.521
49202W        W12926  35.906  31.087  13.309
49203W        W12927  11.756   9.327   3.280
49204W        W12928  33.605  43.494   2.319
49205W        W12929  24.127  44.831   4.716
49206W        W12930  40.453  18.144   3.191
49207W        W12931  14.658  38.827   3.775
49208W        W12932  20.036  17.723   0.776
49209W        W12933  16.723   2.764   4.151
49210W        W12934  24.976  27.569   4.724
49211W        W12935  44.876  37.511   1.706
49212W        W12936   7.307  11.262  13.981
49213W        W12937  33.894  20.114   3.314
49214W        W12938  32.415  14.149   4.201
49215W        W12939  34.603   4.741   0.464
49216W        W12940  42.495  10.816  11.454
49217W        W12941  16.587  22.570  11.956
49218W        W12942  43.397  37.374   1.761
49219W        W12943  43.370   7.677   4.186
49220W        W12944  34.609  39.898   4.279
49221W        W12945  25.488  43.306  11.436
49222W        W12946  20.179  28.607   0.735
49223W        W12947  27.628  23.094   1.916
49224W        W12948  22.209  17.116   2.720
49225W        W12949   3.779   0.880   4.699
49226W        W12950  10.327  17.200   2.340
49227W        W12951   8.689  25.492   4.689
49228W        W12952   8.374  11.862   3.827
49229W        W12953  42.921   0.814   4.189
49230W        W12954   4.912  13.696  14.766
49231W        W12955  38.447  10.692  14.908
49232W        W12956  31.471  36.562  12.448
49233W        W12957  41.814   7.836  13.546
49234W        W12958   9.840   2.267   3.225
49235W        W12959  37.531  42.499  12.884
49236W        W12960  37.055  22.610   4.264
49237W        W12961  23.173  30.062   5.114
49238W        W12962  22.520  16.183  12.977
49239W        W12963  30.597  35.882   0.298
49240W        W12964  25.513  14.144   0.456
49241W        W12965   8.893  44.957  12.358
49242W        W12966  31.919   7.349  13.352
49243W        W12967  41.298  40.418   5.210
49244W        W12968  43.806  39.041  13.792
49245W        W12969  11.779  33.056   3.287
49246W        W12970  23.719   8.739  10.505
49247W        W12971  25.986  41.301  11.543
49248W        W12972   2.856   7.767  14.313
49249W        W12973   5.924  27.947  12.082
49250W        W12974   4.839  32.028   0.275
49251W        W12975   3.730  31.455  14.864
49252W        W12976  32.580  13.105   4.140
49253W        W12977  13.210  30.468  13.813
49254W        W12978  23.216   0.977  12.835
49255W        W12979  17.651  40.799   0.856
49256W        W12980  34.605  33.471   2.716
49257W        W12981  32.988  35.459   3.148
49258W        W12982   6.813   4.891   5.181
49259W        W12983  14.319  24.541  10.540
49260W        W12984  33.981  13.842  11.924
49261W        W12985   7.182  33.897  11.898
49262W        W12986  35.916  20.721  10.556
49263W        W12987  34.484  17.099  13.390
49264W        W12988  28.128  25.116   3.294
49265W        W12989   0.922   2.953  12.957
49266W        W12990   7.354  19.089   2.308
49267W        W12991   7.345  23.048   4.155
49268W        W12992  27.038   4.358   3.852
49269W        W12993  18.684  26.472  10.893
49270W        W12994  24.155  11.245   2.864
49271W        W12995  36.493   5.747   4.262
49272W        W12996  25.581  40.007   3.164
49273W        W12997  43.308  43.004  14.013
49274W        W12998  28.067  43.832  10.100
49275W        W12999  19.570  22.223   1.232
49276W        W13000   3.754  10.716   0.793
49277W        W13001  14.614   4.905  13.973
49278W        W13002  17.101  15.787  13.368
49279W        W13003  32.126  38.415  12.892
49280W        W13004  41.985  31.009  13.017
49281W        W13005  43.372  42.387   3.366
49282W        W13006  20.273   3.301  13.429
49283W        W13007  25.676   9.875   1.819
49284W        W13008  33.544  28.086  13.917
49285W        W13009  39.836  25.551   0.359
49286W        W13010   4.913   2.823   4.838
49287W        W13011   6.709   1.281   0.766
49288W        W13012  32.135   5.213   3.162
49289W        W13013  38.828  16.214  10.915
49290W        W13014  13.657  19.286  13.797
49291W        W13015   9.196  26.968  14.796
49292W        W13016  41.819   5.402  12.379
49293W        W13017  21.712  25.037  13.505
49294W        W13018  39.057  32.391  14.815
49295W        W13019   1.287  40.977   4.183
49296W        W13020  23.597  18.746  10.478
49297W        W13021  24.000  44.266   5.269
49298W        W13022  24.157   4.353  11.968
49299W        W13023  39.971   1.459  14.965
49300W        W13024   2.240  20.629  13.005
49301W        W13025   6.303  17.243   2.178
49302W        W13026  21.034  33.029   3.761
49303W        W13027  23.002  31.140   2.782
49304W        W13028  20.202  16.285   4.341
49305W        W13029  11.320  44.809   3.810
49306W        W13030  21.140  17.586  12.527
49307W        W13031  20.056  29.934   2.861
49308W        W13032  10.845  37.087   2.225
49309W        W13033  23.050   0.897  14.387
49310W        W13034  39.984  35.918   2.828
49311W        W13035  16.134  10.374   3.373
49312W        W13036  18.094   4.797   0.924
49313W        W13037  25.690  20.130  13.515
49314W        W13038  35.563   6.417  12.849
49315W        W13039  12.169  33.051   1.813
49316W        W13040   4.716   7.372  10.944
49317W        W13041   2.291  24.989  13.862
49318W        W13042  35.913  10.227  11.057
49319W        W13043  16.760  35.903  12.991
49320W        W13044  35.522  26.188   0.937
49321W        W13045  24.706  17.099  13.815
49322W        W13046   1.350  18.657   4.612
49323W        W13047  32.947  24.106   4.715
49324W        W13048   7.845  37.504  10.078
49325W        W13049  36.870  13.259   1.763
49326W        W13050  25.071  26.677  13.975
49327W        W13051  26.572  32.054   4.204
49328W        W13052   4.288  20.157   3.278
49329W        W13053  19.586  18.746  12.963
49330W        W13054   7.373  24.085   4.122
49331W        W13055  13.768   7.737  13.853
49332W        W13056   9.745  30.946  11.927
49333W        W13057  15.235   2.338   4.353
49334W        W13058  12.796  37.536  14.912
49335W        W13059  32.526  38.844  14.868
49336W        W13060  25.512  26.615  14.905
49337W        W13061   5.211  13.122   3.275
49338W        W13062  44.312  24.039   1.796
49339W        W13063   2.230  37.560  14.988
49340W        W13064   6.686   5.772   1.350
49341W        W13065  23.110  44.825  14.813
49342W        W13066  44.880  40.900  11.858
49343W        W13067   0.803  31.133   4.602
49344W        W13068  11.646   7.795  11.907
49345W        W13069  37.409  24.131   0.292
49346W        W13070  13.248   1.253  13.514
49347W        W13071  23.204  24.214  12.392
49348W        W13072  22.582  31.538  13.421
49349W        W13073  13.666  34.048   3.218
49350W        W13074  36.960  22.114  12.343
49351W        W13075  40.043   5.837   2.684
49352W        W13076  29.081  43.851   3.693
49353W        W13077  33.392   2.267  10.408
49354W        W13078  15.189  36.514   2.869
49355W        W13079  39.530  30.640  12.967
49356W        W13080  23.054  42.821  11.956
49357W        W13081  35.104  10.148   1.869
49358W        W13082  43.005   0.955  11.483
49359W        W13083   6.864  26.641  11.963
49360W        W13084  13.753  30.435  10.984
49361W        W13085  22.535  36.435  14.864
49362W        W13086  32.914  34.595  14.789
49363W        W13087  37.367  20.067   1.319
49364W        W13088  40.306  22.086   9.532
49365W        W13089  28.628  44.455  10.940
49366W        W13090  15.757   2.782   4.790
49367W        W13091  33.075  17.098   0.474
49368W        W13092  43.840   0.288  14.326
49369W        W13093  26.623  41.395   3.372
49370W        W13094  39.518  29.170   2.873
49371W        W13095  37.872   0.388  10.545
49372W        W13096  18.202   4.341  10.542
49373W        W13097  30.477  28.525  13.333
49374W        W13098  33.936   6.680  14.991
49375W        W13099  15.110   8.167  14.806
49376W        W13100  35.065  18.557   0.464
49377W        W13101  38.397  43.457   3.664
49378W        W13102  10.262  22.221   9.978
49379W        W13103   1.339  42.839  12.496
49380W        W13104  17.102  38.349  12.962
49381W        W13105  20.102  36.000   1.305
49382W        W13106  25.675   7.318   3.704
49383W        W13107  12.359  18.561   4.177
49384W        W13108   9.871  23.237   0.357
49385W        W13109   9.648   2.465  14.760
49386W        W13110  14.239  41.038   1.820
49387W        W13111  14.244  34.909  12.952
49388W        W13112  12.637   5.919   4.838
49389W        W13113  10.309  37.068  13.359
49390W        W13114  23.218  33.582   1.910
49391W        W13115  15.224  33.973   4.687
49392W        W13116  34.561  21.615  14.302
49393W        W13117  19.585  16.774  11.577
49394W        W13118  41.509  18.632  13.408
49395W        W13119   6.836  21.080   4.136
49396W        W13120  41.959  44.948  11.512
49397W        W13121  11.344   3.817  10.985
49398W        W13122  11.792  36.424  14.762
49399W        W13123   2.375  27.465  12.869
49400W        W13124  15.795   5.738   4.179
49401W        W13125  27.653   4.310  10.509
49402W        W13126   0.778  10.808   1.239
49403W        W13127   1.885  14.646  11.049
49404W        W13128  30.618  13.107  10.637
49405W        W13129  36.943  21.040  11.883
49406W        W13130  14.617   3.456  11.060
49407W        W13131  30.536  11.760   3.802
49408W        W13132   6.903  36.005   2.886
49409W        W13133  12.348   9.161  13.044
49410W        W13134  18.728  31.981   4.303
49411W        W13135   1.350  29.095   4.277
49412W        W13136  20.230  39.878  12.914
49413W        W13137  25.174   7.911   2.367
49414W        W13138  15.602  37.887  11.018
49415W        W13139  24.999  15.719  13.015
49416W        W13140  33.034  26.139   2.866
49417W        W13141  43.322  32.988  14.414
49418W        W13142  14.191  14.765  12.441
49419W        W13143  15.102  26.059   3.831
49420W        W13144  42.318  32.403   3.249
49421W        W13145  17.293  31.421   0.465
49422W        W13146  24.609  17.087   2.384
49423W        W13147  30.612  16.769  14.396
49424W        W13148   9.859  32.043   5.147
49425W        W13149  16.807  20.727   3.798
49426W        W13150  31.078   1.910   1.722
49427W        W13151  34.554  26.995   4.776
49428W        W13152   1.790   7.204  13.370
49429W        W13153  39.022  36.077  12.023
49430W        W13154   8.822  28.129   3.375
49431W        W13155  40.310  36.398   3.324
49432W        W13156  14.762  14.275  13.017
49433W        W13157   1.773  31.052   2.330
49434W        W13158   7.301   4.942  11.071
49435W        W13159  15.722  13.291   3.778
49436W        W13160  32.468  22.044  14.472
49437W        W13161  11.859  27.072   3.308
49438W        W13162  28.009  28.071  12.566
49439W        W13163  41.301  33.023  14.005
49440W        W13164  11.286  25.025   1.317
49441W        W13165  38.412  39.525  11.540
49442W        W13166  10.179  40.021  10.014
49443W        W13167   8.867  39.011  12.507
49444W        W13168  16.302   1.356  13.452
49445W        W13169  39.852  35.887  13.056
49446W        W13170  21.648  24.990   1.715
49447W        W13171  44.470  43.333  10.954
49448W        W13172  41.510  23.673  10.906
49449W        W13173  19.177  41.453   2.735
49450W        W13174  12.833  15.243   4.148
49451W        W13175  12.328  23.230  13.897
49452W        W13176  29.584  21.640  13.543
49453W        W13177  27.055  44.944   3.228
49454W        W13178   0.897  24.724   4.174
49455W        W13179  31.590  34.010  11.416
49456W        W13180  38.438  18.688   4.114
49457W        W13181  25.152  14.749   3.162
49458W        W13182  32.890   3.828  13.864
49459W        W13183  20.231  29.970  13.321
49460W        W13184  44.376  36.085   5.303
49461W        W13185  31.998  37.010   4.720
49462W        W13186  38.869  36.890  11.471
49463W        W13187  37.447  21.644  14.024
49464W        W13188   1.807   7.376   3.376
49465W        W13189  38.349  17.212   2.789
49466W        W13190  13.195  26.005   4.783
49467W        W13191  29.946  16.202  10.468
49468W        W13192   1.918  40.416  10.897
49469W        W13193  10.211   0.338  13.538
49470W        W13194  36.400  19.155   2.384
49471W        W13195  43.393  40.530  12.906
49472W        W13196  16.149  39.552   2.810
49473W        W13197  20.679   5.755   0.948
49474W        W13198  13.111  34.553   1.376
49475W        W13199   1.969  30.108   2.350
49476W        W13200  22.616   3.798  12.468
49477W        W13201  42.396  40.816   9.937
49478W        W13202  25.121  42.867  14.979
49479W        W13203  17.139   2.926  12.946
49480W        W13204  39.428  39.430   0.878
49481W        W13205  32.040   6.243   3.341
49482W        W13206  18.589  32.016   3.203
49483W        W13207  44.362  37.846   0.245
49484W        W13208  39.046  28.670  11.063
49485W        W13209  18.791  22.528  11.070
49486W        W13210  32.521  19.067  14.884
49487W        W13211  15.209  17.270  14.796
49488W        W13212   8.171  36.082   2.674
49489W        W13213   6.730  15.823  13.846
49490W        W13214   8.402  28.184  13.867
49491W        W13215  28.526   0.467   4.806
49492W        W13216   2.767  43.407  13.796
49493W        W13217  16.121  34.541   4.780
49494W        W13218  43.972  31.417  14.922
49495W        W13219  33.942  15.123  13.489
49496W        W13220  25.601  34.006   3.379
49497W        W13221   6.360  11.854  13.397
49498W        W13222  43.015  36.382   4.269
49499W        W13223  25.216  34.540   1.784
49500W        W13224  14.604  42.444  10.505
49501W        W13225  11.294  20.633   2.724
49502W        W13226  39.925  36.446  12.980
49503W        W13227   4.320  38.550  11.984
49504W        W13228  39.490  19.048  12.407
49505W        W13229  28.561  13.115  14.426
49506W        W13230   8.377  33.879  10.443
49507W        W13231  10.203  43.438   0.247
49508W        W13232  33.948   4.845  12.023
49509W        W13233  10.307  11.767  12.465
49510W        W13234  29.583  24.544  12.909
49511W        W13235  12.288  25.207  12.502
49512W        W13236  36.945  26.088  11.024
49513W        W13237   2.726  11.710   3.841
49514W        W13238   5.416  37.060   2.368
49515W        W13239  43.855  11.354  13.839
49516W        W13240  12.672   9.199   1.236
49517W        W13241  17.233   6.324  11.516
49518W        W13242  32.478  32.956  13.394
49519W        W13243  39.336  14.146   4.793
49520W        W13244   1.457   5.283  14.406
49521W        W13245  30.026  41.906  14.399
49522W        W13246  40.802  44.952   4.124
49523W        W13247  23.502   2.846   0.795
49524W        W13248  10.215  44.461   3.359
49525W        W13249   8.676  29.959  12.988
49526W        W13250  27.594  12.727  12.983
49527W        W13251  32.027  19.211   2.883
49528W        W13252  26.699  27.081  10.985
49529W        W13253  20.166  31.915  13.862
49530W        W13254   4.319  34.951  12.010
49531W        W13255  20.270  19.617   2.753
49532W        W13256  24.171  41.799   9.991
49533W        W13257  33.966   1.907  13.836
49534W        W13258  17.616  27.636  11.120
49535W        W13259   9.821  23.104   4.669
49536W        W13260  21.641   7.273   2.738
49537W        W13261  25.472  35.421  14.376
49538W        W13262  22.644  16.658  11.509
49539W        W13263  32.412  35.377  12.066
49540W        W13264  27.453  20.623  12.471
49541W        W13265  24.117   1.471  11.883
49542W        W13266  20.730   4.800   0.309
49543W        W13267  43.955  14.834   4.785
49544W        W13268  11.202  19.660  13.930
49545W        W13269  12.743  40.908  12.354
49546W        W13270  12.149  16.721  14.380
49547W        W13271  16.245  25.006  12.551
49548W        W13272   5.864   8.284   4.615
49549W        W13273   8.195  31.929   2.672
49550W        W13274  22.683   7.675  13.946
49551W        W13275  32.608  27.154  14.444
49552W        W13276  30.099  30.554   4.839
49553W        W13277  39.927  25.528  12.347
49554W        W13278  33.552  15.705  14.965
49555W        W13279  42.923  24.055  11.063
49556W        W13280  40.348   4.804  12.382
49557W        W13281   3.942  14.713   4.777
49558W        W13282  18.558   5.831   2.230
49559W        W13283   3.367  43.321   0.917
49560W        W13284  29.067  14.624  11.108
49561W        W13285  38.403  22.240  13.911
49562W        W13286  19.104  34.879  14.297
49563W        W13287  44.396  10.268   5.200
49564W        W13288  22.137   5.934   4.676
49565W        W13289  23.642  38.356   2.800
49566W        W13290  26.548  13.715   3.245
49567W        W13291  24.689  21.063  13.526
49568W        W13292  25.502  38.866  10.021
49569W        W13293  40.914  28.612   4.776
49570W        W13294   3.342  30.133  12.552
49571W        W13295  25.610   8.780  12.061
49572W        W13296  28.663  34.485  12.974
49573W        W13297   8.254  26.096   2.246
49574W        W13298   5.242  12.249   3.686
49575W        W13299  28.930  30.996   2.342
49576W        W13300  43.817  28.591  14.016
49577W        W13301  13.209   1.464  14.479
49578W        W13302  16.194  10.750   0.372
49579W        W13303  33.124   6.202  11.398
49580W        W13304   7.701  11.347   4.199
49581W        W13305   9.690  26.982   3.636
49582W        W13306  33.408  35.893  10.480
49583W        W13307   2.942  43.420   2.256
49584W        W13308   5.920  19.691  13.328
49585W        W13309  15.323  31.604   4.199
49586W        W13310   7.759  44.313   0.349
49587W        W13311  16.680  36.519   1.432
49588W        W13312  10.299  26.558   0.437
49589W        W13313   5.916   3.299  13.880
49590W        W13314  10.829  42.290   1.270
49591W        W13315  12.303  30.127  12.852
49592W        W13316  35.913  32.957  13.406
49593W        W13317  29.093  42.327   2.388
49594W        W13318  19.085  12.780   4.836
49595W        W13319  35.392  24.211  13.921
49596W        W13320  40.814  39.008  12.540
49597W        W13321  17.265  17.737   4.611
49598W        W13322  40.029   8.843   0.298
49599W        W13323  25.510   1.818   3.633
49600W        W13324  39.367  17.555  12.350
49601W        W13325  24.008  14.685   3.374
49602W        W13326  44.796  18.591  14.859
49603W        W13327   7.889   1.399  14.832
49604W        W13328  28.445  38.466   1.304
49605W        W13329   9.288  17.219   3.842
49606W        W13330   7.812  26.039  10.635
49607W        W13331  21.738  23.092   1.919
49608W        W13332   1.797  29.018   4.178
49609W        W13333  12.141  16.243  12.418
49610W        W13334  33.081  15.195  10.994
49611W        W13335   9.751  13.180   2.198
49612W        W13336   7.174  18.159   4.746
49613W        W13337   5.777  33.033   2.857
49614W        W13338  44.452   2.888   0.944
49615W        W13339   6.285  31.986   0.913
49616W        W13340  18.060  32.025  11.458
49617W        W13341  35.563  22.228   3.217
49618W        W13342   7.831   2.351   3.871
49619W        W13343  34.939   9.184   3.830
49620W        W13344   0.765  12.300  13.791
49621W        W13345  23.625  24.717   0.394
49622W        W13346  31.458   6.232  11.586
49623W        W13347  39.017  35.400   1.228
49624W        W13348  25.473  23.558   4.824
49625W        W13349  11.817  20.038  12.841
49626W        W13350  34.021   9.364   4.119
49627W        W13351  32.608   9.765   3.372
49628W        W13352  14.734  19.599   3.712
49629W        W13353   0.874  37.938  13.901
49630W        W13354   3.414  18.791   4.702
49631W        W13355  17.753  13.713  12.432
49632W        W13356  30.155  34.107  14.492
49633W        W13357   7.308  31.007   3.868
49634W        W13358   5.357  13.757  13.438
49635W        W13359  37.504  26.648  10.053
49636W        W13360   9.731   6.841   0.853
49637W        W13361  44.307  32.586   1.313
49638W        W13362  41.479  44.877  12.963
49639W        W13363  34.938  27.093   1.353
49640W        W13364  39.930  36.540   2.401
49641W        W13365  29.969  41.806  12.074
49642W        W13366   4.239  42.005   1.757
49643W        W13367  37.430  26.196   4.128
49644W        W13368  37.868  31.602  11.374
49645W        W13369   1.479  31.014  11.967
49646W        W13370  32.411  14.196  14.872
49647W        W13371  15.783   7.322  13.398
49648W        W13372  18.733  18.147  10.944
49649W        W13373  17.134  11.373   2.179
49650W        W13374  21.149  32.128  13.345
49651W        W13375  42.334  33.427   4.605
49652W        W13376  28.643  31.462   3.698
49653W        W13377  31.461   2.944   1.787
49654W        W13378  12.757   9.658  14.291
49655W        W13379  44.006  18.733  13.434
49656W        W13380  23.240  16.198   3.653
49657W        W13381  16.167  10.815  11.075
49658W        W13382  22.022  38.937  11.389
49659W        W13383  22.562  39.968  14.886
49660W        W13384  39.324  23.037   2.806
49661W        W13385  43.021  14.720  13.913
49662W        W13386  37.436  19.702  13.318
49663W        W13387  35.475  32.139   1.434
49664W        W13388  42.918  15.096  11.471
49665W        W13389  14.148  39.906   2.293
49666W        W13390  21.218  23.577  14.493
49667W        W13391  27.154   0.981   1.796
49668W        W13392  21.112  28.029   2.381
49669W        W13393   5.437  37.860  12.909
49670W        W13394  10.769  32.449  13.011
49671W        W13395  13.136  33.572  14.872
49672W        W13396  12.301   7.767   4.813
49673W        W13397   9.342   4.234   2.667
49674W        W13398   3.760  22.048  11.065
49675W        W13399  35.033   3.293   3.726
49676W        W13400  16.627  29.664  12.539
49677W        W13401  12.628   3.399  13.372
49678W        W13402   4.862   2.960   0.888
49679W        W13403  17.140  12.733   1.291
49680W        W13404   3.304   1.901  12.017
49681W        W13405  28.668  14.672  13.791
49682W        W13406  35.858  27.478   0.768
49683W        W13407  39.045  36.536  14.499
49684W        W13408  18.596  37.069  14.029
49685W        W13409  44.892  29.154  13.511
49686W        W13410  15.580  17.761  11.553
49687W        W13411  34.952  22.520   3.349
49688W        W13412  37.922  10.764  13.934
49689W        W13413  32.047   7.228  12.437
49690W        W13414   9.730  25.173  13.896
49691W        W13415  26.521  10.336  10.929
49692W        W13416  32.623  10.201  13.324
49693W        W13417  33.915  40.051   4.795
49694W        W13418  22.705   3.260   3.244
49695W        W13419  19.639  29.158   2.883
49696W        W13420  28.167  14.303   1.230
49697W        W13421  16.153  23.710  14.466
49698W        W13422   8.818   8.214   0.848
49699W        W13423  37.067  41.515  14.300
49700W        W13424  40.520   0.280  14.310
49701W        W13425   0.416  23.722   2.850
49702W        W13426  42.793   9.355  14.964
49703W        W13427  41.999  16.568  11.929
49704W        W13428  11.802  17.725   2.801
49705W        W13429  13.223  36.937   3.662
49706W        W13430  33.620  26.613  12.365
49707W        W13431  20.572  11.367  14.477
49708W        W13432  27.178   2.962  12.825
49709W        W13433  41.984  12.612  12.568
49710W        W13434   5.320  43.456  11.017
49711W        W13435  40.937  15.146   4.117
49712W        W13436  31.559   3.761   0.454
49713W        W13437   8.656  12.337   5.586
49714W        W13438  24.167  15.156   2.749
49715W        W13439  16.286   2.453   1.806
49716W        W13440  11.647  39.920  14.979
49717W        W13441   8.177  10.193  12.455
49718W        W13442  32.421  25.025   0.767
49719W        W13443  21.579  44.378   4.210
49720W        W13444  40.521  28.092  12.081
49721W        W13445   4.857  26.112   0.874
49722W        W13446  34.020  15.169   2.306
49723W        W13447  20.254  37.415  11.932
49724W        W13448  16.117  30.422  13.311
49725W        W13449   1.896  18.624   5.251
49726W        W13450   1.428  15.104  13.933
49727W        W13451  31.899  35.944   2.901
49728W        W13452  26.052  15.741  13.829
49729W        W13453  42.806  14.247   2.217
49730W        W13454   3.277  35.501  10.600
49731W        W13455  39.882  31.975   1.234
49732W        W13456  36.905  16.773   1.715
49733W        W13457  29.053   5.276   3.348
49734W        W13458  31.642  25.654   3.638
49735W        W13459  42.010  20.087   3.338
49736W        W13460  37.860  39.465   2.878
49737W        W13461  43.827   5.852   3.208
49738W        W13462  28.624  21.739  14.435
49739W        W13463  43.886  35.510   0.400
49740W        W13464  30.654  44.813  12.529
49741W        W13465  12.191  12.224   3.831
49742W        W13466   6.405  10.293  11.096
49743W        W13467  41.461  24.561   5.650
49744W        W13468  15.226  37.842  14.359
49745W        W13469  30.072  26.515   2.708
49746W        W13470  36.052   6.892   2.285
49747W        W13471  14.614  18.248   2.275
49748W        W13472  32.060  18.164  12.419
49749W        W13473   2.818  21.260   1.897
49750W        W13474  16.726  39.422  14.318
49751W        W13475  11.274  25.495   2.859
49752W        W13476  16.231  39.886  10.943
49753W        W13477   2.929   4.354   3.686
49754W        W13478  35.942  44.420  13.992
49755W        W13479  10.187  33.511  12.832
49756W        W13480  16.672  32.089   1.854
49757W        W13481   5.399  35.592   0.244
49758W        W13482   5.803  43.511  10.912
49759W        W13483   2.910  33.489  10.416
49760W        W13484  37.003   6.345   2.370
49761W        W13485  13.130  38.934   0.863
49762W        W13486  18.179  38.901  13.438
49763W        W13487   8.384   6.420  10.480
49764W        W13488  29.632   3.336   1.833
49765W        W13489  42.524   6.218   4.118
49766W        W13490  10.210  11.802   4.709
49767W        W13491  16.297  33.541   0.866
49768W        W13492  43.927  36.861  14.966
49769W        W13493  32.054  32.898   0.352
49770W        W13494  25.534  32.071   4.828
49771W        W13495  18.658  20.746   3.699
49772W        W13496   6.304  43.442  13.052
49773W        W13497   0.810  13.768  13.881
49774W        W13498  25.198  13.230  11.379
49775W        W13499  42.372   3.345   1.226
49776W        W13500  29.488  12.722  13.019
49777W        W13501   9.373  17.067   1.339
49778W        W13502  44.842  20.590   2.232
49779W        W13503   4.449  40.043   0.393
49780W        W13504  26.169  21.147  11.901
49781W        W13505   4.788   0.898  13.370
49782W        W13506  19.181  32.402  12.488
49783W        W13507  18.184   0.820  10.612
49784W        W13508  28.975  38.890   4.667
49785W        W13509  10.769   4.394  10.549
49786W        W13510  41.999  10.643   4.228
49787W        W13511  36.029  28.998   0.730
49788W        W13512  44.465  12.324   9.939
49789W        W13513  42.900  10.320   3.634
49790W        W13514  38.416  22.025  14.796
49791W        W13515  43.941  22.220   3.317
49792W        W13516  31.574   1.243  14.439
49793W        W13517  39.559  21.096  13.542
49794W        W13518  21.575  32.072   1.291
49795W        W13519  41.806   8.797  10.967
49796W        W13520   6.313  20.528   0.916
49797W        W13521  37.868  13.780   4.659
49798W        W13522  35.999   9.243   1.824
49799W        W13523  34.437  25.577  13.408
49800W        W13524   3.855   8.242  13.830
49801W        W13525   7.331  34.546   4.808
49802W        W13526   2.782   4.376  13.014
49803W        W13527   5.757  18.220  14.387
49804W        W13528  42.410  40.023   2.219
49805W        W13529  20.211  25.704  10.914
49806W        W13530  28.976   2.418  12.389
49807W        W13531  38.000   6.428   2.707
49808W        W13532  16.722  19.068   3.205
49809W        W13533  28.069  14.823   0.482
49810W        W13534   5.922   4.936  10.634
49811W        W13535   9.700  43.405  11.040
49812W        W13536  36.847  38.912  11.036
49813W        W13537  37.485  31.545   0.450
49814W        W13538  11.336   2.871   2.769
49815W        W13539  11.644  43.792  14.384
49816W        W13540  27.970  17.785  12.910
49817W        W13541  13.693  19.272   3.816
49818W        W13542  40.335  33.463   0.759
49819W        W13543  39.453  25.567   4.296
49820W        W13544  11.127  12.654  10.581
49821W        W13545  35.063  20.757  10.961
49822W        W13546  42.906  14.215   3.252
49823W        W13547  35.938  43.898   3.363
49824W        W13548  19.245  10.723   1.399
49825W        W13549   6.260  22.088   0.889
49826W        W13550  11.143   4.315   9.668
49827W        W13551   7.686  42.341   2.332
49828W        W13552  34.495  30.521  12.474
49829W        W13553   5.745  39.863   3.343
49830W        W13554  19.140  17.238   2.419
49831W        W13555  30.445   1.455   2.266
49832W        W13556  38.856  10.367   3.709
49833W        W13557  19.633  19.582   4.787
49834W        W13558   2.399  30.910  11.090
49835W        W13559  41.940  22.047   3.247
49836W        W13560  44.936  10.292   1.403
49837W        W13561  41.975   8.726  13.015
49838W        W13562  35.010  17.712   1.266
49839W        W13563  22.116  11.796   0.333
49840W        W13564  17.734  38.015  12.469
49841W        W13565   1.745  16.756   0.908
49842W        W13566   2.829  40.937  11.434
49843W        W13567   3.366  11.146   0.961
49844W        W13568   7.785  17.654  11.015
49845W        W13569  17.595  41.829   3.663
49846W        W13570  13.839  13.223   4.602
49847W        W13571  44.331   9.814   0.246
49848W        W13572  40.982  26.011  10.069
49849W        W13573  30.067  15.686  14.831
49850W        W13574  11.254   1.265   2.840
49851W        W13575  38.324  32.110   0.329
49852W        W13576   8.252  19.741  12.569
49853W        W13577  42.453  43.822   2.226
49854W        W13578  41.490  37.418  13.494
49855W        W13579  30.143   7.388  13.020
49856W        W13580  43.806   4.822  12.902
49857W        W13581   5.879  29.994  11.514
49858W        W13582  23.103  35.444  13.930
49859W        W13583  15.587  36.082   3.344
49860W        W13584  43.816   0.488  12.345
49861W        W13585  19.736   5.900  13.922
49862W        W13586  16.663  38.886  13.860
49863W        W13587  10.374   7.907  12.974
49864W        W13588  28.005   8.694   0.271
49865W        W13589  32.458  33.997   4.115
49866W        W13590  11.175  22.640  13.877
49867W        W13591  25.691   9.727   1.304
49868W        W13592   1.814  39.327  10.450
49869W        W13593   4.204   6.347   3.352
49870W        W13594   6.819  29.602   3.333
49871W        W13595  35.000  10.326  13.493
49872W        W13596  35.952  18.545   3.232
49873W        W13597  37.413  37.498  11.061
49874W        W13598   5.895  23.024   1.443
49875W        W13599  11.154  30.509  14.511
49876W        W13600  28.559  32.081   2.240
49877W        W13601  15.663   2.816   4.339
49878W        W13602   0.918  20.637   1.346
49879W        W13603  18.283  16.618  11.104
49880W        W13604  35.464  10.644  13.817
49881W        W13605  20.040   0.405  13.879
49882W        W13606  34.072  11.273  11.387
49883W        W13607  23.204  12.765  10.541
49884W        W13608  23.659  32.899   3.817
49885W        W13609  30.161  35.988  14.370
49886W        W13610  23.492  20.639   4.725
49887W        W13611  17.092  32.085   4.684
49888W        W13612  38.972   4.405   0.775
49889W        W13613  39.994   7.681   1.291
49890W        W13614  43.998  19.770   3.359
49891W        W13615  16.790  37.551   4.319
49892W        W13616  38.383  10.245  14.902
49893W        W13617  41.318  14.606   0.897
49894W        W13618  25.114  36.535  13.480
49895W        W13619  14.112  22.046  11.075
49896W        W13620  14.775  28.090  14.460
49897W        W13621  31.578  28.993  13.516
49898W        W13622  23.540  24.150   3.260
49899W        W13623   8.333  14.676   4.823
49900W        W13624  17.104  29.616   1.275
49901W        W13625  16.720  28.596  13.539
49902W        W13626  42.931   8.246   0.418
49903W        W13627   2.826  18.140   4.312
49904W        W13628  27.537  16.579  14.442
49905W        W13629  16.236  26.969   0.243
49906W        W13630  21.174  22.058  10.900
49907W        W13631   5.202  12.151   1.315
49908W        W13632  10.168   0.765   2.293
49909W        W13633  39.366  14.771   4.598
49910W        W13634   7.255  23.017   2.354
49911W        W13635  32.888  26.125  13.982
49912W        W13636  18.574  40.327   0.462
49913W        W13637  26.483  40.841  13.486
49914W        W13638  18.654  24.042  14.963
49915W        W13639  35.943   8.260  14.347
49916W        W13640  20.602  19.729  11.510
49917W        W13641  40.448  18.570  11.059
49918W        W13642  31.096   6.317   4.190
49919W        W13643  10.238   2.329  13.540
49920W        W13644  13.105  39.017   2.241
49921W        W13645  18.630  25.193  14.981
49922W        W13646   4.283   7.673   4.240
49923W        W13647  38.548  25.086   3.637
49924W        W13648  20.153  17.721  10.477
49925W        W13649  32.491  21.069   4.813
49926W        W13650  28.944   3.337  14.489
49927W        W13651  12.632  24.146  12.872
49928W        W13652  42.799  34.928  14.466
49929W        W13653  41.012  15.644   1.904
49930W        W13654   7.765  31.119   1.362
49931W        W13655  29.528  10.808  11.593
49932W        W13656  24.516  18.246  13.875
49933W        W13657   8.672  29.464  12.401
49934W        W13658   9.216  39.901   4.735
49935W        W13659  32.072  40.038   0.864
49936W        W13660  29.946  10.166   1.409
49937W        W13661  32.599  23.009   1.776
49938W        W13662  43.820   4.449  12.393
49939W        W13663  37.960  40.005   1.362
49940W        W13664  40.442   1.805   0.798
49941W        W13665  39.364  24.596   4.648
49942W        W13666  18.067  23.516  10.939
49943W        W13667  12.275  35.412   0.914
49944W        W13668  24.681  21.051  12.532
49945W        W13669   4.773   3.808  13.353
49946W        W13670   4.219  11.842  13.917
49947W        W13671   0.772  42.366  12.514
49948W        W13672   5.842   2.419  12.019
49949W        W13673  42.993  32.972  13.503
49950W        W13674  23.098   6.401   0.760
49951W        W13675  10.740  23.167  13.811
49952W        W13676  37.342  19.258  13.485
49953W        W13677  22.735  32.515   0.736
49954W        W13678  28.596   8.251   2.187
49955W        W13679  30.140  33.595   3.235
49956W        W13680  19.706   5.295   2.297
49957W        W13681   7.226   4.759   4.831
49958W        W13682  15.823  44.768   2.319
49959W        W13683  36.078  34.938   4.618
49960W        W13684  24.093  36.849  14.984
49961W        W13685  16.212  37.907  13.819
49962W        W13686  13.347  25.527  14.460
49963W        W13687  42.513   5.301   4.236
49964W        W13688  12.646  25.670   4.295
49965W        W13689  43.815   8.339   1.902
49966W        W13690   2.426  38.510   3.374
49967W        W13691  17.237  37.923  11.378
49968W        W13692  15.818   9.769   4.747
49969W        W13693  33.061  37.876   2.800
49970W        W13694  15.620  26.660   0.792
49971W        W13695  11.142  23.059   2.376
49972W        W13696  35.045   7.824  13.019
49973W        W13697   8.749  14.670  13.046
49974W        W13698   9.867  42.908   0.860
49975W        W13699  11.193  13.138  10.970
49976W        W13700  30.435   2.940   1.387
49977W        W13701  33.589  22.658  12.510
49978W        W13702  39.430  41.467   4.345
49979W        W13703  41.511  14.160   1.415
49980W        W13704  28.482  20.195  13.480
49981W        W13705  32.141  33.538  12.928
49982W        W13706   4.402  20.632   4.653
49983W        W13707  14.701  38.921   4.274
49984W        W13708   3.730  42.489   0.938
49985W        W13709  29.066  28.523  14.470
49986W        W13710  44.324  22.736  13.499
49987W        W13711  39.386  13.239   0.965
49988W        W13712   3.795  28.149  14.456
49989W        W13713  22.643  42.369   4.675
49990W        W13714  29.633  25.218  13.397
49991W        W13715   5.933   4.764   3.764
49992W        W13716  20.140  44.795  14.021
49993W        W13717   6.182   8.808   4.231
49994W        W13718  24.182  43.412  12.987
49995W        W13719  34.557   0.917   4.150
49996W        W13720  18.653  34.450  13.912
49997W        W13721  33.014   8.385  12.842
49998W        W13722   1.362  37.507  10.431
49999W        W13723  43.397  18.252   0.388
50000W        W13724  27.079  37.494   1.898
50001W        W13725  23.051  20.076   2.711
50002W        W13726  20.673  33.046  10.964
50003W        W13727  15.308   9.349  11.989
50004W        W13728  31.078  18.258   0.393
50005W        W13729  10.186   3.843   1.783
50006W        W13730   9.651  32.579  14.771
50007W        W13731  36.415  27.661  12.515
50008W        W13732  31.609  36.855  11.450
50009W        W13733   4.787  16.092  13.019
50010W        W13734  26.642  35.001   0.428
50011W        W13735  37.493   2.928   1.840
50012W        W13736  18.108   1.455   2.255
50013W        W13737  12.352  28.512   1.808
50014W        W13738  42.453   7.702   1.848
50015W        W13739  23.081  32.138   1.376
50016W        W13740  24.002  44.929   2.764
50017W        W13741   1.954  11.280   1.440
50018W        W13742  16.595  43.810   2.724
50019W        W13743  11.739  33.031   0.813
50020W        W13744  42.844  30.529  13.447
50021W        W13745  23.229  29.617  11.505
50022W        W13746  38.906  39.818  11.601
50023W        W13747  29.063  17.175   2.736
50024W        W13748   7.837   6.386  14.935
50025W        W13749  34.513  30.934  14.354
50026W        W13750  39.923  17.607  10.549
50027W        W13751  19.764  39.461   2.900
50028W        W13752   3.410  12.330  13.030
50029W        W13753  34.436  16.191  13.418
50030W        W13754  21.063  10.804  10.467
50031W        W13755  44.969  20.633  11.494
50032W        W13756  18.612  44.814  11.882
50033W        W13757  36.045   0.835  12.925
50034W        W13758  28.666   1.453  14.000
50035W        W13759  25.110  37.838   0.346
50036W        W13760  22.681   6.328  13.444
50037W        W13761   0.945  36.447   9.966
50038W        W13762  11.207  21.025   0.321
50039W        W13763  16.185  38.889  10.635
50040W        W13764  40.025  41.810  10.941
50041W        W13765  44.977  30.134  10.938
50042W        W13766  41.405   6.245   2.734
50043W        W13767   1.792  18.116  12.350
50044W        W13768  40.483   0.451   4.165
50045W        W13769  21.111  13.186   3.336
50046W        W13770  41.524  22.113   3.205
50047W        W13771   5.381  30.473  11.383
50048W        W13772  39.341  35.852  11.934
50049W        W13773  19.237  16.252  14.994
50050W        W13774  16.159   4.921   2.724
50051W        W13775   3.904   9.204  14.413
50052W        W13776  31.928  11.848  10.403
50053W        W13777   1.265  13.115   0.395
50054W        W13778   9.158  32.492   1.888
50055W        W13779  20.091  31.540   0.279
50056W        W13780  22.562   5.896  10.999
50057W        W13781  32.979  27.575  11.007
50058W        W13782   3.351  18.747  14.950
50059W        W13783  24.702   6.808   4.114
50060W        W13784   3.376  42.819  10.965
50061W        W13785  19.564  42.921   3.793
50062W        W13786   5.219  31.477   1.333
50063W        W13787   3.717  16.128   4.838
50064W        W13788  44.263  22.151   4.692
50065W        W13789  20.550  24.611  13.031
50066W        W13790  42.972   2.944   4.602
50067W        W13791  20.048  23.717  12.486
50068W        W13792  13.230  23.164  12.828
50069W        W13793   4.710  16.583   1.327
50070W        W13794  34.025  15.713   5.797
50071W        W13795  27.626  10.140  14.401
50072W        W13796  42.284  40.027  10.962
50073W        W13797  41.469  22.191   4.254
50074W        W13798  15.270   6.260   1.694
50075W        W13799   3.898  32.078  11.985
50076W        W13800   7.749  25.638   2.260
50077W        W13801  41.395  23.533  11.467
50078W        W13802  38.450  11.818   0.933
50079W        W13803  11.637   0.370   0.335
50080W        W13804  12.152   5.754   2.880
50081W        W13805  25.031  12.323  10.903
50082W        W13806  12.816   0.792   2.754
50083W        W13807  15.678   0.482  12.578
50084W        W13808  18.713   5.730  14.885
50085W        W13809   5.276  32.977  12.964
50086W        W13810   5.334  20.748  11.879
50087W        W13811  24.209  44.486   0.358
50088W        W13812  24.075  29.570   4.809
50089W        W13813  27.984  39.858   3.734
50090W        W13814  35.014  35.872   4.829
50091W        W13815   7.390  32.054   1.741
50092W        W13816  44.463  44.295   5.286
50093W        W13817  15.239   6.680   9.602
50094W        W13818  14.199  24.658   4.814
50095W        W13819  11.622   5.378  11.487
50096W        W13820  21.709  12.220  11.071
50097W        W13821  16.718  23.577  14.321
50098W        W13822  15.664   5.751   3.701
50099W        W13823  19.741  44.303   1.379
50100W        W13824  39.833   8.770   1.432
50101W        W13825  12.688  15.248  12.906
50102W        W13826   1.320  20.045   0.244
50103W        W13827  29.444  16.218  11.373
50104W        W13828  11.168  37.475   2.209
50105W        W13829  13.192  32.895  13.054
50106W        W13830  13.741  31.441  12.363
50107W        W13831  13.838  18.785  11.456
50108W        W13832  37.857   9.245  14.370
50109W        W13833  37.840  21.583  11.039
50110W        W13834  41.010   6.866   0.433
50111W        W13835  37.032   7.793  10.556
50112W        W13836   9.714   1.821   0.781
50113W        W13837  44.284  28.478   4.307
50114W        W13838  42.404  41.393   2.817
50115W        W13839  19.189   0.780   3.195
50116W        W13840  24.578  36.558   2.304
50117W        W13841  24.492  12.131   2.792
50118W        W13842  21.713  37.577   2.378
50119W        W13843  22.225  28.578   1.449
50120W        W13844  31.979  14.289   3.380
50121W        W13845  34.094  26.521  10.596
50122W        W13846   8.367  36.412  10.577
50123W        W13847  30.602  44.799   3.774
50124W        W13848  42.013  42.932   0.420
50125W        W13849  28.042  36.488   2.277
50126W        W13850   8.702  12.807  10.899
50127W        W13851  32.519  32.464   3.162
50128W        W13852  35.052  37.448   1.705
50129W        W13853  23.196  20.755   0.327
50130W        W13854  42.972   1.916  11.125
50131W        W13855  34.927  11.128   9.936
50132W        W13856  41.435  28.540   1.824
50133W        W13857  44.392   2.294   1.852
50134W        W13858  38.045  29.593  12.959
50135W        W13859   7.371  30.981   4.791
50136W        W13860  42.959  12.686   0.730
50137W        W13861  18.233  33.903  13.045
50138W        W13862   5.363  24.513  11.053
50139W        W13863  28.987   4.272   3.665
50140W        W13864  11.143   9.648  13.817
50141W        W13865   7.286   3.324  12.403
50142W        W13866  17.734  41.905   2.230
50143W        W13867  38.430  18.062  13.927
50144W        W13868  21.128  33.569   3.184
50145W        W13869  15.647  16.586  11.982
50146W        W13870  32.143  23.228   0.372
50147W        W13871   6.379  19.728   4.338
50148W        W13872  12.323   5.782  10.002
50149W        W13873  31.548   4.281  12.344
50150W        W13874  29.158   9.823  12.451
50151W        W13875  17.668  33.005   0.800
50152W        W13876   0.864  42.013   2.326
50153W        W13877  32.514  21.578   4.695
50154W        W13878  16.272  14.164  10.037
50155W        W13879  31.018  35.991   1.300
50156W        W13880   6.286  11.677   3.265
50157W        W13881  17.195  23.045  14.341
50158W        W13882  13.640  34.463  12.990
50159W        W13883   3.283   9.732   3.178
50160W        W13884   7.343  12.749  10.041
50161W        W13885  38.839   8.819   2.860
50162W        W13886  10.383  16.232   4.264
50163W        W13887  37.975  24.149   0.856
50164W        W13888   7.836  30.562   0.480
50165W        W13889  30.586   0.910   4.219
50166W        W13890  14.696   4.808   0.771
50167W        W13891  13.753  25.607   2.732
50168W        W13892  12.795  17.181  14.899
50169W        W13893  24.004   0.348   2.255
50170W        W13894   4.848  20.177   0.244
50171W        W13895  16.270   2.786  10.508
50172W        W13896   2.241  16.709   1.335
50173W        W13897  10.846  25.520   0.433
50174W        W13898   9.160  44.765   1.762
50175W        W13899  35.959   5.895  14.438
50176W        W13900  11.778  32.932   4.747
50177W        W13901  33.465  44.764   2.259
50178W        W13902   8.217  42.326   3.696
50179W        W13903  26.073  21.253   3.374
50180W        W13904  19.723  28.090   4.137
50181W        W13905  36.482  39.012  12.445
50182W        W13906  42.383  33.390  13.826
50183W        W13907  28.529  25.602  12.018
50184W        W13908  12.322  42.375   1.721
50185W        W13909  44.297  41.030  13.370
50186W        W13910   5.327  32.622   1.903
50187W        W13911   6.805   9.221   1.853
50188W        W13912  39.050   1.264  14.438
50189W        W13913  40.416  43.775   2.751
50190W        W13914  27.568  20.146   4.766
50191W        W13915  40.338  32.091   1.232
50192W        W13916  18.764   9.385   1.252
50193W        W13917  39.479  32.603  14.849
50194W        W13918  29.101  15.125  14.299
50195W        W13919   1.362  31.564  13.036
50196W        W13920  22.044  33.002  10.588
50197W        W13921  15.314   8.379   9.527
50198W        W13922  40.440  19.156  13.492
50199W        W13923  28.576   0.988  10.963
50200W        W13924  16.633  16.154   3.632
50201W        W13925   9.682  39.958  13.949
50202W        W13926  41.025   1.885  11.893
50203W        W13927  14.276   1.421  13.333
50204W        W13928  43.988   4.279  12.831
50205W        W13929  37.026   1.742   4.231
50206W        W13930  32.998   1.460   1.839
50207W        W13931  16.211  24.026  10.631
50208W        W13932   7.700   7.193  12.493
50209W        W13933  36.902  32.969  13.007
50210W        W13934   9.849  40.818  13.365
50211W        W13935  11.199  43.374  14.919
50212W        W13936  22.022   0.923  14.969
50213W        W13937  41.524  12.788  12.442
50214W        W13938   9.319  18.665  14.294
50215W        W13939  27.141  13.637  11.011
50216W        W13940  18.653  43.382   4.259
50217W        W13941  25.589  36.017   5.126
50218W        W13942  12.786  33.904   4.134
50219W        W13943  17.613   9.196  13.987
50220W        W13944  39.873  32.131  10.589
50221W        W13945  37.036  28.070   1.286
50222W        W13946  17.753  24.059  10.998
50223W        W13947  44.438  26.468  14.867
50224W        W13948  34.402  12.246   3.277
50225W        W13949  21.521  44.410   3.271
50226W        W13950  15.748   7.228   0.932
50227W        W13951  38.970  16.793   5.203
50228W        W13952  26.028  31.027   5.218
50229W        W13953   6.304  43.996  12.080
50230W        W13954   9.192  26.984   3.175
50231W        W13955  33.060  32.948  10.431
50232W        W13956  42.028  36.392  14.845
50233W        W13957  30.602  44.400  11.003
50234W        W13958  36.515  15.192   9.458
50235W        W13959  23.553  11.331   0.932
50236W        W13960  34.501  14.145   0.405
50237W        W13961  19.672  39.344   2.359
50238W        W13962  32.989  17.251   4.259
50239W        W13963  37.530  20.595   4.681
50240W        W13964  37.947   4.299   3.259
50241W        W13965  27.055  41.446   2.719
50242W        W13966  28.123  40.469  12.901
50243W        W13967  41.512  15.170  12.429
50244W        W13968  33.878  32.052  11.906
50245W        W13969  25.071  30.012   2.685
50246W        W13970   3.352   1.467   1.832
50247W        W13971  39.985  16.230  12.455
50248W        W13972   6.428   9.371   3.163
50249W        W13973   4.888  29.024  11.482
50250W        W13974  22.501  17.585  14.508
50251W        W13975   3.424  34.034   1.882
50252W        W13976   6.807  34.608  13.904
50253W        W13977  40.954   3.711  10.422
50254W        W13978   9.203  29.477  14.513
50255W        W13979   3.359  32.460  14.332
50256W        W13980  21.659  23.125   4.597
50257W        W13981  39.434  18.145  13.469
50258W        W13982  29.449  14.833   3.654
50259W        W13983  16.660  42.475   1.323
50260W        W13984  35.870  31.550   0.825
50261W        W13985  31.640  37.918   2.695
50262W        W13986   4.718   2.355   3.757
50263W        W13987  35.896  12.787  13.481
50264W        W13988   5.746  33.461   4.743
50265W        W13989  11.656  37.510   4.189
50266W        W13990   4.262  12.826  13.961
50267W        W13991  11.757  10.327   4.652
50268W        W13992  22.145  15.316   4.247
50269W        W13993  28.470  31.910  10.409
50270W        W13994  36.014  11.141   1.255
50271W        W13995  21.530   3.375  14.368
50272W        W13996  15.265  29.531  12.025
50273W        W13997   3.452  34.463   2.788
50274W        W13998  33.054  19.163   0.365
50275W        W13999  12.209  16.650   4.728
50276W        W14000   3.746  25.673  10.567
50277W        W14001  13.172  29.433   1.211
50278W        W14002  35.076  33.603   0.843
50279W        W14003  17.764   0.850  11.540
50280W        W14004  35.894  31.038   3.703
50281W        W14005  31.039  18.630  13.520
50282W        W14006  31.058   8.715   3.273
50283W        W14007  21.751  29.454   0.808
50284W        W14008  22.620   6.710   4.813
50285W        W14009  13.602  41.404   4.755
50286W        W14010  16.234  42.440  11.420
50287W        W14011  19.549  10.760  13.815
50288W        W14012   7.866  31.902  11.106
50289W        W14013  21.146  19.272  13.062
50290W        W14014  42.406  19.272  13.894
50291W        W14015  31.117  25.528  14.922
50292W        W14016   5.735  42.389   2.379
50293W        W14017  41.383   6.876  13.479
50294W        W14018  28.948  44.312  14.026
50295W        W14019  38.914  31.004  11.542
50296W        W14020   8.868  21.185   2.342
50297W        W14021   7.393   3.371   0.736
50298W        W14022   7.392  11.787   1.888
50299W        W14023  16.605  16.780  13.005
50300W        W14024  26.083   6.899  11.988
50301W        W14025  33.454   1.479   4.204
50302W        W14026  30.066  18.226   0.421
50303W        W14027  18.077  30.925  13.992
50304W        W14028   7.207   7.785  14.838
50305W        W14029  13.182  40.353  12.566
50306W        W14030   9.281   6.743  13.843
50307W        W14031   2.823  35.520  14.327
50308W        W14032   4.895  13.834  11.894
50309W        W14033  11.782   9.183  14.307
50310W        W14034  16.306  28.515  11.469
50311W        W14035  31.489  26.115   3.707
50312W        W14036  21.185  40.980  10.948
50313W        W14037   3.253   7.868   1.929
50314W        W14038  27.607  37.476  12.354
50315W        W14039  40.438  22.683   4.303
50316W        W14040  31.972  24.553  10.543
50317W        W14041  33.054  42.880   2.414
50318W        W14042  27.992  12.625   1.262
50319W        W14043  19.259  12.767   5.262
50320W        W14044  32.607  18.245   4.733
50321W        W14045   0.987   9.740  10.421
50322W        W14046  29.067  38.528   4.326
50323W        W14047  19.171  22.075   4.654
50324W        W14048   0.408  24.027   3.652
50325W        W14049  37.841   2.935   0.799
50326W        W14050   1.765  11.149   2.816
50327W        W14051  11.371   4.330  14.467
50328W        W14052   2.381   5.724   0.340
50329W        W14053  24.002  40.853  14.474
50330W        W14054   2.410  12.333   3.193
50331W        W14055  24.536  37.385  13.879
50332W        W14056   3.255  42.366   4.733
50333W        W14057  42.966  28.494  11.857
50334W        W14058  18.194   5.766   4.630
50335W        W14059   7.785  41.995   4.742
50336W        W14060   8.272  29.945  14.425
50337W        W14061  20.169  17.079   9.948
50338W        W14062  27.583  20.748  10.463
50339W        W14063  38.413  33.063   2.413
50340W        W14064  34.069   2.472  10.453
50341W        W14065  38.957  26.953  11.858
50342W        W14066  29.555  44.881   0.827
50343W        W14067  22.618   2.465   2.863
50344W        W14068   8.325  30.585  11.380
50345W        W14069  27.963   2.411  13.439
50346W        W14070   1.829  20.729  12.063
50347W        W14071  14.602   3.784   5.266
50348W        W14072  14.804  13.750  13.957
50349W        W14073   1.768  30.565   1.448
50350W        W14074  36.999  39.999   2.304
50351W        W14075  21.230  24.642  14.435
50352W        W14076   3.425  28.134   3.227
50353W        W14077   4.718  11.235  12.057
50354W        W14078  44.472  33.878  14.771
50355W        W14079  15.257   2.435   2.772
50356W        W14080  30.941  22.576   4.231
50357W        W14081  15.613  29.154   4.174
50358W        W14082  36.511   9.202   1.261
50359W        W14083  42.789   4.383  10.999
50360W        W14084  28.958  14.722   3.202
50361W        W14085   6.349  14.747   2.756
50362W        W14086  11.300  15.312  14.773
50363W        W14087   6.230  25.206  11.998
50364W        W14088   0.492  15.257  14.327
50365W        W14089  23.492   0.329  12.859
50366W        W14090  43.899  11.711   4.313
50367W        W14091  41.363   1.262   4.130
50368W        W14092   2.744   5.329  14.791
50369W        W14093  14.631  27.129   1.920
50370W        W14094   0.837  23.207   2.344
50371W        W14095  11.351   6.376   1.935
50372W        W14096  18.673   8.661  14.980
50373W        W14097   2.965  38.350   0.955
50374W        W14098  32.608  10.241   1.779
50375W        W14099   0.322   2.397  14.305
50376W        W14100  42.790  43.942   1.403
50377W        W14101  44.316  28.093  14.944
50378W        W14102  35.109   4.888   2.743
50379W        W14103  33.110  19.714   1.365
50380W        W14104  16.733  23.039   2.188
50381W        W14105   9.324  24.480   3.835
50382W        W14106  17.580   4.752  11.020
50383W        W14107  12.717  23.571  13.411
50384W        W14108  23.620  27.643  11.465
50385W        W14109  12.732  21.629  11.562
50386W        W14110  32.522  25.613   3.787
50387W        W14111  39.960  25.601  12.080
50388W        W14112   7.249  41.911   0.795
50389W        W14113   4.341  39.853  11.091
50390W        W14114  34.507  41.456  14.328
50391W        W14115  31.409  24.500   1.320
50392W        W14116  13.262  24.700  13.953
50393W        W14117  33.054   8.362   1.935
50394W        W14118  18.740  23.079  11.041
50395W        W14119  13.165  12.339   1.269
50396W        W14120  28.186  30.001   0.763
50397W        W14121  35.993  11.802  12.407
50398W        W14122  15.330  26.527   2.347
50399W        W14123   8.365   9.645   1.912
50400W        W14124  12.287  13.347   4.798
50401W        W14125   3.924  25.985  11.063
50402W        W14126  24.709  14.291  12.024
50403W        W14127   0.290  32.968   0.785
50404W        W14128  13.783  20.095  10.913
50405W        W14129  33.380  10.382   2.401
50406W        W14130   5.275  40.922   1.409
50407W        W14131  28.662  15.129   2.726
50408W        W14132  25.624  44.278   1.756
50409W        W14133  26.169  30.986  14.870
50410W        W14134  25.130  30.072  13.902
50411W        W14135  10.333  23.640  11.103
50412W        W14136   9.843   0.852  12.033
50413W        W14137  38.470  41.478  11.405
50414W        W14138   0.759  37.838  10.932
50415W        W14139  31.532  33.025  11.423
50416W        W14140  26.523  38.567   2.319
50417W        W14141   5.395  25.216  13.042
50418W        W14142  31.991  10.639   0.902
50419W        W14143  36.355   5.788  11.879
50420W        W14144  10.249  19.613  13.427
50421W        W14145   6.692  31.581   0.320
50422W        W14146  37.994  33.514  13.845
50423W        W14147  31.570  34.909  12.499
50424W        W14148  33.505  28.106   1.308
50425W        W14149  33.609  20.695  14.396
50426W        W14150   7.405   8.668  10.439
50427W        W14151  11.211   2.315  13.366
50428W        W14152   2.385   1.314   3.269
50429W        W14153  27.960  26.525   1.859
50430W        W14154  31.519  37.488   4.750
50431W        W14155  25.686   6.835  14.799
50432W        W14156   2.946  17.231  12.068
50433W        W14157  21.253   8.247   2.688
50434W        W14158   2.929  42.424  12.862
50435W        W14159   0.814  36.432   2.351
50436W        W14160   8.880  21.606  12.951
50437W        W14161  15.712  41.914  12.000
50438W        W14162  27.183   8.858   2.729
50439W        W14163  25.523  23.989   4.132
50440W        W14164  31.911  34.097   1.449
50441W        W14165  28.932  25.153  14.424
50442W        W14166  42.854   7.342  12.900
50443W        W14167   6.363   8.843  14.512
50444W        W14168  13.325  42.458  13.515
50445W        W14169  29.549  27.981   1.902
50446W        W14170  34.391  18.655   1.373
50447W        W14171  44.299  12.694  13.796
50448W        W14172  41.020  12.117   2.195
50449W        W14173  10.653  39.446  13.501
50450W        W14174  17.109  38.353   2.773
50451W        W14175  15.791   1.764  10.948
50452W        W14176  27.453   7.304   0.863
50453W        W14177   6.358  13.197   2.237
50454W        W14178  38.065   9.664  13.934
50455W        W14179  24.984  14.316   2.356
50456W        W14180  21.116  42.473  11.426
50457W        W14181  11.233  34.564  11.894
50458W        W14182  27.171   1.469   2.667
50459W        W14183  24.632  33.913  11.463
50460W        W14184  10.362  14.266  11.950
50461W        W14185  26.056   7.205   1.910
50462W        W14186  25.110  41.518  11.895
50463W        W14187   5.397  25.076   0.824
50464W        W14188   4.446  39.951  12.534
50465W        W14189  41.980  44.759  14.360
50466W        W14190  37.942  11.153  12.475
50467W        W14191   7.235   0.326  11.024
50468W        W14192   3.764  25.109  11.554
50469W        W14193  29.542  41.904  14.773
50470W        W14194  21.040  23.541   0.397
50471W        W14195  18.609  26.093   1.878
50472W        W14196   9.266  35.934  14.278
50473W        W14197  11.169   8.378  13.843
50474W        W14198  24.189   1.796  10.027
50475W        W14199  33.403   0.794  13.359
50476W        W14200   2.831   2.270  14.779
50477W        W14201   9.794  38.949   1.913
50478W        W14202  23.039  41.383  12.527
50479W        W14203  41.325  37.859  13.849
50480W        W14204  21.741  31.402   0.833
50481W        W14205  44.372  21.577  14.355
50482W        W14206  17.273   6.229  10.967
50483W        W14207  13.311  25.065  11.599
50484W        W14208  40.961  24.571  14.831
50485W        W14209  11.221  18.197   2.291
50486W        W14210  19.257  18.241   3.229
50487W        W14211  30.506   1.839   1.420
50488W        W14212   7.775  18.661   4.223
50489W        W14213  33.594  34.385  10.984
50490W        W14214  28.604   4.380   2.839
50491W        W14215  35.388   4.337  13.427
50492W        W14216  28.075  24.662  12.056
50493W        W14217  42.893   9.275   4.782
50494W        W14218  41.819  19.130  14.325
50495W        W14219  28.006  31.410  13.491
50496W        W14220  12.633  16.249  12.568
50497W        W14221  37.930   8.699  12.395
50498W        W14222  26.955  27.682   4.334
50499W        W14223  13.661   0.268   2.330
50500W        W14224   8.887  15.157  12.894
50501W        W14225  23.126  35.381   2.772
50502W        W14226   7.863   4.427  11.080
50503W        W14227  33.998  25.486  14.387
50504W        W14228  10.348  14.225  14.973
50505W        W14229  23.616  37.338  11.897
50506W        W14230  26.056   3.349  11.535
50507W        W14231  35.555  14.329   3.377
50508W        W14232  10.342  24.618   1.855
50509W        W14233  44.505  21.601  12.423
50510W        W14234  20.045  11.194   4.726
50511W        W14235  41.493  30.465  14.447
50512W        W14236   4.234   2.792   4.634
50513W        W14237  14.096  17.211   0.337
50514W        W14238  16.642  33.127   3.811
50515W        W14239   5.295   2.382   0.332
50516W        W14240   0.966  22.549  13.490
50517W        W14241  38.029  34.911  11.412
50518W        W14242  32.601  25.614  12.388
50519W        W14243   0.813  36.010  14.940
50520W        W14244  31.933  29.624   5.279
50521W        W14245  35.985  33.052  13.002
50522W        W14246  19.592  24.975  14.920
50523W        W14247  30.654  26.525   1.283
50524W        W14248   8.867  36.414  14.799
50525W        W14249  37.007   8.177  14.913
50526W        W14250  32.491   7.716  11.441
50527W        W14251   7.686  28.962  12.922
50528W        W14252  37.337  31.537   1.227
50529W        W14253   2.930  11.132  14.830
50530W        W14254  34.993  14.687  14.968
50531W        W14255  20.127  26.119  10.477
50532W        W14256   5.195   8.189   2.259
50533W        W14257   4.244  23.710  12.522
50534W        W14258   6.900  34.005  11.028
50535W        W14259  12.244  31.134  11.886
50536W        W14260  15.759  35.039   1.251
50537W        W14261  42.972  16.586  14.964
50538W        W14262   7.666  29.525   3.228
50539W        W14263   7.859  31.544   4.677
50540W        W14264  41.489  18.051   4.804
50541W        W14265  12.361  17.132   1.713
50542W        W14266  39.403  29.121   2.244
50543W        W14267  26.527   6.698  14.008
50544W        W14268  37.479   0.374  12.412
50545W        W14269  42.022   4.748   3.363
50546W        W14270  38.426  22.500   9.524
50547W        W14271   9.864  22.106  11.512
50548W        W14272  25.674  42.809  12.545
50549W        W14273  23.709   8.370  13.848
50550W        W14274  18.222  35.081   2.791
50551W        W14275  17.644  44.004   4.216
50552W        W14276  26.640  10.328   0.795
50553W        W14277  44.381  36.368  11.878
50554W        W14278  12.119  22.516   2.358
50555W        W14279  20.241  18.136  10.505
50556W        W14280  22.707  29.465   9.531
50557W        W14281  42.014  41.344   3.813
50558W        W14282  10.813   9.376   1.729
50559W        W14283   0.861   2.723   1.715
50560W        W14284  39.861  33.509   1.720
50561W        W14285  27.050  20.229  12.395
50562W        W14286  12.697  11.152  12.947
50563W        W14287  44.976  26.039  10.470
50564W        W14288   6.888   6.721   2.839
50565W        W14289  19.670   6.360  14.446
50566W        W14290   2.783  22.744   0.824
50567W        W14291  16.236  41.442  13.512
50568W        W14292  34.112  12.625  13.528
50569W        W14293  23.126  43.353   3.854
50570W        W14294   2.899   5.760  14.911
50571W        W14295  13.687   7.771  13.313
50572W        W14296  20.664  19.545  12.527
50573W        W14297  22.022  35.559  11.399
50574W        W14298  31.948  10.877   3.362
50575W        W14299  39.995  26.530   4.661
50576W        W14300  25.699  22.061  13.049
50577W        W14301   9.703   3.309  11.923
50578W        W14302  41.015  19.545  11.010
50579W        W14303   3.945   0.917  14.922
50580W        W14304  30.526  43.980   2.384
50581W        W14305  17.733  20.664  12.993
50582W        W14306  10.248  13.237  12.912
50583W        W14307  14.728  43.353   3.781
50584W        W14308  41.940  25.975   1.260
50585W        W14309  44.979   3.335   1.786
50586W        W14310  22.505  28.964   2.766
50587W        W14311  30.083  25.201   0.821
50588W        W14312   8.302  39.351   1.411
50589W        W14313  20.761  11.675   4.164
50590W        W14314  11.846  40.025   2.878
50591W        W14315  17.241  26.657  12.889
50592W        W14316  42.337  34.962   0.963
50593W        W14317  30.631  32.528  13.063
50594W        W14318  20.060   4.716   2.319
50595W        W14319  42.399  13.791  13.923
50596W        W14320  26.548  14.797  14.492
50597W        W14321  35.573  44.402  10.608
50598W        W14322  21.742   7.267  13.349
50599W        W14323  18.235  15.304  14.333
50600W        W14324  39.852  29.971   3.216
50601W        W14325  26.976  41.869   1.904
50602W        W14326  33.098   7.802  14.834
50603W        W14327  16.804  17.676  11.061
50604W        W14328  26.646  33.551   2.869
50605W        W14329  11.712  31.989   2.731
50606W        W14330  37.053  28.629  11.912
50607W        W14331  24.676  43.322  10.956
50608W        W14332   3.405  23.124   1.218
50609W        W14333   0.302  15.240  13.815
50610W        W14334  18.781  24.497   2.343
50611W        W14335   4.875  40.874   4.818
50612W        W14336  14.203  41.829   3.198
50613W        W14337  25.553  25.031  12.375
50614W        W14338  36.497  22.015  11.559
50615W        W14339   4.387  23.671   4.143
50616W        W14340  26.974  31.005   3.777
50617W        W14341  43.951  20.602   0.289
50618W        W14342   7.289  13.184   2.766
50619W        W14343  44.305   8.671  10.914
50620W        W14344  10.833  12.686  14.494
50621W        W14345  14.275  32.604   2.718
50622W        W14346   2.259  31.584   1.709
50623W        W14347  39.399  35.418  12.484
50624W        W14348  29.650  16.186   4.670
50625W        W14349   3.305  39.882  12.565
50626W        W14350  30.548  14.144   1.869
50627W        W14351  12.706  20.757   1.742
50628W        W14352  23.124   0.491  11.489
50629W        W14353  35.852   6.689   3.651
50630W        W14354  35.572  16.641  12.887
50631W        W14355  30.422  38.491  14.487
50632W        W14356  22.502  13.747   3.703
50633W        W14357   0.847  21.150   1.823
50634W        W14358  27.044  17.589   1.440
50635W        W14359  32.940   4.767  13.793
50636W        W14360  22.523  35.895  10.116
50637W        W14361  42.476   1.807  11.604
50638W        W14362  39.981  18.163   3.764
50639W        W14363  37.435  41.354  14.456
50640W        W14364  40.884  32.471   1.861
50641W        W14365  17.156  21.082  14.779
50642W        W14366  26.959  34.892   2.241
50643W        W14367  23.635  19.754   4.220
50644W        W14368  13.684  27.619  14.779
50645W        W14369  31.129  35.986   4.252
50646W        W14370  30.973  33.939  12.467
50647W        W14371  38.408   5.426   3.769
50648W        W14372  42.788  24.601  10.951
50649W        W14373  18.593  13.207   2.187
50650W        W14374  38.851  23.189   0.348
50651W        W14375   6.260  29.533   0.377
50652W        W14376  36.054  40.925   4.816
50653W        W14377  11.641  12.339  11.008
50654W        W14378  22.028   6.888   1.895
50655W        W14379  16.258  11.347   3.794
50656W        W14380  20.172  44.355   9.922
50657W        W14381   3.245  17.616  14.857
50658W        W14382   4.204  10.828  12.541
50659W        W14383  40.987  35.942  11.927
50660W        W14384   6.901  21.513  11.560
50661W        W14385  25.616  39.814  12.893
50662W        W14386  31.096   7.849  10.524
50663W        W14387  36.862  39.065  13.897
50664W        W14388   8.349  32.519  12.920
50665W        W14389  13.192  13.791   4.174
50666W        W14390  12.822  20.606   3.219
50667W        W14391  23.733  28.581  12.980
50668W        W14392  26.953   4.711   1.412
50669W        W14393  43.461   8.726  11.555
50670W        W14394  39.824  24.495   4.355
50671W        W14395   5.820   6.274   0.260
50672W        W14396  37.472  16.793  12.354
50673W        W14397  11.321   4.301   2.747
50674W        W14398  14.144  30.443   3.840
50675W        W14399  26.009  30.916   4.137
50676W        W14400  38.037  35.414  13.387
50677W        W14401  23.047  38.997   3.178
50678W        W14402   7.746  30.546  13.470
50679W        W14403   3.419  22.092  14.020
50680W        W14404  38.911   1.978   5.297
50681W        W14405  41.360  34.497  11.953
50682W        W14406  10.141  29.528  10.509
50683W        W14407   2.303   0.317   0.303
50684W        W14408   9.320  40.945   1.294
50685W        W14409   6.760  24.568   2.683
50686W        W14410  17.668  42.426   2.345
50687W        W14411  25.638  38.919  10.949
50688W        W14412  25.499  26.974  11.006
50689W        W14413  32.928  39.542   3.857
50690W        W14414  28.623  33.453  11.879
50691W        W14415  33.911  30.590   1.822
50692W        W14416  21.723  23.546   4.208
50693W        W14417  24.723  14.681  11.878
50694W        W14418  30.432  18.687   2.377
50695W        W14419  41.940   3.931  14.844
50696W        W14420  29.047  29.617  13.402
50697W        W14421   1.402  10.859  13.399
50698W        W14422  31.107   2.938   3.164
50699W        W14423  42.787  15.313  13.397
50700W        W14424  43.976   6.739  11.982
50701W        W14425  38.998  11.348  11.991
50702W        W14426  31.140  20.208  11.042
50703W        W14427  31.035  39.417  12.463
50704W        W14428  11.239  16.638   2.356
50705W        W14429   3.220  25.051  14.501
50706W        W14430  10.293  13.331  13.523
50707W        W14431  14.209  26.049  13.914
50708W        W14432  36.403  28.946  11.544
50709W        W14433  44.804  34.519   9.468
50710W        W14434   1.387  10.364  11.394
50711W        W14435  31.899  27.655  14.803
50712W        W14436  28.127  37.974  12.490
50713W        W14437  21.517  38.540  14.897
50714W        W14438  41.339  32.407  13.815
50715W        W14439  25.172  13.835   2.325
50716W        W14440   4.925  39.392   0.477
50717W        W14441  28.976   7.882   1.925
50718W        W14442  12.776  44.006   3.212
50719W        W14443  23.086   9.764  14.877
50720W        W14444  11.190  29.552  14.893
50721W        W14445  35.000   7.277   4.258
50722W        W14446  34.059   2.750  12.049
50723W        W14447  37.861   1.848   2.824
50724W        W14448  21.634   5.810   4.151
50725W        W14449  31.013  30.455  11.926
50726W        W14450  16.078  29.653  12.510
50727W        W14451  27.994  41.955  12.082
50728W        W14452  10.372  43.488   2.665
50729W        W14453  39.448  19.279  11.483
50730W        W14454  32.104  12.784   3.777
50731W        W14455  14.813  36.458  14.494
50732W        W14456   2.416  11.639  12.958
50733W        W14457  36.436  41.460  14.293
50734W        W14458  35.501  17.655  11.885
50735W        W14459  12.623  27.508  13.843
50736W        W14460  26.574  20.718   3.762
50737W        W14461  21.099  43.407   4.135
50738W        W14462  20.201   2.359   2.830
50739W        W14463  28.574  29.085  12.848
50740W        W14464   0.386  38.342  13.792
50741W        W14465   2.395   2.839   3.249
50742W        W14466  20.042   9.340   2.822
50743W        W14467  21.523  17.233  14.983
50744W        W14468   3.310  35.895  12.837
50745W        W14469  20.168  24.987   0.457
50746W        W14470  20.213  22.197   4.232
50747W        W14471  28.959  10.703  10.426
50748W        W14472  29.919  22.116   0.267
50749W        W14473  43.877  27.585  12.911
50750W        W14474  11.721   3.447   0.313
50751W        W14475   2.807  29.426  11.423
50752W        W14476  31.512  14.193   2.841
50753W        W14477   7.352  20.742   0.437
50754W        W14478  20.525  23.220   1.835
50755W        W14479   2.827  26.639   3.858
50756W        W14480  11.662  38.428   2.755
50757W        W14481  41.338  25.657   3.355
50758W        W14482  37.480  18.758   4.802
50759W        W14483  12.232   1.909  14.810
50760W        W14484  19.673  28.000  10.500
50761W        W14485  26.494  11.731  13.477
50762W        W14486   1.912   9.286   4.319
50763W        W14487  28.007  17.075  14.419
50764W        W14488   9.238  29.491  13.045
50765W        W14489  35.012  11.191  11.018
50766W        W14490  12.212  36.036  10.521
50767W        W14491  29.955  13.622  10.455
50768W        W14492  27.672  31.469   2.419
50769W        W14493  26.618  29.496  13.026
50770W        W14494   2.341   1.791   9.945
50771W        W14495  30.085   8.678   1.239
50772W        W14496  15.675   2.795  11.092
50773W        W14497  34.403   9.810  13.876
50774W        W14498  20.669   9.715  11.451
50775W        W14499  22.027  11.771   1.733
50776W        W14500  21.572  34.977  11.114
50777W        W14501  27.150  20.528   3.199
50778W        W14502  34.489  17.800   2.682
50779W        W14503  21.084  39.927  11.514
50780W        W14504  22.061  33.057   2.255
50781W        W14505  41.030   1.310  10.933
50782W        W14506  20.114  19.250  13.334
50783W        W14507  27.545  39.981   2.342
50784W        W14508  10.636  23.510  10.409
50785W        W14509  28.465  29.437   3.756
50786W        W14510  33.993   4.805  12.354
50787W        W14511  29.036   6.713   0.953
50788W        W14512  31.597  19.138   3.286
50789W        W14513  11.171  26.471  11.593
50790W        W14514  23.625  11.621   0.431
50791W        W14515  36.442  30.639   0.322
50792W        W14516  34.475  41.451   0.847
50793W        W14517  25.190  27.589  13.947
50794W        W14518  36.008  29.591  14.284
50795W        W14519   5.423  39.482  14.315
50796W        W14520   1.800  41.354   4.809
50797W        W14521   9.311   3.415   3.828
50798W        W14522  20.240   5.359   3.813
50799W        W14523  33.059   7.213   1.889
50800W        W14524  16.105  18.109   3.843
50801W        W14525   4.450  13.630  11.996
50802W        W14526   7.337  17.131   4.719
50803W        W14527  44.755  31.963   9.980
50804W        W14528  15.779  21.047   1.849
50805W        W14529  10.317  39.457   0.319
50806W        W14530  18.589  40.384  11.082
50807W        W14531  33.506   9.734   1.304
50808W        W14532  29.494  21.617  12.015
50809W        W14533  27.562  12.793  10.495
50810W        W14534  26.140  41.848  11.945
50811W        W14535  37.507   1.893  14.867
50812W        W14536  21.647  34.459   2.743
50813W        W14537  21.177  18.607   4.667
50814W        W14538  14.812  22.112   1.722
50815W        W14539  34.039  22.679   0.855
50816W        W14540  37.356  35.894  13.796
50817W        W14541  40.402  15.682   0.936
50818W        W14542  26.090  27.685  13.876
50819W        W14543  14.121  39.008  12.849
50820W        W14544   8.358  27.028  12.340
50821W        W14545   1.374  30.566   2.368
50822W        W14546  27.620   1.885   3.335
50823W        W14547   1.465   5.236   4.243
50824W        W14548  41.992  39.533  13.882
50825W        W14549  10.200   1.408   3.275
50826W        W14550   3.812  40.444  14.912
50827W        W14551  15.324   7.889   1.869
50828W        W14552   8.197  39.979  12.895
50829W        W14553  20.048  29.130  11.022
50830W        W14554   4.378  33.496  14.836
50831W        W14555  24.098  44.268  11.077
50832W        W14556  31.419  27.951  11.923
50833W        W14557  43.339  39.497  14.505
50834W        W14558  10.324   5.265   1.424
50835W        W14559  22.604  19.639  13.810
50836W        W14560  25.128  16.712   0.381
50837W        W14561   3.357  16.743   3.285
50838W        W14562  23.103  15.153  12.349
50839W        W14563  39.375  29.136   3.253
50840W        W14564  27.515  17.243  13.339
50841W        W14565   5.439  29.985   2.676
50842W        W14566  42.513   8.784   4.128
50843W        W14567  26.095   4.928  10.561
50844W        W14568  15.314  32.968  14.308
50845W        W14569  29.634  31.906   1.800
50846W        W14570   4.325   4.831   0.920
50847W        W14571  37.883  18.720   3.320
50848W        W14572  37.903  34.891  12.860
50849W        W14573  43.509  36.878   3.713
50850W        W14574   6.235   6.289   3.721
50851W        W14575  20.671   2.897   4.163
50852W        W14576   8.670  12.725   4.662
50853W        W14577  23.642   8.852   1.824
50854W        W14578   6.789  24.179  11.947
50855W        W14579   8.838  18.596  14.775
50856W        W14580  28.138  10.850   3.222
50857W        W14581  29.490  17.660  10.893
50858W        W14582  38.551  43.406   0.471
50859W        W14583  12.297  40.540   0.960
50860W        W14584  34.563  11.783  12.463
50861W        W14585  40.016  18.157   4.721
50862W        W14586   4.785  10.157  12.015
50863W        W14587  43.938   4.703  11.118
50864W        W14588  24.013   6.677  13.338
50865W        W14589   1.333  30.645  13.979
50866W        W14590  12.850  26.567   0.288
50867W        W14591   8.740   4.216   1.345
50868W        W14592  33.436  26.041   1.862
50869W        W14593  35.102  34.494   3.867
50870W        W14594  33.094  19.533  13.833
50871W        W14595   2.906  27.649  11.547
50872W        W14596  17.296  24.045  14.977
50873W        W14597   6.285  18.663   2.236
50874W        W14598  17.106  34.442  10.417
50875W        W14599  39.859  38.892  13.497
50876W        W14600  26.553   9.643  14.875
50877W        W14601  35.002  10.299  12.028
50878W        W14602  21.620   2.750  14.797
50879W        W14603  40.864  43.859   4.231
50880W        W14604   7.879   1.306   3.307
50881W        W14605   5.202  28.170  13.426
50882W        W14606  13.190  11.324  11.479
50883W        W14607  22.016  27.146  11.452
50884W        W14608  17.174  12.810  13.991
50885W        W14609  20.675  43.880   4.620
50886W        W14610  12.852  17.589  12.065
50887W        W14611  39.009  35.065  14.439
50888W        W14612  15.703   4.335  12.484
50889W        W14613   9.706  12.132   1.890
50890W        W14614  20.716   5.910   3.659
50891W        W14615  44.380  10.786   3.231
50892W        W14616  20.222  27.094  11.575
50893W        W14617  14.187   3.392  11.938
50894W        W14618   5.254  10.384   0.277
50895W        W14619   5.351   3.221  14.910
50896W        W14620   7.396   1.863   3.297
50897W        W14621   9.683   4.719  11.413
50898W        W14622   6.274  29.670  11.943
50899W        W14623  17.135  12.315   2.404
50900W        W14624  35.366  16.664   1.408
50901W        W14625  41.993  30.513   1.216
50902W        W14626  17.588  18.630  14.769
50903W        W14627  32.007  16.670   4.743
50904W        W14628  33.956  37.358  13.944
50905W        W14629  24.064  39.054   5.160
50906W        W14630  22.738  24.144  13.364
50907W        W14631  35.602  24.608  14.280
50908W        W14632   0.959   8.697   0.328
50909W        W14633   5.861   4.232   1.888
50910W        W14634  29.122  26.980  12.348
50911W        W14635  15.327   9.228   0.374
50912W        W14636   3.727   9.304   3.192
50913W        W14637  17.094  22.652   3.754
50914W        W14638  24.485  14.305   3.323
50915W        W14639  44.398  15.693  14.399
50916W        W14640  32.925  30.070  14.858
50917W        W14641  39.521  29.433  14.307
50918W        W14642   7.321  15.687   4.597
50919W        W14643  40.393  10.322  12.880
50920W        W14644  22.523  38.517  12.047
50921W        W14645  44.395   6.271  11.511
50922W        W14646  13.130  27.996  12.879
50923W        W14647  30.925  14.650   3.296
50924W        W14648  28.598  27.640   2.388
50925W        W14649  16.705  16.140  11.905
50926W        W14650  29.594  26.201   4.618
50927W        W14651   6.327  34.507   1.370
50928W        W14652  35.553   5.290   1.398
50929W        W14653   7.247  23.663  12.885
50930W        W14654  42.504  25.044  12.541
50931W        W14655  34.055   7.728  13.427
50932W        W14656   5.428  25.489  11.929
50933W        W14657  15.663  43.869   0.753
50934W        W14658  16.163  38.545  14.920
50935W        W14659  29.477  18.738  11.092
50936W        W14660  17.710  36.889  13.316
50937W        W14661  11.358  16.099  11.485
50938W        W14662  32.509  15.320   3.850
50939W        W14663  42.963   2.291  12.037
50940W        W14664  17.741  35.064  12.893
50941W        W14665  32.946  13.684  11.888
50942W        W14666  35.481  35.442   2.293
50943W        W14667   5.287  35.066   3.230
50944W        W14668  43.926  10.722  11.925
50945W        W14669   1.267  43.320   2.715
50946W        W14670   1.374  33.412  13.854
50947W        W14671  35.952  28.148   2.396
50948W        W14672  37.928  35.927  10.454
50949W        W14673   5.276  13.156   2.743
50950W        W14674  28.494  39.931   3.780
50951W        W14675   0.486   1.445  12.056
50952W        W14676   1.879  19.627  13.476
50953W        W14677  40.370  40.043   3.696
50954W        W14678  33.121  28.650   1.881
50955W        W14679   0.902   5.738  10.923
50956W        W14680  42.381  21.574   0.756
50957W        W14681  35.109   5.826  14.861
50958W        W14682  34.981  21.060  13.027
50959W        W14683  22.062  13.104  11.521
50960W        W14684   7.209  34.577  10.553
50961W        W14685  24.705  40.948  13.323
50962W        W14686  24.666  44.458   2.771
50963W        W14687  33.406  44.468   1.751
50964W        W14688  17.574  37.056   2.731
50965W        W14689  38.823   4.857  11.099
50966W        W14690   0.409  17.575  13.416
50967W        W14691  14.232   6.749  12.403
50968W        W14692  10.801  29.615   1.408
50969W        W14693  29.590  18.203   1.879
50970W        W14694  14.613  28.176  13.402
50971W        W14695   7.192   2.825  11.056
50972W        W14696  33.985  37.512  14.280
50973W        W14697  26.141  35.036   1.431
50974W        W14698   3.254  24.194  12.854
50975W        W14699  11.686  44.959  13.406
50976W        W14700  19.191  15.709   1.333
50977W        W14701  12.178  21.641  10.471
50978W        W14702  27.077  44.488  14.404
50979W        W14703  36.346  14.715  12.413
50980W        W14704  30.622  38.046  11.075
50981W        W14705  22.603  42.396  10.903
50982W        W14706  37.024  20.627  13.320
50983W        W14707  22.075   1.286  14.923
50984W        W14708  25.068   6.803  11.486
50985W        W14709   0.451   3.385  12.379
50986W        W14710   0.791  29.957   2.890
50987W        W14711  11.648  29.926  10.460
50988W        W14712  13.796   2.242   0.272
50989W        W14713  34.597  14.666  10.422
50990W        W14714  40.532  31.440   0.364
50991W        W14715  37.084  30.028  12.954
50992W        W14716  38.937  33.980  13.932
50993W        W14717   6.796  26.480   3.356
50994W        W14718  27.509  10.804  10.031
50995W        W14719  35.441  43.870  11.871
50996W        W14720  28.590   7.358   3.727
50997W        W14721  39.016  23.543  11.046
50998W        W14722   9.168   7.354   0.830
50999W        W14723  18.118   6.872   2.879
51000W        W14724  35.467  40.521  14.846
51001W        W14725  23.056  32.097  11.382
51002W        W14726   2.248  41.801   4.262
51003W        W14727   6.722  17.754  11.024
51004W        W14728  16.176   1.931   3.248
51005W        W14729  30.619  11.310   3.842
51006W        W14730  24.125  43.404  13.994
51007W        W14731  40.532   9.780  14.918
51008W        W14732   7.745  26.583   4.667
51009W        W14733  39.430  34.082  14.448
51010W        W14734  21.511  17.696  12.566
51011W        W14735   4.899   8.365  15.000
51012W        W14736   5.353  18.162   3.299
51013W        W14737  29.016  20.666  12.479
51014W        W14738  11.308  38.425  10.466
51015W        W14739  27.645   8.269   0.476
51016W        W14740  21.093  44.277  13.544
51017W        W14741  10.176  40.816   1.281
51018W        W14742  36.481  35.599   4.639
51019W        W14743  10.335  11.281  12.458
51020W        W14744   3.839  28.932  13.451
51021W        W14745  39.532  20.240  14.998
51022W        W14746   1.385  23.529  12.422
51023W        W14747  36.971  17.301   3.174
51024W        W14748  16.153  24.566   4.773
51025W        W14749  29.669  22.713  12.027
51026W        W14750   6.891   4.752  13.942
51027W        W14751  35.981   2.382   0.749
51028W        W14752  22.131   9.817  11.940
51029W        W14753  36.399  34.566   4.117
51030W        W14754  14.600   6.751  11.860
51031W        W14755   5.872  15.771   0.435
51032W        W14756  32.528  15.236   3.333
51033W        W14757  34.579  25.658   4.735
51034W        W14758  14.249  26.017  14.857
51035W        W14759  39.000  17.151   2.273
51036W        W14760   4.874  33.571   0.263
51037W        W14761  16.290  10.770  10.435
51038W        W14762  15.600  37.496  13.804
51039W        W14763  33.566  11.321   3.206
51040W        W14764   5.239   2.780  11.417
51041W        W14765  17.693   0.948  10.483
51042W        W14766  36.410  20.580  14.925
51043W        W14767  28.623  38.398   3.769
51044W        W14768   9.709   1.843   1.813
51045W        W14769  24.170  23.493   4.632
51046W        W14770  28.639  35.894  12.420
51047W        W14771  35.999  16.133  10.957
51048W        W14772  19.207  16.660  13.034
51049W        W14773   7.210  29.022  12.039
51050W        W14774  38.549  23.140  12.522
51051W        W14775  31.512  21.547   1.724
51052W        W14776  15.720   3.782   4.772
51053W        W14777  39.830  33.058  12.343
51054W        W14778  11.738  27.063  14.343
51055W        W14779  25.150  33.477  13.791
51056W        W14780  20.081  33.003   1.236
51057W        W14781  37.918  24.086   1.425
51058W        W14782  24.018  21.671  11.446
51059W        W14783  31.037  25.065   0.281
51060W        W14784  11.325  18.576  14.363
51061W        W14785  29.129   3.418  12.844
51062W        W14786  30.029  37.836  12.919
51063W        W14787  10.763  32.451  13.840
51064W        W14788  32.430  23.592  12.053
51065W        W14789  13.797   4.871  13.349
51066W        W14790   6.828  43.390  13.992
51067W        W14791   4.421  23.646   3.356
51068W        W14792  10.216  32.519  13.388
51069W        W14793   5.694  38.891   1.735
51070W        W14794  39.059  19.682   4.196
51071W        W14795  11.300   6.844   0.290
51072W        W14796   0.326  37.373   2.417
51073W        W14797   2.425  43.929  12.971
51074W        W14798  44.359  38.392  13.928
51075W        W14799  31.625  14.165   3.757
51076W        W14800  34.057  44.941  13.962
51077W        W14801   7.196   1.925   4.699
51078W        W14802   8.300  39.516  11.396
51079W        W14803   4.395  12.782  12.435
51080W        W14804  24.611  18.078   3.329
51081W        W14805  34.581   6.833  11.950
51082W        W14806  30.034  34.919  10.433
51083W        W14807  22.534  17.222   5.094
51084W        W14808  30.425  43.937  11.950
51085W        W14809  10.655  14.331   2.419
51086W        W14810  16.184  12.218  14.475
51087W        W14811   2.425  35.577  12.834
51088W        W14812   4.839   5.844   4.742
51089W        W14813   6.331  13.338   4.313
51090W        W14814  34.036  22.553  11.459
51091W        W14815  25.629   5.338   4.238
51092W        W14816   0.378  22.054   2.380
51093W        W14817  41.416   3.428  14.761
51094W        W14818  39.945  23.672  12.849
51095W        W14819  21.655  34.550   4.676
51096W        W14820  33.442  29.591   3.782
51097W        W14821   5.280   1.397  11.928
51098W        W14822   3.891  30.462  11.377
51099W        W14823  35.411  20.642  10.518
51100W        W14824  23.197   9.191  13.923
51101W        W14825  26.537  16.203  10.554
51102W        W14826  42.474  15.717  12.501
51103W        W14827  20.653  41.941  10.098
51104W        W14828  37.887  15.586  11.955
51105W        W14829  18.081  44.779  12.530
51106W        W14830  23.523  16.708   3.304
51107W        W14831  37.945   5.368   3.734
51108W        W14832  14.621  20.261  14.770
51109W        W14833   5.876  17.168  11.561
51110W        W14834  25.192  24.549   4.296
51111W        W14835  43.906  22.187  12.989
51112W        W14836  41.396  31.990   2.902
51113W        W14837  21.081  18.619  11.982
51114W        W14838  43.374  31.111  14.447
51115W        W14839  31.444  29.999   0.476
51116W        W14840   4.763  33.597  12.850
51117W        W14841  23.103  27.669   3.722
51118W        W14842  33.100   2.320  12.384
51119W        W14843  35.067   9.314   4.215
51120W        W14844  30.652  14.819  10.474
51121W        W14845   3.841  12.360  13.939
51122W        W14846  24.976  36.570  10.974
51123W        W14847  27.070  44.781  11.904
51124W        W14848  43.304  10.262  12.341
51125W        W14849  16.747  39.380   1.290
51126W        W14850  33.401   3.285  11.579
51127W        W14851  38.373   5.862   0.814
51128W        W14852  22.072   0.403  14.985
51129W        W14853   9.377  31.479   4.711
51130W        W14854  35.596   3.790   3.219
51131W        W14855   4.341  17.558   2.802
51132W        W14856  23.558   8.715   2.876
51133W        W14857  39.861  39.981   1.290
51134W        W14858  10.261  23.170   9.982
51135W        W14859   1.743  40.919  11.906
51136W        W14860  17.176  12.677  10.150
51137W        W14861  22.200  29.169   9.667
51138W        W14862  39.856  43.412   1.401
51139W        W14863   7.317   7.247   0.893
51140W        W14864  42.963  32.560   4.730
51141W        W14865   3.886   1.901  13.415
51142W        W14866  32.445  35.604  12.439
51143W        W14867  37.873   9.806   0.421
51144W        W14868  33.392   7.873   4.274
51145W        W14869  44.476  17.707  14.829
51146W        W14870   6.294  33.508  12.541
51147W        W14871  38.474   4.750   4.113
51148W        W14872  14.729  38.906  11.966
51149W        W14873   0.760  26.068   3.743
51150W        W14874  12.620   0.903   5.106
51151W        W14875  28.598  11.662  14.824
51152W        W14876   9.200  40.867   3.801
51153W        W14877  10.682  26.166  13.793
51154W        W14878  30.160  18.154  12.913
51155W        W14879  32.109  25.121  12.473
51156W        W14880   0.315  19.100   2.711
51157W        W14881   1.439  28.680  12.066
51158W        W14882  38.555  41.496  14.908
51159W        W14883   5.270  23.663  10.521
51160W        W14884  43.869  44.784  11.083
51161W        W14885  27.019  32.443  14.852
51162W        W14886  39.488  39.062   0.876
51163W        W14887  21.187  13.640   2.186
51164W        W14888  42.390  12.217   4.334
51165W        W14889  36.543  35.890  14.317
51166W        W14890  20.716  12.772  12.553
51167W        W14891  31.492  22.718  14.002
51168W        W14892  40.466   4.904  12.923
51169W        W14893  15.189   1.745  14.436
51170W        W14894  38.053  44.978  13.021
51171W        W14895  38.499  21.527   1.742
51172W        W14896  44.877  29.117   0.832
51173W        W14897  42.802  26.601   0.308
51174W        W14898   1.320   7.263  11.958
51175W        W14899   4.417  31.046  11.911
51176W        W14900  21.193  28.969  10.002
51177W        W14901  42.984  33.037  10.420
51178W        W14902  10.357   4.331  11.967
51179W        W14903  31.124  21.092   4.281
51180W        W14904  37.410  27.094   3.189
51181W        W14905  36.843  37.873   2.240
51182W        W14906  43.372  17.770   0.903
51183W        W14907  33.470  22.168  10.133
51184W        W14908  20.219  15.241   1.714
51185W        W14909  35.420  26.170  13.949
51186W        W14910   4.381  41.908  10.978
51187W        W14911  14.154  31.149  12.487
51188W        W14912  17.710  11.730   0.859
51189W        W14913   3.372  28.999  12.345
51190W        W14914   8.301   9.742  13.325
51191W        W14915  14.320   4.742  14.784
51192W        W14916  27.615  38.859   3.261
51193W        W14917   4.345  36.988   4.272
51194W        W14918  31.978  36.081   2.256
51195W        W14919  36.967  38.483  14.884
51196W        W14920  34.496  10.351   2.192
51197W        W14921   7.173  24.632  11.403
51198W        W14922  35.920   9.237   0.753
51199W        W14923  32.061  24.153   2.728
51200W        W14924  28.107  22.564   0.477
51201W        W14925   4.883  35.972   1.717
51202W        W14926  42.843  18.199  11.405
51203W        W14927   3.284  39.906  10.937
51204W        W14928  43.311  26.092   3.362
51205W        W14929   3.926  41.384   1.251
51206W        W14930   2.879  10.379  10.124
51207W        W14931   9.284  43.410  13.982
51208W        W14932  41.816  39.016   0.473
51209W        W14933  34.569  10.849  14.422
51210W        W14934   1.405  13.607   3.671
51211W        W14935   3.263  25.040  13.935
51212W        W14936  30.548  30.532   3.785
51213W        W14937  42.826  42.001  11.609
51214W        W14938  30.081   3.442   3.321
51215W        W14939   7.899  27.458  11.996
51216W        W14940  31.632   1.321   4.711
51217W        W14941  12.783  32.940   1.439
51218W        W14942  22.136  36.481  13.328
51219W        W14943   7.785  15.673   2.800
51220W        W14944  35.522  15.199   3.687
51221W        W14945   1.424  44.783   1.436
51222W        W14946  33.925   6.285  14.371
51223W        W14947   0.443  30.116   4.792
51224W        W14948  16.762  30.055  11.393
51225W        W14949  44.296   1.803   1.904
51226W        W14950   7.170   9.376  13.344
51227W        W14951  12.842  42.507  11.052
51228W        W14952  44.968  40.955   2.877
51229W        W14953   4.854  30.471  12.391
51230W        W14954  11.234  20.531  14.516
51231W        W14955   5.220  16.751   1.827
51232W        W14956  36.521  15.317   2.901
51233W        W14957  43.348   7.666  10.614
51234W        W14958  19.770  19.720  14.946
51235W        W14959   1.285  22.194  13.880
51236W        W14960  44.880  31.927   0.860
51237W        W14961   7.890  18.140   3.145
51238W        W14962  18.146  43.766  11.473
51239W        W14963  10.826  41.787   1.875
51240W        W14964  35.574  16.719  11.979
51241W        W14965   8.716   7.294  13.381
51242W        W14966  32.910  42.326  13.519
51243W        W14967  38.469  28.026   0.840
51244W        W14968   9.382  18.546   0.405
51245W        W14969  31.484   1.321  12.459
51246W        W14970  12.232  33.069   0.483
51247W        W14971  17.739  44.862  11.537
51248W        W14972  29.962  37.522  10.894
51249W        W14973  20.095  37.911   3.836
51250W        W14974  14.188  12.288  12.478
51251W        W14975  37.041   4.787  13.923
51252W        W14976  22.622  36.853  14.891
51253W        W14977   8.745  13.178  13.892
51254W        W14978  19.577   3.368  12.478
51255W        W14979   8.736  36.447  11.956
51256W        W14980  10.710  37.930  12.066
51257W        W14981  13.753  10.182   1.435
51258W        W14982  21.149  44.274   2.324
51259W        W14983   5.219  36.963   1.763
51260W        W14984  22.050  12.633   4.742
51261W        W14985  20.193   9.760  14.853
51262W        W14986  28.104  38.525   0.792
51263W        W14987  15.171   2.395   3.856
51264W        W14988  37.902  23.707  10.566
51265W        W14989  27.572  34.566  13.889
51266W        W14990   6.821  22.507  10.971
51267W        W14991   8.837  30.939  14.857
51268W        W14992  44.999   9.273  13.310
51269W        W14993  22.538  32.033   3.743
51270W        W14994  43.461   9.692   2.724
51271W        W14995   8.899  16.657  13.906
51272W        W14996  10.712  40.053   4.210
51273W        W14997  39.879  26.078  13.434
51274W        W14998  41.524  33.876   4.273
51275W        W14999  15.231  28.091   3.353
51276W        W15000  11.852  32.630   2.180
51277W        W15001  15.743  15.173   4.665
51278W        W15002  41.039  10.740   1.237
51279W        W15003  22.676  14.173  12.433
51280W        W15004   3.394   0.306  10.546
51281W        W15005   4.212  29.648  11.064
51282W        W15006  18.069  26.986   2.283
51283W        W15007  38.330  34.070   0.313
51284W        W15008  37.830  23.734  13.380
51285W        W15009   8.880  17.117  14.939
51286W        W15010   0.967  43.979   2.788
51287W        W15011  44.928  37.889   4.159
51288W        W15012   1.305  33.448   2.663
51289W        W15013   6.272  14.626  11.505
51290W        W15014  18.249  22.742  11.929
51291W        W15015   4.850  20.523   0.453
51292W        W15016  19.625  10.369  12.918
51293W        W15017  37.830  43.469  10.535
51294W        W15018   4.226  24.180  10.894
51295W        W15019   6.237  16.291  14.005
51296W        W15020  22.173  40.444  14.839
51297W        W15021   3.727  30.447  10.450
51298W        W15022   5.860  31.492  12.515
51299W        W15023   8.365   2.421   3.719
51300W        W15024  32.595  10.191   0.277
51301W        W15025  40.840  14.683   3.856
51302W        W15026  34.054  43.406   4.115
51303W        W15027  18.573  14.174   4.141
51304W        W15028  20.258   8.803   1.347
51305W        W15029  43.510  41.818   0.842
51306W        W15030  21.657  37.488   3.165
51307W        W15031   0.301  21.138   1.231
51308W        W15032   3.398  33.969  12.516
51309W        W15033  28.960  21.554  14.947
51310W        W15034  35.042  28.122   0.967
51311W        W15035  27.028   3.255  13.004
51312W        W15036  38.863  36.507   1.935
51313W        W15037   4.274  12.821  10.532
51314W        W15038  21.093  35.074  12.904
51315W        W15039  41.918   7.235  11.081
51316W        W15040  31.974  29.159  11.089
51317W        W15041  14.236  18.587   1.365
51318W        W15042  31.065   6.805   3.259
51319W        W15043  36.448  26.677  12.377
51320W        W15044  44.372  30.464  14.023
51321W        W15045  33.885  31.129   3.344
51322W        W15046  18.056  29.113   2.684
51323W        W15047   9.316  22.609   0.912
51324W        W15048   5.341  27.591   1.850
51325W        W15049  36.029   1.770   2.362
51326W        W15050   0.985  31.136  13.974
51327W        W15051  34.551  26.016   1.903
51328W        W15052  30.090  37.437  12.579
51329W        W15053   1.335  17.091  10.472
51330W        W15054  44.481  10.190   4.211
51331W        W15055  36.478  17.683   0.882
51332W        W15056  36.351  34.451   3.285
51333W        W15057   5.278  25.671   4.231
51334W        W15058   5.827  29.628   4.217
51335W        W15059  17.212  34.890   1.789
51336W        W15060  37.830  17.226  14.002
51337W        W15061  25.982  23.092   3.264
51338W        W15062  30.609  44.460   1.888
51339W        W15063  36.556  35.924   1.785
51340W        W15064  35.994  16.734  13.947
51341W        W15065   2.886  19.715  12.895
51342W        W15066  23.573  13.202  11.929
51343W        W15067  13.273  27.101  14.501
51344W        W15068  37.571  33.991  11.467
51345W        W15069  34.370  20.627  13.543
51346W        W15070  20.692  12.332   4.675
51347W        W15071   7.171  10.815  12.498
51348W        W15072  37.870   7.250  10.577
51349W        W15073  11.629  35.052  12.561
51350W        W15074  22.238  29.438   0.348
51351W        W15075   1.920  35.585   1.437
51352W        W15076  43.783  32.502  11.526
51353W        W15077  27.613  41.042   1.827
51354W        W15078  13.786  25.199  13.545
51355W        W15079  42.527  44.274   1.287
51356W        W15080  13.784   0.494  11.417
51357W        W15081  18.672  30.609  13.947
51358W        W15082  39.875  11.751  13.360
51359W        W15083  16.764   0.395  14.472
51360W        W15084  27.988   6.680  11.453
51361W        W15085  18.700   7.362   4.744
51362W        W15086  10.315  11.187  14.945
51363W        W15087  34.120  10.181   3.870
51364W        W15088  17.784  42.886   2.812
51365W        W15089  34.946  31.970   0.387
51366W        W15090   7.334   4.219   1.379
51367W        W15091  41.791  34.374  12.396
51368W        W15092  13.115  23.667   2.818
51369W        W15093  27.611  35.101   2.735
51370W        W15094  19.692  10.369   1.813
51371W        W15095  35.513   8.254  13.892
51372W        W15096  33.487  34.875  11.099
51373W        W15097   6.768  21.557   0.280
51374W        W15098  14.135  21.053  11.082
51375W        W15099  19.172   5.439  10.602
51376W        W15100  17.270   1.904  14.783
51377W        W15101  32.064  34.971   3.164
51378W        W15102  16.757  13.180   3.266
51379W        W15103  38.949  14.224   4.632
51380W        W15104   5.230  20.156   2.414
51381W        W15105  27.946   0.906   1.289
51382W        W15106  11.793   7.215  13.041
51383W        W15107   0.770  39.041  12.004
51384W        W15108  38.488  34.964  11.024
51385W        W15109  38.070   4.320   2.265
51386W        W15110  25.705   8.161   5.295
51387W        W15111  33.473  37.956   2.753
51388W        W15112  26.659  29.578   2.273
51389W        W15113  13.831   1.818   1.775
51390W        W15114  42.022   8.387   3.725
51391W        W15115   5.269  40.022  14.763
51392W        W15116  25.036   7.819   5.239
51393W        W15117  18.714  12.812  12.460
51394W        W15118  21.066   3.779   2.861
51395W        W15119  25.173   0.840   0.444
51396W        W15120  38.372  43.970  13.869
51397W        W15121  28.443   5.923  13.321
51398W        W15122   5.876  13.219   3.221
51399W        W15123  15.100   2.384   1.299
51400W        W15124   3.375  36.928  14.763
51401W        W15125  27.135  25.620  12.047
51402W        W15126   6.423  29.470   4.724
51403W        W15127  14.593  33.128   0.951
51404W        W15128  40.492  19.642   4.337
51405W        W15129  22.562  31.421  12.400
51406W        W15130  27.657  31.096  13.496
51407W        W15131  30.945  13.673  10.490
51408W        W15132  18.589  29.482  13.420
51409W        W15133  17.123  18.226   3.189
51410W        W15134  11.144  10.178   2.270
51411W        W15135  42.775  34.472  12.952
51412W        W15136  20.222  43.363   0.880
51413W        W15137  11.819  40.893  13.926
51414W        W15138  23.645   6.307  10.569
51415W        W15139  39.537  38.554  14.991
51416W        W15140   0.788  38.904   5.176
51417W        W15141  36.420  15.093  12.027
51418W        W15142  30.602  10.245   3.781
51419W        W15143  20.687  23.114   4.210
51420W        W15144  19.154  10.676   0.391
51421W        W15145  12.779  17.556  12.411
51422W        W15146   1.742  35.868   3.223
51423W        W15147  21.670  10.303   2.874
51424W        W15148   1.283   4.340  14.794
51425W        W15149  31.556  28.473   4.317
51426W        W15150  37.509  36.483  13.538
51427W        W15151  40.016  20.592   2.194
51428W        W15152  11.864  24.105   4.321
51429W        W15153  20.211  33.056   0.758
51430W        W15154  43.892   0.414  12.922
51431W        W15155  44.396  24.573   0.908
51432W        W15156  42.332   1.811  13.510
51433W        W15157  11.338  40.515  13.533
51434W        W15158  17.130   5.348  10.125
51435W        W15159  36.983   4.741   4.302
51436W        W15160  32.065  11.325   1.343
51437W        W15161  42.369  25.545  13.860
51438W        W15162   6.899   6.382  11.936
51439W        W15163   7.768  18.135   0.401
51440W        W15164  42.025  32.579  10.587
51441W        W15165   4.877  44.762   1.325
51442W        W15166  26.105  16.796   4.170
51443W        W15167  25.621  12.659  10.483
51444W        W15168  32.419  13.810   1.245
51445W        W15169  20.100  31.583  14.386
51446W        W15170  18.729  41.319   4.340
51447W        W15171  10.865  12.693  11.430
51448W        W15172  33.080  19.278  11.490
51449W        W15173  17.645  43.457  11.047
51450W        W15174  12.233  32.631   1.854
51451W        W15175  29.639   0.760   4.344
51452W        W15176  42.933  13.644   1.274
51453W        W15177  21.607  15.597  14.454
51454W        W15178   9.801  40.962  14.278
51455W        W15179  20.249  28.133  13.000
51456W        W15180   8.828  11.852  12.919
51457W        W15181  43.839  12.741  12.532
51458W        W15182  39.464  33.928  11.892
51459W        W15183  25.549  42.346  13.513
51460W        W15184  24.982  10.156   4.246
51461W        W15185   7.185  36.906  11.459
51462W        W15186  37.046   8.828  13.011
51463W        W15187  14.300  24.093  11.900
51464W        W15188  40.036   8.898  10.620
51465W        W15189  22.141  20.133  14.421
51466W        W15190  10.288  44.406  13.875
51467W        W15191   0.927   8.335  11.960
51468W        W15192  39.487  41.843  13.007
51469W        W15193   1.840  30.603   1.790
51470W        W15194   9.814  13.262  10.606
51471W        W15195  40.834  12.783  12.025
51472W        W15196  35.106  17.094  11.979
51473W        W15197  32.495  27.040  13.828
51474W        W15198  33.605  26.573   2.405
51475W        W15199  14.126  18.697  13.432
51476W        W15200   1.279  31.095   3.845
51477W        W15201  34.973  36.453   4.692
51478W        W15202  40.863  19.626   1.251
51479W        W15203  43.371  17.234  12.065
51480W        W15204  33.513  34.972   4.281
51481W        W15205   0.933  22.249  12.579
51482W        W15206  38.838   6.885   3.773
51483W        W15207   1.972  35.524  13.016
51484W        W15208  13.216  16.798   1.847
51485W        W15209  17.642  14.148   5.219
51486W        W15210  14.209  33.929   2.251
51487W        W15211  24.492  12.183  14.927
51488W        W15212  28.130  25.020  10.622
51489W        W15213  17.669  39.388  11.976
51490W        W15214  14.753  40.350   0.858
51491W        W15215  27.960  23.497  12.463
51492W        W15216  19.565  41.994  11.085
51493W        W15217  41.941   5.890  11.557
51494W        W15218   9.194  30.611   0.784
51495W        W15219  43.358  15.177   3.354
51496W        W15220  36.997   6.192  12.428
51497W        W15221  14.657   5.828  12.964
51498W        W15222  24.632   1.472   1.370
51499W        W15223   5.236  14.307   2.731
51500W        W15224  32.048  26.511  14.011
51501W        W15225  34.565  35.010   4.189
51502W        W15226  19.223  14.209  11.547
51503W        W15227  14.712  42.965   0.925
51504W        W15228  11.674  19.096  13.841
51505W        W15229  28.477  18.218   4.660
51506W        W15230  24.516  21.233   1.918
51507W        W15231  17.217   4.262  13.352
51508W        W15232   4.709  12.221  14.388
51509W        W15233  22.187  11.161  14.886
51510W        W15234  15.088  20.571   3.799
51511W        W15235   3.272  21.642  14.945
51512W        W15236   0.982  22.212   3.764
51513W        W15237  21.189  35.392  14.814
51514W        W15238  38.485  27.161  13.856
51515W        W15239  33.524  35.921  13.994
51516W        W15240  14.823   1.828   2.822
51517W        W15241  17.132  36.534   0.264
51518W        W15242  28.930   3.894  10.449
51519W        W15243  42.472  32.935   9.537
51520W        W15244  43.380  27.059  12.089
51521W        W15245  37.907  14.617   0.747
51522W        W15246  34.554  33.382   1.895
51523W        W15247  23.238  15.771  12.963
51524W        W15248  25.134  10.371   3.746
51525W        W15249  22.717  42.887   0.791
51526W        W15250  11.140  36.993   0.313
51527W        W15251   2.827   0.336   1.705
51528W        W15252  15.139  39.453   2.340
51529W        W15253  24.209   7.234   4.181
51530W        W15254  25.135  22.110  11.126
51531W        W15255  10.154   5.214   0.464
51532W        W15256  27.470  12.686   4.720
51533W        W15257  11.664   9.866   3.342
51534W        W15258  18.784  44.503   0.830
51535W        W15259  29.158  33.609  14.407
51536W        W15260  22.707  33.955  11.506
51537W        W15261  24.572  23.490   1.801
51538W        W15262  27.054  41.796   4.163
51539W        W15263  41.511   0.926  12.060
51540W        W15264   8.678   8.393  10.951
51541W        W15265  37.875  43.793   4.829
51542W        W15266  20.687  24.212   1.893
51543W        W15267  30.502   8.700   5.172
51544W        W15268   1.889  35.458  14.869
51545W        W15269  25.018  40.911  13.905
51546W        W15270  39.532  23.634  13.394
51547W        W15271  34.954  42.947   3.214
51548W        W15272  14.684  34.866  13.032
51549W        W15273  28.514  14.260   4.276
51550W        W15274   2.885  24.579   4.319
51551W        W15275   1.920  16.120  11.862
51552W        W15276  23.639  12.801   1.321
51553W        W15277  44.385  30.522   1.373
51554W        W15278  24.581  41.417  13.471
51555W        W15279  39.524  25.164   1.811
51556W        W15280  41.322   3.418   1.384
51557W        W15281  42.954  14.671  11.942
51558W        W15282  24.199  18.154  14.387
51559W        W15283  23.136  19.212  13.423
51560W        W15284  35.954  29.089   0.306
51561W        W15285   5.341  21.618  11.372
51562W        W15286   3.787  41.007   0.772
51563W        W15287  37.511  35.521  12.073
51564W        W15288  21.034  25.002  11.080
51565W        W15289  21.678  37.462  14.949
51566W        W15290  12.142  10.148   4.640
51567W        W15291  26.463  27.599   2.855
51568W        W15292  38.505  25.672   4.759
51569W        W15293   9.285   6.770   0.249
51570W        W15294   3.228  41.312   2.686
51571W        W15295  16.811  42.292   4.623
51572W        W15296   4.764  19.185   4.168
51573W        W15297  39.379  14.805  10.968
51574W        W15298  32.484   8.187   2.730
51575W        W15299  16.103   4.930   1.735
51576W        W15300  16.765  35.496  14.813
51577W        W15301  43.310   8.867  13.323
51578W        W15302   6.686  35.519   4.308
51579W        W15303  30.492  12.235  12.564
51580W        W15304   4.818   2.435   4.194
51581W        W15305  19.257  23.648  11.054
51582W        W15306  41.824   7.377  12.473
51583W        W15307  10.252  16.629   0.407
51584W        W15308  38.073  25.497  13.796
51585W        W15309  34.417  10.639   3.243
51586W        W15310  40.925  19.224   4.698
51587W        W15311  16.735  29.531  14.854
51588W        W15312  23.680  28.138   1.793
51589W        W15313  36.029   2.333   2.246
51590W        W15314  15.234  26.184  12.974
51591W        W15315  14.310  39.058  11.968
51592W        W15316   8.191  20.544  11.086
51593W        W15317  12.818  23.677   2.306
51594W        W15318  41.001  28.991  14.938
51595W        W15319   1.759  35.545   4.270
51596W        W15320  38.065  33.967   3.258
51597W        W15321  33.936  12.745   5.200
51598W        W15322   1.907   6.386  14.883
51599W        W15323   2.309  44.468  13.890
51600W        W15324   3.234  25.627   1.920
51601W        W15325  17.090   9.842  10.575
51602W        W15326   8.214  27.568   3.701
51603W        W15327   3.433  29.071   1.317
51604W        W15328  30.416  15.253  13.060
51605W        W15329  20.677  33.435  12.966
51606W        W15330  41.359   7.678   4.640
51607W        W15331   2.848  32.975   3.664
51608W        W15332  38.426  33.104  10.489
51609W        W15333  24.596  42.823  12.834
51610W        W15334  37.953  33.523  11.020
51611W        W15335  36.913  11.228   4.325
51612W        W15336  32.401  16.213  13.053
51613W        W15337   5.706  25.543   4.762
51614W        W15338  10.296  11.667   3.370
51615W        W15339   8.367  29.530  12.961
51616W        W15340  40.815  34.988  10.443
51617W        W15341  44.757   8.285   2.370
51618W        W15342  25.076  24.208   4.318
51619W        W15343   7.885  38.849   3.343
51620W        W15344  18.584  30.618   2.359
51621W        W15345  13.641  44.342   1.249
51622W        W15346  29.653  11.215  10.888
51623W        W15347  16.105   6.755   4.342
51624W        W15348  30.004  22.614   2.394
51625W        W15349  39.992   7.673   2.217
51626W        W15350  18.703  13.251   3.791
51627W        W15351  40.907  35.516  14.927
51628W        W15352  41.881  44.791   2.719
51629W        W15353   6.841   4.425   2.316
51630W        W15354  13.644  12.725   0.847
51631W        W15355  17.704  20.199   0.349
51632W        W15356  42.939  17.660  13.930
51633W        W15357   7.242  30.442   4.759
51634W        W15358  27.143  42.481   2.379
51635W        W15359  38.014  30.957   0.901
51636W        W15360  43.364  19.054  10.615
51637W        W15361   3.755  42.404  13.424
51638W        W15362  28.458  10.181   9.970
51639W        W15363  16.629  34.382   1.873
51640W        W15364   8.212  13.787  12.886
51641W        W15365   6.285  26.168   1.712
51642W        W15366  31.648  10.863   4.344
51643W        W15367  44.465  12.616  12.864
51644W        W15368  18.165  39.437  11.053
51645W        W15369  30.152  38.047   2.896
51646W        W15370  13.177  15.777   2.841
51647W        W15371  18.261  18.627  12.001
51648W        W15372  31.496  29.918  10.634
51649W        W15373  23.103  27.681   4.175
51650W        W15374  29.928  12.679  13.013
51651W        W15375  43.508   8.719   0.283
51652W        W15376  34.941  17.733  12.913
51653W        W15377   5.417  10.855  13.314
51654W        W15378  31.414  10.157   0.442
51655W        W15379  23.207   8.401  10.563
51656W        W15380  34.018  36.444   4.164
51657W        W15381  37.018  19.116   0.864
51658W        W15382  28.522  43.953   0.842
51659W        W15383  14.741  16.166  13.513
51660W        W15384  12.231  14.613  14.423
51661W        W15385  29.500   1.847  14.474
51662W        W15386  22.151  32.121  12.351
51663W        W15387  15.148  28.598   1.449
51664W        W15388  43.384   5.263   1.385
51665W        W15389  10.253   4.715   3.725
51666W        W15390   7.840  18.701   4.809
51667W        W15391  25.687  11.732  10.447
51668W        W15392   6.898  43.382   1.917
51669W        W15393  12.239  20.125  14.808
51670W        W15394  13.731  17.612  13.923
51671W        W15395  35.460  29.444   2.756
51672W        W15396  20.694  16.109  14.351
51673W        W15397   4.844  40.485   1.919
51674W        W15398  17.265   0.291   0.379
51675W        W15399  34.886  36.929   2.803
51676W        W15400   1.966  13.140   1.925
51677W        W15401  43.515  18.611  13.524
51678W        W15402  31.010  38.472  14.475
51679W        W15403  14.198  43.344  11.427
51680W        W15404  12.831  17.069   3.239
51681W        W15405  27.494  29.033   0.755
51682W        W15406  20.722  38.441  14.942
51683W        W15407  33.044  18.634   1.221
51684W        W15408  22.155  27.670  10.986
51685W        W15409  29.636  44.493   4.167
51686W        W15410   4.390  24.625  11.055
51687W        W15411  43.977  36.426   5.245
51688W        W15412   2.936   7.357   2.221
51689W        W15413  29.978   1.237   1.419
51690W        W15414  35.591  28.143  11.439
51691W        W15415  43.281  29.522  14.903
51692W        W15416  30.658   6.884   4.185
51693W        W15417  39.458   0.842   0.479
51694W        W15418  36.559  17.084   4.654
51695W        W15419  12.636  20.114   4.721
51696W        W15420   8.823  30.656  13.311
51697W        W15421  34.539  36.435   1.335
51698W        W15422   3.928  27.991  11.502
51699W        W15423  16.807  21.167   0.874
51700W        W15424  27.621  25.020   2.684
51701W        W15425  39.964  43.908  10.602
51702W        W15426  27.467  31.995  11.077
51703W        W15427   8.897  13.133   4.622
51704W        W15428  13.169   5.366  13.004
51705W        W15429  33.440  12.258  14.331
51706W        W15430   3.800  31.580  13.966
51707W        W15431   9.775   1.800   4.144
51708W        W15432  10.174   0.355  10.636
51709W        W15433  43.982  25.980  13.965
51710W        W15434  27.174  35.904   5.178
51711W        W15435   4.268  25.697   2.896
51712W        W15436  13.620  14.177  11.400
51713W        W15437   8.311  22.234  12.535
51714W        W15438  43.860  26.001  13.058
51715W        W15439   4.931  12.747   5.129
51716W        W15440  21.244  19.077   1.917
51717W        W15441  41.357  14.303   0.290
51718W        W15442  32.061  29.524  11.929
51719W        W15443  18.198   8.801   0.736
51720W        W15444  15.812  43.886   3.669
51721W        W15445   4.237   3.334   1.291
51722W        W15446  20.116  34.120   1.342
51723W        W15447  28.525  28.649  11.880
51724W        W15448  17.791  17.687  11.865
51725W        W15449  21.204  15.771   9.921
51726W        W15450  31.611   2.862  14.308
51727W        W15451  40.953  32.397   0.887
51728W        W15452   0.909  38.911   4.657
51729W        W15453  27.579   5.377  12.900
51730W        W15454  12.282  38.844  11.612
51731W        W15455  34.555   2.292   3.376
51732W        W15456  11.288   9.781   4.643
51733W        W15457  42.351   3.836   1.248
51734W        W15458   9.880   6.220  12.495
51735W        W15459  27.980  36.576   3.294
51736W        W15460  16.806  12.669   2.844
51737W        W15461  12.850  14.665  11.389
51738W        W15462   5.925  30.489   0.813
51739W        W15463  42.311  27.988  11.891
51740W        W15464   2.782  29.534  13.851
51741W        W15465   2.284  27.062  13.821
51742W        W15466  20.759  26.019   0.280
51743W        W15467   3.410  17.195  13.053
51744W        W15468  11.290  27.503   0.785
51745W        W15469  13.799  44.289   2.183
51746W        W15470   1.273  30.431  14.963
51747W        W15471  20.213  38.564  13.410
51748W        W15472  23.661  42.796  13.824
51749W        W15473  43.786  33.906  14.493
51750W        W15474  44.894  10.700  13.355
51751W        W15475  12.689  36.590  12.487
51752W        W15476  32.026  13.185   0.346
51753W        W15477  42.422  12.245  13.548
51754W        W15478  24.669  39.559  14.301
51755W        W15479  33.113  39.983   4.776
51756W        W15480  42.902  19.536  12.475
51757W        W15481  25.483  33.888   1.764
51758W        W15482  25.695  23.711  10.908
51759W        W15483  38.452  25.492  11.462
51760W        W15484  30.055  13.292  11.524
51761W        W15485  26.972  24.145  12.915
51762W        W15486   8.269  21.091   0.338
51763W        W15487  40.878  31.082   3.283
51764W        W15488   6.829   8.862   0.923
51765W        W15489  14.665  13.675  13.441
51766W        W15490  41.521  37.568   3.826
51767W        W15491  33.914   0.815   1.335
51768W        W15492  16.288   6.870   3.307
51769W        W15493  22.122  41.911  13.888
51770W        W15494  19.039  43.352   3.694
51771W        W15495  31.991   5.302  11.494
51772W        W15496  36.853  33.578   3.294
51773W        W15497  28.040  11.338   3.282
51774W        W15498  34.435  15.667  13.468
51775W        W15499  16.704  33.893   3.343
51776W        W15500  14.682  41.822  11.985
51777W        W15501  30.066   5.806  14.303
51778W        W15502  31.107  40.029  14.421
51779W        W15503  16.231  39.550   0.317
51780W        W15504  25.982  12.334   1.764
51781W        W15505   5.291   8.844  12.065
51782W        W15506  31.000  33.539  14.998
51783W        W15507  18.671  11.314   3.232
51784W        W15508  20.720  41.873   3.664
51785W        W15509   2.449   5.862  14.936
51786W        W15510  38.053   1.929  13.971
51787W        W15511  17.579  14.337  13.000
51788W        W15512  12.123  38.017   3.371
51789W        W15513  20.755  15.771  12.882
51790W        W15514  24.478   3.241  14.315
51791W        W15515  34.584  14.302  13.309
51792W        W15516  23.035  10.792   4.133
51793W        W15517  26.539   1.801  10.922
51794W        W15518  25.592  25.660  10.974
51795W        W15519  10.267  12.249   4.716
51796W        W15520  11.312   4.265   3.749
51797W        W15521  11.732   7.687   4.160
51798W        W15522  26.969   8.247   0.866
51799W        W15523  44.756  33.946   2.755
51800W        W15524  13.792  39.409  11.887
51801W        W15525  44.919  17.684  14.882
51802W        W15526  23.547   8.276  12.093
51803W        W15527  31.611  23.611   4.130
51804W        W15528  10.147  33.453  14.370
51805W        W15529  15.760   2.468   1.310
51806W        W15530  43.292  22.743  12.016
51807W        W15531  31.968  37.487   3.151
51808W        W15532  13.218  12.154  11.008
51809W        W15533  28.095  32.576   2.280
51810W        W15534  20.756  11.337   1.772
51811W        W15535  30.027  33.401  12.396
51812W        W15536   9.742  10.338  13.477
51813W        W15537   7.902  13.248   9.971
51814W        W15538  30.932  15.672   0.431
51815W        W15539  29.123  26.965   0.273
51816W        W15540  42.346  36.410  11.015
51817W        W15541   5.731  39.359  12.438
51818W        W15542   4.710  39.012   2.272
51819W        W15543   6.910   3.308   4.824
51820W        W15544  17.126  23.125  12.504
51821W        W15545  30.550  11.841   5.225
51822W        W15546   1.888  34.887  11.026
51823W        W15547  39.357   4.316   2.844
51824W        W15548  16.264   8.742   2.406
51825W        W15549  36.944  41.326  10.641
51826W        W15550  32.561   1.854   2.273
51827W        W15551  24.115  42.329   1.709
51828W        W15552  15.794  24.050  14.852
51829W        W15553  38.892  37.996   0.924
51830W        W15554  36.971  28.490  13.975
51831W        W15555   6.239  33.037   3.661
51832W        W15556  18.224  20.248   4.339
51833W        W15557  11.171  40.867  12.042
51834W        W15558   3.229  44.335   4.837
51835W        W15559  27.072  24.979  11.063
51836W        W15560  42.432  23.637   0.840
51837W        W15561  26.586  18.167   0.381
51838W        W15562  37.375   9.800  10.630
51839W        W15563   3.855  14.221  13.036
51840W        W15564  16.796   7.364   4.623
51841W        W15565  25.505   8.246   9.933
51842W        W15566  42.894  18.110  13.406
51843W        W15567  15.665  31.104  12.960
51844W        W15568  29.469   1.395  12.504
51845W        W15569  28.104  25.102   0.470
51846W        W15570  25.646  39.960  13.463
51847W        W15571   2.333  27.519   0.468
51848W        W15572  38.370  39.487  14.381
51849W        W15573   4.939  41.306  10.955
51850W        W15574  24.603  22.132  14.459
51851W        W15575  22.734  17.287  10.514
51852W        W15576  44.850  43.483   0.878
51853W        W15577   0.420  36.592  14.484
51854W        W15578   0.354  13.827  14.915
51855W        W15579  35.961   9.330  14.790
51856W        W15580   8.336  12.827  12.853
51857W        W15581  26.456  39.507  14.378
51858W        W15582  16.569  37.425  11.954
51859W        W15583   1.309  16.579  14.451
51860W        W15584   9.303  43.421   1.323
51861W        W15585  35.073  44.388   0.426
51862W        W15586  11.710  29.445   0.806
51863W        W15587  11.681  17.123   0.399
51864W        W15588  10.344   4.802  14.968
51865W        W15589  36.938   1.886   2.837
51866W        W15590  12.630  10.165  11.595
51867W        W15591   8.171  18.587   3.823
51868W        W15592  29.471   9.840   5.592
51869W        W15593  26.535  33.975  11.900
51870W        W15594  21.547  10.363   4.597
51871W        W15595  15.801  18.222   4.171
51872W        W15596  28.489  42.977  12.048
51873W        W15597  16.200  19.758  12.884
51874W        W15598  20.245   7.187  12.918
51875W        W15599  40.496  32.481   3.812
51876W        W15600  34.413   7.254   1.919
51877W        W15601   1.866  16.798  14.400
51878W        W15602   7.318  16.205   0.358
51879W        W15603   5.353   2.802  14.896
51880W        W15604   9.310   0.745  14.410
51881W        W15605   7.343   5.773   3.832
51882W        W15606  16.655  25.583   3.213
51883W        W15607  39.937  16.167  12.972
51884W        W15608   7.226  42.443   0.281
51885W        W15609  25.047  21.055   0.448
51886W        W15610  44.281  13.688  13.400
51887W        W15611  22.699  21.106   0.850
51888W        W15612  29.078  30.646   3.867
51889W        W15613  30.037  15.100  11.937
51890W        W15614  34.868  28.651   1.829
51891W        W15615  19.623  39.364   4.750
51892W        W15616  35.077  19.567  12.415
51893W        W15617  28.944  22.520   2.273
51894W        W15618  30.984  17.190  12.844
51895W        W15619   5.293  26.157   3.640
51896W        W15620  21.129  15.641   3.366
51897W        W15621  27.111  22.595  14.872
51898W        W15622   9.250  26.553   4.310
51899W        W15623   2.878  10.760  10.511
51900W        W15624  43.981  34.470   5.641
51901W        W15625   3.307  21.633   4.838
51902W        W15626  24.141  35.490   3.185
51903W        W15627  27.068   3.460   3.258
51904W        W15628  29.002  24.072   1.831
51905W        W15629  18.164  31.415   0.778
51906W        W15630  41.914  22.664   2.349
51907W        W15631   9.816  35.561   0.839
51908W        W15632  44.391  41.435  11.471
51909W        W15633  29.509  24.519   4.299
51910W        W15634  14.789  18.071   1.367
51911W        W15635  13.731   7.711   3.648
51912W        W15636  18.156  18.229   0.468
51913W        W15637  11.846  23.631   3.212
51914W        W15638  26.680   4.893  14.809
51915W        W15639  20.571  41.293   2.767
51916W        W15640   9.330  21.051  11.095
51917W        W15641  40.322   9.745   4.674
51918W        W15642  35.435  38.571   0.432
51919W        W15643  40.942  13.194  10.518
51920W        W15644   4.830   1.248  12.014
51921W        W15645  10.774  32.101   4.150
51922W        W15646  15.786  32.139   3.808
51923W        W15647  17.201  13.635   2.800
51924W        W15648  25.670  25.551  10.409
51925W        W15649  36.063   4.343  13.805
51926W        W15650   4.229  12.357  14.368
51927W        W15651   2.807   3.729  10.456
51928W        W15652  25.493  34.898  14.842
51929W        W15653   9.664  14.729  14.448
51930W        W15654   8.901  28.467  14.375
51931W        W15655  34.087  28.965  14.401
51932W        W15656   8.674  43.513   0.450
51933W        W15657  38.077   6.343   4.190
51934W        W15658   6.415  36.429  10.470
51935W        W15659  14.672   7.727  13.871
51936W        W15660  11.303   5.356  11.033
51937W        W15661  24.557   8.840   4.159
51938W        W15662  22.120  31.126  10.420
51939W        W15663  18.224   2.787   1.357
51940W        W15664  19.738  14.807  13.456
51941W        W15665  29.946  22.009  12.379
51942W        W15666   4.854  30.965   2.308
51943W        W15667   7.815  41.856   2.206
51944W        W15668   9.151  39.382   4.778
51945W        W15669  10.232  13.171   1.373
51946W        W15670  19.131  13.844  14.398
51947W        W15671   0.415   0.309  10.539
51948W        W15672  11.814  24.978  13.032
51949W        W15673  36.489  29.974   3.794
51950W        W15674  20.651   8.667  14.829
51951W        W15675  16.077  33.414   3.757
51952W        W15676  42.302  41.508   4.643
51953W        W15677  43.899  37.881   5.285
51954W        W15678   0.962  10.781  10.620
51955W        W15679  40.333  38.431   0.470
51956W        W15680   1.817   1.462   0.470
51957W        W15681   9.233   6.262   1.341
51958W        W15682  27.461  38.013  13.461
51959W        W15683  17.205   7.774  12.846
51960W        W15684   5.813   9.351   4.778
51961W        W15685   7.700  12.260  12.903
51962W        W15686  28.127   5.379   0.305
51963W        W15687  25.505  36.027  13.046
51964W        W15688  28.069  17.667  13.904
51965W        W15689   2.462  39.001  13.051
51966W        W15690  16.702  22.672   1.850
51967W        W15691   7.765   3.289   4.823
51968W        W15692   1.887   0.431   0.773
51969W        W15693  13.680   0.893  12.424
51970W        W15694  24.590   5.202   1.267
51971W        W15695  16.614  44.934   0.772
51972W        W15696  19.190  16.224  14.348
51973W        W15697  26.079  35.000  13.936
51974W        W15698  33.006  15.237  13.902
51975W        W15699  10.366  39.315   4.324
51976W        W15700  18.134  37.415   5.096
51977W        W15701   9.726   6.689   2.290
51978W        W15702  37.064  30.589   2.241
51979W        W15703  33.483  15.101   2.252
51980W        W15704  34.083  26.689  13.480
51981W        W15705   8.337  39.374  11.955
51982W        W15706  43.500  25.496  14.506
51983W        W15707  19.114  23.174  12.416
51984W        W15708  35.072   4.434   0.798
51985W        W15709  16.691  19.113  11.575
51986W        W15710  22.552  22.087  11.129
51987W        W15711  26.547  17.639   2.282
51988W        W15712  23.193  22.070   1.218
51989W        W15713   0.430   0.850   4.265
51990W        W15714  13.806  27.991   2.889
51991W        W15715  21.610   7.680   2.282
51992W        W15716  21.148  27.559   0.290
51993W        W15717  19.605  16.687   0.450
51994W        W15718   0.460  24.703   1.251
51995W        W15719   9.393  30.983  12.416
51996W        W15720  30.467  23.071   3.193
51997W        W15721  40.393  15.258   3.737
51998W        W15722  35.502  15.156  11.054
51999W        W15723  43.443  41.949   1.448
52000W        W15724  36.350  27.085   2.292
52001W        W15725  24.691   3.792   4.835
52002W        W15726  23.572  11.749   1.316
52003W        W15727  33.463  11.733  13.797
52004W        W15728  36.937  37.538  10.965
52005W        W15729   7.177  21.135  12.392
52006W        W15730  31.991   7.302  12.019
52007W        W15731  26.078  23.600   3.659
52008W        W15732  37.012  24.022   2.245
52009W        W15733  19.262  24.575   2.742
52010W        W15734   5.761   8.311  10.556
52011W        W15735  10.339  28.985   2.253
52012W        W15736  18.552  29.515  14.409
52013W        W15737  11.633  26.004   1.375
52014W        W15738  28.581  29.457   3.236
52015W        W15739  19.273  34.439  11.044
52016W        W15740  13.734  26.586   0.428
52017W        W15741  34.983  25.171  12.840
52018W        W15742  41.422   0.843  11.571
52019W        W15743  12.785  34.957  13.891
52020W        W15744  26.037  18.719  13.546
52021W        W15745  37.939  20.641  13.394
52022W        W15746  35.548   1.310   0.884
52023W        W15747  33.477  37.457   0.325
52024W        W15748  31.646   1.330  13.498
52025W        W15749  15.818  20.698   2.201
52026W        W15750  24.665   3.438   4.279
52027W        W15751  24.487  36.539  11.109
52028W        W15752  44.430  37.338   2.666
52029W        W15753  28.015  17.193   5.206
52030W        W15754   4.432   8.661  13.324
52031W        W15755  34.422  34.459   1.888
52032W        W15756  35.884  14.776  13.038
52033W        W15757  40.830  13.757   1.716
52034W        W15758  33.397   8.311   3.145
52035W        W15759  21.733  29.972  12.898
52036W        W15760  44.980  36.356   2.331
52037W        W15761  22.689  22.668   0.874
52038W        W15762  29.592  17.599   1.297
52039W        W15763   8.774   8.740  10.151
52040W        W15764  17.267  39.457  12.465
52041W        W15765  37.930  44.821  10.980
52042W        W15766   7.882  33.900   1.331
52043W        W15767  31.932  11.766   4.647
52044W        W15768   3.733  21.528   1.908
52045W        W15769  13.136   2.883   3.183
52046W        W15770  10.819  10.329   4.144
52047W        W15771  23.002  15.765   0.885
52048W        W15772  40.819   3.395   4.141
52049W        W15773  32.011   9.810  13.502
52050W        W15774  42.030  31.506  12.829
52051W        W15775  40.525  33.530  14.325
52052W        W15776  12.246  31.574  14.983
52053W        W15777  19.775   1.357  12.474
52054W        W15778  26.461  40.522   0.831
52055W        W15779  29.636  13.837   4.678
52056W        W15780  13.191  37.453  14.457
52057W        W15781   3.743  21.568  13.036
52058W        W15782  33.481  42.449   1.445
52059W        W15783  23.702  23.207  10.599
52060W        W15784  37.343  34.898   3.159
52061W        W15785   0.966  11.863  14.334
52062W        W15786  11.865  43.889   0.479
52063W        W15787   7.738   9.171   2.868
52064W        W15788   3.820  28.132  10.888
52065W        W15789   5.222  10.253   2.695
52066W        W15790   1.452  10.203   0.402
52067W        W15791  13.105  17.180  14.304
52068W        W15792  43.302  26.611  10.126
52069W        W15793  35.559  35.551   4.650
52070W        W15794   7.759   8.762  12.884
52071W        W15795  10.794  34.114   0.419
52072W        W15796   5.279  29.943   3.271
52073W        W15797  26.618  37.418  14.305
52074W        W15798   8.383  31.401  13.399
52075W        W15799   3.377  27.607  12.448
52076W        W15800   1.378   6.324  13.011
52077W        W15801   2.347  26.533  11.870
52078W        W15802   0.939   3.870  12.470
52079W        W15803   8.663   6.378   1.746
52080W        W15804  36.875  22.238  12.069
52081W        W15805   6.847  25.603  13.949
52082W        W15806  37.835   8.275  12.906
52083W        W15807   7.833  28.095  10.486
52084W        W15808  32.553  42.348  12.878
52085W        W15809  31.504  43.851  11.103
52086W        W15810   8.728  43.857  12.342
52087W        W15811  25.666  11.855   1.816
52088W        W15812  41.442   6.866  10.537
52089W        W15813  32.437   6.246  13.919
52090W        W15814  43.290   3.818  13.455
52091W        W15815  13.743  39.988  13.987
52092W        W15816  13.260  26.013   3.649
52093W        W15817  16.604  13.684  13.534
52094W        W15818  37.972  24.510  11.523
52095W        W15819  33.069  38.916  10.943
52096W        W15820  29.103  42.886   1.309
52097W        W15821  40.824  24.541   5.091
52098W        W15822  13.270   7.378   5.310
52099W        W15823  41.876  36.032  11.082
52100W        W15824   5.751  40.440   0.872
52101W        W15825  20.140  23.647   2.700
52102W        W15826  17.613  37.411   4.257
52103W        W15827  34.969  41.964  14.936
52104W        W15828  21.669  14.247   2.839
52105W        W15829   0.900  44.329   1.426
52106W        W15830   2.300  39.384   4.651
52107W        W15831  37.989   4.352  11.121
52108W        W15832   2.365  21.745  10.446
52109W        W15833  23.079  32.452   2.782
52110W        W15834  33.018  29.934  11.611
52111W        W15835   5.870  42.331   3.153
52112W        W15836  15.636  41.043   4.632
52113W        W15837  16.135   5.269   4.311
52114W        W15838   1.430  16.133  10.613
52115W        W15839   6.291  32.111  14.984
52116W        W15840  30.473   0.417  11.483
52117W        W15841  10.746  18.735  14.334
52118W        W15842   8.225  39.039   2.339
52119W        W15843  34.402  18.222  12.407
52120W        W15844  15.680   0.385   2.378
52121W        W15845  18.295   8.703  11.069
52122W        W15846  10.692  44.957  13.865
52123W        W15847  14.602  26.702  11.937
52124W        W15848  41.826   1.738   1.428
52125W        W15849  34.935  14.729   0.375
52126W        W15850  44.409  38.840   4.726
52127W        W15851  41.953   9.299   3.795
52128W        W15852  28.981  42.487  10.958
52129W        W15853  35.014  30.933   2.364
52130W        W15854  36.425   5.293  11.580
52131W        W15855   5.875  43.961   2.772
52132W        W15856  14.184   8.382   4.123
52133W        W15857  40.530  40.346  13.464
52134W        W15858   4.940  22.055   4.773
52135W        W15859  29.547  38.018   4.121
52136W        W15860  36.383  38.435   3.765
52137W        W15861   5.929  42.012   1.725
52138W        W15862  31.523  32.422  13.381
52139W        W15863  34.556  15.583   2.902
52140W        W15864   6.384  41.399  11.545
52141W        W15865  23.707  25.053   0.408
52142W        W15866  25.710  32.481  13.432
52143W        W15867  19.557   2.388   1.696
52144W        W15868  10.738  14.674   1.236
52145W        W15869  18.275  43.500   0.407
52146W        W15870   7.899   5.438  10.940
52147W        W15871  18.150  13.789   5.158
52148W        W15872  36.889  14.689  11.115
52149W        W15873  12.632   3.856   5.168
52150W        W15874   1.734  10.232  10.505
52151W        W15875  33.605  35.563  14.513
52152W        W15876  12.639   7.910   4.805
52153W        W15877  12.156  33.530  14.763
52154W        W15878  39.331  31.048  14.340
52155W        W15879  21.586  28.499   0.891
52156W        W15880  38.856  41.345  13.458
52157W        W15881  24.675   7.716  12.477
52158W        W15882  26.465  18.224  14.868
52159W        W15883   6.325  32.973  12.080
52160W        W15884  24.974  24.624  14.311
52161W        W15885  31.098  17.638   1.287
52162W        W15886  44.800   1.748   1.798
52163W        W15887   0.322  30.523   4.151
52164W        W15888   8.834   9.309  12.864
52165W        W15889  43.482  23.532  12.067
52166W        W15890  12.762  33.932   3.363
52167W        W15891  13.320  20.662  14.838
52168W        W15892  12.320  35.504   4.802
52169W        W15893  43.911  32.397   3.665
52170W        W15894   7.318  44.433   2.186
52171W        W15895  16.318  33.413   4.658
52172W        W15896  21.602  33.973   1.791
52173W        W15897  25.500  39.402  13.912
52174W        W15898  17.668  19.120  10.615
52175W        W15899  14.318  10.666   0.789
52176W        W15900  23.633  11.814  11.538
52177W        W15901  42.025  14.662   2.277
52178W        W15902  43.278   2.317  12.864
52179W        W15903  22.700  34.544  13.536
52180W        W15904  24.490  38.451   5.714
52181W        W15905   0.294  21.735  13.521
52182W        W15906   0.924  29.564   3.768
52183W        W15907   9.389  41.535  11.867
52184W        W15908  38.877   9.803   2.281
52185W        W15909  25.580  36.533   0.412
52186W        W15910   3.903  31.081  11.558
52187W        W15911  14.741   6.339  12.926
52188W        W15912  15.650  12.780  11.546
52189W        W15913  17.165   2.807   2.889
52190W        W15914   6.231  38.566  12.087
52191W        W15915  36.577  35.997   1.258
52192W        W15916   6.198  24.632  13.942
52193W        W15917  19.195  11.281   2.218
52194W        W15918   8.734  37.021   2.376
52195W        W15919  14.590  31.116   4.801
52196W        W15920   5.742  27.686   2.376
52197W        W15921  13.838   2.381  11.457
52198W        W15922  27.509  14.735  12.026
52199W        W15923  17.600   0.924   2.725
52200W        W15924  40.028  10.247   4.714
52201W        W15925  34.542  12.290  11.028
52202W        W15926  40.525  35.433   0.737
52203W        W15927   2.326  44.962   2.888
52204W        W15928  16.088  35.463  12.472
52205W        W15929  44.321   3.389   0.776
52206W        W15930  16.288  28.161   2.195
52207W        W15931   6.720  18.172  14.450
52208W        W15932   5.709  34.583  12.570
52209W        W15933  19.604   5.399  12.877
52210W        W15934   0.753  33.465   1.701
52211W        W15935  23.506   4.336  14.507
52212W        W15936   5.845  41.396  14.340
52213W        W15937  35.597  42.402  12.471
52214W        W15938  10.715  21.231  11.975
52215W        W15939  12.647  27.984   0.788
52216W        W15940  15.592   7.355  12.518
52217W        W15941  42.321   2.866  10.963
52218W        W15942   1.391   0.905  12.923
52219W        W15943  28.167  26.689  11.507
52220W        W15944  25.493  25.639   4.337
52221W        W15945   9.278  36.953  11.876
52222W        W15946   4.861  27.517   0.840
52223W        W15947  25.621   0.958  10.470
52224W        W15948  20.686   5.896   0.323
52225W        W15949  40.462  13.145  11.040
52226W        W15950  19.110  13.340  10.971
52227W        W15951  41.385  36.879   3.754
52228W        W15952  35.372  27.081   3.196
52229W        W15953   6.332  21.143  13.969
52230W        W15954  44.896  16.112   0.891
52231W        W15955  36.457   8.285  10.532
52232W        W15956  29.633  14.672  13.474
52233W        W15957  41.473  21.561   1.300
52234W        W15958   6.888  33.884   2.773
52235W        W15959  14.803  40.020   0.767
52236W        W15960   9.861   6.303  14.364
52237W        W15961  22.205   1.387   4.189
52238W        W15962  26.597  10.730   1.830
52239W        W15963   1.461   4.229   3.383
52240W        W15964  23.694  19.648   1.920
52241W        W15965   1.789  36.527   3.335
52242W        W15966  15.656   7.317   2.819
52243W        W15967  11.220  20.103   0.389
52244W        W15968   3.304  39.534   3.691
52245W        W15969  31.596  29.554  14.851
52246W        W15970  11.360  11.153   1.729
52247W        W15971  21.559  43.825  12.456
52248W        W15972  39.926  32.586   3.756
52249W        W15973   2.725   3.270   1.388
52250W        W15974  44.953  34.904   3.865
52251W        W15975  35.990  26.566   3.299
52252W        W15976  37.831   3.922   3.869
52253W        W15977  24.650  28.950  12.914
52254W        W15978  41.804  26.652   5.216
52255W        W15979  11.253  20.128   3.841
52256W        W15980  43.959  35.438   1.446
52257W        W15981  29.126   0.285  10.443
52258W        W15982   2.326  32.558   1.392
52259W        W15983  24.502   4.724   2.340
52260W        W15984  43.841  16.196   0.832
52261W        W15985  13.752  40.994  11.434
52262W        W15986   3.457  31.577  13.798
52263W        W15987   7.878  10.332   3.149
52264W        W15988  22.642   4.427   2.843
52265W        W15989  23.588  32.607  11.124
52266W        W15990  32.892  17.108  10.076
52267W        W15991  12.280  12.819   1.305
52268W        W15992   6.686  35.093  11.020
52269W        W15993  27.604  12.825  11.504
52270W        W15994  17.064  31.429  10.913
52271W        W15995  21.042  42.781   0.931
52272W        W15996  17.167  14.245   4.824
52273W        W15997  16.613  14.610  12.898
52274W        W15998   4.771  23.498   4.807
52275W        W15999  27.016  36.959   4.797
52276W        W16000  16.760  44.370   2.718
52277W        W16001  33.910  25.962  12.441
52278W        W16002  44.331  22.621  14.999
52279W        W16003  14.614  29.959   3.358
52280W        W16004  19.082  37.503  14.961
52281W        W16005   5.256  11.285  14.871
52282W        W16006  38.072   4.409  13.461
52283W        W16007   8.892  44.816   0.339
52284W        W16008  39.013   0.455  14.959
52285W        W16009   5.713  11.193   3.151
52286W        W16010  21.654  22.617   3.342
52287W        W16011  15.653   8.345   0.776
52288W        W16012  40.803   0.881   3.716
52289W        W16013  42.321  19.200  14.448
52290W        W16014  26.576   7.796   5.253
52291W        W16015  38.999  37.341   1.892
52292W        W16016  43.505  18.619   1.794
52293W        W16017  12.803  12.182   2.670
52294W        W16018  11.795  24.019   1.374
52295W        W16019   3.947   2.845   1.364
52296W        W16020   4.308  19.039  12.531
52297W        W16021  30.062  33.573   0.765
52298W        W16022  24.613  20.096   1.736
52299W        W16023  19.657   3.385  13.961
52300W        W16024   2.749   0.909  11.920
52301W        W16025  30.458  26.695  12.079
52302W        W16026  21.220  33.516   0.296
52303W        W16027  29.504  22.105  12.394
52304W        W16028  40.951  25.092  10.568
52305W        W16029   6.396  11.230   3.184
52306W        W16030   0.778   8.707  13.889
52307W        W16031  20.150  31.098   1.831
52308W        W16032  41.927  18.702   2.302
52309W        W16033  12.723   7.412   4.271
52310W        W16034  42.502   5.723  11.900
52311W        W16035  39.527  12.663  14.017
52312W        W16036  16.620  16.755   0.764
52313W        W16037  29.651  13.805  14.508
52314W        W16038  41.012  15.215   0.332
52315W        W16039   8.741  15.144   2.349
52316W        W16040  42.994   8.675   4.142
52317W        W16041   8.864  11.806  14.415
52318W        W16042  34.448   1.458  14.861
52319W        W16043  17.763  23.237   3.800
52320W        W16044  27.035  30.102   3.800
52321W        W16045  10.725  21.023   5.322
52322W        W16046  13.139   3.420   2.228
52323W        W16047  27.571  22.996   0.352
52324W        W16048  33.497   4.848  12.025
52325W        W16049  40.448  10.220   0.476
52326W        W16050  16.293  20.042  11.529
52327W        W16051   6.220   1.248   0.775
52328W        W16052  32.922  13.674  14.443
52329W        W16053  24.101  13.806   0.959
52330W        W16054   0.426  29.548  14.492
52331W        W16055  38.344  20.627  14.422
52332W        W16056  38.903  13.610   2.673
52333W        W16057  28.624  22.531   1.300
52334W        W16058  32.450  29.478   0.841
52335W        W16059  18.218  16.223  12.480
52336W        W16060  10.189   8.661   1.257
52337W        W16061   4.272  10.316   4.799
52338W        W16062  36.903   5.730  13.990
52339W        W16063   8.172   2.290   4.247
52340W        W16064  29.082  38.473  12.392
52341W        W16065  43.873  26.632   2.274
52342W        W16066  38.967  35.063  10.426
52343W        W16067  15.703   5.740  13.530
52344W        W16068   1.277  24.661  12.377
52345W        W16069  17.108   4.274   0.253
52346W        W16070  40.320   3.234   4.243
52347W        W16071  14.167  11.242  13.451
52348W        W16072  25.615  16.248   4.762
52349W        W16073  36.872   1.381  10.500
52350W        W16074  39.980  17.092  13.879
52351W        W16075   2.940   1.337   3.254
52352W        W16076   9.269  38.433  13.429
52353W        W16077  12.790  13.255  14.482
52354W        W16078  39.506  17.672  12.996
52355W        W16079  20.152  19.075   0.346
52356W        W16080   9.735  15.278  13.366
52357W        W16081   1.831  14.311  13.485
52358W        W16082  23.131  14.325  12.534
52359W        W16083  37.036  42.868   1.769
52360W        W16084  43.503   5.347   0.255
52361W        W16085  10.737   3.246  14.347
52362W        W16086  37.031  35.565   4.683
52363W        W16087  24.162  19.657   9.961
52364W        W16088  23.098  27.100  12.995
52365W        W16089   5.925  22.049   3.338
52366W        W16090  42.350  33.907   0.278
52367W        W16091  25.044   9.201   1.354
52368W        W16092   6.869   6.688   3.862
52369W        W16093  29.441  26.538   2.666
52370W        W16094  33.390  39.445   4.733
52371W        W16095  43.299   1.763   4.662
52372W        W16096  38.571   3.796   2.863
52373W        W16097  27.530  38.855   1.892
52374W        W16098  41.519  19.156  13.847
52375W        W16099   6.354   3.412  13.929
52376W        W16100   9.323  35.462  13.926
52377W        W16101  43.292   6.219   4.786
52378W        W16102  35.931   7.802  14.425
52379W        W16103  41.334  38.860  10.620
52380W        W16104  18.195  16.603   1.812
52381W        W16105   8.252   4.325   1.256
52382W        W16106  43.390  11.298  14.855
52383W        W16107  42.837  34.934  12.487
52384W        W16108   3.840   0.251  12.033
52385W        W16109  13.301  27.664   2.803
52386W        W16110  35.394  27.471   0.313
52387W        W16111  16.758   6.303  12.858
52388W        W16112   0.355  13.712   4.205
52389W        W16113   8.680  13.677   4.223
52390W        W16114  33.888  10.248  10.632
52391W        W16115   6.329  40.378   5.258
52392W        W16116  18.083  22.572  11.380
52393W        W16117  29.146  41.971   2.413
52394W        W16118  19.737   1.424  10.893
52395W        W16119   1.334   1.328  13.973
52396W        W16120  35.014  18.080  13.879
52397W        W16121   2.323   1.812   2.241
52398W        W16122  14.238  30.027   1.390
52399W        W16123  40.918  37.026   2.223
52400W        W16124  21.562  36.979   1.394
52401W        W16125  33.082   5.270   0.847
52402W        W16126  24.125   9.214  13.897
52403W        W16127   4.915  29.497  11.474
52404W        W16128  22.747  44.348   0.810
52405W        W16129  33.412   7.700  14.906
52406W        W16130  40.869  27.596   0.356
52407W        W16131  27.638  19.567  14.334
52408W        W16132  42.995  30.598  14.456
52409W        W16133  35.482  37.446  13.796
52410W        W16134   0.491  12.673   4.292
52411W        W16135  42.502  35.986  13.847
52412W        W16136  29.987  24.142   3.664
52413W        W16137  40.493  39.450   0.866
52414W        W16138  41.526  40.351  12.919
52415W        W16139   6.298  21.223   4.218
52416W        W16140   8.707   0.271  11.917
52417W        W16141  28.012  31.012   3.280
52418W        W16142  43.366  40.950  12.009
52419W        W16143  27.022   0.489  14.349
52420W        W16144  20.664  26.520  12.344
52421W        W16145   5.766  20.588  12.368
52422W        W16146  36.549  37.431  14.325
52423W        W16147  38.477  40.798  14.460
52424W        W16148  41.392  13.144  10.638
52425W        W16149  29.973  39.878  12.388
52426W        W16150  33.588   0.987   2.770
52427W        W16151  11.365   8.818  10.562
52428W        W16152  39.329  11.660  10.997
52429W        W16153  21.214  34.019  14.475
52430W        W16154  18.624  40.961  12.358
52431W        W16155  25.609   5.866   1.841
52432W        W16156  16.245  26.164   1.733
52433W        W16157  36.071  36.066  12.511
52434W        W16158  36.548  13.138  10.078
52435W        W16159  30.482  31.571   1.771
52436W        W16160  23.552  36.373   1.880
52437W        W16161  17.615  16.804   3.316
52438W        W16162  17.232  22.544  13.468
52439W        W16163  35.447  43.372  13.027
52440W        W16164  34.423  21.633   2.347
52441W        W16165  37.000  15.582   4.122
52442W        W16166  10.807  29.547   3.865
52443W        W16167  23.161  40.406   2.226
52444W        W16168   8.688  30.162  12.448
52445W        W16169  17.654  44.940   0.817
52446W        W16170   1.881  25.206  13.462
52447W        W16171  37.010   8.708   4.633
52448W        W16172   5.203   4.807  12.888
52449W        W16173  27.616   6.865  11.478
52450W        W16174  40.441  44.268   3.820
52451W        W16175  18.649   0.886  12.480
52452W        W16176  29.087   2.908   3.188
52453W        W16177  27.529  42.423   2.341
52454W        W16178  25.079   0.848  11.899
52455W        W16179  28.653   3.379   4.284
52456W        W16180   2.266  30.475  14.470
52457W        W16181  41.473   5.690  10.970
52458W        W16182   8.873   5.846  13.359
52459W        W16183  36.461  15.703   0.876
52460W        W16184  30.432  44.774   2.670
52461W        W16185  16.771  43.768   1.739
52462W        W16186   1.827   2.902   1.892
52463W        W16187  25.670  28.097  14.797
52464W        W16188  41.305  15.792  14.832
52465W        W16189  36.943  25.988   0.855
52466W        W16190  27.960  40.328  13.980
52467W        W16191  43.974   5.231  12.360
52468W        W16192  40.376  12.789   3.150
52469W        W16193  28.075  38.890   1.263
52470W        W16194  44.906   4.778   1.892
52471W        W16195  38.535  29.602  13.902
52472W        W16196  26.115  32.134  13.448
52473W        W16197  26.657  23.495  13.939
52474W        W16198  11.203  21.752   1.289
52475W        W16199   0.418   3.800   1.771
52476W        W16200  19.272  38.492  11.545
52477W        W16201  41.293  25.702  11.033
52478W        W16202  12.230  10.760   3.759
52479W        W16203  19.107  40.428   0.857
52480W        W16204  34.521  19.733  10.982
52481W        W16205  34.395   0.855  11.965
52482W        W16206  32.059  30.659   3.265
52483W        W16207  20.068  18.632   4.217
52484W        W16208   5.700  28.612  13.402
52485W        W16209  18.738  39.410   0.365
52486W        W16210  38.930  22.530  13.364
52487W        W16211  13.329  32.988  14.382
52488W        W16212  39.868  11.350   3.770
52489W        W16213  18.082  17.730  11.548
52490W        W16214  12.702  25.563   1.436
52491W        W16215  24.675  41.422   2.685
52492W        W16216   2.290  21.748  10.962
52493W        W16217   6.255  27.674   1.744
52494W        W16218   7.741  28.082   9.975
52495W        W16219   3.943  33.609  11.375
52496W        W16220  10.694  28.610  10.550
52497W        W16221  13.248   0.312  11.461
52498W        W16222   0.459   3.367  11.504
52499W        W16223  10.218  41.421   1.430
52500W        W16224  22.514  18.587   1.241
52501W        W16225  37.998  10.871   1.744
52502W        W16226  17.097  41.827   3.705
52503W        W16227  11.148  44.425  12.891
52504W        W16228  21.734  11.745  10.578
52505W        W16229  16.640  40.818  12.979
52506W        W16230  16.655  17.257  14.362
52507W        W16231  26.491  32.001  14.822
52508W        W16232  10.232   9.826  10.140
52509W        W16233  40.015  14.281   1.260
52510W        W16234   2.911  30.059  13.359
52511W        W16235  44.956  22.519  13.383
52512W        W16236  44.416  20.675  10.447
52513W        W16237  31.145  29.066   4.153
52514W        W16238   4.936  31.479  10.423
52515W        W16239  28.019   9.853  13.380
52516W        W16240  25.173  33.550   4.188
52517W        W16241   8.344  38.022  14.515
52518W        W16242  32.451  13.270   2.676
52519W        W16243  12.225  43.827   3.269
52520W        W16244  11.659  36.092  13.933
52521W        W16245  20.698  38.571   3.214
52522W        W16246   5.421  12.727  13.483
52523W        W16247  15.644  26.139   0.741
52524W        W16248  14.107  38.496  11.400
52525W        W16249   0.355  25.094  12.569
52526W        W16250   6.408  36.076   4.836
52527W        W16251  19.558   6.739   1.858
52528W        W16252  36.587  29.661  11.446
52529W        W16253  15.683  31.648   2.773
52530W        W16254  38.464  27.117  10.434
52531W        W16255   4.779  36.094  13.542
52532W        W16256  33.071   0.336  13.411
52533W        W16257   5.361  18.184  11.081
52534W        W16258  28.185  20.250   4.622
52535W        W16259  41.793  16.133   1.925
52536W        W16260  43.992  15.632  12.568
52537W        W16261  22.073  13.254   2.851
52538W        W16262  38.457  32.123  12.985
52539W        W16263  43.978  34.586  13.831
52540W        W16264  26.093   9.188   4.215
52541W        W16265   0.489   6.396  14.400
52542W        W16266  30.424   5.273  14.782
52543W        W16267  20.602  18.142  12.095
52544W        W16268  41.340  25.202  14.288
52545W        W16269  35.956  39.849  12.470
52546W        W16270  15.144  41.011   4.277
52547W        W16271  31.984   4.734   2.857
52548W        W16272   5.835  22.572   1.724
52549W        W16273  27.643   5.791   0.932
52550W        W16274  17.785  23.051   1.768
52551W        W16275  26.527   5.230  11.400
52552W        W16276   8.176  34.916  14.326
52553W        W16277  23.721   5.224  11.377
52554W        W16278  35.533  11.158  14.844
52555W        W16279  14.128  28.950   3.697
52556W        W16280  13.638   3.841   3.299
52557W        W16281  34.551  29.124  12.429
52558W        W16282  30.549   7.232   3.630
52559W        W16283   4.803  43.910   4.345
52560W        W16284   0.429  41.431  11.445
52561W        W16285  33.415  28.552  11.057
52562W        W16286  38.060  38.881   2.325
52563W        W16287  15.670  29.136  13.014
52564W        W16288  33.408  33.912  13.939
52565W        W16289   6.419  44.875  12.850
52566W        W16290  29.107  20.539  13.529
52567W        W16291  15.587   1.810   2.662
52568W        W16292  37.023  13.333   4.693
52569W        W16293  20.211   2.790   4.347
52570W        W16294  29.132  33.038   1.359
52571W        W16295  42.830  37.344  12.899
52572W        W16296  22.629   4.244   4.768
52573W        W16297  17.663  43.292  13.445
52574W        W16298  21.670   3.398   3.719
52575W        W16299  18.546  44.329  13.454
52576W        W16300  41.922  20.263   4.755
52577W        W16301  21.251  26.025  10.463
52578W        W16302  21.711   1.329   1.235
52579W        W16303   1.878  13.223  10.529
52580W        W16304  18.719  13.818   0.965
52581W        W16305  30.949  21.196   1.748
52582W        W16306  36.481   2.451   2.355
52583W        W16307  36.348  23.057  10.611
52584W        W16308  28.108  42.013  11.416
52585W        W16309  29.975   3.343   0.871
52586W        W16310   1.812  36.413  14.816
52587W        W16311   6.857   0.871   4.348
52588W        W16312  19.664   8.226   0.279
52589W        W16313  41.970   9.757   1.282
52590W        W16314   6.318  20.635   2.287
52591W        W16315  17.723  29.492   0.257
52592W        W16316  34.402  44.832  14.330
52593W        W16317  32.127  29.477   3.252
52594W        W16318   5.728  29.664   1.784
52595W        W16319  15.242  27.107   4.227
52596W        W16320  19.151  38.940   1.219
52597W        W16321  18.132  43.401  12.436
52598W        W16322  18.071  30.147   1.367
52599W        W16323   0.247  35.385   1.867
52600W        W16324  19.643   1.821   0.317
52601W        W16325  11.634  18.665   0.943
52602W        W16326  16.763  28.163   3.768
52603W        W16327  33.609  20.698  11.874
52604W        W16328  31.113   9.844  11.106
52605W        W16329  18.581  15.096   1.792
52606W        W16330  16.309   9.336  12.363
52607W        W16331  31.947  28.606   2.724
52608W        W16332   8.896  17.645   2.871
52609W        W16333  42.285  17.138  12.519
52610W        W16334  26.115  36.878  14.813
52611W        W16335  14.747  32.431   4.635
52612W        W16336   4.386  28.586  14.418
52613W        W16337   7.284  16.633   2.310
52614W        W16338  31.014  43.356  14.355
52615W        W16339  22.548  41.937   5.148
52616W        W16340  10.632  12.187   3.776
52617W        W16341  25.551  16.074  11.041
52618W        W16342  36.556  28.597   3.721
52619W        W16343  39.342   1.833   4.168
52620W        W16344  24.080  34.927  10.002
52621W        W16345   2.925   0.936  10.416
52622W        W16346  32.481  37.344  11.479
52623W        W16347  19.191  19.206   2.807
52624W        W16348  39.501   4.382   4.348
52625W        W16349  12.856  20.085  11.007
52626W        W16350   6.335   8.349   3.805
52627W        W16351  24.222  17.774  10.631
52628W        W16352   7.670  14.182  10.548
52629W        W16353  43.839   9.202  10.600
52630W        W16354  19.128   4.399  14.362
52631W        W16355   7.734   7.259  12.992
52632W        W16356  14.713   1.433  13.327
52633W        W16357  26.477  37.566  11.538
52634W        W16358  40.396  26.567  13.823
52635W        W16359  22.560  37.944   0.843
52636W        W16360  34.524   5.298   1.312
52637W        W16361  41.004  22.207  13.857
52638W        W16362  28.104   6.696   1.766
52639W        W16363  42.450  27.190   4.775
52640W        W16364  37.385  42.839  14.024
52641W        W16365  39.507  19.759  11.909
52642W        W16366  40.990  40.453   4.206
52643W        W16367  25.067  33.409   2.858
52644W        W16368   8.286  24.059  12.495
52645W        W16369  39.818  26.982   0.364
52646W        W16370  26.523   3.874  14.278
52647W        W16371  17.695  12.180   2.240
52648W        W16372  32.411   9.775   0.876
52649W        W16373   7.754  37.947  11.527
52650W        W16374  43.367   7.827  13.954
52651W        W16375   3.331   3.893  14.298
52652W        W16376  12.345  21.130   0.879
52653W        W16377   1.735  12.339   1.301
52654W        W16378  17.250  16.698   2.297
52655W        W16379  41.342  33.013  11.027
52656W        W16380  24.199  21.067  13.902
52657W        W16381  33.014   5.278  10.981
52658W        W16382  10.670   2.817  14.898
52659W        W16383  39.379   8.893  14.348
52660W        W16384   2.453  29.452   1.280
52661W        W16385  11.717  36.980   0.402
52662W        W16386   3.955  32.971  12.016
52663W        W16387  43.403  43.309  13.491
52664W        W16388  19.058   6.681   0.914
52665W        W16389  33.514  41.821  13.316
52666W        W16390  36.578  34.946  14.962
52667W        W16391  24.979  13.329   3.282
52668W        W16392  13.657  43.765  14.298
52669W        W16393  30.643  30.432  13.357
52670W        W16394   2.264   7.398  14.762
52671W        W16395  26.631  34.063  11.386
52672W        W16396   4.359  37.991  12.929
52673W        W16397  32.135  11.185  11.451
52674W        W16398   8.359  22.200  11.058
52675W        W16399  19.561  17.593   2.863
52676W        W16400  36.990   6.419   3.226
52677W        W16401  12.632   4.272   2.819
52678W        W16402  33.498  19.183   3.223
52679W        W16403   2.820  30.914   0.783
52680W        W16404  20.210   9.252  11.562
52681W        W16405  28.004  25.034   5.180
52682W        W16406  36.495  24.572   3.867
52683W        W16407  22.738  13.124  14.833
52684W        W16408  38.504  44.941  14.012
52685W        W16409  16.226  28.084  11.416
52686W        W16410  24.557   9.783  13.043
52687W        W16411  39.903  41.369  10.411
52688W        W16412  10.242  42.506   4.249
52689W        W16413  42.455   8.691   4.748
52690W        W16414  24.010  43.807  13.060
52691W        W16415  31.127  21.657   1.725
52692W        W16416   3.298  13.258   4.327
52693W        W16417  15.172  22.617  12.046
52694W        W16418  32.421   2.729  12.044
52695W        W16419  14.721   8.358  11.012
52696W        W16420  11.350   2.954  10.994
52697W        W16421  15.259   4.733  10.966
52698W        W16422  34.059  29.617   2.733
52699W        W16423   8.203  13.256   4.835
52700W        W16424  21.112   4.250   1.274
52701W        W16425  27.098  41.035   2.374
52702W        W16426  25.654  37.337  13.514
52703W        W16427   9.279  31.580  11.111
52704W        W16428  32.631  44.852   0.908
52705W        W16429   4.818  17.244  13.817
52706W        W16430  18.193  21.652   2.208
52707W        W16431   3.896   3.267  10.158
52708W        W16432  13.720  31.077   0.808
52709W        W16433  11.339   4.719   0.471
52710W        W16434  23.190  14.208  14.913
52711W        W16435  38.373  37.388   0.478
52712W        W16436  39.401  25.519   3.229
52713W        W16437   6.920  44.902   4.831
52714W        W16438  36.091  29.631  12.971
52715W        W16439   1.305  37.014  14.921
52716W        W16440  41.029  40.528  10.586
52717W        W16441  30.511  13.738   3.241
52718W        W16442  43.954   8.232   4.294
52719W        W16443  29.084  29.137  13.820
52720W        W16444  11.175   5.914  11.987
52721W        W16445  40.416  44.363  14.419
52722W        W16446   8.290  26.600   0.745
52723W        W16447  22.740  37.458  13.825
52724W        W16448  13.801  23.530  12.347
52725W        W16449  14.777  18.677  12.066
52726W        W16450  29.428  21.162  11.055
52727W        W16451   6.315  22.120  11.935
52728W        W16452  12.160  36.522  10.419
52729W        W16453  25.580   6.272   1.223
52730W        W16454  44.007  19.563   2.683
52731W        W16455  42.996  41.373   1.367
52732W        W16456  35.971  27.636  10.451
52733W        W16457   2.409  24.715   2.290
52734W        W16458  16.247  27.965   4.162
52735W        W16459  22.562  32.511   4.765
52736W        W16460  38.436   9.265   4.179
52737W        W16461  34.897   3.793  14.275
52738W        W16462   2.391  31.975   0.254
52739W        W16463  44.485  33.485  12.466
52740W        W16464   2.425   8.293   1.809
52741W        W16465   0.435  21.616   4.319
52742W        W16466  18.073   8.700   0.354
52743W        W16467  19.686  22.099   2.894
52744W        W16468  34.885  36.927   0.332
52745W        W16469   2.930   7.808   2.696
52746W        W16470  44.318  22.714   1.696
52747W        W16471  15.155  32.966   3.688
52748W        W16472  28.588  18.293   0.417
52749W        W16473  39.988  29.478   0.796
52750W        W16474  10.377  22.549   5.222
52751W        W16475   5.760   7.327  11.441
52752W        W16476   1.790  27.996   0.316
52753W        W16477  17.613  37.862  10.474
52754W        W16478  26.620  20.036   0.448
52755W        W16479  23.690  31.934   5.584
52756W        W16480  14.799  16.718  10.895
52757W        W16481  21.134  38.530   2.769
52758W        W16482  24.669  14.237  10.482
52759W        W16483   1.954  12.662  12.827
52760W        W16484  11.656  29.619  12.073
52761W        W16485   8.736  33.614   0.255
52762W        W16486  44.315  30.005   1.698
52763W        W16487  24.723   0.374   2.287
52764W        W16488  38.513  39.976  13.518
52765W        W16489  27.470  40.386   1.700
52766W        W16490  32.933   6.922  13.946
52767W        W16491  10.646  14.204   4.633
52768W        W16492   1.975  37.910  13.012
52769W        W16493  38.068  14.804   1.787
52770W        W16494  12.704   4.704   0.313
52771W        W16495  38.377  35.373  14.500
52772W        W16496   3.795  34.022   1.364
52773W        W16497  23.728   0.341  13.981
52774W        W16498   1.357  34.389   2.200
52775W        W16499  29.643  17.579  13.795
52776W        W16500   9.308  13.633  12.955
52777W        W16501  10.713  10.874  12.341
52778W        W16502  36.456  37.396  14.827
52779W        W16503  24.564  14.691   4.146
52780W        W16504  40.848  18.276  12.927
52781W        W16505  21.742   5.334   3.358
52782W        W16506  36.413  15.154  13.505
52783W        W16507  28.984  23.078   1.243
52784W        W16508  11.797  22.512  11.011
52785W        W16509  16.078  23.589  12.924
52786W        W16510  10.356   6.791   0.421
52787W        W16511  17.214   4.373   4.176
52788W        W16512  20.114  28.177  10.067
52789W        W16513  17.750  33.545   1.731
52790W        W16514   3.361  42.394   1.313
52791W        W16515  36.076  44.899   0.385
52792W        W16516  15.324  23.145   1.375
52793W        W16517  11.840  11.227   1.353
52794W        W16518   7.415  39.027  14.780
52795W        W16519  18.075  28.450   0.727
52796W        W16520  26.138   1.779   3.773
52797W        W16521  36.491  34.053  11.962
52798W        W16522  24.215  38.836   3.280
52799W        W16523  30.152  23.608  14.430
52800W        W16524  15.210  19.565   4.682
52801W        W16525  26.067   8.878   2.226
52802W        W16526   1.806   5.880  12.387
52803W        W16527  26.463  13.631   1.263
52804W        W16528  11.328  41.364  14.975
52805W        W16529  14.234   3.783   1.441
52806W        W16530   6.372  24.044   3.191
52807W        W16531  28.992  18.712  14.879
52808W        W16532  17.077  25.616   1.814
52809W        W16533  13.678  16.654  12.498
52810W        W16534  34.531  18.717  14.801
52811W        W16535  37.886  17.685   0.820
52812W        W16536  35.438  29.604   0.295
52813W        W16537  22.584  13.730  10.051
52814W        W16538  28.063  43.946  11.475
52815W        W16539  33.546  16.747  14.844
52816W        W16540  36.349  23.222   4.164
52817W        W16541   7.740  13.160   0.247
52818W        W16542  18.771  25.198   3.194
52819W        W16543  13.226  19.543  12.572
52820W        W16544  17.150  33.900  10.958
52821W        W16545  23.045  10.778  13.492
52822W        W16546  34.903  15.169  12.879
52823W        W16547  14.170  16.153  14.388
52824W        W16548  38.539  29.101  14.800
52825W        W16549   1.463   9.160   1.281
52826W        W16550  38.014  11.260   0.410
52827W        W16551   0.374  21.661   0.471
52828W        W16552  28.994   9.193  13.864
52829W        W16553   8.800  18.122   2.877
52830W        W16554  32.013   4.259  11.543
52831W        W16555  27.021  14.195   0.784
52832W        W16556  32.529  22.150  11.514
52833W        W16557  29.594  30.505  13.926
52834W        W16558   6.919  17.746  13.501
52835W        W16559  24.999  42.916  13.945
52836W        W16560   3.777  34.548   1.703
52837W        W16561  34.075  26.006   0.282
52838W        W16562  26.114  32.480   4.622
52839W        W16563  24.603  40.050  11.896
52840W        W16564  35.971  18.231  11.043
52841W        W16565  15.716   1.446  13.857
52842W        W16566  15.635  42.456  10.424
52843W        W16567  43.833  27.106  11.107
52844W        W16568  36.938  27.485  14.890
52845W        W16569  39.055  11.767   0.376
52846W        W16570  13.820   5.702   3.362
52847W        W16571  24.050  25.963  13.802
52848W        W16572   7.413  42.004   0.331
52849W        W16573  14.771  19.272  12.889
52850W        W16574  34.507  13.632  11.908
52851W        W16575   0.465  27.077   1.796
52852W        W16576  40.412  22.025   5.751
52853W        W16577  18.054   6.755  11.900
52854W        W16578  14.108   1.862  12.980
52855W        W16579   3.314  43.825   1.911
52856W        W16580  36.416   5.730   3.383
52857W        W16581   7.749   0.872   2.397
52858W        W16582  23.646  41.022   2.791
52859W        W16583  33.131  44.005  14.274
52860W        W16584   1.321  28.149   1.814
52861W        W16585  20.643  29.576  13.431
52862W        W16586  13.210   1.316   2.266
52863W        W16587  13.844  15.804  10.946
52864W        W16588  43.384  29.434   3.766
52865W        W16589  40.491  36.855  10.934
52866W        W16590  19.049  36.396  12.926
52867W        W16591   9.884  12.805   0.905
52868W        W16592  27.131  35.440   0.890
52869W        W16593  13.149  15.645  11.915
52870W        W16594  25.996   4.272  13.056
52871W        W16595   6.746   1.410   2.254
52872W        W16596  10.285  12.319  12.346
52873W        W16597  19.073  39.548   2.694
52874W        W16598  33.939  24.657   4.317
52875W        W16599  19.191   0.374  14.472
52876W        W16600  29.477  13.115   1.265
52877W        W16601  19.691  18.765   1.343
52878W        W16602  28.498  22.585  10.445
52879W        W16603  19.718  17.298   0.730
52880W        W16604  15.317  14.178  11.525
52881W        W16605  27.096   7.843  10.159
52882W        W16606  40.363   6.197  12.519
52883W        W16607  44.951   2.768   0.289
52884W        W16608  21.089  25.129   2.823
52885W        W16609  13.150  41.329  10.057
52886W        W16610  11.744  30.631  11.488
52887W        W16611  15.689   6.712   1.346
52888W        W16612   8.244   6.783  11.126
52889W        W16613  33.877  25.077   3.322
52890W        W16614   3.407  30.419  11.018
52891W        W16615  39.468   3.882  12.041
52892W        W16616  24.668  19.257  11.545
52893W        W16617  31.562  12.756  14.437
52894W        W16618  41.451   7.777   2.191
52895W        W16619  23.064   4.874   1.377
52896W        W16620  19.669  13.303  13.842
52897W        W16621  14.264  17.645  11.413
52898W        W16622   1.465   8.177  11.561
52899W        W16623   0.952   1.268  11.566
52900W        W16624   8.770  36.373  13.805
52901W        W16625  23.627  35.888  12.572
52902W        W16626  14.318  42.360   4.319
52903W        W16627  42.410  15.741  10.468
52904W        W16628   0.795  27.196  13.467
52905W        W16629  15.744   5.831   1.411
52906W        W16630  13.132  44.373   1.735
52907W        W16631   6.317  20.616  14.769
52908W        W16632   3.358  30.015  13.421
52909W        W16633  29.436   3.735   1.900
52910W        W16634  33.946  34.089  13.823
52911W        W16635   8.686  35.019  11.863
52912W        W16636  36.952  23.151   4.702
52913W        W16637  28.016  44.859  13.909
52914W        W16638   2.427  22.117   3.751
52915W        W16639  33.074  25.656  14.007
52916W        W16640  44.259  40.461  11.504
52917W        W16641  25.204  40.380   2.220
52918W        W16642   3.956   2.407  10.973
52919W        W16643   3.435  15.185  13.508
52920W        W16644  22.045  26.608   2.807
52921W        W16645   7.831  15.738   2.406
52922W        W16646  10.284  16.790   2.775
52923W        W16647  19.698  30.612   2.712
52924W        W16648  25.698  37.531  14.895
52925W        W16649  35.488  25.519   4.152
52926W        W16650  11.724  43.410   1.844
52927W        W16651  12.241  31.997   1.760
52928W        W16652   3.296  37.013   2.419
52929W        W16653   5.799  33.968  12.974
52930W        W16654   6.750   7.851  12.359
52931W        W16655  21.579   8.873   0.477
52932W        W16656  44.869  36.917  11.008
52933W        W16657  13.123  30.521  11.118
52934W        W16658  42.451  43.490   9.605
52935W        W16659  39.419  13.793  12.984
52936W        W16660  28.012  35.104   0.913
52937W        W16661  32.017  26.108  10.982
52938W        W16662  10.254  14.230  11.563
52939W        W16663  17.272  40.477  12.994
52940W        W16664  19.055   5.933  10.563
52941W        W16665   4.746   4.709  13.429
52942W        W16666  30.622  14.766  12.072
52943W        W16667   9.218  39.048  10.441
52944W        W16668   0.862  39.823  14.777
52945W        W16669  36.979  10.230   3.736
52946W        W16670  39.437  36.001  14.515
52947W        W16671  41.788   0.947  14.883
52948W        W16672  34.577   0.766  12.497
52949W        W16673  33.394  11.271  14.974
52950W        W16674  35.538  38.926   4.720
52951W        W16675   6.201  17.131  10.409
52952W        W16676  38.421  25.198  13.864
52953W        W16677  19.157  21.054  11.921
52954W        W16678  27.174  11.630   5.092
52955W        W16679  27.160  38.870  11.870
52956W        W16680  19.618   2.434   3.690
52957W        W16681  29.924   6.283  12.492
52958W        W16682  25.204  13.222   1.918
52959W        W16683  22.092  34.478  12.350
52960W        W16684  33.527  43.773  12.459
52961W        W16685   7.873  23.710  13.968
52962W        W16686  25.514  39.923  11.885
52963W        W16687   2.904  20.050   4.764
52964W        W16688  33.889  19.276   1.906
52965W        W16689  32.047  44.454  12.568
52966W        W16690  39.521   0.456   2.807
52967W        W16691  43.979  22.677  14.289
52968W        W16692  38.368  15.145   2.353
52969W        W16693   2.382  37.369   1.438
52970W        W16694  18.645   7.764  11.891
52971W        W16695   6.833   8.798  14.965
52972W        W16696  22.996  10.876  10.419
52973W        W16697   3.900   2.429  11.564
52974W        W16698  25.045   4.430  12.492
52975W        W16699   4.883  43.443  11.043
52976W        W16700  39.480  37.366   4.167
52977W        W16701  10.853  28.562   3.172
52978W        W16702   6.718  28.047   0.835
52979W        W16703  41.975   7.173  14.332
52980W        W16704  24.668  31.920   0.449
52981W        W16705  10.267  32.021  14.332
52982W        W16706  24.036  14.198   3.387
52983W        W16707  39.851   2.358  10.504
52984W        W16708  39.471  30.434   2.666
52985W        W16709   1.908  36.956   4.303
52986W        W16710  23.697  24.093  12.398
52987W        W16711  19.241  21.680  13.995
52988W        W16712  15.160   2.407   4.620
52989W        W16713   7.764  19.234   2.351
52990W        W16714  30.590  37.519  14.008
52991W        W16715  44.295  17.786   0.738
52992W        W16716  30.077  11.278  11.587
52993W        W16717   6.812  23.231   1.318
52994W        W16718  16.722  30.549  11.913
52995W        W16719  39.396  20.188  11.051
52996W        W16720  13.234   0.807  12.526
52997W        W16721  37.057  33.541   4.701
52998W        W16722  36.353  39.028  11.894
52999W        W16723  25.668  38.356  13.500
53000W        W16724  33.562  14.295   1.888
53001W        W16725  42.374  40.962   3.808
53002W        W16726  34.061   6.870  11.970
53003W        W16727  25.613  11.345   9.614
53004W        W16728  14.655  41.458   2.711
53005W        W16729   4.219  20.551  11.513
53006W        W16730   3.722  33.614  13.319
53007W        W16731  42.963   2.401  14.398
53008W        W16732   4.833  30.957   1.225
53009W        W16733  35.504  26.047  13.041
53010W        W16734  22.237  14.298   2.804
53011W        W16735   6.896  21.124  11.098
53012W        W16736   1.790  42.414  14.899
53013W        W16737  36.925  37.462   5.241
53014W        W16738  26.997  21.165   2.667
53015W        W16739  29.541  10.795  10.935
53016W        W16740  41.850   2.441   2.777
53017W        W16741  21.203  16.082   1.420
53018W        W16742   3.861   1.803  10.458
53019W        W16743  41.850   1.285  12.855
53020W        W16744  36.535  35.104   0.931
53021W        W16745  16.707  31.538   0.291
53022W        W16746   2.925   1.321   3.672
53023W        W16747  31.459  42.964  11.429
53024W        W16748  35.982  19.116  14.497
53025W        W16749   4.205  21.639   0.936
53026W        W16750  40.915   7.203   3.173
53027W        W16751  37.348  34.614  13.895
53028W        W16752  12.247   3.764  14.947
53029W        W16753   9.692  13.623  14.014
53030W        W16754  17.300   6.818   3.218
53031W        W16755   3.289  37.545   0.873
53032W        W16756  40.969   1.248  13.904
53033W        W16757  21.523  30.423  10.003
53034W        W16758  13.802   3.955  12.978
53035W        W16759  17.792  26.173  12.859
53036W        W16760   4.850  28.531   4.741
53037W        W16761  40.969  31.630  14.914
53038W        W16762  36.959  43.900   4.246
53039W        W16763   8.784  25.971   3.765
53040W        W16764  20.193   4.735   4.603
53041W        W16765  44.778  30.657   1.311
53042W        W16766  40.343  33.934  11.559
53043W        W16767   2.729  12.328  12.577
53044W        W16768  39.817  16.201   3.262
53045W        W16769  30.547   4.752   1.398
53046W        W16770   1.426  31.902   2.408
53047W        W16771  22.729   5.844  10.617
53048W        W16772  34.964  38.468   1.702
53049W        W16773  22.607  33.399  12.467
53050W        W16774  11.346  15.738   3.736
53051W        W16775   7.237  17.771  12.084
53052W        W16776  22.500   9.197  14.899
53053W        W16777  23.541  16.747   3.809
53054W        W16778  24.007  24.995   3.275
53055W        W16779   9.747   5.719  12.398
53056W        W16780  44.494   7.719   2.253
53057W        W16781  42.341   0.895  11.435
53058W        W16782  15.728  32.138  12.094
53059W        W16783  36.855   7.380   1.803
53060W        W16784  12.149  32.065   4.810
53061W        W16785  34.377  17.673   0.793
53062W        W16786   2.430  38.049   0.919
53063W        W16787  24.152  31.462  11.553
53064W        W16788  18.726  20.619   1.868
53065W        W16789   3.913  23.612  13.530
53066W        W16790  26.113   4.270   4.704
53067W        W16791  25.152  30.467  10.591
53068W        W16792  36.462   9.161  12.418
53069W        W16793  44.000   4.403  11.528
53070W        W16794  31.555   5.872  12.442
53071W        W16795  23.518   0.398   3.647
53072W        W16796  35.463  31.412  11.075
53073W        W16797   4.712  36.395   0.733
53074W        W16798  18.228  32.086   0.892
53075W        W16799   8.235  32.064   2.195
53076W        W16800  43.932  20.243   0.757
53077W        W16801  44.818  44.442  12.437
53078W        W16802   3.780  34.114   1.805
53079W        W16803  20.590   9.708   4.828
53080W        W16804  40.488  44.293   3.154
53081W        W16805  43.782   1.851  10.487
53082W        W16806   3.835  28.550   2.261
53083W        W16807  10.145  34.048  12.016
53084W        W16808  43.792  17.679   3.692
53085W        W16809  40.319  20.716   4.339
53086W        W16810  20.631  41.340   4.165
53087W        W16811  16.284  36.517   4.833
53088W        W16812  31.405  32.011   2.302
53089W        W16813   2.762  38.895  11.592
53090W        W16814   1.334  18.055  10.559
53091W        W16815   0.279  13.345  14.423
53092W        W16816  10.164  11.330   2.869
53093W        W16817   8.309  27.141   1.295
53094W        W16818  10.777  19.545  12.968
53095W        W16819  35.507  31.587   3.154
53096W        W16820  31.647  32.886   4.832
53097W        W16821  28.130  16.681   3.213
53098W        W16822  30.026  29.526  11.474
53099W        W16823  16.742  34.082  13.344
53100W        W16824  38.541  37.570  11.529
53101W        W16825  20.137   9.674  11.432
53102W        W16826  14.813  14.595  12.411
53103W        W16827  31.497  19.754  10.454
53104W        W16828  25.131  20.533  14.390
53105W        W16829  38.884   8.679   5.153
53106W        W16830  38.946  12.845  13.409
53107W        W16831   5.728  35.041  12.498
53108W        W16832  22.574  44.279  14.397
53109W        W16833   7.678  20.641   1.279
53110W        W16834  43.350  44.276   1.734
53111W        W16835  37.054  30.100   1.374
53112W        W16836  11.686   8.352   1.300
53113W        W16837  13.828  16.131  13.361
53114W        W16838  23.228  43.858   1.835
53115W        W16839  26.109   1.469  14.393
53116W        W16840  21.552  22.626   4.113
53117W        W16841  44.010  31.458  14.361
53118W        W16842  26.995  12.334  10.569
53119W        W16843  11.856  39.959   4.763
53120W        W16844  12.617  19.551   1.220
53121W        W16845  31.911  32.949  11.517
53122W        W16846  35.955  27.677   3.849
53123W        W16847  15.787  12.359   0.860
53124W        W16848  29.129   7.828  13.410
53125W        W16849  20.549  33.493  11.551
53126W        W16850  36.999  23.197  12.538
53127W        W16851  27.567  12.180  12.059
53128W        W16852  38.824  19.771  13.024
53129W        W16853  30.093  15.653   4.616
53130W        W16854   3.850  34.910  12.517
53131W        W16855  35.550  12.128   2.884
53132W        W16856  12.224  11.204  12.360
53133W        W16857  15.791  16.129   1.711
53134W        W16858  23.112  13.208   2.331
53135W        W16859  13.766  10.184   4.725
53136W        W16860  10.690  44.421   4.121
53137W        W16861  10.344  18.557  11.467
53138W        W16862  15.824  31.151   0.834
53139W        W16863  30.932  20.730  10.478
53140W        W16864  18.228  27.013  11.027
53141W        W16865  33.528  21.554   4.304
53142W        W16866  25.025  30.593   4.161
53143W        W16867  22.156   3.869  10.585
53144W        W16868  39.542   4.813   3.664
53145W        W16869  39.376  30.141   0.729
53146W        W16870  31.406  23.005  11.028
53147W        W16871  17.707  19.696  13.001
53148W        W16872  11.285  30.150  14.032
53149W        W16873   4.893  33.532   3.213
53150W        W16874  19.153   6.269  14.511
53151W        W16875  21.132  34.572  13.858
53152W        W16876  24.571  17.763  10.907
53153W        W16877  15.246   8.167  10.431
53154W        W16878  24.521   5.858   0.935
53155W        W16879   0.303  40.458  13.340
53156W        W16880  23.732  22.180   4.833
53157W        W16881  11.339   7.348  13.389
53158W        W16882  34.000  34.449  11.466
53159W        W16883  18.061  42.939   3.783
53160W        W16884   0.400  10.699   4.680
53161W        W16885  39.934  15.684   0.405
53162W        W16886  26.084  36.091  12.406
53163W        W16887  42.330  38.331   3.325
53164W        W16888   1.373  24.624   4.179
53165W        W16889  25.169  20.176  13.034
53166W        W16890   0.268  38.403  14.296
53167W        W16891  35.565  34.040   0.414
53168W        W16892  12.258   8.705   0.262
53169W        W16893  32.413  36.590  13.935
53170W        W16894  27.944   8.399  14.900
53171W        W16895  36.859  18.156  12.909
53172W        W16896   4.364   7.900   4.815
53173W        W16897  40.016  28.513   2.845
53174W        W16898  25.209  37.877   5.220
53175W        W16899  15.694  44.339  13.942
53176W        W16900  16.081  20.652   4.672
53177W        W16901  25.977  10.766  12.993
53178W        W16902  33.604  43.346   2.685
53179W        W16903  23.555   6.777   2.760
53180W        W16904   4.777  43.321   2.249
53181W        W16905  38.847  26.076   4.237
53182W        W16906  21.083  40.314  14.320
53183W        W16907  23.679  20.146   4.258
53184W        W16908  40.394  14.625  13.355
53185W        W16909   4.834  19.549  14.295
53186W        W16910  25.713  27.455  12.032
53187W        W16911  24.053   7.317   4.724
53188W        W16912   8.777  41.419   0.880
53189W        W16913  37.544  12.800   0.422
53190W        W16914   7.730   2.911  11.974
53191W        W16915   6.724   8.777  11.038
53192W        W16916   5.289  24.068  10.920
53193W        W16917  33.981  13.665  12.545
53194W        W16918  12.274  23.113   1.359
53195W        W16919  12.316  20.102  12.458
53196W        W16920  31.645  43.781   4.304
53197W        W16921   2.448  33.602  10.464
53198W        W16922  25.649  21.733  14.989
53199W        W16923  25.973  33.923  13.830
53200W        W16924  23.505  29.585  12.835
53201W        W16925  26.477  35.042  13.410
53202W        W16926  13.321  40.381  11.485
53203W        W16927  41.405  38.926   3.692
53204W        W16928  14.825  33.542   2.749
53205W        W16929   7.681  33.080  13.862
53206W        W16930  37.958  42.404   2.228
53207W        W16931  11.773   8.347   4.191
53208W        W16932   4.851  14.161   1.350
53209W        W16933   5.253  40.436   3.823
53210W        W16934   4.287   0.254   0.815
53211W        W16935  15.238  17.282   1.349
53212W        W16936  18.563  10.313  12.063
53213W        W16937  28.957  39.942  14.909
53214W        W16938  16.785   0.839  14.886
53215W        W16939  35.522  23.148  10.582
53216W        W16940   3.328   3.294  11.963
53217W        W16941  40.382  38.513  11.433
53218W        W16942  33.127   6.713   0.770
53219W        W16943  44.009  13.759   2.878
53220W        W16944   6.838   2.269   2.417
53221W        W16945  27.450  29.104   3.722
53222W        W16946  10.236  15.589   0.856
53223W        W16947  21.679  13.650  14.302
53224W        W16948  14.717  14.601   2.713
53225W        W16949  35.451  42.511  11.467
53226W        W16950   5.229  35.544  14.986
53227W        W16951   0.379   9.719   1.266
53228W        W16952  20.141  12.205   2.298
53229W        W16953  38.452  33.555  13.496
53230W        W16954  29.919  39.487  12.952
53231W        W16955  33.046   2.857  11.061
53232W        W16956   3.421  11.808   3.732
53233W        W16957  34.938  23.509  13.435
53234W        W16958  18.266  18.052  11.079
53235W        W16959  34.062  42.893   4.186
53236W        W16960  19.721  35.001  14.285
53237W        W16961  36.848   0.438  13.465
53238W        W16962  20.165  16.221   3.308
53239W        W16963  22.214  16.626  14.966
53240W        W16964  44.277  39.933   2.798
53241W        W16965  24.611  28.115  12.517
53242W        W16966  30.145   7.294   2.788
53243W        W16967  17.259  35.554   2.781
53244W        W16968  35.901   9.747  13.878
53245W        W16969  27.132  12.633  13.954
53246W        W16970  25.157  15.328   1.846
53247W        W16971  14.729  26.652   3.172
53248W        W16972  44.270  42.009   4.249
53249W        W16973   9.174   6.842   1.323
53250W        W16974  30.568  21.051   4.677
53251W        W16975  19.270  11.816   4.202
53252W        W16976  38.962   8.769  13.429
53253W        W16977  16.249  31.032   0.772
53254W        W16978   0.789  12.340  14.483
53255W        W16979  25.637   7.785  14.420
53256W        W16980  14.328  31.533  14.768
53257W        W16981  42.873  10.646  10.902
53258W        W16982  16.219   5.323   0.352
53259W        W16983  17.236  25.031  13.539
53260W        W16984  22.612   7.712  12.567
53261W        W16985  28.462  36.383   1.905
53262W        W16986  27.077  10.363   0.387
53263W        W16987  20.060  28.516  10.523
53264W        W16988  27.016  24.600   4.113
53265W        W16989  34.116   1.818  13.520
53266W        W16990  30.951   9.224  12.431
53267W        W16991   7.203   6.338  12.515
53268W        W16992   7.246  35.474  14.415
53269W        W16993  36.863  38.537   0.271
53270W        W16994  12.621  14.256  10.959
53271W        W16995  19.232  42.964   4.656
53272W        W16996   5.803  31.946   3.242
53273W        W16997   4.833  13.236  13.933
53274W        W16998  40.494  11.801   3.283
53275W        W16999  20.726  22.619  11.992
53276W        W17000   5.408  33.131  11.376
53277W        W17001  10.359  12.686   9.966
53278W        W17002  22.593  33.612   4.304
53279W        W17003  24.589   1.313  13.853
53280W        W17004  32.471   7.256   1.771
53281W        W17005  21.536  37.016   3.649
53282W        W17006  16.656  37.534   0.730
53283W        W17007  39.489  34.578   2.338
53284W        W17008  36.096  36.575   3.867
53285W        W17009   1.813  40.422  13.458
53286W        W17010  43.862  29.560   0.747
53287W        W17011  20.751  37.344   2.332
53288W        W17012  17.733  13.829   2.407
53289W        W17013  23.493  23.036   1.764
53290W        W17014   1.745   6.206  11.493
53291W        W17015  11.341   7.748   4.130
53292W        W17016  39.830  25.006   3.759
53293W        W17017  28.967  11.222  13.043
53294W        W17018  34.458  14.822  14.833
53295W        W17019  26.147  27.602  11.112
53296W        W17020  24.608  21.584  12.001
53297W        W17021  43.366  31.008  12.850
53298W        W17022  32.903  21.662  14.479
53299W        W17023  19.731  44.463   4.164
53300W        W17024  31.105  24.484   4.309
53301W        W17025  29.524  14.198  13.374
53302W        W17026   8.853  31.999   5.104
53303W        W17027  33.416   1.756  10.575
53304W        W17028   9.731  36.568  10.557
53305W        W17029   5.434   9.648   2.861
53306W        W17030  19.263  24.591  11.939
53307W        W17031   2.403  12.318  13.885
53308W        W17032  20.157  38.991   4.224
53309W        W17033  32.938  25.488  13.385
53310W        W17034  28.128  33.527  12.087
53311W        W17035  31.526   9.855  12.071
53312W        W17036  30.140   0.956   4.679
53313W        W17037  33.879  20.659  11.606
53314W        W17038   0.367  18.556   0.737
53315W        W17039  39.009  34.534  10.948
53316W        W17040  16.202   9.795   2.193
53317W        W17041  11.647  18.285   4.268
53318W        W17042   8.350  43.923   3.364
53319W        W17043  20.087  37.558   2.770
53320W        W17044  13.204   8.655  13.423
53321W        W17045  13.692  35.511   2.835
53322W        W17046  20.659   8.283  10.950
53323W        W17047   4.330  44.996  14.315
53324W        W17048   4.384  34.497   2.278
53325W        W17049  10.143  28.529  11.933
53326W        W17050  15.133  39.429   2.770
53327W        W17051  22.702  41.796   4.191
53328W        W17052  20.699  34.059   1.308
53329W        W17053  25.569  20.199   3.316
53330W        W17054  43.468  24.145   3.828
53331W        W17055  29.588   7.217   3.354
53332W        W17056  28.004  30.082   0.335
53333W        W17057  29.556   9.778  11.521
53334W        W17058  29.551  32.443   4.622
53335W        W17059   5.320  26.070  10.417
53336W        W17060  40.508  23.644   2.806
53337W        W17061   2.336  12.265   2.732
53338W        W17062  28.470   7.903   2.867
53339W        W17063   1.967  22.743  13.485
53340W        W17064  34.380  23.553   0.278
53341W        W17065  10.701  34.479  14.297
53342W        W17066  41.933  12.280   1.437
53343W        W17067  11.210  13.107   3.812
53344W        W17068  22.625  39.382   0.779
53345W        W17069  16.609  35.946   2.304
53346W        W17070  41.006  40.844   4.125
53347W        W17071  36.530  26.087   1.376
53348W        W17072  23.009  42.873  14.854
53349W        W17073   3.272  29.457   4.622
53350W        W17074  15.166  34.008   3.306
53351W        W17075  44.953   9.163   0.379
53352W        W17076  26.092  26.550   1.699
53353W        W17077  38.983  32.425   1.840
53354W        W17078  44.472  43.853   0.742
53355W        W17079  19.610  36.473   3.633
53356W        W17080  21.137  27.186   2.675
53357W        W17081  16.639  26.052  13.892
53358W        W17082  11.130  38.016  13.038
53359W        W17083  38.498  32.534   4.658
53360W        W17084  19.724   2.303   2.794
53361W        W17085  14.218  25.160   3.179
53362W        W17086  42.922  44.303   0.839
53363W        W17087   3.738  17.175  13.056
53364W        W17088  42.007  10.299   2.266
53365W        W17089  12.791   8.763  11.555
53366W        W17090  28.548  38.515  13.527
53367W        W17091  39.436  25.098  12.403
53368W        W17092  33.384   8.306   0.922
53369W        W17093  27.569   9.818   0.728
53370W        W17094  21.559  12.613  13.849
53371W        W17095  42.906  39.992  14.455
53372W        W17096  24.702  34.524   4.837
53373W        W17097  23.188  18.781  11.528
53374W        W17098   0.440  43.462   4.240
53375W        W17099  33.474  40.870   2.792
53376W        W17100  19.710   7.181   3.638
53377W        W17101   0.840  43.487   4.355
53378W        W17102  23.655  20.208  11.959
53379W        W17103  29.999  28.436   1.935
53380W        W17104  25.615  41.385  12.421
53381W        W17105  29.643  31.550  14.389
53382W        W17106   3.235  20.583   1.257
53383W        W17107   5.759   0.448   3.682
53384W        W17108  14.241  14.313  12.012
53385W        W17109  13.745  14.620   3.271
53386W        W17110   9.285  27.158   4.787
53387W        W17111   3.749  24.537  14.446
53388W        W17112  23.598  16.317  12.531
53389W        W17113  18.661  15.712   4.229
53390W        W17114  33.601  13.240  10.009
53391W        W17115   2.920  43.339  12.023
53392W        W17116  32.069  43.279  12.424
53393W        W17117  38.896  33.132   2.829
53394W        W17118  26.669   3.265   3.188
53395W        W17119  29.506  25.112   0.346
53396W        W17120  10.715  29.644  13.333
53397W        W17121   2.837  35.394   0.413
53398W        W17122  31.439  23.091  11.554
53399W        W17123  20.193  39.943   2.854
53400W        W17124  16.708  17.242   2.761
53401W        W17125  29.592  38.948   0.915
53402W        W17126  14.771  22.600   2.710
53403W        W17127  31.983   1.458   4.780
53404W        W17128  37.400   0.340   0.420
53405W        W17129  34.889  44.326  11.965
53406W        W17130  42.962  36.427  11.474
53407W        W17131   3.715  20.028  12.933
53408W        W17132  18.105  39.001   2.810
53409W        W17133   6.742  10.232   4.163
53410W        W17134  18.164  27.994   2.781
53411W        W17135   6.368   4.308  12.401
53412W        W17136   7.806  32.962   0.935
53413W        W17137  24.083   4.273   4.160
53414W        W17138  22.668  31.926   3.360
53415W        W17139  15.250  13.311   0.945
53416W        W17140   2.305  18.144   4.628
53417W        W17141  17.753  16.276   0.877
53418W        W17142  26.018  41.850   1.211
53419W        W17143  16.277   8.838  10.519
53420W        W17144  33.414  30.499   4.680
53421W        W17145  31.999  28.640  14.978
53422W        W17146   4.333   4.211   1.247
53423W        W17147  42.965  30.952  14.842
53424W        W17148  41.845  29.109  11.588
53425W        W17149  39.993   4.816  10.599
53426W        W17150  30.421  26.658   4.838
53427W        W17151  12.346   7.332   1.366
53428W        W17152   8.684  40.345   3.656
53429W        W17153  12.232   3.868   2.241
53430W        W17154  32.907  11.295   0.343
53431W        W17155  31.051  38.962   0.932
53432W        W17156   9.235  12.684  10.427
53433W        W17157  44.753   3.847  13.840
53434W        W17158  44.292  11.300   0.819
53435W        W17159  30.113  30.489  14.459
53436W        W17160  20.551  35.046   1.303
53437W        W17161  43.326  37.905  11.063
53438W        W17162  10.293  18.605   1.325
53439W        W17163  41.369  23.174   3.351
53440W        W17164  22.212  28.060  10.937
53441W        W17165  35.444  16.658  12.364
53442W        W17166  33.068  34.043   3.345
53443W        W17167  25.054  40.335   3.168
53444W        W17168  25.502   8.309  14.796
53445W        W17169  13.760  26.610   3.178
53446W        W17170  33.515  22.678  10.553
53447W        W17171  35.498  20.224   2.695
53448W        W17172  40.477  13.330  14.985
53449W        W17173  41.449  26.475   5.104
53450W        W17174  18.168  25.694   1.920
53451W        W17175  31.102  10.769  14.811
53452W        W17176  43.294  18.764  11.477
53453W        W17177  10.184  13.780  10.947
53454W        W17178  21.618  39.324   4.177
53455W        W17179  31.476  14.777   2.333
53456W        W17180  22.571   7.766  12.995
53457W        W17181  16.281   6.287  10.080
53458W        W17182   1.256   7.681  12.514
53459W        W17183  35.604  11.631   0.896
53460W        W17184   0.896   6.202   2.334
53461W        W17185  11.300  41.007  13.529
53462W        W17186  18.158  27.984  10.963
53463W        W17187  13.777  43.420   0.787
53464W        W17188   5.280  41.786  13.952
53465W        W17189  24.519   2.766  14.923
53466W        W17190  38.001  20.561  14.787
53467W        W17191  14.291  10.738   4.210
53468W        W17192  14.194  27.555   3.267
53469W        W17193   7.865  12.257  12.024
53470W        W17194   7.330   4.777   2.848
53471W        W17195   5.726  40.403  10.578
53472W        W17196  25.622   9.653  10.416
53473W        W17197  22.716  31.993  12.918
53474W        W17198  31.086   3.832   2.671
53475W        W17199  23.500  35.854  10.911
53476W        W17200  22.173  40.496  10.465
53477W        W17201   5.700   5.405  12.909
53478W        W17202  30.424  25.007   0.815
53479W        W17203  32.072  26.613   3.283
53480W        W17204  10.703  18.623   4.750
53481W        W17205  10.314   2.256   3.703
53482W        W17206  25.068  30.072  11.475
53483W        W17207  26.994   8.787   2.342
53484W        W17208  36.065  34.007  13.430
53485W        W17209  30.458  41.804  13.912
53486W        W17210  39.507  20.579   4.761
53487W        W17211  13.732  28.078   2.372
53488W        W17212  24.616  43.870  11.055
53489W        W17213  23.129   3.339   4.136
53490W        W17214  38.938  31.030  13.845
53491W        W17215   1.403  39.322   0.343
53492W        W17216   8.221  22.998  11.435
53493W        W17217  37.028  42.375   4.236
53494W        W17218   0.391  31.645   4.632
53495W        W17219  10.222   9.784   0.963
53496W        W17220  20.665  44.344   2.782
53497W        W17221  33.972  40.533   0.330
53498W        W17222  29.506  35.898   3.734
53499W        W17223   5.762  42.458  14.511
53500W        W17224  20.112  23.080   1.281
53501W        W17225  26.999  44.773   0.873
53502W        W17226  36.860  37.004   3.714
53503W        W17227  31.647   4.427  11.961
53504W        W17228   6.835  36.525  12.578
53505W        W17229  16.735  41.844   4.323
53506W        W17230  30.575  19.245   3.634
53507W        W17231  20.105  24.030   0.308
53508W        W17232  10.160  15.263  10.427
53509W        W17233  39.959  44.936   0.809
53510W        W17234  24.092  21.523  14.851
53511W        W17235  41.460   0.267   3.807
53512W        W17236   5.300   1.481  12.445
53513W        W17237  44.453   0.842  11.950
53514W        W17238  31.489  19.644  12.877
53515W        W17239   7.733  33.960  10.636
53516W        W17240  28.935  18.253   1.758
53517W        W17241  35.496  42.319   1.727
53518W        W17242   5.217  18.195  13.387
53519W        W17243  33.045   1.904  14.341
53520W        W17244  34.588  28.990   1.872
53521W        W17245  18.270   5.881   3.839
53522W        W17246  33.433  17.270   2.835
53523W        W17247  30.447  29.963   3.347
53524W        W17248  31.567   3.915   2.875
53525W        W17249  24.710  31.001   3.665
53526W        W17250  25.989  22.018  12.412
53527W        W17251  21.747  13.681  14.902
53528W        W17252  43.984  35.590   9.523
53529W        W17253  22.123  13.125  12.990
53530W        W17254  15.699   4.836   0.307
53531W        W17255   5.765  15.248  11.572
53532W        W17256   3.863  20.148  14.020
53533W        W17257  25.694  18.149   4.835
53534W        W17258  20.028  33.500   3.228
53535W        W17259  43.921  37.403   3.632
53536W        W17260  44.990  17.698  11.947
53537W        W17261  42.402  39.058   5.135
53538W        W17262  19.119  26.099   0.863
53539W        W17263  14.231  41.390   1.306
53540W        W17264  17.100  16.275  13.903
53541W        W17265  20.654  31.544  12.011
53542W        W17266   7.893  22.114   1.229
53543W        W17267  14.727  15.286  13.434
53544W        W17268  38.946  14.293  12.889
53545W        W17269  24.180  10.759   2.708
53546W        W17270  32.586  12.790  12.453
53547W        W17271  17.692  25.626   4.201
53548W        W17272  34.000  22.152  13.372
53549W        W17273  13.234   3.710   4.679
53550W        W17274  26.131  22.057   4.123
53551W        W17275  42.818  35.001   4.599
53552W        W17276  33.391  12.147  12.900
53553W        W17277  12.361  43.338   3.714
53554W        W17278  22.594  25.604   3.201
53555W        W17279  30.510   4.828  11.078
53556W        W17280  29.147  12.328   3.214
53557W        W17281  29.081  34.370   2.700
53558W        W17282  11.253   8.309   3.649
53559W        W17283  18.748  18.657   0.767
53560W        W17284  12.135  31.121   4.838
53561W        W17285  34.509  34.963   0.254
53562W        W17286   5.737  37.385  12.967
53563W        W17287  11.676  19.554  10.076
53564W        W17288   7.769  35.516  14.275
53565W        W17289  24.700  12.275  14.476
53566W        W17290  23.121  44.457   2.209
53567W        W17291  42.331  39.516   4.678
53568W        W17292   6.276  38.562  10.941
53569W        W17293  37.959   8.767  13.480
53570W        W17294  34.049  29.113   1.798
53571W        W17295  29.089   7.718   4.639
53572W        W17296  30.098  28.616  10.547
53573W        W17297  18.599  11.631   0.352
53574W        W17298  22.182   4.437  13.975
53575W        W17299  33.039  13.702   3.766
53576W        W17300  33.894   1.390   3.706
53577W        W17301  25.184  35.407  11.905
53578W        W17302   3.750  14.659  10.623
53579W        W17303  12.667   9.275  10.524
53580W        W17304   0.759  27.045   1.854
53581W        W17305   1.396  17.246  13.341
53582W        W17306  18.772  19.105  12.084
53583W        W17307  43.872  19.146   4.306
53584W        W17308   2.827  30.046  11.895
53585W        W17309  19.659  20.042  14.014
53586W        W17310  32.425  29.131  12.578
53587W        W17311  31.059  34.410   2.209
53588W        W17312  42.849  40.902  10.603
53589W        W17313  20.266  11.701   4.343
53590W        W17314  26.980  43.844  11.372
53591W        W17315  13.664  43.963  12.828
53592W        W17316  28.103   4.246   2.304
53593W        W17317  28.957  30.042   0.818
53594W        W17318  14.332  35.533   1.770
53595W        W17319  13.652   3.436  13.813
53596W        W17320  25.474  32.448   0.426
53597W        W17321  18.253   5.912  11.053
53598W        W17322  40.458  19.554  14.367
53599W        W17323  36.910   7.407  10.950
53600W        W17324  25.185  32.448  13.022
53601W        W17325  39.038  35.418  14.963
53602W        W17326  15.722  27.949  13.936
53603W        W17327  14.678  32.892  14.396
53604W        W17328  13.678  43.001   3.848
53605W        W17329  40.521  33.965   9.616
53606W        W17330  31.968  44.920   4.145
53607W        W17331  26.483  16.226  11.487
53608W        W17332  41.874   0.356   1.403
53609W        W17333   0.277  29.945   3.744
53610W        W17334  34.043  33.964  10.985
53611W        W17335  19.644  10.201   2.760
53612W        W17336   0.851  36.570   4.215
53613W        W17337  14.641  19.272   1.429
53614W        W17338  16.639  20.613   2.257
53615W        W17339  21.129  17.068  10.030
53616W        W17340  39.977  21.642   1.273
53617W        W17341  23.177   4.373  10.430
53618W        W17342  22.680  34.452   4.706
53619W        W17343   6.419   4.334   0.337
53620W        W17344  38.824  42.355  14.425
53621W        W17345   9.231   6.207  14.294
53622W        W17346  34.049   5.792  14.782
53623W        W17347  22.087  36.454   2.342
53624W        W17348  22.122   7.772   3.284
53625W        W17349  38.554  26.468  10.973
53626W        W17350  14.095   9.741   4.744
53627W        W17351  44.897  41.458   0.837
53628W        W17352  19.689  41.346   3.287
53629W        W17353  22.161  42.517   1.391
53630W        W17354  16.728   9.647   4.257
53631W        W17355  29.532  39.458   2.416
53632W        W17356  33.936  34.912  10.555
53633W        W17357  23.182  44.875   1.446
53634W        W17358  28.114  21.062   1.271
53635W        W17359  21.074  33.056  13.949
53636W        W17360  16.668  36.528  13.834
53637W        W17361   2.360  16.578  10.098
53638W        W17362  40.848   6.238  11.873
53639W        W17363   2.312   5.323   1.762
53640W        W17364  40.500  15.663   2.250
53641W        W17365  13.344  13.127   2.801
53642W        W17366   6.801  33.458   1.854
53643W        W17367  13.698  22.627   0.355
53644W        W17368   2.918  10.194  10.469
53645W        W17369  31.610  38.964   1.260
53646W        W17370  28.111  27.090  10.537
53647W        W17371  21.171  37.055   2.332
53648W        W17372  19.042   7.908   4.285
53649W        W17373  35.086  34.411  12.062
53650W        W17374  39.822  18.191  14.022
53651W        W17375  43.419  38.886   3.331
53652W        W17376  17.796  33.124  11.977
53653W        W17377  11.778  30.636   3.647
53654W        W17378  38.502  31.150  12.073
53655W        W17379   4.887  24.123   0.906
53656W        W17380   2.901  25.046  10.990
53657W        W17381  15.090   9.680   0.923
53658W        W17382  34.368  41.532  11.422
53659W        W17383  31.152  13.755   3.332
53660W        W17384  31.630  35.966   3.185
53661W        W17385  17.235  28.087   3.340
53662W        W17386  26.616  36.885   0.412
53663W        W17387  34.012  39.003  13.379
53664W        W17388  37.455  13.815   0.481
53665W        W17389  33.432  24.486  13.498
53666W        W17390   6.792   1.857  11.394
53667W        W17391  42.806   4.769   0.935
53668W        W17392  31.918  34.984   4.597
53669W        W17393  30.142  34.997  12.840
53670W        W17394  34.937  31.488   2.216
53671W        W17395  18.200  39.057  14.495
53672W        W17396  18.209  22.252  13.316
53673W        W17397  41.365  15.314   0.245
53674W        W17398  11.214   4.884   2.753
53675W        W17399   9.180   6.315   4.714
53676W        W17400   6.827  32.093  13.911
53677W        W17401  17.100  44.956   4.198
53678W        W17402  23.653  40.471  14.813
53679W        W17403  41.431   7.402   1.401
53680W        W17404  18.736   0.423  10.448
53681W        W17405  11.821  39.368  10.474
53682W        W17406  20.235  15.232  11.010
53683W        W17407   3.795  27.072   3.315
53684W        W17408  10.152  37.062  14.965
53685W        W17409  14.719  37.535   4.757
53686W        W17410  38.517  11.864  13.407
53687W        W17411  25.649  13.156   0.253
53688W        W17412   5.198   0.460  11.401
53689W        W17413  24.579  44.292   4.822
53690W        W17414   2.302  44.478  12.378
53691W        W17415  32.128   0.284  12.937
53692W        W17416  12.128   9.737  11.953
53693W        W17417  34.987  41.822   3.644
53694W        W17418   2.920  43.886   2.391
53695W        W17419  18.243   6.408   1.291
53696W        W17420  21.528  38.006   3.287
53697W        W17421  39.420   1.408   1.350
53698W        W17422  19.138  39.447  14.930
53699W        W17423  21.048  37.439  12.440
53700W        W17424  29.125   4.846  12.944
53701W        W17425  28.126   6.402  11.905
53702W        W17426  41.892  31.412   3.382
53703W        W17427  37.052  34.590   2.764
53704W        W17428   7.769   3.312   0.458
53705W        W17429  24.551  26.597  14.445
53706W        W17430   5.815  13.172   3.780
53707W        W17431  38.353  10.269   3.789
53708W        W17432   2.947   9.305  11.537
53709W        W17433   2.914  31.035  14.778
53710W        W17434   2.445  40.889   3.778
53711W        W17435  20.764   7.258  14.953
53712W        W17436  17.564  22.604   4.244
53713W        W17437  23.603  18.641   3.736
53714W        W17438   6.328  33.416  14.944
53715W        W17439  42.365   4.426  14.440
53716W        W17440  16.610  14.203  13.536
53717W        W17441  18.654  29.503   4.779
53718W        W17442  19.144  41.901  13.024
53719W        W17443  33.040  27.553  13.006
53720W        W17444  14.598  30.909  14.915
53721W        W17445  23.682   8.850  13.022
53722W        W17446  29.975  28.066   0.786
53723W        W17447  10.641  22.161  14.012
53724W        W17448  21.634  41.302   5.123
53725W        W17449  38.987  34.556   4.679
53726W        W17450  39.524   1.351  13.398
53727W        W17451  41.448   4.766   5.139
53728W        W17452  20.098   7.721   2.845
53729W        W17453  29.155  30.946   3.722
53730W        W17454  21.196  25.015   1.740
53731W        W17455  11.851  38.036  13.969
53732W        W17456  41.038  26.009   1.278
53733W        W17457  40.046  14.661  10.492
53734W        W17458  41.924  18.764   1.790
53735W        W17459  10.370  43.002   4.740
53736W        W17460  18.725   7.359  12.454
53737W        W17461  21.180  21.583   0.341
53738W        W17462  44.447  18.564   4.795
53739W        W17463  27.550  11.241  13.849
53740W        W17464  14.755  26.977  12.008
53741W        W17465  13.151  18.603  14.323
53742W        W17466  11.289  40.831  11.540
53743W        W17467  37.521  10.736  12.431
53744W        W17468  29.043  18.617  14.377
53745W        W17469  13.241   4.358  13.050
53746W        W17470   0.844  23.578  11.047
53747W        W17471  20.593  13.227  13.823
53748W        W17472  17.164  12.729  11.884
53749W        W17473  29.057  23.543  14.420
53750W        W17474   0.971  14.138  13.542
53751W        W17475   8.309  20.571  14.032
53752W        W17476  42.899  26.026   4.255
53753W        W17477  44.006  17.116  13.437
53754W        W17478  42.896   1.279  13.054
53755W        W17479  11.845  24.096   2.875
53756W        W17480  12.678  16.240   4.245
53757W        W17481  37.935  15.283   3.701
53758W        W17482  32.492  44.923  14.798
53759W        W17483   4.266  12.245  11.568
53760W        W17484  28.541  30.152   0.748
53761W        W17485  16.619  41.459   3.215
53762W        W17486  15.705   1.760  12.439
53763W        W17487  10.810  14.291   0.427
53764W        W17488   8.258  28.110   1.331
53765W        W17489  14.162   9.707  13.514
53766W        W17490  37.429  35.087  13.899
53767W        W17491  22.686  12.311  13.403
53768W        W17492  31.613  23.671  13.460
53769W        W17493  38.925  11.714  11.049
53770W        W17494  26.090  16.101  12.031
53771W        W17495   3.275   3.343  13.414
53772W        W17496  43.376  16.696  10.490
53773W        W17497  19.237  33.043  13.050
53774W        W17498  34.986  34.893  10.131
53775W        W17499  20.201  31.008  10.433
53776W        W17500  25.512  40.392   2.347
53777W        W17501  31.131  21.025  13.853
53778W        W17502  20.109   5.813  12.028
53779W        W17503  29.654   9.202   1.240
53780W        W17504   6.730  19.543   4.140
53781W        W17505   1.944  33.100   3.280
53782W        W17506  28.598  17.190   3.746
53783W        W17507  24.187  16.197   0.845
53784W        W17508  44.337  22.720  11.601
53785W        W17509  34.969  41.481  13.381
53786W        W17510  44.398   9.862   0.909
53787W        W17511   9.666  25.049   1.379
53788W        W17512  41.430  14.705   3.724
53789W        W17513  39.817  37.957   3.330
53790W        W17514  19.066   3.343   1.857
53791W        W17515  13.710  40.015   3.651
53792W        W17516  41.964   0.756  11.036
53793W        W17517  29.084  11.358   4.617
53794W        W17518  31.592  25.089   4.192
53795W        W17519  29.475  16.708   2.782
53796W        W17520  37.454  23.076  13.472
53797W        W17521  39.863  12.703   1.778
53798W        W17522  31.978  22.119   4.237
53799W        W17523  21.038  13.708   0.264
53800W        W17524  41.903  29.573  10.507
53801W        W17525  17.577  12.211  12.984
53802W        W17526  12.222  24.637   4.324
53803W        W17527  20.596  24.124  12.552
53804W        W17528  21.263  12.211  13.328
53805W        W17529  36.865   6.918  13.505
53806W        W17530  33.516  20.711   0.276
53807W        W17531  28.504   8.385   5.642
53808W        W17532  16.204  34.079  14.938
53809W        W17533  10.760  44.318  14.839
53810W        W17534  16.622  25.170  12.923
53811W        W17535  12.143  26.457   3.792
53812W        W17536  17.174  26.497   4.628
53813W        W17537  11.145  13.225  14.834
53814W        W17538  32.903  37.552   0.440
53815W        W17539  43.321  18.709  14.922
53816W        W17540  17.606  29.489   2.386
53817W        W17541  41.438  13.192  14.821
53818W        W17542  13.112   1.932   0.934
53819W        W17543  25.023   5.250  11.609
53820W        W17544  41.947  19.676  10.082
53821W        W17545  29.516  25.023   2.746
53822W        W17546  18.584   7.362  13.360
53823W        W17547   4.375  38.848  12.975
53824W        W17548  39.374  16.723  10.430
53825W        W17549  40.972   7.325   4.794
53826W        W17550  12.172  38.829   4.655
53827W        W17551  38.848   7.880   2.740
53828W        W17552  10.848  21.080   2.797
53829W        W17553  16.197  44.297   9.983
53830W        W17554  16.280  44.380  12.530
53831W        W17555  41.992   9.766  14.888
53832W        W17556  10.178  22.108   2.758
53833W        W17557  38.992   4.424  14.924
53834W        W17558  27.022  30.145   2.873
53835W        W17559  18.602  11.146   4.756
53836W        W17560  32.556  37.983  12.096
53837W        W17561  22.999  15.722   3.785
53838W        W17562  33.497  24.556  13.870
53839W        W17563  20.039  10.835   1.239
53840W        W17564  28.104  28.611   4.778
53841W        W17565  22.712  13.668  10.451
53842W        W17566  23.668  26.132  11.872
53843W        W17567  24.570  14.588  13.335
53844W        W17568  44.344  11.182  14.491
53845W        W17569   2.726  16.567  12.470
53846W        W17570   0.389   8.897   2.714
53847W        W17571  33.503   2.317  13.946
53848W        W17572  13.128  39.884   4.614
53849W        W17573  17.584  25.665   0.317
53850W        W17574  35.008  16.766   0.353
53851W        W17575   6.219   1.940  12.353
53852W        W17576  39.814  27.545   3.831
53853W        W17577  16.239  12.793   3.712
53854W        W17578   5.707  32.578  13.881
53855W        W17579  20.153   3.782  14.827
53856W        W17580  36.009  11.247  11.870
53857W        W17581  40.909  43.989   0.334
53858W        W17582  31.550  30.160  12.404
53859W        W17583   8.230   1.481   4.828
53860W        W17584  12.197  25.590  10.640
53861W        W17585  12.359  38.335  11.414
53862W        W17586   3.443  15.658   3.155
53863W        W17587  16.155   8.383  12.034
53864W        W17588  33.092  29.484   3.322
53865W        W17589  19.241  34.968  11.934
53866W        W17590  18.685   7.799   3.240
53867W        W17591  22.133   8.837   2.764
53868W        W17592  13.211  12.733  11.604
53869W        W17593  18.566  12.648  10.527
53870W        W17594  37.834  33.977   0.476
53871W        W17595  29.969   6.310   2.851
53872W        W17596  31.977  31.914  11.093
53873W        W17597  28.940   9.790   2.770
53874W        W17598  14.653   5.402  11.125
53875W        W17599  44.821  25.663  12.355
53876W        W17600  35.538  33.950   1.271
53877W        W17601  37.506  30.616   3.217
53878W        W17602  15.203  23.712  10.903
53879W        W17603  35.936  41.042  13.852
53880W        W17604  18.293   7.384   3.802
53881W        W17605  12.716  26.179   2.274
53882W        W17606   2.732  44.986   4.837
53883W        W17607  11.737  23.165  12.977
53884W        W17608  22.247  14.796  13.880
53885W        W17609  31.632  37.559   4.243
53886W        W17610  34.068   6.214  14.916
53887W        W17611  33.048  17.751  11.033
53888W        W17612   0.466  22.245   0.448
53889W        W17613   2.775  25.691  13.460
53890W        W17614   7.680   8.820   3.787
53891W        W17615  25.099  29.943  14.820
53892W        W17616  18.072  40.916   3.788
53893W        W17617  18.645  33.122  12.837
53894W        W17618  41.997  12.169   4.258
53895W        W17619   4.756  36.075  12.536
53896W        W17620  36.007  21.157   0.298
53897W        W17621  39.948   2.425   0.331
53898W        W17622  15.653  18.776  12.016
53899W        W17623   7.387   5.430  13.019
53900W        W17624  28.138   2.270  14.896
53901W        W17625   5.205  20.192  14.966
53902W        W17626  38.509  15.173  12.365
53903W        W17627  14.690  32.575   3.732
53904W        W17628   2.361  29.470  10.574
53905W        W17629  13.211  31.993  10.126
53906W        W17630  21.123  36.399  13.431
53907W        W17631  28.177  12.305   9.924
53908W        W17632  29.567  23.210  12.535
53909W        W17633  39.536  36.004   3.181
53910W        W17634  41.349   7.911   3.755
53911W        W17635  28.099  18.714  13.436
53912W        W17636  11.337  42.381  11.454
53913W        W17637  39.911  30.961  11.906
53914W        W17638  36.524  30.072   1.854
53915W        W17639   3.390  40.876   3.817
53916W        W17640   5.803   5.892  10.907
53917W        W17641   8.696  11.698  13.970
53918W        W17642  23.605  14.772   3.836
53919W        W17643  38.885   2.824   3.297
53920W        W17644  28.139  39.014   3.684
53921W        W17645   1.921  32.071   5.171
53922W        W17646  33.509  43.938  14.806
53923W        W17647  29.614  44.955  14.275
53924W        W17648   9.385   8.301  10.891
53925W        W17649   9.833  43.450  13.411
53926W        W17650   7.356  20.635   1.252
53927W        W17651  22.190  13.759  14.968
53928W        W17652  10.159  35.581   4.736
53929W        W17653  23.037  38.903   3.791
53930W        W17654  33.953  32.109   1.296
53931W        W17655   7.814  35.363   0.850
53932W        W17656  21.605  17.237  14.345
53933W        W17657  43.297  11.308  13.911
53934W        W17658  23.542   3.939   1.269
53935W        W17659  10.138   3.763   0.275
53936W        W17660  33.927  37.877  10.424
53937W        W17661  38.053   2.261  13.409
53938W        W17662  24.579  21.219  12.028
53939W        W17663   4.228   6.397   1.411
53940W        W17664  44.452  16.253   0.460
53941W        W17665  31.430  44.975   0.474
53942W        W17666  11.789  42.914   0.455
53943W        W17667  18.090  24.525   3.288
53944W        W17668  24.195  22.536   9.926
53945W        W17669  16.253  14.644   4.163
53946W        W17670  29.085   8.724   1.340
53947W        W17671  25.471  30.575  14.321
53948W        W17672  16.796  36.972  10.406
53949W        W17673  14.816  32.451  13.508
53950W        W17674  13.310  43.878   2.716
53951W        W17675  16.118  43.374  14.489
53952W        W17676  11.777  28.448  14.870
53953W        W17677  33.110  38.565   3.244
53954W        W17678   8.329  37.943   3.192
53955W        W17679  22.683  13.138  10.111
53956W        W17680   1.391  37.385  13.393
53957W        W17681  35.566   7.302   1.251
53958W        W17682  33.462  41.031   4.150
53959W        W17683  27.975  38.415  12.000
53960W        W17684  26.648  40.436   3.676
53961W        W17685   3.457  12.684  10.600
53962W        W17686  16.126   3.932  10.930
53963W        W17687  18.661  37.353  11.489
53964W        W17688  17.689  43.302   0.891
53965W        W17689  37.450  37.853   1.855
53966W        W17690  25.636  14.178   4.707
53967W        W17691  26.179  38.496   3.273
53968W        W17692  22.054  21.103   1.361
53969W        W17693   7.223  39.349   4.819
53970W        W17694  26.974  44.859  13.871
53971W        W17695  30.423  27.637   1.734
53972W        W17696  29.541  37.546  12.502
53973W        W17697  11.622  41.940   3.817
53974W        W17698  32.442  41.983  11.372
53975W        W17699   0.309  21.220  14.813
53976W        W17700  18.064   7.231  12.892
53977W        W17701  12.211  24.196  10.429
53978W        W17702  36.557  15.752   1.932
53979W        W17703  11.796  14.717  12.450
53980W        W17704  34.580  37.535   0.748
53981W        W17705   5.318   1.266  10.985
53982W        W17706  26.071  18.589   1.732
53983W        W17707   8.676  11.361   0.387
53984W        W17708   4.828  31.414   3.187
53985W        W17709   5.273  21.198   0.401
53986W        W17710  38.461  39.348  14.013
53987W        W17711  12.282  31.468  11.418
53988W        W17712  33.037   7.707  13.487
53989W        W17713  39.855   9.355  13.050
53990W        W17714  39.817  10.142   2.814
53991W        W17715  23.201  18.130  13.467
53992W        W17716  36.865  37.961  10.413
53993W        W17717  10.833  11.761   4.329
53994W        W17718  15.293  10.149   5.255
53995W        W17719  20.226   9.194  11.893
53996W        W17720  15.693  18.294  14.002
53997W        W17721   4.301  42.912   0.325
53998W        W17722  10.669   5.893   0.448
53999W        W17723   4.797  10.264  13.439
54000W        W17724  22.070  14.682   3.805
54001W        W17725  22.251  31.026   5.679
54002W        W17726  35.046  29.429   5.223
54003W        W17727  10.749  29.578  10.432
54004W        W17728  28.186  40.998   9.978
54005W        W17729  24.680  42.358   4.821
54006W        W17730  27.518  15.659  11.077
54007W        W17731  22.607  35.399  14.000
54008W        W17732  21.188   7.903   0.474
54009W        W17733  44.003  34.384  13.533
54010W        W17734  28.095  16.747  10.422
54011W        W17735   6.295  30.914  10.480
54012W        W17736  40.918   1.931   2.725
54013W        W17737  16.641  43.488   3.358
54014W        W17738  29.505  11.711   3.373
54015W        W17739  30.108  32.391   1.876
54016W        W17740  17.792   9.877   4.181
54017W        W17741  23.683  39.996   0.304
54018W        W17742  36.016  43.867  11.959
54019W        W17743  31.148   7.326  12.844
54020W        W17744   4.289  39.435  14.441
54021W        W17745  31.131  31.561   2.875
54022W        W17746  14.701   2.469   1.724
54023W        W17747  38.414  11.368   3.149
54024W        W17748   5.363  28.025   0.476
54025W        W17749  43.007  23.732  14.764
54026W        W17750  34.541  41.023  11.583
54027W        W17751  26.961   6.833   0.262
54028W        W17752  13.163  22.721  11.472
54029W        W17753  29.514  41.866  11.939
54030W        W17754   2.804   5.403   4.213
54031W        W17755  43.941  20.255   4.246
54032W        W17756  38.900  36.543   4.828
54033W        W17757  38.337  23.218   4.206
54034W        W17758  16.595  19.263   1.258
54035W        W17759  34.557  19.187  12.827
54036W        W17760  23.560   3.385   1.799
54037W        W17761   3.238  34.025  11.119
54038W        W17762  38.065  10.832   3.833
54039W        W17763   7.910  35.574  10.575
54040W        W17764  15.173  23.629   1.371
54041W        W17765  21.215  18.223  12.084
54042W        W17766   8.752   0.917  12.363
54043W        W17767  10.381  24.048   3.352
54044W        W17768  42.807  15.324  12.856
54045W        W17769  12.248   6.919  10.111
54046W        W17770   4.769   3.870   3.214
54047W        W17771  18.056  15.751   0.289
54048W        W17772  14.831  13.160   2.383
54049W        W17773  39.384  39.992   4.196
54050W        W17774   0.397   9.279  12.538
54051W        W17775  42.356   4.887   3.224
54052W        W17776  13.117  28.473   4.737
54053W        W17777  10.689  31.419   2.211
54054W        W17778  42.874  21.053  11.916
54055W        W17779   7.321  14.686   4.597
54056W        W17780  44.318   0.772   4.810
54057W        W17781  11.656  29.061  13.542
54058W        W17782   4.293  25.155  14.345
54059W        W17783  19.623  15.761   1.930
54060W        W17784   4.446  10.210  13.022
54061W        W17785   1.920  33.009   1.284
54062W        W17786   9.649  32.115   0.426
54063W        W17787   5.929   6.753  12.395
54064W        W17788  25.517  28.130   2.770
54065W        W17789   1.463  32.014   4.619
54066W        W17790  19.547   8.326  11.987
54067W        W17791  28.092  17.220   1.407
54068W        W17792  28.946  13.167   2.340
54069W        W17793  23.659  38.571   1.276
54070W        W17794  40.018  43.775  11.109
54071W        W17795  16.240  38.439  12.339
54072W        W17796  25.151  29.427  14.998
54073W        W17797  32.505   3.250  11.883
54074W        W17798  26.997  21.576   3.647
54075W        W17799  15.266  18.684  14.314
54076W        W17800  40.030  28.016   0.746
54077W        W17801   0.758  39.820  13.831
54078W        W17802  29.425   2.225  11.868
54079W        W17803  37.051  17.604   0.279
54080W        W17804  41.310  20.136   0.960
54081W        W17805  16.202   8.800  12.823
54082W        W17806  38.003  28.094  10.085
54083W        W17807  20.583  23.732   4.318
54084W        W17808  11.665  26.059   2.224
54085W        W17809  20.116   6.221   0.255
54086W        W17810   0.876  13.669   4.205
54087W        W17811   8.254  38.820   4.118
54088W        W17812   7.363  32.592  11.909
54089W        W17813  26.174  18.110   3.174
54090W        W17814  10.870  31.403   1.450
54091W        W17815  27.090  23.183  13.985
54092W        W17816  18.108  17.781  12.339
54093W        W17817  37.030  21.116   4.314
54094W        W17818  27.082  30.476  10.087
54095W        W17819  38.571  25.983  10.915
54096W        W17820  15.615  15.113   1.913
54097W        W17821   0.313  25.548  11.032
54098W        W17822  10.212  11.673  12.870
54099W        W17823  24.977  42.347   2.884
54100W        W17824  23.137  26.136  11.386
54101W        W17825  18.088   1.376   4.236
54102W        W17826  27.971  36.901   4.235
54103W        W17827  15.264  13.838  13.324
54104W        W17828  15.157  42.944   3.871
54105W        W17829  39.010   7.669  10.159
54106W        W17830  37.540  32.971   2.804
54107W        W17831  21.660  19.266  11.073
54108W        W17832   0.396  28.572  10.890
54109W        W17833   2.352  25.062  14.979
54110W        W17834  29.988  25.113  14.821
54111W        W17835   3.768  23.017   3.780
54112W        W17836  17.296   7.895   4.695
54113W        W17837  28.080  12.163   1.222
54114W        W17838  42.294   4.941   4.148
54115W        W17839  15.710  23.144   4.604
54116W        W17840  16.117  28.466  12.415
54117W        W17841  36.871  12.269   4.311
54118W        W17842  30.966  22.008  10.915
54119W        W17843  28.508  39.439  14.434
54120W        W17844   6.385  18.605   0.257
54121W        W17845  12.729  31.590   3.232
54122W        W17846  16.684  30.558  13.935
54123W        W17847  25.645   3.290   2.719
54124W        W17848   6.236  14.169  10.161
54125W        W17849  36.436  17.239  13.893
54126W        W17850  33.106   6.412   4.295
54127W        W17851  28.440  36.560   4.690
54128W        W17852  37.342  13.775  10.595
54129W        W17853  14.592  29.999  12.017
54130W        W17854  35.884  26.104   4.598
54131W        W17855  10.334  11.208  11.433
54132W        W17856  44.913  37.522  11.955
54133W        W17857  28.510  37.543  13.455
54134W        W17858  17.687   4.378  11.883
54135W        W17859  43.430  38.075   0.749
54136W        W17860  20.572  30.502   3.229
54137W        W17861  10.744  19.247   3.371
54138W        W17862  10.780  39.047   0.835
54139W        W17863  41.896  30.544   5.305
54140W        W17864  41.796  10.846  13.337
54141W        W17865  13.351  10.224   1.748
54142W        W17866  35.994  20.140  12.993
54143W        W17867  14.745  25.650  13.873
54144W        W17868  42.922  36.504   0.932
54145W        W17869  36.398  19.602  12.480
54146W        W17870  26.527  11.135   2.676
54147W        W17871  25.974   5.775  14.437
54148W        W17872   0.939  29.042  14.321
54149W        W17873  30.162   7.906  12.903
54150W        W17874  26.676  20.577   0.799
54151W        W17875  27.659   0.806  14.289
54152W        W17876  26.966  25.199   0.919
54153W        W17877   5.319  25.114   2.315
54154W        W17878  35.910  25.510   0.482
54155W        W17879  32.964  34.473   2.693
54156W        W17880  10.313  17.729  10.448
54157W        W17881  24.641  21.545  14.029
54158W        W17882  13.796  22.716  14.278
54159W        W17883  42.440  39.952  11.444
54160W        W17884  15.281   3.813   9.947
54161W        W17885  34.602  23.719  13.884
54162W        W17886   6.389  40.942   0.243
54163W        W17887  13.646  32.132   1.738
54164W        W17888   2.761  30.977   2.343
54165W        W17889  24.652  39.903   4.336
54166W        W17890  30.522  20.768  12.943
54167W        W17891  14.197   6.764  14.915
54168W        W17892  40.525  34.441   4.128
54169W        W17893  41.395  11.781  14.347
54170W        W17894  24.659  30.145   0.336
54171W        W17895  19.689  43.926  14.981
54172W        W17896   3.911   9.699  13.805
54173W        W17897  10.239  25.003  14.870
54174W        W17898  33.882  29.109  10.458
54175W        W17899  18.599  31.530  12.954
54176W        W17900   6.873  25.699   0.256
54177W        W17901  20.527  21.093  13.456
54178W        W17902   3.898  24.095   1.429
54179W        W17903  37.459   2.346   5.182
54180W        W17904  41.001   5.392   4.763
54181W        W17905  38.548  43.344  12.479
54182W        W17906  30.030  24.032   4.230
54183W        W17907  33.559  25.069   2.192
54184W        W17908   7.762  17.585  14.468
54185W        W17909   4.818  39.448   0.857
54186W        W17910  29.446  20.154   0.760
54187W        W17911  35.026   7.405  11.869
54188W        W17912  24.193  39.524  13.979
54189W        W17913  11.150  25.152   4.691
54190W        W17914  12.347  41.370   4.738
54191W        W17915   1.267  22.582   3.862
54192W        W17916  34.089   1.322  10.630
54193W        W17917  42.479  32.998   4.637
54194W        W17918  14.697  28.461   4.289
54195W        W17919  21.704  28.571   9.998
54196W        W17920  36.941   7.821  13.970
54197W        W17921   7.238  24.034  11.058
54198W        W17922  25.522  39.469   4.763
54199W        W17923  11.302  36.981  11.505
54200W        W17924   6.760  43.912  11.568
54201W        W17925  30.572   4.231   3.292
54202W        W17926  36.001  24.627  14.013
54203W        W17927   0.342   4.267  13.962
54204W        W17928  22.683  18.757  11.868
54205W        W17929  16.186  27.480   4.750
54206W        W17930   0.979   6.304  13.025
54207W        W17931   1.471  35.940  11.587
54208W        W17932  22.172  35.107   2.402
54209W        W17933  28.950   9.225  14.402
54210W        W17934  36.952   9.286  13.804
54211W        W17935   4.863  16.757  11.991
54212W        W17936  37.550  11.776   0.753
54213W        W17937  44.977  11.626   3.372
54214W        W17938  12.779  17.791  10.516
54215W        W17939   2.774  42.923   2.721
54216W        W17940  11.698  38.955   4.616
54217W        W17941  27.472  25.090   3.295
54218W        W17942  36.902  36.363   2.197
54219W        W17943  14.322  11.334  12.843
54220W        W17944  16.633  27.660  13.976
54221W        W17945  31.539  40.925  14.854
54222W        W17946  10.714  15.724  14.912
54223W        W17947   9.173  19.229  14.312
54224W        W17948  17.175  30.614  14.784
54225W        W17949  26.694  37.951  13.490
54226W        W17950   6.744  38.465  13.357
54227W        W17951  10.211  33.427   3.836
54228W        W17952   5.790  42.882   3.343
54229W        W17953  28.148   6.762  14.957
54230W        W17954  26.994  22.244   3.234
54231W        W17955  39.367   9.257  14.986
54232W        W17956  22.009  38.972  10.906
54233W        W17957  25.517   5.825   0.909
54234W        W17958  27.962  26.952   3.295
54235W        W17959  30.016  17.788  13.022
54236W        W17960   7.783   2.754   4.806
54237W        W17961  32.512   7.899   1.289
54238W        W17962   3.853   3.253  14.024
54239W        W17963  20.269  43.415   2.333
54240W        W17964  41.349   9.186   0.945
54241W        W17965  27.598  41.513  12.461
54242W        W17966  41.037  10.365   2.814
54243W        W17967   1.763   6.202  13.872
54244W        W17968  41.411  18.653  14.449
54245W        W17969  11.143   4.359   5.581
54246W        W17970   9.703  36.899  13.007
54247W        W17971  14.126  20.119   3.256
54248W        W17972  23.533  37.007  11.513
54249W        W17973  34.883  31.137   1.248
54250W        W17974  22.065  15.236  14.348
54251W        W17975  35.058  30.012   0.782
54252W        W17976  29.944  28.026   0.243
54253W        W17977  24.494   1.873   1.384
54254W        W17978   3.831   3.779   3.206
54255W        W17979  14.230   4.828  12.397
54256W        W17980  10.169  13.254  14.481
54257W        W17981  16.209   1.377  12.085
54258W        W17982  10.194  44.478   2.822
54259W        W17983  23.720   6.427   1.754
54260W        W17984  30.468   2.825  12.476
54261W        W17985  41.485  38.076  14.466
54262W        W17986  34.373  40.388  11.439
54263W        W17987  41.385   1.883  11.450
54264W        W17988  40.402  26.562  13.346
54265W        W17989  34.530  28.665   1.423
54266W        W17990  22.226  39.412  11.483
54267W        W17991  29.175   9.662  10.417
54268W        W17992  28.484  40.974  12.368
54269W        W17993  10.330  24.526   5.146
54270W        W17994  35.548  24.081   4.668
54271W        W17995  34.561  31.512   0.367
54272W        W17996  32.976  29.632  11.371
54273W        W17997   5.361  11.851  12.362
54274W        W17998  40.835   2.398  14.796
54275W        W17999  11.363  11.735  13.309
54276W        W18000  42.819   2.283   2.807
54277W        W18001  14.265  19.694  10.569
54278W        W18002  31.931  10.812  12.014
54279W        W18003  14.175   1.406   3.707
54280W        W18004  12.747  39.887   0.957
54281W        W18005  21.710   5.699   3.235
54282W        W18006   6.240  25.010   3.730
54283W        W18007  35.038  24.165   3.308
54284W        W18008  22.672  32.612  10.416
54285W        W18009  35.429  37.841   0.953
54286W        W18010   6.362   8.202   2.676
54287W        W18011   6.781  13.813  12.445
54288W        W18012  27.046  11.198   2.868
54289W        W18013  15.711  15.151  12.347
54290W        W18014   1.880  44.921  13.529
54291W        W18015  38.967  11.625   1.854
54292W        W18016  23.492  16.118  10.950
54293W        W18017   8.834   7.752  10.458
54294W        W18018  10.141  28.131  10.910
54295W        W18019  40.886  22.571  10.921
54296W        W18020  29.652  26.703  10.492
54297W        W18021   4.914  36.909   2.279
54298W        W18022   9.242  26.697  10.911
54299W        W18023  32.469  13.614   4.667
54300W        W18024  37.910  44.318  14.469
54301W        W18025  37.567   6.837  12.483
54302W        W18026  20.722  25.624   2.663
54303W        W18027  21.650  39.365   0.894
54304W        W18028  13.263   7.173   0.355
54305W        W18029  12.812   4.215  11.860
54306W        W18030   6.184  21.574  11.089
54307W        W18031  17.075  26.558   1.726
54308W        W18032  24.487  12.755   2.419
54309W        W18033  30.007  43.473   0.455
54310W        W18034   3.219  41.009  13.884
54311W        W18035   9.740  28.655   3.325
54312W        W18036   6.412   8.301   3.344
54313W        W18037  28.093  24.606   1.885
54314W        W18038  31.528  14.617   9.996
54315W        W18039  33.546  23.133  13.312
54316W        W18040  33.405  21.632   2.358
54317W        W18041  17.740  10.647  12.474
54318W        W18042  36.450  29.967   2.671
54319W        W18043   6.913  10.716   2.304
54320W        W18044   5.250  17.601  11.857
54321W        W18045  35.513  16.256  12.504
54322W        W18046  41.992   1.377  12.520
54323W        W18047  15.713  12.840  10.065
54324W        W18048  23.712  24.212   1.848
54325W        W18049  38.876   5.405   3.352
54326W        W18050  10.318  28.992   1.836
54327W        W18051  16.794   4.923  13.446
54328W        W18052  25.674  35.031   3.713
54329W        W18053  22.702   1.805   1.281
54330W        W18054  18.132  28.960  11.524
54331W        W18055  15.804  13.136   5.268
54332W        W18056  25.983  18.230   2.746
54333W        W18057  34.024  32.916  11.564
54334W        W18058  40.441   9.654  12.561
54335W        W18059  36.542   0.910   1.432
54336W        W18060  27.084   6.873   3.718
54337W        W18061  11.273   1.403  11.987
54338W        W18062   9.769  19.585  12.831
54339W        W18063  17.603  38.556  11.562
54340W        W18064  14.799  26.696  14.790
54341W        W18065  43.405   8.192  13.888
54342W        W18066   7.787  10.721   3.857
54343W        W18067  33.586  13.699   0.856
54344W        W18068  11.861  28.980   1.902
54345W        W18069  39.841   6.192   3.706
54346W        W18070  32.497  40.809  10.478
54347W        W18071  24.118  21.263   5.085
54348W        W18072  16.140  38.874   0.392
54349W        W18073  33.459   2.420   2.684
54350W        W18074  18.576  12.127   4.203
54351W        W18075  16.169   0.811  14.276
54352W        W18076  33.441   9.768  14.017
54353W        W18077  27.654  17.628  13.007
54354W        W18078  13.119  42.837   1.391
54355W        W18079  42.360  30.029  14.391
54356W        W18080  44.455   4.354   2.346
54357W        W18081   2.826  31.623  10.432
54358W        W18082   3.424  21.721   2.733
54359W        W18083   5.735   4.721   1.342
54360W        W18084  16.666  14.621   9.514
54361W        W18085  17.659  16.195  14.351
54362W        W18086  11.364   4.260   2.235
54363W        W18087  12.783  42.876  14.373
54364W        W18088  32.533  33.935   2.834
54365W        W18089  20.542  24.080   2.759
54366W        W18090  35.568  17.603  10.507
54367W        W18091  31.507  21.060   0.824
54368W        W18092  21.017   5.862   3.657
54369W        W18093  21.673  32.008  10.930
54370W        W18094  32.912   6.232   0.874
54371W        W18095  20.235   6.389  10.941
54372W        W18096  14.263   2.883  11.098
54373W        W18097  39.545   7.880   1.403
54374W        W18098   4.811  22.545   2.266
54375W        W18099   0.428  14.804   0.874
54376W        W18100   5.757  13.683  14.292
54377W        W18101  11.160   4.393   1.412
54378W        W18102  21.102  14.334  14.009
54379W        W18103  41.898  22.636  13.399
54380W        W18104  32.889  34.963  13.877
54381W        W18105  43.423   8.207   2.776
54382W        W18106  41.460   4.761   1.323
54383W        W18107  30.510  39.977  12.923
54384W        W18108   3.732  40.861   3.685
54385W        W18109  43.791  39.544   4.161
54386W        W18110  33.934  11.849   0.849
54387W        W18111  34.490  28.572   2.692
54388W        W18112  39.824  17.265  11.574
54389W        W18113   4.367  10.195   2.865
54390W        W18114  30.955  40.465   1.335
54391W        W18115  44.814  24.228   0.252
54392W        W18116  16.602  34.033   1.918
54393W        W18117  42.876   8.175  11.497
54394W        W18118  27.622  17.253   2.697
54395W        W18119  44.961  37.470  14.429
54396W        W18120   3.234  36.040   4.739
54397W        W18121   1.294  35.005  14.310
54398W        W18122  28.486  41.512  13.384
54399W        W18123  36.851  33.441  10.573
54400W        W18124  23.094  20.065  11.474
54401W        W18125  21.203  44.918  11.444
54402W        W18126  26.517   3.460  12.902
54403W        W18127  13.816  23.082   1.905
54404W        W18128  26.970  31.511  11.060
54405W        W18129  33.008  30.926   2.307
54406W        W18130  14.253  17.604  14.507
54407W        W18131  11.164  23.580   1.918
54408W        W18132  12.117  39.347   1.396
54409W        W18133  10.254  31.903  11.574
54410W        W18134  31.566  26.491  13.885
54411W        W18135  34.530  11.290  10.548
54412W        W18136  18.084  12.168   1.740
54413W        W18137  19.638  21.566  13.322
54414W        W18138   9.703  35.958   0.756
54415W        W18139  38.348  25.638   0.415
54416W        W18140   8.732  29.638   3.698
54417W        W18141  28.072  16.614   1.742
54418W        W18142   6.280  34.979   3.334
54419W        W18143   6.221  26.022   1.351
54420W        W18144  33.566   0.824  14.021
54421W        W18145  21.140  34.115  13.389
54422W        W18146  33.581  18.774   4.698
54423W        W18147  16.178  22.208  10.637
54424W        W18148   5.428  14.588  12.359
54425W        W18149  36.515   3.711   4.268
54426W        W18150   6.899   7.798  14.867
54427W        W18151  26.525  19.543   1.839
54428W        W18152  22.997   0.444   3.361
54429W        W18153  26.168   0.927   4.632
54430W        W18154  39.486   5.923  13.816
54431W        W18155  28.447  42.000  10.483
54432W        W18156  27.671  33.090   0.405
54433W        W18157  27.642  39.380  10.404
54434W        W18158  19.638  19.224  11.514
54435W        W18159  34.886  28.583   2.859
54436W        W18160   4.222   2.883   4.227
54437W        W18161  27.614  20.080  14.933
54438W        W18162   6.744  36.098   3.688
54439W        W18163  38.537  33.411   3.257
54440W        W18164  38.401  13.775  10.570
54441W        W18165  12.710   8.198  14.401
54442W        W18166  26.143  14.304   4.837
54443W        W18167  31.489  31.648  11.584
54444W        W18168  22.118  33.451   4.266
54445W        W18169  40.502  11.756  11.531
54446W        W18170  18.214  17.101  14.981
54447W        W18171  38.357  37.877  13.870
54448W        W18172  31.566  37.834  13.987
54449W        W18173  16.594  25.483  11.041
54450W        W18174  28.146  27.550   0.319
54451W        W18175   9.327  13.232   4.129
54452W        W18176   9.670  12.206  10.156
54453W        W18177  39.859  36.514   2.852
54454W        W18178  33.419  13.243   0.277
54455W        W18179  27.158  10.841   3.148
54456W        W18180  17.647  15.654   1.846
54457W        W18181   1.390  17.155   4.715
54458W        W18182  21.654  24.523  12.030
54459W        W18183  22.693  16.236   2.824
54460W        W18184  23.724  42.880  11.389
54461W        W18185   0.447  10.161  12.827
54462W        W18186  40.329  24.118   0.946
54463W        W18187  18.737  36.417   0.958
54464W        W18188  12.186  15.133  12.860
54465W        W18189  24.631  23.706  14.765
54466W        W18190  16.284  16.808   4.823
54467W        W18191  32.502  15.108   1.293
54468W        W18192  40.798  16.275   4.735
54469W        W18193  13.332  11.730  14.315
54470W        W18194  28.538  21.246  14.491
54471W        W18195  38.951  30.946  12.883
54472W        W18196  40.005  42.368   4.127
54473W        W18197  30.043   6.835   1.792
54474W        W18198  44.402   3.800  14.967
54475W        W18199  10.787  38.884  12.546
54476W        W18200  32.588  12.296  14.981
54477W        W18201  24.185  20.090  11.978
54478W        W18202  35.433  29.087  10.480
54479W        W18203  20.220  12.837  13.021
54480W        W18204  40.863  16.717  11.382
54481W        W18205  32.058   3.278  10.622
54482W        W18206   6.907  43.503   2.216
54483W        W18207   3.405  32.074  11.026
54484W        W18208  31.935  30.988   4.600
54485W        W18209  40.329  18.270  11.450
54486W        W18210  10.719  41.489   2.685
54487W        W18211   4.426  17.108   0.474
54488W        W18212  13.349  34.087   4.316
54489W        W18213  24.973  26.130   3.344
54490W        W18214  31.910  36.858  14.342
54491W        W18215   6.345  35.998   5.262
54492W        W18216  21.743  28.567  14.984
54493W        W18217  18.158  23.241  13.796
54494W        W18218   9.848  39.320  12.366
54495W        W18219  39.043  30.620  11.916
54496W        W18220  11.288  25.576   1.276
54497W        W18221   9.350  37.420   3.779
54498W        W18222  44.968  18.548   3.667
54499W        W18223  15.207  19.271   3.282
54500W        W18224  11.332   6.233   4.297
54501W        W18225  35.416  21.040  14.471
54502W        W18226  14.314  34.462   2.763
54503W        W18227  27.544  22.510  12.436
54504W        W18228  10.147  16.624  13.802
54505W        W18229  26.179   0.782  11.481
54506W        W18230  35.955   1.284   1.932
54507W        W18231  28.975  31.048  14.022
54508W        W18232   0.973  17.191   1.436
54509W        W18233   0.876  31.470   3.716
54510W        W18234  35.548  10.704   4.233
54511W        W18235  20.698  30.526  14.453
54512W        W18236  40.400  41.391  14.890
54513W        W18237  39.953   5.437  13.525
54514W        W18238   5.877  33.083  12.031
54515W        W18239   7.381  33.415  13.952
54516W        W18240  30.088  18.579  14.434
54517W        W18241  29.087  10.805   3.263
54518W        W18242  28.517  20.619   4.736
54519W        W18243  21.040  36.437  12.358
54520W        W18244   5.379  42.374   4.752
54521W        W18245  17.744  32.014   4.327
54522W        W18246  41.820  36.503  12.876
54523W        W18247  41.497  39.421   3.206
54524W        W18248   6.326  27.586  11.469
54525W        W18249   7.716  42.429   1.832
54526W        W18250  43.922   4.225  12.091
54527W        W18251  42.819   4.870   0.289
54528W        W18252  18.131  30.486   1.334
54529W        W18253   7.751  20.191   0.726
54530W        W18254   6.861  12.271  14.869
54531W        W18255  37.448  11.651  10.533
54532W        W18256  42.338   0.462  12.442
54533W        W18257  17.784  38.884  14.965
54534W        W18258  22.634  25.647   2.890
54535W        W18259  41.986   3.377  12.400
54536W        W18260  44.289  36.415   2.406
54537W        W18261  29.435   9.231   0.790
54538W        W18262  34.453  37.493   3.262
54539W        W18263  34.882  39.881  10.913
54540W        W18264  17.599  23.492   0.358
54541W        W18265  27.966  35.463   0.469
54542W        W18266   2.837  12.779   2.216
54543W        W18267   9.258  28.571  11.477
54544W        W18268  21.673  18.160   4.210
54545W        W18269  29.106  12.822   3.357
54546W        W18270  10.850  16.803  10.461
54547W        W18271  38.017  38.459   4.832
54548W        W18272  24.081  30.977  14.788
54549W        W18273  37.988  24.480  12.544
54550W        W18274  29.584  14.266  10.037
54551W        W18275  17.571  14.234  11.582
54552W        W18276  32.100  31.988  11.999
54553W        W18277   9.219  16.749   2.889
54554W        W18278  30.989  37.034  10.998
54555W        W18279  33.876   9.813   3.304
54556W        W18280   3.439  14.108   2.725
54557W        W18281  25.488   9.234   2.178
54558W        W18282   8.273  17.134  11.001
54559W        W18283  17.616   5.800  14.471
54560W        W18284  25.019  27.515  11.897
54561W        W18285   4.905  17.587  10.564
54562W        W18286  31.907  21.742  12.078
54563W        W18287  26.157  39.049  13.886
54564W        W18288  31.626   8.385   0.922
54565W        W18289  43.801  30.930   4.221
54566W        W18290   8.824  27.070   1.266
54567W        W18291  34.932  13.756  14.477
54568W        W18292  12.270   4.832   2.309
54569W        W18293  34.369   9.757   0.887
54570W        W18294  42.345   0.842   3.170
54571W        W18295  13.727  38.426  12.875
54572W        W18296  24.013  12.278  13.800
54573W        W18297  34.482  15.180  12.825
54574W        W18298  38.366  32.095   4.711
54575W        W18299   7.825  40.828  10.488
54576W        W18300  30.004  44.860   3.800
54577W        W18301  10.654  27.602   4.817
54578W        W18302  19.223  18.160   3.814
54579W        W18303  24.643  16.258  13.532
54580W        W18304  35.500  39.389   4.209
54581W        W18305  27.070   8.269  14.420
54582W        W18306  28.048  34.564   1.763
54583W        W18307  26.528  35.007  14.498
54584W        W18308  27.024  12.262  11.120
54585W        W18309  39.493  23.537  14.316
54586W        W18310  21.252  29.975   4.643
54587W        W18311   2.450   0.764  10.123
54588W        W18312   8.167  11.372  13.840
54589W        W18313   2.806  11.353  14.452
54590W        W18314  19.204  29.991   3.351
54591W        W18315  34.955  16.598  14.284
54592W        W18316  19.621   0.969   0.956
54593W        W18317   3.737  44.357   4.260
54594W        W18318  42.898   6.231  12.571
54595W        W18319   7.230  42.283   3.684
54596W        W18320  32.924  13.653   0.440
54597W        W18321   4.700  36.452   3.271
54598W        W18322  18.582  21.073   0.353
54599W        W18323   5.292  33.117   4.301
54600W        W18324  11.779   9.764   2.829
54601W        W18325  35.972  43.277  14.456
54602W        W18326  41.941  29.553   4.804
54603W        W18327  23.522   0.778  11.464
54604W        W18328   6.409  21.124   4.821
54605W        W18329   8.887  30.427   3.741
54606W        W18330   6.733  40.004   0.814
54607W        W18331  37.502  30.938  13.548
54608W        W18332  18.073  24.032   4.349
54609W        W18333   6.782   6.412   1.869
54610W        W18334  19.583  21.514   3.172
54611W        W18335   6.314  13.305   0.843
54612W        W18336   2.309  43.004  12.500
54613W        W18337  31.089  18.184  10.907
54614W        W18338  40.881  11.346  13.426
54615W        W18339  10.283  33.597   2.901
54616W        W18340   5.795  17.692   1.853
54617W        W18341  17.736  26.695   2.893
54618W        W18342  21.026  20.679  13.324
54619W        W18343   6.819  29.045   3.340
54620W        W18344  37.960  41.436  11.606
54621W        W18345  36.461   1.846  14.854
54622W        W18346  36.390  30.084  12.973
54623W        W18347  38.053  40.379  10.057
54624W        W18348  17.150   6.297  11.860
54625W        W18349   6.731  13.224  13.488
54626W        W18350  34.388  12.207  13.836
54627W        W18351  29.567  14.730   1.354
54628W        W18352   1.338   6.891  11.020
54629W        W18353  18.708   5.241   4.793
54630W        W18354  24.183  18.113  11.590
54631W        W18355   4.800  18.064  13.465
54632W        W18356  37.357  41.871  13.792
54633W        W18357   1.451  23.613  11.989
54634W        W18358  20.204  10.302  14.760
54635W        W18359  14.782  14.785  10.453
54636W        W18360  19.534  26.667   0.373
54637W        W18361  41.827  14.615  14.962
54638W        W18362   4.364  24.592  13.920
54639W        W18363   6.881   4.790  11.956
54640W        W18364  30.141  14.338   2.822
54641W        W18365  23.075   1.816   2.394
54642W        W18366  41.508  30.437   1.273
54643W        W18367  21.608  36.553   0.860
54644W        W18368  16.088  12.672  11.439
54645W        W18369  29.458   1.875   0.912
54646W        W18370  27.195   1.844   3.242
54647W        W18371  43.403  15.629  12.823
54648W        W18372  24.688   9.660   4.751
54649W        W18373  10.320  11.781   2.316
54650W        W18374  23.595  41.410   1.280
54651W        W18375  39.841  34.904  13.888
54652W        W18376  20.147   4.417  10.923
54653W        W18377  34.548  19.622   2.263
54654W        W18378  24.662  22.709   1.262
54655W        W18379  35.557  41.967   4.778
54656W        W18380  17.598   0.788  12.066
54657W        W18381  13.748   4.821  14.841
54658W        W18382   6.903  40.448   3.698
54659W        W18383  31.048   3.804   3.807
54660W        W18384   7.899   3.362   1.727
54661W        W18385  39.420  13.808   0.478
54662W        W18386   8.736  21.541   4.734
54663W        W18387  30.057  10.788  10.087
54664W        W18388  44.892  25.647  14.374
54665W        W18389  22.558  27.081  13.420
54666W        W18390   6.389  26.571  10.024
54667W        W18391  43.285  43.404  10.159
54668W        W18392  41.427  35.965   1.697
54669W        W18393  12.751  36.891   0.444
54670W        W18394  13.689  23.628  12.097
54671W        W18395  36.957  19.609   0.311
54672W        W18396   5.242  18.752  14.369
54673W        W18397  11.225  17.209   1.380
54674W        W18398  24.682   6.734   3.640
54675W        W18399  31.944  20.707   4.269
54676W        W18400  42.032  44.765   5.165
54677W        W18401  22.518  37.072  11.126
54678W        W18402   0.922  12.143   1.882
54679W        W18403  11.683  29.669   2.228
54680W        W18404  42.329  27.487   0.443
54681W        W18405  32.026  15.116  12.051
54682W        W18406   8.779  29.577  13.999
54683W        W18407  27.598   6.304  10.968
54684W        W18408  30.142   5.741  13.480
54685W        W18409  28.179  20.724   0.323
54686W        W18410  24.114   9.320   2.800
54687W        W18411   8.186  35.476   4.677
54688W        W18412  32.520  40.516   2.820
54689W        W18413   9.203  13.798  11.900
54690W        W18414  39.861  42.357   0.913
54691W        W18415   3.452   3.223  11.088
54692W        W18416  20.572   0.881   0.831
54693W        W18417  38.937  23.133   2.886
54694W        W18418  19.187  11.338  14.456
54695W        W18419  44.998  23.992  14.800
54696W        W18420  29.967  26.018  14.467
54697W        W18421  39.425  42.316   4.324
54698W        W18422  26.031  33.557   1.302
54699W        W18423   6.214  14.786  13.355
54700W        W18424   4.701   3.397   1.440
54701W        W18425  30.011  23.539   0.760
54702W        W18426  14.792   7.685   0.934
54703W        W18427  35.365  12.721  12.050
54704W        W18428  39.959  16.178   0.272
54705W        W18429  39.453   6.812   0.747
54706W        W18430  30.559  28.015  11.462
54707W        W18431  24.202  27.616   2.283
54708W        W18432  23.147  35.525  14.494
54709W        W18433  34.893  44.426  12.442
54710W        W18434  42.362  15.726   3.238
54711W        W18435  20.697  34.056  14.810
54712W        W18436  14.640  12.273   1.811
54713W        W18437  13.121  44.925   0.378
54714W        W18438   4.938  15.746  14.483
54715W        W18439   5.797  24.621  12.979
54716W        W18440   4.712  25.051   0.480
54717W        W18441  12.268  20.275   3.343
54718W        W18442  37.926   3.258  10.987
54719W        W18443  13.757  15.163  12.850
54720W        W18444  13.764   3.910  12.453
54721W        W18445  43.848  16.306   1.908
54722W        W18446  17.262  32.049  11.498
54723W        W18447  31.899  40.831  12.541
54724W        W18448   0.493   3.343  13.791
54725W        W18449  39.992  37.992  14.289
54726W        W18450  28.021   8.249   3.827
54727W        W18451  22.105  44.997   1.743
54728W        W18452  19.220  43.291  13.963
54729W        W18453  18.066  32.932  12.021
54730W        W18454  43.882  35.426  10.980
54731W        W18455   6.360   1.770  14.896
54732W        W18456  40.054  16.715  13.847
54733W        W18457  17.248  44.901  11.425
54734W        W18458  10.795  43.918   1.332
54735W        W18459  43.377  21.595  10.520
54736W        W18460  34.095  16.800  12.922
54737W        W18461   3.429  22.655   0.846
54738W        W18462   5.357  39.470   2.382
54739W        W18463  38.837  44.470  12.007
54740W        W18464   8.382  37.978   0.859
54741W        W18465  18.703   1.761  10.578
54742W        W18466  31.572  26.568  14.286
54743W        W18467  20.711  10.302  14.504
54744W        W18468  44.274  33.396  14.481
54745W        W18469  15.824  13.724   1.246
54746W        W18470  39.417  13.178  11.109
54747W        W18471  28.113  30.005   2.345
54748W        W18472  35.008  31.119   4.160
54749W        W18473   5.223   9.853  10.435
54750W        W18474  38.517  34.393  12.049
54751W        W18475  12.338  21.552  14.760
54752W        W18476  40.304   4.797  11.604
54753W        W18477  39.961  11.694  13.951
54754W        W18478  21.046  11.805  12.967
54755W        W18479  18.681  31.967   4.611
54756W        W18480  42.287  44.003   2.703
54757W        W18481   8.754  39.432  12.075
54758W        W18482  40.449   9.689   1.400
54759W        W18483  35.954  26.623   1.912
54760W        W18484   2.802  20.137  13.795
54761W        W18485  35.373  20.597  12.895
54762W        W18486   8.671  22.121   0.448
54763W        W18487  29.059  11.151   2.241
54764W        W18488  41.481  39.985  12.088
54765W        W18489  17.066   9.676  14.020
54766W        W18490  16.155  25.621  13.793
54767W        W18491  16.644  34.867  13.975
54768W        W18492  29.539  13.324  14.800
54769W        W18493  41.013  28.537  12.411
54770W        W18494  19.041  38.538   5.577
54771W        W18495   3.732  19.149   2.345
54772W        W18496   9.254  43.513   2.207
54773W        W18497  22.643  19.263  10.412
54774W        W18498  26.690  15.803  14.420
54775W        W18499   6.749   5.711  14.366
54776W        W18500   4.929   3.751  14.830
54777W        W18501  40.435  11.694   1.439
54778W        W18502  27.966  28.013  11.595
54779W        W18503  17.624  16.112  12.538
54780W        W18504  11.803  10.304  11.121
54781W        W18505  13.151  27.137  14.001
54782W        W18506  10.299   3.332  10.041
54783W        W18507   1.847  41.014  11.067
54784W        W18508  11.755   4.355  11.087
54785W        W18509  30.960  19.099   1.838
54786W        W18510   8.241  30.574   0.370
54787W        W18511  43.295  21.518  11.572
54788W        W18512  33.900   4.369   2.697
54789W        W18513  41.511  35.909   2.397
54790W        W18514  21.564  43.826   4.610
54791W        W18515  27.692  39.047   2.795
54792W        W18516  38.951  44.393  14.292
54793W        W18517  20.656  21.233   4.232
54794W        W18518  44.959  10.354  14.391
54795W        W18519  39.554  35.535  12.916
54796W        W18520  17.189  28.644   3.744
54797W        W18521  10.712   6.747   0.391
54798W        W18522   7.176  30.052   2.327
54799W        W18523  17.768  11.859   1.232
54800W        W18524   8.674  39.393  11.001
54801W        W18525  20.162  11.311  13.353
54802W        W18526   9.784  15.791  10.569
54803W        W18527   9.249  23.167   2.724
54804W        W18528  33.427  33.951   3.794
54805W        W18529  22.604  25.551  13.983
54806W        W18530   4.330  14.104   4.270
54807W        W18531   4.240  14.700   0.947
54808W        W18532  18.588  27.070  10.495
54809W        W18533  32.498  42.370   3.823
54810W        W18534   7.177  13.777  12.357
54811W        W18535  10.250  14.141  12.840
54812W        W18536   8.165  26.665  11.478
54813W        W18537  11.796   1.314  12.426
54814W        W18538  30.109  31.016  13.308
54815W        W18539  32.537  40.368   1.906
54816W        W18540  30.648  33.958   0.301
54817W        W18541  16.191  20.161  11.087
54818W        W18542  15.183  11.788  13.335
54819W        W18543  12.846  19.044   4.272
54820W        W18544   3.324  15.227   2.721
54821W        W18545  29.602  20.608  14.464
54822W        W18546  10.147   8.798  13.379
54823W        W18547  38.832  36.348  11.881
54824W        W18548  13.826  30.990   0.419
54825W        W18549   6.890  19.773  14.327
54826W        W18550  20.063   1.949   2.252
54827W        W18551  20.229   9.725   0.829
54828W        W18552  32.591  44.490  12.890
54829W        W18553  15.322  13.204   2.712
54830W        W18554   1.785  11.167  14.802
54831W        W18555  20.607   7.255  13.367
54832W        W18556  29.523  29.030   3.674
54833W        W18557  13.346   3.742   1.415
54834W        W18558  32.012  16.698  12.518
54835W        W18559  11.735  14.324   2.802
54836W        W18560  39.910  43.427  11.881
54837W        W18561  18.704  30.019  14.360
54838W        W18562  21.748  23.735  12.430
54839W        W18563  38.354  40.907  13.017
54840W        W18564   7.863  14.174  11.492
54841W        W18565  27.586  14.621   4.808
54842W        W18566  44.004  43.966   4.630
54843W        W18567   6.264  28.498  14.828
54844W        W18568  21.111  10.219  11.431
54845W        W18569  20.584  42.948   1.259
54846W        W18570  44.451  40.928   2.677
54847W        W18571  35.040  39.458  11.125
54848W        W18572  32.530  35.533   1.391
54849W        W18573   9.294  29.995  14.997
54850W        W18574  19.706  33.068   4.304
54851W        W18575  16.190  29.638  10.960
54852W        W18576  10.705  11.302   1.733
54853W        W18577   3.951  10.358  14.341
54854W        W18578  20.046  30.508  10.591
54855W        W18579  29.918  16.306  10.938
54856W        W18580   0.271   5.709  14.370
54857W        W18581   2.863  12.735   1.291
54858W        W18582  25.535   6.913  13.982
54859W        W18583  30.453  28.108   4.678
54860W        W18584  13.316  11.629  13.055
54861W        W18585  12.153   2.332   0.478
54862W        W18586  18.591  22.221   4.206
54863W        W18587  38.055  22.232   4.207
54864W        W18588  16.242  42.879  12.848
54865W        W18589  27.673  27.052  10.559
54866W        W18590  25.154  11.247  11.892
54867W        W18591   5.774   6.420  12.968
54868W        W18592  44.417  39.952   3.289
54869W        W18593   5.220  37.087   4.624
54870W        W18594  35.562  33.102   4.192
54871W        W18595  42.862   7.302   3.798
54872W        W18596  41.819  16.181  11.890
54873W        W18597  27.579  12.189  12.965
54874W        W18598  33.033  34.941   2.803
54875W        W18599  29.481  40.482   4.657
54876W        W18600  18.654  27.195  14.385
54877W        W18601  16.108  31.081   1.264
54878W        W18602  11.863  17.268   5.309
54879W        W18603  12.317  28.642   4.696
54880W        W18604   0.750   3.933   1.312
54881W        W18605  35.447  24.022   1.736
54882W        W18606   2.803  22.034   3.364
54883W        W18607   9.277  36.547   2.803
54884W        W18608   1.370  27.988  12.938
54885W        W18609  30.508  43.803   0.795
54886W        W18610  14.112  30.101   1.711
54887W        W18611  17.302   2.378  14.914
54888W        W18612   3.765  16.684   3.863
54889W        W18613  40.367  29.452  14.760
54890W        W18614  14.784  43.515   2.390
54891W        W18615   5.199  34.061   4.116
54892W        W18616   1.771  11.660   4.702
54893W        W18617  16.580  14.214   2.274
54894W        W18618  12.706   7.817   2.878
54895W        W18619   0.864  37.413   3.773
54896W        W18620  43.958  27.597  11.455
54897W        W18621   4.392  19.727   0.422
54898W        W18622  38.521  17.723  14.515
54899W        W18623  26.021  24.053  14.948
54900W        W18624   4.269  11.760   2.358
54901W        W18625  33.910   3.730  10.543
54902W        W18626  16.688  20.186   4.796
54903W        W18627  23.553  40.496   3.840
54904W        W18628  31.089   3.302  12.437
54905W        W18629   6.293  30.553   0.917
54906W        W18630  36.559  12.232   3.695
54907W        W18631  41.828  35.379  11.908
54908W        W18632  10.288  37.523  14.939
54909W        W18633  42.862  16.775  13.449
54910W        W18634  40.974  19.223   1.815
54911W        W18635  16.800  44.871   3.279
54912W        W18636  34.890  22.169   2.289
54913W        W18637  27.076  35.473   4.821
54914W        W18638  35.012   0.955  10.029
54915W        W18639  14.101  12.689   3.853
54916W        W18640  42.863  40.342   2.342
54917W        W18641  17.267  19.613  14.418
54918W        W18642  26.147  36.411   1.737
54919W        W18643   6.331  26.117   2.850
54920W        W18644   7.402  34.614   2.326
54921W        W18645  21.654   0.340   3.164
54922W        W18646   7.285  19.768  12.013
54923W        W18647  30.941  33.507   1.411
54924W        W18648  18.156   4.298   4.145
54925W        W18649  39.374  43.317  13.465
54926W        W18650  40.908   9.852  11.507
54927W        W18651  35.962  31.420  11.010
54928W        W18652  42.901  17.583  10.419
54929W        W18653  14.823  39.869   3.177
54930W        W18654  14.597  13.131  13.975
54931W        W18655  33.920  36.866  11.959
54932W        W18656  12.834   8.181   2.411
54933W        W18657  26.139  12.297  12.050
54934W        W18658  20.624   8.326  10.491
54935W        W18659  38.918  30.127   2.261
54936W        W18660  28.594  32.560   0.958
54937W        W18661   6.886  38.882  10.917
54938W        W18662  38.960  17.079   0.907
54939W        W18663  39.559   6.270   3.379
54940W        W18664   0.363  35.598   2.276
54941W        W18665  38.480   2.729   0.767
54942W        W18666   2.379  37.442   2.767
54943W        W18667  39.932  41.914   3.713
54944W        W18668  28.533  27.640   4.630
54945W        W18669  27.109  15.805   3.819
54946W        W18670  40.997  27.087  13.955
54947W        W18671  33.529   1.376  14.958
54948W        W18672  39.988  22.135  14.276
54949W        W18673  16.297  14.642  10.917
54950W        W18674  12.344  14.232   2.187
54951W        W18675  33.944  21.584   1.915
54952W        W18676  17.557  41.348  10.458
54953W        W18677   3.407  24.009   1.376
54954W        W18678   1.878  38.921  10.615
54955W        W18679  20.729   9.290  13.054
54956W        W18680  17.178  16.598  11.012
54957W        W18681  17.161  38.040  12.547
54958W        W18682  30.439  21.215   0.954
54959W        W18683  40.518  29.612  12.540
54960W        W18684  26.131   0.479   2.241
54961W        W18685  44.396  35.384  11.556
54962W        W18686  30.059  10.666  12.451
54963W        W18687  19.157  29.066   0.395
54964W        W18688  20.209  37.914  12.011
54965W        W18689  35.503   9.272   2.729
54966W        W18690  14.832  16.766  12.878
54967W        W18691  21.033  35.428  13.373
54968W        W18692  43.461  44.982   0.796
54969W        W18693   3.361  13.752  12.024
54970W        W18694  29.438  43.012   5.323
54971W        W18695  11.765  21.654  10.512
54972W        W18696  12.286  31.927   0.267
54973W        W18697  22.996  18.676   0.466
54974W        W18698  11.725   3.335   1.373
54975W        W18699  21.107  12.747   0.251
54976W        W18700  27.194  21.031   3.311
54977W        W18701   8.361   9.805  10.608
54978W        W18702   7.317  33.535   2.267
54979W        W18703   9.218  26.645  14.403
54980W        W18704  42.436   9.202  11.605
54981W        W18705  22.644  40.985   1.711
54982W        W18706  33.443  27.573  12.497
54983W        W18707  12.272  34.903   3.809
54984W        W18708  29.931  22.172  11.514
54985W        W18709  12.814  35.950   0.392
54986W        W18710  20.768   6.723   2.198
54987W        W18711  30.589  14.608  11.034
54988W        W18712   5.409  38.870  12.007
54989W        W18713  27.639  16.081   0.912
54990W        W18714  27.087   5.889   1.719
54991W        W18715  14.727  16.082  12.897
54992W        W18716  33.500  17.720  14.983
54993W        W18717  33.572  10.726   2.707
54994W        W18718  24.007  37.935   4.347
54995W        W18719   2.279  35.991  14.963
54996W        W18720  28.028  23.195   4.653
54997W        W18721   2.312  34.865  11.552
54998W        W18722  15.157  35.527  12.950
54999W        W18723  33.485   7.840  11.536
55000W        W18724  29.080  19.597   3.677
55001W        W18725   8.791   7.670  13.046
55002W        W18726  20.054   9.756  13.429
55003W        W18727  11.621  27.551  11.944
55004W        W18728  42.288  31.572  13.528
55005W        W18729   0.980  10.656  11.922
55006W        W18730  10.685   2.826  14.007
55007W        W18731  33.504  29.461   1.258
55008W        W18732  44.295  22.739   3.373
55009W        W18733   5.288  36.060   2.393
55010W        W18734  18.258   0.398  13.045
55011W        W18735  18.627  37.989  14.396
55012W        W18736  14.309  40.021  11.510
55013W        W18737  43.358  33.992  12.947
55014W        W18738  34.501   0.745  10.964
55015W        W18739  34.590  43.911   4.786
55016W        W18740  22.055  41.393   1.882
55017W        W18741  20.122   4.796  13.346
55018W        W18742  40.949  31.936   0.356
55019W        W18743  25.708  29.615  13.523
55020W        W18744  42.010   0.422  10.071
55021W        W18745   4.815   9.860   3.738
55022W        W18746  18.684  28.932  13.360
55023W        W18747  44.363  30.423  14.493
55024W        W18748   0.443  20.237  14.393
55025W        W18749  43.291  24.197   3.151
55026W        W18750  42.334  19.064   3.778
55027W        W18751  10.372  27.026  10.632
55028W        W18752  37.536   7.401   2.340
55029W        W18753  39.028  20.233  14.472
55030W        W18754   6.912  40.864  12.379
55031W        W18755  17.685  27.959   0.734
55032W        W18756  38.063  22.557  12.436
55033W        W18757   0.854  17.300  10.065
55034W        W18758  40.029  16.653   3.795
55035W        W18759   3.713  35.039   0.380
55036W        W18760  19.223  17.108  14.935
55037W        W18761  39.414  27.676   2.866
55038W        W18762  19.703   4.852   4.351
55039W        W18763  21.601  35.421  13.857
55040W        W18764  44.777  21.671   2.838
55041W        W18765   6.272   1.253   1.715
55042W        W18766  38.045  21.118   4.241
55043W        W18767  15.619   6.873  12.828
55044W        W18768  15.692  21.085   4.786
55045W        W18769  25.693  10.684   3.236
55046W        W18770  13.108  17.106   1.907
55047W        W18771  16.757  25.152  14.414
55048W        W18772  38.366  16.077   2.283
55049W        W18773  34.544  25.504  11.533
55050W        W18774   9.202   3.429  11.381
55051W        W18775  22.159  33.938   3.729
55052W        W18776  39.522  16.078   2.742
55053W        W18777  15.762   0.819   4.787
55054W        W18778  32.414   4.751  13.996
55055W        W18779  15.718   4.352   0.733
55056W        W18780   3.220  34.379  10.075
55057W        W18781  24.622  18.620   2.865
55058W        W18782  15.769  14.176  14.357
55059W        W18783  13.269  34.492   4.627
55060W        W18784  14.742   8.664  12.031
55061W        W18785  22.030  38.554  14.493
55062W        W18786  38.535   6.716   3.861
55063W        W18787   8.694   4.444  14.859
55064W        W18788  10.769  41.939  13.483
55065W        W18789  31.086  41.790   2.851
55066W        W18790  37.428  33.621  14.820
55067W        W18791  31.402   5.245   4.723
55068W        W18792   9.668  26.167   4.210
55069W        W18793   9.277   9.290  11.947
55070W        W18794  27.966  12.713   1.700
55071W        W18795  34.532  36.863  13.375
55072W        W18796  22.069  37.890  11.015
55073W        W18797  16.582  15.580  10.909
55074W        W18798  24.088  19.667   3.221
55075W        W18799  19.203  22.581  12.479
55076W        W18800  15.775  41.895   4.663
55077W        W18801  13.612  15.607   1.330
55078W        W18802   8.666  41.511   3.237
55079W        W18803  28.637  16.734  11.416
55080W        W18804  32.425  25.674   1.279
55081W        W18805  38.886   8.269   2.760
55082W        W18806  42.385  18.776   2.245
55083W        W18807  15.102  39.846  12.044
55084W        W18808  20.132   8.735   3.809
55085W        W18809   8.678  33.384   4.306
55086W        W18810  32.926  28.621  14.892
55087W        W18811   9.202  10.740  11.869
55088W        W18812  29.136  36.357  13.031
55089W        W18813  35.449  28.987  11.528
55090W        W18814  17.111   7.736  10.633
55091W        W18815  23.227  44.985   2.867
55092W        W18816  36.515   3.412   0.960
55093W        W18817  19.058  30.468  14.981
55094W        W18818  22.013  23.172  14.826
55095W        W18819  41.459  23.675   0.963
55096W        W18820  10.381  37.398  10.002
55097W        W18821  13.291  21.154  14.471
55098W        W18822   0.982  44.832   0.819
55099W        W18823  23.679  23.993   2.190
55100W        W18824  15.089  13.224  14.414
55101W        W18825   0.299  30.158  11.442
55102W        W18826  32.969  10.384   3.160
55103W        W18827  18.086  10.249   3.383
55104W        W18828  35.888  30.634  13.504
55105W        W18829  22.676   8.279   3.753
55106W        W18830  39.468  34.942  12.833
55107W        W18831  35.062  38.013  11.102
55108W        W18832  27.048  18.120   0.463
55109W        W18833  29.522  11.758  14.481
55110W        W18834  40.412  40.001  14.501
55111W        W18835  38.933   1.284  10.580
55112W        W18836  15.598  17.653  10.621
55113W        W18837  36.482   4.889   4.144
55114W        W18838  20.234  11.828   2.712
55115W        W18839  32.079  42.891  11.396
55116W        W18840   4.214  43.863   0.816
55117W        W18841  35.089   5.394   4.175
55118W        W18842   7.323  41.398   4.604
55119W        W18843  42.926  23.620  10.948
55120W        W18844  14.125   9.200   0.849
55121W        W18845  24.159  28.646   1.409
55122W        W18846  30.980  37.867  13.324
55123W        W18847  13.142  37.475  13.398
55124W        W18848   0.848  21.102   4.169
55125W        W18849  29.454  38.820   5.129
55126W        W18850   7.722  41.432  11.010
55127W        W18851  11.258  12.802   0.895
55128W        W18852  33.592  44.315  14.475
55129W        W18853   7.890   7.859  13.890
55130W        W18854   0.822  36.590  11.391
55131W        W18855   3.431  18.721  14.295
55132W        W18856  36.519  17.150   2.408
55133W        W18857  37.538  28.573  12.988
55134W        W18858   2.841  31.572   1.225
55135W        W18859  40.964  35.560  13.026
55136W        W18860  15.622  16.214   3.757
55137W        W18861  15.728   0.814   2.409
55138W        W18862  14.286  35.542  10.539
55139W        W18863  31.922  36.423   0.947
55140W        W18864  29.043  34.611   3.263
55141W        W18865  41.477  13.191  12.886
55142W        W18866   9.756  21.256   2.232
55143W        W18867  10.175  34.083  14.767
55144W        W18868  33.608  14.780   0.364
55145W        W18869  16.717   4.883  14.495
55146W        W18870   0.799  24.589  12.055
55147W        W18871  34.070  22.219   1.763
55148W        W18872  19.672  15.201   2.847
55149W        W18873  34.399  20.272   4.296
55150W        W18874  19.654  19.548  12.558
55151W        W18875  11.319  22.139   1.885
55152W        W18876  22.012  13.335  11.885
55153W        W18877   4.795  24.567  11.979
55154W        W18878  24.699   4.945  14.869
55155W        W18879   0.951  35.033   1.323
55156W        W18880  43.493  33.486  12.910
55157W        W18881   8.877  21.184   3.687
55158W        W18882  12.310  19.692   2.300
55159W        W18883   6.736   2.881   4.827
55160W        W18884  15.088   8.784   0.266
55161W        W18885  22.189   7.249  12.350
55162W        W18886  26.702  33.468   4.750
55163W        W18887  42.791  37.360  11.596
55164W        W18888  40.533  13.736  13.817
55165W        W18889  33.056  34.396  12.496
55166W        W18890  35.541   8.775  12.900
55167W        W18891  24.224  21.138   0.438
55168W        W18892  20.057  17.602   4.167
55169W        W18893  17.235  38.065   3.329
55170W        W18894  26.527   4.275  12.364
55171W        W18895  28.150  35.479  12.478
55172W        W18896  15.610  21.199  10.459
55173W        W18897   6.713  15.311   0.778
55174W        W18898  40.315  18.576  12.050
55175W        W18899  36.411  30.430  14.371
55176W        W18900   0.983   9.726   3.352
55177W        W18901  12.205   4.275  11.404
55178W        W18902   3.747  21.167  12.031
55179W        W18903   5.411  24.174   3.291
55180W        W18904  37.535   9.166   1.229
55181W        W18905  10.308   6.361  13.460
55182W        W18906  34.547   2.827   2.258
55183W        W18907  15.581  23.006   2.739
55184W        W18908  29.594  37.572  14.850
55185W        W18909  23.717  26.621   5.193
55186W        W18910  25.023   1.480  11.894
55187W        W18911   8.860  20.213  13.974
55188W        W18912   4.941  21.194   4.271
55189W        W18913  13.628  16.727   3.663
55190W        W18914  11.729  30.635   4.267
55191W        W18915  31.591  22.603   4.772
55192W        W18916  27.142  35.964   3.254
55193W        W18917  42.395  31.044   3.169
55194W        W18918  18.726  18.606   4.677
55195W        W18919  40.441  15.261  14.826
55196W        W18920  24.700  34.027   1.830
55197W        W18921   2.907  11.628   4.733
55198W        W18922  27.546  20.743   0.348
55199W        W18923  31.017  22.078  10.608
55200W        W18924   5.327   8.777   2.197
55201W        W18925  30.112  23.155  12.848
55202W        W18926  12.650  30.447   4.213
55203W        W18927  17.779  16.580  12.410
55204W        W18928  23.202   0.984  12.073
55205W        W18929  43.415   9.184  12.014
55206W        W18930  20.115  18.718  11.098
55207W        W18931  14.674  35.090  11.010
55208W        W18932   5.892   3.868   2.692
55209W        W18933  33.886  11.158   0.329
55210W        W18934   1.801  24.110   5.216
55211W        W18935   3.367  12.261  12.055
55212W        W18936  33.112  38.472  14.023
55213W        W18937  30.110   9.762   3.242
55214W        W18938   3.734  31.081   2.317
55215W        W18939  11.813   0.971   5.158
55216W        W18940  18.638  11.813  12.916
55217W        W18941  22.618  17.298  13.321
55218W        W18942  43.909   0.823  14.342
55219W        W18943  16.802  43.446   4.301
55220W        W18944   4.326  13.147   0.918
55221W        W18945   3.760  38.994  13.051
55222W        W18946  23.509   5.390  13.957
55223W        W18947  28.047  31.562  11.065
55224W        W18948  27.987  43.901  13.355
55225W        W18949  26.491  25.978  11.124
55226W        W18950  16.253  10.724   3.287
55227W        W18951  20.046   0.829  12.845
55228W        W18952   0.918  44.785   3.684
55229W        W18953  13.723   7.700  11.868
55230W        W18954   9.267   6.723  14.492
55231W        W18955  41.975  41.988   2.739
55232W        W18956  39.327  22.090   4.145
55233W        W18957  20.030  38.417   2.312
55234W        W18958  22.687   4.354  12.343
55235W        W18959  25.219  32.114   3.376
55236W        W18960   2.940   7.775   0.483
55237W        W18961  42.859  22.245   1.238
55238W        W18962   7.251  29.937  12.050
55239W        W18963  31.096  22.207  14.018
55240W        W18964  14.626  21.534  10.540
55241W        W18965  25.661  31.435  11.875
55242W        W18966   0.406  30.017  10.435
55243W        W18967  31.955   1.977  14.004
55244W        W18968  16.088  33.455   4.169
55245W        W18969   6.839  18.193   1.787
55246W        W18970  19.063   0.876  14.782
55247W        W18971  14.244  17.172   3.642
55248W        W18972  31.038  30.604   3.762
55249W        W18973  20.532  25.143   1.867
55250W        W18974   8.675  44.343   2.295
55251W        W18975  19.283   1.920  11.601
55252W        W18976  27.551  40.501  11.072
55253W        W18977  40.507  17.275   3.673
55254W        W18978  34.053  33.954   0.330
55255W        W18979  34.955  23.578   4.291
55256W        W18980  21.256  40.401  13.378
55257W        W18981  36.468  37.518   1.795
55258W        W18982  33.596  30.497   4.261
55259W        W18983  12.734  41.322   2.410
55260W        W18984   3.940  31.032   0.262
55261W        W18985  13.812   7.849   0.933
55262W        W18986  21.192  17.275   1.859
55263W        W18987   8.166  26.078  10.598
55264W        W18988  42.813  17.158   2.878
55265W        W18989  12.842  31.963   0.729
55266W        W18990  43.794  17.158  14.030
55267W        W18991  30.918  25.104   3.254
55268W        W18992  34.103  10.195   0.299
55269W        W18993  22.099  44.295   1.868
55270W        W18994  30.527  39.388  13.533
55271W        W18995  18.787  25.660   0.833
55272W        W18996  19.668   0.487  11.023
55273W        W18997  25.654  34.919  13.516
55274W        W18998  37.975  11.314  11.926
55275W        W18999   7.365   7.900  12.340
55276W        W19000  37.845  26.960   1.898
55277W        W19001  33.491   2.427   0.819
55278W        W19002   1.323  18.621  11.516
55279W        W19003  13.680   1.429   4.135
55280W        W19004  33.516  26.198  10.500
55281W        W19005   1.935  44.863  13.910
55282W        W19006  14.171  27.101   0.898
55283W        W19007  11.786  43.377  12.523
55284W        W19008   3.275  13.686  13.512
55285W        W19009   8.901  24.105   1.277
55286W        W19010  16.221  14.295   3.706
55287W        W19011  21.657  31.557   4.225
55288W        W19012  24.595  27.943   5.710
55289W        W19013  35.892   7.721   3.854
55290W        W19014  30.539  26.003  13.837
55291W        W19015  13.185  21.120   0.362
55292W        W19016  38.456   0.876  11.509
55293W        W19017   9.153  41.330   0.741
55294W        W19018  39.955   7.343   3.838
55295W        W19019  33.430   9.871  12.851
55296W        W19020  33.104  23.225   4.130
55297W        W19021   7.395  36.349   0.359
55298W        W19022  33.429  10.697   4.802
55299W        W19023  30.629  22.238   3.659
55300W        W19024  38.014  38.060  13.471
55301W        W19025   8.249  43.883   3.756
55302W        W19026  35.502  23.571   1.712
55303W        W19027  39.483   8.380  12.987
55304W        W19028   6.302   5.902   3.210
55305W        W19029  14.810  10.265   2.390
55306W        W19030  42.525  34.074   2.849
55307W        W19031  22.083   3.353  12.463
55308W        W19032   7.679  40.932   0.272
55309W        W19033  20.092   6.859   2.868
55310W        W19034  12.734   1.386   0.295
55311W        W19035   7.716  37.941  13.810
55312W        W19036   5.251   2.231  11.011
55313W        W19037  28.065  32.079   1.227
55314W        W19038   1.287   7.289  11.549
55315W        W19039  14.194  14.234  11.123
55316W        W19040  11.359  44.268   4.251
55317W        W19041  40.926   7.309   4.259
55318W        W19042   6.759  14.757   5.271
55319W        W19043  29.626  31.002   0.339
55320W        W19044  15.591  22.080   1.806
55321W        W19045   7.182  19.283  14.297
55322W        W19046   1.899  16.783  12.050
55323W        W19047  40.907  37.405   4.298
55324W        W19048  17.590   4.294  11.054
55325W        W19049   0.830  42.871   1.365
55326W        W19050  13.636  12.358  12.570
55327W        W19051  11.256  25.598   2.260
55328W        W19052  33.486  20.230  12.046
55329W        W19053  39.344  22.570  10.154
55330W        W19054  39.437  21.568  14.806
55331W        W19055  42.808  29.021   0.741
55332W        W19056  19.153   9.643  13.329
55333W        W19057  32.589  24.712   1.741
55334W        W19058  19.729  16.704  12.490
55335W        W19059  31.494  26.639  11.972
55336W        W19060   3.937  11.134   0.906
55337W        W19061  28.491  17.144  11.089
55338W        W19062  25.980   1.372  11.556
55339W        W19063   8.738  42.337  12.353
55340W        W19064  26.178  10.261  13.001
55341W        W19065  38.544  28.138   4.327
55342W        W19066  22.718  11.649   5.126
55343W        W19067   8.365  21.755  14.919
55344W        W19068  13.834   4.794   1.265
55345W        W19069  34.473  13.186   1.907
55346W        W19070   4.818  18.677   4.213
55347W        W19071  12.626  31.117  11.065
55348W        W19072  20.732   4.206   1.914
55349W        W19073  39.842  37.480  14.502
55350W        W19074  35.916  39.491   1.226
55351W        W19075  31.919  35.441   4.760
55352W        W19076  29.148  11.277   0.948
55353W        W19077  16.097  30.092   4.172
55354W        W19078  24.992  25.119   1.755
55355W        W19079  14.198  32.596   3.292
55356W        W19080  26.158  27.141   1.705
55357W        W19081  38.325  28.003  12.890
55358W        W19082  25.160  27.664   2.765
55359W        W19083  39.917  14.117   2.356
55360W        W19084  15.294   9.739  11.458
55361W        W19085   9.803   5.776   0.476
55362W        W19086   1.915  29.070   2.338
55363W        W19087  14.339  42.498   1.798
55364W        W19088  40.857   6.406   2.188
55365W        W19089  34.058  25.215  14.804
55366W        W19090   1.841  12.267   3.752
55367W        W19091  44.855  38.547   3.349
55368W        W19092   9.245  27.559   1.438
55369W        W19093  40.050  37.868  12.417
55370W        W19094  20.244  37.345   5.208
55371W        W19095  26.616  35.865   1.890
55372W        W19096  43.457  12.656   0.459
55373W        W19097  30.475  21.069  12.031
55374W        W19098  40.935  27.649   4.737
55375W        W19099  42.301  21.065  14.779
55376W        W19100  35.896  32.559  12.865
55377W        W19101  26.600  21.186   2.216
55378W        W19102  22.034  25.667   1.924
55379W        W19103  10.165  28.461   1.781
55380W        W19104  16.079  42.385  14.802
55381W        W19105   4.425  25.176  10.557
55382W        W19106  39.414  35.581   2.792
55383W        W19107  12.800  12.184  10.497
55384W        W19108  17.261  43.369   0.244
55385W        W19109  30.490  41.917   4.294
55386W        W19110  42.007  20.701  13.813
55387W        W19111   1.892   2.780  14.424
55388W        W19112  29.987  33.124   2.738
55389W        W19113   1.877   3.819   1.430
55390W        W19114  30.025  30.507   0.428
55391W        W19115  13.763  32.113  14.881
55392W        W19116  34.415  30.433  13.918
55393W        W19117  31.009  19.275  12.008
55394W        W19118  24.002   1.256  13.960
55395W        W19119  43.387  12.696  14.850
55396W        W19120  20.210  36.976   0.281
55397W        W19121  15.631  19.773   4.709
55398W        W19122  24.187  19.558   4.770
55399W        W19123  39.916  29.627  13.331
55400W        W19124  20.712   1.321   2.759
55401W        W19125   2.927   9.861  13.446
55402W        W19126  42.883  22.558  10.569
55403W        W19127  16.620  16.720  11.026
55404W        W19128  41.336  16.296  14.842
55405W        W19129   8.358  34.484   1.855
55406W        W19130  31.908  43.895  11.865
55407W        W19131  38.391  22.703   4.329
55408W        W19132   9.817  32.107  13.478
55409W        W19133  20.250  32.960  14.505
55410W        W19134  19.058  24.130  12.091
55411W        W19135  20.528  29.078   4.336
55412W        W19136  42.882  12.246  10.449
55413W        W19137   9.727  18.214  11.568
55414W        W19138  22.586  42.389   3.233
55415W        W19139  19.153  12.618   0.331
55416W        W19140  42.959  27.092   1.274
55417W        W19141  33.072  24.597   3.732
55418W        W19142  16.295   0.787   3.856
55419W        W19143  43.394  43.994  14.969
55420W        W19144   8.301  44.455  14.846
55421W        W19145  38.938  25.115  10.536
55422W        W19146  22.137  31.438   5.255
55423W        W19147  17.158   2.258   2.862
55424W        W19148  24.711  28.960  13.537
55425W        W19149   3.372  24.635  10.616
55426W        W19150  39.552  25.981  11.880
55427W        W19151  27.981   2.325   2.848
55428W        W19152  41.297   8.718  14.507
55429W        W19153  27.131  41.446   0.916
55430W        W19154  38.034  37.978  13.839
55431W        W19155   0.339  43.441  12.556
55432W        W19156  42.446  33.531  14.811
55433W        W19157  11.249  35.463   1.706
55434W        W19158  22.166  16.630  10.538
55435W        W19159  26.127  42.890   0.875
55436W        W19160  33.978  31.118   1.738
55437W        W19161  12.773  22.578  13.876
55438W        W19162  40.808  24.978   5.094
55439W        W19163   2.415  20.543   1.299
55440W        W19164  15.584  41.911  12.347
55441W        W19165  22.030  40.872   4.761
55442W        W19166   5.691  23.076   0.920
55443W        W19167  14.796  21.153   0.920
55444W        W19168  13.222  20.715  13.878
55445W        W19169   6.811   4.218  10.960
55446W        W19170  34.927  23.074   2.363
55447W        W19171   1.848   7.776  11.043
55448W        W19172  26.999  12.218  10.079
55449W        W19173  21.756  10.288  12.900
55450W        W19174  38.414  25.207   2.740
55451W        W19175  25.200  39.469   1.443
55452W        W19176  12.207  37.931  12.352
55453W        W19177  37.355   2.897   3.239
55454W        W19178  31.107  16.261  14.387
55455W        W19179  15.199   7.786  14.803
55456W        W19180  13.270  41.015  12.963
55457W        W19181  20.560  42.968  11.106
55458W        W19182  12.321  36.860  13.337
55459W        W19183  15.108   3.436  10.990
55460W        W19184  30.614  39.839   3.155
55461W        W19185   7.293   8.387   3.636
55462W        W19186  11.281  10.295   3.266
55463W        W19187  18.779  16.805  13.990
55464W        W19188   1.404  11.750   0.364
55465W        W19189  19.186  39.377  11.441
55466W        W19190  13.257  44.352   0.759
55467W        W19191  37.444  27.684  14.392
55468W        W19192  30.454  41.950   2.355
55469W        W19193   8.256  40.474  13.819
55470W        W19194  16.148  18.784  14.509
55471W        W19195  15.091  21.744  11.870
55472W        W19196  44.402  36.004  13.973
55473W        W19197  17.752  23.674   3.211
55474W        W19198  41.986  36.439   3.346
55475W        W19199  31.998  32.594  10.966
55476W        W19200  18.238   2.781   0.311
55477W        W19201  31.453  44.439  13.894
55478W        W19202  35.025  24.693   4.698
55479W        W19203  26.979  30.466  11.868
55480W        W19204  18.727  19.624   5.148
55481W        W19205  40.858   8.328  13.940
55482W        W19206  41.939   7.278   4.317
55483W        W19207  13.682  37.493  11.092
55484W        W19208  12.623  10.175   4.215
55485W        W19209  26.182  21.087  10.534
55486W        W19210  21.529  33.594   4.180
55487W        W19211   7.252  22.613  13.310
55488W        W19212  21.032  30.656   4.811
55489W        W19213  42.794   4.739  14.434
55490W        W19214  17.105  32.068  13.945
55491W        W19215  26.116  24.491  13.898
55492W        W19216   2.469   9.889   3.694
55493W        W19217  20.526  20.586  13.802
55494W        W19218  37.544   0.828  12.884
55495W        W19219  32.980  28.066   1.852
55496W        W19220  39.443   2.907  14.376
55497W        W19221   0.846   7.350  10.540
55498W        W19222  31.979  30.064  11.433
55499W        W19223   7.809  26.629  12.889
55500W        W19224  36.423  39.936  13.064
55501W        W19225  17.190  20.541   0.450
55502W        W19226  14.305   0.908   0.769
55503W        W19227   1.481  41.474  12.020
55504W        W19228  21.722  25.480   1.398
55505W        W19229  19.647  35.853   2.768
55506W        W19230  11.334  38.919  12.389
55507W        W19231  11.214  21.749  13.859
55508W        W19232  43.017   6.841   3.696
55509W        W19233   6.318  35.444   2.369
55510W        W19234  24.609  24.034   2.679
55511W        W19235   6.234   3.752  14.874
55512W        W19236  12.281  25.985  10.468
55513W        W19237  30.581  35.003  12.543
55514W        W19238  23.174  25.139  12.825
55515W        W19239  37.582  10.182  12.516
55516W        W19240   0.266  36.433  13.478
55517W        W19241  19.231  42.285   3.289
55518W        W19242   1.755  36.583  12.014
55519W        W19243  28.633   5.324  14.380
55520W        W19244  40.468  40.915  13.856
55521W        W19245  34.524  40.844   1.913
55522W        W19246  33.926   5.326   4.743
55523W        W19247  25.535   2.395  11.017
55524W        W19248  26.995  34.886   1.765
55525W        W19249  26.541  16.569  14.479
55526W        W19250   7.414  16.110   3.841
55527W        W19251  21.622   1.784   4.314
55528W        W19252  37.341  28.967  12.359
55529W        W19253  18.571  39.815   1.898
55530W        W19254  44.926  31.037   1.238
55531W        W19255  25.554  34.927  12.937
55532W        W19256  23.171  10.679   1.785
55533W        W19257   1.971  24.078   0.380
55534W        W19258  10.174  44.440   4.293
55535W        W19259   1.884   6.679   3.231
55536W        W19260  14.720  23.667  11.079
55537W        W19261   4.821   9.259   2.752
55538W        W19262   8.273   0.755  11.416
55539W        W19263   0.387  43.936  13.543
55540W        W19264  18.672   7.811  12.558
55541W        W19265  26.151  18.698   2.359
55542W        W19266  22.694  38.452   2.798
55543W        W19267  27.665  19.266   4.623
55544W        W19268  34.517  32.926   3.693
55545W        W19269  41.455  40.906  10.947
55546W        W19270  22.048   7.319   4.197
55547W        W19271  12.344  11.670   2.384
55548W        W19272   1.772   3.386   0.293
55549W        W19273  23.705  21.623  12.492
55550W        W19274   9.323  26.623  14.996
55551W        W19275  22.536   2.248   0.439
55552W        W19276  13.789  35.078   3.631
55553W        W19277  20.233  20.061   3.276
55554W        W19278  24.606  29.017   1.697
55555W        W19279  25.664   7.361   0.303
55556W        W19280  30.060  15.790  11.983
55557W        W19281  41.509  19.710  11.869
55558W        W19282  32.956  35.873   0.820
55559W        W19283  26.637  22.696   2.302
55560W        W19284  36.966  29.487  11.488
55561W        W19285   4.873  39.523  11.523
55562W        W19286  34.922  35.098  12.824
55563W        W19287  37.375  36.018   4.148
55564W        W19288   8.840  38.342   3.817
55565W        W19289  20.728   4.927  10.973
55566W        W19290  43.005  20.029   1.372
55567W        W19291   0.272   3.302  10.919
55568W        W19292  43.786  33.499   4.193
55569W        W19293  13.765  14.778  10.909
55570W        W19294  24.560   8.246   4.159
55571W        W19295  42.812  15.736  12.499
55572W        W19296  26.066  32.040   2.680
55573W        W19297  20.755  33.951   4.318
55574W        W19298  20.626  14.197  13.473
55575W        W19299  31.013  27.968  13.850
55576W        W19300  41.008  40.513  14.879
55577W        W19301  30.434  34.096   0.899
55578W        W19302  40.530   2.268  12.551
55579W        W19303  12.693  37.086  11.456
55580W        W19304  34.451  37.000  12.525
55581W        W19305  32.423  12.181  12.091
55582W        W19306  39.392  43.988   9.921
55583W        W19307  17.576  36.406  12.070
55584W        W19308  21.621  34.601   4.291
55585W        W19309  17.723  15.653  11.986
55586W        W19310  35.431  12.818  12.832
55587W        W19311   6.818   8.193   3.799
55588W        W19312   5.898  23.014  14.398
55589W        W19313  16.598  31.621  12.869
55590W        W19314  24.538  24.151   4.279
55591W        W19315  33.088  41.933  12.352
55592W        W19316  44.299  42.334   2.322
55593W        W19317  21.700  44.793  14.005
55594W        W19318  15.130  32.602  10.605
55595W        W19319  11.865  34.457  13.837
55596W        W19320  43.420  12.277   3.356
55597W        W19321  36.087  41.337  13.951
55598W        W19322  29.458  22.106   1.883
55599W        W19323  16.580  24.489  12.940
55600W        W19324  13.741  19.251   0.922
55601W        W19325  11.221  12.296   1.378
55602W        W19326   5.872  18.089   0.366
55603W        W19327  42.964   7.324   0.285
55604W        W19328  22.647  35.429  11.037
55605W        W19329  20.548   6.269  11.896
55606W        W19330  40.805   0.363  13.481
55607W        W19331  44.434  35.896   0.464
55608W        W19332  24.540  13.751  12.467
55609W        W19333   4.266   9.302  14.002
55610W        W19334  20.092   8.326  12.512
55611W        W19335   5.418  13.612   4.211
55612W        W19336  15.147  41.971   0.903
55613W        W19337   1.962  18.236  12.093
55614W        W19338  44.006   0.881   0.766
55615W        W19339  19.732  13.703   4.174
55616W        W19340   1.248  32.603  13.869
55617W        W19341   6.853  29.664  12.531
55618W        W19342   0.470  32.932  14.965
55619W        W19343  26.987  17.231   0.300
55620W        W19344  20.561  41.378   0.786
55621W        W19345  14.711  35.058   0.442
55622W        W19346  40.368   7.179  13.488
55623W        W19347  27.536  15.681   2.247
55624W        W19348   9.296  26.557   1.252
55625W        W19349  17.286  19.166  10.635
55626W        W19350  22.143  37.527  10.612
55627W        W19351  27.454  41.293   4.208
55628W        W19352  13.336  14.666  13.530
55629W        W19353  28.008   0.752   0.738
55630W        W19354  18.237  28.533   4.288
55631W        W19355  23.130  35.399   1.220
55632W        W19356  41.868   3.342  13.836
55633W        W19357  24.187  26.079  12.024
55634W        W19358  28.475   8.382  13.799
55635W        W19359  36.009  40.546  11.592
55636W        W19360  37.428   4.234   2.876
55637W        W19361  28.097  32.508   3.153
55638W        W19362   2.821  42.402   3.781
55639W        W19363  16.309   8.258  10.503
55640W        W19364  34.102  18.648  13.339
55641W        W19365  35.415  40.347  13.049
55642W        W19366   4.879  29.002  13.809
55643W        W19367   4.364  40.362   3.806
55644W        W19368  21.733  42.396  14.372
55645W        W19369  13.605  27.141  13.505
55646W        W19370  40.323  12.782   1.912
55647W        W19371  28.983   4.810  11.425
55648W        W19372  10.162  30.018   2.856
55649W        W19373   2.857  18.633  10.563
55650W        W19374   6.368  31.616  13.009
55651W        W19375  35.000  23.528  11.945
55652W        W19376  12.280  35.420   1.770
55653W        W19377  24.716  31.064  13.474
55654W        W19378  44.934  37.937   9.579
55655W        W19379   1.750   7.206   0.475
55656W        W19380  17.295  28.161  13.868
55657W        W19381  21.158  40.860  13.318
55658W        W19382  10.263  14.635  14.001
55659W        W19383  15.265  20.602  14.359
55660W        W19384  39.887  24.115   0.396
55661W        W19385  23.234  17.740   1.820
55662W        W19386  41.533  24.058  12.520
55663W        W19387  34.989  23.525   2.870
55664W        W19388  22.101  42.478   2.663
55665W        W19389  18.062  18.583   0.426
55666W        W19390  26.118  29.612   1.444
55667W        W19391   9.258  35.484  11.974
55668W        W19392   5.423  22.694  10.061
55669W        W19393  24.181  27.587   3.807
55670W        W19394  15.663   6.727  12.563
55671W        W19395  28.442  29.162  11.935
55672W        W19396  22.191  42.018  14.999
55673W        W19397   3.736  13.730  10.453
55674W        W19398  39.473   5.399   0.287
55675W        W19399  38.915  29.575  13.919
55676W        W19400  29.006  10.799  11.481
55677W        W19401  26.192  37.347  13.500
55678W        W19402  38.848  38.375   3.335
55679W        W19403  31.032  16.806  13.880
55680W        W19404  15.764  29.599  12.534
55681W        W19405  22.226  27.106   3.714
55682W        W19406  23.024  24.042   0.341
55683W        W19407  10.840  20.215   2.708
55684W        W19408  21.536   0.831  14.925
55685W        W19409  23.017  36.467   0.473
55686W        W19410  35.384  34.615  11.612
55687W        W19411   8.260  38.956  12.846
55688W        W19412  18.600  28.094  13.883
55689W        W19413  27.047  28.520   2.669
55690W        W19414  41.902  35.404  12.542
55691W        W19415  28.675  10.382  12.010
55692W        W19416  17.617  20.074  10.468
55693W        W19417  11.709  37.066  12.372
55694W        W19418  24.140  11.663   3.711
55695W        W19419  26.598  31.471  13.832
55696W        W19420  17.712  26.098   0.935
55697W        W19421  37.498  38.460   0.438
55698W        W19422  21.676  34.984   9.924
55699W        W19423  35.079   0.952  11.602
55700W        W19424   5.408  22.013   2.846
55701W        W19425  30.916  37.357   0.757
55702W        W19426  33.096   1.754  12.392
55703W        W19427  24.102  23.132   3.633
55704W        W19428   9.194  43.994  14.319
55705W        W19429  40.441  26.972  11.044
55706W        W19430  32.066  25.187   1.704
55707W        W19431  39.820  28.145  11.036
55708W        W19432  22.038  28.607   4.770
55709W        W19433  39.478  32.061  13.482
55710W        W19434  27.138  31.139  11.398
55711W        W19435  10.830  34.089  11.005
55712W        W19436   2.389  10.742  11.417
55713W        W19437  40.840   8.818  11.974
55714W        W19438  39.972  41.323   3.248
55715W        W19439   3.451  39.880  10.634
55716W        W19440  10.246  16.226  14.958
55717W        W19441  36.984  33.921  14.490
55718W        W19442  27.529  37.906  14.305
55719W        W19443  39.397   3.440   1.706
55720W        W19444  15.129  23.043  14.863
55721W        W19445   6.258  24.226  11.033
55722W        W19446  21.604  10.726  10.642
55723W        W19447  37.410  18.236   0.953
55724W        W19448  14.210   2.894   0.368
55725W        W19449   9.682   9.677  13.514
55726W        W19450  13.346  23.144  13.315
55727W        W19451  33.976  18.601   3.681
55728W        W19452  14.261  12.231  13.439
55729W        W19453   4.397  34.534  12.477
55730W        W19454  20.199  20.708   4.250
55731W        W19455  27.989  43.971   3.647
55732W        W19456  43.391  32.568  14.771
55733W        W19457  19.203   0.834   2.776
55734W        W19458   1.254   1.389   1.370
55735W        W19459  35.373  33.088  14.413
55736W        W19460  34.084  43.285  12.572
55737W        W19461  36.485  13.134   4.797
55738W        W19462   3.442  17.288  11.113
55739W        W19463  34.553  41.796   1.709
55740W        W19464  36.002  29.605   0.396
55741W        W19465   4.397  33.960  11.954
55742W        W19466   6.403  21.045  11.392
55743W        W19467  31.932   9.294  14.816
55744W        W19468   3.927  14.608   3.639
55745W        W19469  32.498  25.633  10.482
55746W        W19470  27.164  40.014  10.587
55747W        W19471  24.702  39.892  12.842
55748W        W19472  38.408  37.048  14.773
55749W        W19473  34.931   3.913   2.845
55750W        W19474  10.236   2.295  12.468
55751W        W19475  10.802  44.845   3.293
55752W        W19476   8.310  43.448   0.843
55753W        W19477  31.609  30.496   1.883
55754W        W19478  29.670  12.663   4.132
55755W        W19479  23.708   8.346  11.491
55756W        W19480   3.867   0.404   0.254
55757W        W19481  10.375   6.849   0.765
55758W        W19482  16.198   0.452  13.461
55759W        W19483  16.570  33.967  11.916
55760W        W19484  34.466  33.405  10.994
55761W        W19485  25.215   4.907   4.798
55762W        W19486  17.649   8.259  11.507
55763W        W19487  37.418   8.729   1.865
55764W        W19488  44.473  34.109   0.280
55765W        W19489  16.260   0.841   1.734
55766W        W19490  22.082   6.199   1.933
55767W        W19491  25.527  42.420  11.919
55768W        W19492  43.795   1.775   4.174
55769W        W19493  35.471  39.459  14.868
55770W        W19494   7.209   2.919   0.825
55771W        W19495  40.409  13.670  11.992
55772W        W19496  30.578  29.990   4.160
55773W        W19497  34.071   8.714   3.315
55774W        W19498  26.959   9.276   1.806
55775W        W19499   0.456  42.302  14.862
55776W        W19500  32.492  28.931   1.354
55777W        W19501  34.080  11.368   2.321
55778W        W19502  37.355  29.022   4.626
55779W        W19503  34.525  21.171   4.678
55780W        W19504   6.215  43.897   0.965
55781W        W19505  36.592  27.482  10.434
55782W        W19506  30.929   3.943  13.439
55783W        W19507   2.277  21.606  13.855
55784W        W19508  17.062  37.076  12.855
55785W        W19509   4.739   7.692   4.740
55786W        W19510  11.189   2.463   3.694
55787W        W19511  40.422  20.564   1.351
55788W        W19512  41.014   7.883   0.941
55789W        W19513   9.652  21.209  12.860
55790W        W19514  20.619  13.814  10.481
55791W        W19515  21.559  26.671  10.443
55792W        W19516   9.799  27.124   1.410
55793W        W19517  13.336  30.484   5.282
55794W        W19518  10.632  44.763   4.601
55795W        W19519  43.285  29.044   1.406
55796W        W19520  33.475  31.534   2.357
55797W        W19521  40.338  43.799  13.010
55798W        W19522   8.175   0.972   0.949
55799W        W19523  26.032  13.660   1.777
55800W        W19524  11.771  18.571  13.485
55801W        W19525  43.912  43.462   2.745
55802W        W19526  30.972  11.625  13.522
55803W        W19527  31.616  44.329   3.378
55804W        W19528   3.269  11.713  14.006
55805W        W19529  18.679  23.720   4.262
55806W        W19530  11.193  10.864  13.832
55807W        W19531   7.733  25.184   2.236
55808W        W19532  18.165  31.987   2.846
55809W        W19533  18.123  38.440   3.734
55810W        W19534  25.058  23.036   0.737
55811W        W19535  37.391  38.955   1.413
55812W        W19536   2.350   9.282  12.823
55813W        W19537  33.940   0.805  13.370
55814W        W19538  16.284  22.202   4.822
55815W        W19539  44.953  22.562  13.057
55816W        W19540  40.049  28.060  12.943
55817W        W19541  11.829   3.751  10.490
55818W        W19542  11.364  11.202   0.303
55819W        W19543  32.009  34.002  14.337
55820W        W19544   3.733  29.534  14.827
55821W        W19545  37.010  17.285  13.468
55822W        W19546  24.014  26.077   2.843
55823W        W19547  27.954  20.764  14.962
55824W        W19548   1.392   1.473   4.687
55825W        W19549  15.650  33.003   4.292
55826W        W19550  24.084  43.935  10.491
55827W        W19551  33.954  29.957  10.930
55828W        W19552   4.724  11.129  13.512
55829W        W19553  42.802   9.312   3.277
55830W        W19554  42.423  44.835  13.038
55831W        W19555  25.700   0.269   3.244
55832W        W19556   5.250  17.134   2.668
55833W        W19557   7.379  41.397   1.405
55834W        W19558  38.542  22.152   2.831
55835W        W19559   4.389  17.751   0.790
55836W        W19560  17.290  12.649   1.885
55837W        W19561  32.052  41.869   0.909
55838W        W19562  40.397   0.954  11.530
55839W        W19563   4.891  25.103   4.281
55840W        W19564  26.182  44.907  12.372
55841W        W19565   1.290  33.616   1.424
55842W        W19566   5.706  11.329   1.866
55843W        W19567   9.735  44.373  13.308
55844W        W19568  41.935  28.673   1.431
55845W        W19569   0.387  42.983  11.966
55846W        W19570   4.871  39.457   1.809
55847W        W19571  17.652   3.236  13.453
55848W        W19572  11.230  42.366   3.656
55849W        W19573   2.871   2.797   4.190
55850W        W19574  11.657  26.486   2.189
55851W        W19575  19.676   4.342  11.876
55852W        W19576  27.024  39.343  10.518
55853W        W19577   2.379  43.804  10.421
55854W        W19578  42.358   9.164   2.371
55855W        W19579   4.825   0.264  10.930
55856W        W19580  36.077  25.177   4.618
55857W        W19581  19.091  22.732   0.400
55858W        W19582  14.308   7.677   4.751
55859W        W19583  18.225  42.015   4.706
55860W        W19584   2.415  40.451   4.813
55861W        W19585  28.170  18.177   0.281
55862W        W19586  33.965  37.888  12.867
55863W        W19587  19.252   8.849  13.875
55864W        W19588  11.817  34.536  13.036
55865W        W19589  36.511  34.918  11.599
55866W        W19590  13.676  20.274   0.270
55867W        W19591  13.164  12.273   3.245
55868W        W19592   3.843  24.500   2.692
55869W        W19593   8.892  18.063  13.406
55870W        W19594  21.635  14.754   3.870
55871W        W19595  44.815  20.172   2.292
55872W        W19596  43.779  18.240   2.297
55873W        W19597  12.821   0.901  13.013
55874W        W19598  39.941  39.923  12.048
55875W        W19599   0.861  15.131  11.483
55876W        W19600  12.276  20.169   3.758
55877W        W19601  17.682   4.442   3.201
55878W        W19602  32.009  10.160   1.311
55879W        W19603  25.084  41.293   4.605
55880W        W19604   1.950   1.947   3.246
55881W        W19605  34.973   2.448  13.875
55882W        W19606   6.860  18.720   0.953
55883W        W19607  17.233   2.891   3.146
55884W        W19608   4.931  24.220  13.803
55885W        W19609  33.492  22.664  11.426
55886W        W19610  10.724  38.975   1.776
55887W        W19611  10.707  42.915   0.929
55888W        W19612  13.106   8.743   3.208
55889W        W19613  27.630  39.025  11.127
55890W        W19614  42.010  37.559  12.008
55891W        W19615  13.609  43.279  11.966
55892W        W19616  25.976  13.790  13.418
55893W        W19617  42.441  35.461   4.303
55894W        W19618  32.518   4.815   3.697
55895W        W19619   1.756  37.534   3.644
55896W        W19620  37.507  16.167   4.165
55897W        W19621  11.173  30.503  14.980
55898W        W19622  17.620   0.398  11.922
55899W        W19623  27.003  10.675  10.581
55900W        W19624  27.952  38.939  11.093
55901W        W19625  39.413  36.562  11.477
55902W        W19626   4.792  43.021  13.839
55903W        W19627  32.001  33.478   4.186
55904W        W19628  36.908  14.219  10.530
55905W        W19629  33.434  16.591   4.326
55906W        W19630  35.937  16.293  13.021
55907W        W19631  22.014  30.600  12.552
55908W        W19632  36.004  42.866  14.928
55909W        W19633   8.755  43.459  14.461
55910W        W19634   1.890  43.279   2.832
55911W        W19635   4.446   5.895   4.606
55912W        W19636  31.962  10.873   4.599
55913W        W19637  37.416   1.745   0.294
55914W        W19638  36.851  16.115  13.930
55915W        W19639  33.624   9.170   1.399
55916W        W19640   0.369  21.753  12.057
55917W        W19641  42.894  18.203   3.364
55918W        W19642  25.171   9.881   5.279
55919W        W19643  33.951  21.638   2.893
55920W        W19644  10.285  30.105  13.005
55921W        W19645  16.194  10.285   2.772
55922W        W19646   7.321  31.034  14.515
55923W        W19647  29.621  31.639   0.836
55924W        W19648  38.444   9.692  11.898
55925W        W19649  15.285  28.174   1.289
55926W        W19650   7.668  38.449  10.471
55927W        W19651   0.308   1.857  13.853
55928W        W19652   1.908  16.173  14.031
55929W        W19653  21.221  23.507   4.665
55930W        W19654  42.401  27.495  11.103
55931W        W19655  11.662  32.394   0.930
55932W        W19656   2.800   9.874   4.761
55933W        W19657  26.635   5.698   3.331
55934W        W19658  43.911  27.020  12.066
55935W        W19659   3.391  15.094   0.401
55936W        W19660  18.170  14.797  14.982
55937W        W19661  11.846  20.632  14.353
55938W        W19662  37.460  27.657   1.848
55939W        W19663  10.828   2.429  13.432
55940W        W19664   7.400  19.622   1.776
55941W        W19665  36.072  31.031   1.777
55942W        W19666   1.847  38.481   0.961
55943W        W19667  11.823  38.430   3.655
55944W        W19668   8.838  44.309  14.516
55945W        W19669  35.559  19.755   4.822
55946W        W19670  16.315  33.075   0.294
55947W        W19671  21.753  32.048   4.229
55948W        W19672  14.690  12.304   4.202
55949W        W19673  38.902  15.169  14.992
55950W        W19674   3.837   5.791   3.696
55951W        W19675  17.135  29.104  10.154
55952W        W19676  12.311  19.045  12.873
55953W        W19677  30.566  44.351  11.985
55954W        W19678   7.733  23.173   4.790
55955W        W19679  12.233  22.643   4.323
55956W        W19680  37.876  18.272   1.295
55957W        W19681  24.663   0.268  12.084
55958W        W19682   9.357  16.737   4.188
55959W        W19683  14.240  35.107   4.136
55960W        W19684  25.973  35.452  12.039
55961W        W19685   0.807  30.128   3.155
55962W        W19686  22.192   5.818  14.826
55963W        W19687  11.723   4.850   4.323
55964W        W19688  31.629   5.760   3.219
55965W        W19689  19.583  28.483  13.863
55966W        W19690  23.643  12.216  13.957
55967W        W19691  30.632  30.068  12.445
55968W        W19692  12.273  18.564  14.460
55969W        W19693  30.547  32.603   1.212
55970W        W19694  24.205   1.374   3.770
55971W        W19695  44.890  11.837  10.974
55972W        W19696   5.285   2.733  12.838
55973W        W19697  21.174  37.004   3.706
55974W        W19698  26.513  24.620  14.849
55975W        W19699  38.327  42.500  14.773
55976W        W19700  26.656   5.694  13.399
55977W        W19701  29.586  44.290  13.918
55978W        W19702  36.440  34.393   0.267
55979W        W19703  29.081  20.065   3.320
55980W        W19704  19.643  28.534  12.347
55981W        W19705  20.053  22.542   9.954
55982W        W19706  31.055  15.812   4.258
55983W        W19707  35.889  22.538  12.935
55984W        W19708   7.861  30.562   3.218
55985W        W19709   1.857  40.386   1.897
55986W        W19710  25.157  38.012   3.634
55987W        W19711   2.949  38.537  11.585
55988W        W19712  35.496  38.421  13.543
55989W        W19713  30.088   6.694   0.316
55990W        W19714   3.411  10.689  14.912
55991W        W19715  30.114  27.128   4.191
55992W        W19716  14.294  27.999  10.899
55993W        W19717  11.674  36.991   2.313
55994W        W19718  34.008  18.111   3.384
55995W        W19719  30.596  37.832  14.975
55996W        W19720  19.040  44.503   2.377
55997W        W19721  42.801   3.803   3.656
55998W        W19722  35.883  39.877  14.400
55999W        W19723  21.585  43.410  10.495
56000W        W19724  43.932   4.229   3.804
56001W        W19725  11.641  16.090   3.721
56002W        W19726  34.908  35.100   4.273
56003W        W19727  28.628  36.080   2.776
56004W        W19728  20.623  14.827  13.373
56005W        W19729   7.182  24.655  13.441
56006W        W19730  16.096  26.509  10.530
56007W        W19731   5.711  20.129   4.267
56008W        W19732  27.161  37.849  12.508
56009W        W19733   2.883  23.653   2.834
56010W        W19734  26.186   5.405   1.301
56011W        W19735  14.733   1.754  12.460
56012W        W19736  44.334  26.994   1.811
56013W        W19737  39.944  22.169   9.979
56014W        W19738  28.465  22.153  13.791
56015W        W19739  25.564  17.652  12.907
56016W        W19740  13.160  30.138   1.788
56017W        W19741  12.320  23.051   2.743
56018W        W19742   3.941   7.259   1.385
56019W        W19743  35.105  23.669  13.891
56020W        W19744  20.269   5.908  10.404
56021W        W19745  29.944  28.160   1.222
56022W        W19746   6.767  31.106  12.418
56023W        W19747  11.152  28.566  11.959
56024W        W19748  32.903  28.648   4.317
56025W        W19749  18.703  21.755  11.481
56026W        W19750  17.307  38.837  14.446
56027W        W19751  23.688   4.822  14.782
56028W        W19752   8.729  27.647  11.979
56029W        W19753  25.214  19.164   3.368
56030W        W19754  35.937   1.955   1.804
56031W        W19755  42.850  28.460   4.781
56032W        W19756  24.031  26.483   2.879
56033W        W19757  25.199  29.037   0.262
56034W        W19758  27.959  34.609  12.471
56035W        W19759  38.933   6.198   2.843
56036W        W19760  24.033  31.017   2.843
56037W        W19761  22.550  43.300  10.598
56038W        W19762  39.997  22.062   1.431
56039W        W19763  18.140  35.916   0.828
56040W        W19764  42.837   7.333   9.957
56041W        W19765  20.587   7.785  14.395
56042W        W19766  26.963  21.139   2.293
56043W        W19767  44.976  25.482  11.921
56044W        W19768  30.560   2.748  11.466
56045W        W19769  41.461  27.458   2.309
56046W        W19770  18.240  11.281  14.477
56047W        W19771   0.842  14.198   1.924
56048W        W19772  32.053  15.302   3.640
56049W        W19773  41.492  22.009   3.808
56050W        W19774  43.812  26.066  13.515
56051W        W19775  20.222  29.943  11.023
56052W        W19776  17.261  21.190   2.390
56053W        W19777  42.952  29.054   3.379
56054W        W19778  19.132   6.285  11.465
56055W        W19779  35.053  29.970   4.671
56056W        W19780  43.324  35.494   5.709
56057W        W19781  17.236  14.309  13.948
56058W        W19782   2.459  19.681  11.939
56059W        W19783  16.171   2.761  11.562
56060W        W19784  14.317  17.656   1.810
56061W        W19785  22.156   0.958   1.750
56062W        W19786  31.908  44.807   0.251
56063W        W19787  37.034  43.507   2.899
56064W        W19788  27.106  17.252  14.763
56065W        W19789   5.692   6.229  10.959
56066W        W19790  19.737   1.742   2.299
56067W        W19791   8.336  10.633  12.408
56068W        W19792  25.685   0.984  11.427
56069W        W19793  37.002  37.459  14.865
56070W        W19794  26.141  19.731  10.495
56071W        W19795  13.241  34.993   4.675
56072W        W19796  37.861  23.585   3.214
56073W        W19797  18.773  24.976  11.059
56074W        W19798  39.896   2.857  13.836
56075W        W19799  29.483   3.883  12.831
56076W        W19800  42.284  27.557   3.364
56077W        W19801  39.816   0.332  14.351
56078W        W19802  17.300  18.678   0.343
56079W        W19803  11.274  18.265  12.421
56080W        W19804  41.869  36.931  12.861
56081W        W19805  13.238  24.022   3.714
56082W        W19806  23.992  11.638   2.344
56083W        W19807   6.715   9.344   3.229
56084W        W19808   1.955  10.248  14.985
56085W        W19809   4.835  23.073   4.178
56086W        W19810  28.498  41.006   2.269
56087W        W19811  28.624   2.917  10.508
56088W        W19812  27.473  33.496   1.259
56089W        W19813  20.051   2.749   3.647
56090W        W19814  29.074  10.723   0.274
56091W        W19815  35.897  15.292   2.400
56092W        W19816  17.584  20.232   2.315
56093W        W19817  10.235  29.933   0.280
56094W        W19818  13.614  36.028  12.497
56095W        W19819  18.686  44.897   4.265
56096W        W19820   9.671  44.435  13.888
56097W        W19821  24.131  40.042  13.934
56098W        W19822  32.392  11.341   1.260
56099W        W19823  31.624  38.541   4.634
56100W        W19824   2.396  35.886   3.704
56101W        W19825  30.551  29.018   3.798
56102W        W19826  40.454  37.349   4.774
56103W        W19827  18.204  32.120  12.356
56104W        W19828  20.218  37.443   3.785
56105W        W19829   8.663  10.859  10.519
56106W        W19830   1.819  42.448   4.269
56107W        W19831   4.856  26.618  11.897
56108W        W19832  32.493  10.737   3.303
56109W        W19833  39.336  29.983   3.233
56110W        W19834  29.938   8.293  13.489
56111W        W19835  42.027   1.853  13.454
56112W        W19836  32.591  44.798  14.470
56113W        W19837  35.564  33.382  14.484
56114W        W19838  35.978  33.066  11.943
56115W        W19839  43.964  41.385  14.775
56116W        W19840  36.425  32.049   5.127
56117W        W19841  38.550  35.103  12.055
56118W        W19842  12.621  32.114  11.895
56119W        W19843  26.107  36.507  12.364
56120W        W19844   9.313   8.304   4.180
56121W        W19845  36.360  31.480  13.000
56122W        W19846   8.225  38.905   1.353
56123W        W19847   9.698  29.549   2.280
56124W        W19848  35.065  29.560  11.971
56125W        W19849  20.578   5.327  13.901
56126W        W19850  23.683  38.349  12.506
56127W        W19851  10.191  18.714  10.630
56128W        W19852  29.610   7.323  10.907
56129W        W19853  32.636   3.792  10.565
56130W        W19854   1.795   0.432  13.802
56131W        W19855   5.920  42.018  10.934
56132W        W19856  14.803  37.059  11.461
56133W        W19857  19.728  31.632   0.784
56134W        W19858  12.652  18.717   0.793
56135W        W19859  42.299  25.162  11.436
56136W        W19860  32.532  10.365   4.339
56137W        W19861  33.408   1.263   2.218
56138W        W19862   4.441  40.867  13.399
56139W        W19863  22.995  35.100   2.695
56140W        W19864  14.333  31.152   4.822
56141W        W19865  40.538   1.835   2.221
56142W        W19866  41.861  32.559   4.116
56143W        W19867   0.370  36.989   0.861
56144W        W19868  21.519  18.140  10.912
56145W        W19869  30.060  43.995  14.499
56146W        W19870   9.219  26.076   1.431
56147W        W19871  12.670  34.439  14.841
56148W        W19872  28.102  29.663  11.031
56149W        W19873   4.232  18.583   1.438
56150W        W19874  40.501  21.656  14.889
56151W        W19875   2.875  16.649  10.993
56152W        W19876  10.198   9.747  11.508
56153W        W19877  15.263  44.350   4.737
56154W        W19878  37.576  38.517   0.963
56155W        W19879   9.756  14.201  13.803
56156W        W19880  41.856   6.684  12.911
56157W        W19881  40.943  15.805  11.911
56158W        W19882  21.531   2.778   0.874
56159W        W19883  24.584  37.852  14.848
56160W        W19884  10.365  27.554   1.348
56161W        W19885  36.446   9.655   2.683
56162W        W19886  25.493  39.819   4.613
56163W        W19887  30.155  14.147   0.483
56164W        W19888  26.132  37.521  13.872
56165W        W19889  11.722  22.613   2.209
56166W        W19890  35.600  28.013  14.931
56167W        W19891  44.379  40.010  13.796
56168W        W19892   0.289  38.479   0.446
56169W        W19893   9.749  27.663  11.942
56170W        W19894  37.397  43.851   5.601
56171W        W19895  14.667   7.328  11.069
56172W        W19896  33.521  12.646   0.960
56173W        W19897  29.079  15.219   3.811
56174W        W19898   6.316  27.099   1.831
56175W        W19899  34.101  11.720  13.387
56176W        W19900  21.716  21.738  12.072
56177W        W19901  44.965  26.969  12.073
56178W        W19902  40.832  17.227  14.993
56179W        W19903   8.756  40.007  11.071
56180W        W19904  33.408  44.379   5.250
56181W        W19905   8.823  43.420   3.713
56182W        W19906   2.803  42.297   4.174
56183W        W19907  33.614   4.294   3.823
56184W        W19908   6.370  12.656   2.743
56185W        W19909  41.423  27.679  10.458
56186W        W19910  33.131  26.678   1.792
56187W        W19911  18.609   1.446   0.327
56188W        W19912  17.182  16.288  12.913
56189W        W19913  28.108  14.152  10.626
56190W        W19914   4.345  20.619  13.919
56191W        W19915  35.445   4.777  11.511
56192W        W19916  36.447  18.750  13.925
56193W        W19917  29.633  41.437   1.782
56194W        W19918  25.968  10.242   1.925
56195W        W19919  10.174   1.909   1.741
56196W        W19920  40.010  19.707   2.682
56197W        W19921   2.281  31.431  11.964
56198W        W19922  14.324  25.037  14.844
56199W        W19923   8.765  43.909  11.020
56200W        W19924   6.719   8.655  12.435
56201W        W19925  21.254  37.040   5.117
56202W        W19926  34.062  23.695  14.024
56203W        W19927  39.022  24.688  12.978
56204W        W19928   1.268  14.259   1.422
56205W        W19929   0.339   9.747   2.712
56206W        W19930  28.934   0.747  12.990
56207W        W19931  25.971  38.074   1.292
56208W        W19932  40.991  42.915  13.432
56209W        W19933   6.408   8.382   2.334
56210W        W19934  42.507   3.249   5.322
56211W        W19935  40.974  10.161  11.930
56212W        W19936  42.949  30.593  14.972
56213W        W19937  13.114   4.836  11.128
56214W        W19938   9.207   3.851   4.822
56215W        W19939  21.233  15.194   0.941
56216W        W19940  40.342  44.949   0.911
56217W        W19941   7.782  11.621  12.419
56218W        W19942  21.576   1.426  12.464
56219W        W19943  28.596  22.192   0.289
56220W        W19944  25.134  13.764  12.550
56221W        W19945  38.939  21.032   5.201
56222W        W19946   3.866  28.595  14.437
56223W        W19947  31.941  32.594  13.367
56224W        W19948  41.017  13.622  12.341
56225W        W19949   5.307  12.822   1.920
56226W        W19950  42.311  33.878  10.562
56227W        W19951  41.961  21.615   3.747
56228W        W19952  32.071  41.361  10.945
56229W        W19953  37.540   3.437   1.793
56230W        W19954  18.292  14.767  14.016
56231W        W19955   6.267  27.604   4.687
56232W        W19956  24.993  36.051   4.788
56233W        W19957  35.064   4.783  12.069
56234W        W19958  30.601  41.491  12.014
56235W        W19959  34.508  18.232  14.949
56236W        W19960  35.432   1.827   2.695
56237W        W19961   8.754   6.825  11.505
56238W        W19962  26.590   0.350  14.499
56239W        W19963  25.078  15.215  10.477
56240W        W19964  32.417  27.646  11.115
56241W        W19965   5.755  15.095   0.765
56242W        W19966  34.502  41.935  12.065
56243W        W19967  44.868  41.390  10.976
56244W        W19968  15.114   2.743  11.025
56245W        W19969   3.299  44.808  11.409
56246W        W19970  34.438  32.143  10.604
56247W        W19971  42.786   1.866  13.380
56248W        W19972   2.862  26.093   4.750
56249W        W19973  30.099  34.082  11.379
56250W        W19974  24.594  11.341   1.344
56251W        W19975  21.196  44.345  10.457
56252W        W19976   7.283  11.699  14.469
56253W        W19977  29.979   9.789   4.637
56254W        W19978  38.485  31.915  10.530
56255W        W19979  28.155   2.875   2.187
56256W        W19980  33.531   4.898  14.945
56257W        W19981  30.937  40.927  14.502
56258W        W19982  10.746  42.467  12.477
56259W        W19983  24.642   4.303  10.943
56260W        W19984  33.109   2.391   2.877
56261W        W19985   3.326  11.685  13.388
56262W        W19986  12.621  15.675   2.319
56263W        W19987   3.246  12.669   0.835
56264W        W19988  28.668   1.847  11.544
56265W        W19989  37.508   6.724  10.610
56266W        W19990  38.358  34.532   2.280
56267W        W19991  20.586  12.301   1.281
56268W        W19992  22.220  20.681   1.343
56269W        W19993  19.708  27.196  12.976
56270W        W19994  20.722   9.880   0.365
56271W        W19995   3.777  41.973   2.814
56272W        W19996  24.124  32.606   3.260
56273W        W19997  15.796   4.942   4.261
56274W        W19998  24.517  35.044   4.743
56275W        W19999  44.439  15.588  13.422
56276W        W20000   3.724  10.378   2.367
56277W        W20001  43.783  38.850  12.831
56278W        W20002  39.482  38.062  10.028
56279W        W20003   8.353  14.641   3.758
56280W        W20004  16.300  11.845   0.452
56281W        W20005  18.262  25.008   4.206
56282W        W20006   1.806  18.147   4.220
56283W        W20007  32.513  44.995  12.867
56284W        W20008  21.696   6.885   0.886
56285W        W20009   7.903   9.886   3.839
56286W        W20010  19.216  19.133   3.703
56287W        W20011  20.712  27.059   1.827
56288W        W20012  38.908  44.889   2.685
56289W        W20013  44.355  19.686  11.960
56290W        W20014  19.768  15.273   2.362
56291W        W20015  39.434  12.275   3.318
56292W        W20016  21.019  26.060  14.996
56293W        W20017  40.329   3.388   3.722
56294W        W20018  25.144  43.394  12.988
56295W        W20019  36.516  32.006  11.892
56296W        W20020  22.663  17.787  10.642
56297W        W20021  44.337  42.932   5.154
56298W        W20022  37.365  21.169   2.862
56299W        W20023   7.846  38.827   0.367
56300W        W20024  23.035  44.959  12.460
56301W        W20025  10.633  43.334  12.497
56302W        W20026  12.850  28.671  11.488
56303W        W20027  14.681  32.059   0.298
56304W        W20028  27.032  21.758   1.916
56305W        W20029  36.954  21.729  12.579
56306W        W20030  32.516   4.944   1.222
56307W        W20031   0.857  35.582  12.983
56308W        W20032  42.284   1.240  12.526
56309W        W20033  18.728  40.480  10.116
56310W        W20034  29.153  16.217   0.324
56311W        W20035   1.810  11.820   0.812
56312W        W20036   6.812  30.065   3.381
56313W        W20037  14.313  39.411   4.311
56314W        W20038  36.460  24.668  11.535
56315W        W20039  43.944  15.322  11.021
56316W        W20040  38.330  27.493  13.055
56317W        W20041  22.174   1.367  14.493
56318W        W20042  29.143  10.704   3.756
56319W        W20043  37.574  30.548   2.371
56320W        W20044  36.372  22.707  10.555
56321W        W20045  34.498  29.444  13.353
56322W        W20046  17.202  41.456   4.801
56323W        W20047   0.825  12.281  10.514
56324W        W20048  40.858  22.237  10.493
56325W        W20049  29.650   8.199  13.875
56326W        W20050  13.664   6.761   1.263
56327W        W20051  36.028  35.862  14.931
56328W        W20052  20.044  18.098   0.483
56329W        W20053  18.097  43.964   2.201
56330W        W20054  30.586   5.378  13.341
56331W        W20055   4.907  37.474   4.141
56332W        W20056  17.076  34.370   3.654
56333W        W20057  13.775  28.013  12.512
56334W        W20058  23.535  14.102  12.018
56335W        W20059  40.938  15.241   2.714
56336W        W20060  10.170  10.644  14.824
56337W        W20061   1.797  40.031   1.919
56338W        W20062   3.896  24.590  10.952
56339W        W20063   7.851   8.702   1.721
56340W        W20064  18.718  31.570   0.864
56341W        W20065  41.936  37.083   3.336
56342W        W20066  30.151  31.488  13.803
56343W        W20067   9.267  32.526   2.687
56344W        W20068   2.913  25.969   3.298
56345W        W20069  44.443  37.899  10.422
56346W        W20070  42.860   1.382  10.408
56347W        W20071  40.434   8.833  13.537
56348W        W20072  14.128  27.517  10.492
56349W        W20073  40.834  29.067   3.295
56350W        W20074  19.216  32.126   4.115
56351W        W20075   6.812  26.621  12.951
56352W        W20076  11.311  42.346   0.966
56353W        W20077  12.650  13.235  14.848
56354W        W20078  28.574  42.452  12.974
56355W        W20079  25.651  14.291  12.829
56356W        W20080   2.263  36.897   2.370
56357W        W20081  25.594  27.601   1.842
56358W        W20082   9.800  35.940   4.235
56359W        W20083  37.378  43.883  11.971
56360W        W20084  25.124  10.754  11.039
56361W        W20085  34.528  20.728  11.013
56362W        W20086  19.189  40.491  11.541
56363W        W20087   8.715   3.310  12.345
56364W        W20088  37.571   4.812  11.430
56365W        W20089  13.173  11.829   2.862
56366W        W20090  18.051  33.953  11.508
56367W        W20091  34.993  16.575  13.466
56368W        W20092   4.236  15.717  11.008
56369W        W20093  14.171  43.799  11.422
56370W        W20094  11.842  18.628   4.689
56371W        W20095  11.630  19.776  13.836
56372W        W20096   1.833  19.069  14.390
56373W        W20097  31.991   9.203   4.600
56374W        W20098  42.484  17.076  11.045
56375W        W20099  27.073  40.333   2.722
56376W        W20100  19.129  14.651   2.272
56377W        W20101  10.278  44.283  14.411
56378W        W20102   3.431   4.330   2.284
56379W        W20103  14.321  34.501  12.917
56380W        W20104   2.854  39.882   0.895
56381W        W20105  17.719   5.396   2.725
56382W        W20106  20.100   5.738   1.858
56383W        W20107  42.815  36.854  14.880
56384W        W20108  22.666  12.696  14.374
56385W        W20109  34.991  34.477   1.726
56386W        W20110  44.409  29.978   0.476
56387W        W20111  28.507  13.282  10.447
56388W        W20112  11.860  17.062   4.754
56389W        W20113  29.146   4.823   1.816
56390W        W20114  41.314  40.956  12.087
56391W        W20115   2.320  23.566  14.384
56392W        W20116  37.946  12.797  14.910
56393W        W20117  34.507  43.979  14.432
56394W        W20118   2.769  14.337   2.292
56395W        W20119  20.533  41.447  11.525
56396W        W20120  32.094   6.919  14.809
56397W        W20121  33.393  43.805  13.849
56398W        W20122  42.395  29.513   0.254
56399W        W20123   4.207   9.710   2.201
56400W        W20124  40.965  29.061   3.871
56401W        W20125   3.455  38.342   2.179
56402W        W20126  34.590  26.464   2.848
56403W        W20127  10.846  33.895  13.008
56404W        W20128  17.700   1.419   2.766
56405W        W20129  21.051  21.103  11.076
56406W        W20130   5.761  33.430  11.551
56407W        W20131  28.610  12.332   3.381
56408W        W20132  13.279  20.749   1.879
56409W        W20133   5.211  42.808  13.415
56410W        W20134  41.531   5.694  14.910
56411W        W20135   3.770  43.424  10.588
56412W        W20136   9.738  33.608  10.570
56413W        W20137  38.491   9.848   1.441
56414W        W20138  14.319  20.537  10.887
56415W        W20139  12.156   8.731  11.874
56416W        W20140  37.836  29.133   2.249
56417W        W20141  30.527  31.588   1.396
56418W        W20142   5.339  33.426  10.121
56419W        W20143  26.059  42.358  12.533
56420W        W20144  21.582   8.847   5.314
56421W        W20145  22.020  41.818  11.521
56422W        W20146  26.167  28.933   0.295
56423W        W20147  23.644   4.941  10.563
56424W        W20148  27.487  31.112   4.278
56425W        W20149  44.273  14.613  11.976
56426W        W20150  42.475  28.449   3.836
56427W        W20151  27.984   2.300  11.018
56428W        W20152  32.077  13.675   2.384
56429W        W20153  24.680  39.827  11.514
56430W        W20154  17.152   1.238   3.789
56431W        W20155  10.192  30.594  10.891
56432W        W20156  44.969  24.577  11.559
56433W        W20157  11.193  24.158  14.959
56434W        W20158   9.822   1.445  12.066
56435W        W20159   5.877  10.172   2.348
56436W        W20160  11.849  36.430   3.784
56437W        W20161  17.218  37.049  11.029
56438W        W20162   3.875  25.017   1.372
56439W        W20163  17.695   5.895   3.635
56440W        W20164  21.533   9.862  11.116
56441W        W20165   7.736  28.543   3.680
56442W        W20166  10.352  10.777  12.475
56443W        W20167  24.154   4.302  12.931
56444W        W20168  31.566  39.031  12.431
56445W        W20169  42.014  20.222  13.042
56446W        W20170   0.383   8.328  11.470
56447W        W20171  20.588  31.034   0.309
56448W        W20172  23.494  31.901   1.744
56449W        W20173  21.755   8.260  11.393
56450W        W20174  19.767  10.285   4.675
56451W        W20175  41.952  21.193   0.952
56452W        W20176   8.738  11.132  13.061
56453W        W20177  20.523  11.303  13.431
56454W        W20178  36.451  10.151  12.493
56455W        W20179   8.178  34.558  11.450
56456W        W20180   8.838  25.146   1.824
56457W        W20181  13.609  21.683  13.042
56458W        W20182  36.541   6.858   0.369
56459W        W20183  13.228  44.284  13.460
56460W        W20184  40.516  30.488  11.071
56461W        W20185  18.225  41.436  12.940
56462W        W20186   8.719  29.486  14.820
56463W        W20187  39.913   6.813  13.896
56464W        W20188  30.087   0.968  10.493
56465W        W20189   7.401  37.860   1.716
56466W        W20190   2.761  41.411  11.126
56467W        W20191   6.296  32.622  10.483
56468W        W20192  17.286   7.368  11.487
56469W        W20193  44.470  19.726   0.418
56470W        W20194  11.783  32.397  13.849
56471W        W20195  38.922  29.015   0.296
56472W        W20196  41.383  32.103  13.048
56473W        W20197   7.804   7.738   2.692
56474W        W20198   5.847  22.117  14.875
56475W        W20199  28.520   1.253  10.987
56476W        W20200  12.221  14.645  12.499
56477W        W20201  23.064  27.118   1.876
56478W        W20202   2.319  12.282  12.053
56479W        W20203  37.491  35.017  11.026
56480W        W20204  20.589  27.951  14.015
56481W        W20205  24.187  22.617   1.819
56482W        W20206  41.463  13.334   0.300
56483W        W20207  21.231  33.877  10.547
56484W        W20208  16.202  32.002  11.540
56485W        W20209  19.769  28.046   4.681
56486W        W20210  17.616  32.408  12.572
56487W        W20211  28.141   9.270   1.729
56488W        W20212  36.078  27.642  11.890
56489W        W20213  40.517  16.636   1.418
56490W        W20214   2.850  16.614   1.371
56491W        W20215   0.451  39.501  14.875
56492W        W20216  29.571  25.083  10.145
56493W        W20217  10.302  33.053  12.071
56494W        W20218  42.015   7.681   3.204
56495W        W20219  12.141   5.271  13.476
56496W        W20220  10.735  13.627  14.462
56497W        W20221  23.031   2.388   3.658
56498W        W20222  42.394  14.198   2.696
56499W        W20223  21.731  25.656  14.866
56500W        W20224   1.931  30.421   2.766
56501W        W20225  29.152  34.991  10.578
56502W        W20226   2.927  31.637   3.846
56503W        W20227  34.446  42.836  11.480
56504W        W20228  32.933  21.631   1.742
56505W        W20229  10.789  44.473   1.211
56506W        W20230  28.643  44.358  11.943
56507W        W20231  23.153  26.115  10.531
56508W        W20232  35.504  10.151  11.964
56509W        W20233   7.316  41.477  14.397
56510W        W20234  10.381  35.926  13.451
56511W        W20235   4.869   1.308   4.120
56512W        W20236   0.274  15.733  13.443
56513W        W20237  25.502  13.260   1.228
56514W        W20238  24.542  28.668   3.667
56515W        W20239  40.847  40.020   1.348
56516W        W20240   0.279  39.321  11.416
56517W        W20241  16.234  27.484  11.418
56518W        W20242  32.052  14.267   1.213
56519W        W20243  31.613  10.703  14.343
56520W        W20244  34.027  43.357  10.611
56521W        W20245  11.716  21.534   3.747
56522W        W20246   5.318  15.153   3.246
56523W        W20247   7.345   9.874  12.535
56524W        W20248  14.831  28.093  14.926
56525W        W20249  29.084  16.100  12.941
56526W        W20250  21.518   0.391   0.442
56527W        W20251  31.027  27.642   3.762
56528W        W20252   1.927   4.788  12.360
56529W        W20253  26.056  38.053  14.471
56530W        W20254  30.984  21.142  13.417
56531W        W20255  35.401  16.792  13.943
56532W        W20256   0.320  37.837  13.342
56533W        W20257  35.557  36.944   4.333
56534W        W20258   8.751  22.600   5.205
56535W        W20259  39.419  25.694   5.168
56536W        W20260  13.110  33.438  13.485
56537W        W20261  11.261  33.042  13.417
56538W        W20262  33.965  23.526   1.762
56539W        W20263  21.062  42.014  14.371
56540W        W20264  15.290  15.591  12.533
56541W        W20265  34.900  11.821   1.422
56542W        W20266  19.592  41.938   2.902
56543W        W20267  34.923  26.652   2.893
56544W        W20268  38.435   5.193   4.737
56545W        W20269  18.122  10.370   1.885
56546W        W20270   4.773  27.676   0.289
56547W        W20271  14.244  42.814  10.126
56548W        W20272  28.608   4.213  14.282
56549W        W20273  18.714  41.457  10.027
56550W        W20274  18.593  17.188  10.928
56551W        W20275  38.536  24.658  11.090
56552W        W20276  26.543   4.808  10.498
56553W        W20277  10.202   6.338   0.729
56554W        W20278  43.295  29.442  10.489
56555W        W20279  36.905  13.637   5.174
56556W        W20280   9.174  31.628   1.751
56557W        W20281  17.088  44.427  12.479
56558W        W20282  16.210  23.225   4.835
56559W        W20283  15.328  43.980   2.205
56560W        W20284   5.320  25.205  13.864
56561W        W20285  43.280  12.756   4.720
56562W        W20286   7.831  15.601   1.354
56563W        W20287  21.576  14.629  14.866
56564W        W20288  15.090  33.581  11.508
56565W        W20289  25.515  24.202  13.418
56566W        W20290  21.222   9.238   0.877
56567W        W20291  31.427  36.918   0.764
56568W        W20292  27.551  14.201  11.966
56569W        W20293  24.633   2.901   0.836
56570W        W20294  18.781   4.441   2.351
56571W        W20295  16.591  18.767   0.928
56572W        W20296  37.073  19.249   2.289
56573W        W20297   8.875  25.589  13.949
56574W        W20298   8.303  12.771   4.332
56575W        W20299  44.926  16.608  14.991
56576W        W20300  15.822   6.363  14.003
56577W        W20301  14.704  43.347   1.859
56578W        W20302   7.303   8.874  10.128
56579W        W20303  25.115  42.015   0.809
56580W        W20304  28.962  21.031   3.857
56581W        W20305  34.890  13.712  11.940
56582W        W20306  13.152  22.725  12.383
56583W        W20307  20.124  13.815   1.281
56584W        W20308  40.040   3.901   3.690
56585W        W20309  38.949  26.600   5.321
56586W        W20310   9.254   9.830   3.190
56587W        W20311   2.964  34.442   0.893
56588W        W20312  44.439  39.481  14.014
56589W        W20313  38.930  12.707   2.738
56590W        W20314  21.160  30.075   0.267
56591W        W20315  17.279  36.007   4.147
56592W        W20316   4.385  16.232   3.166
56593W        W20317  13.185   4.250   0.254
56594W        W20318   0.269  33.894  11.092
56595W        W20319  22.593  43.387   1.370
56596W        W20320  14.656  30.557   3.754
56597W        W20321  32.907  41.335  11.039
56598W        W20322   6.257  39.937   4.826
56599W        W20323  42.327  43.971   9.925
56600W        W20324  40.332  16.758  12.955
56601W        W20325  25.028  44.304   5.221
56602W        W20326  17.688  41.999  12.988
56603W        W20327  10.191   6.242  14.295
56604W        W20328   3.356   1.749  13.875
56605W        W20329  19.139  24.989   1.248
56606W        W20330  11.238  39.411  14.406
56607W        W20331   9.249   0.960  13.011
56608W        W20332  28.965  22.190  14.778
56609W        W20333  44.492  33.624   2.214
56610W        W20334  26.196  40.483  10.912
56611W        W20335  32.911  30.629  13.011
56612W        W20336   9.252   3.349  11.124
56613W        W20337  16.094  38.521  14.365
56614W        W20338  24.064   9.367   3.818
56615W        W20339   4.852   8.714  10.056
56616W        W20340   7.758  28.526   1.397
56617W        W20341  26.535  32.540   1.768
56618W        W20342  44.309   5.843  13.514
56619W        W20343  39.011  24.575  11.509
56620W        W20344  18.607   0.865  11.047
56621W        W20345  39.335   6.344   4.153
56622W        W20346  18.670  13.145   5.192
56623W        W20347  18.083  37.445   4.763
56624W        W20348   3.799  37.834   2.835
56625W        W20349   0.980   0.822   3.684
56626W        W20350   0.275  28.957   0.327
56627W        W20351   6.866  30.053  11.941
56628W        W20352  44.402  30.594   0.761
56629W        W20353  14.250  13.716  14.338
56630W        W20354  32.567   1.736  14.500
56631W        W20355  28.976   6.378   4.638
56632W        W20356   5.746  15.121  12.088
56633W        W20357   4.847   9.154  14.763
56634W        W20358  16.573  35.025  14.960
56635W        W20359  13.283  40.823  14.437
56636W        W20360  17.761  35.572  11.904
56637W        W20361  22.999   7.259   1.352
56638W        W20362   8.170  33.527   4.271
56639W        W20363  16.107  22.143   1.350
56640W        W20364  39.992  31.413   4.701
56641W        W20365   5.693  26.592   0.454
56642W        W20366  32.919   7.181  13.869
56643W        W20367   6.262  23.160   4.768
56644W        W20368  26.146  18.143  12.029
56645W        W20369  31.022  31.987   3.264
56646W        W20370  32.462  11.349  12.030
56647W        W20371   5.727   0.274   0.920
56648W        W20372  33.086   9.218  13.959
56649W        W20373  38.962  26.128  12.576
56650W        W20374  43.272  12.208   1.793
56651W        W20375  13.170  22.050  14.354
56652W        W20376   6.839  20.700  14.461
56653W        W20377  18.782  13.690  14.936
56654W        W20378   7.824  11.249   2.372
56655W        W20379  19.203  30.415   1.805
56656W        W20380  22.038   8.240  12.977
56657W        W20381  25.627  21.062  13.513
56658W        W20382  42.998  22.148  12.879
56659W        W20383  31.116   6.243   1.356
56660W        W20384  17.195   9.684  11.991
56661W        W20385   2.328  23.608  10.900
56662W        W20386  34.470  37.942  14.990
56663W        W20387   3.930  15.201   2.864
56664W        W20388  21.631  29.078   4.156
56665W        W20389  44.965  21.197  12.477
56666W        W20390  44.338  44.280   2.878
56667W        W20391  23.201   0.376   0.921
56668W        W20392  14.718  17.788   3.685
56669W        W20393  40.013  17.772  14.844
56670W        W20394  14.125  29.028  12.540
56671W        W20395  20.151  15.223   3.182
56672W        W20396  29.100  41.824  11.876
56673W        W20397  44.794  36.497  11.931
56674W        W20398  42.334   1.873  13.012
56675W        W20399  30.943   0.390  13.322
56676W        W20400   5.399  32.969  13.408
56677W        W20401   0.920  11.844   5.096
56678W        W20402  23.694  36.552   1.445
56679W        W20403   2.922  34.112   4.691
56680W        W20404   4.233  19.099  14.333
56681W        W20405  23.589  42.852   3.643
56682W        W20406   2.367  26.167   4.337
56683W        W20407   8.746  19.280   4.795
56684W        W20408  43.419   4.797   1.914
56685W        W20409  23.004  13.745  11.539
56686W        W20410  41.948   5.319   1.883
56687W        W20411  11.649  23.239  11.029
56688W        W20412  29.484  35.544  14.492
56689W        W20413  41.441  42.507   2.356
56690W        W20414   7.865  15.709  14.801
56691W        W20415  23.541  37.004   0.731
56692W        W20416  27.184  42.392   0.761
56693W        W20417   3.447   4.444  14.346
56694W        W20418  12.248   6.726  10.406
56695W        W20419  33.600  21.071   3.310
56696W        W20420  39.377  29.011   1.403
56697W        W20421  14.140  30.084   3.709
56698W        W20422   7.281  23.082  13.513
56699W        W20423  17.187   8.783  11.505
56700W        W20424  25.097  28.498  14.760
56701W        W20425   3.806  18.093  14.803
56702W        W20426  22.513   0.810   3.321
56703W        W20427  24.133  27.179   1.252
56704W        W20428  41.936  13.695   2.392
56705W        W20429  36.550   6.922   1.867
56706W        W20430  32.600   4.365   4.659
56707W        W20431  22.528   4.210   1.906
56708W        W20432  30.481   0.392  14.877
56709W        W20433  24.672   3.720  13.868
56710W        W20434  29.551  20.240   3.645
56711W        W20435  11.152   0.267   0.378
56712W        W20436  31.526   2.965  14.766
56713W        W20437  35.413  32.085   2.305
56714W        W20438   8.688   7.397   2.774
56715W        W20439  20.080  37.012  10.581
56716W        W20440  23.166   8.232   4.292
56717W        W20441  38.518  42.470   4.241
56718W        W20442   4.751  28.608  13.030
56719W        W20443  11.682  43.778  12.002
56720W        W20444  33.526  16.734   4.814
56721W        W20445  27.051  42.416   4.718
56722W        W20446  20.736  43.483   0.742
56723W        W20447   2.249   2.728  11.931
56724W        W20448  21.677   5.338   4.800
56725W        W20449  24.582  34.981   3.186
56726W        W20450  37.337  29.427  12.522
56727W        W20451  34.401  32.404   3.323
56728W        W20452  42.876  13.766  10.951
56729W        W20453   7.335  24.533   2.188
56730W        W20454  39.060  35.030   1.406
56731W        W20455  28.607  14.184  12.008
56732W        W20456   5.692  17.293   4.280
56733W        W20457  28.480  39.319  10.930
56734W        W20458   6.805  22.712  11.579
56735W        W20459  22.180  39.516  10.143
56736W        W20460  16.094   7.237  11.565
56737W        W20461  28.576  36.363  14.855
56738W        W20462  34.943  14.782  11.869
56739W        W20463  28.043   9.170   3.710
56740W        W20464  36.465   2.360  12.515
56741W        W20465  36.973  23.045   0.810
56742W        W20466  11.133  14.698   0.424
56743W        W20467  16.146   9.885  10.641
56744W        W20468  36.078  11.797  11.485
56745W        W20469   5.438  38.072  11.414
56746W        W20470  37.537  41.333   2.294
56747W        W20471  13.185  36.999   1.315
56748W        W20472   0.773  43.348   2.874
56749W        W20473  28.987  31.565  12.562
56750W        W20474  44.957  33.591   1.719
56751W        W20475  28.514   6.721   0.734
56752W        W20476   8.363  17.079   0.429
56753W        W20477  39.538   8.182  11.944
56754W        W20478  35.552  10.638   3.355
56755W        W20479  18.151  29.443  14.508
56756W        W20480  25.487   0.824   3.691
56757W        W20481  28.033  28.460   3.657
56758W        W20482  42.437   6.906   3.793
56759W        W20483   3.257  38.348  10.537
56760W        W20484  28.523  25.608  13.935
56761W        W20485  26.641   8.670   4.308
56762W        W20486   9.187  39.491   0.771
56763W        W20487   6.213  10.265   4.731
56764W        W20488  43.429  41.794  10.576
56765W        W20489  28.529  28.635  13.028
56766W        W20490  33.932  12.331   1.769
56767W        W20491  34.486  44.811   0.374
56768W        W20492  42.908  38.058  11.016
56769W        W20493  17.067  22.218   4.182
56770W        W20494  10.277  38.041   3.865
56771W        W20495   3.915  27.468  14.859
56772W        W20496  13.301  10.334  11.377
56773W        W20497  11.813  42.479  13.937
56774W        W20498  17.719  21.210  11.561
56775W        W20499  44.756  26.157  12.366
56776W        W20500  16.213  31.062  11.998
56777W        W20501  35.896   9.378   4.693
56778W        W20502  30.158  11.231  13.359
56779W        W20503  16.581  22.204   4.645
56780W        W20504  19.710  43.383  14.818
56781W        W20505  30.054  10.213   0.421
56782W        W20506   0.855   6.359   9.994
56783W        W20507  23.025  25.963  13.906
56784W        W20508  11.680  24.189  12.879
56785W        W20509   1.907  21.079  13.861
56786W        W20510  16.655  13.778  14.304
56787W        W20511  34.389  20.166  11.939
56788W        W20512  10.300  27.029   2.685
56789W        W20513  41.532  31.064   0.451
56790W        W20514  21.162  24.642   1.398
56791W        W20515   8.831   8.752   0.321
56792W        W20516  44.914   6.874   4.659
56793W        W20517  28.022  29.514   3.650
56794W        W20518   5.790  21.598   2.818
56795W        W20519  22.140   2.967  13.432
56796W        W20520  36.980   6.890  14.404
56797W        W20521  29.081  28.138  14.916
56798W        W20522   4.401  40.514   2.857
56799W        W20523  24.691  10.262   4.698
56800W        W20524   1.247  17.668   2.734
56801W        W20525  43.806  38.033   1.857
56802W        W20526  33.040  15.803   0.243
56803W        W20527  15.304  38.518   2.671
56804W        W20528  20.272  14.614  10.985
56805W        W20529  36.532  14.734  13.542
56806W        W20530  31.980  10.231  14.982
56807W        W20531   9.856  20.091  12.506
56808W        W20532  30.029  14.254   4.732
56809W        W20533  16.721  15.786  11.942
56810W        W20534   0.754   1.750  10.522
56811W        W20535  31.094  11.768   2.729
56812W        W20536  24.482  15.272  14.897
56813W        W20537   3.950  42.489   3.197
56814W        W20538   2.853  24.649  14.899
56815W        W20539  18.771  31.152  13.063
56816W        W20540   3.832  43.812   4.248
56817W        W20541  33.454  16.637  10.948
56818W        W20542  24.587  13.750  13.498
56819W        W20543  25.561  31.914   0.882
56820W        W20544  15.754  24.053   1.343
56821W        W20545   2.908  41.910   0.360
56822W        W20546   2.893  33.608  13.009
56823W        W20547   2.861  39.956   2.232
56824W        W20548   9.276   0.988   1.915
56825W        W20549  44.313   2.929   0.378
56826W        W20550   9.829   3.853   0.267
56827W        W20551  27.153  42.473  11.913
56828W        W20552  32.056  25.658   4.659
56829W        W20553  28.956  25.017  13.799
56830W        W20554  40.936  33.504  10.932
56831W        W20555  29.962  23.678  13.964
56832W        W20556  15.143  22.582   1.877
56833W        W20557  12.812  41.863   2.225
56834W        W20558  17.707  34.596  13.468
56835W        W20559  19.779   2.904  11.450
56836W        W20560  44.785  34.379   3.257
56837W        W20561  35.535  11.838   3.635
56838W        W20562  34.095  19.053   0.744
56839W        W20563  40.411  36.047   1.915
56840W        W20564  13.801   0.302  11.115
56841W        W20565  39.061   1.738  14.948
56842W        W20566   9.810  18.184   1.732
56843W        W20567  37.030  24.180   4.303
56844W        W20568  17.104  37.935   1.925
56845W        W20569  36.446  33.983   1.264
56846W        W20570  13.267  11.840   0.402
56847W        W20571  41.941  21.538  11.879
56848W        W20572  14.333   8.282   0.803
56849W        W20573  32.548  43.972   0.310
56850W        W20574  23.164  26.694   2.795
56851W        W20575   4.710  19.177  13.474
56852W        W20576  24.037  15.592   5.117
56853W        W20577  31.112  23.191  10.495
56854W        W20578   6.326  33.604  11.488
56855W        W20579  11.350   4.739  10.065
56856W        W20580  14.832   5.401  10.625
56857W        W20581   6.679  36.532  12.890
56858W        W20582  13.826   2.244  14.979
56859W        W20583  25.533   9.332  11.539
56860W        W20584  26.469  15.773   4.620
56861W        W20585  42.388  18.634   1.389
56862W        W20586  38.984  19.731  10.146
56863W        W20587  23.200  29.557   2.731
56864W        W20588  16.121   9.810   1.283
56865W        W20589  36.428  10.636   0.868
56866W        W20590  26.526   3.223  10.974
56867W        W20591  17.766  15.721   3.861
56868W        W20592  23.025   1.851   3.346
56869W        W20593  39.413   6.909   4.279
56870W        W20594  30.597  39.816  14.874
56871W        W20595  14.732  21.608   0.287
56872W        W20596  30.484  10.206  12.533
56873W        W20597  14.690  28.933   4.274
56874W        W20598  19.067  44.989   0.391
56875W        W20599  23.027  30.562   2.839
56876W        W20600   7.227  33.961   3.222
56877W        W20601   8.817   4.844   2.840
56878W        W20602   7.755   9.230  13.425
56879W        W20603  40.410   2.332  12.039
56880W        W20604  32.534  27.681   1.694
56881W        W20605   8.309  29.600   1.868
56882W        W20606  43.798  41.452  11.427
56883W        W20607   4.886  12.332   5.767
56884W        W20608   0.846  40.309   3.190
56885W        W20609  29.078  10.260   4.212
56886W        W20610  18.255  33.489  14.931
56887W        W20611   1.359  23.719   1.779
56888W        W20612  22.131  18.553  10.625
56889W        W20613   2.397  29.436   2.898
56890W        W20614  19.704  15.700   2.894
56891W        W20615   6.218  24.110   1.448
56892W        W20616  42.361  24.629   3.693
56893W        W20617  38.401  10.783   3.256
56894W        W20618   3.262  37.894   4.157
56895W        W20619  39.972  38.006  13.360
56896W        W20620  29.472   5.797   3.184
56897W        W20621   2.389  26.046  12.992
56898W        W20622  42.981  25.614   5.322
56899W        W20623   4.367  36.879   0.800
56900W        W20624  20.161  42.295  11.103
56901W        W20625  35.886  33.961  11.469
56902W        W20626  42.352  20.552  12.090
56903W        W20627  17.263  38.329   1.339
56904W        W20628  39.940  16.215  11.467
56905W        W20629   6.861  30.977   4.348
56906W        W20630  37.492  41.914  12.505
56907W        W20631  26.468  11.655   5.094
56908W        W20632  16.752  25.037  12.407
56909W        W20633   6.744  24.153  13.044
56910W        W20634  32.545  28.162  11.071
56911W        W20635   1.961  11.186   1.722
56912W        W20636  29.549  16.207   1.388
56913W        W20637  41.405  44.474  11.448
56914W        W20638   9.260  11.674  14.499
56915W        W20639   8.330  16.103   1.857
56916W        W20640  16.252  26.542   4.742
56917W        W20641   4.279  16.641   3.375
56918W        W20642  24.051   0.477   1.850
56919W        W20643  27.161  42.442   1.710
56920W        W20644  37.886   1.781  13.312
56921W        W20645  18.648  15.672   0.752
56922W        W20646  32.131  36.990   3.839
56923W        W20647  14.767  37.983  14.462
56924W        W20648   3.830  10.704   1.803
56925W        W20649  32.566  37.349  14.275
56926W        W20650  39.445  42.024   3.318
56927W        W20651  17.212  13.788  14.019
56928W        W20652  10.345  32.908  14.411
56929W        W20653  28.679   6.393  10.446
56930W        W20654  32.128  26.039  13.363
56931W        W20655  16.273  10.863  12.049
56932W        W20656  37.957  41.789  14.023
56933W        W20657  25.676  14.819   3.866
56934W        W20658   0.311  37.892  11.074
56935W        W20659  39.540  33.117   3.157
56936W        W20660  32.109   6.248  11.903
56937W        W20661  22.727  12.255  13.970
56938W        W20662   6.836  10.686   0.313
56939W        W20663  40.912  20.767  14.845
56940W        W20664  44.958  26.025  11.957
56941W        W20665  34.953  33.492  11.593
56942W        W20666  28.162  26.586  10.105
56943W        W20667  39.427  35.480  11.887
56944W        W20668  19.178   5.809   3.671
56945W        W20669  44.923   7.756   1.891
56946W        W20670   7.910  26.974  14.462
56947W        W20671   7.191   1.847   0.785
56948W        W20672  40.431  26.027   2.837
56949W        W20673  36.588  17.598   3.328
56950W        W20674  42.028  12.654   0.279
56951W        W20675   2.472  21.739   4.137
56952W        W20676   7.839  11.682   0.883
56953W        W20677  30.944  19.618   9.942
56954W        W20678   3.340  35.056  12.449
56955W        W20679   4.800  33.898   0.929
56956W        W20680   3.432   9.248   0.816
56957W        W20681  43.965  31.092  11.071
56958W        W20682  34.965  13.835  12.969
56959W        W20683  38.396  14.321  14.761
56960W        W20684  43.018  41.842   5.221
56961W        W20685   3.436   7.684  10.591
56962W        W20686   8.398  35.005  11.976
56963W        W20687  30.477  27.101   4.735
56964W        W20688   9.184  27.570   0.829
56965W        W20689  17.151  43.833  13.004
56966W        W20690  30.114  13.116   4.708
56967W        W20691  31.636  10.194  10.564
56968W        W20692  41.371   4.371  10.577
56969W        W20693  11.167  22.142   4.261
56970W        W20694  22.559  12.716   2.789
56971W        W20695  24.135  20.764  12.565
56972W        W20696   9.157  34.369  14.508
56973W        W20697  39.960   4.746   3.290
56974W        W20698   9.395  30.950   0.297
56975W        W20699  25.188  25.209   0.434
56976W        W20700  20.228  31.035   4.837
56977W        W20701  40.424  14.249   0.460
56978W        W20702  17.142  37.541   2.867
56979W        W20703   3.874  31.915   0.937
56980W        W20704  39.323  11.634  10.610
56981W        W20705  11.169  30.952   3.806
56982W        W20706  43.438   0.758   3.835
56983W        W20707  42.338  36.921   4.280
56984W        W20708   8.368  27.076   4.828
56985W        W20709   6.887   9.871  10.893
56986W        W20710   0.796  24.164  14.282
56987W        W20711  26.543  35.515  12.894
56988W        W20712   0.428  25.066   0.471
56989W        W20713  12.242  29.929  14.301
56990W        W20714   1.434   2.290  14.788
56991W        W20715  20.665  44.777   1.803
56992W        W20716  20.220  35.097  12.555
56993W        W20717  36.934  32.092  11.509
56994W        W20718  42.011  41.939   1.757
56995W        W20719   3.407  25.493  12.432
56996W        W20720  20.270   0.273  11.889
56997W        W20721  29.985  14.772  12.928
56998W        W20722  27.150  13.751   0.879
56999W        W20723   8.264  42.343   4.631
57000W        W20724  28.059  35.854   1.702
57001W        W20725  31.124  31.423   1.901
57002W        W20726  25.156   2.412  14.761
57003W        W20727  19.187  44.808  14.787
57004W        W20728  26.581  34.394   4.734
57005W        W20729  22.698  36.872   1.415
57006W        W20730  32.411  15.622   4.600
57007W        W20731  38.897  12.842  10.581
57008W        W20732  42.359   5.925  14.951
57009W        W20733  31.566  44.301  10.625
57010W        W20734  39.820  12.160   2.828
57011W        W20735  33.053  12.181   3.827
57012W        W20736  25.201  19.153   1.351
57013W        W20737  24.140  32.403  14.468
57014W        W20738  32.450  10.769  13.939
57015W        W20739  27.969   4.223   1.758
57016W        W20740  25.099  18.585   2.688
57017W        W20741  41.415  17.134  12.554
57018W        W20742  22.199  10.825  11.412
57019W        W20743  36.968  23.136   2.346
57020W        W20744  34.511  37.473   5.277
57021W        W20745  24.185  24.697  13.910
57022W        W20746   9.884  22.719  11.378
57023W        W20747  33.925  18.629   1.789
57024W        W20748  27.591  24.995   0.382
57025W        W20749  32.976  34.378  10.501
57026W        W20750   3.461  18.123  13.372
57027W        W20751  18.210  19.737  12.867
57028W        W20752  12.798   1.276  14.931
57029W        W20753  16.126  12.801   3.233
57030W        W20754  40.858  26.078  13.371
57031W        W20755  27.484  43.808   1.905
57032W        W20756  31.078  35.534  11.372
57033W        W20757  25.068   6.921   4.735
57034W        W20758  42.403   3.824  14.419
57035W        W20759  29.100  20.759  11.034
57036W        W20760  13.332  17.293   4.263
57037W        W20761  26.664   8.324   2.744
57038W        W20762  43.972   6.765  12.340
57039W        W20763   5.800  20.259  14.866
57040W        W20764  18.247   3.271  10.514
57041W        W20765  11.216  35.936  13.014
57042W        W20766  18.764  19.253   2.693
57043W        W20767  35.107  29.141  14.463
57044W        W20768  11.822   6.420  14.402
57045W        W20769  36.884  39.340   3.292
57046W        W20770  20.594  28.455  13.364
57047W        W20771  32.463  38.385   0.796
57048W        W20772  21.747  33.468  11.901
57049W        W20773  44.303  38.434  14.515
57050W        W20774  27.038  25.991  11.003
57051W        W20775  17.162   0.871  12.852
57052W        W20776  27.067  31.955   0.318
57053W        W20777  25.047  14.290  12.501
57054W        W20778  20.212  41.418   0.799
57055W        W20779  19.173  31.643   0.471
57056W        W20780  14.210   6.195  14.917
57057W        W20781  18.067   1.806   4.230
57058W        W20782  24.503  15.123  14.298
57059W        W20783  43.002  23.598   4.243
57060W        W20784   4.890  42.506  13.484
57061W        W20785  26.533   8.239  11.377
57062W        W20786  34.559  42.485  13.968
57063W        W20787  32.616  43.456  11.534
57064W        W20788  14.634  15.224   0.402
57065W        W20789   9.750  32.127  11.462
57066W        W20790  37.349  44.306  11.399
57067W        W20791  10.733  24.041  10.416
57068W        W20792  17.802  10.702  14.828
57069W        W20793  10.325   8.871   4.721
57070W        W20794  12.820  28.453  14.306
57071W        W20795  34.948   3.873   0.826
57072W        W20796   6.704   6.318  13.375
57073W        W20797  16.150  29.625  11.439
57074W        W20798  28.185  16.677   2.724
57075W        W20799  30.624  12.338   3.287
57076W        W20800  41.847  38.967   1.792
57077W        W20801   9.340  17.136  10.070
57078W        W20802  42.290  14.336  14.938
57079W        W20803  14.163  43.835  13.427
57080W        W20804   7.822  39.998  14.818
57081W        W20805  23.158  43.383   0.941
57082W        W20806   3.236  37.357  12.512
57083W        W20807  41.401  38.570  14.391
57084W        W20808   3.339   7.832   2.337
57085W        W20809  21.095   4.384   0.264
57086W        W20810  35.545  24.712   4.701
57087W        W20811  31.955  35.987  12.579
57088W        W20812  33.885  25.534  11.474
57089W        W20813  28.503   8.300  11.469
57090W        W20814   5.915   9.687  10.981
57091W        W20815  22.580  41.814  14.915
57092W        W20816  32.142  41.534   0.867
57093W        W20817  13.203  29.026   3.303
57094W        W20818  34.924   8.757  10.132
57095W        W20819  40.502  14.677  11.567
57096W        W20820  41.017  34.603   2.322
57097W        W20821  39.506  11.752  14.960
57098W        W20822   8.759  17.610  14.858
57099W        W20823   9.698  35.992   3.715
57100W        W20824  18.632  24.714  10.415
57101W        W20825   8.402  40.013   0.473
57102W        W20826  15.604   2.849  11.471
57103W        W20827  15.253   1.243  13.357
57104W        W20828  31.519  30.085   3.739
57105W        W20829   6.802  38.930   1.882
57106W        W20830  23.639  14.254  10.935
57107W        W20831  43.850  18.164  14.838
57108W        W20832   7.411   3.786  11.406
57109W        W20833  43.808  33.523   3.197
57110W        W20834  24.510  24.674   0.420
57111W        W20835  30.059  10.161  14.984
57112W        W20836   3.838  10.323  12.876
57113W        W20837  44.829   8.252   2.785
57114W        W20838  26.511  16.110  14.411
57115W        W20839   2.422   8.266   3.638
57116W        W20840  11.283  18.610   4.795
57117W        W20841  31.105  44.838   2.378
57118W        W20842  41.898  18.076  11.900
57119W        W20843  16.567  12.360   3.297
57120W        W20844  26.093  39.985   4.716
57121W        W20845  22.683  21.747   3.212
57122W        W20846  14.763  39.821  10.451
57123W        W20847  12.716  42.966   3.256
57124W        W20848  14.133  38.988   1.303
57125W        W20849  44.989   6.728   3.852
57126W        W20850   5.253  38.921   1.354
57127W        W20851  15.237  32.887   3.383
57128W        W20852   3.377  17.274  13.393
57129W        W20853  38.475  40.909   1.814
57130W        W20854  37.371   6.265  12.016
57131W        W20855   4.772  25.691  13.508
57132W        W20856   1.277   0.931  14.340
57133W        W20857   4.323  19.632  12.525
57134W        W20858  19.695  38.998  10.138
57135W        W20859  16.615   5.351  12.944
57136W        W20860  17.667   6.216  14.405
57137W        W20861  16.598  25.178   3.674
57138W        W20862  25.029  18.222  11.435
57139W        W20863  37.062  17.237  12.988
57140W        W20864  12.266  32.938   2.233
57141W        W20865  32.630   5.880   3.655
57142W        W20866   9.884   7.313  11.600
57143W        W20867  40.403   4.410  11.427
57144W        W20868  27.517  25.044  11.858
57145W        W20869  31.108  33.963   4.819
57146W        W20870  27.602  25.981  12.376
57147W        W20871  32.406  18.600  14.789
57148W        W20872  17.570  28.670  11.032
57149W        W20873  41.391  11.730   3.767
57150W        W20874  11.132  41.495  11.534
57151W        W20875  30.158   4.449   4.611
57152W        W20876  21.142  11.789   4.683
57153W        W20877  42.995   5.234   1.743
57154W        W20878   9.700  38.020   4.627
57155W        W20879  11.748  36.438  11.032
57156W        W20880  29.963  36.386   3.360
57157W        W20881   6.837  22.226   3.725
57158W        W20882  14.711  18.166   2.846
57159W        W20883   7.330   9.294   1.847
57160W        W20884  11.355  44.419  10.952
57161W        W20885   4.334  16.235   3.745
57162W        W20886  22.129  27.489  10.136
57163W        W20887  17.679  33.492  14.856
57164W        W20888   9.701  41.877  14.018
57165W        W20889  10.371  29.555  13.499
57166W        W20890  36.376  25.500  12.999
57167W        W20891  32.082  27.479  14.025
57168W        W20892  44.360   8.361  12.376
57169W        W20893  30.120  32.607   0.355
57170W        W20894   5.362  17.558  11.087
57171W        W20895  21.238  26.185  13.941
57172W        W20896  36.350   5.772   4.614
57173W        W20897  41.319  23.195  13.357
57174W        W20898   1.368  22.242  14.880
57175W        W20899   2.354   4.720  12.053
57176W        W20900  38.570  18.789   2.777
57177W        W20901  37.004  43.514   0.929
57178W        W20902  23.155  29.928   1.890
57179W        W20903  21.544  26.556   3.751
57180W        W20904  20.644  28.108  14.854
57181W        W20905  12.679   7.401  14.843
57182W        W20906  25.667   0.268   1.354
57183W        W20907   1.792  38.914  14.345
57184W        W20908  38.476  28.161  11.090
57185W        W20909  30.419   4.730   2.292
57186W        W20910  10.640   2.416   1.902
57187W        W20911  13.303  27.570   2.285
57188W        W20912   9.743  21.730  13.510
57189W        W20913   2.725  28.162   2.893
57190W        W20914  23.054   6.908   0.482
57191W        W20915  36.978  29.046  13.051
57192W        W20916  27.197  32.557   1.282
57193W        W20917   2.412  24.554   0.391
57194W        W20918  42.398  17.284  10.514
57195W        W20919  30.075  23.128  14.822
57196W        W20920  32.062  15.099  11.467
57197W        W20921  18.788   4.818  12.347
57198W        W20922  30.468  30.936   1.326
57199W        W20923  34.428  27.018  13.517
57200W        W20924   0.315  42.501   3.307
57201W        W20925  26.660  14.227  11.503
57202W        W20926  24.554  30.644   1.754
57203W        W20927  16.603  11.858   3.354
57204W        W20928  21.566  37.992  12.833
57205W        W20929  29.665  24.499  12.537
57206W        W20930  32.541  13.706   3.861
57207W        W20931  16.648   8.847  12.072
57208W        W20932  33.610  17.250  11.071
57209W        W20933   4.252  33.114   3.858
57210W        W20934  44.292  30.941  12.873
57211W        W20935  23.030  40.032  12.968
57212W        W20936  15.688  24.538   3.318
57213W        W20937   6.875  40.348  14.929
57214W        W20938  30.112  25.999  10.578
57215W        W20939  31.454  43.880   2.849
57216W        W20940  41.469  29.950  12.438
57217W        W20941  43.433  21.167  12.377
57218W        W20942  43.844  15.711   0.806
57219W        W20943  41.499   3.370   4.317
57220W        W20944  26.015  13.708  11.939
57221W        W20945  39.497  34.946  13.796
57222W        W20946   3.439   4.897   1.838
57223W        W20947  42.421  40.534  11.118
57224W        W20948  16.758  35.601   2.875
57225W        W20949  17.270   8.757  13.980
57226W        W20950  11.729  18.791   0.349
57227W        W20951  20.176  19.146  12.465
57228W        W20952   3.435  29.487  12.372
57229W        W20953  38.902  41.510   3.862
57230W        W20954  19.637  39.014   2.704
57231W        W20955  30.639  24.561  10.505
57232W        W20956  26.957  34.413  11.589
57233W        W20957   3.879  44.356  13.514
57234W        W20958  26.154  32.544  13.309
57235W        W20959  43.326  27.540   3.676
57236W        W20960  39.895  16.209   2.249
57237W        W20961   3.774   3.909   0.292
57238W        W20962  39.045  43.366   2.857
57239W        W20963  19.244  19.742   1.719
57240W        W20964   8.855  28.628   4.311
57241W        W20965  34.066  42.950  13.531
57242W        W20966  37.446   1.436  12.510
57243W        W20967   6.799  12.158   0.292
57244W        W20968  29.500  13.332  12.996
57245W        W20969  15.637  43.415  10.962
57246W        W20970  32.068  30.472  13.821
57247W        W20971  15.111  42.816   2.194
57248W        W20972  21.093  28.159   0.453
57249W        W20973   9.799  23.083  11.611
57250W        W20974   0.374   1.424   0.804
57251W        W20975  23.097  25.210   4.223
57252W        W20976   3.269  26.677   2.236
57253W        W20977  25.977   0.343   1.324
57254W        W20978  27.505  26.618   2.247
57255W        W20979   3.239  28.533   0.879
57256W        W20980  26.200   1.847   1.251
57257W        W20981  35.552  11.337  13.431
57258W        W20982  12.176  14.306  14.455
57259W        W20983   4.332  39.048  11.379
57260W        W20984  14.622  42.368  11.858
57261W        W20985  39.518  17.100  13.392
57262W        W20986  43.954  17.221  14.799
57263W        W20987  35.020  33.016  12.009
57264W        W20988  12.669  35.390  13.348
57265W        W20989  37.909  12.321   2.877
57266W        W20990  33.613  30.931   0.883
57267W        W20991  21.161   5.352   3.864
57268W        W20992  37.853  12.713   3.159
57269W        W20993  29.641  15.113   3.164
57270W        W20994  35.430  16.637  11.543
57271W        W20995  29.444  26.954   1.264
57272W        W20996  25.059   7.209  10.479
57273W        W20997  42.873  43.384  12.487
57274W        W20998  17.800   2.724  13.503
57275W        W20999   8.885  16.744  11.481
57276W        W21000  23.509  12.320  13.040
57277W        W21001  16.598  21.259  12.474
57278W        W21002  31.536  42.882  13.941
57279W        W21003   2.752  14.248   4.236
57280W        W21004   0.953  33.008  12.052
57281W        W21005  37.353  32.076  13.992
57282W        W21006  44.504  36.592   1.826
57283W        W21007  41.320  31.450  11.887
57284W        W21008  14.307  23.990   1.254
57285W        W21009  15.676  35.517   0.963
57286W        W21010  26.701  27.487  12.888
57287W        W21011  40.526  12.646  13.464
57288W        W21012   6.406  26.109  12.406
57289W        W21013  17.246  43.504  11.118
57290W        W21014  36.949  41.030  14.887
57291W        W21015  19.541  26.956  12.061
57292W        W21016   9.178   1.904   4.828
57293W        W21017  11.681  12.170   2.312
57294W        W21018  19.111  34.966   3.199
57295W        W21019   8.360   6.210   4.630
57296W        W21020   6.801  40.015  11.396
57297W        W21021   0.926   4.431  12.350
57298W        W21022  27.672  16.812  11.007
57299W        W21023  40.871   5.687  12.360
57300W        W21024  38.890   4.754   5.291
57301W        W21025  21.689  23.630   2.404
57302W        W21026  29.953  41.827  12.374
57303W        W21027  12.801   2.234   3.638
57304W        W21028  35.472   4.845   3.796
57305W        W21029  14.239  29.078   0.761
57306W        W21030   8.823  20.704   2.294
57307W        W21031  15.171  43.381  13.929
57308W        W21032  37.512  37.522  12.483
57309W        W21033  37.837   0.848   2.313
57310W        W21034  29.943   7.733   3.265
57311W        W21035  19.705  20.254   1.902
57312W        W21036  18.247   9.816  14.427
57313W        W21037  41.799   1.971  14.516
57314W        W21038   2.239  15.760   4.639
57315W        W21039  16.240  22.502   0.278
57316W        W21040  29.920  27.944  10.576
57317W        W21041  23.618  42.948   2.798
57318W        W21042   4.916  30.026  11.528
57319W        W21043  24.164  40.016  13.435
57320W        W21044  10.860  27.633   0.254
57321W        W21045   4.716  18.770   3.264
57322W        W21046  10.693  12.788   1.750
57323W        W21047  39.349  33.874   3.715
57324W        W21048  31.906   1.842   0.436
57325W        W21049  28.534   4.771   0.332
57326W        W21050  18.092  30.463   2.823
57327W        W21051  35.501  40.888   4.199
57328W        W21052  23.026   8.322   0.447
57329W        W21053   0.964  43.953  12.443
57330W        W21054  10.286  17.161  13.999
57331W        W21055  38.440   8.379   0.273
57332W        W21056   8.328   5.806  14.919
57333W        W21057  20.713  40.465   5.221
57334W        W21058  29.159  36.410   2.363
57335W        W21059  27.471  35.592   0.383
57336W        W21060  33.906  35.478   1.378
57337W        W21061   6.331   8.388   0.807
57338W        W21062  12.198   1.348  13.416
57339W        W21063  25.069  43.898   4.598
57340W        W21064  34.396  20.765   4.289
57341W        W21065   9.872  29.040   1.320
57342W        W21066   1.910   3.403  12.379
57343W        W21067  36.356  34.535   1.354
57344W        W21068  41.412  43.508  12.035
57345W        W21069  40.854  39.921  12.975
57346W        W21070  32.117  44.504  14.806
57347W        W21071  19.209  10.877  13.063
57348W        W21072  27.623   6.899  13.965
57349W        W21073  10.143  12.192   2.844
57350W        W21074  35.856  10.809   0.898
57351W        W21075  29.584   2.250  10.580
57352W        W21076  31.445   5.740  11.906
57353W        W21077  11.767  24.125  14.790
57354W        W21078  32.989   0.982  11.064
57355W        W21079  19.211  29.588   1.224
57356W        W21080  34.539  28.026  14.027
57357W        W21081   2.744  42.945  10.607
57358W        W21082  26.067  10.706  11.471
57359W        W21083  30.940   0.494   1.774
57360W        W21084  22.177  40.924   9.471
57361W        W21085  43.825  25.627   1.767
57362W        W21086  35.390  32.452  14.308
57363W        W21087  26.521  33.097   3.219
57364W        W21088  32.402  27.067   4.739
57365W        W21089  41.309  19.128  12.877
57366W        W21090  24.144  24.170   3.246
57367W        W21091  26.547  11.859   1.927
57368W        W21092   5.220   1.760  10.972
57369W        W21093  40.424  27.131   2.703
57370W        W21094  41.342  35.398  12.375
57371W        W21095  42.023   1.883   2.384
57372W        W21096  36.942   4.209  12.900
57373W        W21097  37.490   8.716  10.124
57374W        W21098  29.149  34.471   4.823
57375W        W21099  44.002  36.077  12.578
57376W        W21100  34.567  14.811   3.774
57377W        W21101  12.762  14.222  11.928
57378W        W21102  18.125  40.986   3.378
57379W        W21103  16.638  36.885   4.604
57380W        W21104  21.597   9.326   2.776
57381W        W21105  35.515  32.138   0.736
57382W        W21106  24.112  21.032   1.396
57383W        W21107  17.558  13.687   2.771
57384W        W21108  23.619  37.024   3.215
57385W        W21109  31.529  27.582  14.496
57386W        W21110  31.429  38.561  11.043
57387W        W21111  40.406  13.200  11.978
57388W        W21112  44.926   9.326   2.411
57389W        W21113  16.600  21.698  11.985
57390W        W21114  35.452  37.391   0.315
57391W        W21115  43.853  38.839   0.901
57392W        W21116  12.676  30.127  10.946
57393W        W21117  15.808  27.581   9.928
57394W        W21118  32.910  11.187   1.865
57395W        W21119  19.057  13.222  13.791
57396W        W21120   2.834  29.005   4.664
57397W        W21121  43.447  34.036  14.768
57398W        W21122   9.377  29.667   3.253
57399W        W21123  23.730  34.446   3.215
57400W        W21124  40.499  32.996  12.854
57401W        W21125  26.963  38.331   1.931
57402W        W21126  11.656  19.769   1.281
57403W        W21127  31.906   4.428  10.008
57404W        W21128  44.841  39.462   1.254
57405W        W21129  35.481  31.413  13.309
57406W        W21130  16.677  43.489   4.805
57407W        W21131  13.336  19.657   1.910
57408W        W21132  19.145  14.199  14.822
57409W        W21133  37.881  21.142  12.968
57410W        W21134  14.631  14.144  12.351
57411W        W21135   1.358  11.666  10.928
57412W        W21136  19.536  35.993  12.360
57413W        W21137  21.140  12.351   1.720
57414W        W21138  42.303  36.097  11.981
57415W        W21139   1.891  30.934   0.845
57416W        W21140  32.595  36.870  11.503
57417W        W21141  19.113  13.141   5.298
57418W        W21142  25.532  29.167   3.303
57419W        W21143  27.459  20.135   1.852
57420W        W21144   2.752  23.675  14.420
57421W        W21145   7.214  39.459   2.813
57422W        W21146  43.331  24.664   5.297
57423W        W21147  38.825  12.845   3.207
57424W        W21148  24.141  41.331  12.533
57425W        W21149  25.531  33.583   3.666
57426W        W21150  16.218  14.823   1.803
57427W        W21151  25.026  28.631  12.889
57428W        W21152  36.986  42.792   4.599
57429W        W21153  36.536   3.425  12.876
57430W        W21154   1.361  11.242  12.848
57431W        W21155   8.311  21.024  11.002
57432W        W21156  19.772  36.982  14.937
57433W        W21157  33.504  35.501  11.059
57434W        W21158  27.451  37.956  14.967
57435W        W21159  43.435   5.754   2.872
57436W        W21160   1.370  39.493  11.568
57437W        W21161  28.675   0.273  14.993
57438W        W21162  34.584   6.316  13.414
57439W        W21163  18.204  28.930  12.961
57440W        W21164   9.190  10.141  11.893
57441W        W21165  33.917  29.555   0.351
57442W        W21166  31.984   7.238   1.236
57443W        W21167  41.423  41.803  11.858
57444W        W21168   5.237  28.676   0.452
57445W        W21169  22.040  28.483  11.592
57446W        W21170  25.520  30.543  10.453
57447W        W21171  12.789  33.432   1.930
57448W        W21172  36.424   0.303   0.729
57449W        W21173  40.434  20.239  10.637
57450W        W21174  14.095   8.720  14.785
57451W        W21175  19.600   3.903  10.637
57452W        W21176   4.423  12.302  10.639
57453W        W21177   2.281   3.721  10.482
57454W        W21178   3.327  23.518   2.695
57455W        W21179  44.471  23.082   4.314
57456W        W21180  16.123  34.531   0.932
57457W        W21181   1.898  14.773  12.343
57458W        W21182   5.925  15.621   0.877
57459W        W21183  33.069  27.100   2.769
57460W        W21184  41.320  19.235  13.347
57461W        W21185   8.804  18.575   1.852
57462W        W21186   3.905  12.855  12.345
57463W        W21187  39.450  33.913   1.791
57464W        W21188  29.496  16.781  10.892
57465W        W21189  35.061  27.454  11.459
57466W        W21190   6.797  17.673  10.454
57467W        W21191  43.296  22.181  14.821
57468W        W21192  35.978  41.352  11.525
57469W        W21193  24.099  18.730   3.279
57470W        W21194  44.773  25.669  13.392
57471W        W21195  31.034  41.538   1.871
57472W        W21196  24.573  24.491  11.414
57473W        W21197  30.432  40.526   3.793
57474W        W21198   9.814  37.076  11.574
57475W        W21199  25.131  34.016   1.419
57476W        W21200  13.234  18.668   1.362
57477W        W21201  26.127  19.640  12.899
57478W        W21202  26.552   1.300  12.919
57479W        W21203   8.335  29.602  13.403
57480W        W21204  11.170  33.417   3.839
57481W        W21205  36.943  44.826  14.901
57482W        W21206  28.669  26.017   4.292
57483W        W21207  17.213  32.486  12.550
57484W        W21208   9.790  23.657  10.563
57485W        W21209  28.008   9.890  13.908
57486W        W21210  11.789  13.270   0.820
57487W        W21211  40.024  20.654   0.277
57488W        W21212  43.504  39.018  14.027
57489W        W21213  27.124   8.265   4.689
57490W        W21214   2.812  23.647  13.313
57491W        W21215   9.251   4.264  10.985
57492W        W21216  12.167   3.387   4.331
57493W        W21217  35.100   2.826   4.678
57494W        W21218  40.308  34.093  14.933
57495W        W21219  32.411  30.430   0.312
57496W        W21220  15.227  24.592   3.801
57497W        W21221   5.871  36.036  11.118
57498W        W21222  22.228  10.261   2.216
57499W        W21223  29.129   7.747  14.844
57500W        W21224  25.993  40.009   3.350
57501W        W21225  11.701  26.584   3.262
57502W        W21226   9.694  19.707   1.915
57503W        W21227  22.734  31.558  12.955
57504W        W21228  34.079   1.973  11.404
57505W        W21229  17.226  42.836  13.356
57506W        W21230  27.091   4.792   3.778
57507W        W21231  31.453  39.328   0.731
57508W        W21232  23.095  27.589  14.435
57509W        W21233  29.556  21.682   4.314
57510W        W21234   8.245  26.547   0.351
57511W        W21235  19.119  35.386   4.667
57512W        W21236  26.033  15.201  14.420
57513W        W21237   6.324  30.653   4.699
57514W        W21238  37.422  14.149   3.857
57515W        W21239  29.995  22.024   3.780
57516W        W21240   3.437  33.470  13.018
57517W        W21241  42.316  28.525  13.422
57518W        W21242  17.289   2.233  11.536
57519W        W21243  36.391  19.601  11.913
57520W        W21244  34.893  22.075  14.417
57521W        W21245   8.193  13.248   2.395
57522W        W21246  41.525   3.757  13.897
57523W        W21247  30.995  30.626  12.998
57524W        W21248  13.344  31.124   0.783
57525W        W21249  34.503  23.180   3.367
57526W        W21250  41.410   2.862   3.234
57527W        W21251  23.108   0.855   3.270
57528W        W21252  24.562  38.538   0.269
57529W        W21253  20.531  31.094  12.500
57530W        W21254  36.066  13.197  11.082
57531W        W21255  22.089  29.526   0.938
57532W        W21256  28.950  44.490  12.897
57533W        W21257  29.056  25.560   3.844
57534W        W21258  18.101  32.473  11.918
57535W        W21259  34.077   5.372   0.446
57536W        W21260  32.571  36.556   0.325
57537W        W21261   5.840  20.598   3.158
57538W        W21262  27.040  31.991  10.966
57539W        W21263  17.062  16.254  11.090
57540W        W21264  22.511  35.421   3.677
57541W        W21265  34.898   4.334   1.697
57542W        W21266  23.597  11.727  10.551
57543W        W21267   5.202  24.094  13.534
57544W        W21268  11.815   4.399  14.401
57545W        W21269  12.130   2.860   1.234
57546W        W21270  26.647  22.532   3.377
57547W        W21271  34.595   6.820   0.313
57548W        W21272  25.621   9.810   3.337
57549W        W21273  38.459  41.437   4.353
57550W        W21274  11.835  22.148  12.945
57551W        W21275   1.444  36.858   2.754
57552W        W21276  43.826  16.143   1.353
57553W        W21277  27.997  32.115   2.811
57554W        W21278  13.600  35.570  12.379
57555W        W21279   0.977  18.163  12.442
57556W        W21280  27.189   2.242   4.604
57557W        W21281  32.064   8.176   1.365
57558W        W21282  38.025  32.498   3.668
57559W        W21283  17.066  33.445  12.919
57560W        W21284  11.731   9.644  14.324
57561W        W21285  30.109  36.915   3.336
57562W        W21286  43.457  14.815  14.491
57563W        W21287   8.792  13.253   0.369
57564W        W21288  21.251  38.053   0.383
57565W        W21289  14.212  36.094  13.940
57566W        W21290   2.408  23.541   3.226
57567W        W21291  37.347  18.071   3.805
57568W        W21292  42.996  19.272   3.775
57569W        W21293   4.940  29.425   1.408
57570W        W21294  37.552  25.707   3.238
57571W        W21295  19.581   9.770   3.629
57572W        W21296  30.914  29.601  13.875
57573W        W21297  27.112  30.934   4.137
57574W        W21298  29.614   1.860   2.822
57575W        W21299   2.882  14.174  12.490
57576W        W21300  30.930   9.755   2.837
57577W        W21301  42.984  36.897   3.641
57578W        W21302   3.921  33.449   0.760
57579W        W21303  14.696  27.115   4.746
57580W        W21304  18.196  22.157   0.355
57581W        W21305  41.843  34.379  13.397
57582W        W21306  28.084  39.413  11.995
57583W        W21307   2.353   4.723   0.302
57584W        W21308  10.713  29.433  11.981
57585W        W21309  18.091   5.220   0.746
57586W        W21310   2.963  18.724  14.781
57587W        W21311  36.569   5.822  14.977
57588W        W21312  33.888  34.421   4.151
57589W        W21313  16.742  23.996  11.088
57590W        W21314  10.175  12.251   0.858
57591W        W21315  21.070  43.768   0.740
57592W        W21316   8.203  32.556  11.867
57593W        W21317  17.736  13.777  13.963
57594W        W21318  38.454  33.922   3.315
57595W        W21319  17.212  12.289   3.748
57596W        W21320  37.917  16.706   1.413
57597W        W21321  21.141  28.044   0.947
57598W        W21322  12.152  10.307   1.307
57599W        W21323  37.838  32.453  12.490
57600W        W21324  31.015  35.571  12.825
57601W        W21325  20.604  14.115  11.995
57602W        W21326  30.999  36.904   4.338
57603W        W21327  16.313   9.153   4.661
57604W        W21328   2.417  41.460  14.492
57605W        W21329  37.866  17.737  12.354
57606W        W21330   4.362  14.625   2.374
57607W        W21331  38.834   8.406   3.246
57608W        W21332   0.440  33.586  12.485
57609W        W21333  32.469  31.406  13.990
57610W        W21334   6.678   9.252   9.537
57611W        W21335   6.802  38.565  11.559
57612W        W21336  15.210  24.157  11.070
57613W        W21337  28.563  37.394   2.901
57614W        W21338  26.605  16.598  12.957
57615W        W21339   8.688  13.764  12.005
57616W        W21340  14.618  36.927   1.300
57617W        W21341  40.492  21.663   1.296
57618W        W21342  41.523  19.221   2.310
57619W        W21343  30.977  10.228  13.941
57620W        W21344   1.973  41.436   2.776
57621W        W21345  31.902  30.034   1.365
57622W        W21346  40.423   9.821  10.472
57623W        W21347  34.610  24.064  10.922
57624W        W21348  33.499  34.932  12.956
57625W        W21349  30.615  19.663   1.405
57626W        W21350  15.122  25.478   3.812
57627W        W21351  11.847  23.117   0.446
57628W        W21352  26.157  41.820   4.132
57629W        W21353  13.116  32.108  13.428
57630W        W21354  42.887  41.844   2.790
57631W        W21355  37.954   7.206   0.440
57632W        W21356  11.176  28.951   2.867
57633W        W21357  30.615  10.722  11.969
57634W        W21358  17.238   9.800  14.851
57635W        W21359  33.507   2.287  11.895
57636W        W21360  13.741  40.534  14.000
57637W        W21361   2.266  15.787  12.575
57638W        W21362  32.140  43.288   2.334
57639W        W21363   2.780  24.088   2.234
57640W        W21364  32.959  44.790   4.258
57641W        W21365  34.448  34.568   2.828
57642W        W21366  42.944  12.156   2.314
57643W        W21367  42.323  41.413  14.497
57644W        W21368  11.746  11.269  11.880
57645W        W21369   5.918  43.413   4.205
57646W        W21370  37.565   5.201  14.409
57647W        W21371   4.844  29.646  13.484
57648W        W21372   7.273  11.811  12.043
57649W        W21373  29.049  38.830   4.285
57650W        W21374  14.785  17.092  13.795
57651W        W21375  13.660  33.576   3.217
57652W        W21376  39.998  19.739   1.412
57653W        W21377   8.223  24.660   3.227
57654W        W21378   2.424   2.860   4.248
57655W        W21379  35.486  10.165  13.025
57656W        W21380  24.519   1.425  10.961
57657W        W21381  25.013  21.099   0.753
57658W        W21382   6.759  43.892   2.236
57659W        W21383  39.015  42.395   1.804
57660W        W21384   1.946  43.352   4.598
57661W        W21385  35.070  28.972  10.597
57662W        W21386  22.567   7.706   3.716
57663W        W21387  36.940  39.500   1.217
57664W        W21388  34.017  28.449   1.352
57665W        W21389   0.753  39.325  11.377
57666W        W21390   9.323   4.796   9.921
57667W        W21391  10.271  15.237  13.454
57668W        W21392  35.858  36.399  12.025
57669W        W21393   0.476  35.902   1.795
57670W        W21394   4.386  28.532   0.896
57671W        W21395  31.963  29.986  14.448
57672W        W21396   0.366  24.043   0.247
57673W        W21397  11.715  18.198  13.416
57674W        W21398  16.692   0.493  14.778
57675W        W21399   6.313  19.547  14.766
57676W        W21400  35.559  22.035  13.954
57677W        W21401   8.373  18.086   0.447
57678W        W21402  41.488  12.308   3.736
57679W        W21403  23.602   9.699  11.917
57680W        W21404  17.077  15.757   3.303
57681W        W21405  13.764  43.287  12.535
57682W        W21406  14.744   9.375   1.242
57683W        W21407   3.832  27.049   2.200
57684W        W21408  25.052  33.884   0.890
57685W        W21409  42.011  40.530  13.472
57686W        W21410  22.634  30.150  13.329
57687W        W21411  28.006  21.584   4.684
57688W        W21412  18.074  32.992  13.514
57689W        W21413  41.001  39.474  11.049
57690W        W21414  30.944   7.407  14.310
57691W        W21415   2.229   8.773   3.629
57692W        W21416   6.323  43.801  14.421
57693W        W21417   0.843  40.960   2.825
57694W        W21418   1.962  39.909  13.878
57695W        W21419   6.186  15.696  10.004
57696W        W21420  32.046  14.180  11.397
57697W        W21421  13.776  18.167   1.300
57698W        W21422   2.371  22.643   3.171
57699W        W21423  12.842  30.457   1.217
57700W        W21424  38.932  17.789  14.500
57701W        W21425   2.403  29.556  12.989
57702W        W21426  30.107  29.045  14.825
57703W        W21427  26.547  25.170   3.655
57704W        W21428   6.886   6.915   1.696
57705W        W21429  41.945  18.588   0.480
57706W        W21430  18.117   7.753   1.374
57707W        W21431  14.257  34.394  12.073
57708W        W21432   0.491  13.612  10.428
57709W        W21433   1.302  23.158   1.911
57710W        W21434   9.306   3.903  14.445
57711W        W21435  12.712  35.511  12.076
57712W        W21436  25.689  16.248  13.802
57713W        W21437   0.936  12.798  10.573
57714W        W21438   4.867  43.365  13.544
57715W        W21439   9.781  34.979  11.437
57716W        W21440  11.315  32.903  14.793
57717W        W21441   7.837   6.233  10.597
57718W        W21442   7.187  18.167  11.957
57719W        W21443  13.331  15.272  14.274
57720W        W21444   8.713  28.945   1.816
57721W        W21445  36.462  14.338   9.980
57722W        W21446  23.226   4.205   4.637
57723W        W21447  10.637  41.346   3.717
57724W        W21448   4.310   2.392   0.327
57725W        W21449  14.213  29.526   0.779
57726W        W21450  44.396   8.199  11.471
57727W        W21451  38.352  22.097   1.760
57728W        W21452   5.340   8.389  10.637
57729W        W21453  15.252  13.680   2.732
57730W        W21454  22.615  38.381  14.822
57731W        W21455   0.299  22.678  10.629
57732W        W21456  12.710  24.132  13.466
57733W        W21457  15.733  24.216  13.009
57734W        W21458  37.345  20.044  13.364
57735W        W21459   6.329   0.279   0.435
57736W        W21460  21.059  15.614   4.684
57737W        W21461  37.876  12.315  10.971
57738W        W21462  27.193  41.985  14.940
57739W        W21463   8.805  11.364  13.396
57740W        W21464  14.651   0.779  12.059
57741W        W21465   7.836  21.097  10.971
57742W        W21466   0.789  34.371   4.644
57743W        W21467  28.164  39.368   3.787
57744W        W21468  39.994  40.517  11.472
57745W        W21469  39.063  29.948  14.400
57746W        W21470  30.504  10.830   1.305
57747W        W21471  31.593  44.837   1.845
57748W        W21472  14.335   7.740   2.328
57749W        W21473   4.320  37.060  13.431
57750W        W21474  19.093  29.630   3.167
57751W        W21475   6.252  32.632  13.991
57752W        W21476   9.816   7.248   2.388
57753W        W21477  23.679  19.053  14.283
57754W        W21478  11.675  25.552  11.105
57755W        W21479   5.825  34.536   4.598
57756W        W21480  43.891   2.907  10.966
57757W        W21481  27.577  42.456   1.694
57758W        W21482   7.843  38.434  14.451
57759W        W21483   9.338   2.736   1.889
57760W        W21484   3.914  20.045   2.318
57761W        W21485  30.458  16.183  14.923
57762W        W21486  16.701   1.237  13.498
57763W        W21487   8.786  44.951   3.257
57764W        W21488   8.165  10.839   2.386
57765W        W21489  21.550   2.818  13.327
57766W        W21490   7.376  43.414   3.196
57767W        W21491  37.337   4.252   1.305
57768W        W21492  15.583  16.276  10.147
57769W        W21493  22.191  14.635   3.265
57770W        W21494  25.470   2.422  13.959
57771W        W21495  18.642  11.866   0.769
57772W        W21496  44.478  10.260   3.668
57773W        W21497  25.966  18.068  10.485
57774W        W21498  38.341  40.856   4.647
57775W        W21499  23.153  11.134  14.432
57776W        W21500  37.972  26.156  12.515
57777W        W21501   0.773  22.512   1.384
57778W        W21502   3.794  10.281   2.716
57779W        W21503  42.368  32.619   0.734
57780W        W21504  28.672  29.666   1.898
57781W        W21505  44.495  42.311   0.825
57782W        W21506  34.894  38.441  13.498
57783W        W21507   9.876  13.351  11.875
57784W        W21508   3.826  31.958  14.291
57785W        W21509  33.949  44.765   1.400
57786W        W21510  37.512  34.981   0.282
57787W        W21511  20.589  10.207   0.264
57788W        W21512   0.793  17.633  12.948
57789W        W21513  17.182  12.701  14.344
57790W        W21514  42.444   4.853  11.029
57791W        W21515   0.854  28.162   0.868
57792W        W21516  24.115   7.200   5.101
57793W        W21517  23.731  23.618   2.683
57794W        W21518  30.455  36.030  11.438
57795W        W21519  18.705  10.801  14.293
57796W        W21520  43.331  34.915   4.731
57797W        W21521  41.497  36.881   3.363
57798W        W21522  15.689  11.306  14.835
57799W        W21523  27.049  39.549  13.912
57800W        W21524   2.919  19.134  10.957
57801W        W21525  44.399  37.961  11.450
57802W        W21526  20.038  38.039   1.825
57803W        W21527  33.976  26.514   2.808
57804W        W21528  38.412   3.403  13.401
57805W        W21529   1.277  30.620   0.786
57806W        W21530  33.875  22.747   0.360
57807W        W21531   8.242  13.221  10.524
57808W        W21532  37.922  37.419   0.802
57809W        W21533  23.239  38.354   4.306
57810W        W21534  14.165  28.043  11.968
57811W        W21535   9.809   5.820  13.890
57812W        W21536  15.815  15.709   2.281
57813W        W21537  29.563   6.871  11.436
57814W        W21538  40.924  24.000   3.191
57815W        W21539   9.271   5.902   2.848
57816W        W21540   7.333   9.224   3.209
57817W        W21541  37.037  44.948   0.744
57818W        W21542   0.474  32.509   4.279
57819W        W21543  44.386  21.258   2.211
57820W        W21544  30.433   2.335  12.838
57821W        W21545  23.100  21.212  12.857
57822W        W21546  34.453   4.320  11.561
57823W        W21547   8.689  16.671   1.763
57824W        W21548  10.376  31.493  11.977
57825W        W21549   5.404  11.800   1.288
57826W        W21550  30.018   7.317   1.232
57827W        W21551   5.799   9.648   3.173
57828W        W21552  23.582   3.887  10.904
57829W        W21553  14.174  29.108   1.744
57830W        W21554  12.751  21.029   2.199
57831W        W21555  29.589  28.645   2.180
57832W        W21556   5.687  23.540   1.891
57833W        W21557   8.388  36.869   3.636
57834W        W21558  13.282  38.937   2.831
57835W        W21559  41.041  11.183  11.987
57836W        W21560  44.884   7.288   1.385
57837W        W21561  43.915  22.536   0.253
57838W        W21562  14.734   5.866  13.399
57839W        W21563  30.149  22.163   2.384
57840W        W21564  41.988   5.798  11.049
57841W        W21565  35.927   6.761  11.942
57842W        W21566  37.564  14.226  13.820
57843W        W21567  39.372  30.632  13.409
57844W        W21568  12.761   2.405  12.580
57845W        W21569  28.594  23.141   3.345
57846W        W21570   6.372   6.422  13.483
57847W        W21571  36.930  14.267  11.929
57848W        W21572  41.351  35.431  14.903
57849W        W21573  39.055  34.536   2.709
57850W        W21574  40.937  26.700   1.257
57851W        W21575  30.632   4.261  12.828
57852W        W21576   0.428   0.892  13.342
57853W        W21577  21.541  35.597   1.401
57854W        W21578  11.644  14.699  10.988
57855W        W21579   4.857  22.050  13.471
57856W        W21580   0.277  38.345  11.517
57857W        W21581  13.205   9.298   3.760
57858W        W21582  23.502  38.012   2.367
57859W        W21583  25.184  15.248  10.927
57860W        W21584  32.040  33.040  10.611
57861W        W21585   1.925  31.979  11.532
57862W        W21586  22.204  26.599   0.751
57863W        W21587  29.116  21.615   4.805
57864W        W21588  24.577  35.357   1.846
57865W        W21589  23.075  27.511   4.654
57866W        W21590  26.954   5.305   2.750
57867W        W21591  27.149  31.411   3.286
57868W        W21592  44.421  23.131   2.292
57869W        W21593  25.612  36.933  11.946
57870W        W21594  43.772  20.255   3.146
57871W        W21595  39.891  39.407  10.952
57872W        W21596  16.148  19.633   1.303
57873W        W21597  33.575  32.635   4.809
57874W        W21598  32.020   2.721  11.053
57875W        W21599  40.969   8.257   1.876
57876W        W21600   2.459  31.075   0.805
57877W        W21601   6.782  15.769  10.505
57878W        W21602  38.541  32.068  14.773
57879W        W21603   5.777  12.764   0.890
57880W        W21604  29.105  33.056  13.801
57881W        W21605  10.810  38.899  12.885
57882W        W21606  11.687  38.332   4.829
57883W        W21607  41.469  34.444  14.410
57884W        W21608  23.517   2.353   3.368
57885W        W21609   4.210  35.592  13.310
57886W        W21610  25.975   2.307   0.285
57887W        W21611  34.066  27.065   3.826
57888W        W21612  25.495  21.142   5.149
57889W        W21613  19.582   5.267   4.302
57890W        W21614  25.520  13.347  14.343
57891W        W21615  34.463  28.588  14.282
57892W        W21616  38.069  19.095  14.332
57893W        W21617   9.297  18.294  13.009
57894W        W21618   9.793  19.718  11.541
57895W        W21619  31.075   5.403   0.482
57896W        W21620  30.975  39.482  13.539
57897W        W21621   0.784  35.421   3.776
57898W        W21622   2.411  41.917   0.931
57899W        W21623   1.334  18.133  13.860
57900W        W21624  40.903  41.338  12.562
57901W        W21625  42.408  36.878   0.777
57902W        W21626  25.699  44.504   2.415
57903W        W21627  42.281  39.381  12.534
57904W        W21628  16.787  36.026  13.402
57905W        W21629   0.823  34.084  13.043
57906W        W21630  23.213  31.920  11.886
57907W        W21631  36.066  19.572   3.711
57908W        W21632   7.668  28.120  13.330
57909W        W21633  44.003  17.193   2.758
57910W        W21634  30.491  23.642  11.528
57911W        W21635  40.908  33.064  14.342
57912W        W21636   3.867  29.085  11.509
57913W        W21637  44.923  20.102   1.234
57914W        W21638   1.408  22.011   1.278
57915W        W21639  33.114  15.637  10.602
57916W        W21640  31.973  28.989  13.451
57917W        W21641  38.464  34.427  11.407
57918W        W21642   9.242  10.259   5.222
57919W        W21643   8.724  26.460  13.460
57920W        W21644  20.714  42.798  10.610
57921W        W21645   5.376  13.185   1.904
57922W        W21646  44.758  38.356   1.843
57923W        W21647  23.054   1.910  10.606
57924W        W21648  31.140  13.219   3.383
57925W        W21649  13.839  23.222   2.210
57926W        W21650  29.432  27.079   4.768
57927W        W21651   2.307  12.820   4.801
57928W        W21652  11.324   2.318  14.485
57929W        W21653  25.088  28.629   2.826
57930W        W21654  17.164  13.321  12.481
57931W        W21655   2.340  11.766  13.435
57932W        W21656   4.750  43.329   0.931
57933W        W21657  26.534  27.655  10.910
57934W        W21658  26.528  32.035   4.647
57935W        W21659  43.947  39.450  11.497
57936W        W21660  43.465  10.184   4.632
57937W        W21661  32.635   7.203  13.381
57938W        W21662   5.797  21.262  14.813
57939W        W21663   4.882  13.292   0.257
57940W        W21664  21.032  10.219  10.484
57941W        W21665   2.325  11.325  10.147
57942W        W21666   1.266  29.514   4.777
57943W        W21667  28.544   5.309  11.404
57944W        W21668   7.252  11.654  10.430
57945W        W21669  34.996  36.486  13.888
57946W        W21670  19.074  27.522   3.700
57947W        W21671  30.512   7.321  10.146
57948W        W21672  27.454  44.785   4.601
57949W        W21673   8.841  13.319  12.020
57950W        W21674   0.450  18.222  12.376
57951W        W21675  16.651   3.831  13.884
57952W        W21676  26.457  19.545  11.097
57953W        W21677  41.798   3.440   2.263
57954W        W21678   5.768  13.340   4.667
57955W        W21679   0.279  38.326   1.923
57956W        W21680   0.270  11.863  11.944
57957W        W21681  27.541   3.924   0.806
57958W        W21682  28.069   7.275   2.785
57959W        W21683  19.256  13.346   4.793
57960W        W21684  22.730  40.932   3.209
57961W        W21685  19.067  42.399  10.621
57962W        W21686  43.282  29.097  13.521
57963W        W21687   0.745  32.957   0.756
57964W        W21688  23.017  21.599  12.962
57965W        W21689  35.998  35.469   3.157
57966W        W21690  20.068  39.877  12.428
57967W        W21691   7.846  21.112  11.522
57968W        W21692  32.446  43.418  11.058
57969W        W21693  18.273  10.691   0.778
57970W        W21694  23.997  33.887   0.814
57971W        W21695  26.001  37.085   4.623
57972W        W21696  25.139  31.963   4.210
57973W        W21697  22.705   0.919   0.432
57974W        W21698   5.328   4.919   1.413
57975W        W21699  23.700  19.239   3.175
57976W        W21700   7.399  13.164  13.461
57977W        W21701  23.515  33.954   3.165
57978W        W21702  41.960  23.069   0.808
57979W        W21703  40.860  42.290   4.263
57980W        W21704   6.902  24.624  10.984
57981W        W21705  43.278  13.295  11.481
57982W        W21706  37.869  18.685  14.875
57983W        W21707  15.258  15.184   0.309
57984W        W21708   5.767  26.537   2.718
57985W        W21709  18.207  31.076   4.766
57986W        W21710  24.612  44.935  14.906
57987W        W21711  10.293   6.357   3.226
57988W        W21712  30.139  29.984   2.198
57989W        W21713  37.537  16.242  13.899
57990W        W21714  11.721  10.250   1.423
57991W        W21715  18.661  31.423   4.175
57992W        W21716   7.175   9.153  14.915
57993W        W21717  24.668  44.439  11.856
57994W        W21718  21.226  28.589   4.134
57995W        W21719  36.521   5.431  15.000
57996W        W21720  39.052   8.851  10.454
57997W        W21721   3.373   1.308   3.302
57998W        W21722  25.013   8.712  12.913
57999W        W21723  32.485  15.762   0.385
58000W        W21724  18.610  38.858   0.822
58001W        W21725  27.065  25.610   0.299
58002W        W21726  13.218  13.132  10.496
58003W        W21727  33.065   8.265  13.840
58004W        W21728  18.131   0.807   4.701
58005W        W21729  40.933  41.920  13.503
58006W        W21730  44.405  36.023   5.668
58007W        W21731   2.894  42.028   1.861
58008W        W21732  26.540  41.860   0.398
58009W        W21733  29.484   3.242   0.455
58010W        W21734  36.424  41.475   3.337
58011W        W21735   0.766  22.018   1.221
58012W        W21736  26.491  10.172   4.161
58013W        W21737  41.400  24.071   3.342
58014W        W21738   4.421  38.823  10.516
58015W        W21739  28.965  11.289   3.816
58016W        W21740  32.103  22.144  11.435
58017W        W21741  44.863  38.455  12.518
58018W        W21742  26.664  14.689   3.806
58019W        W21743  38.364   0.932  12.071
58020W        W21744   4.735  20.587  11.561
58021W        W21745   9.219  19.750  13.870
58022W        W21746  34.094  26.473   4.766
58023W        W21747  38.498   2.321  11.013
58024W        W21748  18.559   8.677   4.306
58025W        W21749  14.825   9.247  13.481
58026W        W21750  30.482   6.295  14.395
58027W        W21751   3.745  10.824   2.761
58028W        W21752  22.222  16.793   3.866
58029W        W21753  31.075  12.712   0.413
58030W        W21754   3.315  25.996  13.395
58031W        W21755  33.556  38.538   0.856
58032W        W21756   4.221  34.473   2.804
58033W        W21757  38.359  13.661  12.579
58034W        W21758  22.596  44.364  14.870
58035W        W21759  29.974  14.169  11.080
58036W        W21760  44.458  39.978   1.343
58037W        W21761  12.198  13.332   1.694
58038W        W21762   9.309  26.144  12.438
58039W        W21763  21.253  10.332   2.870
58040W        W21764  22.098  38.992   1.920
58041W        W21765  14.285  33.940  10.527
58042W        W21766   6.222  13.787   0.936
58043W        W21767  37.523  33.930  11.009
58044W        W21768   2.292  15.249   3.836
58045W        W21769  38.952  42.833   3.826
58046W        W21770  30.654  15.118   1.882
58047W        W21771  23.612  12.772   1.716
58048W        W21772   6.801   5.868  11.518
58049W        W21773  13.839  20.689  14.819
58050W        W21774  23.534  35.082   3.797
58051W        W21775  35.877  10.866   1.738
58052W        W21776  27.171  16.191   4.346
58053W        W21777  11.801  36.879   1.790
58054W        W21778  13.826  14.757   1.448
58055W        W21779  10.755  10.303   0.428
58056W        W21780   4.378  42.432   0.895
58057W        W21781   6.699  36.913   3.157
58058W        W21782  34.890  12.261   5.569
58059W        W21783   8.202  17.585  14.491
58060W        W21784  41.533  42.913  13.480
58061W        W21785  32.105  16.732  12.973
58062W        W21786  10.689  18.099  10.442
58063W        W21787   1.328  29.924   2.248
58064W        W21788  17.628   0.809   3.672
58065W        W21789   0.778  17.185  13.408
58066W        W21790   7.718  41.042  13.013
58067W        W21791   7.271  26.120   3.266
58068W        W21792  25.672  28.118   9.923
58069W        W21793   3.842  36.969   4.657
58070W        W21794  41.431  23.493  10.550
58071W        W21795  24.112  16.617   3.289
58072W        W21796  26.465  31.066   1.834
58073W        W21797  14.180   2.959   3.867
58074W        W21798  44.445  40.826  14.024
58075W        W21799  21.257   0.868   2.684
58076W        W21800  16.115  44.976   4.233
58077W        W21801  41.398  34.094   9.556
58078W        W21802  21.195  29.971  11.988
58079W        W21803  21.562  40.386  14.466
58080W        W21804  41.490  10.872   0.862
58081W        W21805  39.050  40.927  10.890
58082W        W21806   7.772  13.761  13.941
58083W        W21807   1.279  22.035  11.481
58084W        W21808   8.719  21.096  12.016
58085W        W21809  36.871  41.406  11.114
58086W        W21810  20.222   8.699   0.890
58087W        W21811  39.873  40.818   4.792
58088W        W21812  18.610   9.847   4.175
58089W        W21813  14.144  23.146   1.243
58090W        W21814  32.508  43.991   2.416
58091W        W21815  31.148  26.128  14.292
58092W        W21816  13.311  10.198   4.806
58093W        W21817  38.872  16.156   0.785
58094W        W21818  14.137   9.379   4.220
58095W        W21819  18.175  41.816   2.361
58096W        W21820  25.615   1.346  13.416
58097W        W21821  32.632   9.149   3.784
58098W        W21822  30.050  32.589   3.762
58099W        W21823  23.706   6.261   0.732
58100W        W21824  41.371   9.667  11.922
58101W        W21825  28.521   0.369   0.470
58102W        W21826   8.708  33.036   2.199
58103W        W21827  43.478  36.446   0.856
58104W        W21828  12.151  35.920  13.952
58105W        W21829  17.618   6.413  11.446
58106W        W21830  44.461  34.052   2.237
58107W        W21831  23.131  16.258   0.900
58108W        W21832   6.817  20.745   3.737
58109W        W21833  37.004  17.093   0.259
58110W        W21834  41.464   3.459  13.885
58111W        W21835  13.706  39.424  14.512
58112W        W21836   3.461  43.871  14.949
58113W        W21837  17.749  24.638   0.929
58114W        W21838  37.037  23.614  14.336
58115W        W21839  35.972  10.656   2.343
58116W        W21840  37.415  20.161   4.190
58117W        W21841  32.518   1.470  14.312
58118W        W21842   4.870   9.799  14.970
58119W        W21843   2.871   3.236   2.778
58120W        W21844   2.747  20.530  11.891
58121W        W21845  41.792  36.397  12.553
58122W        W21846   1.742  42.423   4.762
58123W        W21847  28.667  25.538  13.319
58124W        W21848  15.820  24.709   2.725
58125W        W21849  22.646   7.307  11.941
58126W        W21850  40.353   5.716   1.299
58127W        W21851   2.940   3.439  14.905
58128W        W21852  20.117  39.441  12.022
58129W        W21853  25.606  19.660   2.697
58130W        W21854   1.457  32.456   2.692
58131W        W21855  40.018  36.852   3.635
58132W        W21856  12.269  30.025  11.943
58133W        W21857  39.845  42.382   0.267
58134W        W21858  33.042  10.722   0.963
58135W        W21859   1.770   2.916  13.360
58136W        W21860   1.351  12.856  14.390
58137W        W21861   1.271  19.088   1.917
58138W        W21862  30.081  15.589   3.228
58139W        W21863  21.524  38.441  13.456
58140W        W21864  34.114  31.118   0.789
58141W        W21865   1.837  15.094   4.261
58142W        W21866  10.778   5.228  13.471
58143W        W21867  14.632  21.235  11.420
58144W        W21868  39.922  39.934   1.898
58145W        W21869  18.559  17.064  14.997
58146W        W21870  43.501  28.970  14.833
58147W        W21871  33.389  33.987  11.518
58148W        W21872   7.259  13.108   5.168
58149W        W21873  23.601   0.410  10.567
58150W        W21874  20.598  40.995  13.833
58151W        W21875  38.548   9.273  11.016
58152W        W21876  40.358  18.701  14.958
58153W        W21877  29.123  20.149   0.257
58154W        W21878  32.495  29.451  14.288
58155W        W21879  24.479  23.602   4.707
58156W        W21880  40.863  36.994  12.552
58157W        W21881   1.374   5.267  14.986
58158W        W21882  24.983  22.620   4.823
58159W        W21883   2.284   8.273  10.643
58160W        W21884  28.937  32.396   1.448
58161W        W21885   2.763  22.234  13.843
58162W        W21886  14.239  14.802  12.878
58163W        W21887  27.085  27.142   0.961
58164W        W21888  25.598  40.456  14.481
58165W        W21889   0.484  27.070  10.536
58166W        W21890   9.722  22.181  11.975
58167W        W21891  19.689   1.875  13.991
58168W        W21892  32.974  39.837   2.363
58169W        W21893  37.965  24.712   1.838
58170W        W21894  34.472  15.287  12.053
58171W        W21895  23.067  33.518   4.200
58172W        W21896  11.284   3.742  14.940
58173W        W21897  36.886  32.628  12.545
58174W        W21898  29.170  38.905  12.580
58175W        W21899  36.009  40.307   1.930
58176W        W21900   9.347  31.010  14.412
58177W        W21901   2.824  35.588  12.979
58178W        W21902  31.048  37.984  14.796
58179W        W21903   3.421  18.244   0.401
58180W        W21904  34.945   1.273   1.879
58181W        W21905  22.094   5.872   2.680
58182W        W21906   5.877  43.459  13.963
58183W        W21907  30.440  34.578  11.971
58184W        W21908   9.806  38.895   2.740
58185W        W21909   8.872  34.966  12.938
58186W        W21910  11.254   9.736  12.493
58187W        W21911  22.502  43.993  14.007
58188W        W21912  12.231   5.336   3.153
58189W        W21913   7.339  39.008   3.215
58190W        W21914  34.080  17.140   1.848
58191W        W21915   9.843   2.308  10.561
58192W        W21916  42.026   5.880   3.739
58193W        W21917  10.704   6.913   0.873
58194W        W21918   5.760   6.257   0.945
58195W        W21919  32.898  14.225   3.305
58196W        W21920   1.759  16.715   1.257
58197W        W21921  37.466  44.786   1.423
58198W        W21922  35.444  17.157   1.306
58199W        W21923  32.009  27.637  11.924
58200W        W21924  14.771   8.869  10.420
58201W        W21925  10.186   6.331   5.218
58202W        W21926  44.285  15.151  11.482
58203W        W21927  35.563   4.233  13.012
58204W        W21928  39.453   7.204   0.246
58205W        W21929   0.749  36.953  14.956
58206W        W21930  43.815   9.782  10.543
58207W        W21931  26.141   7.670   2.672
58208W        W21932   6.383  25.511   2.733
58209W        W21933  28.003  35.044   0.368
58210W        W21934   5.691  17.100   2.311
58211W        W21935  43.016  25.517   1.245
58212W        W21936   6.899  35.871   0.370
58213W        W21937   6.332  26.547  14.437
58214W        W21938  24.225   2.251  12.475
58215W        W21939   7.727  22.179   2.758
58216W        W21940  33.384  42.031  13.056
58217W        W21941  31.577   4.924   3.702
58218W        W21942  16.686  24.720   0.455
58219W        W21943  13.662  41.457   0.447
58220W        W21944  21.757  30.592  10.535
58221W        W21945  12.622   0.482  11.547
58222W        W21946  40.403  32.473   4.807
58223W        W21947  17.571  30.163   3.172
58224W        W21948  26.135  14.826   3.694
58225W        W21949  24.578  22.648  14.765
58226W        W21950  35.955  12.850  12.838
58227W        W21951  10.284  25.127  11.532
58228W        W21952  19.759   7.701  13.840
58229W        W21953  24.690   8.725   3.279
58230W        W21954  36.471  25.139  13.847
58231W        W21955  16.661  13.663   0.247
58232W        W21956  11.320  37.066   3.204
58233W        W21957  33.014  39.392  14.960
58234W        W21958  28.526  37.410   4.316
58235W        W21959  32.435  13.311  14.957
58236W        W21960  19.131  15.194   4.331
58237W        W21961  33.946  16.642   0.915
58238W        W21962  39.980  27.066   3.266
58239W        W21963  42.311  16.570   4.664
58240W        W21964  41.981   6.407   0.372
58241W        W21965  18.576  44.464  13.932
58242W        W21966  39.365  29.567   3.240
58243W        W21967   4.230   9.833   3.176
58244W        W21968  26.657  18.646  14.376
58245W        W21969  37.016  39.358  11.951
58246W        W21970  36.008  12.144  12.004
58247W        W21971  40.529  38.926  11.121
58248W        W21972  35.371  32.635   1.245
58249W        W21973  42.294  34.440   1.325
58250W        W21974  16.647  22.159  10.904
58251W        W21975  31.137  26.460   3.346
58252W        W21976  36.497  29.048   0.855
58253W        W21977  32.066   7.850   1.383
58254W        W21978  17.178   8.171  13.406
58255W        W21979  35.009  30.979   4.793
58256W        W21980  38.910  15.124  12.454
58257W        W21981   5.693  24.612   3.236
58258W        W21982  19.171  27.511  13.957
58259W        W21983   1.775  16.202   2.231
58260W        W21984  32.436  13.796  14.434
58261W        W21985  42.493  10.276   2.847
58262W        W21986  39.384  28.664   0.288
58263W        W21987  28.589  26.969   4.636
58264W        W21988  14.826  12.303   0.817
58265W        W21989  43.351  41.987   4.204
58266W        W21990  39.362  24.121   3.705
58267W        W21991   9.253   4.319   4.183
58268W        W21992  43.462   3.903   0.867
58269W        W21993   6.290   7.795   3.758
58270W        W21994  12.207   6.892  12.474
58271W        W21995  37.515   7.770  13.959
58272W        W21996  35.036  43.930  10.503
58273W        W21997   6.263  17.081  12.431
58274W        W21998  30.995  36.537   2.671
58275W        W21999   8.689  24.482  10.406
58276W        W22000   1.383  24.615   3.688
58277W        W22001   2.965  37.972   4.350
58278W        W22002  39.816  14.214  11.876
58279W        W22003  37.886  26.047  11.478
58280W        W22004  11.361  29.010  11.418
58281W        W22005  36.996   0.865  11.534
58282W        W22006  25.646  38.028  10.936
58283W        W22007   1.764  18.623   2.809
58284W        W22008  26.671  10.179  13.453
58285W        W22009   3.223  30.924   4.190
58286W        W22010  26.606  12.153   5.101
58287W        W22011  29.631  26.956   3.268
58288W        W22012  22.556  21.697   0.925
58289W        W22013  14.163  24.985  11.559
58290W        W22014  23.038  17.663  11.864
58291W        W22015   1.393  17.115  11.410
58292W        W22016  36.407  33.039   4.641
58293W        W22017   8.740  14.278  11.932
58294W        W22018  23.997  10.666   0.838
58295W        W22019   0.939  26.571  10.120
58296W        W22020  16.195  19.078   2.339
58297W        W22021  21.204  38.436   2.208
58298W        W22022   1.309  13.253   4.629
58299W        W22023  31.998  34.036   4.189
58300W        W22024  10.373  42.014   1.797
58301W        W22025  36.401   7.399   5.096
58302W        W22026  44.375   0.803  14.823
58303W        W22027  16.235  32.124  14.002
58304W        W22028  18.547   4.816   4.213
58305W        W22029  35.473  39.455  11.866
58306W        W22030  41.335  31.506  10.587
58307W        W22031  13.213  25.698  10.900
58308W        W22032   0.472  23.674   4.350
58309W        W22033  39.431  32.499  12.854
58310W        W22034  37.352  33.076   2.279
58311W        W22035  24.008   3.898  10.589
58312W        W22036   4.912  17.736   4.779
58313W        W22037  15.681  13.667   3.817
58314W        W22038   6.904  31.132  10.422
58315W        W22039  38.878  24.144   0.287
58316W        W22040  25.516  28.055  12.380
58317W        W22041  22.526   4.733   1.807
58318W        W22042  42.401  10.158   1.814
58319W        W22043   9.806  40.502   3.684
58320W        W22044  43.272   7.377   4.148
58321W        W22045  11.863  40.016   3.740
58322W        W22046  41.941  37.512   4.198
58323W        W22047  32.402   0.884   4.641
58324W        W22048  40.953  32.080  10.515
58325W        W22049  35.495  27.582   2.832
58326W        W22050  32.967  41.453   0.255
58327W        W22051  36.886  25.472  13.003
58328W        W22052  20.529  35.468   3.210
58329W        W22053  27.454  31.567   1.267
58330W        W22054  11.223  35.099  10.479
58331W        W22055  27.522   0.837  14.807
58332W        W22056  23.088   0.987   4.346
58333W        W22057  24.185  27.556   4.311
58334W        W22058   8.878  33.966  11.491
58335W        W22059  24.997  43.430  13.335
58336W        W22060  19.558  25.652  10.597
58337W        W22061   7.890   5.751  14.283
58338W        W22062  36.040  33.463   4.329
58339W        W22063  19.177  31.510   2.348
58340W        W22064  30.114  36.531  10.974
58341W        W22065  34.979   5.249  12.396
58342W        W22066  13.142  12.201   4.207
58343W        W22067   1.378   3.389  13.328
58344W        W22068  40.310  31.132   3.729
58345W        W22069   9.216   4.349   3.847
58346W        W22070  28.549  22.622   3.652
58347W        W22071  10.256  13.330   0.266
58348W        W22072  13.797  12.122  10.980
58349W        W22073   0.387  36.016  12.033
58350W        W22074  30.573  31.441  14.951
58351W        W22075  17.595  14.699   1.719
58352W        W22076  33.892  33.997  12.024
58353W        W22077  31.950  23.177   0.766
58354W        W22078   4.765  19.620   0.285
58355W        W22079  44.312  36.993   1.774
58356W        W22080   1.846   8.868  14.847
58357W        W22081  24.518  34.999  10.557
58358W        W22082  19.634  29.920  12.430
58359W        W22083   4.860  18.252   1.421
58360W        W22084  42.507  22.602  10.147
58361W        W22085  24.624  34.444   1.328
58362W        W22086  40.939  42.830   1.845
58363W        W22087   3.910  43.460  14.413
58364W        W22088  10.349  40.511   3.154
58365W        W22089  22.251  36.847   2.191
58366W        W22090  18.675  25.113  12.524
58367W        W22091  39.003  37.442   3.847
58368W        W22092  35.896   7.744  12.000
58369W        W22093   7.837  43.925   4.165
58370W        W22094  19.074  41.369   0.385
58371W        W22095  15.616  19.636   2.293
58372W        W22096  42.950   2.843   2.744
58373W        W22097  12.143  22.034   4.209
58374W        W22098   3.821   8.835  12.047
58375W        W22099   6.723   7.766  13.462
58376W        W22100   4.239  22.531   2.759
58377W        W22101  23.662  41.905   3.318
58378W        W22102  23.225  11.627  14.802
58379W        W22103  24.106  32.056   1.843
58380W        W22104   6.791   0.467   2.707
58381W        W22105  19.607  42.885  11.028
58382W        W22106   0.763  28.125  10.046
58383W        W22107  23.986  28.181  10.457
58384W        W22108  25.135  26.545   0.262
58385W        W22109  21.075  41.936   9.675
58386W        W22110  39.432  26.177  14.939
58387W        W22111  32.027  39.063   0.432
58388W        W22112  24.525  43.896  12.508
58389W        W22113  29.053   8.883   4.308
58390W        W22114  36.000  42.337  13.424
58391W        W22115  22.531  25.509   0.478
58392W        W22116  29.580  17.694   0.745
58393W        W22117   0.451   3.743   1.357
58394W        W22118   9.309   2.250  14.926
58395W        W22119   9.756  32.006  14.917
58396W        W22120  29.112  18.656  11.881
58397W        W22121  20.072  39.368  12.361
58398W        W22122   5.791  34.067  11.964
58399W        W22123   4.439  44.258   1.294
58400W        W22124  30.953   7.828   1.915
58401W        W22125   1.379  33.015   4.772
58402W        W22126  14.598   5.195   5.119
58403W        W22127  17.684  33.468  13.412
58404W        W22128  16.220  31.501   1.256
58405W        W22129  27.453  28.542   4.639
58406W        W22130  38.050   2.449   4.143
58407W        W22131  39.064  35.107  10.944
58408W        W22132  43.487  37.967  13.869
58409W        W22133  12.262  37.022  11.498
58410W        W22134  37.963   6.191   3.251
58411W        W22135  16.593  10.689  11.592
58412W        W22136   3.805   2.393  13.355
58413W        W22137  29.494  22.548   0.916
58414W        W22138  29.508  14.254  12.449
58415W        W22139  31.517  44.784   2.853
58416W        W22140  40.020  19.730   0.748
58417W        W22141  44.801  24.036  11.118
58418W        W22142  16.754  15.731  13.393
58419W        W22143  33.506   6.286   1.899
58420W        W22144  23.132  35.479   4.130
58421W        W22145  32.985  30.918   3.710
58422W        W22146  19.711  19.770   1.879
58423W        W22147  43.887   8.189  13.342
58424W        W22148  43.327  19.106  13.038
58425W        W22149   9.644  43.471   3.789
58426W        W22150  14.240   4.702   2.378
58427W        W22151  22.561  37.343   5.177
58428W        W22152  35.928  43.356  11.031
58429W        W22153  40.002  19.113  10.411
58430W        W22154  30.415  31.544   3.346
58431W        W22155  22.179  29.048  10.031
58432W        W22156  13.812  26.173   0.732
58433W        W22157  39.533  10.302   4.287
58434W        W22158  38.450   0.336   3.829
58435W        W22159  15.229  40.395   1.216
58436W        W22160  30.634  41.879   1.834
58437W        W22161  31.521  26.513  13.313
58438W        W22162  16.720  44.371   3.204
58439W        W22163  27.941  17.156   4.318
58440W        W22164  12.306  26.097   0.830
58441W        W22165  40.448  26.658  11.430
58442W        W22166  39.507  39.322   3.243
58443W        W22167  25.502   3.407  13.922
58444W        W22168  17.069  26.067  13.971
58445W        W22169   0.484  35.059  14.329
58446W        W22170   5.881  23.196  12.935
58447W        W22171  20.688  14.220  13.896
58448W        W22172  40.908  22.033   1.915
58449W        W22173  35.082   5.829  11.022
58450W        W22174  29.942   8.869  11.003
58451W        W22175  14.117  40.800  10.569
58452W        W22176  20.227  26.600   1.321
58453W        W22177   0.786  22.194  10.607
58454W        W22178  24.701   7.897   4.675
58455W        W22179  30.074   3.950   1.923
58456W        W22180   7.306  39.906   4.256
58457W        W22181  11.345  27.455   2.310
58458W        W22182   4.811  19.161   4.655
58459W        W22183  17.260   3.839   0.263
58460W        W22184  13.136  25.122   3.839
58461W        W22185  39.825   8.327  14.369
58462W        W22186  23.679  30.563  12.032
58463W        W22187  32.956   1.350  12.922
58464W        W22188  36.038  25.993  14.944
58465W        W22189   7.410   0.389  11.428
58466W        W22190   7.355  18.102  11.087
58467W        W22191  32.100  36.968   3.158
58468W        W22192   0.764  20.165  12.973
58469W        W22193   0.749  40.432  10.036
58470W        W22194  10.144  39.820   4.184
58471W        W22195   7.778  12.355   0.932
58472W        W22196  27.554  12.303   3.273
58473W        W22197  38.922  40.431  12.957
58474W        W22198  14.714  33.126  10.498
58475W        W22199  23.535  13.782   2.810
58476W        W22200  25.519  19.566  10.992
58477W        W22201   7.707  11.226   2.901
58478W        W22202  42.321  41.841  12.047
58479W        W22203  31.514  26.460  13.001
58480W        W22204  26.541  18.071   4.142
58481W        W22205  25.029   5.871  11.081
58482W        W22206  24.711  31.011  13.014
58483W        W22207  22.660  36.384   3.232
58484W        W22208  13.151  12.159  13.959
58485W        W22209  25.703   0.914  13.025
58486W        W22210  31.147   9.825  11.934
58487W        W22211   5.432  30.124  11.443
58488W        W22212  12.139  19.634   0.878
58489W        W22213   6.752   3.228   3.746
58490W        W22214   0.806   8.342  14.417
58491W        W22215  33.413  18.098  13.307
58492W        W22216  37.958  26.617   4.774
58493W        W22217  16.620  44.998  14.813
58494W        W22218  40.916   8.845   3.169
58495W        W22219  22.152  40.801  10.451
58496W        W22220  29.981  10.676  14.000
58497W        W22221   6.738  18.070   3.229
58498W        W22222  26.116  19.142   1.786
58499W        W22223   4.831   0.487  12.967
58500W        W22224  12.226  40.917  12.020
58501W        W22225   2.380   1.840   1.223
58502W        W22226  16.141  11.645   9.993
58503W        W22227  37.948  27.520   3.722
58504W        W22228  26.116  38.516   2.297
58505W        W22229  39.886  34.876  10.020
58506W        W22230  44.468  18.258  11.496
58507W        W22231  32.963   6.403  11.085
58508W        W22232   0.463  16.250  13.991
58509W        W22233  43.791   8.829   2.687
58510W        W22234  37.371  15.296  11.008
58511W        W22235  19.670  37.835   3.358
58512W        W22236  44.333  44.280  13.494
58513W        W22237   1.280  25.045  13.327
58514W        W22238  23.724  38.985  11.376
58515W        W22239  19.662  21.574   2.860
58516W        W22240  20.252  40.969  11.108
58517W        W22241   8.178  15.328   2.708
58518W        W22242  22.502  12.736  10.444
58519W        W22243  24.031  37.469   0.420
58520W        W22244  25.072   6.227  13.973
58521W        W22245  12.693   9.645  14.949
58522W        W22246  34.469   8.687   0.821
58523W        W22247  12.279  19.586  13.356
58524W        W22248  18.180  41.428  11.377
58525W        W22249  42.828  31.094  11.575
58526W        W22250   0.418  27.100   1.317
58527W        W22251  14.733  12.282  13.360
58528W        W22252  43.003   1.458   1.876
58529W        W22253  32.438  44.995   2.298
58530W        W22254  24.593  24.723  10.583
58531W        W22255  14.183  14.119   2.199
58532W        W22256  21.169   3.754   1.843
58533W        W22257  13.335  12.668   1.424
58534W        W22258  29.093  19.164   4.699
58535W        W22259  27.454  42.382   2.835
58536W        W22260  39.393  25.099   2.823
58537W        W22261   4.751   8.188  14.017
58538W        W22262  21.218  22.085   4.145
58539W        W22263  38.856  32.609  14.030
58540W        W22264  23.707  17.183  14.795
58541W        W22265  38.902  43.783  12.891
58542W        W22266  34.469  41.477   0.446
58543W        W22267  42.020  18.770   0.849
58544W        W22268  16.105   6.186   4.747
58545W        W22269   3.365  29.090  14.935
58546W        W22270  40.926  26.152   1.780
58547W        W22271  23.707  26.663   1.763
58548W        W22272  32.420  12.764   3.866
58549W        W22273  42.986  20.169   3.693
58550W        W22274  40.379  39.554  14.936
58551W        W22275  18.693  22.674   2.678
58552W        W22276   3.333  41.838   2.300
58553W        W22277  22.150  31.981   0.837
58554W        W22278   0.398  37.930   2.844
58555W        W22279  19.634  28.657   2.302
58556W        W22280  33.052  23.082  12.518
58557W        W22281  41.974  18.284   2.378
58558W        W22282  20.094   0.359  13.545
58559W        W22283  30.500  20.730  11.959
58560W        W22284  11.226   6.797   4.708
58561W        W22285  16.096   8.725  12.436
58562W        W22286  31.083  10.248   3.780
58563W        W22287   2.289  14.638  12.547
58564W        W22288  13.821  34.377   0.749
58565W        W22289   8.857  13.204   1.354
58566W        W22290  42.438  39.996   4.732
58567W        W22291  30.496   3.238  13.340
58568W        W22292  11.256  29.482   2.732
58569W        W22293  44.970  10.793  11.598
58570W        W22294  24.658  26.569   4.175
58571W        W22295   8.716  38.503   3.380
58572W        W22296  42.847   1.811   2.296
58573W        W22297  37.388  42.026   2.280
58574W        W22298  36.950  18.224  13.334
58575W        W22299   2.881  12.149   0.861
58576W        W22300  19.192  23.631  14.828
58577W        W22301  29.043  19.544  14.399
58578W        W22302  27.570  35.563   4.237
58579W        W22303  42.841  18.738   0.443
58580W        W22304   0.438  18.258   4.289
58581W        W22305  27.494  30.419  10.479
58582W        W22306  17.160  15.306   0.479
58583W        W22307  16.606  35.393  12.371
58584W        W22308   8.365  22.615  11.968
58585W        W22309  21.564  43.015   3.743
58586W        W22310   3.715  41.887   4.647
58587W        W22311  12.742  37.505   3.704
58588W        W22312  27.523   8.712   1.820
58589W        W22313  18.755  23.702   2.787
58590W        W22314  41.360  39.957  10.630
58591W        W22315  31.514  13.767   3.210
58592W        W22316   1.883  34.381  14.786
58593W        W22317   8.767  27.577   3.849
58594W        W22318  36.533  21.218  10.157
58595W        W22319  14.833  41.914   4.313
58596W        W22320  41.315  26.519  13.829
58597W        W22321   2.792   3.361   4.281
58598W        W22322  20.146  26.197   3.860
58599W        W22323   0.289   3.414   4.204
58600W        W22324  10.273  40.871  13.900
58601W        W22325  11.301  17.656   1.236
58602W        W22326  20.217  33.452  14.998
58603W        W22327  37.013  35.472   1.926
58604W        W22328  37.456  44.453   0.913
58605W        W22329  12.795   2.236  13.448
58606W        W22330  24.095  34.879  13.023
58607W        W22331  30.147  19.745  11.467
58608W        W22332  35.542  23.616   3.762
58609W        W22333  15.714  30.062  13.342
58610W        W22334  19.143  22.518  14.432
58611W        W22335  35.589   4.265   0.472
58612W        W22336  27.562  28.080  10.942
58613W        W22337  18.624  17.215  11.508
58614W        W22338  13.644  26.113  12.097
58615W        W22339  11.807  10.759   0.886
58616W        W22340  43.369  11.704  14.407
58617W        W22341   6.793  30.070   0.397
58618W        W22342  44.448  22.244  10.076
58619W        W22343  12.814  21.732   4.220
58620W        W22344   2.417  44.825  14.461
58621W        W22345  32.461  20.656   2.282
58622W        W22346  11.159  36.522  14.303
58623W        W22347  33.469  12.627   1.307
58624W        W22348  31.548  35.038   2.256
58625W        W22349  13.165  26.961   4.725
58626W        W22350   9.743  18.070  13.362
58627W        W22351  12.769  40.377  11.903
58628W        W22352  30.591  40.999  14.456
58629W        W22353  12.210  16.693   1.319
58630W        W22354   5.847   5.827   0.250
58631W        W22355  32.073  40.983   2.274
58632W        W22356  22.030  43.380  12.411
58633W        W22357  17.578  21.688  10.983
58634W        W22358   2.282  29.923  12.923
58635W        W22359  34.542  11.651   1.745
58636W        W22360  17.285  44.931   4.632
58637W        W22361  29.039  12.253   2.325
58638W        W22362  33.931  27.121  13.962
58639W        W22363  41.367  23.208  13.025
58640W        W22364  37.430  43.369  10.404
58641W        W22365  35.575  30.421  14.352
58642W        W22366  15.614   9.772  10.945
58643W        W22367  39.893  42.959   4.235
58644W        W22368   1.887  23.023   0.929
58645W        W22369  27.447   3.251   4.653
58646W        W22370  20.140  27.964  11.929
58647W        W22371   9.866  35.076  12.491
58648W        W22372  11.784  42.432   1.835
58649W        W22373   9.341  25.010  14.383
58650W        W22374  35.917  12.772   4.785
58651W        W22375  31.496  10.217   0.744
58652W        W22376  10.346  34.484  11.385
58653W        W22377  43.472  43.367  12.562
58654W        W22378  37.565   9.390  10.467
58655W        W22379  13.714  14.835  13.312
58656W        W22380  24.639   6.781   3.355
58657W        W22381  27.521  16.609  10.466
58658W        W22382   3.336  36.429   1.379
58659W        W22383  43.443  18.205   1.786
58660W        W22384   8.899   5.856  10.457
58661W        W22385  35.598  34.087   1.698
58662W        W22386  31.507  28.012  11.015
58663W        W22387  33.615   6.776   4.339
58664W        W22388  24.680   5.296   3.361
58665W        W22389   3.851   1.828   5.321
58666W        W22390  28.645   6.303  14.972
58667W        W22391  23.558  16.707  14.363
58668W        W22392  10.356   9.195  12.019
58669W        W22393  35.546   4.787  10.611
58670W        W22394  40.479  23.578   0.335
58671W        W22395  15.754  37.042  14.836
58672W        W22396  29.960  42.818  10.500
58673W        W22397  35.997  41.413   3.805
58674W        W22398  43.426  10.381  13.343
58675W        W22399  37.957  15.309   4.228
58676W        W22400   1.950   7.310   3.647
58677W        W22401  15.129  27.189  14.294
58678W        W22402  16.709  25.614  12.964
58679W        W22403  30.998   8.674  10.019
58680W        W22404   4.864  33.546  13.527
58681W        W22405   5.413  26.639  12.015
58682W        W22406  26.560  35.576  11.071
58683W        W22407   8.694  27.995  11.932
58684W        W22408  26.616  17.130  11.051
58685W        W22409  25.704   6.220  11.952
58686W        W22410  37.479  31.995   4.138
58687W        W22411  25.062  38.516   1.369
58688W        W22412  32.971  43.765   1.389
58689W        W22413   6.921  10.161  13.941
58690W        W22414   8.173   5.764   0.438
58691W        W22415  41.363  37.934   9.963
58692W        W22416  27.542   1.442   4.652
58693W        W22417  19.670  13.240   2.897
58694W        W22418  11.152  41.314   3.709
58695W        W22419  39.386   8.372  14.814
58696W        W22420   6.718  31.079   3.251
58697W        W22421  33.512  10.798  10.059
58698W        W22422  13.811  42.932  14.299
58699W        W22423  27.687  17.146   0.246
58700W        W22424   8.805   6.354  14.342
58701W        W22425  28.668  19.586   4.256
58702W        W22426  15.094  30.548  11.578
58703W        W22427  16.606  14.727  14.324
58704W        W22428  32.014  11.765   1.804
58705W        W22429  19.745  17.256   3.689
58706W        W22430  41.412  16.803  10.987
58707W        W22431   0.807   3.839   3.676
58708W        W22432  17.793  22.617   3.863
58709W        W22433  30.464  34.962   1.240
58710W        W22434  42.519  17.729   3.166
58711W        W22435  13.680   0.272   4.195
58712W        W22436  44.290  14.225   1.217
58713W        W22437   8.295  32.981   0.884
58714W        W22438  29.011  39.463   4.261
58715W        W22439  33.066  28.501   0.362
58716W        W22440  32.908   4.264  10.951
58717W        W22441  20.730  31.089  14.805
58718W        W22442  36.478   1.786   1.887
58719W        W22443  41.506  16.257  13.005
58720W        W22444  14.763   3.283  13.916
58721W        W22445  20.678   4.775  11.962
58722W        W22446  41.408  42.924  12.891
58723W        W22447   8.681  25.592  11.579
58724W        W22448  44.848  37.859  10.593
58725W        W22449  20.591  43.511  12.514
58726W        W22450  17.276  13.341  11.482
58727W        W22451  19.278  26.579   0.788
58728W        W22452  39.876  44.893  13.514
58729W        W22453  17.088  11.785   4.730
58730W        W22454  19.220  38.869  10.146
58731W        W22455  36.471  40.533  10.541
58732W        W22456  14.734  44.849   3.675
58733W        W22457   0.402  38.326   0.796
58734W        W22458   7.717  43.382  13.480
58735W        W22459  37.039  20.657  14.798
58736W        W22460  24.063  31.619  12.866
58737W        W22461  12.624  17.716  10.969
58738W        W22462  25.164  22.685   2.243
58739W        W22463   3.415  20.764  10.481
58740W        W22464   8.170  12.725  11.448
58741W        W22465  31.093  15.676  11.914
58742W        W22466  33.900   3.390   4.133
58743W        W22467  33.593  29.166   2.370
58744W        W22468  29.474  30.145   4.643
58745W        W22469   9.858  11.854  12.345
58746W        W22470  43.449   6.263   1.388
58747W        W22471  11.666  11.346   3.380
58748W        W22472  15.593   1.331   0.868
58749W        W22473   9.789  17.717   4.630
58750W        W22474  19.755   4.941   4.802
58751W        W22475  38.394  31.093   1.218
58752W        W22476   6.275  26.988   4.717
58753W        W22477   7.756  30.642  13.878
58754W        W22478  27.491  38.375   1.779
58755W        W22479   0.253  41.844   1.783
58756W        W22480  24.992  31.635   4.752
58757W        W22481  30.915  10.749   4.206
58758W        W22482  25.586  29.430  14.513
58759W        W22483   2.882   1.911   3.247
58760W        W22484   8.858  18.697  12.507
58761W        W22485   8.707  32.635  11.604
58762W        W22486  17.209  15.244   3.191
58763W        W22487  18.631  35.957  10.439
58764W        W22488  22.530   4.767  12.029
58765W        W22489   7.796  35.413  14.825
58766W        W22490  16.758  20.168   0.260
58767W        W22491   8.771  38.476   4.709
58768W        W22492  26.609  36.526  11.518
58769W        W22493   9.180  38.823  14.933
58770W        W22494  28.069  31.980  10.455
58771W        W22495  28.066  41.410  10.494
58772W        W22496  13.305   3.762  11.867
58773W        W22497  41.438  37.421  12.505
58774W        W22498  16.207  19.212   3.818
58775W        W22499   8.239  16.293  13.424
58776W        W22500  16.750  10.783  13.802
58777W        W22501  13.741  14.228   4.726
58778W        W22502  29.568  38.992  12.053
58779W        W22503  12.692  15.710  14.282
58780W        W22504  32.963  36.848  13.509
58781W        W22505  35.968   2.406   3.363
58782W        W22506  11.130  44.441   2.778
58783W        W22507  26.992  40.021  13.981
58784W        W22508  13.751  22.017   4.232
58785W        W22509  33.455  28.543  14.879
58786W        W22510  34.021  21.620  14.030
58787W        W22511  29.463  20.665  13.980
58788W        W22512   7.824  30.623  12.394
58789W        W22513  21.065  28.174   2.833
58790W        W22514  13.735  24.724   0.740
58791W        W22515  20.250   2.428  11.044
58792W        W22516  43.782  41.381   4.680
58793W        W22517  27.535  11.798  10.466
58794W        W22518  31.040  21.020  12.575
58795W        W22519  42.799   2.395  14.812
58796W        W22520  13.664   8.227   3.664
58797W        W22521  11.352  24.186  13.334
58798W        W22522  18.076   9.293   1.788
58799W        W22523  37.439  21.047   4.220
58800W        W22524  39.908  24.559   5.101
58801W        W22525  17.217  18.110  13.056
58802W        W22526   6.794   3.735  11.061
58803W        W22527  30.659  31.505   2.346
58804W        W22528  20.527  23.723   1.313
58805W        W22529   5.224  38.856   4.674
58806W        W22530   0.976  26.627  12.391
58807W        W22531  23.224  12.182  10.589
58808W        W22532  23.064  12.292   0.905
58809W        W22533  32.034  27.190  12.011
58810W        W22534  44.478  41.350  11.941
58811W        W22535  21.545  28.580   9.463
58812W        W22536   5.327  10.735   2.668
58813W        W22537   7.715  28.014   2.405
58814W        W22538  26.490  22.595  12.042
58815W        W22539  22.718  42.030  11.024
58816W        W22540  18.073  29.462  14.987
58817W        W22541  37.525   4.418   3.176
58818W        W22542   5.206  34.983   2.226
58819W        W22543  16.732  16.233   1.741
58820W        W22544   9.887   9.706   1.745
58821W        W22545  17.150  19.687   4.726
58822W        W22546   2.407  30.109  11.062
58823W        W22547  27.070  11.173  13.021
58824W        W22548  15.241   2.407   5.198
58825W        W22549   1.271   7.743   0.413
58826W        W22550  16.575  11.289  13.376
58827W        W22551   4.853  15.681   1.372
58828W        W22552  25.571  41.352   4.153
58829W        W22553  33.579   8.677   0.247
58830W        W22554   5.412  22.024  12.475
58831W        W22555  31.578  17.590  10.430
58832W        W22556  24.222  43.281   2.184
58833W        W22557   5.346  21.224   1.251
58834W        W22558  30.016   5.768   4.176
58835W        W22559  26.690  20.550  13.884
58836W        W22560  41.887  23.032   2.198
58837W        W22561   3.767  23.706  11.044
58838W        W22562  12.625  31.986  12.480
58839W        W22563  32.893   6.262   0.318
58840W        W22564  36.381  27.101  14.447
58841W        W22565  43.281  16.303   3.794
58842W        W22566  32.949  31.513  10.957
58843W        W22567  30.954   7.322  13.477
58844W        W22568  33.550  30.161   2.810
58845W        W22569  33.580  10.339  11.583
58846W        W22570  12.173  19.173  13.936
58847W        W22571  10.642  28.643  13.322
58848W        W22572   2.748  18.060  10.583
58849W        W22573  41.984   1.265   3.827
58850W        W22574  40.427  42.334   1.719
58851W        W22575  11.262  39.811   1.771
58852W        W22576  13.735  42.935   1.780
58853W        W22577  41.034  25.559  14.876
58854W        W22578  18.157  18.067   1.756
58855W        W22579  20.087  16.581  13.926
58856W        W22580  11.662  26.693  12.466
58857W        W22581  12.687  23.989  12.404
58858W        W22582  17.775  34.570   2.869
58859W        W22583   9.689   7.390   0.833
58860W        W22584  36.087  15.225  14.809
58861W        W22585   3.931  27.160  11.512
58862W        W22586  13.201  43.852   3.159
58863W        W22587  16.774  43.836  11.499
58864W        W22588  41.406  15.213  13.521
58865W        W22589  27.576  41.956   4.285
58866W        W22590   7.750  39.522   1.792
58867W        W22591  19.700   2.363   1.364
58868W        W22592  38.991  33.519   5.191
58869W        W22593  35.050   1.303   4.275
58870W        W22594  16.651  15.588   4.653
58871W        W22595  23.540  39.348   1.738
58872W        W22596   3.952   4.264   3.210
58873W        W22597  38.499  27.575  10.947
58874W        W22598  34.029  39.352   3.775
58875W        W22599  37.058  39.817  10.932
58876W        W22600  30.650  23.204  14.364
58877W        W22601  39.354  22.154  10.464
58878W        W22602  18.705   9.773   0.417
58879W        W22603  21.024  44.303  12.950
58880W        W22604  23.584  27.109  10.064
58881W        W22605  44.795  40.881   1.277
58882W        W22606  17.155  34.570  14.415
58883W        W22607  44.425  41.979   0.416
58884W        W22608   4.352  27.473   1.371
58885W        W22609  20.529  39.350   4.116
58886W        W22610   9.694   0.350  10.606
58887W        W22611  40.881  11.863   4.143
58888W        W22612  12.249  36.922   4.284
58889W        W22613   3.947  29.005   2.251
58890W        W22614  18.720  12.692   5.692
58891W        W22615   5.253  32.940   2.345
58892W        W22616  33.883  10.688  14.772
58893W        W22617  14.665  25.714  14.903
58894W        W22618   9.824  20.643   3.212
58895W        W22619  20.569   9.844   4.195
58896W        W22620  44.791  12.360  11.530
58897W        W22621   1.323  29.921  11.478
58898W        W22622  21.200  39.409  14.026
58899W        W22623   0.346  16.241   1.702
58900W        W22624  28.666  15.780   4.802
58901W        W22625  23.581  20.645  12.485
58902W        W22626  43.005  30.477   1.331
58903W        W22627  16.265  16.736   2.180
58904W        W22628  38.552  32.405   2.876
58905W        W22629  37.571   9.369   0.889
58906W        W22630  27.016   9.790   4.279
58907W        W22631  33.078   2.275   1.403
58908W        W22632  43.985  44.963   4.785
58909W        W22633  27.627  22.211   0.758
58910W        W22634  36.052  26.583  11.489
58911W        W22635  13.305  42.487   2.765
58912W        W22636  19.244  33.928  13.916
58913W        W22637   5.273  39.871   4.327
58914W        W22638   0.345  20.258   2.364
58915W        W22639  23.103  24.640   3.375
58916W        W22640  31.460  17.063  10.543
58917W        W22641   4.336  11.837   0.841
58918W        W22642  28.181  15.807   3.377
58919W        W22643  27.114  22.145  12.017
58920W        W22644  16.798   9.858  11.097
58921W        W22645  31.902  43.931  10.476
58922W        W22646   5.923  42.019  14.877
58923W        W22647  27.000  17.659   1.838
58924W        W22648  25.611  23.119  13.872
58925W        W22649  17.751   1.888   4.806
58926W        W22650  26.529  32.535   3.226
58927W        W22651   2.798  27.589   4.275
58928W        W22652  12.716  30.019  14.783
58929W        W22653  15.656  21.664  11.419
58930W        W22654   6.424  36.022   3.808
58931W        W22655  42.297  36.099   3.185
58932W        W22656  13.651  10.219  10.481
58933W        W22657  33.997  44.805   4.166
58934W        W22658  15.701  27.139   2.859
58935W        W22659  14.181   6.288   3.353
58936W        W22660  28.561  20.199   0.909
58937W        W22661   3.949  27.514   1.398
58938W        W22662   2.858  39.009  11.898
58939W        W22663   4.795  39.555   3.199
58940W        W22664  29.496  32.447  14.466
58941W        W22665  33.615   1.781   1.750
58942W        W22666   6.855  21.035   3.335
58943W        W22667  21.154   4.724  12.540
58944W        W22668   2.813  44.444  11.524
58945W        W22669  26.642  11.716  11.561
58946W        W22670  24.679  32.087  14.469
58947W        W22671  36.561  42.367   3.345
58948W        W22672  17.229   0.953   4.128
58949W        W22673  19.649  16.742   4.731
58950W        W22674  43.920   9.326   2.181
58951W        W22675  13.623  20.683  13.457
58952W        W22676  17.642   5.733   3.308
58953W        W22677  29.648  13.157   4.689
58954W        W22678   5.730  31.585  13.515
58955W        W22679   3.312  37.512   2.277
58956W        W22680  13.223  13.329   0.417
58957W        W22681  17.570  34.982   1.887
58958W        W22682  44.794   7.317   4.668
58959W        W22683  24.688  23.721  13.332
58960W        W22684  17.222   0.856   0.901
58961W        W22685  15.201  31.495   1.807
58962W        W22686  36.931   5.336   3.750
58963W        W22687  22.119  17.610   1.832
58964W        W22688  44.272  39.967   0.841
58965W        W22689  39.019   4.790   2.309
58966W        W22690  23.520   7.257   3.376
58967W        W22691  39.054  10.710   0.885
58968W        W22692  42.873  29.545  12.033
58969W        W22693  12.756  26.474  11.600
58970W        W22694  25.140  38.559  13.842
58971W        W22695  16.141  11.757   1.443
58972W        W22696  18.055  11.805  13.044
58973W        W22697  31.630   7.229   4.278
58974W        W22698   6.912  25.168   0.801
58975W        W22699  17.557  18.149   4.756
58976W        W22700  11.318   9.290  11.383
58977W        W22701  36.874  15.820   1.390
58978W        W22702  44.416  24.490  13.988
58979W        W22703  43.935  39.007  13.335
58980W        W22704   4.898  36.987  12.072
58981W        W22705  13.803  11.668  14.908
58982W        W22706  15.209  32.999  14.934
58983W        W22707  21.190  33.606   0.924
58984W        W22708  18.095  19.230   2.308
58985W        W22709  41.452  34.949  12.377
58986W        W22710  34.014   0.328   4.164
58987W        W22711   1.970  18.215   2.236
58988W        W22712  36.348   1.870   3.254
58989W        W22713  44.862  12.167  10.623
58990W        W22714  16.092  15.688   1.255
58991W        W22715  24.120  14.761  14.782
58992W        W22716  12.117   0.485  11.501
58993W        W22717  13.813  15.325  13.889
58994W        W22718  13.788  35.102   0.832
58995W        W22719  35.873   6.208  13.913
58996W        W22720  29.087  14.182  14.511
58997W        W22721   5.811  16.266  14.433
58998W        W22722   4.818   2.360   3.308
58999W        W22723  32.066  27.101   2.779
59000W        W22724  11.350  15.623  12.568
59001W        W22725   4.817  29.041  13.309
59002W        W22726   5.285  22.522  10.607
59003W        W22727  26.171  29.499  11.028
59004W        W22728  37.390  18.708  13.919
59005W        W22729   0.487  40.049   2.845
59006W        W22730  32.570  31.450  11.982
59007W        W22731  29.078  26.100   4.760
59008W        W22732  44.389  43.874  13.358
59009W        W22733  22.096   5.714   0.298
59010W        W22734   7.184  43.498   1.374
59011W        W22735  17.295  32.611   2.683
59012W        W22736  22.546  43.412  12.492
59013W        W22737  35.495  30.946  13.520
59014W        W22738  44.338  14.143  13.534
59015W        W22739  23.527  11.236   0.388
59016W        W22740  40.315  24.713  14.433
59017W        W22741  30.925  16.281  10.555
59018W        W22742  39.553   7.899   4.126
59019W        W22743  22.636  28.173   0.735
59020W        W22744  38.073  43.443   3.251
59021W        W22745  30.467  42.304   1.323
59022W        W22746  29.486  27.468   0.385
59023W        W22747  10.687  32.539   4.745
59024W        W22748   1.784  27.080  13.054
59025W        W22749   2.770  26.199  14.850
59026W        W22750   6.257   1.761  10.404
59027W        W22751  23.626  13.224  12.917
59028W        W22752  13.611  34.083   1.409
59029W        W22753  10.687  39.407   2.225
59030W        W22754  11.205  21.702   2.864
59031W        W22755  23.624  10.254   0.258
59032W        W22756  41.041  34.602   5.198
59033W        W22757  40.999   9.378  13.884
59034W        W22758  25.125  36.948  11.073
59035W        W22759  13.617   5.836  10.975
59036W        W22760  31.470  34.392   3.860
59037W        W22761   2.259  11.361   3.343
59038W        W22762  14.630  15.214  10.547
59039W        W22763  37.451  24.647   4.603
59040W        W22764  24.185  27.092  10.020
59041W        W22765  24.093  42.934  14.507
59042W        W22766  21.584  20.213  14.813
59043W        W22767  14.817  40.455  10.890
59044W        W22768  44.894  19.206   1.309
59045W        W22769  37.963  20.247  11.581
59046W        W22770  41.350  11.628  11.890
59047W        W22771  17.117  10.284   4.120
59048W        W22772  19.040  44.297   3.678
59049W        W22773  11.749  40.050  14.407
59050W        W22774  26.118   7.899   1.833
59051W        W22775   6.396  16.123  11.987
59052W        W22776  38.908   9.725  10.562
59053W        W22777  29.440   1.459  10.918
59054W        W22778  41.981  25.192   1.304
59055W        W22779  32.566  23.186   0.831
59056W        W22780  37.472  37.013  14.764
59057W        W22781   8.293  17.785  12.463
59058W        W22782  11.723  38.569   2.220
59059W        W22783  22.044  26.048   1.295
59060W        W22784  41.363   4.751  13.358
59061W        W22785  26.123  37.465  13.014
59062W        W22786  21.600  10.760  12.480
59063W        W22787  10.272  23.104  13.421
59064W        W22788  34.079   6.889   3.363
59065W        W22789   5.249  15.271   2.728
59066W        W22790  32.591  11.227   1.895
59067W        W22791   9.699  27.588   1.771
59068W        W22792  10.856   5.427   0.466
59069W        W22793   4.768  38.562   3.385
59070W        W22794  37.407  43.822   2.378
59071W        W22795   2.749  13.679  12.097
59072W        W22796  31.056  30.158   2.753
59073W        W22797  38.958  29.072  11.445
59074W        W22798  35.474  40.484  13.884
59075W        W22799  44.365   1.826   4.116
59076W        W22800   2.373  32.889  13.026
59077W        W22801  33.903  41.956   3.798
59078W        W22802  37.916  30.612  13.509
59079W        W22803  30.524  28.057  12.390
59080W        W22804  14.332   7.299  14.800
59081W        W22805  23.172  10.753  11.950
59082W        W22806  17.263  18.739  12.950
59083W        W22807  31.058   2.420   4.745
59084W        W22808   4.903  28.529   3.236
59085W        W22809  15.190  31.929  14.764
59086W        W22810  41.894   8.892  11.402
59087W        W22811  29.079  35.373   2.744
59088W        W22812   3.954  22.713  10.573
59089W        W22813  23.496  20.210   1.261
59090W        W22814  12.783   4.883  12.562
59091W        W22815   4.736  18.677   1.251
59092W        W22816  31.582  16.269   1.891
59093W        W22817   1.777   7.793  10.484
59094W        W22818  26.973  30.466   3.184
59095W        W22819  28.502  30.521   3.674
59096W        W22820  13.239  18.182  12.489
59097W        W22821  15.790  40.039   1.283
59098W        W22822  29.579  10.865   0.408
59099W        W22823  17.798  34.414   0.318
59100W        W22824  16.634  37.037   0.423
59101W        W22825  34.980  31.149   3.208
59102W        W22826   1.387  28.509  12.449
59103W        W22827  43.010   2.799   4.180
59104W        W22828  31.153  14.240   3.673
59105W        W22829  29.623  21.518  12.944
59106W        W22830  35.507  41.296  10.550
59107W        W22831  10.233  19.169   1.697
59108W        W22832  14.622   7.816   9.929
59109W        W22833   8.669   1.435  13.905
59110W        W22834  13.208  10.383  12.931
59111W        W22835  32.017  33.028  12.953
59112W        W22836  21.025  36.376   0.374
59113W        W22837  13.156   9.230   0.393
59114W        W22838  31.476  37.950   4.743
59115W        W22839   2.756  21.074  13.061
59116W        W22840  11.320   3.750  10.531
59117W        W22841   4.405  25.586  12.947
59118W        W22842  35.389  15.303  11.506
59119W        W22843  19.184  33.445  13.942
59120W        W22844  33.940   1.266   2.222
59121W        W22845  35.435  14.159  14.840
59122W        W22846  18.669  18.604   1.380
59123W        W22847  19.151  14.785  14.885
59124W        W22848  34.969  44.273  12.872
59125W        W22849  31.989  20.556  11.430
59126W        W22850  29.071  16.134   1.869
59127W        W22851  22.610   0.832  14.018
59128W        W22852  43.414   2.884  13.337
59129W        W22853  11.241  44.302  13.822
59130W        W22854  44.465  30.559   1.746
59131W        W22855  24.043  17.069   0.251
59132W        W22856  30.034  26.582   0.835
59133W        W22857  25.565  11.141   1.441
59134W        W22858  21.530  12.653   1.831
59135W        W22859  28.156  10.766   1.354
59136W        W22860  25.640   9.876  10.887
59137W        W22861  38.939  42.998   0.798
59138W        W22862  27.681  15.186  13.007
59139W        W22863   4.928   0.977   1.712
59140W        W22864  29.474  42.800  13.813
59141W        W22865  27.050  13.187   4.834
59142W        W22866  19.651  28.995   0.853
59143W        W22867  19.192  24.017  12.428
59144W        W22868  41.499  31.122  10.595
59145W        W22869  23.683  10.733   1.408
59146W        W22870   0.986   3.850  13.456
59147W        W22871   9.809  32.580  10.622
59148W        W22872   5.918   4.259   2.246
59149W        W22873  20.097  40.005   4.601
59150W        W22874   3.418  38.466  10.032
59151W        W22875  14.661  25.667   2.665
59152W        W22876  16.758  36.578   0.759
59153W        W22877  19.640  15.176  10.976
59154W        W22878  17.183  23.228  11.921
59155W        W22879  30.479  41.532   2.307
59156W        W22880  35.922  11.814   3.239
59157W        W22881  29.604   4.336   0.743
59158W        W22882   0.327  27.670   3.337
59159W        W22883  13.293  11.636   5.100
59160W        W22884  32.063  23.509   4.692
59161W        W22885  23.012  40.984  13.994
59162W        W22886  43.807  44.945   2.411
59163W        W22887  35.423   0.862   4.304
59164W        W22888  38.328  36.493  11.039
59165W        W22889  20.034  14.210   1.420
59166W        W22890   9.337   8.848  14.907
59167W        W22891  11.297  31.606   3.273
59168W        W22892  20.763  24.977   4.165
59169W        W22893  40.936   4.813   4.193
59170W        W22894  26.099  36.930  13.327
59171W        W22895   8.386  29.579   2.319
59172W        W22896  29.597  29.613   2.762
59173W        W22897  27.011  19.751  14.292
59174W        W22898  13.643  39.896  13.310
59175W        W22899  31.620  40.412  13.864
59176W        W22900   5.416   0.257   1.708
59177W        W22901  14.754   1.298  12.916
59178W        W22902  11.672  18.560  11.541
59179W        W22903  40.467  35.367  12.031
59180W        W22904  40.423  37.564  10.947
59181W        W22905  36.566  42.361  10.970
59182W        W22906   1.432  19.577   4.280
59183W        W22907  22.122  41.521   2.322
59184W        W22908  30.143  11.663   2.302
59185W        W22909  29.081  42.885   3.733
59186W        W22910  25.085  35.578  11.527
59187W        W22911  14.209  18.129  11.926
59188W        W22912  25.084  12.235   2.736
59189W        W22913   9.768  16.096   2.209
59190W        W22914  10.230  24.196  13.404
59191W        W22915  10.807  23.108  11.925
59192W        W22916  33.601   4.337  12.910
59193W        W22917  25.000   2.848   1.223
59194W        W22918  29.454   9.754   1.933
59195W        W22919  22.077  34.594   4.669
59196W        W22920  19.727   6.232   4.173
59197W        W22921  12.182  17.103   3.366
59198W        W22922  39.376   0.259   0.395
59199W        W22923  43.369  34.989   0.845
59200W        W22924   3.904  25.161  13.927
59201W        W22925   7.284   2.389   1.705
59202W        W22926  20.073  10.342   1.256
59203W        W22927  22.126  43.301  13.315
59204W        W22928  38.363  27.516   3.275
59205W        W22929  12.770   6.919  13.322
59206W        W22930  14.219  10.746   2.214
59207W        W22931  39.967  44.392  10.413
59208W        W22932   9.345   2.775  10.927
59209W        W22933  44.327  23.180   1.266
59210W        W22934  39.398  17.096  11.941
59211W        W22935  10.366   1.809   2.871
59212W        W22936  30.107  17.698  11.943
59213W        W22937  16.660  23.698  14.971
59214W        W22938   0.824  11.703  12.003
59215W        W22939  28.133   6.826   0.747
59216W        W22940   1.325  34.885  13.397
59217W        W22941  19.277  43.435   0.925
59218W        W22942  30.628  20.045   0.305
59219W        W22943  31.997   8.893   4.141
59220W        W22944  16.606  12.754  10.959
59221W        W22945   2.781   7.670   4.185
59222W        W22946   2.234  16.149  12.528
59223W        W22947  34.438  37.397   0.377
59224W        W22948  41.020   7.291   2.228
59225W        W22949  35.955  43.395   1.908
59226W        W22950   1.757   5.206   3.218
59227W        W22951  35.501  27.083  10.425
59228W        W22952  44.430  38.949   5.109
59229W        W22953  39.844  23.205  14.434
59230W        W22954  14.643  28.537  12.350
59231W        W22955  44.297  42.325   0.309
59232W        W22956  33.447  23.220  10.613
59233W        W22957  36.513  29.046   3.201
59234W        W22958  28.103   8.815  14.393
59235W        W22959  43.337  41.476   5.130
59236W        W22960  24.719  14.111  10.906
59237W        W22961  22.554  11.173  11.101
59238W        W22962  23.717   1.446   0.469
59239W        W22963   8.831  27.072  12.979
59240W        W22964   2.422   1.743   0.456
59241W        W22965   0.380   4.930   4.777
59242W        W22966  28.542  44.349   3.154
59243W        W22967  29.075  15.200   4.231
59244W        W22968  44.870  34.963  12.947
59245W        W22969  25.086  24.115  14.005
59246W        W22970  38.568  37.522   2.663
59247W        W22971  22.030  37.506  13.803
59248W        W22972  10.717  35.492  10.467
59249W        W22973  21.189   4.762  10.581
59250W        W22974  40.924  14.729   0.886
59251W        W22975  16.570  43.779   0.863
59252W        W22976  31.420  35.920   4.726
59253W        W22977  39.013   5.395  13.831
59254W        W22978  41.477  31.132   1.297
59255W        W22979   2.453  21.637   0.733
59256W        W22980  41.354  29.949  13.504
59257W        W22981  29.151  33.457  10.612
59258W        W22982  42.496  20.089  14.352
59259W        W22983  35.572  19.252   2.226
59260W        W22984  21.752  33.041  12.454
59261W        W22985  35.977  16.303   5.092
59262W        W22986  33.982  41.866  12.066
59263W        W22987  25.002  35.380  10.947
59264W        W22988  43.944  31.515   1.375
59265W        W22989  37.357  25.589   1.423
59266W        W22990  18.275   5.319   2.386
59267W        W22991  39.029  44.875  14.389
59268W        W22992  21.217  35.474   2.750
59269W        W22993  21.749  21.201  14.880
59270W        W22994   3.379  41.023   4.243
59271W        W22995  33.509  39.466  11.024
59272W        W22996  40.410  11.777  13.911
59273W        W22997  38.837  34.097   0.404
59274W        W22998  21.036  22.156   1.770
59275W        W22999   1.430  37.513  13.844
59276W        W23000  43.490  14.162   4.131
59277W        W23001  37.459  21.043  13.954
59278W        W23002  38.863  34.035   1.334
59279W        W23003  15.144  34.409   3.708
59280W        W23004  30.638  15.280  11.534
59281W        W23005   9.348   9.830   0.398
59282W        W23006   3.898  22.069   3.350
59283W        W23007  40.332   8.270  10.479
59284W        W23008  27.008  41.409  11.609
59285W        W23009  21.035   8.723  14.420
59286W        W23010  25.973  43.824  11.982
59287W        W23011   1.914  40.349  12.555
59288W        W23012  39.971  33.463   0.257
59289W        W23013  44.915  44.931   0.919
59290W        W23014  33.599   5.699  13.852
59291W        W23015  32.426  21.623   2.273
59292W        W23016  25.157  32.122   9.941
59293W        W23017  19.715  11.239   2.338
59294W        W23018  43.395  30.952  11.581
59295W        W23019  29.627  30.102  13.908
59296W        W23020  24.533  13.224  13.491
59297W        W23021  35.414   0.788   3.194
59298W        W23022  39.473  38.867   2.200
59299W        W23023  39.519  27.567  13.479
59300W        W23024  37.086  43.878   4.617
59301W        W23025  23.564  18.656   4.271
59302W        W23026  31.084  41.885  14.786
59303W        W23027   2.874  23.063  14.453
59304W        W23028  16.676   1.313   0.287
59305W        W23029  34.509  13.197   1.248
59306W        W23030   3.299  20.129  12.390
59307W        W23031  26.054  24.023  10.621
59308W        W23032  17.687  41.794   1.754
59309W        W23033  11.748  30.566   5.275
59310W        W23034   6.214   5.783   2.796
59311W        W23035  20.655  12.833  11.105
59312W        W23036  27.615  43.945   0.293
59313W        W23037   6.796  12.242  12.035
59314W        W23038  10.266   6.870  13.957
59315W        W23039  29.960  43.513  10.966
59316W        W23040  31.530  30.087  13.387
59317W        W23041   6.197   0.430   3.664
59318W        W23042  22.046   8.197  12.416
59319W        W23043  14.743   3.283   4.837
59320W        W23044   0.460  39.021   1.698
59321W        W23045  19.064  22.997   3.740
59322W        W23046  36.591  40.390   3.665
59323W        W23047   4.221   7.393  14.498
59324W        W23048  12.803  42.322  13.898
59325W        W23049  14.656   2.879  11.025
59326W        W23050  39.874  22.238  11.108
59327W        W23051   0.361  17.079   3.784
59328W        W23052  17.676  32.393   3.347
59329W        W23053  39.040   9.284  12.876
59330W        W23054  29.165  41.479  13.033
59331W        W23055   0.849  12.750   4.178
59332W        W23056   9.319  25.532   0.937
59333W        W23057  18.275  31.637  11.583
59334W        W23058  12.321  15.669  13.932
59335W        W23059   9.726  44.414   3.273
59336W        W23060  23.010   4.772   2.662
59337W        W23061  39.846  37.482  11.016
59338W        W23062  41.357  15.594   4.183
59339W        W23063  38.482  34.545   3.351
59340W        W23064  41.038   5.931  13.368
59341W        W23065   8.676   1.301   3.269
59342W        W23066   9.654  43.923  14.393
59343W        W23067  37.388  44.365   4.694
59344W        W23068  31.021   8.745  11.859
59345W        W23069  21.108   6.681   0.966
59346W        W23070  37.970  28.987   1.849
59347W        W23071  40.457  10.310   3.204
59348W        W23072  24.721   1.887  14.414
59349W        W23073   4.311  27.079  10.470
59350W        W23074  10.684  21.037   3.266
59351W        W23075  24.713   7.861  11.550
59352W        W23076  24.689  13.625   2.754
59353W        W23077   8.168  15.725  13.028
59354W        W23078   4.235  14.290   0.378
59355W        W23079  25.554  16.184  12.415
59356W        W23080  15.694  35.052   4.686
59357W        W23081  40.334  41.309   1.859
59358W        W23082  31.534   8.250  14.320
59359W        W23083  32.552  30.448  12.066
59360W        W23084  41.917   6.718   1.890
59361W        W23085  12.310  37.466   2.350
59362W        W23086  33.486   7.825   3.790
59363W        W23087   3.304  42.438  13.819
59364W        W23088  18.591   9.873  14.027
59365W        W23089  22.033   3.774  13.981
59366W        W23090  12.643  29.509   3.224
59367W        W23091  23.148  40.356   3.354
59368W        W23092  24.485  28.614   0.866
59369W        W23093  13.837  22.070   2.255
59370W        W23094  33.530  12.617  10.524
59371W        W23095  22.202  35.105  11.465
59372W        W23096  38.373  14.637  14.485
59373W        W23097   5.239  12.177   2.274
59374W        W23098  19.122   4.804  12.875
59375W        W23099   1.828  18.164   0.776
59376W        W23100  36.029  30.993   4.682
59377W        W23101  29.158  16.104  11.086
59378W        W23102   3.822  21.178  13.060
59379W        W23103  22.630  43.338   3.291
59380W        W23104  16.131   4.884  14.945
59381W        W23105  22.089  35.563   2.194
59382W        W23106  12.334   1.809   0.846
59383W        W23107  41.432  17.698  11.053
59384W        W23108  19.715  34.531   3.162
59385W        W23109  31.134  37.466   3.194
59386W        W23110  11.780   6.220   1.430
59387W        W23111  37.979  40.517   4.235
59388W        W23112   9.228  14.194  13.482
59389W        W23113   5.738   1.257   0.302
59390W        W23114  34.374  20.106  14.981
59391W        W23115  11.317   5.706   2.720
59392W        W23116  38.926   3.374   2.874
59393W        W23117  42.467  24.093  11.590
59394W        W23118  40.345  25.541  12.087
59395W        W23119  34.470  38.506   3.649
59396W        W23120  31.570  28.934   4.687
59397W        W23121  37.513  25.166   5.140
59398W        W23122  16.137  30.476   4.631
59399W        W23123  37.353  10.172  14.402
59400W        W23124  16.795  40.383  12.870
59401W        W23125  39.484  43.879   0.449
59402W        W23126   2.387  21.262  10.912
59403W        W23127   4.935  33.079  14.495
59404W        W23128  12.154  34.054  12.087
59405W        W23129  17.280  30.078   0.853
59406W        W23130  24.617  29.979  12.565
59407W        W23131   9.655   4.920   1.371
59408W        W23132  38.971  31.928  12.883
59409W        W23133  15.727  25.007  11.604
59410W        W23134   5.748  36.537   3.349
59411W        W23135  21.606  25.116   2.212
59412W        W23136   0.920  22.074   4.637
59413W        W23137   6.249  38.382  14.930
59414W        W23138  21.671  25.015   3.728
59415W        W23139   7.758  43.343  10.504
59416W        W23140   8.162   0.957  10.552
59417W        W23141   2.740  23.626  11.951
59418W        W23142  22.699  28.986  13.883
59419W        W23143  15.163  27.655   3.807
59420W        W23144  37.578  18.206  12.422
59421W        W23145   4.224  22.647   3.197
59422W        W23146  10.147  16.781   2.320
59423W        W23147  11.269  15.140  10.977
59424W        W23148  21.170  32.075   4.793
59425W        W23149  33.511  26.129  11.972
59426W        W23150   6.825  27.538   1.341
59427W        W23151  10.757  24.605  13.360
59428W        W23152  10.296  44.294  10.429
59429W        W23153  32.031  24.599   2.696
59430W        W23154  44.469  43.475   3.808
59431W        W23155   9.818  40.507   1.872
59432W        W23156  32.129   6.907   1.876
59433W        W23157  18.213  18.709  11.559
59434W        W23158  37.538  22.059  11.507
59435W        W23159  20.121  18.080   4.349
59436W        W23160  14.182  39.441   1.346
59437W        W23161   2.249  25.616   0.918
59438W        W23162   3.895  18.091   0.928
59439W        W23163   6.267   2.773  13.444
59440W        W23164  18.170  35.970  14.461
59441W        W23165  34.919  38.895   2.745
59442W        W23166  32.051   1.734   5.226
59443W        W23167  40.912  40.542   1.323
59444W        W23168   3.881  38.989   3.805
59445W        W23169  28.570  16.651  11.882
59446W        W23170   1.418  26.571  12.343
59447W        W23171   8.388   0.940  12.069
59448W        W23172   3.910  29.932   4.196
59449W        W23173  17.617  28.561   0.783
59450W        W23174  23.567  41.368   3.328
59451W        W23175  43.354  24.022  14.376
59452W        W23176   7.715  21.735   1.709
59453W        W23177  26.016  42.030  12.849
59454W        W23178   3.778  38.440   4.766
59455W        W23179  35.916  28.441  12.022
59456W        W23180  42.962  27.197  12.006
59457W        W23181   2.891  17.300   4.223
59458W        W23182  19.116  31.994   3.685
59459W        W23183  13.648   3.744   5.220
59460W        W23184  16.286  18.249  11.122
59461W        W23185  11.839  19.178   0.956
59462W        W23186  35.399  37.076  14.780
59463W        W23187  15.793  40.897   4.141
59464W        W23188  12.616  22.213   1.769
59465W        W23189  43.936  28.131  12.531
59466W        W23190  37.443  36.936  12.507
59467W        W23191  25.579  43.906  14.801
59468W        W23192   1.852   4.740   1.878
59469W        W23193   3.746  44.358  13.909
59470W        W23194  14.334   6.756   4.617
59471W        W23195   1.443  22.692  14.283
59472W        W23196   1.861  18.066  11.057
59473W        W23197   7.273  30.427  10.479
59474W        W23198  16.176   9.274  14.840
59475W        W23199  25.091   2.452   0.776
59476W        W23200  27.071   5.689   1.367
59477W        W23201  22.537  19.094   3.836
59478W        W23202   2.865   0.826   2.743
59479W        W23203  23.172  30.648  10.570
59480W        W23204   5.836  41.871  11.520
59481W        W23205   5.307  21.211  13.366
59482W        W23206  35.409   7.845  11.511
59483W        W23207  12.131   8.877   2.347
59484W        W23208  13.346   1.450   0.277
59485W        W23209  14.607  34.526   1.840
59486W        W23210  23.090  29.563  13.480
59487W        W23211  19.194  41.790   2.829
59488W        W23212   8.186   1.382  11.555
59489W        W23213   8.335  43.369  10.536
59490W        W23214   9.241  12.166   3.357
59491W        W23215   5.200   6.792   3.372
59492W        W23216  22.745  31.983  14.443
59493W        W23217  10.732  44.476   0.254
59494W        W23218  16.649   8.707   1.826
59495W        W23219  14.183  21.540  13.482
59496W        W23220   1.288  24.536   2.888
59497W        W23221   5.255  28.183  11.025
59498W        W23222  20.707  18.198   2.242
59499W        W23223  22.046  31.970   4.713
59500W        W23224   2.290  42.876  13.843
59501W        W23225  19.099   0.928  10.915
59502W        W23226  34.973   7.417   2.212
59503W        W23227  19.273  27.192  14.326
59504W        W23228  10.182   5.418   4.191
59505W        W23229  13.807  23.197  12.420
59506W        W23230  18.731  20.235  13.350
59507W        W23231   3.940  14.273  11.053
59508W        W23232   2.371  15.737  10.060
59509W        W23233   0.792  20.561   3.176
59510W        W23234  25.105  19.061  11.481
59511W        W23235   6.736  42.002   1.715
59512W        W23236  14.817  26.513  11.125
59513W        W23237  26.478  23.209  12.932
59514W        W23238  11.833  21.693  14.487
59515W        W23239  35.012  37.376  13.336
59516W        W23240   6.397  38.471   2.288
59517W        W23241  31.567  34.412  13.337
59518W        W23242  11.697  25.016  11.074
59519W        W23243  31.056  35.954   3.248
59520W        W23244  16.208  31.988   4.684
59521W        W23245  15.705  13.231  13.474
59522W        W23246  41.385   1.919   4.131
59523W        W23247  15.678  27.557  10.900
59524W        W23248  25.156   8.197  14.853
59525W        W23249  24.990  26.052   0.336
59526W        W23250  23.016  36.066  12.969
59527W        W23251   7.781  33.422  10.032
59528W        W23252  11.209   5.716   4.319
59529W        W23253  31.075  25.472   1.739
59530W        W23254  15.759  40.457  13.921
59531W        W23255  21.153  40.842   4.813
59532W        W23256  15.653  37.862  13.917
59533W        W23257  10.303  33.910   3.296
59534W        W23258  36.051   8.818  10.997
59535W        W23259  38.889   6.224  14.825
59536W        W23260  16.111   2.227   4.270
59537W        W23261  34.927  35.390   1.227
59538W        W23262   6.263  15.129   4.827
59539W        W23263  12.683  27.098  12.370
59540W        W23264  30.068  26.070   2.878
59541W        W23265  34.029  15.586   2.742
59542W        W23266  37.953   0.330   2.313
59543W        W23267  43.356   0.291  11.021
59544W        W23268  39.398  13.796   4.710
59545W        W23269  10.224   4.777  13.531
59546W        W23270  14.102  20.758  11.873
59547W        W23271   2.415  36.537   4.283
59548W        W23272  23.039  25.671   2.224
59549W        W23273  35.936  16.587   0.793
59550W        W23274   2.819   6.905   0.850
59551W        W23275   3.753  20.209   1.718
59552W        W23276  14.320   6.332   2.240
59553W        W23277  28.063   0.460   2.344
59554W        W23278  17.648  15.125   3.664
59555W        W23279  39.429  14.269  14.451
59556W        W23280   3.336  37.880  12.000
59557W        W23281  16.757  36.939  11.049
59558W        W23282  42.828  38.870   1.243
59559W        W23283   1.477  24.597   0.451
59560W        W23284  26.200  34.382   2.882
59561W        W23285  10.650   9.327   2.399
59562W        W23286  41.935  42.921  11.592
59563W        W23287  31.063  34.449  11.433
59564W        W23288   7.706   5.806  10.021
59565W        W23289  24.584  16.125  11.894
59566W        W23290  15.631   9.794   0.478
59567W        W23291  36.478  44.875   1.261
59568W        W23292  33.426  23.544   2.763
59569W        W23293   7.391  15.249  14.857
59570W        W23294  31.593   8.277   1.895
59571W        W23295   0.482  29.007  14.337
59572W        W23296   2.377  35.394  13.399
59573W        W23297  18.722  16.786   4.726
59574W        W23298  24.535   0.297   0.876
59575W        W23299  16.699   0.252   3.791
59576W        W23300  30.645  40.872   0.897
59577W        W23301  33.524  43.884   4.187
59578W        W23302  42.327  37.425  11.908
59579W        W23303   2.365   3.298   3.154
59580W        W23304  39.954  14.201   0.250
59581W        W23305   9.241  19.196  11.037
59582W        W23306  38.967  18.680  13.928
59583W        W23307  19.186  13.162  10.034
59584W        W23308  17.700  29.582   1.276
59585W        W23309  28.475   8.746   3.686
59586W        W23310   0.321  15.627   4.675
59587W        W23311  42.504   6.749  13.812
59588W        W23312   3.285  21.140   0.763
59589W        W23313  40.023  17.766  11.967
59590W        W23314   9.387  10.149   0.429
59591W        W23315  14.732  12.765  10.147
59592W        W23316  25.541  25.073  14.759
59593W        W23317   2.789   0.850  14.825
59594W        W23318  41.295  19.107  11.383
59595W        W23319  13.717  21.711   1.745
59596W        W23320  29.124  29.047   2.305
59597W        W23321  40.532  16.743   4.625
59598W        W23322  12.728  29.555   1.933
59599W        W23323   1.242  15.146  13.333
59600W        W23324   2.445   3.776   4.217
59601W        W23325  27.100  37.509  10.551
59602W        W23326  15.674  38.471  12.365
59603W        W23327  35.909  25.652   4.116
59604W        W23328  24.211  27.162   3.165
59605W        W23329   5.410   3.449  11.118
59606W        W23330  44.437  19.240  13.943
59607W        W23331  32.633  14.749  13.439
59608W        W23332  21.695  29.658   2.207
59609W        W23333   9.862  15.146   2.275
59610W        W23334  30.544  10.715   0.864
59611W        W23335   3.920  14.605  13.337
59612W        W23336  43.943  38.470  12.065
59613W        W23337  12.681   5.849  13.526
59614W        W23338   1.952  43.973  11.530
59615W        W23339  31.945  36.037   0.885
59616W        W23340  38.992  25.586   1.408
59617W        W23341   0.798   8.840   0.939
59618W        W23342   3.750  26.581  10.960
59619W        W23343   8.797  26.196  14.975
59620W        W23344   4.245  34.957  10.591
59621W        W23345  40.535   4.925  14.032
59622W        W23346  24.507  44.829   4.156
59623W        W23347  35.064   2.772   1.238
59624W        W23348  37.437  24.062  13.813
59625W        W23349  44.814  39.934  12.848
59626W        W23350   7.205  38.028   1.241
59627W        W23351  13.745  38.499  14.809
59628W        W23352  25.032  18.717  11.962
59629W        W23353   9.768   6.900   4.663
59630W        W23354  33.056  21.117   1.879
59631W        W23355  26.956  20.632  13.487
59632W        W23356  37.860  34.481  13.907
59633W        W23357   7.753  14.626  11.961
59634W        W23358  33.994   6.806  14.371
59635W        W23359  30.014  18.716   1.303
59636W        W23360  28.493   7.344  14.858
59637W        W23361   2.913  15.614   0.338
59638W        W23362  17.066  25.502  10.408
59639W        W23363  15.795  22.713  10.606
59640W        W23364   9.796  11.231   2.281
59641W        W23365  16.792  24.162  11.974
59642W        W23366  35.089   2.436   1.351
59643W        W23367  17.291   9.205  11.471
59644W        W23368  18.780   8.752   2.677
59645W        W23369  21.569  27.500   4.300
59646W        W23370  31.929  39.023  11.502
59647W        W23371  36.024  21.027  11.860
59648W        W23372  26.174  12.631  13.473
59649W        W23373  27.001  10.780  11.902
59650W        W23374   4.762   1.943  12.466
59651W        W23375   8.897  22.729  13.897
59652W        W23376  37.081  25.035   0.850
59653W        W23377  29.526  15.261  10.613
59654W        W23378  20.538  20.088   2.895
59655W        W23379  43.917   8.670  12.412
59656W        W23380  24.594  40.889   1.732
59657W        W23381  35.427   7.780  11.128
59658W        W23382   4.257  29.982   4.299
59659W        W23383  30.543  17.109   5.093
59660W        W23384  40.998   2.836   1.876
59661W        W23385  28.520  30.431  11.019
59662W        W23386  33.909  18.267  14.005
59663W        W23387  13.133  28.995   1.352
59664W        W23388   1.866   8.257  12.064
59665W        W23389   7.404  24.506  13.010
59666W        W23390  43.421  13.783  10.455
59667W        W23391  34.949  41.442  12.892
59668W        W23392   4.239   7.794   3.695
59669W        W23393  19.547  13.665  12.886
59670W        W23394  34.086  19.229   4.646
59671W        W23395  12.345   6.790  11.018
59672W        W23396  11.635  14.106   1.236
59673W        W23397  34.443   5.331   2.796
59674W        W23398  36.491  13.225   3.631
59675W        W23399  14.159  16.648   0.922
59676W        W23400   1.273  36.457  11.464
59677W        W23401  37.386   0.896  12.354
59678W        W23402  10.797  31.050  14.914
59679W        W23403   6.743  14.681  12.091
59680W        W23404  15.092  12.246   3.871
59681W        W23405   0.262  13.334   3.842
59682W        W23406   0.319  17.163  12.876
59683W        W23407  40.518  39.880  12.828
59684W        W23408  28.531  32.589   1.735
59685W        W23409  33.092  42.886   0.929
59686W        W23410  14.315  16.677   4.331
59687W        W23411  21.524   4.918  13.947
59688W        W23412  11.196   5.931   2.190
59689W        W23413  24.491  38.963  10.635
59690W        W23414   5.214  15.664   4.620
59691W        W23415   7.755  26.959   4.709
59692W        W23416  22.731  15.664  12.823
59693W        W23417  23.726  22.736  11.520
59694W        W23418  41.864  31.137  14.806
59695W        W23419   5.343   6.762  11.083
59696W        W23420  43.354  39.829   2.407
59697W        W23421  25.626  22.711  11.092
59698W        W23422  13.351  19.244  13.510
59699W        W23423  15.095  10.233  13.943
59700W        W23424  39.871  23.544   1.904
59701W        W23425  35.095  40.487  12.095
59702W        W23426  11.649  32.565  11.950
59703W        W23427  41.985  28.506  11.981
59704W        W23428   6.264   4.888   3.849
59705W        W23429   4.450  30.928   1.262
59706W        W23430  36.015  29.519   3.734
59707W        W23431  35.471  19.091  12.526
59708W        W23432   7.903  40.937  11.921
59709W        W23433  41.507  38.881   1.425
59710W        W23434  36.441  25.018   0.824
59711W        W23435  38.870  33.575   1.325
59712W        W23436   8.731  44.898   0.792
59713W        W23437  14.589  42.332   0.418
59714W        W23438  32.471  14.258  14.337
59715W        W23439  41.965  22.016  11.042
59716W        W23440  18.094  43.008  10.517
59717W        W23441  19.607  19.188   4.707
59718W        W23442  15.169  12.727   4.638
59719W        W23443  44.802  11.250  13.440
59720W        W23444  39.813  10.744  11.035
59721W        W23445  38.426   2.799   1.386
59722W        W23446  36.995  14.728   2.309
59723W        W23447  30.599   2.784  12.069
59724W        W23448   8.813  26.568  11.087
59725W        W23449  39.953  27.686   3.369
59726W        W23450  28.168  42.787  11.967
59727W        W23451  34.034  10.689   1.737
59728W        W23452  14.735   3.347   1.768
59729W        W23453  40.320   1.762   3.302
59730W        W23454  18.051  40.854  11.382
59731W        W23455  33.957  11.366   1.771
59732W        W23456  11.657  11.711   0.389
59733W        W23457  13.193  32.549  13.535
59734W        W23458  28.657   8.887   1.404
59735W        W23459   1.771  16.206  13.455
59736W        W23460  38.952  37.412  13.856
59737W        W23461  34.103  19.693  10.542
59738W        W23462  20.613  17.612  14.502
59739W        W23463  22.095  24.219  11.956
59740W        W23464   4.922   6.378   3.217
59741W        W23465  42.880  34.388  10.632
59742W        W23466   2.371  17.174   3.235
59743W        W23467  37.985  27.521   1.768
59744W        W23468  19.585   9.309   3.328
59745W        W23469   8.361   6.240  13.953
59746W        W23470  13.234  42.854  13.853
59747W        W23471   9.159  33.928  10.524
59748W        W23472   9.710  31.468   0.310
59749W        W23473  28.134  24.705  12.901
59750W        W23474  35.375  32.602   3.744
59751W        W23475   3.862   0.265   1.348
59752W        W23476  11.621  16.775  12.008
59753W        W23477  27.068  10.358   0.728
59754W        W23478  22.015  12.362   4.116
59755W        W23479  26.501  19.711   0.938
59756W        W23480   6.276  35.900   0.346
59757W        W23481  19.635   0.379  12.521
59758W        W23482  42.901   9.740   3.674
59759W        W23483  20.738  31.402  10.463
59760W        W23484  39.516  28.996  12.031
59761W        W23485   0.362  26.519   4.677
59762W        W23486   1.341  27.155  11.608
59763W        W23487  12.266   6.728   0.420
59764W        W23488  35.435   2.776  12.991
59765W        W23489  19.057  43.816   0.832
59766W        W23490   1.809   2.861  12.512
59767W        W23491   8.223  41.327  11.554
59768W        W23492  38.895   4.288   9.932
59769W        W23493  41.933  18.582  14.928
59770W        W23494  11.318  18.742   4.234
59771W        W23495   3.434  26.568   4.354
59772W        W23496  38.880  20.697  13.430
59773W        W23497  27.980  18.077  10.557
59774W        W23498  11.823  39.819   1.861
59775W        W23499  16.641  12.362   1.743
59776W        W23500  43.334  35.409   5.270
59777W        W23501  39.923  27.012  14.314
59778W        W23502  10.271  32.897   4.114
59779W        W23503  14.193  29.578  10.595
59780W        W23504  41.355  35.512   4.273
59781W        W23505   3.909   3.720   0.729
59782W        W23506  30.984  15.321  13.851
59783W        W23507  24.697   2.724   1.895
59784W        W23508  28.938  37.988   0.376
59785W        W23509  38.388   5.319  11.013
59786W        W23510  12.843   3.296  10.439
59787W        W23511  38.477   6.310  14.892
59788W        W23512  18.654  22.246  14.969
59789W        W23513  23.075  27.026   0.847
59790W        W23514  29.987   3.835  13.892
59791W        W23515  36.452  44.963   2.866
59792W        W23516  13.787  10.149   0.280
59793W        W23517  14.699  23.045   1.782
59794W        W23518  14.708  37.444   5.159
59795W        W23519   7.292  30.065   3.182
59796W        W23520  30.962  44.977  14.359
59797W        W23521  13.153  10.808   4.766
59798W        W23522   6.280   5.355  14.945
59799W        W23523  38.399   8.820  11.072
59800W        W23524   5.788  24.705   0.788
59801W        W23525  18.244  31.153   4.127
59802W        W23526  39.515  11.625  11.467
59803W        W23527  27.075  37.517   4.738
59804W        W23528  41.947  42.884  13.935
59805W        W23529  43.821  30.434   3.314
59806W        W23530  10.664  38.388  13.536
59807W        W23531   4.717   4.721   4.250
59808W        W23532   4.381  18.247  11.117
59809W        W23533  25.552  23.043   2.351
59810W        W23534  15.603  18.683   3.705
59811W        W23535  23.583  10.801  11.092
59812W        W23536   4.364   9.177  12.841
59813W        W23537  27.997  27.193  11.501
59814W        W23538  27.506   2.428   3.287
59815W        W23539  39.886  20.244   3.720
59816W        W23540  24.548   8.862  11.465
59817W        W23541  18.254   6.299  14.407
59818W        W23542  42.431   3.896  11.536
59819W        W23543  34.465   8.887  12.876
59820W        W23544  33.427  43.779   0.306
59821W        W23545  38.902  21.091  11.098
59822W        W23546  15.593  16.681   0.733
59823W        W23547  40.047  39.907  10.914
59824W        W23548  23.203  10.866  15.000
59825W        W23549  16.266  34.409   1.923
59826W        W23550  12.718  31.491  11.870
59827W        W23551  15.743   5.808  11.578
59828W        W23552  28.462  41.986   1.777
59829W        W23553  10.864  41.938  12.846
59830W        W23554  31.591  39.398   2.769
59831W        W23555  34.459  42.941  13.988
59832W        W23556  44.345  32.595   2.414
59833W        W23557  10.339   3.274  13.973
59834W        W23558   6.226  37.441   0.797
59835W        W23559  43.275  28.061   4.262
59836W        W23560  34.089  13.271   2.315
59837W        W23561  11.232   5.848  14.297
59838W        W23562  20.635  35.561  14.934
59839W        W23563  33.388  21.140  11.962
59840W        W23564  40.453  10.834   1.919
59841W        W23565  39.822  42.285  10.446
59842W        W23566  22.237  22.103  13.351
59843W        W23567  35.485  36.510  12.345
59844W        W23568   7.677  19.222   2.670
59845W        W23569  25.086   9.390   1.835
59846W        W23570   9.777  24.032   2.898
59847W        W23571   9.810  19.584   1.226
59848W        W23572  15.671   0.938   5.089
59849W        W23573  12.306   3.442  12.869
59850W        W23574  23.231   7.299  10.928
59851W        W23575  22.051  22.095   1.913
59852W        W23576  42.900  23.231   0.742
59853W        W23577  19.265  37.897  13.440
59854W        W23578  34.022   3.792  13.383
59855W        W23579  32.986  41.533   2.776
59856W        W23580   9.381  30.611  13.805
59857W        W23581  16.193  32.958   2.402
59858W        W23582  38.851   0.381   0.935
59859W        W23583   1.323  17.684   2.321
59860W        W23584  21.678  44.501   0.766
59861W        W23585  19.088  12.206   4.118
59862W        W23586   2.876  20.182   1.256
59863W        W23587   1.773  43.425   4.269
59864W        W23588  32.407  26.703   2.397
59865W        W23589   2.385  12.204   1.769
59866W        W23590   8.367  10.857  14.857
59867W        W23591  17.137  26.960   4.665
59868W        W23592   7.361  30.491   2.289
59869W        W23593  39.354  26.583   5.221
59870W        W23594  31.421  35.071  12.842
59871W        W23595  35.397  33.003  12.563
59872W        W23596  19.696  32.515  13.378
59873W        W23597  44.444  36.946  10.953
59874W        W23598   2.246  29.560  13.527
59875W        W23599  40.889  24.177  10.905
59876W        W23600  41.458  33.124   4.234
59877W        W23601   3.349  27.455   4.235
59878W        W23602  43.864  39.444  12.934
59879W        W23603  39.985  12.738   3.653
59880W        W23604  42.401  38.524   4.125
59881W        W23605  41.013  17.085   3.679
59882W        W23606  24.636  39.031  14.780
59883W        W23607  40.933  15.321   0.911
59884W        W23608   6.712  22.124  11.090
59885W        W23609  14.155  41.858   1.844
59886W        W23610  43.497  34.504   1.214
59887W        W23611  23.518  30.621   1.768
59888W        W23612  31.933   5.826   3.840
59889W        W23613   0.347   4.721   0.776
59890W        W23614  12.174  37.967   4.285
59891W        W23615   2.884  21.071  14.805
59892W        W23616  24.632  42.527  10.524
59893W        W23617  15.276   1.806  11.481
59894W        W23618  26.597  25.649   1.909
59895W        W23619   5.381  36.588   1.323
59896W        W23620  26.643  38.933   2.694
59897W        W23621  26.139  42.852   4.757
59898W        W23622  37.558  25.605   4.250
59899W        W23623  33.096  22.600   2.691
59900W        W23624  18.159  25.157  13.396
59901W        W23625   7.781  42.483   1.243
59902W        W23626  16.136  12.177   1.892
59903W        W23627  29.086  13.321  14.463
59904W        W23628  29.482   2.291  12.457
59905W        W23629  43.875  19.038  13.976
59906W        W23630  29.548  28.511  12.360
59907W        W23631  15.761  35.007  11.972
59908W        W23632  36.551   8.895  14.977
59909W        W23633  13.615   3.730   0.890
59910W        W23634  44.376  35.448   4.708
59911W        W23635  27.466   6.201  14.480
59912W        W23636  39.559  32.470   3.212
59913W        W23637   0.455   5.431  11.914
59914W        W23638  43.864  38.010  11.556
59915W        W23639  19.182  33.554  12.961
59916W        W23640  40.041  35.490  13.470
59917W        W23641   9.271  35.004  14.310
59918W        W23642  20.113  30.530  11.105
59919W        W23643  14.822  20.548  10.489
59920W        W23644   2.952  31.511  11.994
59921W        W23645   5.367  10.794   3.645
59922W        W23646  22.635   7.746  12.018
59923W        W23647  15.819  32.138   4.728
59924W        W23648  23.661   0.433  11.546
59925W        W23649  14.765  15.607  10.484
59926W        W23650   1.941  14.605   4.237
59927W        W23651   7.783   7.896   3.855
59928W        W23652  19.054   3.804  12.398
59929W        W23653  19.621  29.603  13.376
59930W        W23654  30.600   0.468  12.476
59931W        W23655  27.651  16.667  12.964
59932W        W23656  21.224  19.230   1.381
59933W        W23657  10.327   4.790   0.321
59934W        W23658  16.715  26.091   3.302
59935W        W23659  29.021  33.002  13.434
59936W        W23660  13.174  35.538   0.908
59937W        W23661  11.305  15.724  10.573
59938W        W23662  19.768  11.863  11.115
59939W        W23663  13.167  35.044   0.728
59940W        W23664  26.164  33.936   3.189
59941W        W23665  16.248  22.066   2.810
59942W        W23666  27.191   8.346   1.435
59943W        W23667  40.032   9.707   0.466
59944W        W23668  14.250   1.867   0.817
59945W        W23669  40.006   6.424   0.404
59946W        W23670  14.820  21.093  14.844
59947W        W23671  27.656   1.787  14.794
59948W        W23672  28.108  20.766  14.411
59949W        W23673  37.882  34.914   3.327
59950W        W23674  18.606  43.350  13.308
59951W        W23675   7.361   0.955  11.054
59952W        W23676  11.319  14.187  13.883
59953W        W23677   6.392  18.583   1.834
59954W        W23678  25.058  22.738  11.975
59955W        W23679  18.079  20.687  13.807
59956W        W23680  26.699   7.244   4.307
59957W        W23681  21.518  11.742  14.332
59958W        W23682  29.588  37.363  13.923
59959W        W23683  26.467   4.316   2.362
59960W        W23684  25.094  24.182  10.991
59961W        W23685   0.452  39.038   3.723
59962W        W23686  30.025  28.593  12.462
59963W        W23687  18.245  38.453  12.051
59964W        W23688   0.823  11.183   4.336
59965W        W23689  29.623  11.214  11.473
59966W        W23690  35.502   7.257   1.869
59967W        W23691   1.375  15.759   3.777
59968W        W23692  27.094  35.021  13.856
59969W        W23693  38.938  41.313   2.349
59970W        W23694  38.974  29.151   1.740
59971W        W23695  12.734  17.225  10.596
59972W        W23696  34.580  35.009  10.522
59973W        W23697  44.804  27.141  12.357
59974W        W23698   8.665  20.613   4.709
59975W        W23699  25.665  33.006  12.460
59976W        W23700   2.962  36.876   2.374
59977W        W23701   6.693  42.869   0.366
59978W        W23702  26.533  23.719   0.747
59979W        W23703   5.303  19.622  11.426
59980W        W23704  42.299  23.567   4.145
59981W        W23705  17.599  22.250  13.335
59982W        W23706  33.915  35.990   4.119
59983W        W23707   2.439  31.424   4.687
59984W        W23708  11.188  21.190   3.196
59985W        W23709  16.201  41.424  14.860
59986W        W23710  42.348  15.099  11.883
59987W        W23711  13.839   5.411  12.509
59988W        W23712  37.966   1.738   3.700
59989W        W23713  21.109  25.992   4.757
59990W        W23714  13.198  36.997   0.902
59991W        W23715   6.351  34.038  10.920
59992W        W23716  18.132  35.579  14.930
59993W        W23717  36.486   1.426  12.966
59994W        W23718   6.232  31.501  14.759
59995W        W23719  44.465   2.268  12.920
59996W        W23720  34.442   8.673   0.273
59997W        W23721  17.097  11.798  13.401
59998W        W23722  10.773  41.415  11.856
59999W        W23723  41.948  11.678  10.153
60000W        W23724  26.077  17.237   3.736
60001W        W23725  15.091  10.362   0.390
60002W        W23726   8.403  29.117   0.768
60003W        W23727  24.032  21.602  10.419
60004W        W23728  23.596   6.815   0.309
60005W        W23729  15.122  18.762  14.032
60006W        W23730  29.074  29.140  13.010
60007W        W23731  17.268  16.089  11.875
60008W        W23732  42.450  17.564   4.249
60009W        W23733  20.722  38.912   3.832
60010W        W23734   9.177  15.152  13.878
60011W        W23735  15.609  37.887   0.270
60012W        W23736  22.718  23.029   4.683
60013W        W23737  27.081  13.761   4.116
60014W        W23738   1.901  37.010   1.241
60015W        W23739   6.792   8.831   2.221
60016W        W23740  34.113  38.973   1.391
60017W        W23741  27.198  27.593  11.401
60018W        W23742   6.389  42.798  11.075
60019W        W23743  17.688  12.232  12.546
60020W        W23744  34.498  27.661  13.530
60021W        W23745  30.522  42.884   4.337
60022W        W23746   6.334  44.944   2.796
60023W        W23747  11.341  19.775   1.700
60024W        W23748   3.807   6.767  11.112
60025W        W23749   1.797  43.510  11.401
60026W        W23750  17.693   8.280   1.815
60027W        W23751  41.486  19.094   3.740
60028W        W23752  27.530  35.502  10.920
60029W        W23753  40.881  13.797   3.717
60030W        W23754  17.285   2.878  14.484
60031W        W23755  20.223  19.558  10.593
60032W        W23756  30.502  30.657   3.344
60033W        W23757  41.333  38.470  11.897
60034W        W23758  31.117  20.558  12.543
60035W        W23759  15.654  11.215   3.177
60036W        W23760  28.522   3.260   4.597
60037W        W23761  18.663  11.263   4.171
60038W        W23762  23.009   0.267   3.761
60039W        W23763  23.009  17.064  14.835
60040W        W23764  10.138  35.967   3.682
60041W        W23765   1.477   5.278   3.666
60042W        W23766   9.889  24.482   3.200
60043W        W23767  20.712  44.443  14.363
60044W        W23768   1.246  29.029  14.447
60045W        W23769  29.004  19.546  12.421
60046W        W23770  32.917  14.164   4.325
60047W        W23771  18.177   5.319   4.168
60048W        W23772   6.383  38.931   2.403
60049W        W23773  18.611  18.732  14.469
60050W        W23774  42.884  39.494  12.904
60051W        W23775  24.654   9.849  11.066
60052W        W23776  28.612   8.687  11.989
60053W        W23777  33.104   3.715  11.380
60054W        W23778  19.270  36.027   4.258
60055W        W23779  33.483   7.778   0.783
60056W        W23780  41.308  13.333   2.740
60057W        W23781  35.904  18.056   0.437
60058W        W23782  31.402  22.175   4.211
60059W        W23783  16.105  10.813   0.827
60060W        W23784  25.122  38.473  10.956
60061W        W23785  34.886  25.028   3.370
60062W        W23786  11.807  17.609  11.859
60063W        W23787   4.925  29.498   2.213
60064W        W23788  26.051  19.704   4.331
60065W        W23789  13.272   9.778   3.292
60066W        W23790  10.183  39.436   0.859
60067W        W23791  17.714  20.524  13.480
60068W        W23792  17.202  23.015  14.956
60069W        W23793  30.510   9.194  11.882
60070W        W23794  18.179  37.505  10.988
60071W        W23795  25.713  24.019   3.213
60072W        W23796  40.511  43.302  14.911
60073W        W23797  16.305  30.143   2.333
60074W        W23798  34.571  27.573   0.436
60075W        W23799  11.739   7.239  11.982
60076W        W23800  10.759  38.480   1.935
60077W        W23801   7.837  16.286   1.399
60078W        W23802   5.304   8.207  11.494
60079W        W23803  28.598  37.579  10.454
60080W        W23804   1.751  19.056  12.477
60081W        W23805  38.529  31.620   4.254
60082W        W23806  30.625  35.563  12.448
60083W        W23807  28.005   8.189   3.212
60084W        W23808  24.155  41.990  12.498
60085W        W23809  29.112  27.021  14.761
60086W        W23810  10.837  25.113   1.843
60087W        W23811  36.975   3.335   4.795
60088W        W23812  10.733  26.491   2.880
60089W        W23813  17.221  36.487  11.006
60090W        W23814   9.284  14.213  11.925
60091W        W23815  31.068   5.346  12.364
60092W        W23816  15.197  36.488   0.243
60093W        W23817   8.708  31.142   3.287
60094W        W23818  30.113  13.604  13.446
60095W        W23819  28.544   9.698   1.918
60096W        W23820  21.044   8.316  14.427
60097W        W23821  26.076   7.410  10.430
60098W        W23822  25.620  22.156  12.572
60099W        W23823  30.435  11.153   4.783
60100W        W23824  10.827  30.054   2.742
60101W        W23825  40.505  40.518  10.991
60102W        W23826  18.565  26.492  13.886
60103W        W23827  14.805  12.779   4.739
60104W        W23828   3.450  16.796   4.280
60105W        W23829   0.294  13.110   1.807
60106W        W23830  28.131  12.154   3.850
60107W        W23831  21.081  33.406   2.843
60108W        W23832  13.607  36.939  11.568
60109W        W23833  36.564  14.618  14.967
60110W        W23834  44.762  11.784  10.599
60111W        W23835  28.959  31.020   0.333
60112W        W23836   2.779  22.523   4.670
60113W        W23837  16.288   7.710  12.049
60114W        W23838  35.570  34.093  11.418
60115W        W23839   9.305   5.386  12.495
60116W        W23840  39.900  14.187   4.756
60117W        W23841  39.352  15.773   1.313
60118W        W23842  41.860   2.848  14.851
60119W        W23843   3.376  31.489   4.207
60120W        W23844  42.499  30.159  10.585
60121W        W23845  10.359  38.470   1.379
60122W        W23846  18.142  29.496  13.389
60123W        W23847  35.566  17.169   2.722
60124W        W23848  42.432   5.356  14.016
60125W        W23849  19.092  35.401  13.524
60126W        W23850  17.696  22.501   1.765
60127W        W23851  37.862  21.747  14.766
60128W        W23852   1.293  40.025  12.055
60129W        W23853  16.217  18.656  10.442
60130W        W23854   7.202  27.149  14.915
60131W        W23855  29.076  37.854  12.549
60132W        W23856   3.785   1.394  11.064
60133W        W23857  22.585   0.280   2.694
60134W        W23858   5.432  34.464   2.326
60135W        W23859  32.436  40.012   4.329
60136W        W23860  24.500   4.293  13.002
60137W        W23861  17.283   6.237  13.845
60138W        W23862  35.870  18.619  10.410
60139W        W23863  34.055   4.854   4.331
60140W        W23864  22.572  14.101   4.613
60141W        W23865  30.471   9.694  13.036
60142W        W23866   0.427  18.614  11.124
60143W        W23867  11.626  20.110  14.510
60144W        W23868  27.044  34.480   1.785
60145W        W23869  15.637  23.189  12.370
60146W        W23870  32.104  36.005   3.373
60147W        W23871  35.964  33.096   3.753
60148W        W23872  29.126  41.839  11.449
60149W        W23873  35.922  37.511  10.611
60150W        W23874  22.510  30.032  12.083
60151W        W23875  28.955   3.803   0.790
60152W        W23876  12.811  39.066  11.983
60153W        W23877  21.569  24.524   1.823
60154W        W23878  21.183  41.308  13.928
60155W        W23879  34.505   1.475  11.386
60156W        W23880  39.997  26.074   0.927
60157W        W23881  22.118  19.586  13.894
60158W        W23882  10.285  24.710  13.419
60159W        W23883  44.490  17.241   1.248
60160W        W23884   7.330  10.227   1.377
60161W        W23885  44.848   7.219   4.125
60162W        W23886  23.231  20.711   2.771
60163W        W23887  15.203  21.511  14.289
60164W        W23888  41.947  11.642  10.890
60165W        W23889  33.081  11.341  10.453
60166W        W23890  38.542   0.931   0.730
60167W        W23891  25.182  26.533   2.222
60168W        W23892  35.101  22.666   0.872
60169W        W23893   0.285  18.600   2.775
60170W        W23894   2.279  44.968   3.192
60171W        W23895  40.808  15.193  10.581
60172W        W23896  39.375  22.738  12.371
60173W        W23897  20.764  19.226  14.981
60174W        W23898  10.779  44.002   2.346
60175W        W23899  35.565  16.131   3.327
60176W        W23900  21.106  15.199   2.705
60177W        W23901  42.916  38.854  12.043
60178W        W23902   8.207  40.907  12.541
60179W        W23903   2.732  28.946   4.268
60180W        W23904  12.785  41.376  12.868
60181W        W23905   7.310  40.895   2.816
60182W        W23906  43.411   8.380   3.754
60183W        W23907  19.118  31.519  10.528
60184W        W23908  21.703  40.322   0.470
60185W        W23909  34.469   8.386  14.842
60186W        W23910  16.164  30.657   0.243
60187W        W23911  31.054  34.878   1.864
60188W        W23912  31.584  11.157  12.982
60189W        W23913  34.089   5.258   3.227
60190W        W23914   6.869  35.405  10.953
60191W        W23915   2.830  42.980   9.922
60192W        W23916  16.694  10.301  12.562
60193W        W23917   5.363  30.993  11.061
60194W        W23918  35.582  13.283  10.509
60195W        W23919  12.247  19.106   2.380
60196W        W23920  35.984  20.145   4.236
60197W        W23921  21.689  24.201  10.071
60198W        W23922  17.268   0.898   3.297
60199W        W23923  37.489  30.546  13.978
60200W        W23924  17.644  19.744   0.381
60201W        W23925  29.108  36.955  12.474
60202W        W23926  39.477   4.758  14.814
60203W        W23927  30.163   1.825   1.396
60204W        W23928  33.520   5.704   2.194
60205W        W23929   7.861  33.441  11.865
60206W        W23930  21.611  38.027   0.347
60207W        W23931  13.301   9.292  10.480
60208W        W23932  33.428   7.258  13.467
60209W        W23933   8.318  17.649   3.770
60210W        W23934  33.429  41.468  13.966
60211W        W23935  22.731   3.245   0.902
60212W        W23936   3.416  17.152   1.865
60213W        W23937  14.656  21.691  13.315
60214W        W23938  43.836  19.086  14.328
60215W        W23939  34.997  41.917   0.249
60216W        W23940  13.215  14.202   4.674
60217W        W23941  40.983  19.578   2.821
60218W        W23942  34.913  35.945  10.404
60219W        W23943  19.720  21.731  12.367
60220W        W23944  22.686  10.151  14.805
60221W        W23945   3.449  36.901  10.435
60222W        W23946   6.696  30.958  12.842
60223W        W23947  15.693  44.378  14.401
60224W        W23948  34.020  41.420   3.230
60225W        W23949   5.299   7.844  10.948
60226W        W23950  14.094  28.645  14.460
60227W        W23951  41.042  30.438   2.389
60228W        W23952  27.680  10.854   1.880
60229W        W23953   5.863  24.553   2.697
60230W        W23954  14.257   7.767   1.263
60231W        W23955  23.058  35.486  12.941
60232W        W23956  22.557   3.929   2.388
60233W        W23957  34.958  19.244   0.424
60234W        W23958  35.597  36.935   3.787
60235W        W23959  32.922   3.385  14.370
60236W        W23960  20.053  29.966  12.558
60237W        W23961  10.813  36.082  11.400
60238W        W23962  32.440  42.791   3.750
60239W        W23963   1.763   0.335  13.006
60240W        W23964  36.372  11.719   2.329
60241W        W23965  10.645   5.880  12.491
60242W        W23966  11.128  29.087   3.177
60243W        W23967  27.061  30.433  10.439
60244W        W23968  36.516  37.399  13.335
60245W        W23969  42.829  10.188  10.606
60246W        W23970   9.766  28.594   1.278
60247W        W23971   5.231  30.907   4.792
60248W        W23972   1.743  10.788  12.381
60249W        W23973  31.045  27.020  13.451
60250W        W23974  18.579  12.761   5.241
60251W        W23975   7.691  39.053  11.407
60252W        W23976  23.542  16.749   2.375
60253W        W23977  17.666  16.134   1.696
60254W        W23978   3.933  38.519   4.266
60255W        W23979  21.650   9.732   0.257
60256W        W23980  16.311  40.972  12.074
60257W        W23981  30.027  38.530  13.369
60258W        W23982  21.631  30.134  14.322
60259W        W23983   1.855  22.080   0.300
60260W        W23984  38.054   9.700  13.461
60261W        W23985   7.743  29.654  12.350
60262W        W23986  19.114  40.044   3.324
60263W        W23987  32.042  18.595  12.514
60264W        W23988   5.241  20.637  11.490
60265W        W23989  39.989  31.955   0.823
60266W        W23990  17.751  14.273  14.475
60267W        W23991  20.168  36.355  13.511
60268W        W23992  41.932  27.640   2.296
60269W        W23993  42.936   9.290   0.864
60270W        W23994  20.133  19.153   2.857
60271W        W23995   8.219   3.842  10.986
60272W        W23996  20.252   7.786  11.049
60273W        W23997  39.971   7.203  13.016
60274W        W23998  12.237   4.242  12.078
60275W        W23999  39.560  28.103   3.192
60276W        W24000  23.994   5.858   4.307
60277W        W24001   4.415   9.740   0.389
60278W        W24002  11.649  25.163  13.873
60279W        W24003  13.812  12.803  11.039
60280W        W24004   9.265   1.245  13.442
60281W        W24005  42.446  10.353   3.716
60282W        W24006  19.268   7.408   1.741
60283W        W24007   2.794  10.364  13.978
60284W        W24008  26.657  11.177   0.896
60285W        W24009  19.710  36.047   4.246
60286W        W24010  13.793  39.494  14.852
60287W        W24011  24.698  39.835  10.528
60288W        W24012  36.861   2.802  11.042
60289W        W24013  17.261  22.572  11.920
60290W        W24014   2.338  21.691  14.962
60291W        W24015   2.802  35.065  13.504
60292W        W24016   9.277  34.070   0.443
60293W        W24017  42.972  29.589   0.461
60294W        W24018  14.636  14.736   2.344
60295W        W24019   3.840   0.944  13.374
60296W        W24020  15.237  14.796  13.537
60297W        W24021   2.940  44.775  12.347
60298W        W24022  41.934  27.493   4.728
60299W        W24023  10.301  23.489  12.066
60300W        W24024  15.272  44.429   0.343
60301W        W24025  27.685  43.005   0.810
60302W        W24026  23.130   5.431   2.226
60303W        W24027  14.782  24.506   0.940
60304W        W24028  11.319  16.790  14.802
60305W        W24029  10.848   5.930  11.394
60306W        W24030  30.559   3.790   0.312
60307W        W24031   6.231  35.427   3.306
60308W        W24032  34.084  25.206  14.507
60309W        W24033  41.934   6.277  13.903
60310W        W24034  16.806  24.641   1.354
60311W        W24035  32.077  26.053   2.798
60312W        W24036  16.764   5.747  12.498
60313W        W24037  20.691  31.588  14.859
60314W        W24038  21.644  41.986   0.252
60315W        W24039  24.105  16.617  11.967
60316W        W24040  19.547   3.254  11.038
60317W        W24041   0.822  17.645  14.913
60318W        W24042  22.998   2.274   0.441
60319W        W24043   6.883   4.912   3.261
60320W        W24044   4.927  30.940  12.430
60321W        W24045  14.212  32.102   2.300
60322W        W24046  43.435  36.042  11.563
60323W        W24047  27.531  17.694  13.856
60324W        W24048  11.843  28.586  10.579
60325W        W24049  33.110  14.634   2.799
60326W        W24050   3.863   9.373  11.024
60327W        W24051  22.019  30.919   2.744
60328W        W24052  38.875  12.173  14.437
60329W        W24053   8.885  13.322  10.579
60330W        W24054  32.952  29.122  11.988
60331W        W24055  14.153  12.835   0.727
60332W        W24056  10.640  24.090   0.280
60333W        W24057  16.218  27.039  10.535
60334W        W24058  10.817  42.945   4.806
60335W        W24059  15.734  11.685  14.386
60336W        W24060  41.798  30.966   1.845
60337W        W24061  23.546  27.050  14.485
60338W        W24062   1.456   5.360   0.917
60339W        W24063  31.925  11.760   3.813
60340W        W24064  39.487  28.040  11.116
60341W        W24065  16.624  27.959   2.413
60342W        W24066  11.353  19.192  12.964
60343W        W24067   9.726  13.702  11.060
60344W        W24068  14.648  20.615   4.182
60345W        W24069   6.715   7.173  14.795
60346W        W24070  20.640  13.317   4.720
60347W        W24071  15.216   5.719   1.899
60348W        W24072  35.532  10.785   2.840
60349W        W24073  25.492  20.605  14.941
60350W        W24074  25.219  44.302   4.600
60351W        W24075  10.223  40.537  11.993
60352W        W24076  22.231  34.584   4.172
60353W        W24077  13.821  11.858  14.406
60354W        W24078  11.290  26.182   3.339
60355W        W24079  40.438  35.029   1.409
60356W        W24080  25.485  38.961  14.020
60357W        W24081  39.867  27.062  11.867
60358W        W24082  17.243   3.353   3.242
60359W        W24083  12.183   3.263  14.005
60360W        W24084  24.977   2.317   4.166
60361W        W24085  12.648  38.055  10.448
60362W        W24086  28.445  43.421  14.925
60363W        W24087  37.463  25.714  13.358
60364W        W24088  40.923  22.144   0.250
60365W        W24089   0.297   0.926  14.006
60366W        W24090  10.307  23.049  14.975
60367W        W24091  43.430   1.321  14.854
60368W        W24092  12.843  43.455   2.864
60369W        W24093   2.932  23.575   1.426
60370W        W24094  19.053   0.357   0.316
60371W        W24095  39.039  29.933   4.142
60372W        W24096  13.321  12.278   3.793
60373W        W24097   8.364  24.720  10.477
60374W        W24098  10.205  19.709  13.825
60375W        W24099  36.081   6.280   2.404
60376W        W24100   6.368   0.886   1.233
60377W        W24101  43.941  38.011   0.474
60378W        W24102  36.508  36.940  13.825
60379W        W24103  35.003  16.219   2.264
60380W        W24104  39.358  24.195  11.503
60381W        W24105   7.899  16.246   2.782
60382W        W24106  24.109  38.865  12.965
60383W        W24107  40.912   1.282   3.742
60384W        W24108  17.574  27.068   2.330
60385W        W24109  28.580   6.890  14.803
60386W        W24110  43.801   7.236   4.700
60387W        W24111  27.155   7.785  12.401
60388W        W24112  18.246  35.377  13.523
60389W        W24113  20.588  12.299  12.470
60390W        W24114  27.614  22.532   4.147
60391W        W24115  13.681   4.823   0.937
60392W        W24116  44.904  36.924   9.576
60393W        W24117  38.413  30.441  13.053
60394W        W24118  34.482  34.891   0.880
60395W        W24119  38.011  33.435  12.887
60396W        W24120   3.925  28.497  13.333
60397W        W24121  34.966  16.243  11.580
60398W        W24122   6.313  25.211  12.524
60399W        W24123  14.703  24.104  11.019
60400W        W24124  27.091   3.878  14.398
60401W        W24125  20.641  15.750   0.958
60402W        W24126   6.846  14.290   9.989
60403W        W24127  20.140  41.838   2.722
60404W        W24128  43.910  28.496   1.751
60405W        W24129  17.653  34.473  12.869
60406W        W24130  36.975  17.070   1.732
60407W        W24131  26.208  12.786   1.744
60408W        W24132  24.676  20.527   0.358
60409W        W24133  32.976  40.320   1.745
60410W        W24134  13.298  21.122   1.879
60411W        W24135   0.407   6.406   4.166
60412W        W24136  34.001   8.707   0.793
60413W        W24137   9.268  18.241   2.706
60414W        W24138  25.528  38.535  14.515
60415W        W24139  24.983  31.633  11.374
60416W        W24140  31.506  35.099  11.016
60417W        W24141  44.389  42.351   4.290
60418W        W24142   9.248  15.317  12.038
60419W        W24143  22.561  22.596  10.488
60420W        W24144  41.879  21.726   4.191
60421W        W24145   2.450  14.191   3.666
60422W        W24146  11.629  24.604   3.167
60423W        W24147  17.586  18.752  12.471
60424W        W24148  27.567  33.957  13.865
60425W        W24149  14.803  28.553   4.718
60426W        W24150   0.858   5.277   3.791
60427W        W24151   1.370  13.155   2.808
60428W        W24152  43.503  17.106  14.514
60429W        W24153   3.954  11.719  13.960
60430W        W24154  43.877  24.141   2.805
60431W        W24155  31.579  42.914  12.438
60432W        W24156  29.121  13.259  11.870
60433W        W24157   0.467  20.252   3.339
60434W        W24158  16.618   7.872  12.578
60435W        W24159  12.338  25.659  11.119
60436W        W24160  23.093   6.405  14.404
60437W        W24161  21.668  20.256   1.728
60438W        W24162  32.589  22.595  12.340
60439W        W24163  15.628  24.125   2.407
60440W        W24164   8.346  35.402   1.712
60441W        W24165   0.890  39.842   0.469
60442W        W24166   8.837  24.199  14.845
60443W        W24167  40.049  34.539   2.747
60444W        W24168  31.051  33.495   4.814
60445W        W24169  14.320  27.119   3.839
60446W        W24170  23.541   3.437   3.220
60447W        W24171  44.381   5.711  10.556
60448W        W24172  28.490  16.179   2.862
60449W        W24173  25.577  26.114  12.992
60450W        W24174  43.884  41.863   3.264
60451W        W24175  38.421  19.659  14.447
60452W        W24176  17.771  20.762   3.273
60453W        W24177  10.703   5.836   4.280
60454W        W24178   1.457  33.398   3.834
60455W        W24179  32.084  15.647  14.462
60456W        W24180   8.281  30.600  12.446
60457W        W24181   5.195  25.636   0.366
60458W        W24182  11.180  27.994   1.405
60459W        W24183  14.132  43.892   1.312
60460W        W24184  33.383   3.232  14.320
60461W        W24185  35.008   1.314   0.804
60462W        W24186  28.522  31.976   0.292
60463W        W24187  15.583  35.082   0.751
60464W        W24188  38.937   3.272  14.317
60465W        W24189  17.262  40.834   1.879
60466W        W24190  23.519  14.251  11.522
60467W        W24191  23.193  16.123  13.815
60468W        W24192  30.916  31.091   4.251
60469W        W24193   2.413  13.137  11.910
60470W        W24194  16.733  26.574  10.501
60471W        W24195  13.179  15.739   1.359
60472W        W24196  15.108  19.176  13.458
60473W        W24197  22.175  40.907   4.324
60474W        W24198  33.933  17.747  13.534
60475W        W24199  36.542  28.010  14.379
60476W        W24200   9.395  31.565  11.560
60477W        W24201  26.051   4.820   1.774
60478W        W24202   5.285  34.558  11.496
60479W        W24203  40.999  30.547   4.644
60480W        W24204   0.810   4.399   1.403
60481W        W24205   8.843   1.957   1.866
60482W        W24206  40.047  17.694   2.346
60483W        W24207  39.841   4.844  11.035
60484W        W24208  21.609  43.954   3.340
60485W        W24209   2.444   9.270  10.516
60486W        W24210  38.895  19.042   3.262
60487W        W24211  28.475   6.779  11.886
60488W        W24212  26.095   2.306   3.307
60489W        W24213   7.346  41.499   0.726
60490W        W24214  15.685  30.948  14.370
60491W        W24215  19.737  22.205   0.787
60492W        W24216   5.218  28.570  11.043
60493W        W24217  19.726  21.196   1.810
60494W        W24218  18.096   0.305   1.435
60495W        W24219  22.538  15.738   0.813
60496W        W24220  26.464  15.606  12.545
60497W        W24221  32.013  44.402   2.727
60498W        W24222   2.864  43.895   1.381
60499W        W24223  29.510  31.009   4.156
60500W        W24224  16.599  41.866   2.781
60501W        W24225  18.263   8.709  12.072
60502W        W24226  35.366  44.823   0.937
60503W        W24227  43.775  27.470  14.943
60504W        W24228   7.403  41.396   2.300
60505W        W24229  25.490  30.080  12.465
60506W        W24230  16.808  13.835  10.537
60507W        W24231  42.485   0.803  13.333
60508W        W24232  30.504   4.837  11.917
60509W        W24233   2.875  14.717   0.738
60510W        W24234   5.221  43.486  14.886
60511W        W24235  21.570  40.982   1.727
60512W        W24236  29.636   4.248  13.002
60513W        W24237  15.781  27.973  11.577
60514W        W24238  42.466  24.063  12.851
60515W        W24239  32.420   6.420  12.545
60516W        W24240  19.147  32.007   3.148
60517W        W24241  16.635   9.715  13.850
60518W        W24242  32.580  29.619   3.215
60519W        W24243  28.536  35.871   0.757
60520W        W24244   7.704   0.803   0.286
60521W        W24245  44.943  38.516   2.312
60522W        W24246  11.240  18.645  13.817
60523W        W24247  17.067  30.076   3.220
60524W        W24248  24.199   6.764   2.299
60525W        W24249  43.279  32.099   4.735
60526W        W24250  43.347  22.561   3.722
60527W        W24251  35.073   7.676   3.734
60528W        W24252   1.465  34.010   2.879
60529W        W24253   3.283   6.340   1.720
60530W        W24254  38.429  41.504   3.311
60531W        W24255  23.575  36.000   1.839
60532W        W24256  36.979  20.231   0.818
60533W        W24257  42.516  38.483   9.497
60534W        W24258  14.801   4.863   0.391
60535W        W24259  18.157  38.881  10.424
60536W        W24260  27.014  40.999   0.462
60537W        W24261  18.765  10.809   3.174
60538W        W24262  15.666  37.358   2.289
60539W        W24263   8.176  20.133   4.338
60540W        W24264  12.720  43.432  14.789
60541W        W24265  28.054  43.377   1.825
60542W        W24266  30.502   8.777   4.242
60543W        W24267  39.471   5.911   2.758
60544W        W24268  19.657   7.247  14.018
60545W        W24269  24.982  25.530   3.182
60546W        W24270  23.160  30.136  14.920
60547W        W24271  30.445  37.087   4.182
60548W        W24272  43.388  17.760  10.418
60549W        W24273   2.318  35.069   5.234
60550W        W24274  13.822  32.435   3.269
60551W        W24275  25.157  26.632   4.605
60552W        W24276  43.851  38.827  11.880
60553W        W24277  33.938  17.183   2.816
60554W        W24278  32.458   6.875   4.649
60555W        W24279   7.703  28.507  13.811
60556W        W24280  14.600  41.532  14.302
60557W        W24281  22.009  31.976   2.825
60558W        W24282   5.369  14.319  13.496
60559W        W24283   5.925  31.595  14.293
60560W        W24284  36.081  23.985  13.844
60561W        W24285  42.987  15.308   2.844
60562W        W24286   3.759  28.552  11.067
60563W        W24287  38.378  23.143  11.529
60564W        W24288  39.320   3.788  10.541
60565W        W24289  26.011   5.927  12.848
60566W        W24290  25.533  37.580   1.383
60567W        W24291  25.680  15.316   0.903
60568W        W24292  37.538  10.759   0.410
60569W        W24293  20.070   5.271   0.905
60570W        W24294  34.577  17.127   2.707
60571W        W24295  22.596   7.712   0.850
60572W        W24296  29.095  40.920  13.794
60573W        W24297   5.392  43.316   1.328
60574W        W24298  21.091  16.652  12.922
60575W        W24299  13.729  29.129  14.493
60576W        W24300  22.632   5.857  12.937
60577W        W24301  30.635   7.245  10.962
60578W        W24302  13.730  21.057  13.536
60579W        W24303  20.754   1.377  14.937
60580W        W24304  18.775  13.132   9.477
60581W        W24305  40.436  36.907   2.894
60582W        W24306   9.705  29.600   0.276
60583W        W24307  41.033  38.390  10.574
60584W        W24308  25.106  44.965  14.768
60585W        W24309   6.313   3.777   3.791
60586W        W24310  15.613   4.897  12.345
60587W        W24311   7.173   6.226   0.414
60588W        W24312  25.530  26.595  12.886
60589W        W24313  21.640   7.840   1.711
60590W        W24314  17.682  15.577   1.294
60591W        W24315   7.284   1.367   0.865
60592W        W24316  44.914  42.955   2.790
60593W        W24317  18.603  42.522  13.401
60594W        W24318  26.516  19.726   4.808
60595W        W24319  33.010  38.939   4.729
60596W        W24320  36.995   9.810  13.873
60597W        W24321   7.784  19.142   0.832
60598W        W24322  38.943   7.364   1.917
60599W        W24323  27.071   3.439  12.373
60600W        W24324  12.820   3.813   3.204
60601W        W24325  11.308  36.987  13.375
60602W        W24326  23.149  44.500   4.718
60603W        W24327  19.736  24.178  12.462
60604W        W24328  11.362  31.088  13.819
60605W        W24329   6.234  15.622   0.902
60606W        W24330  11.139   4.213   1.820
60607W        W24331  31.970  39.491  13.990
60608W        W24332  13.110  15.199   4.767
60609W        W24333  43.839  33.050  10.455
60610W        W24334   7.219  15.678   1.761
60611W        W24335  15.083  34.091   2.214
60612W        W24336   6.839  22.107  13.538
60613W        W24337  14.298   6.201  11.522
60614W        W24338   8.275  15.201   2.214
60615W        W24339   1.338   5.870  13.846
60616W        W24340  19.273  10.233  13.917
60617W        W24341   1.310  12.852   3.758
60618W        W24342  13.785  28.633   0.440
60619W        W24343   0.906  30.029   1.711
60620W        W24344   8.880  30.019  14.410
60621W        W24345  25.011   6.822   0.300
60622W        W24346  37.062   0.859   1.790
60623W        W24347  39.354  38.405   4.634
60624W        W24348  21.579  36.957  13.051
60625W        W24349  21.691  40.506  14.779
60626W        W24350  17.100  36.476   4.796
60627W        W24351  18.100  33.495  13.984
60628W        W24352  13.686  34.887  14.011
60629W        W24353  33.500  26.021  14.859
60630W        W24354  38.392  20.032  11.558
60631W        W24355   2.792  14.304  11.945
60632W        W24356   1.930  20.149  11.928
60633W        W24357   7.413  16.114   0.853
60634W        W24358  37.490  34.936   2.321
60635W        W24359  20.176  33.606   9.968
60636W        W24360  37.931   9.279  12.040
60637W        W24361  18.591  15.226  14.331
60638W        W24362   7.825  15.265   2.378
60639W        W24363  13.669  34.491  12.082
60640W        W24364  16.728   5.892  12.940
60641W        W24365  15.645   7.685  12.969
60642W        W24366  16.306  39.316   2.256
60643W        W24367  22.023  44.451  13.899
60644W        W24368   5.750  24.999  10.939
60645W        W24369  27.161  38.996   1.724
60646W        W24370  43.944  17.289   4.805
60647W        W24371  14.680  34.074   4.681
60648W        W24372  14.308  42.385  11.927
60649W        W24373  33.626  42.469  10.626
60650W        W24374  24.720  42.828   2.749
60651W        W24375  40.350  15.638  12.004
60652W        W24376  41.792  29.002  11.880
60653W        W24377   6.865  43.850  14.939
60654W        W24378  41.375   8.807   2.765
60655W        W24379  40.856  35.560   0.290
60656W        W24380   2.796   0.383  11.858
60657W        W24381   2.417  19.656   4.623
60658W        W24382  21.102  43.818  14.469
60659W        W24383  41.042  21.744   4.766
60660W        W24384  12.800  40.862  14.766
60661W        W24385  30.011  26.500  14.980
60662W        W24386  37.026  21.203  14.969
60663W        W24387   4.864  21.531   0.361
60664W        W24388  28.108   9.367   2.324
60665W        W24389   3.335   4.353  12.483
60666W        W24390   2.301  18.557  13.919
60667W        W24391  26.515  33.128  14.410
60668W        W24392   9.207  23.049  14.027
60669W        W24393  15.250  21.700  13.920
60670W        W24394  29.431  38.069   1.423
60671W        W24395  37.891  21.678  11.383
60672W        W24396  17.577  37.357   3.370
60673W        W24397  15.589  10.356   1.327
60674W        W24398  29.170  32.098   1.279
60675W        W24399  25.158  11.716   2.275
60676W        W24400  12.639  23.540  14.275
60677W        W24401  36.940  32.093   3.223
60678W        W24402   2.854  10.699   4.185
60679W        W24403  26.558  24.524  14.291
60680W        W24404  13.781   5.232  11.870
60681W        W24405  12.813  29.563  14.391
60682W        W24406  14.185  18.068  12.878
60683W        W24407  16.631  29.577   2.273
60684W        W24408  36.099  37.543  12.500
60685W        W24409  17.167  33.623   5.083
60686W        W24410  16.073  36.946   3.631
60687W        W24411  37.941  41.329  13.957
60688W        W24412  22.501  38.357   3.271
60689W        W24413  35.067  25.022   4.353
60690W        W24414  14.132   1.369  10.444
60691W        W24415   1.400  24.000   0.875
60692W        W24416  37.426  29.528  14.423
60693W        W24417  36.476  15.742   4.266
60694W        W24418  36.072  40.917  11.014
60695W        W24419  20.663  36.004  14.313
60696W        W24420  39.357  26.591  11.519
60697W        W24421  15.580  32.105   4.266
60698W        W24422  30.433  24.173  10.542
60699W        W24423  36.044  14.210  14.865
60700W        W24424  17.214  18.553  14.318
60701W        W24425  42.489  15.770   4.826
60702W        W24426  27.628  36.550   1.786
60703W        W24427  39.898  33.443   1.350
60704W        W24428   1.344  21.680   1.214
60705W        W24429  28.619  10.871   0.793
60706W        W24430  30.587  39.407  10.975
60707W        W24431  15.132  20.028   1.296
60708W        W24432  40.544  11.233  10.456
60709W        W24433  36.571   1.906  13.405
60710W        W24434  11.188  43.019   3.633
60711W        W24435  40.801   7.294  10.540
60712W        W24436   4.923  32.624  14.822
60713W        W24437  31.993   2.311  13.834
60714W        W24438  10.729  39.375   0.377
60715W        W24439  22.656   8.755   1.234
60716W        W24440  22.057  15.224   3.691
60717W        W24441  18.559  32.486  13.805
60718W        W24442  13.705  27.505   0.786
60719W        W24443  16.139   8.217   2.323
60720W        W24444  11.704  35.381  14.417
60721W        W24445  21.657  11.168  13.014
60722W        W24446  43.836  22.600   1.807
60723W        W24447  17.144  40.897   2.320
60724W        W24448   2.379  33.599   1.326
60725W        W24449  34.554  21.132   0.753
60726W        W24450   7.693  33.015   0.463
60727W        W24451  23.709  26.677   4.726
60728W        W24452   3.431  21.151  10.899
60729W        W24453  35.036  29.441   3.305
60730W        W24454   8.842  26.553  14.440
60731W        W24455  34.981  19.135  11.076
60732W        W24456  39.932  41.877   9.978
60733W        W24457  10.274  34.607   0.350
60734W        W24458  11.356  16.790  10.595
60735W        W24459  26.467  35.087  11.022
60736W        W24460  44.972  22.154  11.574
60737W        W24461   1.771  43.786  14.897
60738W        W24462   2.457  28.967   0.262
60739W        W24463  18.236   4.424   0.943
60740W        W24464   7.770  36.475   0.353
60741W        W24465  10.810  21.646  11.033
60742W        W24466  33.420  21.162   2.231
60743W        W24467  18.144  34.892   0.886
60744W        W24468  18.653  32.447   3.271
60745W        W24469   7.301  38.047  10.634
60746W        W24470   9.292  26.994  13.027
60747W        W24471  37.568  33.616  12.945
60748W        W24472  15.144  31.127  12.577
60749W        W24473  15.739  14.642  14.816
60750W        W24474  28.525  35.093   3.803
60751W        W24475  34.919  40.865   1.326
60752W        W24476  42.898  31.099  14.401
60753W        W24477  43.978  30.563  11.574
60754W        W24478  16.117  13.320  11.405
60755W        W24479  11.629  12.292  13.384
60756W        W24480  35.884  30.020   0.820
60757W        W24481  29.016  43.843  14.361
60758W        W24482   6.826  14.149  11.090
60759W        W24483  23.702  16.654   4.159
60760W        W24484  10.768   1.846   3.228
60761W        W24485  40.378  10.257  12.072
60762W        W24486   6.395  40.483   2.875
60763W        W24487  44.831  17.262   3.297
60764W        W24488  43.911  29.005  10.466
60765W        W24489  27.017  28.084  13.375
60766W        W24490   2.255   9.212   4.193
60767W        W24491   0.379  44.317  12.964
60768W        W24492  30.124   7.857  14.293
60769W        W24493  18.546  25.992  12.550
60770W        W24494  15.281  43.916  10.457
60771W        W24495  25.997  40.019  11.024
60772W        W24496  24.114  21.191  11.465
60773W        W24497  17.178  29.584   4.777
60774W        W24498  12.116  10.645   0.871
60775W        W24499  29.953  34.432  11.994
60776W        W24500  24.172  10.158  13.815
60777W        W24501   5.692  17.126  13.329
60778W        W24502  43.448   8.874  12.869
60779W        W24503  22.740  31.930  13.361
60780W        W24504  35.549  32.400  13.827
60781W        W24505  26.541  28.564  14.470
60782W        W24506  36.534  22.079  13.500
60783W        W24507  25.034  33.935   3.201
60784W        W24508   4.884   0.838  12.431
60785W        W24509  24.637  35.427   3.278
60786W        W24510  17.225  22.604  12.884
60787W        W24511  25.062  39.372   0.286
60788W        W24512  18.113   3.244   0.381
60789W        W24513  40.462  15.121  10.624
60790W        W24514  30.536  17.583   4.756
60791W        W24515  26.643  42.462  13.365
60792W        W24516  11.735  23.564  10.639
60793W        W24517  31.495   1.254   4.247
60794W        W24518   6.390  36.581   0.819
60795W        W24519   3.362  16.286   4.195
60796W        W24520  35.561  39.559  10.414
60797W        W24521  12.637  10.280   2.294
60798W        W24522  20.055  22.503  13.350
60799W        W24523  19.232  40.927  10.098
60800W        W24524  14.770  11.631   1.338
60801W        W24525  31.125   4.729   0.330
60802W        W24526   1.903  38.874  11.875
60803W        W24527  25.119  11.149   4.208
60804W        W24528  25.629  14.114   3.685
60805W        W24529  19.202  15.086   0.444
60806W        W24530  18.102  38.900  10.918
60807W        W24531   7.860   9.676   2.698
60808W        W24532  37.339  33.895   3.196
60809W        W24533   7.901  22.160  12.420
60810W        W24534  22.693  42.015  14.284
60811W        W24535  38.397  16.699   4.140
60812W        W24536  32.614  32.934  11.567
60813W        W24537   8.820   2.470  11.962
60814W        W24538  41.024  16.279   3.735
60815W        W24539   5.399  32.406  10.620
60816W        W24540  35.442  28.977  13.307
60817W        W24541  35.093   1.451  11.858
60818W        W24542  14.723   1.376  14.429
60819W        W24543  19.065  20.203   3.722
60820W        W24544  17.138   5.332  12.416
60821W        W24545  42.498  13.647   0.741
60822W        W24546  22.566  28.535   2.200
60823W        W24547  42.983  26.678  12.065
60824W        W24548  42.977  37.562   2.897
60825W        W24549   8.829  12.678  14.004
60826W        W24550  19.660  24.991  11.546
60827W        W24551   4.360  26.183  10.526
60828W        W24552  39.898  34.549   4.601
60829W        W24553  37.387  37.456  14.477
60830W        W24554  41.981  18.073  11.083
60831W        W24555  32.011  43.894   3.799
60832W        W24556  29.549  23.734   3.155
60833W        W24557  13.647   4.306  12.504
60834W        W24558   0.828  21.071   3.698
60835W        W24559   2.796  19.157   4.813
60836W        W24560  41.843  27.463  12.351
60837W        W24561  40.951  23.573  11.573
60838W        W24562  43.363  41.019   1.373
60839W        W24563  26.092  17.735   4.817
60840W        W24564   8.262  21.025  12.443
60841W        W24565   0.843   2.966  12.557
60842W        W24566   0.364  18.105  13.884
60843W        W24567   4.756   2.783   3.853
60844W        W24568  35.998  29.566   5.156
60845W        W24569  11.363  40.005   0.765
60846W        W24570   1.826  17.223   0.909
60847W        W24571  18.632  39.850  11.432
60848W        W24572  17.773  21.258   2.258
60849W        W24573  34.494  21.260   2.680
60850W        W24574   0.941  32.077  10.511
60851W        W24575  23.004  21.033  12.544
60852W        W24576  25.109  34.467   3.697
60853W        W24577   8.280  23.036   1.842
60854W        W24578  22.618   9.757   4.782
60855W        W24579  13.704  32.490  12.407
60856W        W24580   9.673  31.535   2.335
60857W        W24581  33.028  37.389  11.969
60858W        W24582   7.348   1.967  11.414
60859W        W24583  40.325  37.373   4.245
60860W        W24584  36.475  22.121  12.340
60861W        W24585   9.388  12.330   0.745
60862W        W24586  36.561   2.883  11.528
60863W        W24587  43.467  18.244  11.443
60864W        W24588   3.954  28.575   4.166
60865W        W24589  18.628  20.687  10.455
60866W        W24590  22.580  34.370  11.075
60867W        W24591  33.596  21.712  12.524
60868W        W24592  15.218  12.766   0.447
60869W        W24593  13.281   9.713  13.468
60870W        W24594  16.305  40.938  10.453
60871W        W24595  16.693  17.711  12.850
60872W        W24596  39.869  38.503   2.263
60873W        W24597   3.428  19.670  11.419
60874W        W24598  29.478  42.375  14.931
60875W        W24599   6.679  18.185   3.687
60876W        W24600   9.210  19.575   1.803
60877W        W24601   5.420   2.427  10.426
60878W        W24602   2.398  39.024  13.859
60879W        W24603  25.002  37.045   2.179
60880W        W24604   1.261  43.512   1.723
60881W        W24605  19.246  11.365   1.864
60882W        W24606  28.453  23.678   3.358
60883W        W24607  29.025   2.430   0.395
60884W        W24608  27.071  30.983  13.840
60885W        W24609  26.591  31.925  13.393
60886W        W24610   2.413  14.340  11.966
60887W        W24611  43.490  24.189   2.190
60888W        W24612  28.004  36.543   0.890
60889W        W24613  26.649  39.056   2.257
60890W        W24614  42.919   3.869   1.748
60891W        W24615  36.450  16.707  14.507
60892W        W24616  30.634  28.171  12.937
60893W        W24617  14.108  33.056   3.738
60894W        W24618   4.821   9.194  11.901
60895W        W24619  41.988  32.027   5.205
60896W        W24620  28.681  35.097   2.276
60897W        W24621  25.491  27.529   3.350
60898W        W24622  34.026  14.294   4.827
60899W        W24623  33.900  25.187  11.374
60900W        W24624   0.433  30.423  11.949
60901W        W24625  16.115  30.927   3.850
60902W        W24626  42.899  23.723   3.196
60903W        W24627   7.725  40.317   0.826
60904W        W24628  29.059  32.904   3.828
60905W        W24629  20.758   5.930  12.086
60906W        W24630  37.354  39.979  13.018
60907W        W24631  25.087  29.020  12.519
60908W        W24632  29.993  44.000   0.254
60909W        W24633  39.885   7.851  12.998
60910W        W24634   1.940  44.346   4.705
60911W        W24635  33.879  10.360   0.839
60912W        W24636  31.126  38.929   4.801
60913W        W24637   5.721  10.838  13.952
60914W        W24638  36.447  31.932   4.200
60915W        W24639  23.127  37.860  11.604
60916W        W24640  44.361  22.745  13.855
60917W        W24641  22.220  29.494  14.402
60918W        W24642  40.804  27.511   3.710
60919W        W24643  20.528  28.495   1.398
60920W        W24644  42.419  34.590   3.193
60921W        W24645   0.306  40.019  14.887
60922W        W24646  19.591  44.007  13.359
60923W        W24647   9.876  24.596  10.946
60924W        W24648   7.813  41.424   3.705
60925W        W24649  41.487  29.936   1.212
60926W        W24650  24.039  18.075   4.650
60927W        W24651  24.016  38.889   5.805
60928W        W24652  29.493  15.321   2.711
60929W        W24653  18.284  30.957   0.898
60930W        W24654  24.043   9.796   1.766
60931W        W24655  17.606  36.973   0.377
60932W        W24656   6.902  33.480   2.730
60933W        W24657  18.094  21.122   2.899
60934W        W24658  31.431  14.828  13.366
60935W        W24659   8.767  38.077   0.380
60936W        W24660   1.920  12.345   4.618
60937W        W24661   6.699  34.981  11.879
60938W        W24662  23.531  34.414   0.773
60939W        W24663   5.255  29.464   3.763
60940W        W24664   3.247  10.327   5.250
60941W        W24665   3.244   6.717  11.061
60942W        W24666   1.376  19.731  11.034
60943W        W24667   8.193  18.132   2.749
60944W        W24668  30.479  25.115  13.335
60945W        W24669  19.223  38.554   0.772
60946W        W24670  35.383  12.118   3.861
60947W        W24671  35.935  22.746  10.500
60948W        W24672  29.151  29.172   4.657
60949W        W24673  26.529  31.152  11.590
60950W        W24674  39.480  40.500  14.885
60951W        W24675  20.753  37.460   2.847
60952W        W24676  10.189  25.207   1.359
60953W        W24677  16.615  36.562   2.728
60954W        W24678  12.631  39.836   3.814
60955W        W24679  15.255  17.276  13.032
60956W        W24680  42.919   1.929   1.888
60957W        W24681  28.987   0.874  14.337
60958W        W24682  18.086   1.261  11.421
60959W        W24683   5.812  13.662  13.507
60960W        W24684  31.144  18.656  12.348
60961W        W24685   9.751  36.418   2.886
60962W        W24686  36.524  34.095  13.832
60963W        W24687  39.812  10.378  11.514
60964W        W24688  21.649  40.815  14.846
60965W        W24689  40.413  25.217   0.362
60966W        W24690  29.931  23.110   0.330
60967W        W24691   6.219  33.476   3.202
60968W        W24692  27.043  20.694   1.740
60969W        W24693   4.256  39.334   4.614
60970W        W24694  42.490  36.904   3.316
60971W        W24695   0.279  17.087   1.726
60972W        W24696  15.151  16.696  14.475
60973W        W24697  29.006  27.458   2.210
60974W        W24698  40.471  25.490  10.409
60975W        W24699  11.308  11.343   0.942
60976W        W24700  17.242  11.634  10.427
60977W        W24701   3.252  41.816  14.313
60978W        W24702  32.111  34.489   4.130
60979W        W24703  28.030  28.544   0.454
60980W        W24704  39.359   3.224   4.664
60981W        W24705  28.088  23.027   0.934
60982W        W24706   5.223  24.122   2.682
60983W        W24707  39.817   5.765   0.423
60984W        W24708   1.409  10.710  10.456
60985W        W24709  26.637  36.087  11.540
60986W        W24710  24.135  40.369   5.111
60987W        W24711  42.372  21.660   4.749
60988W        W24712  25.510  28.034   4.687
60989W        W24713  30.056   9.665   1.343
60990W        W24714   6.913  27.461   4.156
60991W        W24715   9.741  43.796   2.226
60992W        W24716  14.154  42.783   3.730
60993W        W24717  37.566   5.385  11.418
60994W        W24718   8.291  31.420   3.265
60995W        W24719   6.379   0.964  12.348
60996W        W24720  39.842  39.881   4.672
60997W        W24721  39.826  19.577  13.536
60998W        W24722  43.788   7.389   0.435
60999W        W24723  10.196  28.087   3.240
61000W        W24724  37.561  21.109   0.957
61001W        W24725  15.606  25.091   3.295
61002W        W24726  23.183  18.649  14.819
61003W        W24727  35.414  23.658   0.728
61004W        W24728  12.792   5.800  10.573
61005W        W24729  31.945  39.001   2.223
61006W        W24730   7.689   4.911  13.953
61007W        W24731  31.098   1.928  13.824
61008W        W24732  30.076  40.928  14.299
61009W        W24733  32.540  25.701  11.063
61010W        W24734  43.878  41.038  14.377
61011W        W24735  18.734   9.342  14.820
61012W        W24736  15.743  11.631   2.181
61013W        W24737  36.888  10.215  10.490
61014W        W24738  35.975  23.199  11.553
61015W        W24739  10.339  18.605   1.780
61016W        W24740   1.471  25.569  10.930
61017W        W24741  17.785  27.181   0.282
61018W        W24742   2.260  20.713  14.282
61019W        W24743  13.325  23.522  10.964
61020W        W24744   1.952  43.370   0.957
61021W        W24745  10.314  19.588  12.075
61022W        W24746   7.716  27.080  10.526
61023W        W24747   4.328  32.092  12.858
61024W        W24748  42.351  25.163   1.797
61025W        W24749  42.507  33.435   0.345
61026W        W24750  16.813  42.441   3.634
61027W        W24751  11.366  37.001  12.040
61028W        W24752   4.905   5.348   3.812
61029W        W24753  33.571  23.603  11.980
61030W        W24754  44.820  11.638  13.415
61031W        W24755  20.160  12.283   1.871
61032W        W24756  22.623   3.799   4.615
61033W        W24757   0.434   1.420  12.394
61034W        W24758  13.214  24.100  14.901
61035W        W24759   0.761   4.875  14.856
61036W        W24760  19.599  32.988   0.396
61037W        W24761   8.290  21.712   4.278
61038W        W24762  34.104  40.500   1.756
61039W        W24763  40.359  16.311   0.345
61040W        W24764  40.988  43.899   3.162
61041W        W24765  38.474  19.136  11.952
61042W        W24766  43.836  31.979   1.827
61043W        W24767  22.009   3.281   4.680
61044W        W24768  24.032  44.838  10.613
61045W        W24769  39.513  28.674   3.189
61046W        W24770  44.278  39.819  13.337
61047W        W24771  25.216  37.536   2.277
61048W        W24772  27.587   8.681   3.803
61049W        W24773  13.146  26.556   4.639
61050W        W24774  32.105  36.962  11.433
61051W        W24775  11.771  16.266  13.013
61052W        W24776  28.999   5.216   4.267
61053W        W24777  19.744   3.905  12.854
61054W        W24778  43.844  15.159  13.397
61055W        W24779   1.326   8.168   3.694
61056W        W24780  35.435  32.436  11.094
61057W        W24781  31.125  44.816   4.759
61058W        W24782  28.999   4.304  12.032
61059W        W24783   6.790  42.286   1.417
61060W        W24784  10.253   5.207  12.368
61061W        W24785  24.556  15.303  10.527
61062W        W24786  25.615  19.631  10.584
61063W        W24787   9.750  23.566  14.029
61064W        W24788   4.799   9.218   1.719
61065W        W24789  16.248  42.970   0.302
61066W        W24790   9.721  31.976   3.630
61067W        W24791  14.193  39.827   1.320
61068W        W24792  25.115  36.373   3.750
61069W        W24793  15.278  26.498  10.447
61070W        W24794  31.033  21.232  14.368
61071W        W24795  10.264  13.242  12.484
61072W        W24796  38.926   0.308  13.967
61073W        W24797   4.326  25.184  12.579
61074W        W24798   9.153   8.201   1.737
61075W        W24799  29.999  16.660  10.942
61076W        W24800  34.483   6.289   1.738
61077W        W24801   9.246   9.773  10.451
61078W        W24802  27.014  44.908  14.959
61079W        W24803  43.851  19.283   2.803
61080W        W24804  34.977  31.905   2.282
61081W        W24805  35.068  31.125  12.880
61082W        W24806  38.898  39.975   5.152
61083W        W24807  27.162  36.969   0.749
61084W        W24808  40.335  31.015  14.007
61085W        W24809   7.180   6.247  13.836
61086W        W24810  33.914   2.326   0.933
61087W        W24811  13.706   6.215   2.271
61088W        W24812  22.121  26.100  11.606
61089W        W24813  24.130   0.400  11.974
61090W        W24814  31.062  36.563   0.428
61091W        W24815  16.307  17.691  14.793
61092W        W24816   7.306   4.247   0.292
61093W        W24817  28.457   3.294  14.002
61094W        W24818  22.519  35.496   2.291
61095W        W24819  27.654   6.766   0.304
61096W        W24820  10.772  37.553  14.498
61097W        W24821  34.093  17.753   2.762
61098W        W24822  37.565  15.730  13.330
61099W        W24823  29.439  34.869  10.438
61100W        W24824  20.124  18.684   0.785
61101W        W24825   6.267  43.800  14.834
61102W        W24826  33.450   6.378   0.830
61103W        W24827   5.430   3.234  11.496
61104W        W24828  19.241  40.936  12.837
61105W        W24829   1.759  20.091  11.008
61106W        W24830   6.788  20.525  13.915
61107W        W24831  43.021  28.968   0.383
61108W        W24832  16.203  23.144   3.340
61109W        W24833  38.945  32.006  11.054
61110W        W24834  42.905  24.485   4.605
61111W        W24835  36.532  28.543  11.039
61112W        W24836   5.264  20.632  14.771
61113W        W24837  34.972  24.536   0.832
61114W        W24838  20.147   3.913   3.665
61115W        W24839  41.450  28.546  14.764
61116W        W24840  31.026  18.786  12.827
61117W        W24841  42.446   1.436  14.475
61118W        W24842   9.702  17.251   1.835
61119W        W24843  23.147  11.272   0.949
61120W        W24844  26.472  19.211   4.180
61121W        W24845  25.586  31.522  14.020
61122W        W24846  15.201  21.113  13.531
61123W        W24847  13.778  13.105   1.815
61124W        W24848   8.795  16.231   2.822
61125W        W24849  17.727  37.358   4.734
61126W        W24850  40.051  35.486   2.835
61127W        W24851  41.028  36.508   2.351
61128W        W24852   5.799  18.128  11.108
61129W        W24853   0.392   3.857  10.445
61130W        W24854  39.958   6.702   2.859
61131W        W24855  41.905  34.564  10.904
61132W        W24856  27.463  10.834   3.269
61133W        W24857  44.829  41.439  14.919
61134W        W24858  16.105  34.967  12.051
61135W        W24859  16.154  27.665   2.188
61136W        W24860  33.540  22.607  13.791
61137W        W24861  41.530  43.819   3.297
61138W        W24862  14.240  25.104   3.635
61139W        W24863  11.315  19.278   2.694
61140W        W24864   4.910  32.927  13.438
61141W        W24865  20.220  22.596  14.975
61142W        W24866  20.219   8.202  12.959
61143W        W24867  33.092   0.384  10.456
61144W        W24868  21.063  41.811   2.293
61145W        W24869  19.561  40.869  13.819
61146W        W24870  19.700   6.208  14.925
61147W        W24871  21.129  34.978   1.306
61148W        W24872   6.903  36.915  11.069
61149W        W24873  41.402  13.326   3.803
61150W        W24874  43.506  35.586   3.860
61151W        W24875  40.989   2.318  11.401
61152W        W24876  36.963  44.835   2.412
61153W        W24877  29.945  29.148   1.402
61154W        W24878  35.022  33.054  10.943
61155W        W24879  33.069  36.930   2.721
61156W        W24880  27.196  14.698   4.200
61157W        W24881  22.201  15.616   4.300
61158W        W24882  13.319  42.018   1.325
61159W        W24883  11.128  21.660   4.308
61160W        W24884  14.247   7.339  10.056
61161W        W24885  19.278  27.451   2.182
61162W        W24886  28.528   5.804  10.996
61163W        W24887  43.338  40.917  10.438
61164W        W24888  33.114  35.442   0.246
61165W        W24889  36.863  27.971  13.459
61166W        W24890  17.279  11.273  14.944
61167W        W24891  32.590  28.930  13.871
61168W        W24892  17.774  33.624   3.676
61169W        W24893  38.499  37.044   4.729
61170W        W24894  11.138  25.066   4.314
61171W        W24895  33.379  27.573   1.709
61172W        W24896  25.053   8.672  13.329
61173W        W24897  10.680  33.433   4.693
61174W        W24898  38.829  43.016   0.363
61175W        W24899  13.333  23.683  11.857
61176W        W24900  39.506  38.004   0.794
61177W        W24901  44.991  14.771  13.467
61178W        W24902  19.271  44.443  11.513
61179W        W24903  11.765   3.454  12.028
61180W        W24904  25.699   1.748   5.208
61181W        W24905  40.938  30.593   4.224
61182W        W24906  30.960   2.894   2.307
61183W        W24907  33.537   6.734   2.337
61184W        W24908  24.551  32.418   9.481
61185W        W24909  12.343  10.333   2.687
61186W        W24910   2.412  21.208  13.425
61187W        W24911   1.786   3.316  11.564
61188W        W24912   8.248  32.468   4.152
61189W        W24913  12.652  11.862   4.825
61190W        W24914  30.441  20.256   2.682
61191W        W24915  18.176  41.846  10.969
61192W        W24916  26.625   7.746  10.021
61193W        W24917  14.234  14.727   3.819
61194W        W24918   6.182   8.732   9.924
61195W        W24919  39.536  28.553  10.460
61196W        W24920   6.844  26.090  14.979
61197W        W24921  28.155   1.839  14.492
61198W        W24922  20.059   3.887   1.902
61199W        W24923  40.523  27.572  13.463
61200W        W24924  20.205  24.094  12.025
61201W        W24925  36.861  40.486   2.798
61202W        W24926  40.015  25.213   1.228
61203W        W24927   2.876  20.238  10.576
61204W        W24928   1.754  26.198  10.452
61205W        W24929  10.298  12.233  14.926
61206W        W24930  39.444  25.492  14.331
61207W        W24931  41.483  27.005   0.380
61208W        W24932  14.170  44.753  13.977
61209W        W24933  23.176  39.953   9.647
61210W        W24934  38.033   1.860  11.405
61211W        W24935  29.447  16.621  14.411
61212W        W24936  12.845   9.701  11.423
61213W        W24937  11.288  41.465   2.697
61214W        W24938   2.301  39.554  11.946
61215W        W24939  41.507  16.701   1.813
61216W        W24940  20.537  25.517   2.285
61217W        W24941  25.667  43.790   1.698
61218W        W24942  20.602  43.324   4.726
61219W        W24943  14.726  39.975  14.404
61220W        W24944  14.803  33.516  14.924
61221W        W24945  36.918  40.026  12.847
61222W        W24946  16.654   4.771  12.520
61223W        W24947  18.547  33.985   1.221
61224W        W24948  12.772  44.912   4.837
61225W        W24949  35.953  43.894  14.862
61226W        W24950   3.779  15.796   1.892
61227W        W24951  39.527  17.112   2.719
61228W        W24952  12.788   9.315  11.449
61229W        W24953  38.909   5.798  11.045
61230W        W24954   9.257   0.831   0.420
61231W        W24955  22.105  40.528  12.354
61232W        W24956  23.718  29.922   1.902
61233W        W24957  44.337  31.905  14.998
61234W        W24958  19.086  28.652   0.899
61235W        W24959  40.521  41.430   0.342
61236W        W24960  43.386  20.578   0.961
61237W        W24961  33.494   5.794   1.829
61238W        W24962  31.936  24.176   5.137
61239W        W24963  26.080   4.714  12.983
61240W        W24964  15.612  29.461  11.457
61241W        W24965   1.465  13.751   1.885
61242W        W24966  42.780   7.213  13.925
61243W        W24967  32.500  33.114   3.860
61244W        W24968  17.238  11.157  12.851
61245W        W24969  33.972  15.099   1.769
61246W        W24970  37.915  35.421   3.316
61247W        W24971   1.824  16.252  14.763
61248W        W24972  38.896  27.479   0.743
61249W        W24973  21.160   9.152   1.892
61250W        W24974  39.043   8.256   4.140
61251W        W24975   1.750  33.408   2.860
61252W        W24976  26.159  28.948  12.845
61253W        W24977   8.720   6.376  13.421
61254W        W24978  37.890   3.724   2.344
61255W        W24979  33.089  29.513  14.397
61256W        W24980  40.901  30.121  13.343
61257W        W24981  21.230  29.464  11.018
61258W        W24982  13.622  30.161   4.210
61259W        W24983  25.632   4.255   1.809
61260W        W24984  36.920  16.146  11.491
61261W        W24985  11.635   6.852  14.897
61262W        W24986   1.372  44.757   4.272
61263W        W24987  43.984  35.921   3.868
61264W        W24988  12.701  19.537   3.707
61265W        W24989   5.908  43.782   1.894
61266W        W24990   1.936  44.948   4.637
61267W        W24991  24.645   5.329   3.867
61268W        W24992   9.271  11.198  14.937
61269W        W24993  34.516  10.224   9.968
61270W        W24994   1.844  22.144  12.468
61271W        W24995  33.579  14.741  11.076
61272W        W24996  41.954  25.698  13.406
61273W        W24997  27.450  44.456   1.718
61274W        W24998  20.754  20.578   2.852
61275W        W24999   6.919  14.286   1.446
61276W        W25000  15.323  18.255   0.417
61277W        W25001   1.440   4.407   4.767
61278W        W25002  32.033  30.937   2.706
61279W        W25003  41.939   3.906  14.508
61280W        W25004   0.362  17.192  11.495
61281W        W25005  42.298  16.120  13.991
61282W        W25006   8.264   3.305  13.544
61283W        W25007  33.936  33.393   3.638
61284W        W25008  28.498   3.248   0.257
61285W        W25009   1.887  33.128  11.050
61286W        W25010   8.216  32.077  10.941
61287W        W25011  26.684  26.176  11.441
61288W        W25012  19.086  31.137   3.311
61289W        W25013  12.618   6.887   5.209
61290W        W25014   1.975  33.427  12.897
61291W        W25015   7.249  37.523   2.875
61292W        W25016   4.928  19.562   1.271
61293W        W25017   7.179  33.121  10.477
61294W        W25018  18.112   1.264   0.390
61295W        W25019  38.840  34.455  11.886
61296W        W25020  31.025  41.464   1.420
61297W        W25021  16.782   7.229   2.275
61298W        W25022   0.852  15.207   0.855
61299W        W25023  10.813  16.178   0.446
61300W        W25024   4.261  29.507  14.020
61301W        W25025  26.665   5.736  11.119
61302W        W25026  39.926  32.909   3.297
61303W        W25027   1.853  10.640   4.691
61304W        W25028  21.726  42.030   2.818
61305W        W25029  34.927  23.680   3.698
61306W        W25030  28.543  26.691  10.945
61307W        W25031   8.304  33.981  14.375
61308W        W25032   0.270   8.379  12.948
61309W        W25033  17.726  19.265   1.344
61310W        W25034  23.119  35.070   0.269
61311W        W25035  26.206  27.112  12.919
61312W        W25036  44.440  42.968   2.739
61313W        W25037   3.389  20.606  13.901
61314W        W25038  19.613   6.239  13.914
61315W        W25039  19.045  44.879   4.669
61316W        W25040   2.877  19.662   4.705
61317W        W25041  43.278  13.779   3.270
61318W        W25042  13.246   7.684  11.514
61319W        W25043  35.376   2.426  14.781
61320W        W25044  16.631  14.661  13.536
61321W        W25045  21.520   3.873   3.340
61322W        W25046  21.690  40.412  13.540
61323W        W25047  34.938  22.013   1.758
61324W        W25048  22.683  16.696   4.237
61325W        W25049  41.464  32.576  13.445
61326W        W25050  28.481  42.949   0.448
61327W        W25051   3.898   1.299  13.906
61328W        W25052  17.134   1.942  12.036
61329W        W25053  12.655   5.867   1.367
61330W        W25054  26.021  40.821  13.490
61331W        W25055  20.651  35.042   3.297
61332W        W25056  18.737  35.527   2.901
61333W        W25057   9.840  14.753   1.919
61334W        W25058  29.028   8.765  13.956
61335W        W25059  13.727  19.736  11.966
61336W        W25060  35.410  42.868  13.917
61337W        W25061  10.656  15.634   1.352
61338W        W25062  26.084   1.910   3.321
61339W        W25063  36.454  28.445   4.164
61340W        W25064  20.099  15.721   2.666
61341W        W25065  21.701   0.359  13.950
61342W        W25066  26.024  28.595  11.577
61343W        W25067  25.152  14.337  11.031
61344W        W25068   3.454  41.302   3.349
61345W        W25069  35.388  38.969  14.359
61346W        W25070  38.868   0.940  14.465
61347W        W25071   8.855  15.791   2.204
61348W        W25072  25.591  21.748   3.781
61349W        W25073  33.033   7.698  14.475
61350W        W25074  27.055   3.941  10.913
61351W        W25075  36.946   1.943   4.598
61352W        W25076  34.521  10.839  12.052
61353W        W25077  22.615   6.250  14.292
61354W        W25078   1.908  25.507   4.314
61355W        W25079  39.038  31.041   9.934
61356W        W25080   3.338  38.857  11.947
61357W        W25081  32.908  43.431   3.750
61358W        W25082  12.672  33.625  11.057
61359W        W25083  28.102  13.619   2.294
61360W        W25084  11.700  36.572   1.263
61361W        W25085   4.434  18.133   2.241
61362W        W25086  27.161  28.588  12.556
61363W        W25087  43.007  28.548  14.510
61364W        W25088  25.632  18.184  10.474
61365W        W25089  22.646  31.583  13.933
61366W        W25090  15.186  38.410   4.768
61367W        W25091   9.720   1.800   3.827
61368W        W25092  33.051  19.167  13.800
61369W        W25093  12.754  14.749  12.550
61370W        W25094  14.192  19.065   1.261
61371W        W25095  10.761  12.344  13.381
61372W        W25096  23.075   2.321  14.946
61373W        W25097   0.867  29.995   4.113
61374W        W25098  21.149   1.975   2.337
61375W        W25099  14.310   3.392   4.831
61376W        W25100  22.225  31.955   2.195
61377W        W25101  31.608   4.714  10.424
61378W        W25102  24.698  24.595   2.692
61379W        W25103  31.540  34.457   0.797
61380W        W25104  20.248  34.867   1.931
61381W        W25105  16.810  12.843  10.450
61382W        W25106  32.973  28.105  11.507
61383W        W25107   2.825   8.374   2.346
61384W        W25108  19.149  37.905   2.767
61385W        W25109   0.267  44.797  12.981
61386W        W25110  38.500  22.114   4.814
61387W        W25111  24.975  12.833  12.983
61388W        W25112   2.290  15.758  14.508
61389W        W25113  19.578  12.816  12.573
61390W        W25114  29.058  14.231   4.796
61391W        W25115  29.566  36.026  14.802
61392W        W25116  17.141  10.665   1.339
61393W        W25117  24.105  10.635  11.375
61394W        W25118  20.708  33.107  10.549
61395W        W25119  17.287  39.820   0.771
61396W        W25120  35.991  16.632  12.890
61397W        W25121  16.720   0.889  12.945
61398W        W25122  41.328  14.201  10.515
61399W        W25123  13.253   2.235   0.910
61400W        W25124  42.293   6.401  14.837
61401W        W25125  27.680  11.238   1.774
61402W        W25126  10.222  35.904  11.445
61403W        W25127  28.036   9.202   1.360
61404W        W25128   2.807   0.808  14.010
61405W        W25129  32.991   2.931   2.209
61406W        W25130  21.541  27.546  10.604
61407W        W25131  40.520   9.253  12.470
61408W        W25132  32.492  28.508  10.427
61409W        W25133  29.547  40.384  12.072
61410W        W25134  44.385   2.343   9.937
61411W        W25135  29.583  27.634  11.878
61412W        W25136  13.106   4.213   3.648
61413W        W25137  37.052   0.899  11.084
61414W        W25138  25.156  38.464  10.597
61415W        W25139  13.222   8.682   4.203
61416W        W25140  37.034  34.387  11.016
61417W        W25141   6.855  28.074  13.541
61418W        W25142  27.978  35.071  12.350
61419W        W25143  14.230   1.889  14.937
61420W        W25144  32.512  16.300  10.487
61421W        W25145  31.953  21.099   2.789
61422W        W25146  11.234  32.021  13.910
61423W        W25147  15.790  14.302   0.441
61424W        W25148   4.429  40.399   0.264
61425W        W25149   9.261  39.981  13.488
61426W        W25150  33.592  25.160  13.482
61427W        W25151  35.525  29.635  13.954
61428W        W25152  17.063  19.664  14.990
61429W        W25153   4.735  21.573  11.051
61430W        W25154  15.612  24.986  14.431
61431W        W25155  27.662  39.965  14.436
61432W        W25156   0.490   8.237   4.748
61433W        W25157  15.602  31.027  13.974
61434W        W25158  38.423  28.666  11.531
61435W        W25159  43.464  11.852   0.251
61436W        W25160  42.383  32.015  12.912
61437W        W25161  24.194   6.190   1.292
61438W        W25162  17.772  19.149   4.316
61439W        W25163  16.225  25.981   0.884
61440W        W25164  17.731  32.887   2.663
61441W        W25165  34.469  44.408  10.542
61442W        W25166   2.254  32.120   4.138
61443W        W25167  29.085  29.667  10.461
61444W        W25168  38.405  44.471   2.872
61445W        W25169  34.908   5.899  12.034
61446W        W25170  14.818  28.566  10.956
61447W        W25171  37.837  17.556  12.075
61448W        W25172  34.982   1.462   4.782
61449W        W25173  16.577  15.674  11.484
61450W        W25174  35.440  14.647  11.008
61451W        W25175  29.430  35.058   3.758
61452W        W25176   5.262  36.970  13.357
61453W        W25177  19.723  36.557  14.808
61454W        W25178  11.866   2.887   1.901
61455W        W25179  36.904  25.097   3.813
61456W        W25180  44.756  36.883  13.350
61457W        W25181  31.016  17.761  10.415
61458W        W25182  13.718   1.477  12.374
61459W        W25183  17.140  10.832  13.867
61460W        W25184  38.511  28.959   2.765
61461W        W25185  28.489  19.071  14.439
61462W        W25186  29.998  38.844  12.492
61463W        W25187  20.113   6.734  14.788
61464W        W25188  33.456  35.884   4.817
61465W        W25189  26.472  31.928  11.034
61466W        W25190  12.352  33.595   3.677
61467W        W25191  35.515  25.576  12.550
61468W        W25192   3.248   2.876   0.867
61469W        W25193  19.086  25.702   2.751
61470W        W25194  27.497  30.970  12.485
61471W        W25195  20.627  37.976  13.415
61472W        W25196   2.740  12.829  11.601
61473W        W25197  19.614  22.502   2.343
61474W        W25198  17.144   6.866  10.568
61475W        W25199  25.534  37.833  12.012
61476W        W25200  17.298   7.763   0.473
61477W        W25201  32.023  34.540  10.030
61478W        W25202  24.586  28.133   2.739
61479W        W25203   2.850  14.713  12.846
61480W        W25204   4.291   2.338  14.852
61481W        W25205  35.034  38.412  10.628
61482W        W25206  44.414   4.365   0.850
61483W        W25207  29.646  32.105  13.995
61484W        W25208  26.134   6.308  12.451
61485W        W25209  37.395  39.364  13.888
61486W        W25210   4.315  22.722  13.309
61487W        W25211  17.293   7.690   1.415
61488W        W25212  39.536  43.399  12.929
61489W        W25213  19.729   6.182   2.782
61490W        W25214   3.796   4.887  11.984
61491W        W25215  17.695  26.686  14.364
61492W        W25216   3.238  39.827  14.839
61493W        W25217  12.130   0.943   0.350
61494W        W25218  14.267  22.640  10.589
61495W        W25219  16.280  41.938  14.478
61496W        W25220   4.353  13.155   3.723
61497W        W25221  22.668   8.332  12.023
61498W        W25222  31.104  19.133  10.636
61499W        W25223   0.384  33.484   1.303
61500W        W25224  37.851  22.200   3.224
61501W        W25225  30.659  26.183  10.593
61502W        W25226   7.854   6.211  11.462
61503W        W25227  43.356  23.024  14.883
61504W        W25228   1.294  43.976  11.905
61505W        W25229  19.123  28.043   3.748
61506W        W25230  19.201  24.665  14.394
61507W        W25231  30.659  40.504   0.945
61508W        W25232  25.161  23.727   0.301
61509W        W25233  32.513  26.963   4.284
61510W        W25234  11.284  35.071   3.328
61511W        W25235   9.764   6.295  12.923
61512W        W25236   9.865   3.902   0.858
61513W        W25237  31.505  33.093  14.454
61514W        W25238  16.172  34.521  11.958
61515W        W25239  17.110  33.572  12.425
61516W        W25240  14.196   0.815   2.359
61517W        W25241  29.507  29.134   4.641
61518W        W25242  34.921  36.349  10.453
61519W        W25243  29.077  36.435   3.843
61520W        W25244  29.024   3.775   0.409
61521W        W25245   8.855  15.197  14.903
61522W        W25246   4.939  12.714  11.417
61523W        W25247   6.336   2.413  11.422
61524W        W25248  19.737  41.517  13.506
61525W        W25249   9.825  12.847  12.455
61526W        W25250  29.529  29.559   9.975
61527W        W25251  12.773  16.789   3.229
61528W        W25252   9.284  12.728   3.710
61529W        W25253   1.808   8.293  10.491
61530W        W25254  34.892  43.485  14.417
61531W        W25255   6.293   9.211  13.816
61532W        W25256  12.326  39.481  14.028
61533W        W25257  21.541  22.576  10.099
61534W        W25258  33.433  24.716  14.373
61535W        W25259  33.061  22.027   3.745
61536W        W25260  38.953  17.153  11.061
61537W        W25261  21.199  42.802  10.976
61538W        W25262  32.521  24.073   4.632
61539W        W25263  42.521  20.184   2.282
61540W        W25264  15.821  38.858  13.339
61541W        W25265  31.517   0.257  12.395
61542W        W25266  33.606   0.386  14.912
61543W        W25267  43.805  15.095   0.338
61544W        W25268  29.008  40.356   2.764
61545W        W25269  41.987  27.475   0.449
61546W        W25270  14.831  42.881  14.909
61547W        W25271  18.213  41.511  10.623
61548W        W25272  31.546  42.525  11.972
61549W        W25273  24.093   2.920   1.912
61550W        W25274  26.589  24.093   0.930
61551W        W25275  32.609  34.900   0.379
61552W        W25276  29.944  28.039  13.896
61553W        W25277  23.595  27.479   1.280
61554W        W25278  42.820   3.299  12.020
61555W        W25279  42.459  36.499   3.728
61556W        W25280   0.954  20.038  10.572
61557W        W25281  28.637  29.071   0.304
61558W        W25282   7.799  40.050   2.354
61559W        W25283   1.473   5.386   4.760
61560W        W25284  20.069  22.153   3.811
61561W        W25285   5.400  41.307   3.719
61562W        W25286  40.533  34.874   0.292
61563W        W25287   6.734   7.810  12.829
61564W        W25288   1.430  39.979   4.708
61565W        W25289  40.491   8.162  13.528
61566W        W25290   1.772   9.690   1.831
61567W        W25291   1.956  29.116  12.417
61568W        W25292   9.340  13.631   3.220
61569W        W25293   6.417   7.232   2.311
61570W        W25294  24.575  26.994   4.274
61571W        W25295  19.746   2.353  14.834
61572W        W25296  26.133  37.526  14.480
61573W        W25297  28.453  43.780   0.419
61574W        W25298  36.005  18.724  11.974
61575W        W25299  26.107  15.777   1.428
61576W        W25300  33.539  33.942  14.395
61577W        W25301  34.375  21.131  12.516
61578W        W25302   6.820   3.352  11.053
61579W        W25303  43.831  28.148   0.414
61580W        W25304  17.747   1.439  13.829
61581W        W25305   0.921  26.036  11.541
61582W        W25306   5.355  37.949  12.393
61583W        W25307   3.826  22.148  12.507
61584W        W25308  37.007   3.728  11.096
61585W        W25309  27.173   5.701   3.867
61586W        W25310  22.563  27.985   9.957
61587W        W25311  17.557  27.017  14.298
61588W        W25312  12.353   4.391   4.185
61589W        W25313   8.186  32.110   1.369
61590W        W25314  13.624  34.406   0.272
61591W        W25315  38.348  11.204  14.396
61592W        W25316  22.042  27.044  13.408
61593W        W25317  10.825   7.708   2.844
61594W        W25318   7.824  11.247   0.923
61595W        W25319  25.967   0.913  10.417
61596W        W25320  24.184   2.942  13.812
61597W        W25321  24.992  37.036   4.153
61598W        W25322  14.778  14.313  13.396
61599W        W25323  23.494  20.054   1.860
61600W        W25324  35.945  25.647   1.762
61601W        W25325  19.139  35.936   0.824
61602W        W25326  32.989  41.407   1.352
61603W        W25327   3.222   3.842  12.868
61604W        W25328  23.696  34.499  13.976
61605W        W25329  40.439   5.857   4.719
61606W        W25330   2.445  21.077   3.718
61607W        W25331  35.020  35.490  12.508
61608W        W25332  31.003  30.930  12.357
61609W        W25333  14.195  32.631   1.843
61610W        W25334  14.691  17.704   1.760
61611W        W25335  30.143   7.273   3.749
61612W        W25336  17.743  16.119   3.801
61613W        W25337  29.002  25.966   3.796
61614W        W25338  24.110  32.499  12.498
61615W        W25339  16.616  37.392  14.831
61616W        W25340   6.281   3.937   4.195
61617W        W25341  37.359   8.270  12.841
61618W        W25342  13.824   2.758  14.319
61619W        W25343  32.456  31.575   0.436
61620W        W25344  20.687  12.785   2.674
61621W        W25345  14.632   7.272   0.780
61622W        W25346  16.802  23.139   3.237
61623W        W25347  20.631  33.037   4.156
61624W        W25348  29.137  31.514   2.708
61625W        W25349   1.862   3.322   1.879
61626W        W25350   0.365  36.843   1.929
61627W        W25351  20.751   7.254   3.635
61628W        W25352  42.292   5.845   3.357
61629W        W25353  33.980  32.602  13.382
61630W        W25354  27.451  20.667   1.281
61631W        W25355  40.512  19.545  11.896
61632W        W25356  27.958  36.976  13.490
61633W        W25357  27.984  42.977  12.994
61634W        W25358  18.059  39.398   1.229
61635W        W25359  16.761  44.964  13.313
61636W        W25360  12.210   9.691   0.742
61637W        W25361  17.593  34.570  13.875
61638W        W25362  34.373  12.804  12.873
61639W        W25363  10.639  16.761   4.148
61640W        W25364   1.795  13.797  12.528
61641W        W25365   1.465   6.315   4.625
61642W        W25366  43.277   8.834  14.964
61643W        W25367  16.273  41.356  12.430
61644W        W25368  24.645  16.299   2.747
61645W        W25369  36.902   2.838  12.445
61646W        W25370  27.159   4.427   3.361
61647W        W25371   4.237   0.779  14.019
61648W        W25372  44.420  11.280  13.444
61649W        W25373  27.104  18.284   3.330
61650W        W25374  17.777   3.904   3.802
61651W        W25375   6.714  32.479  11.097
61652W        W25376   7.318  31.974   4.638
61653W        W25377  22.615  30.972   1.428
61654W        W25378   2.848  40.427   0.759
61655W        W25379   1.463  17.651   0.891
61656W        W25380   3.299   3.858   1.321
61657W        W25381  32.987  32.120   4.151
61658W        W25382  36.498  38.885   5.173
61659W        W25383  31.490  41.950  12.951
61660W        W25384  36.581  23.662   1.734
61661W        W25385  35.061  17.201   4.249
61662W        W25386  42.384  40.491  13.990
61663W        W25387  29.127  12.147  10.483
61664W        W25388  28.590  23.999   4.836
61665W        W25389  14.213  36.396   2.254
61666W        W25390  41.372   0.408   1.345
61667W        W25391  44.816  10.366   0.265
61668W        W25392   6.425  24.127   3.702
61669W        W25393   5.691   6.879  11.420
61670W        W25394  16.668  20.647   3.287
61671W        W25395  16.613  19.249  11.861
61672W        W25396  23.149  29.988   2.242
61673W        W25397  11.627  35.093   4.722
61674W        W25398  40.942  15.702  11.595
61675W        W25399  22.525  27.581  10.558
61676W        W25400   2.773  33.535   0.427
61677W        W25401   2.472   3.370  13.960
61678W        W25402  18.105   4.815   3.277
61679W        W25403  36.459   7.709   3.317
61680W        W25404  33.038  14.186   2.806
61681W        W25405  12.654  22.244  13.456
61682W        W25406  34.893  35.883   2.369
61683W        W25407   2.312  39.524   2.845
61684W        W25408   4.341  44.869   3.784
61685W        W25409   4.765  33.093  13.017
61686W        W25410  36.380   6.681   1.440
61687W        W25411   1.790  28.125   2.803
61688W        W25412  33.404  15.302   0.381
61689W        W25413   9.188  38.975  13.342
61690W        W25414  35.451  10.161   9.981
61691W        W25415  15.752  15.302  11.071
61692W        W25416  15.799  42.479  12.824
61693W        W25417  10.868  11.834  12.572
61694W        W25418   4.326   4.835   2.681
61695W        W25419   9.186  40.891   3.198
61696W        W25420  25.017  11.223   3.260
61697W        W25421  40.022  27.464   4.778
61698W        W25422   4.217  34.589  14.487
61699W        W25423   9.211  39.967   3.651
61700W        W25424  21.664  26.541   2.371
61701W        W25425  42.895  37.860  12.975
61702W        W25426  35.891   7.805   3.317
61703W        W25427  41.921  16.226   0.469
61704W        W25428  41.436  38.841  12.535
61705W        W25429  10.275  11.266  10.522
61706W        W25430  13.646  44.495   4.162
61707W        W25431  11.368  43.410  14.276
61708W        W25432   6.867  14.770   3.839
61709W        W25433  26.136   3.909   3.221
61710W        W25434   8.232  32.493   0.250
61711W        W25435   7.879  14.611  10.489
61712W        W25436  40.539  42.956  11.379
61713W        W25437  12.144  35.535  10.907
61714W        W25438  37.477  42.325   4.345
61715W        W25439  21.536  32.940  14.346
61716W        W25440  31.553  19.597   3.856
61717W        W25441  23.558  25.199   5.095
61718W        W25442  42.321   6.685  12.928
61719W        W25443   6.784  21.725   2.754
61720W        W25444  20.038  20.155   4.212
61721W        W25445  12.119  33.406  10.439
61722W        W25446  37.514  24.501   2.179
61723W        W25447  44.975  18.282  12.064
61724W        W25448  37.859   4.796   1.439
61725W        W25449   0.988  15.139  14.772
61726W        W25450  21.514  17.799   4.169
61727W        W25451  34.911  31.534  10.593
61728W        W25452  38.861  13.801   4.677
61729W        W25453  18.143   2.469  11.903
61730W        W25454  23.999  37.406   3.266
61731W        W25455   4.902  36.026   1.394
61732W        W25456  30.990  34.520  12.009
61733W        W25457  24.205  10.382  12.567
61734W        W25458  21.757  20.255  11.421
61735W        W25459  40.830  18.213  13.465
61736W        W25460  21.122  42.440  14.017
61737W        W25461   7.303   9.299  11.548
61738W        W25462  25.115  18.591  14.927
61739W        W25463  28.496  32.138   0.886
61740W        W25464   6.898  24.720   2.329
61741W        W25465  34.425   8.236  11.126
61742W        W25466  23.992  40.808   2.298
61743W        W25467   0.355  12.174   1.380
61744W        W25468  41.982  23.142  12.828
61745W        W25469  25.469  38.955   1.317
61746W        W25470  33.559   9.699   4.291
61747W        W25471  38.454  27.989   3.202
61748W        W25472   1.946  27.043  13.542
61749W        W25473   6.325  34.446   1.808
61750W        W25474  10.228  29.980  10.938
61751W        W25475   3.809  12.686  13.390
61752W        W25476   9.756   2.462  13.317
61753W        W25477  31.147  19.742   1.348
61754W        W25478  19.773  17.230   2.749
61755W        W25479   8.287  27.074   0.389
61756W        W25480  41.464   9.690   4.210
61757W        W25481  14.632  39.967  12.871
61758W        W25482   7.364  23.640   1.394
61759W        W25483   6.228  44.376  11.976
61760W        W25484  35.895  39.388   4.824
61761W        W25485  30.572   1.365  12.028
61762W        W25486  42.342  16.217   4.688
61763W        W25487  29.538  39.354   0.891
61764W        W25488   1.895  11.312   2.266
61765W        W25489   6.754   7.861   0.392
61766W        W25490  33.430  43.466  11.538
61767W        W25491   2.870  18.673   3.774
61768W        W25492  20.597  17.676  12.387
61769W        W25493   1.279  43.506  12.438
61770W        W25494  15.158  23.687   2.888
61771W        W25495  28.657  17.706   4.220
61772W        W25496  13.757   1.362   0.401
61773W        W25497  18.115  39.053  12.890
61774W        W25498   7.217  32.044   0.319
61775W        W25499  21.095  23.722   3.357
61776W        W25500   2.383  32.030   3.784
61777W        W25501  22.600  37.555   1.372
61778W        W25502  36.438  32.937   2.672
61779W        W25503  43.853   5.339   3.246
61780W        W25504  12.712  20.174   4.198
61781W        W25505   4.878  26.581   3.304
61782W        W25506  26.007  22.009  11.063
61783W        W25507  43.404  12.324  10.903
61784W        W25508  12.135  33.602   2.860
61785W        W25509  26.555  36.514  14.449
61786W        W25510  13.737  20.157   4.714
61787W        W25511  17.699  17.078   1.316
61788W        W25512  34.495  21.237  14.512
61789W        W25513   6.334  12.635   1.841
61790W        W25514   3.440  22.185  12.845
61791W        W25515   4.318  11.772  12.534
61792W        W25516  13.215   5.435  12.090
61793W        W25517  13.752  36.876  13.886
61794W        W25518  33.515  13.777  11.955
61795W        W25519  20.167  44.424   2.279
61796W        W25520  40.943  32.627  13.422
61797W        W25521  28.949  37.863   2.179
61798W        W25522  42.365  12.117   0.750
61799W        W25523  38.352  34.004   2.297
61800W        W25524  33.558   3.926  13.945
61801W        W25525   2.760   0.370   3.744
61802W        W25526  43.276  13.628  14.394
61803W        W25527  31.646  31.576   4.266
61804W        W25528  25.614  33.407   0.806
61805W        W25529  34.034  41.512   1.385
61806W        W25530  26.067   4.783   4.793
61807W        W25531  23.566  33.008  14.783
61808W        W25532  21.101  13.763  13.532
61809W        W25533   6.232  16.264   4.709
61810W        W25534  29.633   4.941   3.703
61811W        W25535  30.633  14.802  14.959
61812W        W25536  35.959  40.509   1.380
61813W        W25537  16.794   3.216  13.846
61814W        W25538   9.351  36.421  13.888
61815W        W25539  35.918  26.562  13.000
61816W        W25540   2.771  30.606  10.620
61817W        W25541  16.146  15.134   3.306
61818W        W25542  43.979  22.223   1.316
61819W        W25543  26.149  20.140   3.182
61820W        W25544  44.380  36.490   5.123
61821W        W25545   3.720  19.165  12.888
61822W        W25546  21.142  23.226   3.258
61823W        W25547  13.753  21.651   4.630
61824W        W25548  32.603  35.008   0.837
61825W        W25549  32.067  21.203  14.759
61826W        W25550   7.213  10.370   4.605
61827W        W25551  31.078  27.600   1.847
61828W        W25552  24.125  12.721  11.951
61829W        W25553  16.081  32.910   4.284
61830W        W25554  26.096  18.141  13.022
61831W        W25555   5.376  38.935   1.901
61832W        W25556  11.636  40.396  12.862
61833W        W25557  30.564  22.233   4.228
61834W        W25558  36.042  23.127  13.528
61835W        W25559   2.415  41.958  14.411
61836W        W25560  13.621  34.980   4.669
61837W        W25561  29.993  39.024  11.122
61838W        W25562   0.920   7.738  14.391
61839W        W25563  16.104   1.769   3.750
61840W        W25564   7.293  42.313  11.521
61841W        W25565  14.630  39.936   3.790
61842W        W25566  27.597  22.676  10.465
61843W        W25567   5.396  28.679  14.826
61844W        W25568   0.259  16.232   4.612
61845W        W25569  22.509  39.883   1.833
61846W        W25570  19.662  13.690   9.951
61847W        W25571   9.326   1.909  11.895
61848W        W25572  29.059   3.950   3.716
61849W        W25573  15.654   7.219  14.922
61850W        W25574  17.724  35.024  12.404
61851W        W25575   0.262  17.164   4.239
61852W        W25576   1.291  31.112  12.469
61853W        W25577  10.330   8.163   2.778
61854W        W25578   1.311   6.335   0.422
61855W        W25579  42.897  15.285   4.759
61856W        W25580  31.429  42.899   4.242
61857W        W25581  28.131  11.621   9.962
61858W        W25582  19.057  27.079  11.409
61859W        W25583   2.785  41.385  13.434
61860W        W25584  31.932  30.490  10.494
61861W        W25585  30.656  20.685   2.679
61862W        W25586   4.855  32.999  11.936
61863W        W25587   2.911  34.614   1.292
61864W        W25588  31.513  11.350   3.809
61865W        W25589  35.550  12.280  13.816
61866W        W25590  32.941   8.876  12.866
61867W        W25591  25.634   0.361  12.951
61868W        W25592  44.813  17.796  12.415
61869W        W25593  19.228  29.485   4.743
61870W        W25594  27.554   5.250   4.672
61871W        W25595  26.091  29.049   3.686
61872W        W25596  41.926  17.073   4.232
61873W        W25597   6.713  22.676  12.035
61874W        W25598  23.987  21.230  13.434
61875W        W25599  42.426  25.556   1.366
61876W        W25600   7.280  32.084  13.423
61877W        W25601  37.516  24.510  13.406
61878W        W25602  39.936   3.909  13.033
61879W        W25603   0.957  11.296  11.448
61880W        W25604   4.933  31.939  12.525
61881W        W25605  31.039   0.314  14.770
61882W        W25606  35.039  41.957  10.457
61883W        W25607  13.656  27.061   4.606
61884W        W25608  28.610  24.016  13.455
61885W        W25609  32.570  27.484  11.486
61886W        W25610   0.764  25.016   9.965
61887W        W25611  12.132  14.235   3.182
61888W        W25612  30.103  11.134   1.426
61889W        W25613  38.043  31.035   1.824
61890W        W25614  40.374   7.330   0.296
61891W        W25615   4.208   7.215   1.743
61892W        W25616   6.841  28.975   1.377
61893W        W25617  27.006   1.748  13.997
61894W        W25618  28.172  16.666   2.270
61895W        W25619   0.405  20.562   3.216
61896W        W25620  15.803  43.959   1.411
61897W        W25621  20.083  25.667   2.760
61898W        W25622  23.052  39.499  11.531
61899W        W25623  19.721  28.582  14.433
61900W        W25624   9.329  25.537   3.368
61901W        W25625  14.625   5.736   3.841
61902W        W25626  20.691  24.984   2.829
61903W        W25627  37.569  39.403   2.867
61904W        W25628  42.341  22.028   1.698
61905W        W25629  12.628  35.489   3.772
61906W        W25630   5.812  17.213   1.382
61907W        W25631   7.698  14.708   5.776
61908W        W25632  32.936  12.276  13.906
61909W        W25633  43.007  38.530   0.423
61910W        W25634   0.476  29.148  11.973
61911W        W25635  38.473  38.501   1.432
61912W        W25636   5.814  11.216  12.969
61913W        W25637  40.018   8.843   4.236
61914W        W25638  11.371  32.409   4.331
61915W        W25639  10.176  28.170  14.928
61916W        W25640  11.133  17.130  11.069
61917W        W25641  15.169  31.058  14.955
61918W        W25642  25.041   1.959  14.336
61919W        W25643  43.457   0.891  10.598
61920W        W25644  32.960   5.714   0.901
61921W        W25645  14.236  15.715   4.170
61922W        W25646  30.036  15.178  10.576
61923W        W25647  42.875   1.886  11.523
61924W        W25648  38.412  21.171   1.442
61925W        W25649  19.103  36.844   2.353
61926W        W25650  43.378  18.205   4.673
61927W        W25651  43.372   0.396  13.398
61928W        W25652  42.402   6.828   1.314
61929W        W25653  29.618   4.716  12.394
61930W        W25654  36.847  20.595  11.889
61931W        W25655   6.738  43.286  12.546
61932W        W25656  37.369  30.493  11.976
61933W        W25657  22.695  23.028   1.368
61934W        W25658   7.820  31.488  10.444
61935W        W25659  44.800  37.342   0.801
61936W        W25660  20.549  25.559  14.460
61937W        W25661  23.182  40.963   3.757
61938W        W25662   8.322  41.852  14.897
61939W        W25663  21.543   0.385  14.944
61940W        W25664  25.484   1.303   2.317
61941W        W25665  32.014  18.245  10.492
61942W        W25666   1.856  21.621   2.258
61943W        W25667  41.366  33.120  14.800
61944W        W25668  28.486   4.322   3.318
61945W        W25669  33.049  20.691  13.816
61946W        W25670  24.092  39.492  13.509
61947W        W25671   9.773  27.666   3.227
61948W        W25672   4.392  10.354  10.108
61949W        W25673  12.847  17.755   0.431
61950W        W25674   1.267  16.164   2.830
61951W        W25675  43.347   4.344  11.432
61952W        W25676  37.071  39.062   4.796
61953W        W25677  34.013  41.506  12.559
61954W        W25678   5.355   1.836   2.774
61955W        W25679  25.980  12.351  14.366
61956W        W25680   2.419  27.087   4.169
61957W        W25681   9.794  40.437   0.792
61958W        W25682  40.416   0.258  12.973
61959W        W25683  36.405  36.569   3.157
61960W        W25684   4.399  34.116   0.776
61961W        W25685  23.223  22.015   0.882
61962W        W25686  25.520  26.702  10.448
61963W        W25687  10.334   9.160  10.542
61964W        W25688  34.082  36.846  11.467
61965W        W25689   1.350  12.132  14.334
61966W        W25690   7.274   4.751  10.495
61967W        W25691  20.685  22.112   4.349
61968W        W25692  20.544  34.080  13.394
61969W        W25693   2.798   7.798   1.429
61970W        W25694   8.401   0.273   1.792
61971W        W25695  11.779   5.372  10.527
61972W        W25696  23.631  27.653   3.247
61973W        W25697  29.098  39.816   3.677
61974W        W25698  33.917   3.918   2.408
61975W        W25699  39.423   8.748  13.506
61976W        W25700   2.810  27.468  12.568
61977W        W25701   4.348  22.222  11.031
61978W        W25702  28.624   6.411   3.748
61979W        W25703  28.635  43.874   4.798
61980W        W25704  13.834  21.730  13.436
61981W        W25705  36.552  30.454   3.833
61982W        W25706  14.659  18.555   0.887
61983W        W25707  14.712  30.940   3.756
61984W        W25708  28.650   5.341   2.411
61985W        W25709  14.711  25.487   4.702
61986W        W25710   0.327  31.410   3.172
61987W        W25711  38.886  17.124  13.351
61988W        W25712  32.060  18.648   2.822
61989W        W25713  37.350  36.528   0.902
61990W        W25714   4.288  33.006  13.503
61991W        W25715  43.802   6.737   2.885
61992W        W25716  22.069  12.808   3.304
61993W        W25717   8.259  41.031   0.843
61994W        W25718  15.695  34.911  11.561
61995W        W25719  18.106  39.439  13.878
61996W        W25720  38.977  40.325  12.029
61997W        W25721  31.476   0.933  12.058
61998W        W25722  37.896  43.901  14.806
61999W        W25723   4.943  30.605  10.415
62000W        W25724  22.735  44.469  11.858
62001W        W25725  33.506  15.112   1.880
62002W        W25726   9.272  26.114  13.013
62003W        W25727   2.927   6.186   4.741
62004W        W25728   8.209  20.194  14.280
62005W        W25729  25.492  19.664   0.278
62006W        W25730  25.003   6.402   4.598
62007W        W25731  23.508  41.494   0.914
62008W        W25732  31.042  11.734  14.814
62009W        W25733   0.417   3.953   3.371
62010W        W25734  11.273  12.164   0.917
62011W        W25735  32.487  31.630   1.272
62012W        W25736  20.739  18.095  10.444
62013W        W25737  11.792   0.863  14.428
62014W        W25738   3.384  42.992  10.064
62015W        W25739  19.105  35.025  10.930
62016W        W25740  13.628  34.886   3.183
62017W        W25741  27.975  40.397   4.121
62018W        W25742  16.313  21.092   0.362
62019W        W25743   0.316  39.010   2.342
62020W        W25744  33.075  33.559   3.648
62021W        W25745  27.131  13.629  12.005
62022W        W25746  41.326   6.333  10.502
62023W        W25747   9.252  36.027   1.250
62024W        W25748   6.795  31.591   3.326
62025W        W25749   0.918  13.266  14.444
62026W        W25750  22.045  29.995   5.237
62027W        W25751  32.524   9.677   3.645
62028W        W25752  28.561  17.299  13.413
62029W        W25753  41.314  17.257   3.251
62030W        W25754  39.356  25.481  11.919
62031W        W25755   6.381  31.942  11.018
62032W        W25756  12.764   0.883   1.747
62033W        W25757  19.690   5.389  10.406
62034W        W25758   2.745   3.304  11.420
62035W        W25759  27.055   6.278   1.916
62036W        W25760   9.244   9.246  13.971
62037W        W25761  43.419   5.707  10.512
62038W        W25762  13.198  21.615  11.536
62039W        W25763  15.179   8.234   2.321
62040W        W25764  28.678  13.632  12.017
62041W        W25765  43.341  44.878   3.790
62042W        W25766  10.269  29.649   3.845
62043W        W25767   9.261  33.089  10.429
62044W        W25768  11.190  29.150  13.041
62045W        W25769  18.635  44.986  11.502
62046W        W25770  13.819  28.501   0.770
62047W        W25771  17.618  12.758   9.954
62048W        W25772  38.906   6.400   3.169
62049W        W25773  33.986  38.392   1.343
62050W        W25774  13.238  31.551  13.348
62051W        W25775  30.564  19.581  12.459
62052W        W25776  18.558  39.940   1.393
62053W        W25777   5.202   7.714  14.806
62054W        W25778  17.649  16.076   1.387
62055W        W25779  14.172  33.620  10.498
62056W        W25780  10.791  40.509   0.838
62057W        W25781   9.844  22.649   4.307
62058W        W25782  30.578  40.349  12.409
62059W        W25783   8.710   3.305   1.434
62060W        W25784  36.370  11.196   1.277
62061W        W25785  43.869  18.633   4.322
62062W        W25786  43.781  24.094  12.059
62063W        W25787  40.927   9.646  14.916
62064W        W25788  31.582  42.335   3.747
62065W        W25789  23.155  32.963   2.261
62066W        W25790  13.776  23.505   0.874
62067W        W25791   8.323  41.305   0.872
62068W        W25792  35.444  34.889  12.576
62069W        W25793  26.983  15.186   0.803
62070W        W25794  15.664  42.020  14.855
62071W        W25795  18.630   0.330  11.564
62072W        W25796   0.917  32.101  10.049
62073W        W25797   2.925  39.920   3.260
62074W        W25798  22.031  32.899  14.355
62075W        W25799   3.380   2.322  10.990
62076W        W25800  18.163   1.311   4.794
62077W        W25801  39.499  19.212   0.415
62078W        W25802  34.940  34.923  13.362
62079W        W25803  13.188  19.755  10.934
62080W        W25804  11.794  41.352   0.298
62081W        W25805  16.246   8.719   0.446
62082W        W25806  33.886  13.237   9.612
62083W        W25807   0.258  28.108   2.834
62084W        W25808  24.986  36.006   4.186
62085W        W25809  30.970  17.190  10.965
62086W        W25810  11.692  39.348   3.760
62087W        W25811  13.731   2.791  13.522
62088W        W25812  13.704  29.424  12.005
62089W        W25813   5.864  30.626  11.887
62090W        W25814  18.267  37.058   0.381
62091W        W25815  12.780  31.063   1.919
62092W        W25816  20.063  30.464   3.854
62093W        W25817  14.607  22.022  12.555
62094W        W25818  21.593  25.557  13.429
62095W        W25819  28.664  35.402  14.772
62096W        W25820  33.020  42.008   3.330
62097W        W25821  44.833  39.342   0.297
62098W        W25822  42.431  23.048  11.551
62099W        W25823   8.322  29.974   2.829
62100W        W25824  35.414  41.978  12.026
62101W        W25825  28.527   6.820   1.359
62102W        W25826  29.465   2.307   4.266
62103W        W25827  44.830   9.806   3.688
62104W        W25828  44.267  15.772   4.340
62105W        W25829  26.139  19.595  11.020
62106W        W25830  42.886  13.246  11.599
62107W        W25831  17.254  28.157   1.298
62108W        W25832  26.497  41.952   4.783
62109W        W25833  19.773   6.792   2.406
62110W        W25834  24.617  15.243   2.388
62111W        W25835  35.514  40.386   4.806
62112W        W25836  35.426  41.501  13.056
62113W        W25837  35.454   2.763   0.832
62114W        W25838  40.321  42.429   1.422
62115W        W25839  34.385   9.727  11.505
62116W        W25840  18.635   7.672   4.703
62117W        W25841  44.996  36.593  10.069
62118W        W25842  22.244  29.078   4.837
62119W        W25843   3.366  30.520   4.701
62120W        W25844  34.581  15.766  14.354
62121W        W25845  40.366  10.217   3.842
62122W        W25846  21.255   6.333  14.323
62123W        W25847  26.034  43.327   2.877
62124W        W25848  37.004  42.339   3.309
62125W        W25849  22.579   8.782   4.811
62126W        W25850  29.612   5.333   3.346
62127W        W25851   8.738  43.398  12.826
62128W        W25852  34.503  34.516  11.991
62129W        W25853  21.529  40.498   0.954
62130W        W25854  13.830  20.177   1.242
62131W        W25855  25.546   0.466   2.853
62132W        W25856  30.010  40.511  11.127
62133W        W25857  37.088  38.829  13.033
62134W        W25858  32.138  15.328  13.439
62135W        W25859  10.180  18.736   3.363
62136W        W25860  34.052  35.993   4.767
62137W        W25861  22.682  32.567   4.228
62138W        W25862  37.968  14.295  13.034
62139W        W25863  30.565  34.030  10.555
62140W        W25864  42.885  36.588  13.959
62141W        W25865  32.439   7.858   4.658
62142W        W25866  37.547   0.464  14.368
62143W        W25867   8.661  28.946   0.315
62144W        W25868  42.991  18.629  10.438
62145W        W25869  40.903  24.670  11.090
62146W        W25870  10.758  15.140   1.284
62147W        W25871  36.495  31.957  12.859
62148W        W25872  40.450  26.521  14.949
62149W        W25873   4.420  36.484   0.282
62150W        W25874  22.169   6.803   3.681
62151W        W25875   6.822  10.874  12.839
62152W        W25876   8.676   3.935   4.644
62153W        W25877  17.644  27.080   3.156
62154W        W25878  12.294   6.806   1.274
62155W        W25879  35.932  43.456   1.355
62156W        W25880  19.127  13.146  10.502
62157W        W25881  20.578  35.580  14.418
62158W        W25882   0.761  33.432   1.380
62159W        W25883  22.019  24.653   2.735
62160W        W25884  22.597  30.006  10.088
62161W        W25885  17.263  35.402   4.240
62162W        W25886  36.572  29.423   3.783
62163W        W25887  33.485   3.404   5.149
62164W        W25888  33.390  25.994  14.347
62165W        W25889  21.166  21.073  10.638
62166W        W25890  31.954  25.074   3.659
62167W        W25891  25.576  16.644   4.671
62168W        W25892  30.627  24.658   4.341
62169W        W25893  22.568   4.912  12.961
62170W        W25894  35.015  18.585  11.469
62171W        W25895  29.098  19.076  13.999
62172W        W25896  19.701  34.075   3.322
62173W        W25897  31.470  40.005  12.844
62174W        W25898  37.841  38.381   4.226
62175W        W25899  20.525   6.886   1.865
62176W        W25900  38.030  26.502   3.238
62177W        W25901  35.005  27.486  14.876
62178W        W25902   7.748  11.250   3.165
62179W        W25903   3.887  36.511   4.823
62180W        W25904  42.870  13.183  13.904
62181W        W25905   7.396  27.640   1.420
62182W        W25906  34.084   5.911   0.767
62183W        W25907  38.996  31.998  14.861
62184W        W25908   8.695  39.349   4.220
62185W        W25909  27.985  34.969  11.978
62186W        W25910  13.755  14.134  13.845
62187W        W25911  40.918  15.597   0.388
62188W        W25912  28.543  21.162  11.402
62189W        W25913  12.191  27.478  13.468
62190W        W25914  16.630  14.214   0.464
62191W        W25915  13.706  13.128  13.348
62192W        W25916  40.893  40.975   3.702
62193W        W25917  27.073   7.334   3.205
62194W        W25918  21.696  34.486  11.448
62195W        W25919  29.028   5.358   0.816
62196W        W25920  39.455  37.033  11.442
62197W        W25921  12.778  41.534   1.796
62198W        W25922  20.763  16.629   3.349
62199W        W25923   1.421  38.571   2.829
62200W        W25924  33.956  36.448  10.897
62201W        W25925  21.024  38.443   0.286
62202W        W25926   5.289  41.023  12.925
62203W        W25927  25.212  31.600   1.333
62204W        W25928  33.885  35.908   3.329
62205W        W25929  44.983  16.221  11.128
62206W        W25930  24.041  21.712  11.082
62207W        W25931  42.450  16.630   1.726
62208W        W25932  28.646  39.534   2.727
62209W        W25933  41.324   6.745  11.995
62210W        W25934  41.967  13.673  13.547
62211W        W25935   7.782  41.018  11.080
62212W        W25936  36.529  43.958  13.322
62213W        W25937  25.611  31.623   0.956
62214W        W25938  26.698  22.090  12.994
62215W        W25939  25.472  18.617   1.867
62216W        W25940  35.954  20.158  14.344
62217W        W25941  33.397   5.230  14.410
62218W        W25942  18.608  37.922   2.257
62219W        W25943  21.687  27.944   1.836
62220W        W25944   0.818  28.027   3.788
62221W        W25945   9.338  44.434  12.992
62222W        W25946  15.175  34.008  11.886
62223W        W25947  20.046  24.016   0.907
62224W        W25948  15.267  21.636   4.227
62225W        W25949  43.362  13.158   2.403
62226W        W25950   0.476  36.089  14.759
62227W        W25951  11.747  14.157  10.466
62228W        W25952  33.902  27.512  13.983
62229W        W25953  15.629  31.152   4.631
62230W        W25954  18.252  11.718  11.598
62231W        W25955  29.155  32.040  11.889
62232W        W25956  15.215  42.000  13.905
62233W        W25957  39.315  15.677   2.700
62234W        W25958   9.775  32.486  12.875
62235W        W25959  14.334  18.147   4.264
62236W        W25960   7.762   4.401  11.375
62237W        W25961   7.762  44.331  12.498
62238W        W25962  10.184  38.558   4.329
62239W        W25963   4.374  13.214  13.013
62240W        W25964  29.582  18.545   0.319
62241W        W25965   3.825  32.538  12.424
62242W        W25966  15.149  27.621  11.554
62243W        W25967  33.418   3.382   2.757
62244W        W25968  15.767  10.866  11.093
62245W        W25969  12.738  44.497   4.248
62246W        W25970  32.452   0.807   3.845
62247W        W25971   2.835  29.619  14.844
62248W        W25972  31.644   4.827   0.296
62249W        W25973  25.120  16.751   4.148
62250W        W25974  22.049   2.749  10.607
62251W        W25975  17.080  41.859  12.097
62252W        W25976  19.162  42.450   2.336
62253W        W25977  21.113   4.408   3.378
62254W        W25978  38.838  18.169  14.431
62255W        W25979  16.157  16.615   2.672
62256W        W25980  19.764  43.931  10.441
62257W        W25981  23.114   9.181   1.793
62258W        W25982  16.574  43.839   0.428
62259W        W25983   5.734   9.875  12.857
62260W        W25984  26.108  26.017  11.530
62261W        W25985   3.444  43.808  12.367
62262W        W25986  31.982  14.242   3.743
62263W        W25987  31.443   4.887  13.427
62264W        W25988  43.865  37.070   0.847
62265W        W25989  23.115  21.675  13.972
62266W        W25990  18.057   8.390  12.922
62267W        W25991  32.573  44.963   1.861
62268W        W25992  33.588  40.963  12.564
62269W        W25993  31.133   2.744  14.341
62270W        W25994  20.079  23.071  13.343
62271W        W25995   0.315  34.953   3.774
62272W        W25996  17.797  36.515  14.799
62273W        W25997  30.659   8.878  14.472
62274W        W25998  39.396  30.967  13.901
62275W        W25999  33.909  25.142  13.312
62276W        W26000  40.544   8.352  12.459
62277W        W26001  34.996  41.965  13.949
62278W        W26002  23.094   3.425  13.421
62279W        W26003   1.368  17.173   2.259
62280W        W26004   1.325  42.000   2.841
62281W        W26005  27.088  44.314  11.102
62282W        W26006  36.411  38.056  14.025
62283W        W26007   0.437  19.238   1.887
62284W        W26008  27.191  23.232   1.788
62285W        W26009  14.237   5.407   3.353
62286W        W26010  16.120  27.177   3.655
62287W        W26011   5.830   5.323  13.438
62288W        W26012   8.231  31.454  13.882
62289W        W26013  39.490  29.012  14.794
62290W        W26014  38.478  37.441  13.851
62291W        W26015  21.018  31.974   1.325
62292W        W26016  24.053  22.538   0.800
62293W        W26017  14.275  16.611  12.002
62294W        W26018  43.491  33.901  10.481
62295W        W26019   5.386  44.770   2.307
62296W        W26020  15.291  41.793  14.360
62297W        W26021  26.531   7.896  12.000
62298W        W26022  42.456  42.916  10.140
62299W        W26023  14.144  14.095   3.340
62300W        W26024  30.956   4.389  11.987
62301W        W26025  29.997  18.078   0.954
62302W        W26026  19.120  29.173  11.429
62303W        W26027  39.558  37.046   0.920
62304W        W26028  37.413  34.410  14.793
62305W        W26029   8.227  11.766  11.121
62306W        W26030  12.808  31.407   4.244
62307W        W26031  25.522  36.547   1.382
62308W        W26032  31.031   5.794  13.427
62309W        W26033  21.544  16.784  12.399
62310W        W26034  27.622  10.743   9.557
62311W        W26035  13.248  32.053   4.116
62312W        W26036  35.516  43.817  14.969
62313W        W26037  15.151  39.824   1.351
62314W        W26038  15.822  43.475   2.279
62315W        W26039  31.005  18.758  14.456
62316W        W26040  24.596  38.013  11.102
62317W        W26041  22.236   3.759  12.405
62318W        W26042   8.268  43.500   1.882
62319W        W26043   9.849  12.331   2.793
62320W        W26044  19.240  17.266  14.444
62321W        W26045  30.522  20.613   4.150
62322W        W26046  35.944  27.461  14.347
62323W        W26047  43.781  28.074  13.455
62324W        W26048  17.187  35.575   1.766
62325W        W26049  19.100  12.704  11.502
62326W        W26050   9.672  21.735  10.908
62327W        W26051  37.880   2.762  12.903
62328W        W26052  13.634  32.494  13.839
62329W        W26053  12.168  24.205  14.473
62330W        W26054  14.111  11.346  14.322
62331W        W26055  29.083  30.511  12.438
62332W        W26056  13.640  30.571  12.905
62333W        W26057  13.817   0.763   4.623
62334W        W26058  15.236  13.618  13.892
62335W        W26059  23.571  30.543   4.787
62336W        W26060  25.646  22.613   3.856
62337W        W26061  20.644  14.096   1.887
62338W        W26062  21.177  28.010  13.011
62339W        W26063  19.545  25.101  13.996
62340W        W26064   8.330  40.938   2.233
62341W        W26065  42.438  12.263  10.475
62342W        W26066  35.601   3.407   2.376
62343W        W26067  37.569  33.592  13.466
62344W        W26068  22.027  42.372  11.864
62345W        W26069  13.264  12.852   0.330
62346W        W26070   1.386   0.765   2.398
62347W        W26071  24.223  25.527   4.734
62348W        W26072  17.228   3.742   2.792
62349W        W26073  24.978   1.818   3.810
62350W        W26074  33.420  31.441  12.502
62351W        W26075  23.592   8.399   4.141
62352W        W26076  25.046  44.908   3.694
62353W        W26077  14.628   1.299  12.560
62354W        W26078  11.851  41.310   2.774
62355W        W26079  24.506  20.180   2.206
62356W        W26080  11.352  11.235   4.684
62357W        W26081   4.317  27.074  12.411
62358W        W26082  21.696  37.892   9.532
62359W        W26083  16.082  13.823   1.924
62360W        W26084  30.109  12.822  13.854
62361W        W26085  19.053  11.675  10.963
62362W        W26086  44.386  22.613   2.783
62363W        W26087  22.089  37.031   0.384
62364W        W26088  34.876  12.854   4.807
62365W        W26089  30.104   3.331   1.889
62366W        W26090  14.262  25.712  10.487
62367W        W26091  39.419  21.631   3.280
62368W        W26092   6.750  35.970  12.035
62369W        W26093  39.880  31.076  10.902
62370W        W26094  27.011  19.588   0.817
62371W        W26095  27.086  44.414   1.221
62372W        W26096  27.169  26.062  10.405
62373W        W26097  34.059  36.920   0.849
62374W        W26098  29.978  36.584  12.927
62375W        W26099  13.254   4.421   9.994
62376W        W26100   6.773  37.915   3.806
62377W        W26101  40.336  30.485  14.386
62378W        W26102  35.002  12.783   3.226
62379W        W26103  16.711  12.293  12.087
62380W        W26104  10.850   7.347   0.899
62381W        W26105  32.064   2.435  11.977
62382W        W26106  40.919  17.230   1.237
62383W        W26107   7.676   2.336   1.384
62384W        W26108  39.925  21.111   1.363
62385W        W26109  25.125  33.121   0.289
62386W        W26110  27.682   9.768  11.870
62387W        W26111  34.571  19.281  10.528
62388W        W26112  17.297  29.102   2.319
62389W        W26113   7.827  42.847   1.279
62390W        W26114  32.977  35.386  13.014
62391W        W26115  41.800  37.889   5.115
62392W        W26116  44.361  31.006   3.196
62393W        W26117  28.980  23.213  14.510
62394W        W26118  36.929  27.539  12.437
62395W        W26119  38.549  21.546   0.291
62396W        W26120  29.637  36.897  11.404
62397W        W26121  28.118   4.744  10.463
62398W        W26122   3.946   5.693   2.409
62399W        W26123   0.889  16.754   4.175
62400W        W26124   6.380  23.063  10.911
62401W        W26125  37.362   1.795   3.344
62402W        W26126   0.388  25.990   4.293
62403W        W26127  36.972   7.820   0.785
62404W        W26128  14.184   5.365   0.458
62405W        W26129  31.624   1.398  12.009
62406W        W26130   5.728   9.668   4.821
62407W        W26131  17.248   2.798  13.339
62408W        W26132  20.548  32.517  13.332
62409W        W26133  18.134   7.858   0.465
62410W        W26134   3.393  13.751  12.571
62411W        W26135   8.899  27.000  10.540
62412W        W26136  20.601  29.498  10.472
62413W        W26137  35.370  20.764   4.213
62414W        W26138  13.719  16.118   4.149
62415W        W26139   8.679  28.447   1.335
62416W        W26140  39.061   2.367  13.989
62417W        W26141   5.818   7.877   4.830
62418W        W26142   2.306  34.933  13.374
62419W        W26143  28.456  24.541   1.396
62420W        W26144  39.514  11.251   1.331
62421W        W26145   1.915  14.284   2.369
62422W        W26146  13.610  33.902   3.786
62423W        W26147  31.428  12.311   0.343
62424W        W26148  11.131  18.175  13.873
62425W        W26149  14.173  19.203  11.014
62426W        W26150   2.252  41.839  12.506
62427W        W26151  32.539  41.905   0.881
62428W        W26152  28.984  44.787  10.494
62429W        W26153  19.670   2.448  11.431
62430W        W26154   7.676  31.095  11.949
62431W        W26155  34.487   4.342  12.339
62432W        W26156  12.612  42.970  12.011
62433W        W26157   8.259  22.127  11.483
62434W        W26158   7.399  41.851  11.869
62435W        W26159  40.388   6.787  12.923
62436W        W26160  28.062  24.995   1.345
62437W        W26161   1.817   3.857  10.574
62438W        W26162  25.690  43.306  12.870
62439W        W26163  29.527  35.928   2.713
62440W        W26164  14.132  27.987   4.663
62441W        W26165  40.423  32.438  11.458
62442W        W26166  21.127  36.021   5.131
62443W        W26167   8.318   7.853   2.728
62444W        W26168  41.385  12.200   3.220
62445W        W26169  16.111  14.833   3.231
62446W        W26170   1.380   5.274  11.383
62447W        W26171  43.798  22.228   9.959
62448W        W26172  42.020  42.935  14.275
62449W        W26173  11.341  43.955  13.324
62450W        W26174  10.289  20.059   1.252
62451W        W26175  27.597   9.314  10.536
62452W        W26176  18.765  19.281   0.350
62453W        W26177  33.478  18.181   0.865
62454W        W26178  26.035  43.360  11.096
62455W        W26179  15.106  21.118   1.718
62456W        W26180  26.166  38.933  10.991
62457W        W26181  25.634  29.439   1.806
62458W        W26182  12.624  40.462  13.502
62459W        W26183  38.997   2.262   0.762
62460W        W26184  43.002  25.186  10.436
62461W        W26185   3.251   8.281   0.925
62462W        W26186   2.828  10.359   1.708
62463W        W26187  20.089   7.222   2.879
62464W        W26188   2.471  20.666  11.385
62465W        W26189  41.865  15.152   4.203
62466W        W26190  37.846  34.451   4.239
62467W        W26191   3.906  11.192  10.993
62468W        W26192  17.729  14.607  11.509
62469W        W26193   7.183  42.345  14.471
62470W        W26194  20.101  39.497   3.164
62471W        W26195  37.887   4.396   4.320
62472W        W26196  15.768   4.729  13.525
62473W        W26197  13.303  26.987   2.286
62474W        W26198   5.825  28.957  11.560
62475W        W26199  39.337   1.829   0.874
62476W        W26200   6.403  28.124  14.907
62477W        W26201  23.608  41.962  13.985
62478W        W26202   8.781   3.895  12.433
62479W        W26203   7.688   6.708  11.512
62480W        W26204  44.326   4.739   3.179
62481W        W26205  12.248  35.532  14.361
62482W        W26206  19.183  36.542  11.012
62483W        W26207  41.524  41.929   2.202
62484W        W26208  29.448  26.980   2.417
62485W        W26209   7.800  14.828  11.600
62486W        W26210  43.315   7.787   2.414
62487W        W26211  14.171  13.196  12.482
62488W        W26212  13.235  16.697   2.695
62489W        W26213  35.998  42.776   3.283
62490W        W26214   8.305  29.608   4.735
62491W        W26215  23.101   0.279   2.379
62492W        W26216  37.015  15.209  14.336
62493W        W26217  10.791  15.134  13.870
62494W        W26218  29.558  16.147   4.329
62495W        W26219  13.193  18.604   0.783
62496W        W26220   4.731  37.561  10.909
62497W        W26221   8.194  27.056   3.812
62498W        W26222   8.330  37.459   0.351
62499W        W26223  42.806  31.585  14.475
62500W        W26224  30.036  42.952  11.863
62501W        W26225  43.918  21.019  13.313
62502W        W26226  42.775  38.065   0.406
62503W        W26227  37.022   5.400  13.039
62504W        W26228  40.974   3.240  12.849
62505W        W26229  43.274   2.873  12.840
62506W        W26230  44.981  12.185   2.783
62507W        W26231  41.395  43.458   9.927
62508W        W26232   8.774  35.893   0.340
62509W        W26233  40.480  23.178  10.915
62510W        W26234  28.155   7.895   4.649
62511W        W26235  30.970   1.901  10.460
62512W        W26236  31.057  11.176   3.656
62513W        W26237  31.115  23.984   0.780
62514W        W26238   6.682  25.546   4.336
62515W        W26239  12.163   4.778   2.891
62516W        W26240  38.068  21.049   2.368
62517W        W26241  21.600  24.489  14.294
62518W        W26242  39.461  31.071  14.768
62519W        W26243  43.906   5.768   1.397
62520W        W26244  35.071  32.391  14.882
62521W        W26245  26.197  37.855  11.452
62522W        W26246  20.222  41.391   4.354
62523W        W26247  34.905  22.591   2.807
62524W        W26248  10.243  17.567  11.879
62525W        W26249   6.337  34.068   3.825
62526W        W26250   6.375  17.652  11.968
62527W        W26251  18.139  22.633   0.453
62528W        W26252  41.523  16.100   2.300
62529W        W26253  42.831  37.006  12.474
62530W        W26254   9.751  32.099   3.340
62531W        W26255  17.657  21.033   0.870
62532W        W26256  24.519  32.480  13.832
62533W        W26257  23.585  34.563   4.690
62534W        W26258  35.929  20.257   4.744
62535W        W26259  23.099  19.251   0.775
62536W        W26260   2.246  34.445   3.804
62537W        W26261  44.339  14.266   4.605
62538W        W26262  36.905  32.408  10.477
62539W        W26263  22.690  10.200   4.354
62540W        W26264  15.578  25.985   2.724
62541W        W26265  15.803  32.396  10.528
62542W        W26266  19.096  20.154   0.862
62543W        W26267  23.506  11.842  11.040
62544W        W26268   5.399  26.047  12.062
62545W        W26269  26.633  11.359   3.709
62546W        W26270   2.396   1.753  14.892
62547W        W26271  10.709   0.368   2.309
62548W        W26272  43.355   8.223  13.353
62549W        W26273  13.816  17.651  11.940
62550W        W26274  13.808  14.193   1.280
62551W        W26275  19.142  33.526  14.912
62552W        W26276  43.794  42.307  11.456
62553W        W26277  36.061  36.907   4.152
62554W        W26278  26.666  30.962   4.622
62555W        W26279  25.475  29.965  14.835
62556W        W26280  29.001   9.327  11.059
62557W        W26281  25.603  26.630   1.311
62558W        W26282   7.253   1.247   2.805
62559W        W26283  25.480   2.343   4.736
62560W        W26284  11.163  32.078   0.339
62561W        W26285  37.833  33.427  12.515
62562W        W26286   2.458  44.791   1.702
62563W        W26287   9.797  32.019   0.783
62564W        W26288   9.817  23.619   3.359
62565W        W26289  21.081   5.734   0.747
62566W        W26290  26.187  13.748  12.499
62567W        W26291   4.412  23.722   1.934
62568W        W26292  22.118  36.934   4.680
62569W        W26293  30.598   6.821  14.514
62570W        W26294  27.654   5.845  13.911
62571W        W26295   3.924  15.671  11.527
62572W        W26296  15.098  14.741  12.949
62573W        W26297  35.456   4.739   1.376
62574W        W26298  43.350  40.986  14.832
62575W        W26299  37.003   4.298   2.864
62576W        W26300  29.119  44.796  13.355
62577W        W26301  14.794   1.251   2.677
62578W        W26302  31.452  12.184  13.809
62579W        W26303  14.203  27.940  13.372
62580W        W26304  39.857  28.992   1.861
62581W        W26305  33.876  31.073  10.556
62582W        W26306  27.485  14.254  10.504
62583W        W26307  30.984  22.080   2.225
62584W        W26308  24.982   6.811  12.863
62585W        W26309  44.862  13.122   2.340
62586W        W26310  38.934  40.009  12.909
62587W        W26311   2.351   2.359  11.943
62588W        W26312  38.946  14.827  11.568
62589W        W26313  17.684  10.182   1.867
62590W        W26314  31.968  17.076  12.858
62591W        W26315   6.706  23.509  12.831
62592W        W26316  17.290   7.326   5.084
62593W        W26317   2.725  22.600  12.445
62594W        W26318  21.523  42.884  11.006
62595W        W26319  19.771  41.862   0.753
62596W        W26320  20.154  25.164   2.282
62597W        W26321  19.746  44.968  14.911
62598W        W26322  34.893  24.601   2.766
62599W        W26323   2.296  30.487  12.003
62600W        W26324  43.395  24.724  14.468
62601W        W26325  12.222  10.837   1.320
62602W        W26326   0.259  34.072   4.191
62603W        W26327  20.258  15.691  11.507
62604W        W26328  31.556  39.049  11.429
62605W        W26329  39.987  34.120  12.885
62606W        W26330  12.127  13.221   2.874
62607W        W26331   6.696  22.534   3.305
62608W        W26332   7.359  18.160   1.308
62609W        W26333  38.425  42.947   3.147
62610W        W26334  31.122  39.842  10.507
62611W        W26335   3.434   2.467  12.869
62612W        W26336  34.458   0.258  12.933
62613W        W26337  35.093  16.647   4.832
62614W        W26338  12.730   2.876  13.870
62615W        W26339   7.320  36.432  10.909
62616W        W26340   7.356  44.338  12.862
62617W        W26341  42.843  25.635  10.615
62618W        W26342  13.743  35.872  14.884
62619W        W26343  30.063   3.293  12.554
62620W        W26344  26.644  42.471   1.755
62621W        W26345  39.530  38.478  10.561
62622W        W26346  12.690  42.010  14.889
62623W        W26347  27.942  41.839   2.404
62624W        W26348  36.021  33.984   1.345
62625W        W26349  22.122  32.568   4.244
62626W        W26350  29.158  32.453   3.179
62627W        W26351  20.716  22.682   4.733
62628W        W26352   8.867  40.824   1.741
62629W        W26353  40.522  22.623   2.293
62630W        W26354  17.150  21.694  11.610
62631W        W26355   1.750  34.426   3.175
62632W        W26356  43.834  25.095   4.192
62633W        W26357   6.345   6.360   2.366
62634W        W26358  24.621  15.757  10.891
62635W        W26359  31.033  34.098   4.286
62636W        W26360  28.551  25.042  13.805
62637W        W26361   6.328  23.094  11.500
62638W        W26362   9.272  44.356  11.442
62639W        W26363  18.070  40.417   0.465
62640W        W26364  36.579  34.586  12.509
62641W        W26365  44.455  13.831   4.609
62642W        W26366  28.604  30.123  13.426
62643W        W26367   9.192   0.345   4.222
62644W        W26368  27.986   1.876  11.019
62645W        W26369  33.529   8.246  11.905
62646W        W26370  14.243  39.951   1.798
62647W        W26371  16.699   6.876   1.751
62648W        W26372   1.812   9.885   2.804
62649W        W26373  24.634  24.057  14.323
62650W        W26374  39.444  32.085   0.961
62651W        W26375  23.161   3.712  14.804
62652W        W26376   1.955   6.284   1.741
62653W        W26377  40.847  36.082   3.791
62654W        W26378  43.765  32.989  12.443
62655W        W26379  39.016  44.941   0.379
62656W        W26380  38.483  18.590   0.903
62657W        W26381   0.923  37.027  14.002
62658W        W26382  17.258  43.482   2.397
62659W        W26383   9.241   1.747   3.147
62660W        W26384  12.250   8.861  12.969
62661W        W26385   0.939   8.323   2.862
62662W        W26386  34.926  20.561   0.884
62663W        W26387   1.429  20.589  12.538
62664W        W26388  31.900  30.564   4.773
62665W        W26389  36.492  40.491  13.796
62666W        W26390  39.478   9.352  11.406
62667W        W26391  33.426  11.216   3.851
62668W        W26392  43.284  37.581  11.934
62669W        W26393  37.886  14.318  13.803
62670W        W26394  37.408  32.534  11.564
62671W        W26395  41.825   7.832  14.876
62672W        W26396   5.335  43.272   1.882
62673W        W26397   2.389   6.318  11.881
62674W        W26398  34.380  30.425  10.584
62675W        W26399  13.760  15.257   3.282
62676W        W26400  40.528  13.117  13.877
62677W        W26401  34.392  44.457  11.926
62678W        W26402  19.101  19.579   1.422
62679W        W26403  31.597  38.554   3.256
62680W        W26404  29.944  38.985  11.885
62681W        W26405  21.688  13.136  10.494
62682W        W26406  30.484  35.970  14.467
62683W        W26407  19.174   0.490   0.733
62684W        W26408  29.658  32.062   0.795
62685W        W26409   8.387  18.183  12.556
62686W        W26410  28.974  15.694   3.637
62687W        W26411  19.689  32.585   0.387
62688W        W26412  26.509  44.269   4.159
62689W        W26413  27.992  25.198  14.915
62690W        W26414   0.959   3.779  14.307
62691W        W26415  38.493   2.415  11.915
62692W        W26416   7.404   8.723   1.804
62693W        W26417  40.483  18.193   1.376
62694W        W26418  17.593  37.362  13.971
62695W        W26419  13.659  34.882  14.944
62696W        W26420  32.566   9.342   4.202
62697W        W26421   9.279  21.661   0.272
62698W        W26422  30.060  20.083  10.989
62699W        W26423  30.542  39.432   3.376
62700W        W26424  29.168   4.237  13.830
62701W        W26425   8.272   3.930   2.228
62702W        W26426   0.761  18.686   4.313
62703W        W26427  42.480   0.836  11.105
62704W        W26428   6.259   1.326  11.910
62705W        W26429  17.144  17.605  10.643
62706W        W26430  25.569  28.661  11.491
62707W        W26431  19.100   1.351   4.779
62708W        W26432   0.334  35.522  13.450
62709W        W26433  12.292   9.750   2.709
62710W        W26434   4.331  42.819  13.496
62711W        W26435  32.613  12.800   2.387
62712W        W26436   3.948  17.078  14.464
62713W        W26437  23.068  12.702  14.505
62714W        W26438  39.885  31.070  13.520
62715W        W26439   0.478   8.709  10.633
62716W        W26440  27.067  21.168   4.140
62717W        W26441  31.043  27.989   4.687
62718W        W26442  35.359   9.181   1.350
62719W        W26443  44.323   3.279   4.770
62720W        W26444   0.879  29.011  12.358
62721W        W26445  20.677  34.406   0.733
62722W        W26446   8.398  35.063   3.806
62723W        W26447   4.885  30.946  13.998
62724W        W26448  28.944  43.942   0.835
62725W        W26449  18.113  35.510  11.902
62726W        W26450   5.881  18.055   4.823
62727W        W26451  34.609   7.899  14.840
62728W        W26452  23.023  24.620  10.410
62729W        W26453  24.506  18.118  12.505
62730W        W26454  14.095  14.719   0.322
62731W        W26455  15.137  44.988  14.951
62732W        W26456  42.820  19.623   3.304
62733W        W26457  27.100  14.115   4.161
62734W        W26458  25.565  23.143  11.441
62735W        W26459  29.058  41.374   4.238
62736W        W26460  31.976   0.792   4.641
62737W        W26461  41.455  10.856   2.193
62738W        W26462  34.450  15.619  12.347
62739W        W26463  28.181  33.418  12.938
62740W        W26464  21.646  36.847   4.348
62741W        W26465  35.394  17.281  13.002
62742W        W26466  15.298  16.741   4.812
62743W        W26467   8.346  28.454  13.317
62744W        W26468  17.154   1.410  13.524
62745W        W26469  37.360  17.171  13.370
62746W        W26470  18.610  23.157  12.522
62747W        W26471  28.585  19.232   2.796
62748W        W26472   0.411  25.081  13.961
62749W        W26473  29.476  26.101  11.066
62750W        W26474  20.246   7.353   9.961
62751W        W26475  33.987  28.159   4.171
62752W        W26476  20.221  26.016  12.490
62753W        W26477  32.500  17.173  14.311
62754W        W26478  16.648  11.356   0.922
62755W        W26479   8.228  44.843   4.222
62756W        W26480  42.924  11.146   1.413
62757W        W26481  21.091  32.918   2.193
62758W        W26482  14.297  39.005   4.130
62759W        W26483   5.304  41.381  11.112
62760W        W26484  34.494  37.962  13.048
62761W        W26485  29.005  11.175  11.381
62762W        W26486  25.688  29.634   2.746
62763W        W26487  28.440  38.883   0.286
62764W        W26488   3.896  10.142   1.236
62765W        W26489  29.166  21.191   1.850
62766W        W26490  10.672  34.585   3.174
62767W        W26491  37.865  29.967   2.685
62768W        W26492  25.146  35.381   0.855
62769W        W26493  11.731   6.378   1.734
62770W        W26494  34.105  36.573  10.437
62771W        W26495  32.123  35.943   4.671
62772W        W26496  32.515   1.451   0.460
62773W        W26497  14.205  19.136   1.745
62774W        W26498  30.531  17.251   0.400
62775W        W26499  12.725  36.523   0.745
62776W        W26500  24.593  16.098   3.209
62777W        W26501  13.147  23.719   1.368
62778W        W26502  41.969  25.196  10.992
62779W        W26503  24.978  41.516   3.276
62780W        W26504  20.754  31.590   1.317
62781W        W26505  32.457  24.675   2.669
62782W        W26506   6.747   4.290   3.819
62783W        W26507  29.449  30.578  11.399
62784W        W26508  39.342  16.156   3.768
62785W        W26509   1.473   4.371   2.216
62786W        W26510  20.701   2.921  11.498
62787W        W26511  43.327  24.116   1.345
62788W        W26512  41.404  33.484   0.808
62789W        W26513  26.594  40.466  14.874
62790W        W26514  10.279   7.245  11.445
62791W        W26515  21.637  33.602   2.200
62792W        W26516  14.263  17.244   3.184
62793W        W26517  30.929  28.515  12.846
62794W        W26518  26.179  39.323  14.807
62795W        W26519  34.584  22.088  13.903
62796W        W26520  24.030  39.323   1.844
62797W        W26521  40.035  12.741  12.372
62798W        W26522   3.258  34.867   1.802
62799W        W26523   3.297   1.877   1.782
62800W        W26524  26.608   0.825  13.468
62801W        W26525  16.132   0.860   2.287
62802W        W26526  30.478  38.450   1.439
62803W        W26527  41.034  37.367   0.458
62804W        W26528  30.068  33.119  12.436
62805W        W26529  30.484  44.431  13.435
62806W        W26530  10.181  36.025   1.861
62807W        W26531   8.718  29.118   2.680
62808W        W26532   6.898  31.466  13.888
62809W        W26533  24.515  26.187   2.293
62810W        W26534   5.790  36.457   0.749
62811W        W26535  27.664  30.534   3.870
62812W        W26536   7.810  36.997   2.348
62813W        W26537  24.075   9.174   2.246
62814W        W26538  44.462   9.793  13.862
62815W        W26539   9.149  14.230  13.873
62816W        W26540  11.326  18.131  10.510
62817W        W26541  20.662  24.180  14.416
62818W        W26542   1.918   9.246  13.922
62819W        W26543  13.155   3.387  11.445
62820W        W26544  43.457   8.660  14.440
62821W        W26545   9.313  37.521   4.797
62822W        W26546   5.255   3.895   3.632
62823W        W26547  24.667  41.533   0.861
62824W        W26548  21.519  27.102   1.221
62825W        W26549  20.198  30.478  11.494
62826W        W26550  42.383  17.605   2.692
62827W        W26551  39.357  35.953  14.968
62828W        W26552  13.696  19.182  10.912
62829W        W26553  26.121  12.621   0.282
62830W        W26554  14.652  32.101  14.434
62831W        W26555  37.010  38.945  12.544
62832W        W26556  22.198   3.359   4.318
62833W        W26557  27.548  27.459  11.068
62834W        W26558  28.132  43.833  11.036
62835W        W26559  25.610   7.902   9.998
62836W        W26560  34.908  15.264  12.380
62837W        W26561  20.568  13.157   0.881
62838W        W26562  28.488   2.768  14.416
62839W        W26563  30.633  15.656  14.484
62840W        W26564  39.010  28.175  10.056
62841W        W26565  31.087  26.161   4.764
62842W        W26566  19.761   2.950   3.739
62843W        W26567  11.772  36.532   2.310
62844W        W26568   1.808  28.095   1.442
62845W        W26569  27.033  19.113   3.286
62846W        W26570  43.426  44.877   3.287
62847W        W26571  15.274   4.434  13.051
62848W        W26572  33.010  26.658   0.955
62849W        W26573  27.080  20.584   1.211
62850W        W26574  13.270   2.426   3.641
62851W        W26575   7.905  43.955  13.942
62852W        W26576  18.238  32.398   1.289
62853W        W26577   6.801   7.837  10.420
62854W        W26578  22.672  26.181  12.020
62855W        W26579  27.182  42.444   2.760
62856W        W26580  30.991  27.068  14.966
62857W        W26581  24.676   4.258   1.304
62858W        W26582  33.427  30.128  11.487
62859W        W26583  15.307  25.981  13.394
62860W        W26584   8.289  23.035   0.266
62861W        W26585  33.535  33.954   2.184
62862W        W26586  31.462  31.597   2.884
62863W        W26587   9.785  28.972   0.769
62864W        W26588  12.656  34.491   4.276
62865W        W26589  25.171  25.612  13.372
62866W        W26590  20.694  26.011   4.808
62867W        W26591  22.063  28.493  11.999
62868W        W26592  14.638  31.049   1.332
62869W        W26593   2.935  40.903  14.826
62870W        W26594  34.594  13.615  13.371
62871W        W26595  28.660  38.010   4.293
62872W        W26596  39.029  20.247   0.353
62873W        W26597  11.297   6.263   2.331
62874W        W26598  43.514  28.598   1.698
62875W        W26599  12.819  44.951   3.220
62876W        W26600  26.069  15.247   0.434
62877W        W26601  26.974  37.381   0.421
62878W        W26602  37.043  26.145  13.385
62879W        W26603  18.126   4.274  14.481
62880W        W26604  13.312  35.565  12.013
62881W        W26605   4.731  40.957   4.113
62882W        W26606  43.865  36.430  11.032
62883W        W26607  26.590  29.049  14.970
62884W        W26608  22.509   3.417   9.933
62885W        W26609  10.332   4.290   3.252
62886W        W26610  15.282  10.831  12.896
62887W        W26611  29.176  20.212  11.048
62888W        W26612  15.117  19.707  14.818
62889W        W26613  34.375  18.582  11.403
62890W        W26614  38.872  17.780   3.693
62891W        W26615  26.477  27.109   0.803
62892W        W26616  31.598  33.455   4.661
62893W        W26617  10.844  23.041   0.429
62894W        W26618   9.662  14.763   0.909
62895W        W26619  19.052  32.472   1.291
62896W        W26620  33.485  10.177  12.861
62897W        W26621  20.665  31.084   2.689
62898W        W26622  37.013  32.542  14.900
62899W        W26623  13.802  21.244  13.909
62900W        W26624  22.657  15.229   2.754
62901W        W26625  24.620  42.349  14.995
62902W        W26626  15.755  35.401   1.366
62903W        W26627  30.976  33.944   3.289
62904W        W26628  10.364  36.515  11.467
62905W        W26629   7.202  38.407  13.934
62906W        W26630  43.833  32.428  14.903
62907W        W26631   4.301  10.675  10.103
62908W        W26632  39.526   0.356  10.968
62909W        W26633  34.091  43.894  13.905
62910W        W26634   8.755  30.044   1.368
62911W        W26635  23.024  31.431   0.244
62912W        W26636  17.660   7.309   1.924
62913W        W26637  24.012   5.404  12.080
62914W        W26638   5.701   8.890  13.851
62915W        W26639  32.908  18.611  10.949
62916W        W26640  11.128  29.960  13.407
62917W        W26641   8.328   4.371   4.721
62918W        W26642   0.961  41.382  14.969
62919W        W26643  17.183   0.319   2.400
62920W        W26644   7.238  41.429   3.248
62921W        W26645  19.660   0.987  13.043
62922W        W26646  39.948   6.906  11.561
62923W        W26647  13.182  39.549   0.843
62924W        W26648  35.875  26.069   1.912
62925W        W26649   9.802  44.960  11.423
62926W        W26650  33.455  31.615   1.299
62927W        W26651  41.870  21.074  14.810
62928W        W26652   5.211  28.625  13.853
62929W        W26653  17.248  34.502  12.388
62930W        W26654  25.044  14.122  14.761
62931W        W26655  30.136  32.522  13.363
62932W        W26656  14.330  44.853  12.549
62933W        W26657   6.249  16.082   2.741
62934W        W26658  22.072  38.379  13.953
62935W        W26659  26.175  14.662  10.943
62936W        W26660  13.821  29.665  11.104
62937W        W26661   1.270  20.157   1.213
62938W        W26662  34.924  44.894   4.168
62939W        W26663  30.990  26.620   2.774
62940W        W26664  25.212  31.013  10.969
62941W        W26665  44.418  42.492   3.171
62942W        W26666  29.636  30.993   1.242
62943W        W26667  37.424   3.895  14.335
62944W        W26668  18.592  23.508  12.825
62945W        W26669  14.594   2.934   4.307
62946W        W26670  13.752   2.370   5.696
62947W        W26671  38.539  25.218   0.895
62948W        W26672  42.476  41.966  12.561
62949W        W26673  31.558  25.595   4.301
62950W        W26674  25.675  24.130   0.401
62951W        W26675  19.072  23.212  10.997
62952W        W26676  10.143  13.842  11.556
62953W        W26677  36.021  15.134   3.841
62954W        W26678  40.354  28.014   2.889
62955W        W26679  25.001  19.251   4.215
62956W        W26680  17.191  32.555  11.866
62957W        W26681  41.875  22.146   3.766
62958W        W26682   0.269  32.464   1.383
62959W        W26683   6.895  44.427   2.306
62960W        W26684  24.697  26.969   9.565
62961W        W26685  13.766   0.440  12.501
62962W        W26686  37.951  38.436  11.972
62963W        W26687  10.840  16.313  12.873
62964W        W26688   7.233  31.645   2.258
62965W        W26689  12.320  20.657   3.213
62966W        W26690   3.254  36.026  10.945
62967W        W26691  19.248  38.823  14.877
62968W        W26692   0.351  35.973  13.400
62969W        W26693  34.534  12.746   0.885
62970W        W26694   3.256  25.993   4.293
62971W        W26695  40.319  44.338   9.577
62972W        W26696  18.190  33.441   0.419
62973W        W26697  23.040   6.696  13.027
62974W        W26698  32.040  35.358   1.789
62975W        W26699  19.249   7.791  10.407
62976W        W26700   1.780  25.051  12.992
62977W        W26701  15.611   9.708   4.255
62978W        W26702  14.740  12.196  14.499
62979W        W26703  29.475  44.774  11.565
62980W        W26704  23.711  16.759  11.017
62981W        W26705  40.500  37.965  12.026
62982W        W26706  23.670  23.630  12.052
62983W        W26707  39.861  19.108  13.506
62984W        W26708  11.754   5.901   2.402
62985W        W26709  43.284  10.636   3.687
62986W        W26710  20.189  34.468  10.520
62987W        W26711  30.122   9.795  12.346
62988W        W26712  18.161  16.197   0.318
62989W        W26713  34.900  36.348  10.935
62990W        W26714  30.004  10.197   9.956
62991W        W26715   3.430   1.836  11.042
62992W        W26716   8.166  17.206   4.728
62993W        W26717  32.541   5.695   0.804
62994W        W26718  34.069  11.698   0.312
62995W        W26719  16.214   6.196  12.023
62996W        W26720  44.926  12.228  13.394
62997W        W26721  40.889   1.736  13.484
62998W        W26722  23.635  25.629  11.898
62999W        W26723  12.233  19.089  10.463
63000W        W26724  41.320  33.531   4.257
63001W        W26725   0.413  25.582  13.938
63002W        W26726  37.033  33.557  12.871
63003W        W26727   0.928   5.828  13.851
63004W        W26728  40.992  13.196  14.451
63005W        W26729  18.124   3.228   5.111
63006W        W26730   4.392  39.055   4.182
63007W        W26731  24.102  35.920  10.106
63008W        W26732  31.031  44.764  12.473
63009W        W26733  41.879  25.017   2.343
63010W        W26734  13.116  38.828   0.408
63011W        W26735  36.937  19.197  13.347
63012W        W26736  13.674   2.310   4.679
63013W        W26737  18.230  18.259  12.569
63014W        W26738  38.399   8.289  13.022
63015W        W26739   7.847  41.292   4.137
63016W        W26740  25.507  15.644   0.883
63017W        W26741  38.336  12.682   1.748
63018W        W26742  19.615  14.819  12.043
63019W        W26743  34.415  44.994  11.467
63020W        W26744  28.586   2.414   1.262
63021W        W26745  34.458   2.396   0.828
63022W        W26746  28.031   6.881   3.217
63023W        W26747  29.490  41.913   1.223
63024W        W26748  40.375  16.230  12.523
63025W        W26749  10.177  43.404  11.947
63026W        W26750  14.615  13.260  11.475
63027W        W26751  12.204  19.278   4.607
63028W        W26752  32.012   8.223  11.960
63029W        W26753   5.258  14.761   1.746
63030W        W26754  39.993  33.981  12.553
63031W        W26755   0.309  13.343   1.257
63032W        W26756  29.066  36.010   2.191
63033W        W26757   3.403  44.982  12.824
63034W        W26758  21.224  12.360  14.302
63035W        W26759  27.156  31.544  14.495
63036W        W26760   8.796  11.166  12.557
63037W        W26761  17.716  32.062  11.986
63038W        W26762  17.179  12.199   4.793
63039W        W26763   9.261   3.426  12.860
63040W        W26764  32.584  10.710  12.357
63041W        W26765   5.230  24.649   2.417
63042W        W26766  43.879  21.107  11.927
63043W        W26767  14.678   4.367  12.359
63044W        W26768  17.157  11.754   5.107
63045W        W26769  23.068  38.481   3.669
63046W        W26770  35.404  36.067  12.840
63047W        W26771  32.455  41.436  11.914
63048W        W26772  22.119  12.147  11.455
63049W        W26773  42.844  19.274   4.817
63050W        W26774  37.470  35.081  11.931
63051W        W26775   2.316   9.215   0.874
63052W        W26776  12.251  29.135   0.423
63053W        W26777  35.482  18.167   2.763
63054W        W26778  40.964   1.947   3.250
63055W        W26779  22.043  10.679  11.992
63056W        W26780  11.296  17.785   4.691
63057W        W26781  36.856  40.324  14.508
63058W        W26782  29.495  24.111  12.861
63059W        W26783  39.434   6.730   1.813
63060W        W26784  16.805  12.243   0.951
63061W        W26785  24.611  44.410   3.827
63062W        W26786  12.321  34.591   2.278
63063W        W26787   7.736  40.440  13.852
63064W        W26788  36.065   6.752  12.952
63065W        W26789  41.425  28.658  11.861
63066W        W26790   2.872  27.578   2.217
63067W        W26791   2.804  19.535  11.027
63068W        W26792  32.049  36.062  13.811
63069W        W26793  32.500  16.635  12.580
63070W        W26794   0.887   6.755   3.187
63071W        W26795  40.812   2.910   3.651
63072W        W26796  27.483  29.129  11.613
63073W        W26797  39.404  26.489   4.310
63074W        W26798  20.739  35.052   2.282
63075W        W26799  26.126  33.470   3.790
63076W        W26800   1.965  24.182   0.820
63077W        W26801  34.425   9.814   4.237
63078W        W26802   6.729  27.960   2.394
63079W        W26803  33.022  14.215   0.826
63080W        W26804   0.962  36.403  12.421
63081W        W26805  35.458  13.343  10.916
63082W        W26806  29.572   2.948   0.921
63083W        W26807  43.943  19.779  10.927
63084W        W26808  44.867  38.073  10.941
63085W        W26809  25.180  41.995  11.566
63086W        W26810  15.191  30.629  11.927
63087W        W26811  13.621  42.479  12.005
63088W        W26812  44.309  36.436  11.398
63089W        W26813  42.327  40.360  14.443
63090W        W26814  29.167  17.692  11.896
63091W        W26815  32.599   6.830  10.410
63092W        W26816  10.258  11.358   3.267
63093W        W26817  34.993   6.312   1.272
63094W        W26818   3.734  14.762   1.843
63095W        W26819   9.313   1.862  11.012
63096W        W26820  43.515   4.748  11.930
63097W        W26821   3.714  18.590   3.772
63098W        W26822  21.160  32.094   4.129
63099W        W26823   2.724  31.508  13.367
63100W        W26824  10.770  40.348   3.771
63101W        W26825  44.485  37.902   4.668
63102W        W26826  24.128  19.091   3.315
63103W        W26827  40.548  43.925  13.409
63104W        W26828  15.177  24.538  10.578
63105W        W26829   3.889  34.072  10.964
63106W        W26830  29.154   7.373   1.444
63107W        W26831  14.665  27.982   3.714
63108W        W26832  42.828  10.645   2.716
63109W        W26833  29.169  23.551   3.235
63110W        W26834  15.659  12.153   4.632
63111W        W26835   2.870  10.677  10.920
63112W        W26836   6.893  16.619   1.376
63113W        W26837  28.558  28.080  13.804
63114W        W26838  26.701  22.529  11.436
63115W        W26839  38.015  41.812   4.305
63116W        W26840   5.400  27.987   2.902
63117W        W26841  31.423  12.829   0.916
63118W        W26842   6.847  30.066   4.127
63119W        W26843  42.487  16.603   3.801
63120W        W26844  32.992  17.300  12.461
63121W        W26845  32.520   5.230   2.403
63122W        W26846  36.565  34.023   0.326
63123W        W26847   5.337  42.004  11.128
63124W        W26848  13.749   8.374  10.560
63125W        W26849  12.814  39.893   4.677
63126W        W26850  15.176  30.016  14.881
63127W        W26851  16.730  26.121   3.662
63128W        W26852   4.858  30.625   2.734
63129W        W26853  38.417  41.870  11.551
63130W        W26854  33.939  17.222  10.406
63131W        W26855  11.714  10.321   0.781
63132W        W26856  16.659   7.845   2.204
63133W        W26857   0.449  43.459  11.468
63134W        W26858   5.863   2.418   0.323
63135W        W26859  41.453  44.437   2.742
63136W        W26860   1.392  29.940  12.954
63137W        W26861  19.271   9.755   3.281
63138W        W26862  25.076  15.322   2.768
63139W        W26863   8.880  35.055  11.534
63140W        W26864  44.785  17.302  10.483
63141W        W26865  25.590  28.448   0.409
63142W        W26866   6.703  29.133  14.809
63143W        W26867  15.177   8.807  11.023
63144W        W26868  35.936  27.973  14.011
63145W        W26869   9.335  39.014   4.200
63146W        W26870  43.812  19.265   1.746
63147W        W26871  42.982  44.894  13.326
63148W        W26872  19.146  37.999   3.233
63149W        W26873   7.880  39.972   4.615
63150W        W26874  16.122  11.844   0.881
63151W        W26875  27.457   9.645  11.570
63152W        W26876  37.348  40.888  11.066
63153W        W26877  26.969   6.199  10.608
63154W        W26878  26.508  26.473   0.376
63155W        W26879  43.387  42.303   2.392
63156W        W26880  29.103  18.736   2.734
63157W        W26881  14.653  23.990   0.341
63158W        W26882  16.805  43.816  10.490
63159W        W26883  36.484  40.427   4.632
63160W        W26884  12.636  15.313  11.596
63161W        W26885  28.641   4.283  12.046
63162W        W26886  26.591  44.899  13.484
63163W        W26887   6.726  31.965   4.803
63164W        W26888  33.976  32.936  10.893
63165W        W26889  11.684  23.177   4.651
63166W        W26890   1.330  31.099  10.616
63167W        W26891  42.861  25.038   2.378
63168W        W26892  20.029  22.632  12.026
63169W        W26893   2.467   6.852  13.537
63170W        W26894  44.951  34.428  11.988
63171W        W26895  31.112   4.229   3.316
63172W        W26896  40.316  26.082   3.203
63173W        W26897  21.556  33.520   4.802
63174W        W26898  10.834  20.682  13.978
63175W        W26899   6.374  39.475  12.882
63176W        W26900  27.037  20.189  11.428
63177W        W26901  35.867  33.103   0.777
63178W        W26902   2.785  32.427   1.906
63179W        W26903  15.703  16.593  14.356
63180W        W26904   0.410  30.936  14.912
63181W        W26905  25.518   5.223   0.288
63182W        W26906  40.949  40.487  12.988
63183W        W26907   9.753  17.669   0.949
63184W        W26908  28.938  14.199  10.577
63185W        W26909  34.503   6.789  13.862
63186W        W26910  17.293  17.153   3.763
63187W        W26911  11.860  35.070  10.622
63188W        W26912  28.176  31.462   1.385
63189W        W26913  27.066   4.777   0.782
63190W        W26914  36.476  37.340  10.637
63191W        W26915   4.914  11.328   3.322
63192W        W26916  43.851   9.331   1.446
63193W        W26917  28.033  10.245   3.847
63194W        W26918  23.043   1.416  10.474
63195W        W26919  16.634  36.395  13.061
63196W        W26920  39.502   3.311   3.712
63197W        W26921  14.654   5.819  14.905
63198W        W26922  22.012  23.215  13.321
63199W        W26923   9.749   4.435  11.064
63200W        W26924  33.962  21.674   0.295
63201W        W26925  38.872   9.755   2.824
63202W        W26926  25.978   3.280  12.076
63203W        W26927  31.590   9.184  14.389
63204W        W26928   4.213  33.098  12.088
63205W        W26929   2.414   4.349   2.322
63206W        W26930  30.045  10.816  11.931
63207W        W26931  27.970  15.802   3.732
63208W        W26932  29.536  19.586   0.929
63209W        W26933  41.514  37.346   1.721
63210W        W26934  16.160  26.205  10.570
63211W        W26935  13.840  43.339  12.829
63212W        W26936  27.559   5.234   1.449
63213W        W26937  39.440  14.286  13.910
63214W        W26938   8.361  17.175  13.058
63215W        W26939  40.862  11.311  13.803
63216W        W26940   7.869  39.482   3.839
63217W        W26941  28.935   5.439   0.266
63218W        W26942  35.042  16.297  12.534
63219W        W26943  16.581  32.520   3.756
63220W        W26944  25.529  26.178  14.990
63221W        W26945  25.575  34.087  11.391
63222W        W26946  44.442  14.632   4.809
63223W        W26947  35.454  11.221  11.470
63224W        W26948  42.902  41.489  14.795
63225W        W26949  23.625  10.322   4.125
63226W        W26950  42.852  21.076  13.948
63227W        W26951  35.958  31.007  11.948
63228W        W26952  36.537  27.120   1.237
63229W        W26953  31.926  30.999   2.261
63230W        W26954  21.253  15.754  13.534
63231W        W26955   8.268  41.405   1.222
63232W        W26956  23.183  18.128  14.308
63233W        W26957  22.209  18.287  11.102
63234W        W26958  13.729  23.705   1.917
63235W        W26959  15.822  32.502   1.800
63236W        W26960   2.444   7.372   1.248
63237W        W26961  37.949  21.689  13.012
63238W        W26962   7.712  41.414  11.512
63239W        W26963   7.745  30.097  10.514
63240W        W26964  38.868   1.401  13.845
63241W        W26965   0.488  44.916   1.815
63242W        W26966   7.670   2.839   4.313
63243W        W26967   8.288  17.076   3.199
63244W        W26968  43.410  28.110  10.504
63245W        W26969  23.631  26.472   3.729
63246W        W26970  26.641   8.856  13.797
63247W        W26971   8.166  31.053   3.299
63248W        W26972  21.094  17.270  14.004
63249W        W26973  39.331  31.442  10.508
63250W        W26974  35.394  23.026   2.319
63251W        W26975  25.548   5.920  10.939
63252W        W26976  15.268  19.741   1.917
63253W        W26977   4.901  15.107  14.350
63254W        W26978  27.002  28.074  10.916
63255W        W26979  28.067  31.010  14.365
63256W        W26980  18.113  31.442  10.526
63257W        W26981  40.497  25.128   4.684
63258W        W26982  31.610  15.140   4.347
63259W        W26983   3.771  34.880  10.967
63260W        W26984  36.371  34.467   3.824
63261W        W26985  43.945   1.432   2.367
63262W        W26986  29.920  14.708  11.112
63263W        W26987  16.701  19.176  12.830
63264W        W26988  32.136  19.233   2.180
63265W        W26989  40.426  22.721  11.516
63266W        W26990  30.909  21.152  12.851
63267W        W26991  15.819  26.686   2.240
63268W        W26992  37.967  27.141   1.294
63269W        W26993  14.206  37.435   3.674
63270W        W26994  13.298  28.645  14.026
63271W        W26995  18.145   9.175  13.394
63272W        W26996  23.233  38.432   1.444
63273W        W26997  35.083   0.798   4.186
63274W        W26998  44.349  12.345  11.894
63275W        W26999  40.814   8.669   0.783
63276W        W27000  28.654  16.582  13.456
63277W        W27001   5.735  42.881   4.301
63278W        W27002   2.335  29.451  11.936
63279W        W27003   6.422  39.026  10.578
63280W        W27004  30.109  37.900   4.152
63281W        W27005   5.908  35.953  13.059
63282W        W27006  14.653  27.463   2.682
63283W        W27007  12.800  22.157  14.353
63284W        W27008  32.042  11.642  14.928
63285W        W27009  25.599   1.867  12.856
63286W        W27010  30.617  44.446  10.413
63287W        W27011  27.109  22.688  12.869
63288W        W27012  11.753  22.244   2.831
63289W        W27013  28.990  18.559  13.367
63290W        W27014   6.894  17.270   4.228
63291W        W27015  15.761  36.041  13.532
63292W        W27016  34.063  31.551   2.818
63293W        W27017  31.645   7.861  14.884
63294W        W27018  20.182  41.471  13.976
63295W        W27019  37.494  34.567  10.014
63296W        W27020  32.532   1.274  12.867
63297W        W27021   4.848  12.753   1.345
63298W        W27022  31.468  14.770   0.822
63299W        W27023  33.474  31.903  10.143
63300W        W27024  36.364  25.552  14.779
63301W        W27025  24.549   5.304   0.321
63302W        W27026  12.754   6.350  11.937
63303W        W27027  34.956  32.047  12.475
63304W        W27028  43.515  11.266  12.901
63305W        W27029  20.173   6.680   2.283
63306W        W27030  40.326  23.648   3.351
63307W        W27031   3.275  17.125  14.482
63308W        W27032  33.530  25.044   2.842
63309W        W27033  30.981  31.604   4.274
63310W        W27034   2.432  15.178   2.795
63311W        W27035  37.021  30.078   3.712
63312W        W27036  27.682  16.311   3.384
63313W        W27037  20.208   6.759  12.931
63314W        W27038  42.351  38.426  14.440
63315W        W27039  16.646  24.155   1.276
63316W        W27040  11.278  17.289   2.365
63317W        W27041  11.232  16.643  13.337
63318W        W27042   3.404  19.273   0.839
63319W        W27043  28.971  38.962   0.864
63320W        W27044   6.880  23.520  13.481
63321W        W27045  38.981  36.930   3.727
63322W        W27046   2.421  25.090   5.263
63323W        W27047  22.581  30.543   2.388
63324W        W27048  42.304  15.590  12.090
63325W        W27049  42.476  10.257   1.356
63326W        W27050  12.766  33.883   2.347
63327W        W27051  16.132  13.701  11.467
63328W        W27052  24.543  10.270  12.493
63329W        W27053   2.296  32.552  13.395
63330W        W27054   1.861  10.729  13.375
63331W        W27055  21.548  10.351  12.059
63332W        W27056  26.512  16.581   4.769
63333W        W27057   8.807   2.227  13.888
63334W        W27058  23.643   2.413  10.986
63335W        W27059  14.763  29.114  11.042
63336W        W27060  29.154   0.452   1.444
63337W        W27061  22.047  36.399   3.262
63338W        W27062  17.611  22.136   2.384
63339W        W27063  21.063   7.260  12.090
63340W        W27064   4.290  14.276   4.807
63341W        W27065  39.395  35.431  14.501
63342W        W27066  33.908  24.186   0.860
63343W        W27067  22.709  43.975   3.341
63344W        W27068   2.922  30.544  13.844
63345W        W27069  14.718  36.499   3.802
63346W        W27070  22.739  39.385  14.939
63347W        W27071  40.960  35.978  11.570
63348W        W27072  23.510  27.622   4.206
63349W        W27073   5.820   6.838   3.202
63350W        W27074  21.608  37.376   1.295
63351W        W27075   0.494  40.478   2.288
63352W        W27076  13.170  40.472   4.752
63353W        W27077  15.722  29.486   3.775
63354W        W27078  16.267  32.437   2.251
63355W        W27079  39.353  39.952   2.198
63356W        W27080  42.521   8.354  10.959
63357W        W27081  33.035  16.318  11.859
63358W        W27082  26.206   3.325  12.896
63359W        W27083  37.075   3.430  14.487
63360W        W27084  40.830  34.891  13.452
63361W        W27085  13.779  15.772  14.320
63362W        W27086  13.620   5.208   3.689
63363W        W27087   8.682  40.312   4.294
63364W        W27088   9.293  38.973   0.742
63365W        W27089   7.413   9.290   2.897
63366W        W27090  28.162  36.388   3.711
63367W        W27091  39.392  21.737  11.935
63368W        W27092  11.144   9.287  13.373
63369W        W27093  34.933  40.941   2.855
63370W        W27094  28.170  26.619   5.293
63371W        W27095  35.093   6.211  14.918
63372W        W27096  18.669  25.100   3.819
63373W        W27097  15.810  11.780  11.581
63374W        W27098  14.774  32.521   4.250
63375W        W27099  29.027  33.575   1.313
63376W        W27100  35.031  37.997  13.922
63377W        W27101  43.438  17.128   3.853
63378W        W27102  13.746  29.424   1.881
63379W        W27103  23.641  26.135  10.935
63380W        W27104   4.724  31.054  11.933
63381W        W27105  19.039  39.949   1.762
63382W        W27106  36.592   3.269   1.876
63383W        W27107  10.334  26.558   3.773
63384W        W27108  40.920   8.814   4.206
63385W        W27109  39.915   8.217  11.968
63386W        W27110  29.062  11.698   4.261
63387W        W27111  43.917   5.846   2.884
63388W        W27112  27.659  19.600   2.272
63389W        W27113   6.331   0.263  11.480
63390W        W27114  26.692  44.828  10.457
63391W        W27115  40.427  16.693   2.180
63392W        W27116  33.052  43.777   4.191
63393W        W27117   4.282   4.368  12.571
63394W        W27118  27.963  26.563  14.357
63395W        W27119  36.028  37.521   1.890
63396W        W27120  17.657  32.448   2.667
63397W        W27121  18.159  41.922   2.829
63398W        W27122  20.077  23.100   1.911
63399W        W27123  17.278  19.641   2.823
63400W        W27124   5.921  28.997   1.210
63401W        W27125   4.881  14.735   3.737
63402W        W27126   1.888  16.646  10.445
63403W        W27127  43.898  22.025   0.408
63404W        W27128  13.633   0.856  11.869
63405W        W27129  23.213   1.786  14.332
63406W        W27130   8.235  27.676   4.174
63407W        W27131  41.500  38.540  11.055
63408W        W27132  30.091   5.388  12.518
63409W        W27133  23.728  36.091  14.381
63410W        W27134  24.543  22.684  11.857
63411W        W27135  17.153  13.767   4.321
63412W        W27136  31.480   1.825  11.390
63413W        W27137  43.905  34.387  11.374
63414W        W27138   0.458   2.340  11.565
63415W        W27139   3.906   3.767   4.330
63416W        W27140  44.308  22.017  14.939
63417W        W27141  23.514  37.414   3.801
63418W        W27142   4.280  37.541   5.114
63419W        W27143   6.375  44.980  12.355
63420W        W27144  31.476  29.523  10.601
63421W        W27145   4.387  16.197   2.664
63422W        W27146  38.056  25.145  12.904
63423W        W27147   0.272  27.571   0.742
63424W        W27148  12.256  17.730   3.290
63425W        W27149   4.315   1.922  13.428
63426W        W27150  39.537   9.304   2.293
63427W        W27151  41.931  37.087   1.888
63428W        W27152  28.073   7.888  13.507
63429W        W27153  29.131  36.874   4.242
63430W        W27154  25.661  31.069  14.315
63431W        W27155  26.187  11.211   0.891
63432W        W27156   4.862  27.181   0.245
63433W        W27157  41.887  41.016  14.765
63434W        W27158   0.913  44.991  14.387
63435W        W27159  32.897   7.231  10.525
63436W        W27160  22.641  20.168  14.344
63437W        W27161  22.051  27.580   4.269
63438W        W27162  32.976  42.980   0.347
63439W        W27163  11.848   4.233  12.529
63440W        W27164   9.801   6.725   0.311
63441W        W27165  24.719  32.924   3.237
63442W        W27166  39.941   1.469  11.071
63443W        W27167  42.439   8.723   0.288
63444W        W27168  42.330   9.702  14.953
63445W        W27169  42.009  42.970  13.425
63446W        W27170  39.376  37.878   4.125
63447W        W27171  24.042   5.883  12.050
63448W        W27172  10.864  30.918  10.427
63449W        W27173   7.400  40.385   4.808
63450W        W27174  39.465   0.458  13.819
63451W        W27175   4.788  18.260  11.547
63452W        W27176  37.396  16.192   0.858
63453W        W27177  30.527   3.331   3.355
63454W        W27178  24.974  25.626  12.429
63455W        W27179  43.329  13.755  12.483
63456W        W27180  28.484  32.109   4.721
63457W        W27181   8.231  14.752  10.550
63458W        W27182  39.482  18.292  14.956
63459W        W27183  23.055  31.071  11.060
63460W        W27184  20.540   1.407  11.907
63461W        W27185  14.676  17.590   0.844
63462W        W27186  11.174  35.407   1.296
63463W        W27187  38.997  40.977   0.251
63464W        W27188  12.262  20.629  10.553
63465W        W27189  44.395  13.105   4.242
63466W        W27190  29.037  36.913  14.509
63467W        W27191   3.414   0.742   2.215
63468W        W27192  25.202  30.451   0.829
63469W        W27193  13.794   6.253  11.911
63470W        W27194   9.320  16.127   0.827
63471W        W27195   3.442  18.738  11.558
63472W        W27196  24.079  41.973   3.637
63473W        W27197  41.975  29.972  13.383
63474W        W27198  22.554  37.558  10.457
63475W        W27199  41.400   4.245   4.174
63476W        W27200  32.985  40.022   3.215
63477W        W27201  11.678  16.745  13.943
63478W        W27202  12.158  40.026   0.451
63479W        W27203   8.283  25.703   3.845
63480W        W27204   6.311  18.651  11.093
63481W        W27205  26.671   0.822   4.710
63482W        W27206  37.468  12.684   1.715
63483W        W27207  20.118   3.362  12.929
63484W        W27208   8.301  19.129  14.343
63485W        W27209  27.466   3.251   2.302
63486W        W27210  16.283  20.644  13.516
63487W        W27211  28.603  34.009  13.061
63488W        W27212  40.834  17.773   0.951
63489W        W27213  30.592   0.963  13.520
63490W        W27214  34.887  34.993  12.004
63491W        W27215  29.037  38.886   1.279
63492W        W27216  17.281   5.249  14.890
63493W        W27217  29.461  24.665   4.764
63494W        W27218  16.115  38.483   3.200
63495W        W27219   9.325   0.312   4.696
63496W        W27220  21.262  15.316  14.394
63497W        W27221  27.477  42.954   4.701
63498W        W27222  30.469  36.583   0.393
63499W        W27223  36.063  14.196   2.341
63500W        W27224  36.069   7.305  14.948
63501W        W27225   9.661  22.563  14.462
63502W        W27226  38.069  39.816   2.248
63503W        W27227   3.275  41.891  10.910
63504W        W27228   7.854   3.879   3.806
63505W        W27229  33.077  18.186  14.385
63506W        W27230  32.005  16.292   1.774
63507W        W27231  40.915  20.756  11.983
63508W        W27232  32.965  36.480  10.448
63509W        W27233  21.132  36.459   3.679
63510W        W27234  31.635   6.227  10.462
63511W        W27235  40.854  29.501  11.119
63512W        W27236  39.502  35.061   4.705
63513W        W27237  21.035  31.994  12.401
63514W        W27238  39.453  41.322  14.813
63515W        W27239  27.486   1.382  10.533
63516W        W27240   6.183  15.785  10.468
63517W        W27241   2.749  39.534   0.339
63518W        W27242  21.547  12.136  13.521
63519W        W27243  36.842   5.428  13.476
63520W        W27244   0.254  12.347  11.973
63521W        W27245  39.836   1.851   2.263
63522W        W27246  12.644  17.753   4.626
63523W        W27247  25.977  27.117  13.329
63524W        W27248  29.445  34.086   4.168
63525W        W27249  27.177  24.200  14.423
63526W        W27250   4.841  39.419   3.724
63527W        W27251  16.718  22.151   0.785
63528W        W27252  38.836  40.408   3.377
63529W        W27253  10.332   1.831  11.038
63530W        W27254  14.762   3.454   4.152
63531W        W27255  15.820  36.506   3.303
63532W        W27256  11.684  31.143   0.362
63533W        W27257  15.776  39.327  10.954
63534W        W27258   4.716  17.112  12.997
63535W        W27259  14.753  14.790  11.986
63536W        W27260  18.767  31.071  12.395
63537W        W27261  31.481  17.067   4.142
63538W        W27262   8.673  42.462   3.719
63539W        W27263  37.537  38.510  12.985
63540W        W27264  41.403  20.694   2.793
63541W        W27265  12.654  24.080   3.195
63542W        W27266  14.252  19.113  12.426
63543W        W27267  44.994  20.634  10.575
63544W        W27268   0.471  41.393   2.219
63545W        W27269  25.666  36.531  13.030
63546W        W27270  10.332  42.864  15.000
63547W        W27271  17.166  44.989  12.871
63548W        W27272  26.629  19.779   3.155
63549W        W27273  19.069  26.496  10.416
63550W        W27274  21.539  12.723  12.939
63551W        W27275  35.422  34.473   1.813
63552W        W27276  17.260  10.845  14.514
63553W        W27277  25.548  38.414   3.240
63554W        W27278  35.874  22.593   0.361
63555W        W27279  21.624  30.553   1.318
63556W        W27280  38.061  20.067  14.508
63557W        W27281   3.900   3.437   0.817
63558W        W27282  28.482   3.941  13.037
63559W        W27283  13.702  12.281   0.863
63560W        W27284  30.981  21.731  13.358
63561W        W27285  19.086  17.065  12.070
63562W        W27286  14.817  30.913  12.408
63563W        W27287  16.095  34.585   3.856
63564W        W27288  20.706  30.014   0.305
63565W        W27289  35.943  14.233   2.890
63566W        W27290   0.469  22.142  13.468
63567W        W27291  44.464  17.254   2.709
63568W        W27292   3.751   5.426  14.353
63569W        W27293  10.802  13.816   2.899
63570W        W27294  39.426  16.730   2.753
63571W        W27295  12.181   0.756   0.775
63572W        W27296  14.328  30.551  10.536
63573W        W27297  10.374  24.040  12.965
63574W        W27298  19.160  35.532  12.901
63575W        W27299  15.771  26.593   4.698
63576W        W27300   8.358  13.146  11.407
63577W        W27301  15.803  27.474   3.381
63578W        W27302  32.613   1.321  13.352
63579W        W27303  14.279  10.197  10.456
63580W        W27304  26.171   2.388   4.807
63581W        W27305   4.443   4.219   1.870
63582W        W27306  27.193  22.635   4.605
63583W        W27307  43.854  44.811  11.464
63584W        W27308   8.213  32.089   4.259
63585W        W27309  39.508   1.238  11.107
63586W        W27310  20.587  41.950   4.204
63587W        W27311  25.528   1.254  14.443
63588W        W27312  23.634  25.688   4.799
63589W        W27313  19.134   6.829   2.887
63590W        W27314  28.470  37.871  12.067
63591W        W27315  11.765   8.763  11.885
63592W        W27316   6.384  25.166   2.385
63593W        W27317  18.155  24.643   0.856
63594W        W27318  38.872  24.227  13.824
63595W        W27319  31.476   6.256   4.779
63596W        W27320  38.369  20.074   2.848
63597W        W27321  44.487  43.274  14.853
63598W        W27322  27.983  28.069   1.790
63599W        W27323  31.961  32.968  10.988
63600W        W27324  10.177  22.172  14.430
63601W        W27325  13.780  10.814  11.950
63602W        W27326  26.006  35.576  14.809
63603W        W27327  39.348  39.024   3.293
63604W        W27328   0.477  34.071  12.884
63605W        W27329  21.210  42.513   0.782
63606W        W27330  28.930  14.173   3.334
63607W        W27331  37.902  13.283  13.453
63608W        W27332  24.608   8.186  11.049
63609W        W27333   4.362  28.167   4.249
63610W        W27334  44.991  38.475  10.936
63611W        W27335  33.473   3.776   0.248
63612W        W27336  14.821  19.074   3.751
63613W        W27337  22.609  39.836  13.334
63614W        W27338  28.982  34.482   3.779
63615W        W27339  31.015  21.093  11.888
63616W        W27340  13.644  27.634   0.303
63617W        W27341  13.743  44.861  12.879
63618W        W27342  19.674  17.261  11.895
63619W        W27343  15.708   2.348  14.763
63620W        W27344  12.732  16.656  14.978
63621W        W27345  43.457  31.623   4.161
63622W        W27346  30.003  16.204   4.166
63623W        W27347   4.230   0.794   1.216
63624W        W27348  16.643  23.088  11.056
63625W        W27349  33.070   6.704   1.920
63626W        W27350  36.907  25.686   2.688
63627W        W27351   1.250  15.298   4.212
63628W        W27352  35.084  24.601  14.924
63629W        W27353   0.490  23.648   1.743
63630W        W27354  21.033   6.808   1.772
63631W        W27355  22.717  29.960   4.603
63632W        W27356   9.245  34.574   0.278
63633W        W27357  44.347  12.736   0.755
63634W        W27358  25.178   3.310  11.384
63635W        W27359  11.766  21.217  10.514
63636W        W27360  24.081  30.446   3.203
63637W        W27361  36.364  17.649  12.553
63638W        W27362  11.742  27.142   4.803
63639W        W27363  44.935  39.392  13.821
63640W        W27364  37.848  26.484  11.087
63641W        W27365  23.199  44.990  11.392
63642W        W27366  21.197  42.787  11.958
63643W        W27367  23.136  11.349  13.928
63644W        W27368  38.395   7.763   2.250
63645W        W27369  17.630  10.355   4.637
63646W        W27370  38.562  12.732  13.022
63647W        W27371  23.074  36.032  14.514
63648W        W27372  32.894  22.639   3.203
63649W        W27373  12.135  18.709   2.725
63650W        W27374  40.962  14.644  14.787
63651W        W27375  21.745   7.738  10.426
63652W        W27376  33.552   0.425   4.616
63653W        W27377  21.535  33.476   3.260
63654W        W27378  31.083  10.256  10.959
63655W        W27379  40.335  40.969  14.426
63656W        W27380  37.031  37.439  13.819
63657W        W27381   1.255   0.277   2.225
63658W        W27382  29.923   1.258  10.891
63659W        W27383   0.891  11.295   3.648
63660W        W27384   4.397  43.450   0.465
63661W        W27385  34.939  32.500  12.902
63662W        W27386  21.636   0.427   1.268
63663W        W27387  18.192  31.023   2.297
63664W        W27388  43.306   4.844   2.669
63665W        W27389  24.645  33.514   4.764
63666W        W27390  41.369  44.816   2.687
63667W        W27391   7.358  16.210   1.421
63668W        W27392  17.269  25.646   0.275
63669W        W27393  40.984  13.693   2.716
63670W        W27394  26.104   6.239  11.609
63671W        W27395  28.529   5.894  14.830
63672W        W27396  18.093  24.602   2.332
63673W        W27397   9.736  38.833  10.606
63674W        W27398   1.372  20.527   2.309
63675W        W27399   6.359   4.379  14.505
63676W        W27400  17.155  13.654  11.419
63677W        W27401  19.168  43.429  12.831
63678W        W27402  43.306  25.563   0.478
63679W        W27403  37.368  33.998   0.882
63680W        W27404  22.209  28.162  12.344
63681W        W27405  41.435  17.613   2.250
63682W        W27406  42.797  36.491   1.353
63683W        W27407  40.973  42.874  14.346
63684W        W27408  42.775  42.800  10.009
63685W        W27409  18.203   1.784   1.881
63686W        W27410  42.310  43.843  13.498
63687W        W27411  23.694  20.724   0.335
63688W        W27412   4.822  21.236   0.251
63689W        W27413  32.051  14.684  11.491
63690W        W27414  32.959  32.636   0.799
63691W        W27415   4.249  44.883  11.424
63692W        W27416  27.646  25.061   2.287
63693W        W27417  26.520  30.462   0.856
63694W        W27418  29.016  17.771  14.948
63695W        W27419  30.435   0.364  10.526
63696W        W27420  21.642  19.533   1.412
63697W        W27421  26.592  27.472   0.383
63698W        W27422  41.796  25.530   3.365
63699W        W27423  20.673   3.718  12.341
63700W        W27424  38.842   4.705   3.221
63701W        W27425   9.267  18.290   1.735
63702W        W27426  36.940  25.059   2.806
63703W        W27427   2.355  26.559   4.300
63704W        W27428  39.040  11.139   1.311
63705W        W27429   9.876  40.305   4.232
63706W        W27430  19.271   0.942   3.756
63707W        W27431  15.817  34.497  11.066
63708W        W27432  34.069  19.054  11.028
63709W        W27433  20.080  43.387   2.881
63710W        W27434  24.007  36.411   2.820
63711W        W27435  44.367  31.478   4.176
63712W        W27436  17.724  24.626  11.866
63713W        W27437   5.843  22.591   0.272
63714W        W27438  39.427  36.858  10.985
63715W        W27439   0.365  18.760  12.024
63716W        W27440  15.709  14.329  11.921
63717W        W27441  30.972  14.614  10.503
63718W        W27442  11.355   6.288  11.421
63719W        W27443   5.244  27.040  12.497
63720W        W27444  42.969  42.489   3.706
63721W        W27445  23.196  16.765   4.618
63722W        W27446  29.530   1.800   3.347
63723W        W27447  32.460  39.437   3.259
63724W        W27448  15.641  10.229  11.072
63725W        W27449  24.534   7.816   1.855
63726W        W27450  32.391  42.990   2.775
63727W        W27451  34.074   4.818   4.603
63728W        W27452  23.616   7.253  13.792
63729W        W27453  24.002  30.480  10.897
63730W        W27454  15.703  42.421  14.277
63731W        W27455   5.919  13.638  14.920
63732W        W27456   0.983  14.275   4.819
63733W        W27457   0.753  36.543   2.669
63734W        W27458  35.421  17.720  13.323
63735W        W27459  42.477  26.672   2.347
63736W        W27460  37.871  25.501   2.667
63737W        W27461  17.230   8.298  14.360
63738W        W27462  21.087  10.690   1.432
63739W        W27463  17.636   8.710   4.656
63740W        W27464  35.941  25.530   2.336
63741W        W27465  34.039   6.777  12.353
63742W        W27466  26.530  14.656  12.034
63743W        W27467   4.762  27.085  14.322
63744W        W27468  26.506  33.079  11.952
63745W        W27469  11.268  40.541   3.313
63746W        W27470  42.361   5.835   4.620
63747W        W27471  42.520  14.691  10.989
63748W        W27472  42.973   8.228  10.477
63749W        W27473  25.698  17.609  14.894
63750W        W27474  27.975   0.848  13.462
63751W        W27475  22.225  20.695   4.153
63752W        W27476  37.402  23.001   4.142
63753W        W27477   0.964  39.880  11.452
63754W        W27478  14.799  40.989  14.973
63755W        W27479  17.594  15.313   2.339
63756W        W27480  29.535  31.972  12.396
63757W        W27481  43.771  13.127  14.373
63758W        W27482  14.175  10.864   1.781
63759W        W27483  28.005   1.776  12.002
63760W        W27484  40.922  12.150  11.539
63761W        W27485  29.924  31.484   3.255
63762W        W27486   4.851  40.812  13.506
63763W        W27487   2.229   2.330   4.171
63764W        W27488  20.665  43.408   4.155
63765W        W27489  42.847   6.912  12.069
63766W        W27490  29.423   4.789  10.159
63767W        W27491  12.714  12.667  14.330
63768W        W27492  42.904  29.481  13.040
63769W        W27493  17.724   7.265  12.879
63770W        W27494  15.133  13.609   1.254
63771W        W27495  20.038  41.805  14.335
63772W        W27496  17.132  27.687  14.364
63773W        W27497  40.461  33.411   3.794
63774W        W27498  14.698   1.972  12.039
63775W        W27499   4.747   2.947  12.857
63776W        W27500  16.163  27.456  11.008
63777W        W27501  39.986  18.693  10.960
63778W        W27502   5.692  26.590  11.991
63779W        W27503  23.191   8.277  12.482
63780W        W27504   4.314   5.356   1.778
63781W        W27505  17.172  42.285  13.982
63782W        W27506  13.155   6.196   0.877
63783W        W27507  25.981  18.677   0.826
63784W        W27508  28.085   6.214   3.148
63785W        W27509  10.192  22.645   1.796
63786W        W27510   6.200  15.590  12.064
63787W        W27511  29.980  32.051   1.873
63788W        W27512   6.917   3.372  13.372
63789W        W27513  34.486   7.403   0.789
63790W        W27514  30.573   1.306  13.841
63791W        W27515  21.701  18.055  14.345
63792W        W27516  15.316  19.089  10.439
63793W        W27517  32.137  44.389  13.021
63794W        W27518   3.219  20.751   2.885
63795W        W27519  19.089  37.851  11.594
63796W        W27520  24.015  13.665  13.795
63797W        W27521  43.852   5.748  10.499
63798W        W27522   7.312  26.695  14.830
63799W        W27523  28.028  39.019   4.728
63800W        W27524  40.485  44.962  14.328
63801W        W27525  32.039  22.156  13.954
63802W        W27526  37.476  23.118  11.611
63803W        W27527  23.091  12.628  11.974
63804W        W27528  31.637   1.381   1.715
63805W        W27529   9.244   9.284  12.378
63806W        W27530  27.082  31.095   0.851
63807W        W27531  44.490  21.106   5.128
63808W        W27532  17.637  21.590  11.601
63809W        W27533   8.812  34.508   4.657
63810W        W27534  22.513  36.511   1.763
63811W        W27535   4.731   4.908  14.922
63812W        W27536   1.394  17.283  14.795
63813W        W27537  38.876   7.895   4.639
63814W        W27538   6.734   4.371   4.125
63815W        W27539  43.290  16.127   3.183
63816W        W27540  37.982  12.845  11.594
63817W        W27541   7.802  33.468  11.587
63818W        W27542  44.406   3.217  12.089
63819W        W27543  26.159  30.599   2.341
63820W        W27544  22.164  14.628   2.686
63821W        W27545  11.305   2.745  10.579
63822W        W27546  13.194  27.118   1.734
63823W        W27547   1.864  13.805   1.308
63824W        W27548  15.608  27.494   1.250
63825W        W27549   9.324  39.045   3.837
63826W        W27550   8.836  14.105  12.410
63827W        W27551  21.257  11.235  14.031
63828W        W27552  18.705  40.393  12.911
63829W        W27553  41.859  15.765   3.368
63830W        W27554  26.472   8.892  11.102
63831W        W27555  31.944  28.568  14.346
63832W        W27556  44.365  33.925   2.819
63833W        W27557   4.213  34.885  13.792
63834W        W27558  39.511  10.875   1.436
63835W        W27559   0.931  10.644   1.866
63836W        W27560   7.187  44.328  14.285
63837W        W27561   1.479  26.053   0.936
63838W        W27562  29.957  16.767  10.420
63839W        W27563   2.747   8.339  12.514
63840W        W27564   3.292   7.184  14.313
63841W        W27565  16.784  28.129  10.547
63842W        W27566  39.838  25.492   0.869
63843W        W27567  19.685  30.501  12.340
63844W        W27568  31.456  36.879  11.941
63845W        W27569  37.929  36.419  14.317
63846W        W27570  14.321   3.921   0.298
63847W        W27571   8.312   1.264   3.285
63848W        W27572  14.328  29.127   4.639
63849W        W27573  12.633  35.937   2.760
63850W        W27574   2.875  38.478   2.277
63851W        W27575  21.251   6.881  13.874
63852W        W27576  27.492  20.127  10.550
63853W        W27577  16.142  17.587   0.275
63854W        W27578  36.030  37.407   2.178
63855W        W27579  36.492  32.393   3.730
63856W        W27580  23.199  36.545  10.461
63857W        W27581  23.985  13.742  12.343
63858W        W27582  11.832  12.322   1.772
63859W        W27583  40.447  19.598  10.026
63860W        W27584  21.133  13.800   2.812
63861W        W27585  13.693   7.904   1.419
63862W        W27586  15.277  37.488  10.934
63863W        W27587  44.441   7.386   1.779
63864W        W27588   9.248  38.550  13.854
63865W        W27589   7.349   9.306  11.061
63866W        W27590  24.599  41.305  13.822
63867W        W27591  44.008  28.990   0.747
63868W        W27592  19.170  30.621   3.287
63869W        W27593  41.995  23.593  13.406
63870W        W27594  13.210  23.559  14.965
63871W        W27595  13.110  29.504   3.194
63872W        W27596  23.715  28.473   4.200
63873W        W27597  15.151  14.330   0.273
63874W        W27598  43.000  41.042  11.125
63875W        W27599  33.477  12.742  10.915
63876W        W27600  12.311  14.618   2.894
63877W        W27601  18.286   6.880  14.960
63878W        W27602  36.552  21.209  14.371
63879W        W27603   7.187  34.369  11.483
63880W        W27604  17.750  29.637  11.915
63881W        W27605   5.780   3.395   2.388
63882W        W27606  44.782  28.092   2.774
63883W        W27607   3.817   8.793   2.860
63884W        W27608  36.555  18.754   1.842
63885W        W27609  34.545  43.941  13.819
63886W        W27610  28.583  15.682   0.760
63887W        W27611  32.915  44.819  11.101
63888W        W27612  15.809  25.661   4.329
63889W        W27613  30.062  35.950  12.900
63890W        W27614  15.804  32.499  14.382
63891W        W27615  32.920  38.892   1.215
63892W        W27616  10.677  34.554  13.818
63893W        W27617  11.860  28.981   0.920
63894W        W27618  21.638  42.890   3.193
63895W        W27619  15.170  21.242   3.844
63896W        W27620   4.270  33.099   0.309
63897W        W27621   1.914  10.768  10.493
63898W        W27622  26.107   5.885   0.264
63899W        W27623  23.210  30.142   3.314
63900W        W27624  13.643  17.577   3.803
63901W        W27625  30.509  41.924   1.352
63902W        W27626  15.166  14.800   3.740
63903W        W27627  29.927  19.224   0.314
63904W        W27628  17.778  43.995  11.063
63905W        W27629  40.949  33.886   3.848
63906W        W27630  32.065  43.470   3.251
63907W        W27631  13.756  30.447   1.855
63908W        W27632  18.194  16.606   3.272
63909W        W27633  31.976  27.043   1.889
63910W        W27634   0.756   8.799  14.838
63911W        W27635  20.132  12.255   4.168
63912W        W27636  27.942   9.332  14.441
63913W        W27637  23.047  23.555   1.900
63914W        W27638  22.710  17.198   0.383
63915W        W27639  11.635  26.090  13.371
63916W        W27640  29.600  31.510  14.953
63917W        W27641  41.904  32.903  10.586
63918W        W27642   0.393  34.375  13.037
63919W        W27643  10.676   4.424   4.206
63920W        W27644   2.774  32.105   2.336
63921W        W27645  35.386   4.307  11.911
63922W        W27646  31.579  17.214  12.954
63923W        W27647  24.009   4.784  10.537
63924W        W27648  15.221   5.357  13.505
63925W        W27649  41.376   0.332   2.305
63926W        W27650  23.512  28.933   3.334
63927W        W27651  19.768  10.336  11.544
63928W        W27652  42.294  11.787  12.544
63929W        W27653  24.606   7.229   1.356
63930W        W27654   7.295  43.304  10.597
63931W        W27655  28.947  16.130   2.698
63932W        W27656  43.944   2.345  12.391
63933W        W27657   9.697  41.881  11.520
63934W        W27658   7.720  24.479  14.780
63935W        W27659   4.734  16.795   2.403
63936W        W27660  22.650   3.908   1.731
63937W        W27661  31.117   6.292   2.685
63938W        W27662  34.936  26.616   4.135
63939W        W27663  38.356  31.987   1.305
63940W        W27664   4.854  23.582   4.256
63941W        W27665   8.899  20.042   2.738
63942W        W27666  35.369   5.746   1.922
63943W        W27667  35.394  36.562   4.170
63944W        W27668  15.227  27.596  11.907
63945W        W27669  18.580   7.699  14.391
63946W        W27670   5.376  28.593   1.331
63947W        W27671   9.671   4.830   4.769
63948W        W27672  27.156  14.639   2.226
63949W        W27673  28.531  33.014  10.974
63950W        W27674   1.456  16.083   4.829
63951W        W27675  14.257   9.179  13.919
63952W        W27676  13.716  13.338   3.634
63953W        W27677   6.312  17.137   9.922
63954W        W27678  41.306  33.956  12.903
63955W        W27679  27.081  31.629   0.312
63956W        W27680   3.790  15.145  12.069
63957W        W27681   8.201  39.487  13.481
63958W        W27682   6.689  35.010   4.609
63959W        W27683  38.941  14.812   0.726
63960W        W27684  27.162  17.147  11.396
63961W        W27685  22.228  29.090  10.588
63962W        W27686   9.829  11.197  10.615
63963W        W27687  16.168  30.975  13.058
63964W        W27688  42.875  44.996   3.315
63965W        W27689  16.708  11.165   4.185
63966W        W27690  16.813  17.114   1.702
63967W        W27691  11.717  30.064   1.882
63968W        W27692   1.776  17.281  14.787
63969W        W27693  34.948  32.930   0.366
63970W        W27694   5.331  31.969   3.785
63971W        W27695  33.893  25.603  14.797
63972W        W27696  34.008  31.921   2.781
63973W        W27697   8.260  29.437  11.960
63974W        W27698   2.917  24.504  10.998
63975W        W27699  19.533  13.742  10.436
63976W        W27700  28.945  35.884   4.724
63977W        W27701  34.545  30.631   3.222
63978W        W27702  24.603  34.956  13.986
63979W        W27703  27.945   2.836   2.875
63980W        W27704  34.392  31.906   1.321
63981W        W27705  30.458   4.448  10.467
63982W        W27706  41.311  43.372  10.510
63983W        W27707  15.273   9.343  13.519
63984W        W27708   6.686  24.667  10.459
63985W        W27709   2.249   6.775  11.923
63986W        W27710  11.132  24.489   1.267
63987W        W27711  29.540  30.044   2.666
63988W        W27712   7.354  25.153  11.414
63989W        W27713  13.294  23.159  11.460
63990W        W27714   4.335  31.577   1.432
63991W        W27715  24.201  35.512  14.938
63992W        W27716  39.866   9.650  13.904
63993W        W27717  16.310  23.518   2.332
63994W        W27718   4.249  10.638   1.229
63995W        W27719  39.521   2.372  14.510
63996W        W27720  24.479  26.506  12.497
63997W        W27721  32.536  16.290   1.370
63998W        W27722  44.821  23.053  10.494
63999W        W27723  35.438  27.959  10.984
64000W        W27724  41.496   9.665  12.952
64001W        W27725  31.919  21.202  14.471
64002W        W27726  18.068  18.073   2.667
64003W        W27727  29.644   1.902   2.261
64004W        W27728  39.558  34.926   0.744
64005W        W27729  10.855   0.814  14.412
64006W        W27730   9.824  38.465   4.272
64007W        W27731   3.855  18.668   2.849
64008W        W27732  15.742  28.062   5.180
64009W        W27733   8.808  12.193  13.837
64010W        W27734  26.954  14.769   1.305
64011W        W27735  11.255  19.584  12.502
64012W        W27736  19.615  28.108   2.766
64013W        W27737   4.735  37.011  10.485
64014W        W27738   4.302  37.929   2.180
64015W        W27739  33.543  40.825  11.450
64016W        W27740   6.912  37.057   2.701
64017W        W27741  23.625   2.784  12.509
64018W        W27742   2.321  15.777   3.256
64019W        W27743  16.174   5.316  13.850
64020W        W27744  28.113  20.057  14.955
64021W        W27745  24.561   1.315  12.471
64022W        W27746   1.764   6.852   1.250
64023W        W27747   3.857   4.383   4.117
64024W        W27748  34.371   1.735   2.269
64025W        W27749   8.350  35.077   4.827
64026W        W27750  22.533  30.933   4.819
64027W        W27751  19.624  11.640   3.732
64028W        W27752   1.403  22.534  11.919
64029W        W27753   3.942  33.007   2.737
64030W        W27754  25.143   0.878  11.535
64031W        W27755  41.364  42.809  13.854
64032W        W27756   4.831  35.899   3.229
64033W        W27757   1.260  42.403  14.302
64034W        W27758  25.686  41.330   5.201
64035W        W27759   7.336  30.942   4.249
64036W        W27760  25.170   9.705   0.881
64037W        W27761  12.640  38.933   1.710
64038W        W27762  42.822  25.575   2.272
64039W        W27763  35.095   9.379  11.023
64040W        W27764  17.221   0.376  10.889
64041W        W27765  18.262   1.382   1.438
64042W        W27766  38.444  33.505   0.769
64043W        W27767   6.381  42.825   4.688
64044W        W27768  39.052  39.988   3.313
64045W        W27769  32.072  35.056   5.310
64046W        W27770  34.504  24.534  12.864
64047W        W27771  40.494  44.846  11.386
64048W        W27772  32.018   9.690  11.533
64049W        W27773  38.874  15.764  11.433
64050W        W27774  26.985   1.974   3.836
64051W        W27775   2.273  30.926  13.954
64052W        W27776  26.499  18.548   2.813
64053W        W27777  32.450  38.552   4.331
64054W        W27778   0.387  44.845  13.340
64055W        W27779  38.915  10.174   0.394
64056W        W27780  40.937  25.484   3.701
64057W        W27781  10.647   2.755  13.046
64058W        W27782  19.235  13.341   1.922
64059W        W27783  38.940   1.482  10.935
64060W        W27784  26.049  17.587   1.871
64061W        W27785   8.181   0.420  14.840
64062W        W27786   2.763  30.099  14.835
64063W        W27787  26.645   7.342  11.435
64064W        W27788  22.223  24.579  14.981
64065W        W27789  34.613  14.334  13.053
64066W        W27790   2.236   3.926   1.761
64067W        W27791  22.706  41.848  13.975
64068W        W27792   1.907  23.585  11.876
64069W        W27793  11.779   0.392  11.550
64070W        W27794   3.276   4.235  10.544
64071W        W27795  42.310   9.175  14.946
64072W        W27796  32.103  27.564   0.910
64073W        W27797   0.363  38.487   3.827
64074W        W27798  21.167  32.945  10.460
64075W        W27799  25.201  18.677   3.716
64076W        W27800   2.950  43.797  13.482
64077W        W27801  40.895  38.851  12.984
64078W        W27802  34.947   1.904  13.358
64079W        W27803  33.508  37.459  12.838
64080W        W27804  16.772  36.481  10.914
64081W        W27805   6.337  37.004  14.487
64082W        W27806  12.652   9.667  13.987
64083W        W27807  39.383  17.793  14.777
64084W        W27808  40.421   3.418   3.270
64085W        W27809  44.860  16.655  11.911
64086W        W27810   3.266  14.826   0.929
64087W        W27811  17.272  37.019  12.577
64088W        W27812  18.644  20.576   1.282
64089W        W27813   5.342  34.456  11.889
64090W        W27814  21.020  23.580  12.556
64091W        W27815  36.398   0.386  11.445
64092W        W27816  20.187  15.636  13.314
64093W        W27817  44.504  36.536   9.600
64094W        W27818  11.752  44.937  12.965
64095W        W27819  34.603  10.656  10.460
64096W        W27820  11.180   1.370  12.958
64097W        W27821   3.932  34.090  13.032
64098W        W27822   3.783  41.440   3.200
64099W        W27823  29.576  43.937  12.425
64100W        W27824  43.844  43.823  12.086
64101W        W27825   8.192  40.390  11.453
64102W        W27826  35.936  16.605   3.170
64103W        W27827  14.333   1.265   0.356
64104W        W27828  15.809  28.561   2.286
64105W        W27829  15.134  41.510  13.320
64106W        W27830  26.153  37.479  10.062
64107W        W27831   7.803   5.713  12.435
64108W        W27832  23.654  38.070   0.729
64109W        W27833   1.904   5.839  13.345
64110W        W27834  40.971  38.957  11.519
64111W        W27835  37.503  36.045  13.312
64112W        W27836  43.503  13.610   0.250
64113W        W27837  24.227  32.052  10.445
64114W        W27838   1.483   8.218  13.877
64115W        W27839   0.383  24.056  10.641
64116W        W27840  37.550  12.233  14.376
64117W        W27841  43.992   2.365   3.283
64118W        W27842  11.782  43.330  11.384
64119W        W27843   2.958  42.998  14.022
64120W        W27844  29.130  22.175   2.700
64121W        W27845  27.060  25.710   3.635
64122W        W27846  12.673  42.947   1.371
64123W        W27847  12.192  13.698  12.401
64124W        W27848  32.621  44.390  12.474
64125W        W27849  14.821  24.520  14.302
64126W        W27850   1.451  44.319  11.522
64127W        W27851  40.314  39.549  11.067
64128W        W27852  36.459  42.326  13.339
64129W        W27853  11.838   8.333  12.072
64130W        W27854  25.101   6.845  13.523
64131W        W27855  30.020  14.210   1.757
64132W        W27856  11.277  36.402  11.572
64133W        W27857  30.960  37.873   4.226
64134W        W27858  18.169  32.420  14.016
64135W        W27859   8.743  44.416  13.474
64136W        W27860   1.411  11.844  11.512
64137W        W27861  28.030  13.270   3.629
64138W        W27862  40.020  24.992   2.794
64139W        W27863   4.756  34.077  14.369
64140W        W27864  18.764  43.795  13.502
64141W        W27865   8.223  24.658  13.330
64142W        W27866  36.952  23.523  10.621
64143W        W27867   4.337  16.724  10.622
64144W        W27868  44.448  18.221   1.755
64145W        W27869  29.167  30.072  10.477
64146W        W27870   1.338   6.393   0.942
64147W        W27871  33.568  33.542  12.439
64148W        W27872  19.761  31.105  14.365
64149W        W27873   3.438  23.992  14.336
64150W        W27874  11.866   1.865   4.191
64151W        W27875  28.657   4.941   2.871
64152W        W27876  14.232  24.040   2.734
64153W        W27877  15.162  10.733  11.938
64154W        W27878  34.415  35.599  12.936
64155W        W27879  41.873  33.399   2.805
64156W        W27880  36.899  34.953  11.912
64157W        W27881   8.275  31.540   1.291
64158W        W27882  23.553   4.360   3.838
64159W        W27883  16.147  39.313  13.919
64160W        W27884   0.485  14.635  14.433
64161W        W27885  44.287   8.831   0.776
64162W        W27886  29.138  35.488   1.753
64163W        W27887  31.406   6.916  11.063
64164W        W27888  21.706  44.931   3.806
64165W        W27889  42.879  30.492  11.589
64166W        W27890  40.349  15.664   4.180
64167W        W27891  23.624  20.756   2.883
64168W        W27892  44.441  10.867  13.047
64169W        W27893  13.836  21.671  11.069
64170W        W27894  43.925  26.636   1.880
64171W        W27895  24.068  40.043   4.788
64172W        W27896  42.815   9.234  11.965
64173W        W27897  34.095  42.525   3.277
64174W        W27898  26.550   8.214  13.914
64175W        W27899  44.766  18.212  11.410
64176W        W27900  26.460  33.909   0.802
64177W        W27901  27.135  11.836  12.995
64178W        W27902  29.602  44.937   3.306
64179W        W27903  10.212   1.937   0.396
64180W        W27904   2.952  38.457   4.308
64181W        W27905  27.014  22.505   1.847
64182W        W27906  31.060  20.139   3.638
64183W        W27907  13.782  41.020   2.371
64184W        W27908   9.343  22.562   4.608
64185W        W27909  42.466  22.573   0.387
64186W        W27910  25.561  25.689   3.364
64187W        W27911  44.947  30.110   3.246
64188W        W27912  33.949  43.359   2.731
64189W        W27913  22.534  25.594   2.376
64190W        W27914  17.218   6.903  14.485
64191W        W27915  40.002  12.624   4.602
64192W        W27916  39.361  10.633  14.784
64193W        W27917   2.925  18.577   4.675
64194W        W27918   4.447   3.845  10.938
64195W        W27919  35.011  30.420  10.619
64196W        W27920  10.185  42.959  10.047
64197W        W27921  25.579  11.272   2.418
64198W        W27922  38.867   5.768   3.823
64199W        W27923  35.919  28.996  12.929
64200W        W27924  43.919  14.329   0.428
64201W        W27925   6.817  30.557   4.691
64202W        W27926  36.391  10.710  14.786
64203W        W27927  15.130  24.703  13.437
64204W        W27928  42.920  33.129   0.899
64205W        W27929  30.540   5.733  10.452
64206W        W27930  31.937   5.798  11.521
64207W        W27931  41.514  21.182  10.596
64208W        W27932  19.098  37.830   3.832
64209W        W27933  27.635  26.500  10.512
64210W        W27934  41.474  42.853  11.035
64211W        W27935  28.097  17.127  11.430
64212W        W27936  34.444  30.105   4.663
64213W        W27937   2.320  29.649   0.303
64214W        W27938   1.733  20.093  13.919
64215W        W27939  39.883  26.482  12.040
64216W        W27940  42.800  18.169  13.808
64217W        W27941  25.536  18.725  12.839
64218W        W27942  13.711  37.836  13.863
64219W        W27943   8.661  24.715   2.339
64220W        W27944   6.423  30.913  11.515
64221W        W27945  28.944  36.924   3.272
64222W        W27946  20.658  28.131  10.613
64223W        W27947  12.735   0.848   0.933
64224W        W27948   6.209  36.585   3.652
64225W        W27949  43.845   0.879   3.309
64226W        W27950  31.522  14.673  11.509
64227W        W27951  25.528  18.115  14.426
64228W        W27952  25.497  15.764   0.381
64229W        W27953   1.399  18.626   0.849
64230W        W27954  26.576  19.084   3.706
64231W        W27955   6.801  19.694  13.419
64232W        W27956  20.767   4.337  14.962
64233W        W27957  38.076   3.737   2.896
64234W        W27958  23.232  11.333   2.270
64235W        W27959  32.970  42.850  11.481
64236W        W27960   9.836  14.113  12.986
64237W        W27961  16.765  41.872  11.978
64238W        W27962  28.465  41.038   1.935
64239W        W27963  36.024  23.679  12.532
64240W        W27964  24.669  18.735  10.553
64241W        W27965  41.868  30.073  14.932
64242W        W27966   4.260  15.219   4.320
64243W        W27967  34.965  27.554   4.174
64244W        W27968  41.326  43.296  14.469
64245W        W27969  16.792   9.663  11.867
64246W        W27970  24.105   4.919   3.231
64247W        W27971   4.890  37.519  11.927
64248W        W27972  19.561   8.754  14.412
64249W        W27973  14.615   8.827  14.796
64250W        W27974  42.289  38.459  14.900
64251W        W27975   8.842  27.068  11.862
64252W        W27976   4.278  35.539   3.280
64253W        W27977  15.684  30.011   3.359
64254W        W27978  23.667   5.931  11.448
64255W        W27979   8.309  19.189  10.943
64256W        W27980  16.081  22.167   1.918
64257W        W27981  14.632  38.399  13.393
64258W        W27982  25.674  33.623  10.120
64259W        W27983  40.825  44.317  14.277
64260W        W27984  18.106  40.530  12.905
64261W        W27985  23.038  25.606  13.429
64262W        W27986  11.709  17.109  11.935
64263W        W27987  36.026   6.187   0.397
64264W        W27988  30.506  14.747   0.875
64265W        W27989  14.788  19.762  10.988
64266W        W27990  30.636  29.639   4.680
64267W        W27991   8.668   8.214   2.779
64268W        W27992  19.697  30.948   3.229
64269W        W27993  26.654  14.673   2.337
64270W        W27994  10.211  29.514  11.564
64271W        W27995  42.382  44.987   1.420
64272W        W27996  35.048   8.760  10.967
64273W        W27997   5.866   9.799   0.479
64274W        W27998  16.194   9.296  11.479
64275W        W27999  17.682  31.497  14.958
64276W        W28000  38.546  12.194   3.713
64277W        W28001   9.244  26.173  13.892
64278W        W28002  32.558   4.781  14.317
64279W        W28003  41.306  14.262  14.302
64280W        W28004  34.074  12.309   4.153
64281W        W28005   3.771  37.468   2.825
64282W        W28006  21.219  20.215  13.340
64283W        W28007  11.723   2.356   0.361
64284W        W28008  35.438   8.823  12.491
64285W        W28009  27.995   7.409   2.357
64286W        W28010  19.049  22.016  14.351
64287W        W28011  42.448  24.977   0.960
64288W        W28012   0.858  37.480  11.599
64289W        W28013  24.494  42.363   1.800
64290W        W28014   1.771  10.278  12.481
64291W        W28015  27.446  37.485   0.800
64292W        W28016   8.406   0.833  14.887
64293W        W28017  19.145   4.309   0.898
64294W        W28018  10.639  42.919   4.255
64295W        W28019  30.643   2.919   3.826
64296W        W28020  44.332  37.363   4.661
64297W        W28021  25.706  17.630   1.327
64298W        W28022   1.453  43.989  10.471
64299W        W28023  13.256  24.494  12.498
64300W        W28024   9.151  35.995  10.045
64301W        W28025  15.152  11.845   1.443
64302W        W28026  43.848   2.839  12.467
64303W        W28027  22.693   8.371  14.759
64304W        W28028   1.753  38.442  12.579
64305W        W28029  26.630  33.930   4.207
64306W        W28030  31.998  23.514   2.675
64307W        W28031  12.767   0.414   0.877
64308W        W28032  29.466   2.364   0.889
64309W        W28033  17.135   8.769  14.393
64310W        W28034  15.236   6.325   3.700
64311W        W28035  34.999  25.473   2.270
64312W        W28036   9.348  38.868   2.219
64313W        W28037  29.662  16.590  14.843
64314W        W28038  16.306  21.160   3.751
64315W        W28039  32.462  13.646   5.758
64316W        W28040  17.786  32.141   0.403
64317W        W28041  29.547   0.960  11.082
64318W        W28042  29.021  39.449  13.977
64319W        W28043   4.374  39.537  12.412
64320W        W28044  33.535  17.765  10.432
64321W        W28045   3.389  30.648  12.395
64322W        W28046  31.440  22.220  12.564
64323W        W28047   6.689  17.718   4.272
64324W        W28048  31.151  13.615   4.645
64325W        W28049  39.529  41.855  10.956
64326W        W28050  22.039   2.907   1.714
64327W        W28051   2.298   2.352  14.853
64328W        W28052  13.764   3.219   9.961
64329W        W28053   9.377  19.102   2.884
64330W        W28054  38.033  41.517  12.089
64331W        W28055  21.638  26.458  14.977
64332W        W28056  44.325  28.470  12.988
64333W        W28057   8.890  24.042  10.425
64334W        W28058  18.134  44.442  12.457
64335W        W28059  12.294   4.316   2.855
64336W        W28060  21.529  27.563   0.451
64337W        W28061  15.599  20.264  11.569
64338W        W28062  42.803  41.335   4.619
64339W        W28063  25.137  15.629  13.991
64340W        W28064  44.992  30.009  11.396
64341W        W28065  21.034  16.215  10.090
64342W        W28066  41.947  32.414  14.399
64343W        W28067  12.616   0.770   4.793
64344W        W28068  29.921  13.738  14.292
64345W        W28069  26.199  30.132  11.470
64346W        W28070  27.534  30.556  12.018
64347W        W28071   4.727  15.184   3.341
64348W        W28072  20.216   2.845  10.958
64349W        W28073  34.417  24.492   0.796
64350W        W28074  10.197  43.805   3.771
64351W        W28075   7.209  14.155   3.158
64352W        W28076  32.052  35.527  14.868
64353W        W28077  41.408   1.371  11.919
64354W        W28078  32.529  33.589  10.609
64355W        W28079   5.724  30.655  13.313
64356W        W28080  40.345  24.552  10.948
64357W        W28081   0.981  14.205  11.481
64358W        W28082  17.241  39.019  12.998
64359W        W28083  18.195  32.061   4.266
64360W        W28084  32.087   0.281   3.339
64361W        W28085  38.829   9.186   0.876
64362W        W28086  35.378  38.506   4.304
64363W        W28087  23.615   4.928  11.953
64364W        W28088   1.844  36.414   2.264
64365W        W28089  40.382   8.341  12.834
64366W        W28090  24.226   1.772   0.727
64367W        W28091  44.382   7.319   4.828
64368W        W28092  41.004  18.714  10.971
64369W        W28093  41.492   3.221  12.088
64370W        W28094  22.997   2.334   2.327
64371W        W28095  28.146   5.292   4.231
64372W        W28096  43.935  26.996  13.026
64373W        W28097  35.003  16.310  14.825
64374W        W28098  23.571  24.569   2.257
64375W        W28099  36.522   4.735  13.374
64376W        W28100  27.971  38.355   1.810
64377W        W28101  31.537  13.229   2.894
64378W        W28102   1.737  38.450   4.236
64379W        W28103  25.085   3.254  12.078
64380W        W28104  10.812  20.538  10.587
64381W        W28105   2.366  12.856   2.695
64382W        W28106   8.339   3.931  14.928
64383W        W28107  11.811  34.005  10.568
64384W        W28108  41.320  24.652  10.506
64385W        W28109   3.811  15.713  12.070
64386W        W28110  42.823  42.850   0.751
64387W        W28111  16.127  17.801   0.882
64388W        W28112  31.134  25.513  14.387
64389W        W28113  16.673  20.268  13.310
64390W        W28114  40.444  25.501  10.102
64391W        W28115   3.913   6.400   3.154
64392W        W28116  19.154   2.354  13.358
64393W        W28117  44.481  36.873  11.862
64394W        W28118  34.053  36.578   2.268
64395W        W28119  10.379  26.595   0.857
64396W        W28120  16.125  13.603   0.264
64397W        W28121  38.404  44.300  13.510
64398W        W28122  18.281  16.654   1.259
64399W        W28123  20.531  12.712  12.040
64400W        W28124  38.396  32.962   3.720
64401W        W28125  27.634  35.859   0.807
64402W        W28126  30.156   9.284   1.220
64403W        W28127  37.414  31.484  10.432
64404W        W28128  19.155  33.007   3.697
64405W        W28129   6.276   9.185   1.703
64406W        W28130  34.376  21.146   3.712
64407W        W28131  12.742  27.606   3.659
64408W        W28132  24.568  36.435   4.180
64409W        W28133  34.515  34.613  13.329
64410W        W28134  39.857  11.222   0.380
64411W        W28135   7.778  16.127  10.420
64412W        W28136  18.221  39.007  12.353
64413W        W28137  11.625  37.957  14.989
64414W        W28138  16.218  37.056   1.879
64415W        W28139  13.632  13.212  11.117
64416W        W28140  32.453  28.019   2.267
64417W        W28141  34.108  37.034  10.503
64418W        W28142  32.417   9.709  12.831
64419W        W28143  15.277   3.298  14.983
64420W        W28144  19.204  19.241  10.986
64421W        W28145  42.477  44.782   3.347
64422W        W28146  27.601  15.135  12.007
64423W        W28147  34.962  15.131   0.731
64424W        W28148  10.154  19.198  14.293
64425W        W28149  25.582  22.135   0.436
64426W        W28150  35.979  11.305  10.404
64427W        W28151   0.837  21.730   2.340
64428W        W28152   7.397  44.010  11.556
64429W        W28153  12.761  33.436   0.855
64430W        W28154   2.341  16.599   1.739
64431W        W28155  17.594  39.321  10.985
64432W        W28156  44.776  12.770   4.630
64433W        W28157  43.968   3.235   3.173
64434W        W28158  27.659   7.203   9.615
64435W        W28159   9.268  32.048  10.573
64436W        W28160  44.303  40.466   2.248
64437W        W28161  18.292  35.448   1.767
64438W        W28162  20.081  40.894   0.256
64439W        W28163  42.808   7.400   4.691
64440W        W28164  20.550  39.325   2.733
64441W        W28165  27.026   3.812  13.796
64442W        W28166  21.167   1.753  10.493
64443W        W28167  38.372  41.368   1.813
64444W        W28168  22.681  19.084  11.405
64445W        W28169  11.817  23.067  14.457
64446W        W28170  28.975  15.582  14.442
64447W        W28171   4.253  33.479  13.534
64448W        W28172  21.188  18.279   3.738
64449W        W28173  37.495  25.113   0.433
64450W        W28174   5.877  42.338  11.905
64451W        W28175  37.057  38.355  11.039
64452W        W28176  19.746  36.440   5.161
64453W        W28177  39.450  12.259   0.895
64454W        W28178  25.662   7.243  12.397
64455W        W28179  37.509  19.573  10.104
64456W        W28180  13.837  20.090   3.147
64457W        W28181  10.215   3.384  11.522
64458W        W28182   7.204  20.231   1.219
64459W        W28183  20.685   2.943  14.947
64460W        W28184  14.609  37.351   1.421
64461W        W28185  13.846  43.337  13.514
64462W        W28186   4.212  40.503  12.057
64463W        W28187  19.666  43.002   1.244
64464W        W28188  44.940  34.874  14.363
64465W        W28189  16.167   1.329  14.281
64466W        W28190  15.301  22.097   2.324
64467W        W28191  29.117  25.472   4.206
64468W        W28192  27.975  13.312   2.406
64469W        W28193  13.729  24.574  10.920
64470W        W28194  12.142  29.130   4.219
64471W        W28195  26.464  32.613   3.674
64472W        W28196  32.940  15.137  14.834
64473W        W28197  36.086  16.252   1.404
64474W        W28198   9.651  41.857  14.275
64475W        W28199  36.882  23.611   1.405
64476W        W28200   7.879  11.190  13.821
64477W        W28201  15.800  20.652   1.761
64478W        W28202  34.012  33.403  14.340
64479W        W28203  18.173  14.777  12.428
64480W        W28204  33.445   7.810   4.837
64481W        W28205  38.032   2.457  14.452
64482W        W28206   6.851  11.249   0.459
64483W        W28207  30.082  11.164  13.914
64484W        W28208  35.392  10.368   1.731
64485W        W28209  39.809  38.478  13.918
64486W        W28210  27.683  22.570   1.903
64487W        W28211  43.481   5.900  11.403
64488W        W28212  32.464  17.792  10.887
64489W        W28213  17.645  11.786  12.934
64490W        W28214  41.966  11.740  14.785
64491W        W28215  40.932  20.267  11.550
64492W        W28216  30.075  31.485   0.855
64493W        W28217   6.742  35.403  10.578
64494W        W28218  11.295  29.440   1.221
64495W        W28219  28.018  12.231   4.129
64496W        W28220  16.618   1.925   4.159
64497W        W28221   1.836  13.604   1.752
64498W        W28222  36.908  19.276   0.288
64499W        W28223  24.071   8.174  13.856
64500W        W28224  16.656   5.221   2.408
64501W        W28225  23.016  26.591  11.090
64502W        W28226  24.634  39.017   1.751
64503W        W28227   7.849  39.510  11.924
64504W        W28228  23.063   2.784   3.709
64505W        W28229  11.217   4.376  12.565
64506W        W28230  29.424  28.001   2.221
64507W        W28231  32.939  17.153  14.024
64508W        W28232  40.963  19.121  13.456
64509W        W28233  44.346   9.191  12.079
64510W        W28234  25.183  26.650  12.521
64511W        W28235  32.575  31.936  13.463
64512W        W28236   1.257  26.004  12.518
64513W        W28237  39.007  44.468   3.378
64514W        W28238   3.318   4.408   1.931
64515W        W28239  18.731   5.260  11.414
64516W        W28240  30.510  26.559  14.460
64517W        W28241  13.724  30.476   2.217
64518W        W28242  15.191  37.961   4.182
64519W        W28243  25.714  15.163   1.777
64520W        W28244   1.733  41.011   0.801
64521W        W28245  16.656  32.929  13.413
64522W        W28246  37.406  23.022  10.433
64523W        W28247   7.811   6.746  12.437
64524W        W28248  23.184  20.101  13.504
64525W        W28249  10.855  22.558  10.574
64526W        W28250  41.301  30.137   4.288
64527W        W28251  13.241   9.823  14.809
64528W        W28252   7.876   6.687   3.218
64529W        W28253  43.293   0.983   2.741
64530W        W28254  39.855  31.471  13.978
64531W        W28255  10.775  42.350  11.522
64532W        W28256  25.535   1.774  13.398
64533W        W28257  23.720  43.816  13.950
64534W        W28258  34.938  42.475  13.510
64535W        W28259  18.756  10.163   2.272
64536W        W28260   0.427  30.966   1.928
64537W        W28261  31.102   7.237  12.000
64538W        W28262  39.847  14.688  12.962
64539W        W28263  41.854  15.688  13.024
64540W        W28264  37.461  43.330  12.372
64541W        W28265  16.308  10.792  14.927
64542W        W28266  28.105  12.854  10.948
64543W        W28267  18.603  34.377   3.384
64544W        W28268  17.801  34.029   1.869
64545W        W28269  11.222  27.961  10.958
64546W        W28270  38.005  11.185  13.015
64547W        W28271  27.568  43.817  13.847
64548W        W28272  15.684  18.168   0.910
64549W        W28273   8.224  28.646   0.437
64550W        W28274  11.289  38.913   2.793
64551W        W28275  24.121   8.308   4.334
64552W        W28276   1.886  36.438   3.726
64553W        W28277   1.796  19.261   0.258
64554W        W28278  43.488  36.363  11.557
64555W        W28279  18.625  26.590  12.872
64556W        W28280  18.551  43.869   0.407
64557W        W28281  15.138  32.018   1.383
64558W        W28282  32.458  22.142   0.305
64559W        W28283  36.537  22.232   1.790
64560W        W28284  21.512  13.313   4.331
64561W        W28285  32.940  42.974   3.830
64562W        W28286   7.695  29.068   1.269
64563W        W28287  20.158   8.792   0.446
64564W        W28288   9.778   6.420   4.230
64565W        W28289   2.451  16.212  12.063
64566W        W28290   2.333  19.045   2.694
64567W        W28291  34.388  27.077  11.946
64568W        W28292   3.911  35.590   1.794
64569W        W28293  13.840  16.684   0.947
64570W        W28294  20.651  25.067  14.323
64571W        W28295  44.285  29.095   2.757
64572W        W28296  41.350  15.317   1.254
64573W        W28297  40.506  18.126  11.871
64574W        W28298  37.368  20.690   3.309
64575W        W28299  28.530  13.224   0.397
64576W        W28300   8.346  36.842  11.108
64577W        W28301  32.520   7.308  11.914
64578W        W28302  20.087  28.976  12.823
64579W        W28303   4.315   2.906   0.843
64580W        W28304  23.673  31.416  10.987
64581W        W28305  26.556  42.423   0.445
64582W        W28306   2.227   9.262   3.289
64583W        W28307  42.024  28.437   0.341
64584W        W28308   8.382   1.332  12.915
64585W        W28309  12.681   8.196  11.425
64586W        W28310   8.317  35.438   1.298
64587W        W28311   4.901  30.425  11.973
64588W        W28312  25.505  39.844  11.387
64589W        W28313   6.268  41.845  10.939
64590W        W28314  21.263   7.243  13.054
64591W        W28315   9.646  17.124   4.172
64592W        W28316   0.393  41.320   1.375
64593W        W28317  32.971  37.900  13.918
64594W        W28318  24.641  17.282  14.944
64595W        W28319  36.908  21.534  13.368
64596W        W28320  34.931  28.631  14.780
64597W        W28321  17.689  31.643  11.896
64598W        W28322  22.177  29.047  12.838
64599W        W28323  12.696  41.866  11.480
64600W        W28324  18.082  37.888  14.489
64601W        W28325  18.589  25.594   3.164
64602W        W28326   7.824  37.050  10.559
64603W        W28327  24.991  20.660   0.837
64604W        W28328   2.331   7.377   4.708
64605W        W28329  21.099  25.087   4.319
64606W        W28330  32.932  24.637   4.265
64607W        W28331  33.432  42.879  11.067
64608W        W28332  39.967   6.355  14.847
64609W        W28333  39.485   4.843   4.662
64610W        W28334  33.997  37.977   3.305
64611W        W28335  40.906  20.085  12.087
64612W        W28336  17.286   0.454  13.416
64613W        W28337  17.210  28.633  14.432
64614W        W28338  20.118  14.693   3.233
64615W        W28339  19.691  13.623   1.895
64616W        W28340   7.900   0.384  13.409
64617W        W28341  15.590  37.440   4.269
64618W        W28342   3.795  26.585  12.471
64619W        W28343  11.792  14.744   1.824
64620W        W28344  28.965  15.763  10.895
64621W        W28345   9.758  27.509   4.805
64622W        W28346   0.288  23.210  13.432
64623W        W28347  42.888  39.917   3.273
64624W        W28348  38.031   4.829  14.370
64625W        W28349  17.076  27.046  10.564
64626W        W28350   2.306  20.107  13.795
64627W        W28351  44.290  21.159  12.432
64628W        W28352   0.328  35.899   3.265
64629W        W28353  12.162  18.624   1.878
64630W        W28354  42.366  40.511  12.471
64631W        W28355  31.431  35.107   4.698
64632W        W28356  38.994  26.632  10.913
64633W        W28357  10.202  33.964   0.406
64634W        W28358  30.088   1.733  14.906
64635W        W28359   4.724   9.749   4.213
64636W        W28360  25.689   7.899  11.965
64637W        W28361  33.577  31.570   1.878
64638W        W28362  42.509   7.383   2.314
64639W        W28363  15.679  34.520   1.846
64640W        W28364  30.007   6.397   4.187
64641W        W28365   2.944  26.181   2.761
64642W        W28366  37.405   4.446  14.015
64643W        W28367  29.035  27.082   0.793
64644W        W28368  34.866  29.643   1.863
64645W        W28369  21.591  29.515   3.790
64646W        W28370  33.940  30.022   0.348
64647W        W28371  10.186  15.679  14.872
64648W        W28372  34.093  24.033  14.285
64649W        W28373  12.220   5.219   0.746
64650W        W28374  11.639  17.120   3.630
64651W        W28375  19.054  11.867  13.811
64652W        W28376   1.406  18.691   0.457
64653W        W28377  35.583  19.102  14.004
64654W        W28378  27.077  36.559   0.460
64655W        W28379  33.893  13.742   0.833
64656W        W28380  33.423  13.271   3.657
64657W        W28381  15.620  28.999   4.607
64658W        W28382  24.606  32.141   2.408
64659W        W28383  19.567  31.088   3.779
64660W        W28384  27.448   2.265   1.405
64661W        W28385  39.469  22.691  10.484
64662W        W28386  35.946  23.120  10.485
64663W        W28387   0.769  29.125   1.882
64664W        W28388   1.353  23.601   2.726
64665W        W28389  32.450   2.850   0.746
64666W        W28390  16.294  28.520  14.890
64667W        W28391   1.383   9.835   4.764
64668W        W28392  31.468   4.238   0.962
64669W        W28393  35.078  11.688   4.777
64670W        W28394  31.901   7.322  14.351
64671W        W28395  38.038   8.340   2.198
64672W        W28396  31.591  22.165   4.655
64673W        W28397   1.373  23.128  11.122
64674W        W28398  43.911   6.826   3.658
64675W        W28399  30.112  12.201   4.217
64676W        W28400   7.184  23.585   1.703
64677W        W28401  35.475   2.421   0.465
64678W        W28402  21.557   7.376  14.439
64679W        W28403  23.668  42.896  12.831
64680W        W28404  30.998  40.402   2.256
64681W        W28405   1.929  27.542  10.971
64682W        W28406  12.322  40.346   4.117
64683W        W28407  14.201  30.537   1.273
64684W        W28408   7.256  24.493   4.741
64685W        W28409  17.686  41.437  13.324
64686W        W28410  40.522  20.117  11.988
64687W        W28411  38.944  20.121  11.891
64688W        W28412  44.442  14.777  13.521
64689W        W28413  39.828  26.142   3.157
64690W        W28414   5.245  39.324  11.025
64691W        W28415  19.739  40.439   1.380
64692W        W28416  15.136   8.270   4.202
64693W        W28417  40.547  39.348   4.697
64694W        W28418  42.457  43.424  13.036
64695W        W28419  16.654  24.568   0.747
64696W        W28420   6.771  14.747  13.355
64697W        W28421   4.423  13.204   1.903
64698W        W28422  23.723  34.442  13.416
64699W        W28423  17.602   0.840  14.284
64700W        W28424  16.600  21.631   1.857
64701W        W28425  27.104   8.658   3.815
64702W        W28426  10.226  17.572   2.693
64703W        W28427   6.884  11.806  12.344
64704W        W28428  40.317   8.796   0.410
64705W        W28429   7.258  35.566   0.850
64706W        W28430  13.233  13.735  13.966
64707W        W28431  20.541   2.860  12.921
64708W        W28432  20.188  39.517  10.915
64709W        W28433  37.920  10.193  14.779
64710W        W28434  17.258  25.554  12.860
64711W        W28435  38.856  35.949   0.383
64712W        W28436  37.905  37.427   3.856
64713W        W28437  13.276   8.279   3.251
64714W        W28438  11.815  33.555   5.098
64715W        W28439  10.792   1.241   1.926
64716W        W28440  22.534  20.715   1.783
64717W        W28441  36.478  23.188   1.910
64718W        W28442  21.716  11.298  11.585
64719W        W28443  25.711  26.074   1.860
64720W        W28444  32.934   6.196   1.391
64721W        W28445  40.365  35.503   3.801
64722W        W28446  43.428  28.495  10.551
64723W        W28447  10.185  44.504   1.255
64724W        W28448  38.023  34.950   2.736
64725W        W28449  14.680  31.415  10.573
64726W        W28450  31.128  21.188   2.250
64727W        W28451   8.743  35.015   3.852
64728W        W28452  20.768  43.471  11.050
64729W        W28453  17.183   0.473  12.430
64730W        W28454  20.754   6.857  11.412
64731W        W28455  15.263  44.351   4.178
64732W        W28456  17.119  33.977  12.065
64733W        W28457   1.356  42.810   3.724
64734W        W28458  32.539  42.989   1.326
64735W        W28459  30.068  21.569   3.339
64736W        W28460  34.952  19.569   3.659
64737W        W28461  39.054  27.688  10.890
64738W        W28462  34.944  36.477  11.551
64739W        W28463  12.813  16.805  13.831
64740W        W28464  14.659  34.472  14.861
64741W        W28465  22.629   4.740   4.688
64742W        W28466  29.668  20.189  14.451
64743W        W28467   3.433  11.190  11.499
64744W        W28468   6.318  38.339  13.456
64745W        W28469  37.999  15.770   2.390
64746W        W28470  15.239  42.878  14.321
64747W        W28471  15.767  13.738   3.276
64748W        W28472  44.817  30.598   2.692
64749W        W28473  25.195  41.400   0.877
64750W        W28474  34.512  30.607   4.796
64751W        W28475  37.559  21.134  14.460
64752W        W28476  43.917   3.407   0.386
64753W        W28477  24.581  38.451   1.212
64754W        W28478   8.285  36.360  12.050
64755W        W28479   9.745  39.352  13.853
64756W        W28480  44.451  28.485   0.385
64757W        W28481  19.534  39.462  13.831
64758W        W28482  14.296  35.570   3.154
64759W        W28483  40.350  24.092   3.630
64760W        W28484   4.353  12.308   1.697
64761W        W28485  25.067  11.752   0.371
64762W        W28486  37.436  14.122  13.042
64763W        W28487  32.885  35.442   0.782
64764W        W28488   1.346   7.739  13.396
64765W        W28489  35.913   6.398  14.921
64766W        W28490  42.004  28.597   4.149
64767W        W28491   8.400  34.573  11.917
64768W        W28492  22.537  29.011   3.359
64769W        W28493  17.723  14.641   1.399
64770W        W28494  44.344  18.625  14.350
64771W        W28495  19.614  11.662  10.559
64772W        W28496  27.471   9.358  11.593
64773W        W28497  27.031  20.586  11.859
64774W        W28498  28.484  29.156   0.923
64775W        W28499  40.039  37.060   0.855
64776W        W28500  11.670  16.087  10.993
64777W        W28501  13.163  17.152   0.797
64778W        W28502  38.957  21.623  10.903
64779W        W28503   7.336  15.740  11.513
64780W        W28504  27.530   4.877  11.502
64781W        W28505  33.048  26.206   3.804
64782W        W28506  37.495   5.435   3.211
64783W        W28507  27.944   9.320   3.225
64784W        W28508  41.027  21.249  12.844
64785W        W28509   7.670   4.280  10.446
64786W        W28510  16.706  33.036  12.826
64787W        W28511   0.411  21.177  10.561
64788W        W28512   1.336   8.826   4.326
64789W        W28513  21.673  31.614   2.896
64790W        W28514  28.602  28.948   4.145
64791W        W28515  32.478   2.341  14.455
64792W        W28516  29.523  44.410  10.950
64793W        W28517   3.759   2.961   3.187
64794W        W28518  36.424  14.190  10.536
64795W        W28519  10.669  21.164   0.910
64796W        W28520  20.244  16.238  11.611
64797W        W28521   1.793  40.529  13.911
64798W        W28522  29.546   3.739  12.051
64799W        W28523   9.854   1.782   4.710
64800W        W28524  17.286  22.743   4.232
64801W        W28525   0.306  30.995  12.071
64802W        W28526  22.228  10.771   2.672
64803W        W28527   1.349  22.180   0.303
64804W        W28528  21.558  42.448   0.783
64805W        W28529   0.745  37.341  10.947
64806W        W28530  23.630  22.576   4.791
64807W        W28531  31.618  34.536  10.962
64808W        W28532  39.360  27.654  14.512
64809W        W28533   1.821   1.457  14.836
64810W        W28534  23.641  39.056  10.920
64811W        W28535  11.701  12.247  11.585
64812W        W28536  21.167  37.511   3.353
64813W        W28537   6.738  19.098  10.433
64814W        W28538  36.863  37.499  10.529
64815W        W28539   5.803  32.433   4.318
64816W        W28540  44.264  35.495   1.760
64817W        W28541  27.016  35.998  11.104
64818W        W28542  43.783  42.303   0.896
64819W        W28543  27.046  31.101  12.899
64820W        W28544  36.075  14.240  14.401
64821W        W28545  36.548  42.826   4.244
64822W        W28546  27.149   7.705   3.814
64823W        W28547  43.947  16.657  13.939
64824W        W28548  43.496  34.000   1.799
64825W        W28549   3.763  28.603  10.450
64826W        W28550  37.369   0.413   1.393
64827W        W28551   8.835  14.294   4.737
64828W        W28552  35.863   8.766  13.318
64829W        W28553  17.736  44.486  12.527
64830W        W28554   4.730  10.339  14.892
64831W        W28555  24.674  44.917  12.967
64832W        W28556  30.564  25.152   3.833
64833W        W28557   9.718  23.610   4.821
64834W        W28558   7.357   0.364   3.647
64835W        W28559  36.519  25.161   5.269
64836W        W28560  26.490  30.541   2.771
64837W        W28561   8.878  41.450  13.062
64838W        W28562  21.017  40.442   4.184
64839W        W28563  42.008  22.633  11.041
64840W        W28564   8.674  43.949  12.032
64841W        W28565  24.063  26.072   4.659
64842W        W28566  35.502  20.231  11.997
64843W        W28567   6.836  34.453   3.236
64844W        W28568  41.313  19.078  14.325
64845W        W28569   9.174  27.983   0.879
64846W        W28570  32.100  32.588   2.397
64847W        W28571   7.188  29.038   0.862
64848W        W28572  35.868  33.938   0.397
64849W        W28573   1.949  14.152  10.549
64850W        W28574  20.248  39.416  11.408
64851W        W28575  39.378  24.693   3.718
64852W        W28576  23.498  42.930  14.859
64853W        W28577   0.766   1.391  10.511
64854W        W28578  42.873  22.725  11.887
64855W        W28579  19.760   3.886  14.328
64856W        W28580  36.566  27.583   3.726
64857W        W28581  36.444   8.829  12.434
64858W        W28582  16.685  10.664  11.121
64859W        W28583  36.347   2.373   1.234
64860W        W28584  29.170  17.161  12.581
64861W        W28585  36.912  41.980  12.409
64862W        W28586  32.913  30.552  11.014
64863W        W28587  21.239  34.972   3.646
64864W        W28588  27.051  13.187  11.399
64865W        W28589  34.887   3.838  10.435
64866W        W28590   6.832  39.994   0.455
64867W        W28591  26.496  20.240  12.382
64868W        W28592   2.278  34.087  12.539
64869W        W28593  14.113  32.578   1.220
64870W        W28594  34.456  11.251  11.039
64871W        W28595  42.998  34.965  14.991
64872W        W28596  37.580  38.002  14.380
64873W        W28597  32.016  27.100  13.014
64874W        W28598  35.929  32.526  11.595
64875W        W28599  36.858   0.766   3.385
64876W        W28600   3.899   4.770  14.907
64877W        W28601  32.934  11.217  14.497
64878W        W28602  36.008   3.448   4.818
64879W        W28603   9.840  17.620  11.513
64880W        W28604  40.045   1.893   3.729
64881W        W28605   6.829  39.400   1.356
64882W        W28606  36.470  44.433   4.233
64883W        W28607  28.092   1.465  14.476
64884W        W28608  12.286  11.747   0.444
64885W        W28609   4.321  20.112  11.924
64886W        W28610  34.927  18.115   2.788
64887W        W28611  11.272  25.155  11.998
64888W        W28612  14.159  44.799  14.286
64889W        W28613  16.744  20.579  13.424
64890W        W28614  22.515  36.424  11.104
64891W        W28615  25.129  31.105  10.551
64892W        W28616  20.221  26.004  10.901
64893W        W28617  36.412  34.053   0.842
64894W        W28618  30.146  25.092  14.415
64895W        W28619  40.030  24.588   0.756
64896W        W28620   5.316  44.991  13.338
64897W        W28621  25.514  27.119   3.157
64898W        W28622  16.121  24.696   2.253
64899W        W28623   7.324  22.092  12.388
64900W        W28624  29.960  44.969  12.573
64901W        W28625   0.941   2.267  12.927
64902W        W28626  29.545   3.769  11.387
64903W        W28627  20.049  36.996  12.563
64904W        W28628  13.833  31.637  11.466
64905W        W28629  40.501  24.072  12.396
64906W        W28630   9.170  44.804  14.933
64907W        W28631  15.303  27.643   1.329
64908W        W28632  27.082  14.215   1.697
64909W        W28633  35.086   6.715  14.019
64910W        W28634   4.883   9.707   2.854
64911W        W28635  39.362  42.853  11.529
64912W        W28636  43.390   8.323   1.817
64913W        W28637  35.367   7.714  12.040
64914W        W28638  19.552  18.790  10.569
64915W        W28639  44.886   4.224  10.641
64916W        W28640  17.194  44.806   3.870
64917W        W28641  36.016  23.600   1.254
64918W        W28642  42.021  40.833  12.830
64919W        W28643  13.758   9.179   0.411
64920W        W28644  38.330  10.833  13.837
64921W        W28645  44.830   9.682  11.081
64922W        W28646   8.791  31.102  14.007
64923W        W28647  17.307   8.805  12.527
64924W        W28648  31.410   6.372  12.849
64925W        W28649  20.238   7.308  13.881
64926W        W28650  21.542  32.419  13.351
64927W        W28651  19.183  34.568  14.825
64928W        W28652  29.561  25.657   2.316
64929W        W28653  12.619   3.363   2.892
64930W        W28654  15.230   8.362   0.369
64931W        W28655  19.145  39.454  13.389
64932W        W28656  36.862   1.324  11.438
64933W        W28657  12.751  34.978   2.406
64934W        W28658  35.025  32.609   2.310
64935W        W28659  16.755  34.935  10.951
64936W        W28660  35.959  11.710  12.966
64937W        W28661  22.226  15.726  14.839
64938W        W28662   4.830  24.648  14.977
64939W        W28663  25.980  12.157  12.929
64940W        W28664   2.794  21.263  12.516
64941W        W28665  11.301  39.002   1.233
64942W        W28666   0.483  43.475  11.116
64943W        W28667   3.735  26.618  12.096
64944W        W28668  19.225  43.338   1.442
64945W        W28669  36.841   5.699   0.859
64946W        W28670  33.960   4.401   4.299
64947W        W28671  26.522   0.986   2.721
64948W        W28672  30.617   6.185  11.473
64949W        W28673   3.427  15.108  14.397
64950W        W28674  17.175  26.194  12.559
64951W        W28675  31.558  41.018  13.492
64952W        W28676  26.189  14.715  11.564
64953W        W28677   2.315   0.324   0.856
64954W        W28678   1.290  20.104   1.820
64955W        W28679  20.089  14.680   0.951
64956W        W28680  39.557  30.621  14.477
64957W        W28681  25.212  36.851   3.797
64958W        W28682   5.912  23.173  11.108
64959W        W28683  13.208  24.514   3.785
64960W        W28684  21.517  30.032  14.962
64961W        W28685  33.066  32.944   1.924
64962W        W28686  40.879  44.790   1.891
64963W        W28687   5.357   6.207  10.542
64964W        W28688   3.242  32.574   4.217
64965W        W28689  16.599   6.859  12.909
64966W        W28690  19.064  10.306  10.592
64967W        W28691  26.530  42.020  11.975
64968W        W28692  31.931   4.410   1.867
64969W        W28693  17.096  32.499  14.406
64970W        W28694  38.991  39.921  14.384
64971W        W28695  38.064  16.217  12.527
64972W        W28696   1.776  22.550   4.728
64973W        W28697  42.341  18.768  14.385
64974W        W28698  19.226  28.042  12.380
64975W        W28699  44.895  18.751  10.887
64976W        W28700  42.455  41.427   2.342
64977W        W28701  18.214  28.117   2.192
64978W        W28702  34.425   6.266   1.350
64979W        W28703   8.342  20.245   4.680
64980W        W28704   3.823  34.557  11.101
64981W        W28705  31.036  23.041   1.389
64982W        W28706  28.972   8.168  14.017
64983W        W28707  19.569  11.778  12.857
64984W        W28708  38.350  17.688   3.842
64985W        W28709  44.410  22.091  10.433
64986W        W28710  26.079  17.626   0.438
64987W        W28711  13.234   7.323  13.496
64988W        W28712   7.865  30.643   0.828
64989W        W28713  15.716  25.487  11.974
64990W        W28714  40.805  12.357   0.848
64991W        W28715  33.097   5.231  14.461
64992W        W28716  31.602  35.572   0.884
64993W        W28717  22.043   0.310   4.307
64994W        W28718  25.168  19.663  11.122
64995W        W28719  40.880  36.391  12.035
64996W        W28720  18.763  31.913  14.829
64997W        W28721   0.827  19.703  13.423
64998W        W28722  15.777  33.463   4.122
64999W        W28723  18.722  26.552   4.201
65000W        W28724  24.687  24.685   4.816
65001W        W28725  27.996  14.680  10.007
65002W        W28726  35.569   5.860  11.422
65003W        W28727  20.201  12.325  10.156
65004W        W28728  37.552  30.135  10.982
65005W        W28729  38.034   5.304   1.309
65006W        W28730  11.860  22.707   4.795
65007W        W28731  27.525   2.963   3.825
65008W        W28732  44.776  28.674   3.176
65009W        W28733   9.858  39.341   4.242
65010W        W28734  16.724   6.713  11.987
65011W        W28735  15.702  38.400   1.741
65012W        W28736  35.485   4.889  12.521
65013W        W28737  16.756   2.891  10.517
65014W        W28738   8.271  23.660  12.552
65015W        W28739  21.102  32.964   0.955
65016W        W28740  24.560  25.088   0.744
65017W        W28741  39.881  19.633  13.834
65018W        W28742  16.693  13.642  12.524
65019W        W28743   7.874  24.483   1.383
65020W        W28744  30.620   0.300   4.599
65021W        W28745  20.211  21.529   4.252
65022W        W28746   1.244  11.800  13.837
65023W        W28747   8.712  39.972  12.927
65024W        W28748  29.658  13.255  10.960
65025W        W28749   7.787  25.669   1.402
65026W        W28750  16.291  34.088   3.344
65027W        W28751  38.546  36.061   2.746
65028W        W28752   6.416  16.675   2.269
65029W        W28753  28.479  20.713  14.011
65030W        W28754  31.111  27.519  13.405
65031W        W28755   3.347  11.199   0.376
65032W        W28756   5.920   0.835  14.778
65033W        W28757   7.761   4.933   2.867
65034W        W28758  10.283  42.917   3.686
65035W        W28759  37.383  15.117  12.925
65036W        W28760  21.174  41.486   4.198
65037W        W28761  16.222  13.800   2.667
65038W        W28762  28.655   6.869  12.828
65039W        W28763  10.827  42.887   2.703
65040W        W28764  43.820  15.256   2.683
65041W        W28765  18.282  44.993  11.057
65042W        W28766  36.347  34.383  11.554
65043W        W28767  24.709  23.125   1.386
65044W        W28768  20.743   6.390  12.380
65045W        W28769  25.974  28.950  14.898
65046W        W28770  22.108   0.358  12.564
65047W        W28771   8.826  17.780  12.869
65048W        W28772  27.574   6.870  14.862
65049W        W28773  28.570  30.051  10.587
65050W        W28774  18.199  23.721   3.237
65051W        W28775  37.989  25.042  11.434
65052W        W28776  36.041  13.288   5.277
65053W        W28777  34.015  24.088  10.619
65054W        W28778  16.241  41.418   5.159
65055W        W28779  12.671  27.145   1.750
65056W        W28780  23.086  42.388  12.567
65057W        W28781  33.057  25.190  11.434
65058W        W28782  36.556   9.160   0.755
65059W        W28783   0.847   7.294   2.677
65060W        W28784  12.182  14.150  12.013
65061W        W28785  23.119  43.018   1.356
65062W        W28786  39.484  18.195  11.022
65063W        W28787  27.129  39.978  14.771
65064W        W28788  23.562  25.152  12.573
65065W        W28789  41.333  31.499   4.760
65066W        W28790  31.555   7.784   1.249
65067W        W28791  18.599  27.481  13.484
65068W        W28792   9.392  35.928   0.730
65069W        W28793  29.550  15.788  12.576
65070W        W28794  27.629  32.424   1.328
65071W        W28795  29.039  37.351  10.460
65072W        W28796  24.099  21.604   0.810
65073W        W28797  40.466  25.150   1.852
65074W        W28798   5.825  26.082  12.875
65075W        W28799  20.670  37.000   2.832
65076W        W28800  21.746  35.088   1.228
65077W        W28801  42.814  14.275  13.370
65078W        W28802  38.864  31.946  10.151
65079W        W28803  34.015   2.461   1.887
65080W        W28804  34.515   0.872  11.611
65081W        W28805  13.732  22.016   3.317
65082W        W28806  31.924  22.736   2.263
65083W        W28807   6.231   5.855   3.637
65084W        W28808  29.473  22.033   4.639
65085W        W28809  37.892  31.026   2.815
65086W        W28810  22.087   1.468   4.682
65087W        W28811   8.232  40.326   1.407
65088W        W28812  15.259   2.261   3.248
65089W        W28813  39.917  23.669  10.938
65090W        W28814  38.424  24.692  14.885
65091W        W28815  42.298   2.418   3.866
65092W        W28816  36.964  36.015  13.450
65093W        W28817  10.798  24.636   0.829
65094W        W28818  28.984  10.151  10.006
65095W        W28819  31.063   6.911  13.016
65096W        W28820  26.522   2.826   0.353
65097W        W28821  31.611  27.615  11.472
65098W        W28822  32.444   2.294   0.427
65099W        W28823  12.691  32.012   0.285
65100W        W28824  21.246  30.583  14.930
65101W        W28825   9.699  21.627   2.404
65102W        W28826  19.751  10.877  14.476
65103W        W28827   3.443  26.087  13.921
65104W        W28828  27.657  32.633   1.882
65105W        W28829  37.009  25.107   4.724
65106W        W28830  24.150  36.496  13.889
65107W        W28831  23.044   7.214  11.597
65108W        W28832   4.700  26.013  13.040
65109W        W28833  40.306  24.543   3.295
65110W        W28834  23.060  36.873   0.278
65111W        W28835  44.761  43.779  13.447
65112W        W28836  26.111  39.934  13.387
65113W        W28837  27.037  27.639  13.036
65114W        W28838  14.098  26.205   2.899
65115W        W28839  28.967   9.680  13.519
65116W        W28840  18.735  43.977   4.736
65117W        W28841   8.822  29.541  12.847
65118W        W28842  17.116  41.980  14.793
65119W        W28843  34.957  25.574   0.314
65120W        W28844  39.468   1.845   2.759
65121W        W28845  23.533  22.995  14.935
65122W        W28846  30.139   5.278  10.429
65123W        W28847   0.862  40.923   1.794
65124W        W28848   4.408  17.613  14.516
65125W        W28849   6.832  14.287  14.919
65126W        W28850  18.647  12.234  12.389
65127W        W28851   7.411  25.669   2.293
65128W        W28852  26.131  42.495   2.275
65129W        W28853   8.696   6.879  10.421
65130W        W28854  33.894  32.558  13.835
65131W        W28855  32.922  28.094   3.345
65132W        W28856  10.317  38.993  10.096
65133W        W28857   1.443  27.485  13.853
65134W        W28858  43.872  20.050  12.944
65135W        W28859  18.609   7.262  14.419
65136W        W28860  11.282   0.829  13.387
65137W        W28861   6.379  21.074  12.366
65138W        W28862  35.931  20.553  12.872
65139W        W28863  34.953  43.968  11.093
65140W        W28864  10.292  44.329  11.979
65141W        W28865  27.038  24.051   2.788
65142W        W28866  29.162   5.757   1.800
65143W        W28867  24.123   0.855  10.898
65144W        W28868  17.762  19.203   2.373
65145W        W28869  34.480  10.698  10.924
65146W        W28870   5.241  43.869   2.728
65147W        W28871   1.268  39.896  10.917
65148W        W28872  16.576  41.825   0.951
65149W        W28873  19.082   0.868  12.400
65150W        W28874  29.582  14.717  12.355
65151W        W28875  22.531   5.381   4.709
65152W        W28876  42.285  26.073  14.324
65153W        W28877  26.174  33.923  11.032
65154W        W28878  36.462  40.991  12.507
65155W        W28879  17.197  31.516  13.039
65156W        W28880  23.017  40.419   0.864
65157W        W28881  22.164  14.776   1.696
65158W        W28882  18.690   2.854  10.618
65159W        W28883  31.470  10.231  11.098
65160W        W28884  32.530  12.637  13.423
65161W        W28885  16.106  20.137   4.168
65162W        W28886  13.800   6.844   0.960
65163W        W28887  34.927  35.055   1.855
65164W        W28888  16.294  24.004   1.784
65165W        W28889  14.217  30.555   2.269
65166W        W28890  13.262  31.050  10.940
65167W        W28891  26.698  16.179  14.992
65168W        W28892  33.105  38.939  10.567
65169W        W28893   6.712   4.919   1.237
65170W        W28894  18.704  29.172   3.702
65171W        W28895   0.975  29.998  12.008
65172W        W28896  41.035   0.369   2.232
65173W        W28897  10.730   2.250   4.779
65174W        W28898  39.448  13.648  14.913
65175W        W28899  35.420  30.563  13.429
65176W        W28900  12.313  29.512  14.900
65177W        W28901   9.271   8.263  12.988
65178W        W28902  13.739   1.874   0.377
65179W        W28903  13.695   9.790   1.243
65180W        W28904  30.514  31.098   2.335
65181W        W28905  40.053  39.394   4.189
65182W        W28906   4.717   2.389  10.462
65183W        W28907  43.941  42.521   2.747
65184W        W28908  13.767  37.967   1.375
65185W        W28909  24.600  34.395  14.777
65186W        W28910   5.689  44.994   2.861
65187W        W28911  11.730  35.897   2.742
65188W        W28912   9.339  37.539   1.811
65189W        W28913  24.558  40.004   9.972
65190W        W28914  44.279  34.110   1.430
65191W        W28915   9.197  38.346   0.941
65192W        W28916   6.210  21.019   0.763
65193W        W28917  39.524  33.529   3.784
65194W        W28918  29.146  28.963   4.315
65195W        W28919   7.352  11.286   2.881
65196W        W28920  13.706  14.127   4.279
65197W        W28921  18.151  36.936  13.887
65198W        W28922   6.362  32.525  13.490
65199W        W28923  42.834  21.171  12.842
65200W        W28924   7.392  37.918  14.334
65201W        W28925   5.282   8.871  10.546
65202W        W28926  27.148  11.198  10.538
65203W        W28927  10.233   9.270  11.392
65204W        W28928  34.370  13.317   3.796
65205W        W28929   8.851  10.807   5.638
65206W        W28930  40.936  12.664   2.189
65207W        W28931  24.048  44.783   0.482
65208W        W28932  31.955  39.871   1.246
65209W        W28933  21.223   9.825  10.952
65210W        W28934  27.482  11.146   3.820
65211W        W28935  19.177  37.851  12.055
65212W        W28936  42.991   5.379   2.674
65213W        W28937  31.449  13.268   2.335
65214W        W28938  36.406  30.561  11.986
65215W        W28939  31.583  21.670  10.561
65216W        W28940   1.791   5.246  11.432
65217W        W28941  42.792  35.015   4.159
65218W        W28942  24.132  26.209  10.971
65219W        W28943  44.932  14.767  11.105
65220W        W28944  38.867  40.999   4.189
65221W        W28945  40.440   4.363  13.863
65222W        W28946  18.258  12.120   4.793
65223W        W28947   2.756  27.140   2.316
65224W        W28948  44.391  28.996   0.415
65225W        W28949   7.236  30.994  13.818
65226W        W28950  42.948  33.532   5.198
65227W        W28951  40.825  38.905  11.106
65228W        W28952  33.564   7.726  12.358
65229W        W28953  43.792   8.402   0.824
65230W        W28954  28.518  11.300  14.305
65231W        W28955  35.035  31.648   1.316
65232W        W28956   9.830  12.174   0.797
65233W        W28957   7.244  18.201  13.017
65234W        W28958  30.005  19.087  10.621
65235W        W28959  38.900  29.124  10.581
65236W        W28960   3.310  42.289  12.897
65237W        W28961   1.971  17.135   1.315
65238W        W28962   5.440  33.996   1.379
65239W        W28963  27.959  17.260  10.638
65240W        W28964  30.097  17.596   0.924
65241W        W28965  19.692  26.090   4.628
65242W        W28966  32.592  29.945  11.424
65243W        W28967  22.045  30.480   5.303
65244W        W28968  37.060  10.847  12.369
65245W        W28969  31.100  43.394   4.281
65246W        W28970   7.833  26.128  11.113
65247W        W28971  37.014   0.344   3.296
65248W        W28972  38.027  14.220  13.533
65249W        W28973   9.273  41.982   0.459
65250W        W28974  44.770  22.560  11.997
65251W        W28975  43.273  22.631   1.756
65252W        W28976  16.152   2.902   5.223
65253W        W28977   4.384  37.959  14.798
65254W        W28978  22.182  14.696   2.406
65255W        W28979  28.438  24.674  14.760
65256W        W28980   2.465  21.044  14.353
65257W        W28981   3.727   8.672   0.439
65258W        W28982  20.567  39.470   1.739
65259W        W28983  21.140  32.965   1.883
65260W        W28984  30.141  20.136  12.365
65261W        W28985  31.411   3.939  11.457
65262W        W28986  43.889  22.165  10.459
65263W        W28987   3.375   4.309  11.523
65264W        W28988  30.467  26.482   4.340
65265W        W28989  40.323  34.057   3.360
65266W        W28990  15.706  19.116   4.156
65267W        W28991   2.821  36.569  13.867
65268W        W28992  36.462  22.525   2.268
65269W        W28993   1.923  39.318   0.880
65270W        W28994  18.641  16.649   9.963
65271W        W28995  27.679  38.411   1.319
65272W        W28996   8.329  15.587   3.198
65273W        W28997   2.285  44.441  14.939
65274W        W28998   8.210  35.523   2.279
65275W        W28999   7.313  22.653  13.975
65276W        W29000  38.450  10.187  10.920
65277W        W29001  32.430   0.295  12.562
65278W        W29002  41.865  21.132   1.392
65279W        W29003  43.375  24.039   2.845
65280W        W29004  31.067  28.969   2.836
65281W        W29005  18.721  42.028   3.831
65282W        W29006   1.862   0.795   2.341
65283W        W29007  20.107  21.025  10.618
65284W        W29008  27.543  29.016  12.577
65285W        W29009  37.831  30.628  12.884
65286W        W29010   4.930  43.488   3.357
65287W        W29011   6.373  16.725  13.035
65288W        W29012  31.028  16.257   3.768
65289W        W29013  11.177  10.310  14.826
65290W        W29014  40.807   1.303  10.610
65291W        W29015   7.287   4.789   4.229
65292W        W29016  20.757  40.355   1.234
65293W        W29017  26.078  34.559  13.522
65294W        W29018  38.363  39.454   4.729
65295W        W29019  37.572  32.473   2.220
65296W        W29020  29.044  26.054   2.190
65297W        W29021  13.732   8.729   3.718
65298W        W29022  29.580  32.412   0.246
65299W        W29023  19.573  32.953  11.038
65300W        W29024  19.217   3.941   2.840
65301W        W29025  19.621  20.251  11.874
65302W        W29026   4.799  15.725  10.604
65303W        W29027  31.565  33.014   1.283
65304W        W29028  33.405  23.177   2.181
65305W        W29029  26.575  24.584  13.384
65306W        W29030  38.441   3.324  13.791
65307W        W29031  38.075  13.779   2.845
65308W        W29032  44.911  30.958   3.227
65309W        W29033  21.102  16.296   2.767
65310W        W29034  32.993   2.838  11.975
65311W        W29035  27.970  30.436   0.245
65312W        W29036  31.006  18.247  14.459
65313W        W29037  13.229  10.852  14.437
65314W        W29038  31.115  24.142  13.415
65315W        W29039  21.190  31.931  14.771
65316W        W29040   2.315   2.467  13.858
65317W        W29041  18.646   2.901   1.435
65318W        W29042  32.891  30.121  14.013
65319W        W29043  37.930  40.887  14.404
65320W        W29044  33.063  29.664   0.732
65321W        W29045  18.710  41.943  12.426
65322W        W29046  27.611   9.764  14.430
65323W        W29047  35.538  42.331  12.986
65324W        W29048  24.125  11.751   1.867
65325W        W29049  21.169   9.715  13.470
65326W        W29050  27.485  31.909  13.425
65327W        W29051  14.738  22.118  14.027
65328W        W29052  23.562  23.106   0.901
65329W        W29053  41.391  19.127  12.371
65330W        W29054  27.082  20.611   2.792
65331W        W29055  24.502  13.258   1.447
65332W        W29056  25.135  26.581  11.898
65333W        W29057  21.110  25.542  14.910
65334W        W29058  26.130  42.513  11.103
65335W        W29059   0.483  12.216  13.312
65336W        W29060   0.442  34.119  12.517
65337W        W29061   9.847  39.944   2.249
65338W        W29062  41.400  31.556   3.650
65339W        W29063  19.122  14.277   9.987
65340W        W29064  23.695  43.373   4.201
65341W        W29065  36.426  29.506   4.676
65342W        W29066  41.004  31.923  13.497
65343W        W29067  27.501   1.374   3.634
65344W        W29068  39.439  19.234  10.417
65345W        W29069  21.711  39.061  12.905
65346W        W29070   8.888  10.196  11.120
65347W        W29071  38.839  26.630  13.536
65348W        W29072   4.340  41.402  11.870
65349W        W29073   5.932  27.013  12.893
65350W        W29074  23.107   9.764   3.324
65351W        W29075  31.461  30.540   2.228
65352W        W29076  40.900   2.444  10.614
65353W        W29077  23.229  30.533  10.904
65354W        W29078  41.477  33.001  13.038
65355W        W29079  27.681  35.007   2.341
65356W        W29080  42.910  28.052  10.987
65357W        W29081  13.217  44.801  11.032
65358W        W29082  26.465  26.543   5.125
65359W        W29083  40.378   3.276   5.294
65360W        W29084  22.693   2.894   4.281
65361W        W29085  44.444  26.517   3.197
65362W        W29086  12.215  11.853  10.956
65363W        W29087  14.618  18.107   3.153
65364W        W29088   0.797  19.707  12.983
65365W        W29089  34.024  21.592   2.417
65366W        W29090  35.592  17.164  13.546
65367W        W29091   4.712   6.291  13.048
65368W        W29092   8.745  20.127   0.277
65369W        W29093  15.720  16.603   4.723
65370W        W29094   0.897  40.458   2.386
65371W        W29095  40.324  28.675   4.329
65372W        W29096  31.636  33.437   0.742
65373W        W29097  35.077  44.010   4.126
65374W        W29098   9.689  19.586  13.935
65375W        W29099  40.895  36.408  12.913
65376W        W29100  21.118  19.161   2.799
65377W        W29101  35.463  28.654  14.866
65378W        W29102   0.863   0.945  10.994
65379W        W29103  33.599  37.351  12.575
65380W        W29104  44.336  27.140  13.315
65381W        W29105   3.272  15.713   0.358
65382W        W29106  16.122   3.329   3.676
65383W        W29107   4.282   3.410  11.561
65384W        W29108  32.499  21.697  14.438
65385W        W29109  44.766  35.996   3.184
65386W        W29110  17.124  29.104  11.382
65387W        W29111  23.579  43.899   0.892
65388W        W29112  21.200  25.976   0.342
65389W        W29113  33.053  34.985  11.440
65390W        W29114  28.511  15.103  12.360
65391W        W29115  10.845   0.254  11.043
65392W        W29116  40.939   3.829   2.847
65393W        W29117  44.299  18.282   2.704
65394W        W29118  15.816  17.234  12.488
65395W        W29119  14.644   2.853  11.505
65396W        W29120  31.442   8.193  10.941
65397W        W29121   8.184   1.457  11.977
65398W        W29122  26.168  44.769   2.807
65399W        W29123  29.626  25.048   1.780
65400W        W29124   8.760  31.585   2.852
65401W        W29125  21.579  23.183  13.886
65402W        W29126  15.259  35.011   0.377
65403W        W29127  15.238  10.768   0.886
65404W        W29128   6.708  40.870   1.447
65405W        W29129  39.526  16.652   3.190
65406W        W29130  23.192  29.644   5.765
65407W        W29131   4.916  22.659   3.735
65408W        W29132  19.129  34.487   0.245
65409W        W29133  10.382  24.658  10.600
65410W        W29134  40.812  22.574   3.793
65411W        W29135  19.779  36.997  11.523
65412W        W29136   9.875  38.888   3.792
65413W        W29137  30.523  35.958  10.545
65414W        W29138  29.923  18.623   0.831
65415W        W29139  30.467  40.325   1.446
65416W        W29140  33.391  43.318   4.283
65417W        W29141  23.634  22.125   1.324
65418W        W29142  39.386  36.463  12.382
65419W        W29143  32.491   5.361   4.656
65420W        W29144  18.129  37.438  11.441
65421W        W29145  23.603   0.963   4.729
65422W        W29146  19.166  24.646   1.889
65423W        W29147  21.132  43.922   4.669
65424W        W29148  27.192  25.502  13.356
65425W        W29149   5.318  33.940  12.969
65426W        W29150  28.173  38.480  13.899
65427W        W29151  32.549  20.255   2.413
65428W        W29152  39.958  39.330  14.502
65429W        W29153  31.108  42.290   1.744
65430W        W29154   4.411  21.585  11.399
65431W        W29155  22.679  35.991  14.798
65432W        W29156  10.199  15.220   5.281
65433W        W29157  34.018  11.318   3.866
65434W        W29158   5.794   2.292  12.962
65435W        W29159  34.456   6.725   2.343
65436W        W29160  40.887  19.193  12.926
65437W        W29161   9.775  12.778  10.933
65438W        W29162  28.114  33.557   2.757
65439W        W29163  39.485  41.405  13.853
65440W        W29164   9.336   1.781   4.145
65441W        W29165  28.954  19.230   2.192
65442W        W29166  42.918  25.603   9.660
65443W        W29167  15.206  27.168  13.372
65444W        W29168  40.854   4.751  13.819
65445W        W29169   2.833  20.633   0.953
65446W        W29170  14.259  12.841   2.782
65447W        W29171  32.020  28.521   4.249
65448W        W29172  33.916  13.118   5.622
65449W        W29173  31.575   4.321   1.258
65450W        W29174  40.361  33.579   1.231
65451W        W29175  15.733  11.794   0.473
65452W        W29176   0.825   7.170  11.864
65453W        W29177   7.412   4.830   0.310
65454W        W29178  24.495  11.784   4.816
65455W        W29179  28.656  12.742  14.377
65456W        W29180   2.364  28.617  12.528
65457W        W29181  20.683  24.494   2.791
65458W        W29182   1.744  12.656  14.406
65459W        W29183  34.104  15.674   5.096
65460W        W29184  29.586   7.817  12.981
65461W        W29185  23.135   7.840   1.279
65462W        W29186   1.891   9.365   3.225
65463W        W29187  30.161   2.390  11.376
65464W        W29188   0.931  31.535   1.427
65465W        W29189  33.541  31.455  13.850
65466W        W29190  43.323   6.788  13.849
65467W        W29191  23.692   3.396   0.838
65468W        W29192   7.311  23.643  11.500
65469W        W29193  37.455  40.803   1.450
65470W        W29194  14.728  35.395   0.781
65471W        W29195   3.365   4.819   2.231
65472W        W29196   3.791  28.646   4.825
65473W        W29197  29.173  27.182  11.056
65474W        W29198  24.570  37.957   9.549
65475W        W29199  10.681   3.800   1.267
65476W        W29200  28.024  43.440  10.500
65477W        W29201   6.840  39.004   4.712
65478W        W29202  24.216  40.975  11.426
65479W        W29203   6.335  21.597   4.203
65480W        W29204  32.024  43.808  13.547
65481W        W29205   1.884  19.541   2.898
65482W        W29206  42.888   7.826  11.070
65483W        W29207  20.078  12.840   0.473
65484W        W29208  25.659  12.811   3.210
65485W        W29209  41.371  24.031   5.695
65486W        W29210  11.708   7.171  10.558
65487W        W29211  22.639   5.196   1.420
65488W        W29212   1.283  34.008  11.936
65489W        W29213  25.157  13.235   0.282
65490W        W29214  33.416  42.838   4.319
65491W        W29215   9.267  42.880   1.833
65492W        W29216   3.873  42.980  10.575
65493W        W29217   2.455  41.489   4.730
65494W        W29218   9.698  37.358   3.291
65495W        W29219  26.511  31.630  11.397
65496W        W29220  19.779  20.527  14.872
65497W        W29221  41.442   7.832   2.840
65498W        W29222   8.174  30.109   4.793
65499W        W29223   0.298  19.635   4.768
65500W        W29224  33.954  17.264   3.849
65501W        W29225  39.972   4.296   2.240
65502W        W29226   7.344   4.438   1.745
65503W        W29227  43.965  14.157  14.889
65504W        W29228   4.932  35.108   3.317
65505W        W29229   9.310  17.566  13.505
65506W        W29230   5.206  20.114   3.244
65507W        W29231   8.744  14.714  11.527
65508W        W29232   3.399  44.326  13.980
65509W        W29233  12.686  38.332   2.266
65510W        W29234  14.722  42.982   4.179
65511W        W29235  42.818  32.011   3.270
65512W        W29236  22.627  18.757  13.930
65513W        W29237  40.926  10.648   4.599
65514W        W29238  42.797  26.695  13.946
65515W        W29239  29.476   2.234  11.495
65516W        W29240  26.029  38.477  14.024
65517W        W29241  28.650  10.801   1.727
65518W        W29242   4.420  29.571   3.672
65519W        W29243  25.503  18.602  12.063
65520W        W29244   9.661  39.979  14.989
65521W        W29245   5.864   0.939  11.987
65522W        W29246  28.620  40.462  14.768
65523W        W29247   8.656  26.669   0.819
65524W        W29248   1.454  34.477  11.114
65525W        W29249  28.525  25.653   4.794
65526W        W29250  31.429   6.754  13.431
65527W        W29251   0.929  33.553  10.518
65528W        W29252   4.409  20.065   0.404
65529W        W29253  13.279   6.403   2.773
65530W        W29254  10.826  33.539   1.769
65531W        W29255  20.586  32.426  11.410
65532W        W29256  44.789  34.448   3.794
65533W        W29257  22.147   8.809  14.293
65534W        W29258  37.355   3.353  14.377
65535W        W29259  32.526  41.793  12.549
65536W        W29260   5.789  20.677  11.001
65537W        W29261  14.153   7.273  13.361
65538W        W29262  10.643  36.934  10.612
65539W        W29263   6.880  37.010   3.693
65540W        W29264  35.583  36.498  13.836
65541W        W29265  15.200  44.461   0.936
65542W        W29266  18.201  37.087   2.380
65543W        W29267   7.221  23.226  12.569
65544W        W29268  23.170  16.567  12.514
65545W        W29269   4.904  26.125   4.770
65546W        W29270  19.598  36.906  13.824
65547W        W29271   3.798  25.709  12.860
65548W        W29272  27.981  30.623   3.668
65549W        W29273  39.813  18.755  14.911
65550W        W29274  27.984  25.483  10.629
65551W        W29275   0.356   8.728  13.893
65552W        W29276  42.842   2.735  12.004
65553W        W29277  15.618  36.554  13.521
65554W        W29278  11.746  35.412  11.050
65555W        W29279  10.633  19.594   3.253
65556W        W29280  18.079   4.927  13.950
65557W        W29281  24.588  37.484  12.490
65558W        W29282  24.569  22.049   0.776
65559W        W29283  32.637   1.367  13.988
65560W        W29284  21.129   7.848   1.279
65561W        W29285  35.459   1.976   3.310
65562W        W29286  39.013   8.268   4.723
65563W        W29287  23.113  19.052  12.557
65564W        W29288  16.192   7.795   1.358
65565W        W29289  21.124   2.789  11.581
65566W        W29290  18.672  22.692  10.444
65567W        W29291  27.100   3.328  11.441
65568W        W29292  20.112  12.686  10.907
65569W        W29293   0.399  28.589  14.427
65570W        W29294  39.919  42.488   5.134
65571W        W29295  43.783  31.566  12.035
65572W        W29296  12.721  36.521   3.735
65573W        W29297   1.963  31.952   4.334
65574W        W29298  14.768  26.068  11.513
65575W        W29299  14.142  14.693  11.978
65576W        W29300  34.586  44.922  13.422
65577W        W29301  22.681  39.913  14.324
65578W        W29302  13.716   3.748  12.032
65579W        W29303  33.121  17.127  12.856
65580W        W29304  44.006  15.674   4.303
65581W        W29305   3.336  16.215  11.006
65582W        W29306   4.735  44.826   4.629
65583W        W29307   1.823  30.588  12.970
65584W        W29308  26.952  31.604  14.876
65585W        W29309  27.651  44.301  11.022
65586W        W29310  32.907  17.582   1.731
65587W        W29311  28.531  19.701   1.760
65588W        W29312  37.426  22.539   4.786
65589W        W29313  20.659  38.872   1.868
65590W        W29314  42.509   3.312   1.842
65591W        W29315  13.807  40.333   3.263
65592W        W29316   3.895   3.774  12.443
65593W        W29317  18.200  31.097  13.042
65594W        W29318  16.207  35.903   1.737
65595W        W29319  12.695  13.827   4.658
65596W        W29320  25.151  35.415  10.500
65597W        W29321   3.881  39.876  10.594
65598W        W29322  39.428   5.302   2.252
65599W        W29323  28.163  32.633  13.518
65600W        W29324   0.402  31.089  14.484
65601W        W29325   4.415  33.011   4.750
65602W        W29326   3.291  25.670  13.063
65603W        W29327  32.535  21.758   3.786
65604W        W29328  33.010   6.700   2.239
65605W        W29329  42.352   7.244  14.468
65606W        W29330  11.748   2.922   2.846
65607W        W29331  34.469  35.034   4.759
65608W        W29332   3.946  16.766  13.488
65609W        W29333  25.591  27.150   1.893
65610W        W29334   6.745  25.204  12.515
65611W        W29335  25.554   1.244   4.337
65612W        W29336   6.808  33.930   3.205
65613W        W29337   9.327   0.414   2.369
65614W        W29338  40.311  26.566  12.062
65615W        W29339  16.135  16.125  10.427
65616W        W29340  26.480  23.494  11.988
65617W        W29341   7.910  26.700  10.916
65618W        W29342  23.540  38.841   3.235
65619W        W29343  28.629   2.754   4.308
65620W        W29344  27.620   2.909  10.978
65621W        W29345  36.978  39.823   0.333
65622W        W29346  28.143  28.535  14.380
65623W        W29347  12.268  13.196  11.393
65624W        W29348  37.515   9.188   4.188
65625W        W29349  38.481  25.189  13.389
65626W        W29350   5.784  36.552   1.307
65627W        W29351  18.197  26.541   0.251
65628W        W29352  25.688   5.739   3.821
65629W        W29353  24.025  27.525   9.488
65630W        W29354  33.087  27.537  14.003
65631W        W29355  27.015   5.842   4.676
65632W        W29356  22.006  24.613   0.422
65633W        W29357  33.875  25.027   0.810
65634W        W29358  33.951  10.333  11.912
65635W        W29359   1.407  43.789  11.495
65636W        W29360  35.555  10.654   0.309
65637W        W29361  11.221  22.639  14.866
65638W        W29362  40.304   6.765  11.095
65639W        W29363  32.411   5.799   2.233
65640W        W29364  44.812  12.314   4.232
65641W        W29365   3.328  33.907  14.383
65642W        W29366  31.461  37.466  13.390
65643W        W29367  38.909  11.749  13.497
65644W        W29368  43.459   1.806   2.221
65645W        W29369  22.193   6.355   3.219
65646W        W29370  12.310  38.969  12.854
65647W        W29371  35.365  13.134   3.371
65648W        W29372  24.071  30.165   9.647
65649W        W29373  28.074  10.719   4.220
65650W        W29374  32.436  33.625  10.078
65651W        W29375  24.592  41.525   1.769
65652W        W29376  19.285  38.362   4.200
65653W        W29377   3.918  12.690   2.292
65654W        W29378  41.912  42.877   0.747
65655W        W29379  41.389  13.333   3.153
65656W        W29380  40.330  35.547  11.398
65657W        W29381  14.136  44.336   3.808
65658W        W29382  39.404   9.697  10.889
65659W        W29383  19.777  14.306   2.278
65660W        W29384   4.941   7.694  11.980
65661W        W29385  19.655  30.916  14.792
65662W        W29386   0.365  31.152   1.343
65663W        W29387   9.794  42.462  10.972
65664W        W29388  24.045  34.985   4.703
65665W        W29389   7.211  37.052   4.315
65666W        W29390  32.076  30.474   5.322
65667W        W29391  25.609  10.239  13.465
65668W        W29392  22.602  16.638  10.154
65669W        W29393  34.040  33.566   0.289
65670W        W29394  25.519  32.991  13.445
65671W        W29395  11.136  40.368   2.737
65672W        W29396  12.126   0.458  10.474
65673W        W29397   1.803  35.438   0.764
65674W        W29398   2.941   1.411   2.387
65675W        W29399  24.600  41.788   1.343
65676W        W29400  27.183  17.144   1.717
65677W        W29401   8.199  27.603   1.342
65678W        W29402  10.335  24.502  11.972
65679W        W29403  20.597   4.884  10.574
65680W        W29404   5.215  27.132  13.457
65681W        W29405  17.789   4.866   5.276
65682W        W29406  34.613  30.129   2.791
65683W        W29407  24.209  25.000  13.440
65684W        W29408  13.682  41.372  11.019
65685W        W29409  25.119   2.464   2.692
65686W        W29410  32.993  20.725  11.612
65687W        W29411  35.051   0.253   1.867
65688W        W29412  43.464  43.387  13.018
65689W        W29413  26.954  40.331  12.049
65690W        W29414   9.207  40.477   3.283
65691W        W29415  20.699  40.474  12.500
65692W        W29416  15.122  37.981  12.826
65693W        W29417  25.705  27.552  14.807
65694W        W29418  19.624   6.287   0.369
65695W        W29419  40.966  37.418  13.525
65696W        W29420  16.259  38.340   4.741
65697W        W29421  27.158  38.006  10.512
65698W        W29422  27.541  13.168  12.064
65699W        W29423  12.746  31.637   3.843
65700W        W29424  17.093  11.249  12.384
65701W        W29425   4.315  35.358  14.958
65702W        W29426   6.895  39.925  13.379
65703W        W29427  16.302  36.089  14.417
65704W        W29428  42.284   2.322  12.532
65705W        W29429  14.246  42.882   1.859
65706W        W29430   1.865  15.780   4.747
65707W        W29431  43.412  39.960   1.708
65708W        W29432  22.660  29.478   1.810
65709W        W29433  19.730   7.793   0.273
65710W        W29434  26.065  22.035   1.219
65711W        W29435   4.327  30.615   2.897
65712W        W29436  33.588  13.161   2.759
65713W        W29437  43.282  33.397  11.975
65714W        W29438   4.286  33.442   0.312
65715W        W29439   5.210  27.030   3.375
65716W        W29440  16.622  33.953   4.199
65717W        W29441  31.081  24.179  11.504
65718W        W29442  43.831  11.133  11.954
65719W        W29443   1.883  37.038  13.400
65720W        W29444  19.770  22.104  13.456
65721W        W29445  34.066  29.428   1.378
65722W        W29446  25.978  37.850  11.022
65723W        W29447  35.561  19.186   1.926
65724W        W29448  32.142  35.582   3.164
65725W        W29449  13.235  32.974   1.931
65726W        W29450  31.479  37.966   3.848
65727W        W29451  27.025  21.188  11.869
65728W        W29452  35.377  29.507   3.708
65729W        W29453   0.267  39.058  11.446
65730W        W29454  28.563  26.179   0.313
65731W        W29455  25.062   8.890  14.792
65732W        W29456  43.320   0.827   2.209
65733W        W29457  13.713  36.352   0.960
65734W        W29458  39.904  23.663  11.393
65735W        W29459  10.809  12.756   0.818
65736W        W29460  41.303  33.446   9.958
65737W        W29461  31.897  41.382  10.517
65738W        W29462  41.881   7.281   3.766
65739W        W29463  38.920  40.470  13.360
65740W        W29464  42.408  18.116   1.352
65741W        W29465  36.001  17.277   1.276
65742W        W29466  23.619  16.310  11.509
65743W        W29467   7.244  22.027   3.818
65744W        W29468  12.153  22.626  12.833
65745W        W29469  42.462  33.977  12.016
65746W        W29470  21.706  27.039  11.593
65747W        W29471  19.675   1.309  14.840
65748W        W29472  25.044  19.617  12.882
65749W        W29473  22.574  31.008  11.434
65750W        W29474   2.418  14.591  10.889
65751W        W29475  16.157   1.916   4.663
65752W        W29476  41.987  15.329   0.287
65753W        W29477  14.738  22.622   3.786
65754W        W29478  35.052  26.180  11.511
65755W        W29479  11.690  18.181   3.784
65756W        W29480   1.477   8.870  12.066
65757W        W29481  17.112  21.560  10.546
65758W        W29482   9.203  28.002  13.997
65759W        W29483  43.880  10.374   2.850
65760W        W29484   6.249  14.119  13.490
65761W        W29485  35.498  37.337  14.907
65762W        W29486  11.209  19.696  14.346
65763W        W29487  29.016   0.434   3.654
65764W        W29488  42.291  41.307  10.157
65765W        W29489  39.499  41.297   4.794
65766W        W29490  42.284  13.642   3.200
65767W        W29491  14.740  27.021  13.851
65768W        W29492  24.532  25.475   2.335
65769W        W29493  33.460  38.925   0.383
65770W        W29494  25.006   1.916   2.387
65771W        W29495  19.130  13.125  14.759
65772W        W29496  14.687  10.727   1.287
65773W        W29497   6.749  38.038  13.353
65774W        W29498  34.446  31.153  10.616
65775W        W29499  24.556  28.991  13.883
65776W        W29500  34.903  40.909   3.358
65777W        W29501  20.691  15.237  11.496
65778W        W29502  17.167   7.334   9.991
65779W        W29503  17.301  35.019   0.903
65780W        W29504   9.836  33.988   4.159
65781W        W29505  19.042  33.617  10.551
65782W        W29506  19.197  43.959  13.030
65783W        W29507  13.232   0.857  14.326
65784W        W29508  34.593  17.232  10.495
65785W        W29509   0.790  12.676  12.416
65786W        W29510  31.579   9.229   2.360
65787W        W29511  23.079  36.881  13.845
65788W        W29512  15.209  41.383  11.400
65789W        W29513  11.630  24.671   0.307
65790W        W29514  31.414   8.239   3.271
65791W        W29515  22.534  16.158   0.885
65792W        W29516  28.957  35.577   4.617
65793W        W29517  22.724  38.033   5.119
65794W        W29518  15.090  42.321  12.414
65795W        W29519   2.322  20.650   3.754
65796W        W29520  17.593  11.231   2.700
65797W        W29521   7.313  33.459  11.933
65798W        W29522  43.919   0.279   3.686
65799W        W29523   7.789  34.077  14.485
65800W        W29524  15.679  43.004  11.878
65801W        W29525  29.582  35.070   3.260
65802W        W29526  18.697  43.503   3.209
65803W        W29527  16.597   1.462   2.806
65804W        W29528   5.402  29.540   3.171
65805W        W29529   7.745   7.218  11.857
65806W        W29530  41.335   9.181   4.781
65807W        W29531   2.253  36.439  11.538
65808W        W29532  35.080  29.509   0.340
65809W        W29533  28.618  24.703   0.878
65810W        W29534  41.534  12.812   1.728
65811W        W29535  24.211   0.767   5.110
65812W        W29536  41.292  35.550   1.716
65813W        W29537  36.483   1.873   2.271
65814W        W29538  36.069   7.719  13.927
65815W        W29539  39.325  29.116  13.946
65816W        W29540  43.400  40.396   3.159
65817W        W29541  43.363  36.979  11.970
65818W        W29542  16.284   2.251   3.256
65819W        W29543   2.821  37.492   4.787
65820W        W29544  40.936  14.793  14.306
65821W        W29545  12.648  28.491  14.019
65822W        W29546   9.385  18.138  11.459
65823W        W29547  42.818  14.646  11.069
65824W        W29548  23.612   0.761   1.726
65825W        W29549   1.936   9.208  12.481
65826W        W29550   7.677  32.086  10.603
65827W        W29551  20.072  20.181  12.998
65828W        W29552  30.654  11.717   0.375
65829W        W29553  40.843  43.795  11.395
65830W        W29554  33.118   4.413  11.988
65831W        W29555  31.499  18.257  13.483
65832W        W29556  17.687   2.285   3.653
65833W        W29557   0.299  33.566   4.738
65834W        W29558  40.387  31.093   0.286
65835W        W29559  42.976  39.917  10.116
65836W        W29560  12.296  27.159   3.688
65837W        W29561  19.691   0.902   4.717
65838W        W29562  12.845   2.831  13.469
65839W        W29563   5.315  44.430  13.949
65840W        W29564  15.290  33.440  13.792
65841W        W29565  43.786  24.686  13.057
65842W        W29566  36.409  30.512   5.093
65843W        W29567  18.206  34.992  13.352
65844W        W29568  28.451  37.878   1.431
65845W        W29569  29.154  30.596   4.203
65846W        W29570  13.292   2.431   1.430
65847W        W29571  30.569  40.389   2.740
65848W        W29572  38.879  16.658  10.445
65849W        W29573  22.593  18.557   1.881
65850W        W29574  22.171  29.145  11.957
65851W        W29575  23.519  29.014   0.757
65852W        W29576  23.554  23.524  14.385
65853W        W29577  27.191  38.373   2.865
65854W        W29578  42.462  11.229  13.001
65855W        W29579  16.305  40.808   3.265
65856W        W29580   6.767  41.395   0.433
65857W        W29581   3.737  22.997   1.916
65858W        W29582  41.875   4.204  14.457
65859W        W29583  22.142  38.476   3.180
65860W        W29584  38.884  27.553   2.355
65861W        W29585  13.834   5.390  14.901
65862W        W29586   3.263   3.866   5.242
65863W        W29587  24.559  37.052  10.452
65864W        W29588  25.119  13.228   2.251
65865W        W29589  38.570  26.043   4.250
65866W        W29590  14.277  40.480   0.896
65867W        W29591  39.932  18.143   2.279
65868W        W29592  10.744   5.204   1.340
65869W        W29593   0.874   1.362   2.203
65870W        W29594  14.333  33.932  12.466
65871W        W29595  33.006  18.059  14.999
65872W        W29596  16.080  23.622  13.364
65873W        W29597  22.184  13.210  12.519
65874W        W29598  30.450  33.397   1.405
65875W        W29599   3.337  35.437   1.344
65876W        W29600  23.147   1.424  14.395
65877W        W29601  17.797  10.786  11.883
65878W        W29602   1.850   5.836   1.748
65879W        W29603  36.046   2.936   0.730
65880W        W29604  20.710  38.941   0.932
65881W        W29605  28.456  22.015  10.587
65882W        W29606  30.914  20.750   1.760
65883W        W29607   5.825   5.803  14.454
65884W        W29608  10.146  14.594   2.882
65885W        W29609  18.559   5.285  14.316
65886W        W29610  29.002  31.539   0.762
65887W        W29611  25.151  20.143   2.339
65888W        W29612  19.770  29.040   1.807
65889W        W29613  37.990  30.566   2.197
65890W        W29614  36.545  18.094   3.150
65891W        W29615  44.323  18.275  12.541
65892W        W29616  14.310  26.684  12.570
65893W        W29617   4.789  38.955   1.264
65894W        W29618  20.743  32.024  13.018
65895W        W29619  25.168  18.685   3.242
65896W        W29620  35.949   7.861   5.131
65897W        W29621  36.520  27.170  10.965
65898W        W29622  29.597   0.847   3.384
65899W        W29623  41.368  25.614   5.151
65900W        W29624  32.046  29.424   2.786
65901W        W29625  11.151  37.399   3.281
65902W        W29626  29.958  25.121   3.368
65903W        W29627  37.950  11.828   1.758
65904W        W29628  44.892  34.092   1.226
65905W        W29629  21.141  10.153  14.789
65906W        W29630  11.683   0.368  13.830
65907W        W29631  14.672  44.923   4.652
65908W        W29632  37.358  28.600   1.734
65909W        W29633  35.425   5.336   0.304
65910W        W29634  22.655   8.392  13.931
65911W        W29635  18.149  39.873  11.608
65912W        W29636  33.428  34.120  11.083
65913W        W29637  35.461   0.427   4.673
65914W        W29638  33.998  43.513  13.036
65915W        W29639   2.248  24.070  11.940
65916W        W29640  37.057  30.980  12.393
65917W        W29641   8.163  25.194   0.804
65918W        W29642  42.417  34.561   4.127
65919W        W29643  44.998   0.392   4.190
65920W        W29644  25.976  15.594  11.110
65921W        W29645  25.158  13.264  12.487
65922W        W29646   5.272  30.003  10.602
65923W        W29647  15.202   5.424  14.440
65924W        W29648   4.366  43.835  14.448
65925W        W29649   8.661  25.611  13.391
65926W        W29650  41.511  16.203   2.877
65927W        W29651  29.026  13.750   2.898
65928W        W29652  31.131  36.993   1.741
65929W        W29653   6.258   6.902  14.988
65930W        W29654  23.068   0.938   1.916
65931W        W29655  12.167  31.403   0.295
65932W        W29656  33.380  17.258   2.195
65933W        W29657   6.781  26.553   4.667
65934W        W29658  14.208  36.878  11.923
65935W        W29659  12.239  32.948  12.392
65936W        W29660  29.447  13.778  13.875
65937W        W29661  23.218  24.227   3.851
65938W        W29662   9.712   8.800   2.267
65939W        W29663  41.917   5.763  10.421
65940W        W29664  41.846  16.585  10.561
65941W        W29665   5.689  17.707  13.062
65942W        W29666  41.480  39.915  13.504
65943W        W29667   4.898  16.198   0.271
65944W        W29668   7.909  33.952   3.759
65945W        W29669  16.659  38.913   2.297
65946W        W29670  42.470  11.635   1.896
65947W        W29671  28.657  34.048   3.214
65948W        W29672  18.670   6.365   1.277
65949W        W29673   8.258  36.855   1.830
65950W        W29674   9.374  29.107   4.709
65951W        W29675  21.592   4.316   4.182
65952W        W29676  29.431  42.421   0.833
65953W        W29677  10.384  35.048   5.082
65954W        W29678  20.686   6.782   4.246
65955W        W29679  32.898   3.245  10.430
65956W        W29680  29.613  31.130   0.789
65957W        W29681  19.672   3.264   4.776
65958W        W29682  35.458  40.416   1.857
65959W        W29683   1.395  14.144  14.851
65960W        W29684  23.039   2.834   1.796
65961W        W29685  26.686   9.703  14.276
65962W        W29686  14.300  12.779   1.337
65963W        W29687   2.914  40.389   3.314
65964W        W29688  13.650   2.861  12.580
65965W        W29689  17.252   5.436  14.395
65966W        W29690   9.808  22.212   4.610
65967W        W29691  18.107  23.714   4.261
65968W        W29692  11.332  17.621   4.266
65969W        W29693  39.810  29.428   2.730
65970W        W29694  36.090   8.234  12.073
65971W        W29695  40.831  25.714   4.148
65972W        W29696  27.101  34.057  12.998
65973W        W29697  34.058   0.858   2.786
65974W        W29698  18.713  37.856  12.383
65975W        W29699  23.134  24.200  13.981
65976W        W29700   2.848  17.260  13.418
65977W        W29701   3.353  17.628  10.644
65978W        W29702  18.226  41.451   2.733
65979W        W29703  13.107  25.129  10.003
65980W        W29704  15.802  18.076   3.693
65981W        W29705  26.703  22.575  14.429
65982W        W29706  35.459  39.929   2.187
65983W        W29707  30.941  34.610   0.756
65984W        W29708  34.966  10.743  12.096
65985W        W29709  27.061  21.171  14.769
65986W        W29710  40.506   2.410   2.250
65987W        W29711  42.806   6.353   4.120
65988W        W29712  21.615  23.545  13.376
65989W        W29713   3.865  27.061  12.835
65990W        W29714  16.260  18.763  13.019
65991W        W29715  41.403  11.859  13.963
65992W        W29716  17.214  16.142   4.324
65993W        W29717  23.491  14.128   3.311
65994W        W29718  34.900  22.214  10.918
65995W        W29719  13.307   0.479   0.476
65996W        W29720  10.242   3.863  14.027
65997W        W29721  22.221  21.111   4.270
65998W        W29722  22.733  15.815   2.686
65999W        W29723  28.648  39.347   4.294
66000W        W29724   0.852   7.689   3.844
66001W        W29725  42.385  23.998   0.846
66002W        W29726  33.424  38.350  13.864
66003W        W29727   5.427  15.611  10.634
66004W        W29728   8.373  41.036   3.704
66005W        W29729  27.556   1.292  12.840
66006W        W29730   5.824  41.851   2.267
66007W        W29731   1.816  16.811  14.955
66008W        W29732  11.865   7.731   5.125
66009W        W29733  13.183  18.573   4.655
66010W        W29734  44.276  32.974   3.247
66011W        W29735   0.891  19.127   2.356
66012W        W29736  29.138   6.868  11.063
66013W        W29737  18.166   6.847  11.011
66014W        W29738   6.712  21.726   4.332
66015W        W29739  26.064  44.800  12.868
66016W        W29740   9.276  20.062  14.438
66017W        W29741  19.274  42.302   4.819
66018W        W29742  31.010  17.747  14.488
66019W        W29743  33.005  11.691   4.777
66020W        W29744  20.057  33.016  11.499
66021W        W29745  40.444  11.256  12.538
66022W        W29746  27.574  44.498  14.959
66023W        W29747  10.873   8.278   2.332
66024W        W29748  23.007  13.761   1.834
66025W        W29749  44.351  40.519  10.892
66026W        W29750  40.051  27.987  10.644
66027W        W29751  10.666  41.800   4.225
66028W        W29752  39.990  15.187   0.812
66029W        W29753  15.210  40.504   4.624
66030W        W29754  16.643   9.769   2.788
66031W        W29755   9.717  25.208  14.772
66032W        W29756  10.780  24.208  14.344
66033W        W29757   2.338  36.470   3.299
66034W        W29758  40.892  32.482  12.871
66035W        W29759  24.073  29.152  12.406
66036W        W29760  27.497   6.239   2.325
66037W        W29761  25.147  14.768  11.506
66038W        W29762  22.594  43.926   0.292
66039W        W29763  22.650  11.330   3.222
66040W        W29764  39.523  28.090   1.303
66041W        W29765  38.926  31.441  14.974
66042W        W29766   9.838  43.882  14.946
66043W        W29767  14.197  34.529   2.185
66044W        W29768  27.690  13.656   2.232
66045W        W29769  36.419  42.468  14.776
66046W        W29770  40.904  21.589  11.440
66047W        W29771  40.029  23.564  12.462
66048W        W29772  15.311  11.640  10.444
66049W        W29773  44.925   6.204   2.808
66050W        W29774   5.219  25.594  11.505
66051W        W29775  41.928  12.842   1.702
66052W        W29776  25.613  10.845  10.629
66053W        W29777   1.402   9.350  14.828
66054W        W29778  35.923  41.808  12.034
66055W        W29779   6.859  19.253  11.517
66056W        W29780   0.841  24.711  11.398
66057W        W29781  28.564  37.013   1.242
66058W        W29782  21.075  15.327   4.138
66059W        W29783  36.861  31.458  13.387
66060W        W29784  10.797  37.027   4.718
66061W        W29785  25.714  33.397   0.304
66062W        W29786  18.102   9.193   1.379
66063W        W29787  31.990   5.357   0.468
66064W        W29788  10.357  30.074   1.737
66065W        W29789  24.177  25.702   4.127
66066W        W29790  24.530  10.659  11.471
66067W        W29791   2.286   8.187  11.090
66068W        W29792  18.101  23.605   2.412
66069W        W29793  40.864  37.363  12.560
66070W        W29794  17.164  39.889   3.686
66071W        W29795  22.151  20.260   4.668
66072W        W29796  42.921  44.897  14.361
66073W        W29797  19.623  16.757   9.646
66074W        W29798  42.413  36.494   3.385
66075W        W29799  37.516  30.979   0.860
66076W        W29800  37.387  20.056   2.717
66077W        W29801  38.993   5.381  11.520
66078W        W29802  29.946   8.269   0.252
66079W        W29803  17.076  17.239   4.266
66080W        W29804  10.240  33.955  13.890
66081W        W29805  24.996  35.894   2.188
66082W        W29806  30.975  20.147   2.287
66083W        W29807  19.752  21.255   5.145
66084W        W29808   1.309  38.561  14.942
66085W        W29809   9.837   8.895  14.462
66086W        W29810  12.727   0.798  13.510
66087W        W29811  29.504  18.785  11.876
66088W        W29812  25.590  14.768   2.231
66089W        W29813   0.870  29.995   2.198
66090W        W29814   8.278   4.900  14.031
66091W        W29815   8.867  34.506   3.781
66092W        W29816   4.307  15.244  11.502
66093W        W29817  38.470  12.229   0.265
66094W        W29818  42.442  27.054   3.827
66095W        W29819   7.856  42.504  13.501
66096W        W29820  34.556  37.897  11.447
66097W        W29821  14.755  21.749   3.226
66098W        W29822   5.740  29.468  14.286
66099W        W29823   7.820   9.848  11.875
66100W        W29824  14.789  26.158   4.786
66101W        W29825  21.732   6.235   1.230
66102W        W29826  16.663   7.731  14.031
66103W        W29827   1.245  38.059  14.421
66104W        W29828  17.305  32.997   0.826
66105W        W29829  37.063  29.042   4.700
66106W        W29830  32.542  10.672  12.981
66107W        W29831  26.089  40.928   1.934
66108W        W29832  12.654  19.096  14.016
66109W        W29833  21.051  25.478  12.473
66110W        W29834  25.508   0.362   3.793
66111W        W29835  40.339  28.580  14.007
66112W        W29836  19.590   0.894  12.028
66113W        W29837  11.131  39.022  14.296
66114W        W29838  20.199  16.691  14.844
66115W        W29839  14.713  28.532  11.597
66116W        W29840   1.314  24.649  11.458
66117W        W29841  21.571   8.265  14.922
66118W        W29842  42.515  19.214  10.518
66119W        W29843  34.596  19.669  12.076
66120W        W29844   5.799  34.086   0.284
66121W        W29845  35.468   3.953  14.487
66122W        W29846  12.817  44.477  13.452
66123W        W29847  44.010   6.687  14.788
66124W        W29848  35.396  22.175   1.285
66125W        W29849  23.129   6.354   4.628
66126W        W29850  17.075   6.901  10.035
66127W        W29851  37.972  18.106  12.576
66128W        W29852  10.141   1.432   4.779
66129W        W29853  28.561  28.555   3.195
66130W        W29854  21.678  43.984   2.705
66131W        W29855  20.270  42.867   3.350
66132W        W29856  41.816  28.109  10.895
66133W        W29857   7.911  44.834  10.582
66134W        W29858  37.840  41.321  13.050
66135W        W29859  33.390  26.507   0.457
66136W        W29860  22.706  17.273   3.769
66137W        W29861   6.780  43.845  12.405
66138W        W29862  43.976  29.662  10.920
66139W        W29863   8.197  28.454  12.853
66140W        W29864   8.893   2.781   2.345
66141W        W29865   7.398   0.273  11.894
66142W        W29866  41.492  20.612  14.491
66143W        W29867  36.044   6.696  11.508
66144W        W29868  38.565  27.159   3.755
66145W        W29869  31.907  26.136  11.593
66146W        W29870  42.513  42.282   4.310
66147W        W29871   5.291  23.009  14.901
66148W        W29872  12.126  43.494  12.089
66149W        W29873  10.800  33.492   3.278
66150W        W29874  19.554   7.761  11.530
66151W        W29875  44.807   5.884   3.252
66152W        W29876  14.142  25.151  13.008
66153W        W29877  27.068  34.008   0.354
66154W        W29878  37.026  11.262   2.706
66155W        W29879  38.368   4.869   1.250
66156W        W29880  31.500  23.147  13.439
66157W        W29881  43.507  30.547  12.544
66158W        W29882   4.297  24.710   2.192
66159W        W29883  39.323   3.912   2.736
66160W        W29884   4.393  43.780   2.733
66161W        W29885  15.323  15.114   4.171
66162W        W29886  10.809  22.189  11.944
66163W        W29887  18.705   4.311  14.948
66164W        W29888   9.746   1.757  14.365
66165W        W29889   1.835  10.709  11.867
66166W        W29890  20.591  19.656  13.384
66167W        W29891  21.650  25.489  14.422
66168W        W29892   6.182   9.721   1.869
66169W        W29893  13.616  29.923   2.801
66170W        W29894   8.838  32.010   3.747
66171W        W29895  10.845  39.869   0.880
66172W        W29896  33.585  27.685   1.285
66173W        W29897   6.350  44.362  13.800
66174W        W29898  24.671  18.772  11.035
66175W        W29899  30.576  41.872  10.510
66176W        W29900  34.998   2.805  12.556
66177W        W29901   2.771  15.130  10.585
66178W        W29902  11.247  43.511   0.397
66179W        W29903  24.668  26.465   5.121
66180W        W29904  36.447  21.258   5.182
66181W        W29905  20.621  38.395   4.693
66182W        W29906  14.706  43.400  12.950
66183W        W29907   9.385   1.918  14.774
66184W        W29908  11.841  23.663  11.528
66185W        W29909   1.870  33.609   4.600
66186W        W29910  24.693   5.779  11.494
66187W        W29911   5.241  16.694   3.184
66188W        W29912  34.120  18.279  11.441
66189W        W29913   5.305  28.084   1.924
66190W        W29914   4.739  26.466  13.442
66191W        W29915  10.148  35.602   4.194
66192W        W29916  24.157  26.572   0.927
66193W        W29917  20.199  40.988   2.714
66194W        W29918  14.239  33.968   2.755
66195W        W29919  33.070   2.466   1.903
66196W        W29920  37.059  14.690   0.245
66197W        W29921  27.046   1.440  14.489
66198W        W29922  37.898  11.365   1.811
66199W        W29923  29.527  34.390  10.481
66200W        W29924  43.910  31.910   4.834
66201W        W29925  39.966  13.751   3.221
66202W        W29926   4.795   3.857   0.876
66203W        W29927  39.478  24.591  13.029
66204W        W29928  24.165   6.907  10.579
66205W        W29929   3.225   0.837  13.991
66206W        W29930   8.867   6.317  10.549
66207W        W29931  24.063   3.274   0.436
66208W        W29932  28.958  44.394   1.843
66209W        W29933  30.990  11.624   3.772
66210W        W29934   1.782  14.739   4.713
66211W        W29935   3.402  22.031  10.959
66212W        W29936  22.726  44.321   5.266
66213W        W29937  13.788  39.949  14.435
66214W        W29938  29.461  18.597   3.274
66215W        W29939  43.874  36.036   3.293
66216W        W29940  14.681  13.278  10.610
66217W        W29941  25.704  39.981   0.748
66218W        W29942  18.168  41.320  14.011
66219W        W29943  11.762   3.242  14.323
66220W        W29944   5.755  17.238   3.335
66221W        W29945  15.751   5.692   2.366
66222W        W29946  43.925  32.976  10.985
66223W        W29947  24.977  24.154  14.772
66224W        W29948  29.093  41.413  10.950
66225W        W29949  38.983  19.181  14.913
66226W        W29950   4.310  10.215  11.382
66227W        W29951  44.887   2.924  12.923
66228W        W29952   2.392  31.004  10.487
66229W        W29953  12.121  40.444   1.805
66230W        W29954  35.005  25.970   0.761
66231W        W29955  24.082   7.328   0.841
66232W        W29956  20.118  30.990  14.315
66233W        W29957  39.047  44.266  11.031
66234W        W29958  21.240   6.308   5.244
66235W        W29959  33.973  37.831  12.441
66236W        W29960  15.133  19.082  12.510
66237W        W29961  39.317  10.680   4.185
66238W        W29962  25.552  16.668   3.717
66239W        W29963  21.624  43.009  12.063
66240W        W29964  23.121  22.050  12.446
66241W        W29965  26.636  27.647  12.014
66242W        W29966  42.344  10.144   3.374
66243W        W29967  15.277  37.859   3.162
66244W        W29968  36.074  24.987  10.446
66245W        W29969  43.776  10.872   3.771
66246W        W29970  10.724  21.143   1.358
66247W        W29971  12.778  33.599  12.558
66248W        W29972  22.027  10.277  12.430
66249W        W29973  16.594  11.196  11.903
66250W        W29974  42.784  11.196   4.251
66251W        W29975  24.611   0.957  11.401
66252W        W29976  26.972  19.108   1.902
66253W        W29977  41.479   5.405   4.275
66254W        W29978  18.202  25.039  11.894
66255W        W29979  37.023  25.708  13.817
66256W        W29980  40.439   8.257   2.331
66257W        W29981   0.849  21.126   0.917
66258W        W29982  10.834  32.125   0.398
66259W        W29983  27.147   7.309  10.545
66260W        W29984  12.724  34.867  12.997
66261W        W29985  37.834  42.491   4.771
66262W        W29986  30.135  38.422   3.374
66263W        W29987  36.058   1.463  12.552
66264W        W29988   1.967  42.491   1.788
66265W        W29989   4.756   3.290  11.414
66266W        W29990   7.701  41.485   0.728
66267W        W29991   9.667  39.362   1.808
66268W        W29992   9.846   2.287  11.484
66269W        W29993  38.896  18.086   4.781
66270W        W29994  23.195   3.392   3.152
66271W        W29995   3.344  38.356  13.978
66272W        W29996  18.763   5.853   2.863
66273W        W29997  11.795   2.832   4.131
66274W        W29998  37.568  29.570  14.958
66275W        W29999   7.902  18.675   2.786
66276W        W30000  35.521  16.656   3.260
66277W        W30001   0.418  14.599   2.280
66278W        W30002   9.787  32.587  13.860
66279W        W30003  30.510  36.588   4.822
66280W        W30004  21.569  18.698  11.928
66281W        W30005  23.571  30.460   2.336
66282W        W30006   6.688  31.990  11.914
66283W        W30007  10.309  21.231  13.859
66284W        W30008  16.110   9.176  10.435
66285W        W30009  11.845  27.140   0.779
66286W        W30010  39.462   1.917  14.008
66287W        W30011  26.583  29.656   0.962
66288W        W30012  24.220  16.281   2.762
66289W        W30013   9.885   5.710  13.439
66290W        W30014   4.907  36.404  12.012
66291W        W30015  30.967  11.726   4.681
66292W        W30016  30.145  17.641  14.297
66293W        W30017  33.102   7.678   0.848
66294W        W30018  11.683  30.945   2.289
66295W        W30019  17.207  40.309   1.259
66296W        W30020  30.145  30.027   1.859
66297W        W30021  29.587  40.333   0.955
66298W        W30022  12.701  39.412   0.345
66299W        W30023  21.680  39.494  14.351
66300W        W30024  23.680  24.177   3.733
66301W        W30025  15.169  39.337  13.446
66302W        W30026  25.184  22.135  10.580
66303W        W30027  22.598  33.970   2.371
66304W        W30028  12.696   1.843  12.574
66305W        W30029   0.808  31.584   0.908
66306W        W30030  43.422  41.879  10.136
66307W        W30031  39.392  23.645   4.181
66308W        W30032  12.274  37.476  10.143
66309W        W30033  32.506  39.517  12.892
66310W        W30034  36.858  10.213  13.525
66311W        W30035  18.109  26.123  14.285
66312W        W30036  37.531  32.622   1.750
66313W        W30037  35.502  35.104  11.489
66314W        W30038   7.670   3.888  11.549
66315W        W30039  20.729  41.957  11.093
66316W        W30040  10.804  29.172   2.673
66317W        W30041  11.748  20.656   0.315
66318W        W30042  12.845   1.906  10.597
66319W        W30043  27.540  15.749   3.282
66320W        W30044  14.704  25.983  12.429
66321W        W30045  13.799  31.121  11.419
66322W        W30046  18.591   0.449  11.962
66323W        W30047  43.891  35.062  11.993
66324W        W30048   3.319  27.086  14.467
66325W        W30049   9.775  28.448  14.388
66326W        W30050  21.550  16.311   1.748
66327W        W30051  35.027  37.401  12.535
66328W        W30052  33.393  40.468   2.824
66329W        W30053  15.166  25.216   4.826
66330W        W30054  16.790  32.122  13.454
66331W        W30055  18.787  39.821  11.034
66332W        W30056   8.767   1.465  14.950
66333W        W30057  43.332   5.925  14.848
66334W        W30058  22.585  42.419  12.849
66335W        W30059   3.379  19.705   1.897
66336W        W30060  15.579  35.492  13.000
66337W        W30061  39.331  43.011   1.374
66338W        W30062  44.829  16.251  12.532
66339W        W30063  27.549  11.190   9.991
66340W        W30064   2.462  17.300   1.837
66341W        W30065  40.908   9.167   0.896
66342W        W30066  33.948  17.071   0.842
66343W        W30067  41.870   4.339   2.401
66344W        W30068  17.563  21.631   1.796
66345W        W30069  36.372  42.006   4.711
66346W        W30070  44.883  36.454  14.468
66347W        W30071  14.764   7.778  14.986
66348W        W30072  25.015  40.361  12.923
66349W        W30073   4.222  20.048   1.268
66350W        W30074  24.049  27.648  14.000
66351W        W30075  16.679  26.141  10.441
66352W        W30076  26.606   6.256   3.336
66353W        W30077  30.092  35.596   1.370
66354W        W30078  31.404  27.682  14.770
66355W        W30079  25.566  12.654  13.897
66356W        W30080  44.767   0.422  11.064
66357W        W30081   3.226   4.763   5.141
66358W        W30082   2.315  21.217   1.748
66359W        W30083  25.584  12.657   1.749
66360W        W30084  21.075  12.345   0.929
66361W        W30085  23.542  18.069  14.837
66362W        W30086  12.362  35.514  11.451
66363W        W30087  14.197  33.109  14.462
66364W        W30088   7.390  16.624   1.252
66365W        W30089  26.469  27.551   1.327
66366W        W30090  38.340  19.595  10.587
66367W        W30091  41.859  36.981  12.470
66368W        W30092   1.285  17.564   4.142
66369W        W30093  38.985  26.953  12.982
66370W        W30094  11.193  37.877   4.704
66371W        W30095  15.277  35.452  14.787
66372W        W30096  11.274  36.383   2.179
66373W        W30097  37.982  41.378   1.341
66374W        W30098  36.519   7.807   2.253
66375W        W30099  42.951   8.729  13.319
66376W        W30100   3.729  28.532   2.835
66377W        W30101   0.412  43.779   0.450
66378W        W30102  26.129  11.242   1.854
66379W        W30103  38.555   5.907   2.408
66380W        W30104  26.542   1.329   2.213
66381W        W30105   5.235   8.195  11.976
66382W        W30106  40.979  36.359   0.470
66383W        W30107  25.131  20.254   1.307
66384W        W30108  17.778  28.151  10.419
66385W        W30109  32.400   9.878   4.824
66386W        W30110   1.278  21.610  11.982
66387W        W30111  20.101  39.941  14.885
66388W        W30112  10.728  30.561  11.372
66389W        W30113  20.269  12.203   3.216
66390W        W30114   4.802  40.874   3.638
66391W        W30115  16.255  38.953   1.238
66392W        W30116  40.428  41.493   0.727
66393W        W30117  25.487  25.610   0.874
66394W        W30118  12.786  30.100  14.028
66395W        W30119  17.649  11.216   1.908
66396W        W30120  24.211  32.013  12.886
66397W        W30121   3.280   0.314   4.737
66398W        W30122   6.679  21.591   4.698
66399W        W30123  29.562   8.786  12.417
66400W        W30124  38.942  38.420  14.309
66401W        W30125   4.780  30.996  14.783
66402W        W30126  38.841  38.868   2.311
66403W        W30127  22.007   0.892   0.398
66404W        W30128  25.112   3.413   0.909
66405W        W30129   4.820  41.883   0.761
66406W        W30130  25.555   2.364   2.360
66407W        W30131   7.405  42.487   0.726
66408W        W30132   8.841   1.402  14.501
66409W        W30133  44.808  16.130  12.836
66410W        W30134  43.428   0.410   4.745
66411W        W30135  43.371  15.327  14.327
66412W        W30136  30.446  21.676   4.616
66413W        W30137  28.605  33.483   3.704
66414W        W30138  33.470  40.959   2.341
66415W        W30139  33.107  40.413  13.361
66416W        W30140   8.886  21.026   4.721
66417W        W30141  22.662  21.062  12.447
66418W        W30142  34.517   5.295  14.443
66419W        W30143  35.369  40.938  10.501
66420W        W30144   8.163  22.117  10.528
66421W        W30145  30.996   2.312  12.515
66422W        W30146   3.926  14.321   4.188
66423W        W30147  24.008  44.941  10.914
66424W        W30148   0.347  27.134   3.197
66425W        W30149  28.970  32.545   1.707
66426W        W30150  23.211  21.025  10.484
66427W        W30151   2.395  34.588  10.005
66428W        W30152  43.364  32.015  11.921
66429W        W30153  44.473   1.361  11.601
66430W        W30154  34.447   7.404  11.371
66431W        W30155  41.309  31.924  12.355
66432W        W30156  16.106  35.086   2.344
66433W        W30157  31.142  13.622   3.808
66434W        W30158  44.812  26.962   1.933
66435W        W30159  34.022  18.644  10.902
66436W        W30160  21.532  26.661   2.857
66437W        W30161  40.814   8.757   1.375
66438W        W30162  38.526  11.860   0.462
66439W        W30163  30.457   7.188  12.930
66440W        W30164  39.876  32.443   2.199
66441W        W30165  16.730  29.495  12.923
66442W        W30166  44.280  41.828   0.791
66443W        W30167  12.261  33.599   4.179
66444W        W30168   5.194  23.629   1.413
66445W        W30169  17.724  39.868  11.469
66446W        W30170  37.966  38.522   2.890
66447W        W30171  27.991  37.964   4.740
66448W        W30172  28.560  38.847   3.800
66449W        W30173  38.444   3.342  10.603
66450W        W30174  43.293   2.359  14.444
66451W        W30175  41.961  37.396  13.519
66452W        W30176  20.574  12.117   0.738
66453W        W30177  31.958  39.479  13.536
66454W        W30178   5.246   7.711   2.230
66455W        W30179  34.599  28.075   1.425
66456W        W30180  40.463   1.407   1.407
66457W        W30181  35.907  39.463  13.836
66458W        W30182  14.691   9.362  11.404
66459W        W30183   0.837  17.153   3.636
66460W        W30184  33.493  31.555   9.967
66461W        W30185   3.934  10.700  14.865
66462W        W30186  37.053  22.718  12.549
66463W        W30187  25.101  39.488   2.682
66464W        W30188  25.072  41.833  11.030
66465W        W30189  43.296  32.960  13.525
66466W        W30190  38.002  21.208   3.298
66467W        W30191  11.301   8.393   1.255
66468W        W30192  44.431  27.691   1.403
66469W        W30193   0.805  24.209   5.103
66470W        W30194  37.526  44.286  13.369
66471W        W30195  30.545   0.853  10.921
66472W        W30196  38.372  28.085   4.770
66473W        W30197  10.342  20.134   4.627
66474W        W30198   4.845  34.106   1.323
66475W        W30199  10.834  30.025  12.387
66476W        W30200  10.241  30.492   4.262
66477W        W30201  20.113   8.344  14.287
66478W        W30202   1.847  38.026  11.506
66479W        W30203  43.976   1.785  11.575
66480W        W30204  26.154  13.171   4.198
66481W        W30205  43.984  38.554  10.555
66482W        W30206   0.420  21.567   4.815
66483W        W30207   6.850   7.742   1.771
66484W        W30208  36.463  33.442  12.500
66485W        W30209  24.017   5.251  12.972
66486W        W30210  21.079   8.240  12.954
66487W        W30211  24.035  28.085  13.862
66488W        W30212   4.327  32.110  13.854
66489W        W30213   2.823  38.042  14.399
66490W        W30214   1.336  23.064   4.725
66491W        W30215  25.167  42.028  13.403
66492W        W30216   2.940  23.155  11.969
66493W        W30217  28.609  35.855  13.866
66494W        W30218  22.660   5.438   0.885
66495W        W30219  11.129  33.603  13.867
66496W        W30220  14.260  41.034  12.356
66497W        W30221  18.082  34.077  12.425
66498W        W30222  29.433  37.902   3.771
66499W        W30223  14.659   4.269  10.439
66500W        W30224  18.199  19.068   2.840
66501W        W30225  21.186   6.426   1.326
66502W        W30226  39.362  17.634   4.122
66503W        W30227  17.069  37.944   4.748
66504W        W30228  41.994  17.624  14.828
66505W        W30229  43.960  43.990  14.275
66506W        W30230  26.671  28.992  12.092
66507W        W30231   7.746  17.068  10.077
66508W        W30232  43.318  36.477   5.752
66509W        W30233  40.472  26.514   3.321
66510W        W30234  12.710   6.795  13.801
66511W        W30235   8.662  39.401  13.913
66512W        W30236  23.185   5.389  11.092
66513W        W30237  11.797   0.367   0.780
66514W        W30238   3.926  43.838   2.753
66515W        W30239  17.062   9.800  13.405
66516W        W30240  28.002  30.421  10.090
66517W        W30241  25.490  44.935   3.375
66518W        W30242   0.781  20.552  11.484
66519W        W30243   6.236  44.890   3.227
66520W        W30244  37.878   5.921   1.305
66521W        W30245  14.262  10.842   2.739
66522W        W30246  43.917  26.052   3.708
66523W        W30247  21.614   0.755   4.238
66524W        W30248  41.801  22.523   2.803
66525W        W30249  39.829  26.151  13.810
66526W        W30250  27.152  13.650   3.155
66527W        W30251  11.683   4.338   0.472
66528W        W30252  23.688   7.738  12.035
66529W        W30253  13.706  25.502  12.915
66530W        W30254  12.254   8.728   1.370
66531W        W30255  12.790  12.228  14.403
66532W        W30256  43.362  30.633   3.247
66533W        W30257  41.039  30.597   3.837
66534W        W30258  25.700   3.921   1.388
66535W        W30259  17.281  22.242   3.797
66536W        W30260  33.496  12.297   4.189
66537W        W30261  28.932  28.160   1.357
66538W        W30262  15.241  42.017   3.659
66539W        W30263  23.078  28.971  14.839
66540W        W30264  26.641  33.533   0.966
66541W        W30265  43.878   6.266  14.900
66542W        W30266  38.874   7.295   0.396
66543W        W30267   8.172  32.524   2.287
66544W        W30268   9.741  13.677   4.277
66545W        W30269  36.976   3.926   1.872
66546W        W30270  22.551  22.654  14.869
66547W        W30271   1.448  44.008  13.803
66548W        W30272   1.375  33.991  14.809
66549W        W30273   4.720  42.968  14.893
66550W        W30274  42.318  18.610   3.243
66551W        W30275  23.205  18.706  12.977
66552W        W30276  18.780  20.640  14.788
66553W        W30277  14.621   3.812   0.922
66554W        W30278  42.852  10.834  10.554
66555W        W30279  43.778  24.200  10.963
66556W        W30280  17.235  16.137  10.446
66557W        W30281  21.520  27.015  10.618
66558W        W30282  28.647  12.345   4.145
66559W        W30283   1.753  21.568  11.065
66560W        W30284  16.188  14.658   5.565
66561W        W30285  13.208  41.814  12.354
66562W        W30286  33.068   3.431   1.775
66563W        W30287  29.589  39.538  13.413
66564W        W30288  34.903  18.671  12.560
66565W        W30289  15.253  14.806   4.171
66566W        W30290  33.890  17.644   0.373
66567W        W30291  14.723  21.620   4.693
66568W        W30292  31.511  42.902   0.917
66569W        W30293  38.465  37.441   3.277
66570W        W30294   1.854  34.568   1.362
66571W        W30295  37.483  17.779   0.898
66572W        W30296  21.610  13.273   3.274
66573W        W30297  41.806   6.374  12.464
66574W        W30298  12.172  17.791   2.393
66575W        W30299  27.501  26.056  11.410
66576W        W30300  10.255  35.856  14.834
66577W        W30301   7.732  22.531  14.498
66578W        W30302   9.186  36.373  11.975
66579W        W30303  37.530   4.297  13.047
66580W        W30304  27.612  21.725  11.506
66581W        W30305  26.552  38.931   1.382
66582W        W30306   2.916  42.858   0.810
66583W        W30307  38.043  31.404  14.824
66584W        W30308  16.708  29.943   3.360
66585W        W30309   3.228  17.768   4.772
66586W        W30310  11.629  39.890  12.532
66587W        W30311  28.503  24.714   2.898
66588W        W30312   7.283  17.200   3.323
66589W        W30313   6.278  38.428   3.813
66590W        W30314   2.386  36.543  12.470
66591W        W30315  17.625  44.992  14.450
66592W        W30316   8.308  26.985  14.356
66593W        W30317  35.906  21.262  13.486
66594W        W30318   1.261  43.847   1.806
66595W        W30319  28.649  34.411  10.636
66596W        W30320  10.192  21.075   5.160
66597W        W30321  19.585   9.709   3.219
66598W        W30322   2.285  28.622  11.449
66599W        W30323  23.212  30.105   3.867
66600W        W30324  24.082  27.573  13.452
66601W        W30325  28.159  28.059   4.616
66602W        W30326  30.432  12.849  11.868
66603W        W30327  17.175  22.150  10.567
66604W        W30328  43.468   4.405   0.732
66605W        W30329   1.962  25.033  11.019
66606W        W30330  16.570  29.433  10.560
66607W        W30331  42.411  12.614   4.711
66608W        W30332   2.824   1.884  11.391
66609W        W30333  14.760   1.967   1.745
66610W        W30334   8.299  43.946  14.418
66611W        W30335  18.157  15.583   1.373
66612W        W30336  29.608  11.824  10.945
66613W        W30337  21.537  44.972   2.286
66614W        W30338  13.295  10.268   1.242
66615W        W30339  22.687  39.037   0.411
66616W        W30340  39.553   3.848  14.006
66617W        W30341  21.644  26.476   4.158
66618W        W30342  34.886  25.530  14.943
66619W        W30343  17.666  17.659   1.427
66620W        W30344  12.627  29.503   3.668
66621W        W30345  41.528   5.214  11.432
66622W        W30346   5.356  38.404   4.141
66623W        W30347  40.963   7.390   2.697
66624W        W30348  34.521  14.643   0.747
66625W        W30349  34.382   1.434  13.022
66626W        W30350  36.919   8.868  11.966
66627W        W30351  27.629  29.968  13.395
66628W        W30352   5.844  36.396  11.413
66629W        W30353  10.755   5.391   2.849
66630W        W30354  32.414  42.794  11.993
66631W        W30355  21.523   1.275  11.897
66632W        W30356  26.460  32.606   4.300
66633W        W30357  44.856  16.646  14.500
66634W        W30358  17.232  12.275  14.979
66635W        W30359  31.098  13.341  14.453
66636W        W30360  44.936  36.974  11.544
66637W        W30361  35.043  37.928   3.870
66638W        W30362  21.524  20.203  10.541
66639W        W30363  21.557  36.534  12.846
66640W        W30364  18.274  25.215   1.296
66641W        W30365  44.408  34.880   2.893
66642W        W30366  44.989   7.216  13.837
66643W        W30367  38.949  38.376   4.212
66644W        W30368  43.288   9.769  11.953
66645W        W30369  18.132  24.607   4.304
66646W        W30370  29.517   5.207   0.910
66647W        W30371  33.565  43.462   0.424
66648W        W30372  38.569  34.898   1.854
66649W        W30373  39.497  33.033  14.005
66650W        W30374  32.959  30.074   4.273
66651W        W30375  11.829   1.426  12.853
66652W        W30376  19.564  16.630  14.909
66653W        W30377  16.209  15.767  13.952
66654W        W30378  12.792  30.521   0.773
66655W        W30379  39.835  44.956  12.929
66656W        W30380   1.759  38.469  14.446
66657W        W30381  23.594   4.731   4.719
66658W        W30382  40.367  10.633  14.367
66659W        W30383   4.309  24.701  14.918
66660W        W30384   7.883  39.348   0.726
66661W        W30385   4.753  35.450  11.502
66662W        W30386  24.144  42.501  11.381
66663W        W30387   2.451  40.428  14.439
66664W        W30388  34.925  42.875  12.366
66665W        W30389  39.021   0.261  11.118
66666W        W30390  35.531  13.152   1.910
66667W        W30391  36.376  18.596  14.944
66668W        W30392  43.945   7.289  12.920
66669W        W30393   7.854   2.346   3.291
66670W        W30394   3.357  39.422   1.265
66671W        W30395   1.467   0.356  14.965
66672W        W30396  29.530  43.783   1.276
66673W        W30397  39.830  29.109  10.545
66674W        W30398  44.330  23.516   2.202
66675W        W30399  38.905  10.322   5.094
66676W        W30400  35.910   8.790   2.275
66677W        W30401  24.045  16.235   4.825
66678W        W30402  15.627  24.062  12.490
66679W        W30403   0.412  10.681   2.868
66680W        W30404   9.364   6.862  13.415
66681W        W30405  12.315  11.621   1.279
66682W        W30406  40.346  35.370   4.128
66683W        W30407  15.242  11.354   4.731
66684W        W30408  13.615  40.048   3.242
66685W        W30409  27.447  24.642  13.497
66686W        W30410  26.648  15.159  10.926
66687W        W30411  12.207  14.196   1.901
66688W        W30412  38.359  26.640  11.884
66689W        W30413  29.006  42.820  14.922
66690W        W30414   1.862  34.520   0.902
66691W        W30415  14.228  42.842  14.327
66692W        W30416  31.460  23.598   3.314
66693W        W30417   9.305  35.494  14.284
66694W        W30418  40.334  42.833   9.517
66695W        W30419  42.799  27.960  12.525
66696W        W30420  32.594  15.305   0.837
66697W        W30421   5.766   1.885   2.860
66698W        W30422   0.365  22.620   3.699
66699W        W30423   7.909  24.140   0.829
66700W        W30424   9.823  10.802   4.183
66701W        W30425  27.638  32.966  14.325
66702W        W30426  20.215  18.164  11.948
66703W        W30427  42.294  22.594  12.435
66704W        W30428  20.620  29.002  12.413
66705W        W30429  43.321  30.640   1.900
66706W        W30430  39.891  26.640  13.328
66707W        W30431  31.958  30.034   3.280
66708W        W30432  16.156  18.720   2.784
66709W        W30433  11.358  34.901   2.267
66710W        W30434  32.625  28.650   1.775
66711W        W30435  30.015   1.911   0.331
66712W        W30436   2.364  28.154   3.355
66713W        W30437   2.257  14.772   3.272
66714W        W30438  16.665   8.775  14.978
66715W        W30439  13.184   6.396   1.296
66716W        W30440  19.241   8.346   0.892
66717W        W30441   7.197  37.413   2.381
66718W        W30442  43.425  25.180  12.443
66719W        W30443  41.428  40.320   0.444
66720W        W30444   5.799  16.609  12.464
66721W        W30445  32.958  10.840  14.981
66722W        W30446  44.917   7.251   3.630
66723W        W30447  33.053  10.759   0.380
66724W        W30448  24.204   1.321   2.855
66725W        W30449  35.542  28.448  13.913
66726W        W30450  40.420  24.055   2.257
66727W        W30451  40.537  27.040   4.259
66728W        W30452   9.806   0.337   4.132
66729W        W30453  11.156   3.392  11.024
66730W        W30454  34.880  13.179  14.952
66731W        W30455   7.322  29.123   3.266
66732W        W30456  10.227  30.072  13.493
66733W        W30457  35.562  28.500   1.275
66734W        W30458  42.914  37.507  14.807
66735W        W30459  13.351  14.303  11.126
66736W        W30460  42.918   7.308   4.116
66737W        W30461  37.942  20.034   3.351
66738W        W30462  35.923  36.022  14.301
66739W        W30463  25.106   3.796   3.319
66740W        W30464  41.419  30.462   2.812
66741W        W30465  10.255  22.665  13.339
66742W        W30466  18.073  42.329   1.818
66743W        W30467   0.864  18.169  13.034
66744W        W30468  28.635  18.245   3.221
66745W        W30469  39.970  18.059   1.820
66746W        W30470   4.258  19.552   2.713
66747W        W30471  32.099  21.724  12.557
66748W        W30472  39.421  31.491   0.951
66749W        W30473  16.612  28.148  14.891
66750W        W30474   2.261  22.125   3.201
66751W        W30475  31.443  37.582   0.306
66752W        W30476  35.014  35.414   0.347
66753W        W30477  15.173  10.728   4.810
66754W        W30478  27.450  11.760   5.256
66755W        W30479  35.973  22.110  13.938
66756W        W30480  16.708  14.799  11.604
66757W        W30481  37.915  40.482   1.798
66758W        W30482   4.919  31.437   4.650
66759W        W30483  36.586   3.232   2.883
66760W        W30484  13.266  38.329  12.051
66761W        W30485  34.056   9.881   0.350
66762W        W30486  43.791  41.360  13.951
66763W        W30487  31.416  41.502   1.451
66764W        W30488  38.940  25.153   2.841
66765W        W30489   9.266  20.147  13.867
66766W        W30490  37.564   2.891  10.617
66767W        W30491  23.632  39.940   3.666
66768W        W30492  12.817  18.269   2.224
66769W        W30493  13.828   5.782   2.296
66770W        W30494   5.804  34.549  12.081
66771W        W30495  22.206  25.144   3.667
66772W        W30496   0.863   0.357   0.410
66773W        W30497  14.609  38.921   0.398
66774W        W30498  25.589  17.704   0.860
66775W        W30499  36.405   9.708   1.910
66776W        W30500  11.127   7.184  11.863
66777W        W30501  20.730  32.479   2.876
66778W        W30502  42.426  30.994  13.971
66779W        W30503  25.610  30.658  13.338
66780W        W30504  36.443   4.215  10.587
66781W        W30505  26.638   2.269   3.346
66782W        W30506  27.149   5.922   3.180
66783W        W30507   8.232  16.741  13.437
66784W        W30508  38.375  17.571  11.452
66785W        W30509  37.058  12.292   1.824
66786W        W30510  18.100  31.147   2.800
66787W        W30511  31.126  12.311   3.740
66788W        W30512   9.151  29.631   3.718
66789W        W30513  40.477  44.321   5.100
66790W        W30514  14.285  25.540   3.653
66791W        W30515  12.664  28.443  10.558
66792W        W30516  40.454   8.693   0.940
66793W        W30517  35.079  13.622  11.503
66794W        W30518  22.116  44.768  13.989
66795W        W30519   5.200  29.658   1.841
66796W        W30520  36.007   3.282   3.367
66797W        W30521  21.585   1.455   0.847
66798W        W30522  37.551   0.828  12.041
66799W        W30523  11.634   7.722   3.176
66800W        W30524   3.338  23.066  12.093
66801W        W30525  41.036  12.211  11.086
66802W        W30526  34.028   9.774   1.221
66803W        W30527  41.520  25.102   0.754
66804W        W30528  15.707  20.062   3.754
66805W        W30529  13.120   6.736   2.834
66806W        W30530  39.514  11.708   4.772
66807W        W30531  28.480  14.254  13.540
66808W        W30532  37.902  27.655   4.217
66809W        W30533  16.744   5.933  14.493
66810W        W30534  15.663   8.838   2.700
66811W        W30535  33.918  35.523  14.986
66812W        W30536  32.476   2.409  10.472
66813W        W30537  13.327  30.038  13.882
66814W        W30538   1.459  28.087  13.929
66815W        W30539  25.116  31.513   4.181
66816W        W30540  20.093  43.860   0.473
66817W        W30541  16.706  20.179   3.805
66818W        W30542  30.144  42.501   2.664
66819W        W30543  42.467  24.558   0.311
66820W        W30544  32.906  22.161  12.368
66821W        W30545  38.865  31.570   4.168
66822W        W30546  34.873   6.813   2.695
66823W        W30547  34.079  16.644   2.675
66824W        W30548  40.490  30.564   0.891
66825W        W30549  44.297  29.466   4.771
66826W        W30550  18.205   9.769  13.930
66827W        W30551  30.916  27.169  11.948
66828W        W30552  35.380  10.384   4.199
66829W        W30553  23.585  44.416   3.213
66830W        W30554  35.467   6.903  11.062
66831W        W30555  13.175   8.309   4.620
66832W        W30556  34.958  17.600   3.712
66833W        W30557   9.705   6.226   4.831
66834W        W30558  28.168  20.546  13.906
66835W        W30559   3.289   7.303  12.407
66836W        W30560  15.091  23.090   2.242
66837W        W30561  34.038  12.797   9.510
66838W        W30562   0.948   9.259   4.797
66839W        W30563  10.675  23.515   4.693
66840W        W30564   6.677  44.286  13.468
66841W        W30565  18.781  17.291  13.064
66842W        W30566   4.213  27.612  14.011
66843W        W30567   2.784  11.671  13.949
66844W        W30568  32.548  41.813   2.304
66845W        W30569  44.298   6.698   1.266
66846W        W30570  17.715  41.497   2.720
66847W        W30571  42.344  26.575   4.653
66848W        W30572  42.298  39.547   3.715
66849W        W30573  28.986  36.512   0.762
66850W        W30574   8.725  27.646   2.360
66851W        W30575   5.406   1.323   2.764
66852W        W30576  39.934  41.383  11.477
66853W        W30577  43.441  31.445  14.997
66854W        W30578  35.066  44.500   1.922
66855W        W30579   3.835  42.501   3.743
66856W        W30580  22.113  37.963   4.287
66857W        W30581  13.826  15.318   1.354
66858W        W30582  17.095  28.063  14.822
66859W        W30583   3.820  12.348  10.980
66860W        W30584   3.431  15.622  12.533
66861W        W30585  18.162  36.510   1.221
66862W        W30586  12.657  37.468  14.022
66863W        W30587  23.656  22.235   4.308
66864W        W30588   1.311  40.409   2.222
66865W        W30589   4.926   8.327   3.867
66866W        W30590  25.037  12.293  14.981
66867W        W30591   5.302   9.197   4.232
66868W        W30592   9.791  13.310  14.416
66869W        W30593  24.629   8.691   1.837
66870W        W30594  19.602  16.232  14.877
66871W        W30595  32.409  31.105  10.916
66872W        W30596  19.569  28.105  12.950
66873W        W30597  36.398  22.609   1.311
66874W        W30598  26.148  25.493  13.969
66875W        W30599  12.626  26.027   3.193
66876W        W30600  33.022   8.248  14.322
66877W        W30601  14.161  44.474   1.883
66878W        W30602   0.939  19.759   2.362
66879W        W30603  44.955   1.955  11.408
66880W        W30604  43.765  34.486  14.339
66881W        W30605  37.484  39.049  12.553
66882W        W30606  27.537   0.324  12.514
66883W        W30607  16.777  29.170   3.667
66884W        W30608  17.800  10.249   0.888
66885W        W30609  25.168   3.726  12.967
66886W        W30610  31.084   2.434   2.230
66887W        W30611  18.597   6.371   4.230
66888W        W30612  39.496  19.704  14.974
66889W        W30613  36.426  42.378   0.317
66890W        W30614   4.306  12.222   0.340
66891W        W30615  30.971  20.751   3.292
66892W        W30616  21.118  44.824  12.374
66893W        W30617  15.615  42.931   3.263
66894W        W30618   7.827  36.502  11.101
66895W        W30619  30.149  11.179   0.792
66896W        W30620  26.098  41.984  11.456
66897W        W30621  44.907  31.966   3.365
66898W        W30622  24.004  27.979   1.297
66899W        W30623  12.178  33.087  11.892
66900W        W30624  43.461  34.929   3.656
66901W        W30625  29.128  26.477   2.759
66902W        W30626  22.697  44.355   1.302
66903W        W30627   8.159   2.816   2.397
66904W        W30628   7.344  28.454   1.804
66905W        W30629  42.834  19.674  10.544
66906W        W30630  24.532  24.514  14.349
66907W        W30631  40.919  27.124   4.157
66908W        W30632  43.478  14.794  12.399
66909W        W30633  25.637  38.952   4.607
66910W        W30634  16.667  20.668  10.623
66911W        W30635  16.721   5.747  10.032
66912W        W30636  24.132  39.390   2.890
66913W        W30637  34.585  43.831   3.800
66914W        W30638  24.204  18.682  13.876
66915W        W30639   0.750  44.403   2.413
66916W        W30640  16.125  34.115  12.970
66917W        W30641  35.553   7.820   2.404
66918W        W30642  22.702   8.873   0.336
66919W        W30643  40.541  18.711  14.346
66920W        W30644   5.259   6.801   1.395
66921W        W30645   9.727  39.994  12.916
66922W        W30646  41.455  43.303  14.866
66923W        W30647  26.086   6.725   3.657
66924W        W30648  42.389  28.642   0.917
66925W        W30649  40.397  11.801   0.366
66926W        W30650  26.189  20.624   3.808
66927W        W30651   5.737  36.034   2.696
66928W        W30652   1.346  38.395  11.489
66929W        W30653  25.570  16.708  12.010
66930W        W30654  24.649  35.572  13.050
66931W        W30655  13.282  34.011   1.400
66932W        W30656  32.391  21.097  11.431
66933W        W30657  25.964  40.317  13.548
66934W        W30658  24.209  24.036   1.242
66935W        W30659   8.241  29.439   4.245
66936W        W30660  35.035  43.921  12.871
66937W        W30661  40.456   8.270   4.354
66938W        W30662  27.061  38.339  13.375
66939W        W30663  26.651  24.007   1.833
66940W        W30664  11.250  11.200   1.250
66941W        W30665  20.151  10.809  12.940
66942W        W30666  21.670  26.034   1.328
66943W        W30667  37.573   8.721   0.832
66944W        W30668  21.173  38.891   0.348
66945W        W30669  26.207  14.740   0.882
66946W        W30670  28.602  39.372   4.830
66947W        W30671   5.756   2.790  11.496
66948W        W30672   1.338  24.569  14.865
66949W        W30673  11.329  37.952  10.448
66950W        W30674  29.506  16.260  14.948
66951W        W30675  34.544  22.243   4.666
66952W        W30676   6.404  40.905   0.804
66953W        W30677  35.881  36.012  14.013
66954W        W30678  29.454  13.292  12.433
66955W        W30679  22.103   6.908   2.193
66956W        W30680  38.567  34.437  14.002
66957W        W30681   2.348  13.838  14.909
66958W        W30682  14.603  34.068   3.869
66959W        W30683  43.855  34.522   1.787
66960W        W30684  32.601   6.853   1.270
66961W        W30685   5.222  42.872  11.480
66962W        W30686  29.569  36.987  13.965
66963W        W30687  41.409  15.781  13.480
66964W        W30688  44.989  39.447  11.082
66965W        W30689  14.242  11.650  14.975
66966W        W30690  10.274   3.824   3.731
66967W        W30691  29.517  27.039  14.340
66968W        W30692  15.647  15.156  13.533
66969W        W30693   3.235  41.978   5.090
66970W        W30694  18.087  13.745  14.024
66971W        W30695  43.868  14.308   4.706
66972W        W30696   1.280   8.836   4.822
66973W        W30697  30.620  44.944   0.810
66974W        W30698   8.272  18.782  14.452
66975W        W30699  44.316  28.102   4.687
66976W        W30700  23.604  13.689  12.449
66977W        W30701  11.652  29.565   3.345
66978W        W30702  28.990   9.701   0.769
66979W        W30703  42.516   9.264  13.886
66980W        W30704  23.064  24.990  11.568
66981W        W30705  10.245   5.346  10.487
66982W        W30706   2.789  28.553   1.858
66983W        W30707   9.692  23.055  13.318
66984W        W30708  23.091  25.077   1.280
66985W        W30709   6.869  44.948   0.269
66986W        W30710  13.279  44.845  14.432
66987W        W30711   3.379   8.899   0.424
66988W        W30712  40.039  13.772  10.912
66989W        W30713  30.505  40.009  12.349
66990W        W30714   5.344  30.450   2.715
66991W        W30715  31.930  38.887   5.260
66992W        W30716  10.238  36.449   0.767
66993W        W30717  40.943  31.533  12.003
66994W        W30718  30.128  32.949  14.445
66995W        W30719  10.331  24.669   3.691
66996W        W30720  11.736  43.883   0.829
66997W        W30721  32.492  42.343   1.299
66998W        W30722  38.364  16.140   0.734
66999W        W30723  24.623   8.693  10.422
67000W        W30724  44.820  42.496  10.624
67001W        W30725  29.565  40.333  14.878
67002W        W30726  28.480  24.661  11.984
67003W        W30727  43.488   3.308  11.882
67004W        W30728   8.784  42.384   2.870
67005W        W30729   7.398   3.267   0.243
67006W        W30730  36.071  10.342   2.785
67007W        W30731  37.080  42.952  14.444
67008W        W30732  34.004  20.045   2.401
67009W        W30733  38.946  16.669   0.869
67010W        W30734   9.824  16.077  12.844
67011W        W30735  31.914   6.720  14.294
67012W        W30736  43.897  18.287  10.949
67013W        W30737  16.161   9.771  11.577
67014W        W30738  21.190  35.053   4.617
67015W        W30739  14.106  36.456  13.904
67016W        W30740  25.068  41.343   1.883
67017W        W30741  21.584  44.377  12.367
67018W        W30742  17.632  33.397   4.705
67019W        W30743  20.030  29.491  13.990
67020W        W30744  22.730  13.837   5.139
67021W        W30745  11.247  38.526  11.991
67022W        W30746  14.307  34.956   1.810
67023W        W30747  10.300  30.659  12.872
67024W        W30748  33.036  33.049  14.369
67025W        W30749  24.657  19.068  13.395
67026W        W30750   1.414   8.663  11.037
67027W        W30751   1.753  39.522  12.872
67028W        W30752  32.613  33.095   0.785
67029W        W30753  23.062  12.229   3.147
67030W        W30754  27.670  40.822  14.467
67031W        W30755  42.445  11.261   4.718
67032W        W30756  18.214   0.933  10.898
67033W        W30757  12.247  43.514   2.358
67034W        W30758   9.241  31.972   0.285
67035W        W30759   6.227  32.970  13.421
67036W        W30760  26.103  35.942  13.472
67037W        W30761  27.141  35.483  10.995
67038W        W30762   0.865  15.273  13.977
67039W        W30763  24.583   7.197   3.208
67040W        W30764   0.966  21.177  12.385
67041W        W30765  35.931  17.254   2.402
67042W        W30766  28.128   3.894  13.506
67043W        W30767  21.752  36.481  11.415
67044W        W30768  40.405  31.498  12.562
67045W        W30769  17.693  16.217  12.938
67046W        W30770  19.119   5.246   2.867
67047W        W30771  26.158  17.131   2.810
67048W        W30772  37.002  23.574   4.819
67049W        W30773  13.684   3.925   9.941
67050W        W30774  41.381  44.476  12.966
67051W        W30775  21.195  37.830   3.172
67052W        W30776  42.887  27.972   0.429
67053W        W30777  16.621  44.765  14.404
67054W        W30778  20.192  19.683  13.518
67055W        W30779  30.619  14.655   2.395
67056W        W30780  42.921  25.132   0.881
67057W        W30781  43.779  43.002   3.230
67058W        W30782  26.200   3.737  14.352
67059W        W30783  36.887  23.042  11.576
67060W        W30784  31.937  28.033   0.444
67061W        W30785   3.864  29.999  10.939
67062W        W30786  23.986  29.455  11.440
67063W        W30787  39.319  21.527   4.332
67064W        W30788   8.654  41.939  12.568
67065W        W30789  30.581  26.960   0.917
67066W        W30790  41.315  15.233   1.789
67067W        W30791  17.097   9.781   1.853
67068W        W30792  20.154   5.700   3.270
67069W        W30793  36.469  37.993   4.321
67070W        W30794  13.171  39.431  11.376
67071W        W30795  36.390  22.657  12.067
67072W        W30796  33.572  16.693   9.924
67073W        W30797  35.601   6.419  13.543
67074W        W30798  19.237  20.708   0.468
67075W        W30799   6.870  18.663  11.975
67076W        W30800  26.595  16.803   1.801
67077W        W30801  43.513   9.287  13.868
67078W        W30802   5.856  25.635  14.769
67079W        W30803  27.088  37.430  13.368
67080W        W30804   1.470  15.293   0.379
67081W        W30805  29.560   6.267   1.278
67082W        W30806  35.063  33.071  14.420
67083W        W30807  37.460  37.549  10.571
67084W        W30808  43.484  44.820  11.928
67085W        W30809   6.883   8.228   2.266
67086W        W30810  41.005  18.720   3.839
67087W        W30811  24.704  11.784   1.776
67088W        W30812   8.892  24.078  13.546
67089W        W30813  39.015  32.972   4.831
67090W        W30814  36.434   4.355  11.019
67091W        W30815   3.324  44.783   3.313
67092W        W30816  13.158  34.008  12.956
67093W        W30817  18.274  22.707  13.877
67094W        W30818  15.782  30.649   4.714
67095W        W30819  24.491  44.906   2.275
67096W        W30820  16.230   0.803  12.047
67097W        W30821   4.319   8.763  12.541
67098W        W30822  10.254  33.465   1.734
67099W        W30823  21.154  29.046  10.568
67100W        W30824   5.773  27.471   3.837
67101W        W30825  14.610  12.648  14.433
67102W        W30826  39.449  30.152  14.968
67103W        W30827  43.768  11.739  12.022
67104W        W30828   0.358  10.838   4.343
67105W        W30829  22.746  36.568  13.391
67106W        W30830  36.403  11.666  12.981
67107W        W30831  13.343   7.295   0.866
67108W        W30832  14.750  26.697  12.952
67109W        W30833  28.571  34.078  14.921
67110W        W30834  35.053   7.680   1.297
67111W        W30835   5.403  19.758   0.773
67112W        W30836  22.239  11.803   3.830
67113W        W30837  30.649  33.404  13.899
67114W        W30838  30.484  35.410  12.993
67115W        W30839  32.393  15.756   5.090
67116W        W30840   9.324  44.447   0.428
67117W        W30841   9.790  16.679   4.216
67118W        W30842  28.015  16.262   3.349
67119W        W30843   1.934  18.563   0.901
67120W        W30844  29.087  41.935   3.793
67121W        W30845  12.236  20.583  12.429
67122W        W30846  15.780   9.667  10.537
67123W        W30847  27.962  24.973   4.823
67124W        W30848  43.347  25.013   3.757
67125W        W30849  21.244  42.307  14.471
67126W        W30850  21.262  24.534  11.122
67127W        W30851   3.391  24.622   2.886
67128W        W30852   2.764  10.691   2.373
67129W        W30853  35.928  15.320   0.376
67130W        W30854  25.193  41.952   4.611
67131W        W30855  41.420  20.149  13.500
67132W        W30856  40.853  12.713  10.945
67133W        W30857  36.034   2.762  12.839
67134W        W30858  10.710   5.840   3.311
67135W        W30859  36.457  34.454  13.823
67136W        W30860   9.832  20.097   2.708
67137W        W30861  14.242   1.482  13.825
67138W        W30862   2.319  33.421   2.233
67139W        W30863  35.907  28.127   3.731
67140W        W30864   3.840  40.534  13.013
67141W        W30865  27.191  33.953   3.340
67142W        W30866  43.829  36.015   1.903
67143W        W30867  35.574   8.273  13.376
67144W        W30868   0.374  16.138  14.425
67145W        W30869  21.034  26.656  10.954
67146W        W30870  11.663  39.062  14.503
67147W        W30871  36.524   5.728   1.892
67148W        W30872  38.519  25.061  12.032
67149W        W30873  27.448  26.634   0.823
67150W        W30874  16.785  23.202   1.300
67151W        W30875  26.465  44.376  13.848
67152W        W30876  21.158   4.908  14.362
67153W        W30877  37.010   4.889  12.482
67154W        W30878  23.724  37.932  12.075
67155W        W30879   5.303  23.618   4.665
67156W        W30880  19.711   7.234  10.530
67157W        W30881  35.929  32.007   4.331
67158W        W30882  11.366  15.262  14.016
67159W        W30883  18.111  14.262   4.336
67160W        W30884   1.946  17.190   4.196
67161W        W30885   3.760  22.571   1.859
67162W        W30886  18.577  16.219   4.715
67163W        W30887  30.038  42.299   2.312
67164W        W30888  13.204   5.436   1.839
67165W        W30889   3.788  17.165   0.417
67166W        W30890  25.675   3.827   2.729
67167W        W30891  17.599   9.320  10.505
67168W        W30892  10.301  40.010  10.888
67169W        W30893  22.605  10.751   0.856
67170W        W30894   8.703  23.637   1.427
67171W        W30895  41.911  38.066   5.753
67172W        W30896  34.418  16.105   5.307
67173W        W30897  42.415   2.916  12.486
67174W        W30898   9.785  10.335  12.979
67175W        W30899   6.891   6.739  13.464
67176W        W30900  28.508   3.954   4.305
67177W        W30901  26.181  33.977  13.451
67178W        W30902  38.005  43.827   1.331
67179W        W30903  28.948  39.535  13.415
67180W        W30904  22.185  28.511   2.401
67181W        W30905  20.556  12.773  12.913
67182W        W30906  30.031  13.824  14.799
67183W        W30907  41.939  17.289   2.290
67184W        W30908   4.836  26.589  10.536
67185W        W30909   6.725  42.397  12.881
67186W        W30910  32.125  40.915  11.883
67187W        W30911   8.170  14.819   0.871
67188W        W30912  14.725  23.117   0.418
67189W        W30913  36.904  41.512  13.485
67190W        W30914  24.205  37.466   4.335
67191W        W30915  35.030  27.032  12.452
67192W        W30916  24.484  24.060  13.920
67193W        W30917  23.992  37.990  10.936
67194W        W30918  19.561  39.887   4.717
67195W        W30919  11.699  17.757   3.770
67196W        W30920  26.068  33.507   2.784
67197W        W30921  11.337   9.672  13.487
67198W        W30922  21.615  38.955   3.686
67199W        W30923  39.486   5.235   2.863
67200W        W30924   9.818  18.162   3.700
67201W        W30925  40.856  20.647   4.736
67202W        W30926  36.057  10.177  12.027
67203W        W30927  20.679  13.739   2.241
67204W        W30928  24.194  13.825   1.364
67205W        W30929  10.144  28.549  11.372
67206W        W30930  38.073  17.635   1.325
67207W        W30931  26.471  38.361  13.959
67208W        W30932   0.280  44.911  10.475
67209W        W30933  44.755  38.035  11.499
67210W        W30934  27.105  32.620   0.389
67211W        W30935  39.486  34.473  13.415
67212W        W30936  36.986  38.847   4.238
67213W        W30937  32.051  11.764  12.059
67214W        W30938  12.766  43.434   4.119
67215W        W30939  15.753  23.722   3.235
67216W        W30940   5.752  35.971   1.329
67217W        W30941  37.866  32.945   1.396
67218W        W30942  41.337   0.956  13.466
67219W        W30943  29.098  34.888   1.699
67220W        W30944   4.237   7.317   4.808
67221W        W30945  21.621  31.580   1.731
67222W        W30946   0.338  17.570   4.677
67223W        W30947  44.267  11.239   3.292
67224W        W30948  19.750  31.964   2.200
67225W        W30949  19.660  34.904   4.317
67226W        W30950  27.119   0.360  12.562
67227W        W30951  33.404   8.401   4.812
67228W        W30952  24.157  31.442   4.817
67229W        W30953  43.422  14.743  12.881
67230W        W30954  42.793  30.438   3.218
67231W        W30955   0.442   9.320   3.292
67232W        W30956  11.262  12.198  11.972
67233W        W30957  27.603   5.826   2.900
67234W        W30958  37.439  26.563  12.512
67235W        W30959  40.993  44.892   9.952
67236W        W30960  38.474   2.849  12.945
67237W        W30961   2.313  42.866   2.346
67238W        W30962  43.830   6.193  14.501
67239W        W30963   0.923   9.883   3.772
67240W        W30964  33.546   4.206   1.726
67241W        W30965   0.449   3.854  12.563
67242W        W30966  15.206  28.025   3.738
67243W        W30967   4.448   6.358  14.513
67244W        W30968  32.573  25.991   1.892
67245W        W30969  20.202  38.557   0.456
67246W        W30970  34.943  29.007  11.981
67247W        W30971  25.050  15.120  13.831
67248W        W30972   1.952  32.543  13.457
67249W        W30973   3.779  43.871  12.033
67250W        W30974   0.801  28.498   4.180
67251W        W30975   3.276  36.346   1.726
67252W        W30976  38.895  43.310  11.569
67253W        W30977   3.308  35.464  14.332
67254W        W30978  12.761  42.879   0.933
67255W        W30979  26.052  19.146   0.328
67256W        W30980   6.678  43.459   4.790
67257W        W30981  18.647  22.184   3.869
67258W        W30982  22.638   2.449  11.119
67259W        W30983  38.011  41.823   0.342
67260W        W30984  25.217   6.304   2.687
67261W        W30985   3.397  41.965   4.779
67262W        W30986  24.149  25.017   3.710
67263W        W30987  20.547  43.278  14.766
67264W        W30988  36.460   0.857   0.330
67265W        W30989   7.841   6.349   4.271
67266W        W30990  36.421  44.314  14.510
67267W        W30991  21.119   2.907   2.676
67268W        W30992  23.579   0.292   2.214
67269W        W30993  22.184  18.071  12.982
67270W        W30994   4.912   5.389   4.601
67271W        W30995  29.025  27.472   1.274
67272W        W30996  39.337   0.791   4.713
67273W        W30997  35.519   6.399  13.812
67274W        W30998   7.239   3.838   1.773
67275W        W30999  41.382  44.283   0.318
67276W        W31000  21.168  24.497   2.185
67277W        W31001  36.553  12.713   1.758
67278W        W31002  26.955  23.677  12.009
67279W        W31003  19.647  26.062  14.376
67280W        W31004   7.400  38.933   4.767
67281W        W31005   9.245  34.513  12.437
67282W        W31006  44.382  29.073   5.273
67283W        W31007   5.801  28.113   1.925
67284W        W31008  35.992  24.517  11.046
67285W        W31009  18.614  39.456  10.645
67286W        W31010  38.437  22.621  12.020
67287W        W31011  14.258  21.050   0.261
67288W        W31012  10.370  19.129  11.041
67289W        W31013  24.174  43.887   3.274
67290W        W31014  14.145  14.131  12.570
67291W        W31015  38.519  23.015   3.819
67292W        W31016  15.314  44.869  10.898
67293W        W31017  37.016  15.590   4.641
67294W        W31018  27.575   5.929   4.773
67295W        W31019  23.046  37.005  11.028
67296W        W31020  22.124  18.665   2.693
67297W        W31021  17.300  33.911   3.263
67298W        W31022  20.050  17.630  14.365
67299W        W31023  14.119  12.611  12.529
67300W        W31024  23.226  42.445   4.741
67301W        W31025  37.868  28.090   4.679
67302W        W31026   6.745  39.414   2.255
67303W        W31027  24.106  12.724  12.891
67304W        W31028   9.644  44.770  12.096
67305W        W31029  34.539  20.264   4.756
67306W        W31030  38.850  16.755   1.385
67307W        W31031  17.278  14.147   0.952
67308W        W31032  27.123  18.770   3.665
67309W        W31033  35.992  19.706   3.245
67310W        W31034  25.995  27.060   2.827
67311W        W31035  21.018  15.634  10.532
67312W        W31036   9.160  22.733  10.117
67313W        W31037  20.154  14.602  11.913
67314W        W31038  31.027  25.707   4.729
67315W        W31039  15.292  28.945   2.273
67316W        W31040  25.053  39.900  10.627
67317W        W31041   6.415   4.347   3.193
67318W        W31042  29.100  28.940   2.737
67319W        W31043  34.521  40.979  14.934
67320W        W31044   3.421  35.056   4.815
67321W        W31045  33.115  29.487   4.677
67322W        W31046  11.646  18.144  10.985
67323W        W31047   4.751   8.803   1.769
67324W        W31048  23.156  15.272  11.543
67325W        W31049  24.706  24.524   2.406
67326W        W31050  43.486  41.835   3.762
67327W        W31051  34.490  41.901  14.019
67328W        W31052  18.731  40.385  11.498
67329W        W31053  38.920  21.512   0.402
67330W        W31054  42.507  38.937   1.359
67331W        W31055  22.192  26.615   3.648
67332W        W31056  43.996  17.564   0.279
67333W        W31057   2.453   9.645  13.443
67334W        W31058  14.646  39.984   4.226
67335W        W31059  20.074  33.602   0.339
67336W        W31060  18.573  41.382   5.209
67337W        W31061  24.717   0.397   1.750
67338W        W31062  21.101  43.979  10.460
67339W        W31063   2.802  17.205  14.502
67340W        W31064  24.542   0.440  12.373
67341W        W31065  32.490  25.484  14.301
67342W        W31066  40.036  43.328  13.527
67343W        W31067   4.798  40.441   4.257
67344W        W31068  15.777  12.657   4.255
67345W        W31069  16.301  31.985  14.814
67346W        W31070  18.641  22.612  13.427
67347W        W31071  23.522  10.290   0.792
67348W        W31072  33.601  27.659  11.576
67349W        W31073  15.767   0.800  14.453
67350W        W31074  26.077  10.226   4.619
67351W        W31075  40.874  37.434   4.692
67352W        W31076  36.564  30.466   1.298
67353W        W31077   4.392   5.908   0.420
67354W        W31078  29.153  10.181  11.039
67355W        W31079  18.142   0.883  14.360
67356W        W31080  36.392  18.742  10.919
67357W        W31081  14.608   3.873  12.422
67358W        W31082  43.929   2.828  10.580
67359W        W31083  41.351  23.180  12.001
67360W        W31084  21.082  18.691  13.454
67361W        W31085  28.480  29.079  11.521
67362W        W31086  39.498  32.533  13.500
67363W        W31087  33.458  10.672   2.224
67364W        W31088  35.466  25.549  13.437
67365W        W31089  16.251  11.175  11.374
67366W        W31090  32.923  19.635   3.849
67367W        W31091   6.847  44.262   2.877
67368W        W31092  28.129  37.350  11.078
67369W        W31093  41.527  40.346   4.615
67370W        W31094  36.987  27.130  14.931
67371W        W31095  25.151  44.962   2.343
67372W        W31096  36.489  28.562  12.475
67373W        W31097   9.158   5.899  13.369
67374W        W31098  44.337  12.708  14.363
67375W        W31099   0.358  15.818  11.387
67376W        W31100  32.963  19.710  12.828
67377W        W31101   8.364  37.480   0.761
67378W        W31102  26.489  35.053  14.986
67379W        W31103  30.971  31.629   2.388
67380W        W31104  16.660  11.792  14.983
67381W        W31105  23.684  25.586  11.103
67382W        W31106  10.157   5.813  14.029
67383W        W31107  18.723  35.007   0.911
67384W        W31108  18.198  28.607  11.014
67385W        W31109  44.817  21.118   2.703
67386W        W31110  14.703  13.295   1.750
67387W        W31111  29.615  36.590   4.288
67388W        W31112  16.697  19.156   0.295
67389W        W31113  42.824  15.650   4.827
67390W        W31114   7.902   6.688   2.276
67391W        W31115  20.666  20.549   3.367
67392W        W31116  32.564   7.302   3.366
67393W        W31117  37.471  38.514  10.097
67394W        W31118  25.638  30.161   0.881
67395W        W31119   7.719   4.847   1.906
67396W        W31120  17.602  44.005   3.266
67397W        W31121  42.462  13.266  14.873
67398W        W31122  27.094   7.766   1.359
67399W        W31123   4.252   4.329  11.505
67400W        W31124  38.428  34.984   0.296
67401W        W31125  37.445  21.033  12.434
67402W        W31126  22.641  19.734  11.486
67403W        W31127  40.437  21.187   2.257
67404W        W31128  31.001  15.304   4.227
67405W        W31129  27.688  29.018   4.691
67406W        W31130  27.458  29.568  12.989
67407W        W31131   3.743  17.158  10.566
67408W        W31132  35.468  12.331   1.304
67409W        W31133   9.244  43.764  12.541
67410W        W31134   1.465  32.628   4.747
67411W        W31135  39.359  18.738  14.898
67412W        W31136  34.941   1.951  13.840
67413W        W31137   4.926  38.927  11.067
67414W        W31138  21.087  24.592  14.903
67415W        W31139   1.751  22.231  11.580
67416W        W31140  17.249   5.336   4.682
67417W        W31141  30.619  11.675  10.539
67418W        W31142  35.454  28.679  13.339
67419W        W31143  36.929  20.635  12.463
67420W        W31144  20.116  17.102  14.390
67421W        W31145  34.082  40.932   3.365
67422W        W31146  12.313   2.266  12.937
67423W        W31147  15.750  42.392  13.543
67424W        W31148  26.697  43.877  13.437
67425W        W31149  35.012  27.551  14.314
67426W        W31150   4.418  28.121   3.222
67427W        W31151  27.586  41.431   0.739
67428W        W31152  41.327  38.426  12.527
67429W        W31153   8.345  23.211  13.451
67430W        W31154  35.379  26.636  12.031
67431W        W31155   5.281  14.772  10.530
67432W        W31156  14.283   0.916   4.690
67433W        W31157  40.935  21.167  13.525
67434W        W31158  28.594  37.507   3.725
67435W        W31159  41.948  17.222  13.966
67436W        W31160  16.613  10.850   2.220
67437W        W31161  40.401  41.453  12.450
67438W        W31162  26.594  42.909   2.839
67439W        W31163  31.535  38.064  12.088
67440W        W31164   0.882  36.091  11.063
67441W        W31165  22.501  14.312  14.971
67442W        W31166   1.374  28.934  14.000
67443W        W31167   5.327   2.275   1.861
67444W        W31168  33.391  13.141   3.351
67445W        W31169  22.544   3.842   9.926
67446W        W31170   6.372  40.021   2.797
67447W        W31171   0.255  13.662   1.389
67448W        W31172  16.666  32.409  12.943
67449W        W31173   5.867  12.127   5.238
67450W        W31174  18.593  43.986  10.591
67451W        W31175  25.199  21.074  14.779
67452W        W31176  27.538  44.859  14.463
67453W        W31177   2.251  29.926  10.598
67454W        W31178  27.592  21.177  12.005
67455W        W31179   7.752  44.491   4.608
67456W        W31180   7.809   8.226  13.449
67457W        W31181  21.103   7.890   1.833
67458W        W31182  23.078  19.610   1.842
67459W        W31183  31.007  19.588   0.302
67460W        W31184  14.273   8.864  13.999
67461W        W31185  13.767  42.967   0.274
67462W        W31186  19.155  28.183  11.574
67463W        W31187   5.251  13.116  11.879
67464W        W31188  25.033  35.900  14.339
67465W        W31189  40.833   8.800  10.549
67466W        W31190  10.872  44.422  13.026
67467W        W31191  40.380  30.926  10.973
67468W        W31192  19.570  16.303   0.921
67469W        W31193  44.773   6.343   2.324
67470W        W31194   4.842  35.392   3.783
67471W        W31195  37.861   8.898  11.016
67472W        W31196  40.310  16.701   0.328
67473W        W31197  36.854   1.879  11.454
67474W        W31198  29.630  21.243  13.518
67475W        W31199  42.437   2.748   3.256
67476W        W31200   3.713  42.981  11.021
67477W        W31201  14.820  35.364  11.502
67478W        W31202   6.325   5.724   4.661
67479W        W31203  25.004  36.968  14.960
67480W        W31204  10.228   0.973   4.330
67481W        W31205  14.599   8.285   2.714
67482W        W31206  17.602  39.988  11.983
67483W        W31207  13.684  41.005   1.366
67484W        W31208  37.836  24.091   0.245
67485W        W31209  21.565  31.035  14.886
67486W        W31210  21.263  31.632  11.428
67487W        W31211   1.421  16.701   0.299
67488W        W31212   0.925  30.126  13.844
67489W        W31213  20.126  12.744  14.840
67490W        W31214   7.776   5.746  11.504
67491W        W31215   4.889  20.198  12.938
67492W        W31216  33.051   0.827   1.425
67493W        W31217  44.300  11.754   3.208
67494W        W31218  15.802  19.587  12.840
67495W        W31219  23.709  30.911   3.767
67496W        W31220   0.445   9.688  12.422
67497W        W31221  11.274  10.666  14.772
67498W        W31222   0.463  13.774  11.427
67499W        W31223  34.561  30.436   0.360
67500W        W31224   6.202  30.436  12.869
67501W        W31225  31.439  28.154  14.979
67502W        W31226  10.237  23.668   3.869
67503W        W31227  17.136   3.333   5.251
67504W        W31228  16.263  17.182  14.909
67505W        W31229  16.299  34.102   0.803
67506W        W31230  13.106   3.392   4.302
67507W        W31231  19.167  42.453   1.243
67508W        W31232  43.860   7.302   1.288
67509W        W31233  28.449  26.582  12.545
67510W        W31234  15.664   2.887  12.036
67511W        W31235  43.862  42.927   4.640
67512W        W31236  17.771  41.481   4.597
67513W        W31237  31.455  17.724  14.809
67514W        W31238  34.584   2.290   2.761
67515W        W31239   0.253   1.424   0.464
67516W        W31240  14.323  42.503  10.989
67517W        W31241  15.212  22.026   2.699
67518W        W31242  29.539  30.516   0.362
67519W        W31243   6.305  11.359  13.809
67520W        W31244  10.222  17.127   1.428
67521W        W31245  26.584  16.140  12.400
67522W        W31246  25.174  28.493   1.346
67523W        W31247  31.109  36.593  14.356
67524W        W31248  20.596   1.273  12.946
67525W        W31249   8.326  19.057   4.755
67526W        W31250  31.114  37.576  10.618
67527W        W31251  42.870  44.839   3.795
67528W        W31252  15.808  24.172  14.484
67529W        W31253   3.289   2.879   1.785
67530W        W31254  18.154  12.749   9.986
67531W        W31255   5.208   2.952   2.329
67532W        W31256  35.032  27.455   3.739
67533W        W31257  20.111  41.516   5.194
67534W        W31258  16.730  30.080   3.855
67535W        W31259   5.864   3.750  11.485
67536W        W31260  14.663  37.432  12.467
67537W        W31261  11.367   3.720  12.877
67538W        W31262  13.838  35.466  13.851
67539W        W31263  23.633  39.808  12.859
67540W        W31264  27.122   2.398   1.314
67541W        W31265  30.035   7.825   2.859
67542W        W31266   4.926  40.854   2.874
67543W        W31267   9.685  19.135   2.373
67544W        W31268  17.557   7.348  11.490
67545W        W31269  22.093  37.007  11.455
67546W        W31270  26.669  14.211  10.417
67547W        W31271  38.075  41.920   2.831
67548W        W31272  10.376  23.531   9.935
67549W        W31273  28.469  13.199  11.550
67550W        W31274   9.852  25.714   4.632
67551W        W31275  10.665  35.394  12.363
67552W        W31276  29.634  10.170  12.468
67553W        W31277  43.475  35.566   4.678
67554W        W31278  29.112  21.612  12.384
67555W        W31279  31.559  27.172  11.902
67556W        W31280  17.064  39.899   0.457
67557W        W31281  15.591  39.997   0.841
67558W        W31282  11.277  40.351  11.593
67559W        W31283  27.161  27.641   0.299
67560W        W31284  14.277  42.800   4.203
67561W        W31285  34.042  29.501   1.908
67562W        W31286   0.353   6.869  10.598
67563W        W31287  41.493  20.236   1.320
67564W        W31288  33.382   3.293   3.698
67565W        W31289  31.062   9.826   4.761
67566W        W31290  28.006   5.814  11.456
67567W        W31291  24.160   2.295   1.826
67568W        W31292   0.759  43.466  11.006
67569W        W31293  21.715  29.661   4.263
67570W        W31294  24.533  25.191   1.360
67571W        W31295   3.921   7.302  14.500
67572W        W31296   3.932   8.172   4.174
67573W        W31297  24.144   0.898   1.406
67574W        W31298  36.574  31.524   2.719
67575W        W31299  34.423   7.837   3.212
67576W        W31300   2.837   5.849   3.803
67577W        W31301   7.175   1.929  12.873
67578W        W31302  43.871  41.491   2.881
67579W        W31303  39.520  31.599  13.806
67580W        W31304  11.248  34.098   0.751
67581W        W31305  14.103  15.662   4.641
67582W        W31306  42.947   0.887  10.941
67583W        W31307  12.614  33.063  13.503
67584W        W31308  26.061   4.873   4.265
67585W        W31309   8.183   5.900   4.292
67586W        W31310  25.991  31.998   0.944
67587W        W31311  31.939  34.867  13.521
67588W        W31312  36.850  16.674   4.308
67589W        W31313   1.849  31.560  12.419
67590W        W31314  15.597  10.176   4.261
67591W        W31315  38.864  22.107   4.621
67592W        W31316  19.567  41.533  12.432
67593W        W31317  36.496  28.186   1.725
67594W        W31318  17.294  13.207   4.122
67595W        W31319  24.668  41.959  12.987
67596W        W31320  34.883   9.828   3.804
67597W        W31321  35.462  21.071   1.901
67598W        W31322   2.816  26.961   4.813
67599W        W31323  33.531  36.354  10.640
67600W        W31324  18.090  27.588  13.940
67601W        W31325  14.151  24.172   3.369
67602W        W31326  17.681   4.781   0.953
67603W        W31327  24.108  12.178   0.810
67604W        W31328  33.008  44.889  10.591
67605W        W31329   3.246  26.616   2.757
67606W        W31330  17.253  25.980   2.189
67607W        W31331  37.054  17.162   3.850
67608W        W31332  30.926  32.580  12.371
67609W        W31333  39.531   1.373   2.899
67610W        W31334   8.690  28.960   2.190
67611W        W31335  21.222  27.126   2.198
67612W        W31336  34.003  40.015   3.708
67613W        W31337  14.118  11.790  13.825
67614W        W31338   0.789  12.230   1.325
67615W        W31339   5.372  13.700  11.502
67616W        W31340  24.701  26.985  11.442
67617W        W31341   3.394   0.930   4.830
67618W        W31342   5.704  13.688   0.314
67619W        W31343  22.598   4.321  10.140
67620W        W31344   2.721   1.469  13.466
67621W        W31345   9.759   5.886   3.315
67622W        W31346  29.147   0.760   0.918
67623W        W31347  32.561  35.524  13.356
67624W        W31348  22.216  12.723  10.513
67625W        W31349  16.132  30.615   4.244
67626W        W31350  42.926  44.355  11.488
67627W        W31351  13.805  13.633  11.111
67628W        W31352  35.108   6.322  12.884
67629W        W31353  41.353   7.314   2.225
67630W        W31354  26.136  36.506   3.352
67631W        W31355   2.237  12.728  13.313
67632W        W31356   0.875  13.671  11.955
67633W        W31357  26.971  38.381   2.227
67634W        W31358  29.539  37.917   1.837
67635W        W31359  32.420  13.184   0.329
67636W        W31360  32.040  18.177  10.118
67637W        W31361   9.374   8.773  13.033
67638W        W31362  15.321   7.269   3.373
67639W        W31363  19.703  18.212   2.800
67640W        W31364  36.961  31.629   3.170
67641W        W31365  26.657  42.332   3.867
67642W        W31366  23.555   4.907   1.914
67643W        W31367  28.177  37.523   1.437
67644W        W31368  26.170   8.305   4.255
67645W        W31369   8.394  26.208   1.742
67646W        W31370  16.656  27.532   3.652
67647W        W31371  33.968  42.513  14.321
67648W        W31372   0.765  18.665  10.422
67649W        W31373  15.158  32.418   0.409
67650W        W31374  10.156  15.291   2.199
67651W        W31375  36.432  32.135   3.800
67652W        W31376  26.468  13.216  13.935
67653W        W31377  24.983  31.930   1.825
67654W        W31378  25.970  44.448   2.338
67655W        W31379  41.818  26.191   3.724
67656W        W31380  19.713  37.500   5.258
67657W        W31381   6.292   3.263  13.318
67658W        W31382  17.246  10.372  13.541
67659W        W31383  30.908  28.079  14.796
67660W        W31384  29.452  31.987   5.187
67661W        W31385  26.469  22.681   0.422
67662W        W31386  20.687   7.354  13.022
67663W        W31387  17.656   1.785   4.131
67664W        W31388  35.948  32.102   1.805
67665W        W31389  16.764  24.666  12.575
67666W        W31390   2.411  26.623   1.871
67667W        W31391  40.032  29.624  14.458
67668W        W31392  20.117  41.032   1.819
67669W        W31393   2.758  25.497  11.547
67670W        W31394  28.010  40.446   2.820
67671W        W31395  35.559  34.058  10.928
67672W        W31396   8.296  38.033   2.786
67673W        W31397  40.893  33.023  14.951
67674W        W31398  43.329  26.652  12.832
67675W        W31399  26.085  33.604  13.001
67676W        W31400   2.371   0.419   4.721
67677W        W31401  16.086  43.776  14.922
67678W        W31402  20.084   8.401   1.312
67679W        W31403  29.097  30.921  12.390
67680W        W31404  21.017  22.176   3.650
67681W        W31405  21.717  35.960   4.353
67682W        W31406  35.552  15.699   4.355
67683W        W31407  26.075  40.363  11.904
67684W        W31408  31.959   5.310  13.029
67685W        W31409  16.293  43.926  13.957
67686W        W31410  24.536  40.451   3.721
67687W        W31411  23.612   7.781  13.374
67688W        W31412  27.617   6.268   1.339
67689W        W31413  25.173  20.088  12.503
67690W        W31414  35.473  17.748  14.851
67691W        W31415  17.297  21.729  11.867
67692W        W31416  10.795   0.952   3.359
67693W        W31417  23.635  32.551   4.290
67694W        W31418  13.679  25.137   2.294
67695W        W31419  44.943   1.448  13.456
67696W        W31420  39.414   3.282   0.948
67697W        W31421  34.609  18.087   2.740
67698W        W31422  42.409  26.462   1.900
67699W        W31423  39.387   8.267  13.889
67700W        W31424  24.114  13.129   2.811
67701W        W31425  10.748  19.743   3.819
67702W        W31426   4.935  21.669  13.543
67703W        W31427  27.672  27.133   3.770
67704W        W31428  39.921  40.906   0.926
67705W        W31429   9.324  15.235  11.524
67706W        W31430  39.954  29.097   1.250
67707W        W31431  12.154  26.567  11.446
67708W        W31432  43.946  30.915  13.063
67709W        W31433  24.673  11.856  11.515
67710W        W31434  16.090  31.027   0.288
67711W        W31435  27.446  38.467   2.208
67712W        W31436  15.258  43.286   3.748
67713W        W31437  23.507  23.655   1.436
67714W        W31438   3.896  42.464   2.300
67715W        W31439  37.993  14.754   3.806
67716W        W31440   8.250   2.732  10.420
67717W        W31441  41.966  40.815  12.569
67718W        W31442  32.041  36.590  11.497
67719W        W31443  13.277  25.710   4.696
67720W        W31444  26.669  18.272  13.473
67721W        W31445  15.595  17.795   2.308
67722W        W31446   0.331  10.248  10.956
67723W        W31447  20.762  16.748  14.835
67724W        W31448  17.755  23.577   3.745
67725W        W31449  30.982  41.495   4.231
67726W        W31450  38.825  32.549  14.286
67727W        W31451  17.186  33.984  14.478
67728W        W31452  40.346  33.578   4.731
67729W        W31453  35.448  26.691  13.966
67730W        W31454  36.445  33.607  13.940
67731W        W31455  44.786  42.432  13.364
67732W        W31456  24.089  18.763   1.256
67733W        W31457  20.614  26.063  14.413
67734W        W31458   9.749   3.341  12.369
67735W        W31459   6.829  23.196  14.420
67736W        W31460  34.598  24.055  14.795
67737W        W31461  35.478  25.999   1.227
67738W        W31462  19.722  12.227   2.687
67739W        W31463  21.213  17.582   4.649
67740W        W31464  12.306  35.553   4.272
67741W        W31465   0.914  42.907   0.392
67742W        W31466   3.398   4.832  13.480
67743W        W31467  13.133  25.995  12.549
67744W        W31468  14.621   7.312  13.327
67745W        W31469  30.995  12.631   3.225
67746W        W31470  26.966   5.784  13.524
67747W        W31471   6.188  20.131  11.094
67748W        W31472  15.135   1.792  10.086
67749W        W31473  12.854   2.846  12.936
67750W        W31474  18.082  11.753  13.458
67751W        W31475  15.322  14.814  13.924
67752W        W31476   1.811   6.334  13.476
67753W        W31477  22.506  16.692   0.816
67754W        W31478  24.017  11.804   1.280
67755W        W31479  44.925  24.662   4.154
67756W        W31480  34.043   7.384   4.118
67757W        W31481  13.620   0.408   1.765
67758W        W31482  31.587  16.754   2.690
67759W        W31483  10.289  33.023   9.986
67760W        W31484   2.949  37.521  13.363
67761W        W31485   9.245  11.654   3.688
67762W        W31486   3.385  22.554   1.363
67763W        W31487  34.928  34.906   1.405
67764W        W31488  34.388  32.988  13.852
67765W        W31489  18.258  10.731   1.222
67766W        W31490  37.086  40.372   3.756
67767W        W31491   2.363   2.245   0.359
67768W        W31492  20.707  22.154  11.942
67769W        W31493  13.627  28.140  12.079
67770W        W31494  23.211  14.656   0.906
67771W        W31495  36.946   6.767   3.734
67772W        W31496  28.526  36.098  11.074
67773W        W31497  29.568   1.349  11.521
67774W        W31498  16.790  32.408  10.607
67775W        W31499  15.817  23.108  12.031
67776W        W31500  31.502   5.892   1.914
67777W        W31501  15.108  34.039   3.818
67778W        W31502  33.511  32.548   3.758
67779W        W31503  19.127  22.140   0.413
67780W        W31504  13.222  36.388  12.085
67781W        W31505  42.319   4.777  14.790
67782W        W31506  37.992   9.710   2.671
67783W        W31507  34.872   5.231   1.914
67784W        W31508   0.293  18.714  14.931
67785W        W31509  25.531  20.080   2.403
67786W        W31510  22.712  25.198   4.764
67787W        W31511  27.664  43.949   0.737
67788W        W31512  37.390   4.702  10.956
67789W        W31513   1.935  29.464   2.798
67790W        W31514  27.457  23.613   1.295
67791W        W31515   6.286   7.699   9.955
67792W        W31516   5.720  32.085   1.861
67793W        W31517  41.354   2.946  10.928
67794W        W31518  38.848  43.780   1.759
67795W        W31519   5.423  37.939   0.779
67796W        W31520  39.399  40.025  11.940
67797W        W31521  31.508  42.968   2.706
67798W        W31522   9.751  38.927  13.315
67799W        W31523  22.652   9.699  12.484
67800W        W31524  22.577  29.094   4.335
67801W        W31525  17.720  23.120   0.314
67802W        W31526   4.387  21.603  12.072
67803W        W31527  42.338  15.252  14.989
67804W        W31528  32.576   3.788   0.780
67805W        W31529  15.128   9.823   1.871
67806W        W31530  29.019   9.288   1.220
67807W        W31531  26.673  31.457  12.465
67808W        W31532  18.225   0.333  12.496
67809W        W31533   0.386   3.856  13.990
67810W        W31534  36.995  10.720  11.548
67811W        W31535  15.150  35.086   2.733
67812W        W31536  36.550  32.895  12.939
67813W        W31537   6.807  11.203   2.395
67814W        W31538   9.857  38.386   3.345
67815W        W31539  38.060  26.957   4.657
67816W        W31540   7.825   8.888   4.610
67817W        W31541   9.285  35.007   0.796
67818W        W31542  16.607  40.512  12.054
67819W        W31543  32.969  22.055   1.813
67820W        W31544  43.980  28.116  10.592
67821W        W31545  23.984  39.009  12.381
67822W        W31546   3.757   6.357  14.346
67823W        W31547  10.787  28.974  11.030
67824W        W31548  43.010  20.715   2.384
67825W        W31549  39.373  28.640   2.820
67826W        W31550  40.002  13.771  10.596
67827W        W31551  35.886   9.652   0.440
67828W        W31552  35.930   8.354  13.486
67829W        W31553  22.245  32.395   3.701
67830W        W31554  35.898  10.328   4.739
67831W        W31555  32.132  26.692   4.115
67832W        W31556  19.193  27.195  10.603
67833W        W31557  34.082  29.645   4.203
67834W        W31558  16.207  39.339  10.444
67835W        W31559  16.697  22.603   0.323
67836W        W31560  44.445  22.663   2.293
67837W        W31561   7.861  44.277  10.410
67838W        W31562  40.991  29.002  14.340
67839W        W31563  14.140   6.258   5.177
67840W        W31564  43.975  42.953  13.433
67841W        W31565  24.038   0.350  11.548
67842W        W31566   5.419  42.790  13.998
67843W        W31567  36.042  17.299  12.989
67844W        W31568  41.535   0.258   1.743
67845W        W31569  17.772  31.491   0.242
67846W        W31570  23.127  36.585   4.212
67847W        W31571  10.674  19.727  11.389
67848W        W31572  27.010  18.774  14.913
67849W        W31573  28.147  27.007   4.784
67850W        W31574  26.160  39.421   2.396
67851W        W31575   3.338   6.266  14.859
67852W        W31576  24.209  14.760  14.441
67853W        W31577  19.694  30.635  10.413
67854W        W31578  42.013  21.559   0.867
67855W        W31579  32.416  13.671  13.409
67856W        W31580   7.241  10.162  12.447
67857W        W31581   5.867  37.377   0.833
67858W        W31582  26.990  14.100   5.081
67859W        W31583  36.494  12.766  13.349
67860W        W31584  38.837  22.122  10.910
67861W        W31585  33.578  34.014  10.413
67862W        W31586   0.766  30.546  11.907
67863W        W31587   2.436   1.885   4.187
67864W        W31588   6.862  36.023  13.029
67865W        W31589  13.834  12.755  14.292
67866W        W31590   4.750  22.150   2.699
67867W        W31591  17.145  14.808   0.320
67868W        W31592  35.393   6.424  14.895
67869W        W31593  33.024  21.041  11.058
67870W        W31594  31.472  41.803   1.268
67871W        W31595   1.467  30.556  12.871
67872W        W31596  29.526  22.539   4.179
67873W        W31597   6.832  33.514  10.113
67874W        W31598   1.246  41.826   0.478
67875W        W31599  27.473  24.683   3.746
67876W        W31600  33.089  14.640   2.417
67877W        W31601  11.352  42.896  10.947
67878W        W31602  44.885  44.337  10.077
67879W        W31603  30.577   5.217  13.859
67880W        W31604  25.006  24.195  11.588
67881W        W31605  20.693  29.668   1.239
67882W        W31606   9.773  43.894   2.826
67883W        W31607  17.582  34.594   1.874
67884W        W31608  38.978  41.009  12.968
67885W        W31609  32.407  35.909   3.151
67886W        W31610  37.083  11.222  12.005
67887W        W31611  27.581   5.372   1.874
67888W        W31612   7.300  26.963   1.747
67889W        W31613  17.290  34.513  13.528
67890W        W31614  33.583  29.436  13.545
67891W        W31615  30.153  22.646   2.817
67892W        W31616  43.806  42.442   1.228
67893W        W31617  13.220  21.071   3.770
67894W        W31618  27.942  21.576  13.820
67895W        W31619  24.130  17.207   5.238
67896W        W31620  23.645  14.714  14.788
67897W        W31621  30.039  32.044   2.835
67898W        W31622  34.060  13.305  11.091
67899W        W31623  19.572  26.033   0.753
67900W        W31624  37.862  14.158  11.914
67901W        W31625  23.663  24.106  13.979
67902W        W31626  24.183  12.148   4.284
67903W        W31627  11.748   4.403   4.648
67904W        W31628   8.302  23.122   4.688
67905W        W31629  25.025  11.229  14.031
67906W        W31630  19.224  26.485   1.427
67907W        W31631  25.523  17.779   3.339
67908W        W31632  30.508  44.996   4.194
67909W        W31633  37.975  38.423  10.406
67910W        W31634   7.881  41.016  12.440
67911W        W31635  36.363  42.827   3.723
67912W        W31636  25.024  12.827   0.415
67913W        W31637   6.829  21.157   1.809
67914W        W31638  30.462   2.777   2.692
67915W        W31639  43.930  16.785  11.582
67916W        W31640   3.439  42.315  11.923
67917W        W31641  28.552   6.814  10.573
67918W        W31642  24.691  31.993  11.443
67919W        W31643  32.410  13.785   0.876
67920W        W31644   2.763  17.711  11.125
67921W        W31645  31.576  15.162   0.791
67922W        W31646   5.728   3.343  14.393
67923W        W31647  13.627  37.468  12.975
67924W        W31648  21.196  23.728  13.477
67925W        W31649  41.912  41.523  14.005
67926W        W31650   4.763  36.067   0.343
67927W        W31651  10.657   9.256  14.886
67928W        W31652  20.613  13.118  13.031
67929W        W31653  32.969  32.061  12.089
67930W        W31654  14.750  39.324  11.478
67931W        W31655  31.098  34.376  12.431
67932W        W31656   2.866  12.153  14.774
67933W        W31657  15.327   1.858   1.252
67934W        W31658   0.319  34.975   0.258
67935W        W31659  41.912   9.248   4.836
67936W        W31660  28.594  15.731  12.556
67937W        W31661  11.177  38.481   3.346
67938W        W31662  34.011  24.491  14.878
67939W        W31663  42.460  43.889   3.831
67940W        W31664  25.601  16.733  11.040
67941W        W31665  39.434  23.207   0.931
67942W        W31666  14.114  21.589  12.063
67943W        W31667   7.735  10.793  11.439
67944W        W31668  17.222  24.112   4.283
67945W        W31669  32.454  26.552  11.372
67946W        W31670  39.434  35.562   1.780
67947W        W31671  33.932   9.334   0.902
67948W        W31672  15.602   8.753   3.815
67949W        W31673   1.849  44.001   0.838
67950W        W31674  42.434  26.473  10.442
67951W        W31675   3.351   3.438  13.048
67952W        W31676  35.896  26.659   2.256
67953W        W31677   7.746  18.771  11.065
67954W        W31678  41.797  25.180  13.531
67955W        W31679  12.782   0.248   1.815
67956W        W31680  13.728  32.035  13.313
67957W        W31681  15.703  39.048   1.783
67958W        W31682   8.734  20.696   1.402
67959W        W31683  43.501  40.485  10.499
67960W        W31684   7.240  18.600   3.644
67961W        W31685  36.593  41.306   0.304
67962W        W31686   3.791  14.098   1.366
67963W        W31687   5.432  12.301  12.373
67964W        W31688  14.689  20.031  12.933
67965W        W31689  39.344   2.832   2.415
67966W        W31690   5.854  17.699  12.489
67967W        W31691   9.710  29.160  12.051
67968W        W31692  44.925  33.014  12.342
67969W        W31693  20.152  12.132  12.902
67970W        W31694  10.215  12.164   9.517
67971W        W31695  13.203  40.911   0.268
67972W        W31696  20.159   6.772   0.292
67973W        W31697  15.275  37.039   1.856
67974W        W31698  30.125  41.861   4.332
67975W        W31699  38.921  31.401   0.306
67976W        W31700  11.811  37.999  12.950
67977W        W31701  40.387  38.433   2.334
67978W        W31702  32.468  12.712  11.513
67979W        W31703  15.105  23.591   0.877
67980W        W31704  10.656  14.647   1.825
67981W        W31705  36.386  42.857  11.976
67982W        W31706  24.078  37.875  10.425
67983W        W31707  10.275  39.462  11.999
67984W        W31708   4.244  21.111  14.404
67985W        W31709  38.449  18.254  12.460
67986W        W31710  14.650  36.531   0.892
67987W        W31711  34.554   3.751  10.447
67988W        W31712  40.831  18.081   2.762
67989W        W31713  18.572  19.273   0.809
67990W        W31714  24.592  35.025   3.639
67991W        W31715   2.334  33.440  12.553
67992W        W31716  30.082  14.220   0.866
67993W        W31717  40.514  42.783  11.055
67994W        W31718  25.100   2.259  11.395
67995W        W31719  44.860  23.994  12.906
67996W        W31720   9.293  38.974   1.797
67997W        W31721  43.803  43.297   2.281
67998W        W31722  16.264   4.892  11.524
67999W        W31723  34.597  44.847   4.247
68000W        W31724  44.758  23.117   1.282
68001W        W31725  17.066   2.876   1.332
68002W        W31726  39.350  37.874   4.739
68003W        W31727  18.769  17.602   2.686
68004W        W31728  33.874  17.790   2.282
68005W        W31729  14.152  13.845   2.242
68006W        W31730  39.832   0.476   2.279
68007W        W31731  38.918  11.317  13.496
68008W        W31732  13.686   5.689   1.378
68009W        W31733  30.460  15.801  10.931
68010W        W31734  44.775  13.737   2.232
68011W        W31735   8.197   4.782  11.078
68012W        W31736  17.268  23.509   4.278
68013W        W31737  26.580  19.167  10.943
68014W        W31738   2.429  12.744  10.631
68015W        W31739  10.176  21.512   0.438
68016W        W31740  29.582   1.810   1.430
68017W        W31741  18.145  41.514   0.464
68018W        W31742  42.346  22.052  13.407
68019W        W31743  34.550  33.512   3.360
68020W        W31744  26.960   7.300  12.421
68021W        W31745  12.790  24.627  14.358
68022W        W31746   6.718   6.868  13.838
68023W        W31747  13.715  19.533   1.295
68024W        W31748  10.822  24.076  13.030
68025W        W31749  29.497  33.097  10.959
68026W        W31750  11.722   6.911   4.802
68027W        W31751  18.072   3.925  14.920
68028W        W31752  41.377  13.642  13.867
68029W        W31753  17.687  34.556   2.233
68030W        W31754  16.115   1.255   0.799
68031W        W31755  38.478  39.040   3.791
68032W        W31756  32.541   2.258  12.068
68033W        W31757  24.721  41.313  12.032
68034W        W31758   0.772   1.250  14.300
68035W        W31759  38.344  31.897  12.368
68036W        W31760  30.644   5.706   3.347
68037W        W31761  27.051  37.529   3.292
68038W        W31762   8.170   6.216   3.276
68039W        W31763  23.170  11.313   4.638
68040W        W31764  10.717  35.054   1.332
68041W        W31765  24.594  11.315   0.405
68042W        W31766  24.221  16.274  12.391
68043W        W31767  21.135   0.445   0.754
68044W        W31768  25.162  18.224  10.585
68045W        W31769  32.450  41.018   4.652
68046W        W31770  12.206  33.915   0.906
68047W        W31771  22.681   4.256   4.188
68048W        W31772   2.892  38.877   1.933
68049W        W31773   5.864  21.753   4.310
68050W        W31774  27.643  36.847  10.483
68051W        W31775  34.450  43.924  12.908
68052W        W31776  25.698  28.545  11.879
68053W        W31777  39.541   6.248   2.880
68054W        W31778  17.662  25.990   1.283
68055W        W31779  34.566  18.710  13.307
68056W        W31780   3.728  44.754   4.781
68057W        W31781  30.620  43.821  10.440
68058W        W31782  17.754  37.509  11.018
68059W        W31783  12.810  27.132   1.365
68060W        W31784  32.975  40.455  12.032
68061W        W31785  24.660  29.662  13.051
68062W        W31786  41.811  32.453  13.919
68063W        W31787  31.528  40.035   3.664
68064W        W31788  10.252  19.612   3.771
68065W        W31789  33.526  24.098  14.991
68066W        W31790  37.441   2.792  11.043
68067W        W31791   0.816  19.101   0.276
68068W        W31792  33.587   3.280  13.922
68069W        W31793  36.097  26.624  13.827
68070W        W31794  12.845   9.838  12.962
68071W        W31795  39.429  32.137   3.243
68072W        W31796   2.958   4.291   1.719
68073W        W31797  13.820   9.194  12.035
68074W        W31798  44.893  11.297   0.327
68075W        W31799  44.338  15.590   1.802
68076W        W31800  37.487  30.128   1.799
68077W        W31801   7.765   8.803  12.088
68078W        W31802  32.949  39.962   2.743
68079W        W31803  32.630  21.734  14.908
68080W        W31804  40.806   2.895  11.469
68081W        W31805  24.616  35.433  11.600
68082W        W31806  34.935   0.969   5.258
68083W        W31807  33.094  18.085  12.528
68084W        W31808  34.004  33.011  14.398
68085W        W31809  36.075  31.129  10.606
68086W        W31810  44.894  31.518   4.353
68087W        W31811  27.589  15.644  13.959
68088W        W31812  14.591  30.626  13.851
68089W        W31813   1.436  21.515  11.426
68090W        W31814  18.584  32.138   5.276
68091W        W31815  19.095  22.663  14.977
68092W        W31816  18.579  17.653   0.889
68093W        W31817  14.132  29.429   2.407
68094W        W31818  44.267  43.850   1.247
68095W        W31819   2.344  22.597  11.454
68096W        W31820  42.790  17.246  12.512
68097W        W31821  11.130  38.392  14.920
68098W        W31822  23.168  44.329   3.357
68099W        W31823  39.995  26.518   1.882
68100W        W31824  37.014  34.462  14.338
68101W        W31825  42.930  27.170  14.781
68102W        W31826  32.406  22.123  13.811
68103W        W31827  27.569   3.225  14.319
68104W        W31828  29.567  15.189   1.428
68105W        W31829  34.477  24.177   3.176
68106W        W31830  13.227  16.718  11.447
68107W        W31831  43.000  40.016  13.408
68108W        W31832  14.715  41.869  13.513
68109W        W31833  42.509  39.498  10.947
68110W        W31834   3.393   9.358   2.368
68111W        W31835  17.631   1.429  14.430
68112W        W31836  11.790  12.770   2.832
68113W        W31837  42.437  17.755  14.005
68114W        W31838   2.891   7.202   3.849
68115W        W31839   4.929  10.840   3.866
68116W        W31840  34.514   8.804   4.338
68117W        W31841  27.509  26.603  11.064
68118W        W31842   5.330  29.124   2.884
68119W        W31843  22.116  19.092   3.664
68120W        W31844  10.352  29.557   5.261
68121W        W31845  38.408   3.422  11.969
68122W        W31846   7.410  37.918  14.913
68123W        W31847   3.263  21.152  10.093
68124W        W31848   5.195   2.735   0.881
68125W        W31849  26.137  14.776  11.996
68126W        W31850  21.575   0.935   3.224
68127W        W31851   3.253   6.425  14.321
68128W        W31852   3.287   4.393   0.295
68129W        W31853  44.990   8.164  13.529
68130W        W31854  24.602  40.534   9.971
68131W        W31855  17.732   3.844  12.526
68132W        W31856   1.307  31.517   0.434
68133W        W31857  33.998   5.396   1.371
68134W        W31858  41.898  33.420   0.431
68135W        W31859  43.839  17.782  14.946
68136W        W31860  40.515   6.692   3.321
68137W        W31861  35.391  41.983   2.757
68138W        W31862  25.195  42.334  13.809
68139W        W31863  39.504  16.079   3.337
68140W        W31864  16.299  20.734  10.593
68141W        W31865  42.839  22.012   4.243
68142W        W31866  27.558  44.368   3.762
68143W        W31867  20.540  26.669   4.269
68144W        W31868  37.839  23.016   2.691
68145W        W31869  11.664   1.971  13.859
68146W        W31870  11.743  13.133  10.476
68147W        W31871   0.268  31.959   3.711
68148W        W31872  38.383  13.185   2.234
68149W        W31873   1.926  21.515   0.956
68150W        W31874   7.367  26.476   2.833
68151W        W31875   2.469  41.851  12.836
68152W        W31876  21.589  13.161   0.902
68153W        W31877  21.120  20.546  14.394
68154W        W31878   7.682  39.475   4.684
68155W        W31879  24.017  36.925   5.188
68156W        W31880  35.892   0.893   1.395
68157W        W31881   7.910   7.248   5.191
68158W        W31882  21.138   6.796  12.521
68159W        W31883  19.254  27.519   1.347
68160W        W31884   2.854  30.049  10.587
68161W        W31885  20.701  24.017  11.421
68162W        W31886   3.435  14.677  13.005
68163W        W31887  13.223  31.611   3.263
68164W        W31888  28.172  20.108   3.200
68165W        W31889  33.953  17.205  12.515
68166W        W31890  37.382  13.109  11.042
68167W        W31891   9.849  19.276   0.467
68168W        W31892  40.973  21.640   2.760
68169W        W31893  23.173  44.970   1.888
68170W        W31894  14.099  40.947   3.312
68171W        W31895  10.260  33.055   3.316
68172W        W31896  40.439   0.834  10.621
68173W        W31897   0.825  26.988   4.632
68174W        W31898  14.760  42.863  11.933
68175W        W31899  42.992  13.638   3.683
68176W        W31900  43.402  43.949   0.395
68177W        W31901  12.319   8.751   4.236
68178W        W31902  40.017  17.258  12.832
68179W        W31903   8.205  22.178   4.234
68180W        W31904  13.298  14.603   0.822
68181W        W31905   3.873  24.654   2.401
68182W        W31906  19.776  25.083  12.081
68183W        W31907  25.617  15.709  10.021
68184W        W31908  19.059  39.550   1.787
68185W        W31909  19.187  21.188   2.233
68186W        W31910  36.846   5.920   2.218
68187W        W31911  16.593  30.130   2.196
68188W        W31912   5.918   6.699   0.316
68189W        W31913  42.798  28.445   0.465
68190W        W31914   4.395  15.295  13.508
68191W        W31915   3.762  30.582   2.395
68192W        W31916  30.502  25.631  13.355
68193W        W31917  10.649  32.111  11.561
68194W        W31918  43.778  39.314  10.531
68195W        W31919   8.323  44.787  12.083
68196W        W31920  41.946  42.814  12.823
68197W        W31921   0.320   8.775  11.855
68198W        W31922  32.036  22.031  13.368
68199W        W31923   0.938   9.256  11.009
68200W        W31924  23.579  36.093  14.803
68201W        W31925  13.227  11.786   4.286
68202W        W31926  40.448   9.180  14.836
68203W        W31927  22.517  26.615  12.995
68204W        W31928  24.983   4.759  13.446
68205W        W31929  23.128   0.894  10.558
68206W        W31930   4.378  12.669   2.214
68207W        W31931   4.247  27.131  14.381
68208W        W31932  18.757  24.024   3.263
68209W        W31933  26.466  24.171   3.823
68210W        W31934  11.341  29.949  14.323
68211W        W31935   4.717  15.144   1.880
68212W        W31936  33.933  19.586   4.659
68213W        W31937  28.466  38.002  13.389
68214W        W31938  32.022  22.109  12.391
68215W        W31939  36.472  33.452  10.129
68216W        W31940   0.274  31.504  12.857
68217W        W31941   9.183  43.322   4.813
68218W        W31942  18.583  44.898  12.918
68219W        W31943   0.841  41.444  11.943
68220W        W31944  39.870  35.471   4.206
68221W        W31945   1.950  25.004   0.433
68222W        W31946  34.890   1.456   0.349
68223W        W31947  14.248   6.896  11.880
68224W        W31948  27.991  22.737   3.792
68225W        W31949  11.867  37.052  12.910
68226W        W31950  38.071  25.703   3.171
68227W        W31951   0.319  39.521  13.476
68228W        W31952  12.823   2.371  14.464
68229W        W31953  36.494  25.219  10.542
68230W        W31954  10.350  25.570  10.456
68231W        W31955   6.828  23.571   3.742
68232W        W31956  27.025  21.186   0.954
68233W        W31957  38.847  19.154  12.825
68234W        W31958  21.157  30.460  12.998
68235W        W31959  22.668  26.541   2.299
68236W        W31960   9.648  32.509   1.385
68237W        W31961  42.311  13.749   1.257
68238W        W31962   1.430  14.689  13.900
68239W        W31963  10.147  25.152   4.258
68240W        W31964   7.254  15.302  11.609
68241W        W31965  25.996   1.829  14.459
68242W        W31966  39.980  24.597   3.685
68243W        W31967   7.216  37.462  14.835
68244W        W31968  14.679   9.873   4.709
68245W        W31969  30.957  44.366  10.987
68246W        W31970  28.455  22.100  14.328
68247W        W31971  24.644   4.752  11.915
68248W        W31972  32.533  34.944  10.422
68249W        W31973  21.098   9.889  14.919
68250W        W31974  44.961  27.648  14.947
68251W        W31975   9.648  15.637  13.332
68252W        W31976  16.671  33.948   3.838
68253W        W31977   3.879  42.409  12.381
68254W        W31978  35.395  17.099  11.026
68255W        W31979  41.462  39.916  14.830
68256W        W31980   6.890  36.450  11.900
68257W        W31981  39.373  18.292  11.446
68258W        W31982   1.305  25.693   1.405
68259W        W31983   0.892  26.671  14.497
68260W        W31984  10.698  17.779   2.396
68261W        W31985   7.830  13.677  10.556
68262W        W31986  27.676  24.637   0.749
68263W        W31987  29.600  14.662   4.793
68264W        W31988  19.616  15.760  13.913
68265W        W31989   8.672  13.834   4.763
68266W        W31990  36.438   2.802   0.918
68267W        W31991  16.570  27.068  11.459
68268W        W31992  38.371  24.628   0.312
68269W        W31993  13.640  30.027  11.988
68270W        W31994  17.276  42.783  14.765
68271W        W31995   6.752   8.885  13.793
68272W        W31996   7.367  36.454  14.309
68273W        W31997  25.008  25.591   0.260
68274W        W31998   1.339  41.362   3.290
68275W        W31999  17.672  16.569  14.781
68276W        W32000  38.402  36.093   3.851
68277W        W32001  36.386  42.352   1.766
68278W        W32002  29.055  19.586   2.182
68279W        W32003  10.801  26.529  13.992
68280W        W32004  20.125  31.906  11.013
68281W        W32005  20.656   5.846   1.845
68282W        W32006  24.039  39.536  11.900
68283W        W32007  12.833  19.158   4.831
68284W        W32008   3.844  41.457  13.319
68285W        W32009  37.403   7.272   0.826
68286W        W32010   3.307  30.598   2.814
68287W        W32011  26.492  39.852   0.873
68288W        W32012  21.035  44.805   0.855
68289W        W32013  21.080  16.673  10.116
68290W        W32014   4.435  42.899  11.459
68291W        W32015  33.021   5.923  14.781
68292W        W32016  39.029  35.103  11.556
68293W        W32017  34.611  42.332   1.336
68294W        W32018  37.963  33.021   1.834
68295W        W32019  27.167  18.085   2.209
68296W        W32020  24.121  15.677   4.653
68297W        W32021  18.230  31.971  10.469
68298W        W32022  41.334  26.561  11.509
68299W        W32023   2.287  42.996  12.912
68300W        W32024  33.398  25.508   9.946
68301W        W32025  22.189   4.418   4.260
68302W        W32026  19.547  32.605  14.801
68303W        W32027  34.864   3.375  12.917
68304W        W32028  44.284  39.484   0.399
68305W        W32029  42.792  10.769   1.369
68306W        W32030  44.920  34.926  13.464
68307W        W32031  12.170  22.552   1.238
68308W        W32032  43.353  32.043   2.738
68309W        W32033   9.293  39.834  14.990
68310W        W32034  33.454  11.848  14.431
68311W        W32035  27.940  38.993  13.021
68312W        W32036  34.608  40.412  11.924
68313W        W32037  11.727  42.469  12.521
68314W        W32038  34.058   1.370   0.854
68315W        W32039   1.417  20.155   4.214
68316W        W32040   0.877  13.671  14.407
68317W        W32041  38.345  16.774   0.903
68318W        W32042   2.852  22.012   3.680
68319W        W32043  43.787  18.109   3.631
68320W        W32044   9.659  17.658   1.697
68321W        W32045  17.247  20.689   1.299
68322W        W32046   9.661  22.546   4.737
68323W        W32047  19.558  33.439   5.288
68324W        W32048  19.687   1.441   0.820
68325W        W32049  15.221  42.342  13.937
68326W        W32050  43.298  35.510  13.874
68327W        W32051  14.774  16.082  11.554
68328W        W32052  30.413   9.200  12.571
68329W        W32053  25.702  43.413  11.971
68330W        W32054  18.720  37.928   0.274
68331W        W32055  21.539  14.733   2.251
68332W        W32056  18.071  14.173   2.878
68333W        W32057  15.810  43.331   0.340
68334W        W32058   1.348  17.304  14.464
68335W        W32059   4.792  33.517   2.837
68336W        W32060  24.228   8.880   3.305
68337W        W32061   7.243  14.761  11.113
68338W        W32062   0.948  42.376  14.972
68339W        W32063  16.662  14.620  14.803
68340W        W32064  20.541  40.012   0.286
68341W        W32065  25.608  18.761  10.493
68342W        W32066   2.432  33.399  12.080
68343W        W32067   8.784  35.957  14.464
68344W        W32068  41.839  20.572   4.276
68345W        W32069  20.712  26.134  13.314
68346W        W32070  39.911   0.808  12.965
68347W        W32071   0.954  41.457   1.446
68348W        W32072  42.348  15.279   0.744
68349W        W32073  13.114  17.610  11.487
68350W        W32074   1.838  24.584   0.770
68351W        W32075   9.366   4.449  11.981
68352W        W32076  11.687   5.801  12.559
68353W        W32077  13.619  13.244   0.363
68354W        W32078  41.302  23.511   3.197
68355W        W32079  28.023  30.626  11.940
68356W        W32080   7.291  36.581  14.004
68357W        W32081  38.065   0.777   1.292
68358W        W32082  37.522   1.403   1.440
68359W        W32083  36.912  29.553   3.683
68360W        W32084  13.235  23.989  12.021
68361W        W32085   9.708  34.907  13.969
68362W        W32086  25.526  44.882  13.844
68363W        W32087  16.318  36.367  13.903
68364W        W32088  34.976  10.694  14.953
68365W        W32089  38.327  29.931  11.972
68366W        W32090  19.120  37.549  13.959
68367W        W32091   4.800   5.773  13.040
68368W        W32092  20.203  31.104  14.796
68369W        W32093  15.655  13.722   0.864
68370W        W32094  12.217  43.283  13.515
68371W        W32095  34.522   9.307  14.412
68372W        W32096  21.622  13.228  14.474
68373W        W32097  33.607  21.715   3.363
68374W        W32098  12.779  38.385   3.648
68375W        W32099   5.299  16.793  10.960
68376W        W32100  25.480   7.742  12.525
68377W        W32101  43.826   7.326  13.497
68378W        W32102  40.413  17.648   1.347
68379W        W32103  20.199   7.174   4.251
68380W        W32104   3.788   2.325  10.562
68381W        W32105  25.970  28.537  14.015
68382W        W32106  43.996   4.420  10.512
68383W        W32107  33.918  14.591   1.860
68384W        W32108  17.557  30.048  12.377
68385W        W32109  26.143   6.798   1.368
68386W        W32110  10.685  44.816  11.512
68387W        W32111  18.106  44.883   0.312
68388W        W32112   5.327   9.817  12.427
68389W        W32113   3.328  13.351   1.753
68390W        W32114  16.730  15.642   4.231
68391W        W32115  21.247  33.092   0.299
68392W        W32116  34.384  39.436  11.121
68393W        W32117  30.516  17.630   1.275
68394W        W32118  16.695   3.368  14.989
68395W        W32119  39.811  22.743   2.857
68396W        W32120  17.109  37.514   5.081
68397W        W32121  20.182  20.238   1.899
68398W        W32122  21.525  15.710  11.890
68399W        W32123  38.450  38.462   2.830
68400W        W32124  14.598  35.921  12.824
68401W        W32125  21.566  23.602   3.654
68402W        W32126  19.128  33.432   2.840
68403W        W32127  10.645  30.129   1.822
68404W        W32128  26.472  18.159   3.839
68405W        W32129  37.389  25.978   3.713
68406W        W32130  28.141  43.410  11.402
68407W        W32131   7.814  10.742  12.463
68408W        W32132   0.812  18.679   2.359
68409W        W32133  29.992  20.233  11.963
68410W        W32134  36.544  42.961   5.270
68411W        W32135  39.999  32.112  14.311
68412W        W32136  15.193  32.932   2.856
68413W        W32137  27.445  20.522   4.239
68414W        W32138   1.367  28.471  12.824
68415W        W32139  28.941   0.960   4.707
68416W        W32140  15.147  42.956   4.810
68417W        W32141  10.255  20.067  12.857
68418W        W32142  44.761  16.787   1.418
68419W        W32143  14.632  20.522  14.363
68420W        W32144  40.304  12.695  10.135
68421W        W32145  10.263  16.790  11.043
68422W        W32146  11.356  38.408   2.183
68423W        W32147  32.895  31.926  13.886
68424W        W32148  30.042  37.984   1.352
68425W        W32149   6.349  19.540   0.398
68426W        W32150  24.607   0.374  13.823
68427W        W32151  20.151   7.835  10.459
68428W        W32152  19.567  27.129   3.781
68429W        W32153  25.499  31.623   3.323
68430W        W32154  34.523  39.501   0.832
68431W        W32155  41.351  10.235   4.693
68432W        W32156  14.233   0.983  10.488
68433W        W32157  44.753  27.578  13.858
68434W        W32158  39.943  38.075   1.816
68435W        W32159  18.244  25.126   4.600
68436W        W32160  37.409  29.601  11.957
68437W        W32161  29.440  22.626  10.415
68438W        W32162  35.899  17.096  10.585
68439W        W32163  41.491  44.949   0.361
68440W        W32164  39.382  34.578   3.663
68441W        W32165   2.424  24.091  14.386
68442W        W32166  43.855   3.382  13.952
68443W        W32167   6.828  29.570  12.039
68444W        W32168  27.588  18.094  12.829
68445W        W32169  33.414  25.653   2.843
68446W        W32170  24.680  32.613  11.476
68447W        W32171  36.573  41.414   4.131
68448W        W32172  41.538   1.943  10.593
68449W        W32173   9.182   2.296   4.225
68450W        W32174   2.429   2.749   4.613
68451W        W32175  24.987  43.455   2.839
68452W        W32176  13.210   3.217  10.475
68453W        W32177  11.241  10.641   1.415
68454W        W32178  33.411   7.909   1.869
68455W        W32179  30.019  25.012  12.955
68456W        W32180  44.837  42.328  13.847
68457W        W32181  33.881  17.587   4.216
68458W        W32182   5.217  39.038  10.991
68459W        W32183  25.118  22.704  11.092
68460W        W32184  40.921  36.486  14.766
68461W        W32185  40.022   1.887  13.400
68462W        W32186  10.271  11.191   2.307
68463W        W32187  31.058   3.950   4.181
68464W        W32188  12.742  38.500  14.903
68465W        W32189  13.181  33.438  11.476
68466W        W32190   3.917  39.971  11.864
68467W        W32191  36.881  39.474  10.936
68468W        W32192   1.828  18.747  10.505
68469W        W32193  10.144  29.488   0.250
68470W        W32194  33.596   7.300  14.354
68471W        W32195  15.174   5.338  12.388
68472W        W32196  38.390  17.629  13.342
68473W        W32197  14.602  23.074   2.731
68474W        W32198  19.746  24.173   4.179
68475W        W32199   0.273  31.646  13.381
68476W        W32200  26.668  17.780  14.388
68477W        W32201  33.457   9.254  14.464
68478W        W32202  18.078  27.187   2.731
68479W        W32203  43.814  12.748   1.274
68480W        W32204  28.005  33.089  12.544
68481W        W32205  14.254   9.815  11.487
68482W        W32206  34.870   7.874   1.709
68483W        W32207   0.482   4.207   0.911
68484W        W32208   7.409  33.997  10.987
68485W        W32209  18.289  22.199   4.678
68486W        W32210   1.336  12.339  11.881
68487W        W32211  38.039  14.096   4.758
68488W        W32212  40.832   6.423   1.777
68489W        W32213   3.842  18.121   3.200
68490W        W32214  41.857  37.076   4.718
68491W        W32215   6.212   6.684  12.371
68492W        W32216  26.663  20.273  12.049
68493W        W32217  39.390  15.158  10.502
68494W        W32218  21.125  24.644  11.433
68495W        W32219   4.424  35.007   2.870
68496W        W32220  27.517  29.939  12.519
68497W        W32221  28.168  28.652   4.122
68498W        W32222  29.152  22.018   4.738
68499W        W32223   4.924  25.160  12.560
68500W        W32224  12.203   2.928  10.560
68501W        W32225  44.304  30.533  12.454
68502W        W32226   0.956  38.859  13.318
68503W        W32227  36.462  38.488   2.709
68504W        W32228  38.441  20.153  12.869
68505W        W32229  35.863  22.518   1.866
68506W        W32230  10.869  44.831   0.726
68507W        W32231  38.075  31.428   4.125
68508W        W32232  41.941  12.760  13.435
68509W        W32233  15.657  33.456  12.095
68510W        W32234  28.464   2.444  13.541
68511W        W32235  28.558  13.270  13.901
68512W        W32236   2.367  42.396   4.190
68513W        W32237  20.671  14.708   2.333
68514W        W32238  22.097  15.650  10.435
68515W        W32239  10.281  13.605   3.799
68516W        W32240  14.745  27.533   0.436
68517W        W32241  18.726  21.517  11.100
68518W        W32242  42.779   0.868  13.034
68519W        W32243   7.886  44.304  13.839
68520W        W32244  35.420  33.991   0.812
68521W        W32245  37.881  33.447  12.040
68522W        W32246  37.507   6.701   3.817
68523W        W32247   0.440  32.919  11.377
68524W        W32248  12.350  13.262  11.032
68525W        W32249   0.332  32.050   3.312
68526W        W32250  21.515  36.895   0.466
68527W        W32251   8.794  35.417   2.253
68528W        W32252  14.747   1.324  11.606
68529W        W32253  42.787  29.101  10.951
68530W        W32254  40.436   5.394  13.994
68531W        W32255  44.935  40.376   1.230
68532W        W32256   9.344  14.191   0.480
68533W        W32257  40.506  25.013  12.496
68534W        W32258   2.243  18.258  11.926
68535W        W32259  20.236  18.779   2.685
68536W        W32260  13.784  33.130  11.551
68537W        W32261  11.687  38.540  13.330
68538W        W32262  34.529  14.656   9.950
68539W        W32263   9.766  22.077  12.907
68540W        W32264  27.978  36.957   3.785
68541W        W32265  40.345   0.292   1.861
68542W        W32266  27.524  34.433  12.559
68543W        W32267  14.600  32.910   2.281
68544W        W32268  27.131  44.343  13.538
68545W        W32269  39.340  12.687  11.408
68546W        W32270  17.276  27.949   4.117
68547W        W32271  17.760  40.828  14.944
68548W        W32272  39.999  36.031   1.373
68549W        W32273  19.731  31.109  10.960
68550W        W32274  11.649  43.382  11.957
68551W        W32275   8.217  27.130   0.748
68552W        W32276   6.395  36.967  11.448
68553W        W32277  36.514  29.566  14.367
68554W        W32278  35.872  12.320   3.824
68555W        W32279  39.428  10.320  11.426
68556W        W32280  29.586  37.473   2.247
68557W        W32281   4.704  15.656   3.264
68558W        W32282  36.060   6.874  14.890
68559W        W32283  29.102  14.238  13.420
68560W        W32284  41.442   8.800  14.956
68561W        W32285  21.062  43.960  12.397
68562W        W32286   2.915   2.356   1.389
68563W        W32287  32.900   7.184   4.641
68564W        W32288  17.646  44.777  10.526
68565W        W32289   9.235  41.291   1.916
68566W        W32290   3.829   9.692   4.665
68567W        W32291  39.872  24.661  12.857
68568W        W32292  44.301   0.297  10.922
68569W        W32293  24.670  30.550  11.124
68570W        W32294   3.407   2.251  14.293
68571W        W32295   5.352  20.658   2.185
68572W        W32296  32.505   9.818  14.859
68573W        W32297  23.691  29.476   2.797
68574W        W32298  35.460   9.820   2.304
68575W        W32299   4.703  36.919  13.493
68576W        W32300  43.981  43.324  13.490
68577W        W32301  40.993  40.988  12.825
68578W        W32302  43.928  14.822   3.288
68579W        W32303  27.098  24.059   3.187
68580W        W32304  42.915   7.285   1.845
68581W        W32305  34.071  43.981   3.772
68582W        W32306  21.120  41.937   4.268
68583W        W32307   2.303  24.990   2.889
68584W        W32308  17.267  42.370  13.486
68585W        W32309  12.251   0.388   0.262
68586W        W32310  27.089  18.730   1.770
68587W        W32311  30.018  10.832   4.601
68588W        W32312  40.876  14.199  11.880
68589W        W32313   7.773  32.014   2.872
68590W        W32314  21.554  25.978  14.993
68591W        W32315  24.626  39.432   1.787
68592W        W32316  37.852  16.718   0.335
68593W        W32317  27.182  41.530  14.972
68594W        W32318  16.648  40.942  13.493
68595W        W32319  40.389  39.490   2.728
68596W        W32320   6.922  30.510   3.654
68597W        W32321  40.899  34.587   9.516
68598W        W32322  11.345  18.221  11.935
68599W        W32323   9.663  34.606   0.391
68600W        W32324   4.384  27.086   2.346
68601W        W32325  43.018   5.911  11.014
68602W        W32326  43.455   1.962  12.073
68603W        W32327   4.928  12.136  11.082
68604W        W32328  26.501   7.724   3.818
68605W        W32329  14.787  28.068   1.765
68606W        W32330  14.306  44.950  13.345
68607W        W32331  44.981  22.744   1.401
68608W        W32332  16.133  29.151   4.354
68609W        W32333  40.912  35.362   4.350
68610W        W32334  32.525  36.035  12.068
68611W        W32335  33.408  41.538  10.590
68612W        W32336  32.885   0.379   4.690
68613W        W32337  21.103  11.749   1.308
68614W        W32338  25.626  39.462  14.388
68615W        W32339  35.902  25.022  11.956
68616W        W32340   0.451  21.572   1.346
68617W        W32341  30.611  22.703  14.879
68618W        W32342  22.174  36.035  14.970
68619W        W32343  16.231  20.683   4.345
68620W        W32344  36.583  16.294  13.477
68621W        W32345  18.201  24.171   0.916
68622W        W32346  17.069  36.074  14.932
68623W        W32347  18.611  44.446  12.970
68624W        W32348  41.446  12.839  14.955
68625W        W32349  27.672  16.244  11.061
68626W        W32350  12.616  35.013   4.773
68627W        W32351  13.728  11.338   4.779
68628W        W32352  38.336  36.463   1.239
68629W        W32353  41.519  21.203   5.585
68630W        W32354  10.299  11.678   3.788
68631W        W32355   1.933  25.582   4.660
68632W        W32356  15.719  25.470  13.544
68633W        W32357   7.195  32.579  10.979
68634W        W32358  28.654  19.741   3.379
68635W        W32359  43.915  32.991   3.824
68636W        W32360  26.577  35.021   1.731
68637W        W32361  40.332  30.133   4.324
68638W        W32362  33.086   9.266  14.458
68639W        W32363  29.924  42.327  13.942
68640W        W32364  24.510   9.179   1.433
68641W        W32365  22.153  10.668  13.476
68642W        W32366  15.682  11.203  14.398
68643W        W32367  13.685  28.622   2.862
68644W        W32368  30.974  40.498  11.394
68645W        W32369  35.854   5.719   1.744
68646W        W32370  32.558  20.158  10.427
68647W        W32371   6.394  33.455  10.121
68648W        W32372  10.202  31.592  10.138
68649W        W32373  41.924  14.625  12.486
68650W        W32374  33.503  29.655  14.316
68651W        W32375  43.817  34.931   2.898
68652W        W32376   7.390  21.573  12.066
68653W        W32377   9.290  40.308   2.768
68654W        W32378  25.079  13.811   1.708
68655W        W32379  21.642  16.187   4.690
68656W        W32380  12.680  24.023   4.347
68657W        W32381  20.092  24.674   2.688
68658W        W32382  40.344  32.885  14.027
68659W        W32383  30.143  24.577  14.369
68660W        W32384  41.410  15.667  12.949
68661W        W32385  39.349  17.779  11.386
68662W        W32386  29.123  39.328  11.456
68663W        W32387   8.372  22.699  12.432
68664W        W32388  22.070  12.622  13.059
68665W        W32389  36.889   5.412   4.636
68666W        W32390  43.514  21.605  12.406
68667W        W32391  34.016   7.786   1.291
68668W        W32392  40.302  43.971   5.659
68669W        W32393  43.974  29.541   3.748
68670W        W32394  18.258  31.460  12.951
68671W        W32395  40.471  33.582   3.351
68672W        W32396  34.514  41.837   3.327
68673W        W32397  33.422  43.885   1.877
68674W        W32398  36.477  16.112   3.169
68675W        W32399  18.125  21.636  13.456
68676W        W32400   6.281   0.971   3.817
68677W        W32401   5.330  11.354   1.414
68678W        W32402  35.487  28.464  11.074
68679W        W32403   1.361  19.152   4.119
68680W        W32404  25.136  27.509  12.544
68681W        W32405   5.910  41.306   4.834
68682W        W32406   9.807   2.753   2.208
68683W        W32407   7.322  44.851   4.347
68684W        W32408  33.982   1.330   3.234
68685W        W32409   1.458  31.990   3.727
68686W        W32410  26.540  23.538   3.632
68687W        W32411   1.976  23.188  12.464
68688W        W32412  20.714   1.739   1.898
68689W        W32413   0.789  41.365  13.335
68690W        W32414  10.321  30.591   4.775
68691W        W32415  39.501  43.931  12.349
68692W        W32416  39.459  31.903   1.903
68693W        W32417   5.423  42.976   0.420
68694W        W32418  28.442  30.523   0.315
68695W        W32419   6.920   9.788   4.311
68696W        W32420  39.372   0.837  11.084
68697W        W32421  24.482  32.930  14.974
68698W        W32422  20.258   5.817  13.484
68699W        W32423  34.064  34.963   3.374
68700W        W32424  32.030  35.444  10.430
68701W        W32425  27.975  10.735  13.545
68702W        W32426  13.179  18.061   1.434
68703W        W32427  24.071  25.104  12.358
68704W        W32428  40.398  33.940   4.322
68705W        W32429   0.413  19.070  14.897
68706W        W32430  22.695  14.200  12.868
68707W        W32431  12.253  13.706   0.935
68708W        W32432  30.629  37.905   1.838
68709W        W32433  22.567  15.718   1.904
68710W        W32434  20.565  16.754  12.898
68711W        W32435  24.079  28.156   2.222
68712W        W32436  43.799  44.806   0.955
68713W        W32437  25.216  19.765   1.336
68714W        W32438  17.112  35.358   3.752
68715W        W32439  12.789  25.145  12.864
68716W        W32440  33.511   6.269   1.310
68717W        W32441  31.514  13.312   3.381
68718W        W32442  44.839  12.851  14.360
68719W        W32443  18.252  30.569   4.276
68720W        W32444   6.216  15.184   2.676
68721W        W32445  42.359  10.653  13.860
68722W        W32446  29.061  41.016  12.406
68723W        W32447  28.088  27.498   1.931
68724W        W32448  14.119   6.237   1.337
68725W        W32449  26.991   6.223   0.353
68726W        W32450  25.610  25.586   3.821
68727W        W32451  21.084  33.957   3.751
68728W        W32452   2.884  34.515   2.780
68729W        W32453  33.404  19.200   5.261
68730W        W32454   0.397  42.416  12.824
68731W        W32455  34.998  27.949   4.288
68732W        W32456  39.499  13.205   4.682
68733W        W32457  13.775  43.293  13.907
68734W        W32458  36.074  14.820   3.723
68735W        W32459   3.920  34.972   2.367
68736W        W32460   3.791  36.019   0.372
68737W        W32461  16.591   4.308   5.681
68738W        W32462  29.589  20.094   1.729
68739W        W32463  12.310  38.918  10.485
68740W        W32464  43.417  24.723  10.086
68741W        W32465  27.047  33.594   0.289
68742W        W32466   5.228  29.511  10.552
68743W        W32467  22.745  17.639  11.383
68744W        W32468  38.045  44.499  13.476
68745W        W32469  17.215  27.992   5.311
68746W        W32470  22.645  32.442  14.391
68747W        W32471  39.560   4.769   0.783
68748W        W32472  10.290  14.126   0.466
68749W        W32473   3.870  33.459   2.396
68750W        W32474  36.933  23.496   0.889
68751W        W32475  32.465  12.794  14.372
68752W        W32476  27.628  12.816   1.326
68753W        W32477   5.223  35.000  13.393
68754W        W32478   7.417  14.260  14.465
68755W        W32479  42.449  26.584  10.996
68756W        W32480  32.544  37.974  14.474
68757W        W32481  23.030  39.446   1.772
68758W        W32482  40.831  11.269  11.381
68759W        W32483  28.531  27.584  10.415
68760W        W32484  10.187  18.161  12.091
68761W        W32485  14.754  34.898   0.907
68762W        W32486  28.108  41.352  12.400
68763W        W32487   3.858  12.651  12.076
68764W        W32488  40.498  22.226  14.025
68765W        W32489  27.656  28.606   0.285
68766W        W32490  39.952   9.339   3.804
68767W        W32491  38.327  35.543  14.820
68768W        W32492  30.587  27.559   4.728
68769W        W32493  32.049  43.281  11.381
68770W        W32494  17.083   4.412  12.934
68771W        W32495  29.503  43.335   0.792
68772W        W32496  44.338  36.464   0.357
68773W        W32497  32.478  38.959  10.157
68774W        W32498  29.115  43.002  12.438
68775W        W32499  41.497  31.510  11.044
68776W        W32500  13.660  41.439   3.241
68777W        W32501   8.882  32.039   3.360
68778W        W32502   3.801  33.114   1.754
68779W        W32503  17.781  40.868   0.248
68780W        W32504   2.739  37.578  14.339
68781W        W32505  44.984   5.691   1.762
68782W        W32506  42.865  25.514  11.920
68783W        W32507  38.453   5.323  12.359
68784W        W32508   6.804  32.991   0.927
68785W        W32509  36.413   9.884   4.667
68786W        W32510  30.412  29.437   3.326
68787W        W32511  36.008  18.216   4.691
68788W        W32512  11.153   7.190   2.257
68789W        W32513  31.486  42.375  13.035
68790W        W32514  36.547  34.511  14.449
68791W        W32515  28.533  43.835  13.348
68792W        W32516  30.035  21.146  12.571
68793W        W32517  14.319  24.026   4.690
68794W        W32518  40.325  16.087  12.836
68795W        W32519  27.546  36.438  12.973
68796W        W32520  33.604  32.930   0.434
68797W        W32521  40.443   2.957   0.874
68798W        W32522  22.228   3.849   4.287
68799W        W32523  12.189  25.578  11.378
68800W        W32524   9.338  37.928  11.948
68801W        W32525   5.729  23.203   3.795
68802W        W32526  32.020   1.329  13.318
68803W        W32527  43.275  15.153   4.661
68804W        W32528  42.294  14.266   4.718
68805W        W32529  11.183  37.956  10.923
68806W        W32530  15.692  31.069   2.189
68807W        W32531  28.483  33.548  13.920
68808W        W32532  25.493  25.130   0.355
68809W        W32533   1.823  41.811  14.452
68810W        W32534  25.582  36.471  14.486
68811W        W32535  24.996  33.130  11.487
68812W        W32536  31.595  30.000   4.795
68813W        W32537  36.356  42.893   1.287
68814W        W32538  37.453  12.263   1.302
68815W        W32539  21.600   9.841  14.381
68816W        W32540  31.901   9.304   0.366
68817W        W32541  37.553  17.681  13.948
68818W        W32542  14.779  17.137  11.588
68819W        W32543  30.415  28.939   0.899
68820W        W32544  29.455  13.326   5.307
68821W        W32545  42.938  37.579   4.694
68822W        W32546   9.236  43.904   2.199
68823W        W32547  42.943  32.005   2.836
68824W        W32548  26.060  30.923   1.345
68825W        W32549  12.205  41.449  10.941
68826W        W32550  33.055   8.662  13.988
68827W        W32551   1.888  32.141   4.775
68828W        W32552  13.222  18.163   4.797
68829W        W32553  31.916  28.587  13.432
68830W        W32554  33.972  15.183   4.732
68831W        W32555   8.850  23.505   0.906
68832W        W32556  11.206  30.538   1.817
68833W        W32557  13.307  28.655  11.414
68834W        W32558  24.130  12.125  11.888
68835W        W32559  38.537  26.656   4.199
68836W        W32560  19.553  38.523  14.288
68837W        W32561  27.195  41.498  12.391
68838W        W32562  44.392   0.976  13.848
68839W        W32563  27.978  14.210   2.793
68840W        W32564  28.505   4.799  14.392
68841W        W32565  32.904  43.929  13.027
68842W        W32566  11.762   3.297  13.822
68843W        W32567   0.799  32.622  10.615
68844W        W32568  10.821  16.645  10.935
68845W        W32569  17.285  15.092   1.351
68846W        W32570  15.114  25.652   1.758
68847W        W32571  38.940  32.940   3.807
68848W        W32572  33.021  32.120  10.601
68849W        W32573  40.391   1.483   3.259
68850W        W32574  43.425  27.610  14.785
68851W        W32575  34.486   4.831   3.302
68852W        W32576  19.194   4.788   3.241
68853W        W32577  16.808  41.919  10.952
68854W        W32578  35.013  31.072   0.918
68855W        W32579   0.843   6.380  10.962
68856W        W32580   8.862  22.657   0.413
68857W        W32581  14.205  32.044   3.319
68858W        W32582   5.344  15.091   4.709
68859W        W32583   3.334  13.292   3.226
68860W        W32584   1.971  38.832  10.939
68861W        W32585   8.857  27.490  10.640
68862W        W32586  15.711   0.277  13.502
68863W        W32587  43.814  40.358   0.375
68864W        W32588  23.079   8.686  11.029
68865W        W32589  43.854  19.261  11.587
68866W        W32590  41.859  35.976  13.381
68867W        W32591  24.551  29.154  11.939
68868W        W32592   3.881  35.923   1.327
68869W        W32593  16.740  22.553   4.141
68870W        W32594  39.064   5.330  10.622
68871W        W32595   4.401   7.208   3.833
68872W        W32596  34.372  29.161   4.681
68873W        W32597  35.945  16.665   1.748
68874W        W32598  21.534   8.820   4.169
68875W        W32599   5.923   7.677   4.132
68876W        W32600  34.938   8.748   1.876
68877W        W32601  36.500   4.845   9.978
68878W        W32602  17.674  15.630   2.183
68879W        W32603  25.101  24.537  13.392
68880W        W32604  16.136  40.354   1.777
68881W        W32605  37.556   4.887  10.553
68882W        W32606  27.094  40.445   4.174
68883W        W32607  23.527  41.973   2.259
68884W        W32608  33.925  39.814  12.980
68885W        W32609   8.316  44.946  13.010
68886W        W32610   7.819  25.061   1.867
68887W        W32611  27.982  40.364  11.527
68888W        W32612  10.678  23.038   1.793
68889W        W32613  26.000  18.761   4.116
68890W        W32614  19.216  17.288   4.170
68891W        W32615  26.017   3.930   1.805
68892W        W32616  23.195  11.805   4.121
68893W        W32617   2.960   3.878  14.786
68894W        W32618  24.148  19.666  13.056
68895W        W32619  37.349   7.777   3.806
68896W        W32620  29.014   7.863   0.340
68897W        W32621  16.639  29.053   1.369
68898W        W32622  43.971  42.478   3.716
68899W        W32623   8.246  11.848  12.907
68900W        W32624  22.537  25.968   3.351
68901W        W32625  27.118  31.071   3.242
68902W        W32626  33.414  18.266  14.771
68903W        W32627  14.106  16.578  11.392
68904W        W32628   4.774   6.182  11.046
68905W        W32629   8.788  32.914  13.885
68906W        W32630  31.566   3.283  14.988
68907W        W32631   1.336  34.552  12.384
68908W        W32632  21.693  43.460  12.501
68909W        W32633  21.214  28.019  14.454
68910W        W32634  13.632  28.148   0.312
68911W        W32635  33.889  22.746   1.804
68912W        W32636  18.284   6.184   2.310
68913W        W32637   0.477  31.436   4.233
68914W        W32638  44.427  17.797  12.574
68915W        W32639  16.207  35.078  10.940
68916W        W32640   4.270  23.686   1.250
68917W        W32641  41.461  31.974   1.433
68918W        W32642   4.275  25.078   0.343
68919W        W32643  28.580  30.438  13.035
68920W        W32644  24.228  39.429  10.944
68921W        W32645   6.855  27.982   3.300
68922W        W32646  11.194   6.343  13.885
68923W        W32647   3.221   2.721   2.274
68924W        W32648  17.256   1.451  14.772
68925W        W32649  17.224   6.204   2.743
68926W        W32650   8.769  30.109  10.453
68927W        W32651  29.067  33.421  12.087
68928W        W32652  36.379  33.130   2.410
68929W        W32653  34.002   5.428  14.902
68930W        W32654  35.942  36.003   3.378
68931W        W32655  21.153   7.261   2.373
68932W        W32656  31.430  34.010   1.441
68933W        W32657  31.066   5.298  12.849
68934W        W32658  17.297  15.822   3.831
68935W        W32659   5.797  10.790   0.802
68936W        W32660  21.657  15.193  11.978
68937W        W32661  15.703  11.281   0.473
68938W        W32662   4.713  27.997   3.331
68939W        W32663  13.274  28.134   1.898
68940W        W32664   4.247   3.716  11.924
68941W        W32665  27.578  32.011  12.028
68942W        W32666   0.471  16.250  12.565
68943W        W32667  37.065  30.005  12.351
68944W        W32668  39.025  27.111   1.344
68945W        W32669  40.434  24.484   5.263
68946W        W32670  42.846  17.285   5.191
68947W        W32671  37.868  40.404  12.495
68948W        W32672  42.359  15.242   3.288
68949W        W32673  31.465  39.958  12.407
68950W        W32674  33.578  35.987  13.386
68951W        W32675  19.259  22.187  10.923
68952W        W32676   0.886   5.830  13.454
68953W        W32677  10.260  40.023   0.866
68954W        W32678  35.100  17.740  14.320
68955W        W32679  26.978  11.866   1.449
68956W        W32680   5.211  33.895  11.613
68957W        W32681  35.505  30.029  13.419
68958W        W32682  21.254  16.711   3.312
68959W        W32683  17.250  11.185  13.500
68960W        W32684  37.070   4.793  14.402
68961W        W32685  36.390  22.679  13.999
68962W        W32686  10.843   9.778  11.394
68963W        W32687  26.481  25.576   3.845
68964W        W32688  28.552  16.123   4.646
68965W        W32689  38.372  14.158   3.698
68966W        W32690  21.704  20.594  10.431
68967W        W32691  21.549  38.875   2.773
68968W        W32692   9.872  26.466   4.798
68969W        W32693   3.284  15.204  11.602
68970W        W32694   2.933  41.518   1.865
68971W        W32695  15.189  26.189  14.797
68972W        W32696  21.651  20.751  14.386
68973W        W32697  27.683  21.102  13.882
68974W        W32698  15.124  31.003  13.337
68975W        W32699  32.971  31.116  14.403
68976W        W32700  23.127  29.537  14.773
68977W        W32701   8.777   9.289  14.393
68978W        W32702  37.460  23.611   0.942
68979W        W32703  14.268  15.311  12.074
68980W        W32704  32.517  10.365  13.983
68981W        W32705  34.600  19.256  12.015
68982W        W32706   3.315   8.676   2.295
68983W        W32707  25.034  14.187   3.862
68984W        W32708  21.092  28.992  11.103
68985W        W32709  44.305   0.340   1.852
68986W        W32710  28.454  26.073  12.402
68987W        W32711  14.607  43.421  12.543
68988W        W32712  40.866  37.505   2.247
68989W        W32713  42.817   8.323  12.469
68990W        W32714  19.659  41.029  11.011
68991W        W32715  14.227  29.549   3.287
68992W        W32716  38.845  12.857  10.124
68993W        W32717  13.787  37.870  13.037
68994W        W32718  29.524  38.075  10.434
68995W        W32719   4.291   7.903  13.374
68996W        W32720  17.120  21.735   3.248
68997W        W32721  19.767  34.610  10.423
68998W        W32722   0.955  21.575   3.317
68999W        W32723  43.010  18.610  12.865
69000W        W32724  28.954   6.361  11.397
69001W        W32725  30.045  24.586  11.608
69002W        W32726  18.278   9.789   3.229
69003W        W32727  13.342  33.545   4.295
69004W        W32728  36.901  35.551   0.727
69005W        W32729  13.218  14.340  14.926
69006W        W32730  35.876  31.036  13.009
69007W        W32731  16.573  36.889  14.790
69008W        W32732  36.046  26.999  10.578
69009W        W32733   1.930  40.405   3.789
69010W        W32734   9.666  25.008  12.828
69011W        W32735  29.486  29.492   1.369
69012W        W32736  30.653  32.040  10.481
69013W        W32737  42.781  34.584   4.119
69014W        W32738  28.634  29.551  11.907
69015W        W32739  14.297   9.352   0.251
69016W        W32740   2.457  10.191   4.657
69017W        W32741   6.276  15.630   2.311
69018W        W32742  24.715   8.286  12.381
69019W        W32743   8.221   7.233  13.474
69020W        W32744   4.361  34.016  12.477
69021W        W32745  17.756  37.839   3.192
69022W        W32746  35.927  34.613   1.229
69023W        W32747  31.561   1.276   3.636
69024W        W32748   8.757   8.198   4.193
69025W        W32749   7.679  37.947   4.833
69026W        W32750  13.633  12.723  12.347
69027W        W32751  32.950  18.198  13.477
69028W        W32752  42.791   2.840  13.449
69029W        W32753  22.589  33.102   1.262
69030W        W32754  41.020  24.222   4.649
69031W        W32755  10.312  38.478  12.468
69032W        W32756   9.792  16.753  14.416
69033W        W32757  23.497   9.271  10.530
69034W        W32758   7.677   4.280   0.769
69035W        W32759   5.254  11.808   0.818
69036W        W32760  22.152  29.040   2.840
69037W        W32761  13.716  28.509   3.641
69038W        W32762  39.465  38.893  11.103
69039W        W32763  38.865  17.559   1.869
69040W        W32764   8.735   4.403   4.685
69041W        W32765  36.481  38.448  10.584
69042W        W32766  31.425   1.303  10.506
69043W        W32767   6.889  30.446  11.892
69044W        W32768  15.737  42.849  13.458
69045W        W32769  33.946  25.544  13.441
69046W        W32770  34.994  40.528  10.136
69047W        W32771  12.340   7.890   0.274
69048W        W32772  10.242  23.674  14.336
69049W        W32773   9.772  12.776  11.985
69050W        W32774  15.682  10.316   4.672
69051W        W32775  13.641  11.687   3.744
69052W        W32776  28.506  29.664  12.865
69053W        W32777  24.510   3.385   4.686
69054W        W32778  35.495  11.736  14.451
69055W        W32779  17.556   9.781  12.501
69056W        W32780  23.218  20.525   0.819
69057W        W32781   3.747   6.791  13.415
69058W        W32782  26.517   5.224   2.800
69059W        W32783  32.041  22.670   1.839
69060W        W32784  38.893  15.166   1.349
69061W        W32785   5.931  39.894  12.076
69062W        W32786  41.954   0.444  13.540
69063W        W32787  43.481   2.868  11.877
69064W        W32788  43.487  40.452  14.987
69065W        W32789   7.712  11.307  11.501
69066W        W32790  40.835  20.136   0.363
69067W        W32791  29.117  26.531   3.324
69068W        W32792  10.373  19.044  12.430
69069W        W32793  17.752  35.456  13.922
69070W        W32794  20.525  38.453   1.360
69071W        W32795  17.682  22.098  10.415
69072W        W32796   0.365   6.286  13.820
69073W        W32797  21.563  37.432  14.360
69074W        W32798  21.688  43.280   1.334
69075W        W32799  37.357  31.904   0.799
69076W        W32800  43.291  22.166   4.705
69077W        W32801  20.684  36.057   0.759
69078W        W32802  26.618  15.166   4.295
69079W        W32803   1.325  17.252   1.408
69080W        W32804  42.298  33.392  14.459
69081W        W32805   4.755   4.232   2.757
69082W        W32806   8.396  33.944   1.311
69083W        W32807   1.834   3.916  11.599
69084W        W32808  41.821   2.451   4.143
69085W        W32809  32.134   5.807  13.327
69086W        W32810  31.026  34.601  14.810
69087W        W32811   1.393  18.644   1.758
69088W        W32812  15.651  39.813  12.504
69089W        W32813  19.557   2.763   2.878
69090W        W32814  43.357   2.400  12.096
69091W        W32815  30.624  29.975   2.272
69092W        W32816   7.233  10.237   4.125
69093W        W32817   9.179   1.784  10.112
69094W        W32818  27.595  10.727  13.963
69095W        W32819  20.741  43.906   2.382
69096W        W32820  23.532   8.750   4.214
69097W        W32821  32.095  31.442   1.307
69098W        W32822  16.220  14.297  11.417
69099W        W32823  37.491  20.140  10.609
69100W        W32824  37.515  15.137  12.422
69101W        W32825  31.122  22.127   1.804
69102W        W32826  28.493   1.893   2.698
69103W        W32827  36.986  29.014  13.826
69104W        W32828  38.936  17.794  14.921
69105W        W32829  30.473  21.686  13.371
69106W        W32830  10.362  10.750   4.279
69107W        W32831  37.425  43.332   1.707
69108W        W32832  35.026  30.042   3.707
69109W        W32833  33.532  38.026   4.296
69110W        W32834  12.258  34.427   2.757
69111W        W32835  14.607  14.261  14.342
69112W        W32836  44.377  20.763   4.839
69113W        W32837  19.256  20.629  12.388
69114W        W32838  44.004  10.383  12.445
69115W        W32839  14.816   9.853  10.548
69116W        W32840  13.336  40.354  11.042
69117W        W32841  18.099  20.571  12.524
69118W        W32842  25.153  11.250   2.181
69119W        W32843  23.719   7.320  14.449
69120W        W32844  12.851  14.656  11.860
69121W        W32845  14.615  10.376  11.420
69122W        W32846  21.526  11.216  14.322
69123W        W32847  23.222  33.929  12.475
69124W        W32848  25.181  19.109   2.773
69125W        W32849  31.512  38.922   1.746
69126W        W32850  37.425  29.114   3.386
69127W        W32851  40.045  29.074   0.898
69128W        W32852  24.714  39.506   1.359
69129W        W32853  42.374   4.336  13.351
69130W        W32854  22.591  23.016  12.404
69131W        W32855  23.156  28.596  14.911
69132W        W32856  10.695  12.650   2.189
69133W        W32857   9.694  44.412  10.454
69134W        W32858  36.998  26.025  11.591
69135W        W32859  22.643   8.842  11.482
69136W        W32860  27.569  31.495   0.840
69137W        W32861   8.786  39.421  10.599
69138W        W32862  31.151   1.406  11.487
69139W        W32863  18.788  17.158   0.480
69140W        W32864   5.227  21.128  10.557
69141W        W32865   1.314  41.791  10.552
69142W        W32866  22.685  30.957   2.180
69143W        W32867  30.090  40.346   1.225
69144W        W32868   0.381  30.067  14.457
69145W        W32869  11.775  11.307   0.419
69146W        W32870  36.451  23.680   2.765
69147W        W32871  39.379  43.850  11.048
69148W        W32872  29.007   2.463  11.386
69149W        W32873  20.638  25.679  11.877
69150W        W32874  17.579  13.331  11.594
69151W        W32875  24.542  35.379   3.759
69152W        W32876  21.515  16.707  14.858
69153W        W32877  14.739  40.877  12.542
69154W        W32878   4.259  12.152   3.777
69155W        W32879  42.294  25.206  13.335
69156W        W32880  11.714  33.903   2.364
69157W        W32881   0.901  14.260  14.495
69158W        W32882  31.523  27.448   0.342
69159W        W32883  14.621  37.960  10.915
69160W        W32884   0.326  17.087   0.399
69161W        W32885  22.199  18.282   4.737
69162W        W32886  14.308   6.209   4.300
69163W        W32887   8.821  19.635  10.932
69164W        W32888  17.255  40.481   0.369
69165W        W32889   3.455   8.720  11.456
69166W        W32890  17.157   4.813   3.801
69167W        W32891  38.861  18.759  14.406
69168W        W32892  44.920  22.695  11.377
69169W        W32893  17.696   2.754   1.393
69170W        W32894  41.405  35.530  14.360
69171W        W32895  41.502  16.773  13.897
69172W        W32896  41.999   3.747   4.679
69173W        W32897  44.840   5.320  10.465
69174W        W32898   0.287  13.830   0.245
69175W        W32899  23.602   8.824  14.958
69176W        W32900  43.401  15.645   1.906
69177W        W32901  24.083  30.040  10.091
69178W        W32902   4.823   6.355   1.746
69179W        W32903   8.380  41.839   4.838
69180W        W32904  42.383  10.261  14.892
69181W        W32905  38.369  33.480   1.699
69182W        W32906  32.974  14.601  12.906
69183W        W32907  13.349  17.659   4.175
69184W        W32908  21.049  29.518   2.869
69185W        W32909  34.554  36.391   4.124
69186W        W32910   7.700  13.624  13.458
69187W        W32911  41.031   2.429   2.741
69188W        W32912  12.759   6.304   2.300
69189W        W32913  16.689  40.435   1.834
69190W        W32914  32.613  18.054   0.779
69191W        W32915   6.743  28.560  10.901
69192W        W32916  23.557  34.012   4.244
69193W        W32917   1.297  36.357   4.296
69194W        W32918  33.399  15.691  13.022
69195W        W32919  10.637   0.775  11.608
69196W        W32920  30.046  16.634   4.824
69197W        W32921  23.558   4.364   4.797
69198W        W32922  14.721  42.444   4.329
69199W        W32923   2.812  21.686  14.426
69200W        W32924   5.902  20.633   2.735
69201W        W32925   6.264  39.464   0.890
69202W        W32926  19.117  37.449   5.170
69203W        W32927   1.440  41.834  12.494
69204W        W32928  31.015  35.883  11.001
69205W        W32929  21.740  35.574  13.444
69206W        W32930  14.322  35.998  10.616
69207W        W32931  28.558  29.544   0.349
69208W        W32932  29.978  42.796  13.035
69209W        W32933  33.408  17.073  11.929
69210W        W32934  26.569  20.662  13.350
69211W        W32935  31.434  23.028   3.683
69212W        W32936  30.516  11.864   3.354
69213W        W32937   5.844  36.401  14.303
69214W        W32938   0.294  26.972   2.281
69215W        W32939  12.687  13.619   3.817
69216W        W32940  29.520  34.882   0.806
69217W        W32941   5.745  15.743  10.597
69218W        W32942  40.940  36.564   2.780
69219W        W32943   7.237  39.455   1.857
69220W        W32944   6.301  33.417   2.416
69221W        W32945  34.039  11.846  14.774
69222W        W32946  27.608   2.358  10.539
69223W        W32947  34.060  36.442  12.501
69224W        W32948  42.450   6.244   1.413
69225W        W32949  26.643  39.947  13.806
69226W        W32950  37.372  14.139  10.576
69227W        W32951   0.448  42.513  13.868
69228W        W32952  33.524  36.522  11.607
69229W        W32953  13.774  16.307   2.368
69230W        W32954  43.311  23.573  10.033
69231W        W32955  43.854  35.596  14.004
69232W        W32956  39.972  28.929  11.388
69233W        W32957  31.039  12.141   4.691
69234W        W32958   2.847  10.166   0.910
69235W        W32959  39.828  42.907   1.850
69236W        W32960  38.429  18.699  11.575
69237W        W32961  37.460   8.351   0.250
69238W        W32962   1.896   5.254  14.987
69239W        W32963  30.554  24.515   0.306
69240W        W32964  17.170  20.665  11.948
69241W        W32965  25.193  27.051   2.228
69242W        W32966  32.504  38.961   0.886
69243W        W32967   3.907  24.525  12.905
69244W        W32968   1.741  22.547   4.335
69245W        W32969  13.268  44.450   1.339
69246W        W32970  33.052  23.697  12.080
69247W        W32971  42.780  22.008  14.512
69248W        W32972  10.316   4.885   1.904
69249W        W32973  31.431  26.501   1.888
69250W        W32974  18.697  22.666   1.417
69251W        W32975   5.924  22.197   1.932
69252W        W32976  43.369  11.863  12.871
69253W        W32977  16.635   5.864   3.663
69254W        W32978  41.812  39.894  13.547
69255W        W32979  14.312   1.771  12.086
69256W        W32980  19.719  10.763  11.537
69257W        W32981   8.180   9.298   3.851
69258W        W32982   7.229  25.991   0.483
69259W        W32983  33.123  29.638  10.490
69260W        W32984  40.018  13.777  14.966
69261W        W32985   0.429  44.394  10.475
69262W        W32986  21.210  14.830  11.986
69263W        W32987  32.637  13.692  14.943
69264W        W32988  10.303  36.920  12.825
69265W        W32989   6.387  39.820   0.730
69266W        W32990   9.160  39.491  14.025
69267W        W32991  12.149   7.801  10.468
69268W        W32992  36.053  37.888   3.811
69269W        W32993  21.259  13.336  11.070
69270W        W32994  27.504  39.355   0.747
69271W        W32995  22.613  26.526   2.719
69272W        W32996   4.770   7.742   0.259
69273W        W32997  23.055   4.291  13.419
69274W        W32998  35.491  44.486  12.416
69275W        W32999  33.087  19.158   2.818
69276W        W33000  33.487  41.812   1.707
69277W        W33001  30.138   3.323   4.327
69278W        W33002  10.356  39.408  10.541
69279W        W33003   0.862  25.966  13.845
69280W        W33004  11.367  42.359  13.038
69281W        W33005  13.772  30.477  13.541
69282W        W33006  30.029  41.357   4.630
69283W        W33007  43.845  39.057   3.224
69284W        W33008  37.077   9.661  10.517
69285W        W33009   2.429  29.659   2.370
69286W        W33010  10.380  18.592  11.913
69287W        W33011  10.149  30.040   4.210
69288W        W33012  21.648  16.081   0.365
69289W        W33013   6.776   1.364   4.775
69290W        W33014   5.397   2.926   0.309
69291W        W33015  22.999  18.065   4.167
69292W        W33016  40.003  17.069  10.955
69293W        W33017  27.467  10.233  14.972
69294W        W33018  11.193   8.292   0.785
69295W        W33019   9.227  17.585  12.460
69296W        W33020   7.797  37.424  14.412
69297W        W33021  28.534   6.304   4.601
69298W        W33022  18.610  41.906   2.195
69299W        W33023   7.788  33.592   4.128
69300W        W33024  34.906  30.494  13.981
69301W        W33025  24.700  33.066   1.253
69302W        W33026  30.994  23.148   0.379
69303W        W33027   2.750  37.456  10.411
69304W        W33028  11.720  34.411  11.094
69305W        W33029  28.521  25.522   2.280
69306W        W33030   3.775  22.554   0.343
69307W        W33031   9.176   0.296  11.890
69308W        W33032  14.305  25.203   2.365
69309W        W33033  20.180  28.089  14.866
69310W        W33034  29.530  25.014   2.278
69311W        W33035  17.108  19.604   3.321
69312W        W33036   2.855  40.805   4.160
69313W        W33037  26.041  24.178  12.400
69314W        W33038  29.439  44.929   4.712
69315W        W33039   7.760  25.539   0.448
69316W        W33040   7.309  39.814   2.403
69317W        W33041  44.877  19.206  12.075
69318W        W33042  21.704  20.096   0.445
69319W        W33043  38.505  18.561  13.968
69320W        W33044   1.408  29.066  10.912
69321W        W33045  28.981   6.827   3.308
69322W        W33046   1.316   2.230  13.982
69323W        W33047  19.240   9.278   4.160
69324W        W33048   5.411  33.543   2.198
69325W        W33049  22.638   8.221  10.462
69326W        W33050  12.275  28.523   3.645
69327W        W33051   9.355  44.855  14.374
69328W        W33052  40.371  25.642   3.664
69329W        W33053  34.000  31.409   3.735
69330W        W33054  37.886   0.453   4.284
69331W        W33055  44.770  18.660   4.257
69332W        W33056  10.216  20.062   3.829
69333W        W33057  18.131  30.450   1.932
69334W        W33058  44.982  39.870  12.534
69335W        W33059  17.079  23.706  13.430
69336W        W33060  19.275  11.357  13.054
69337W        W33061  29.435  40.012  10.152
69338W        W33062  21.125  14.255  12.400
69339W        W33063   5.855  12.851   0.345
69340W        W33064  33.887  38.984  14.493
69341W        W33065  26.483  29.096   4.292
69342W        W33066  22.060   3.763   1.233
69343W        W33067  35.852  39.042   2.412
69344W        W33068  21.127  29.595   3.332
69345W        W33069   3.803   0.257  11.399
69346W        W33070  22.227  10.634  11.013
69347W        W33071  12.684  11.367  14.951
69348W        W33072  33.018  30.610  12.457
69349W        W33073  12.331  18.093   4.182
69350W        W33074  23.609   2.811   3.676
69351W        W33075  27.163  40.011   0.816
69352W        W33076  26.127  43.925   1.357
69353W        W33077   0.971   5.305   4.773
69354W        W33078  37.924  35.858   3.275
69355W        W33079  33.879  31.505  12.881
69356W        W33080   5.346  16.165   4.831
69357W        W33081  14.216  38.470   2.253
69358W        W33082  22.659  37.985  11.440
69359W        W33083  34.454   3.250  10.435
69360W        W33084  25.526  12.184   3.241
69361W        W33085   4.204  31.900   3.186
69362W        W33086  26.680   6.724  14.409
69363W        W33087  15.178  31.127   0.840
69364W        W33088   9.684  29.608  14.396
69365W        W33089  34.112   8.807  14.341
69366W        W33090  37.888  39.994   0.834
69367W        W33091   4.847  12.712   9.920
69368W        W33092  27.975   0.398   0.735
69369W        W33093   7.691  12.220   1.796
69370W        W33094   9.867  13.156  12.898
69371W        W33095  33.131  22.519   2.403
69372W        W33096  14.231  23.235   3.345
69373W        W33097  42.021  27.478   3.237
69374W        W33098  34.576  26.582   1.929
69375W        W33099  44.009  31.621   0.402
69376W        W33100  12.767   9.221   0.464
69377W        W33101   4.431  10.850  11.479
69378W        W33102  35.358   9.691   3.322
69379W        W33103  14.244  27.661  11.113
69380W        W33104   3.908   9.282   3.731
69381W        W33105   6.278  34.597  12.489
69382W        W33106  32.506  20.585  13.406
69383W        W33107  39.350  17.762   1.918
69384W        W33108  36.857  31.127   4.349
69385W        W33109   6.895   7.233  12.936
69386W        W33110   9.751  14.250  13.312
69387W        W33111  34.080  27.111  14.340
69388W        W33112   6.271  26.681  11.413
69389W        W33113   7.823  39.435  14.005
69390W        W33114  13.180  34.985   3.793
69391W        W33115  25.043  42.445  13.319
69392W        W33116   0.929   3.387   3.300
69393W        W33117  12.331  19.586  11.446
69394W        W33118   6.728   0.271  14.279
69395W        W33119  38.520  37.396  10.556
69396W        W33120   0.341  26.031  12.550
69397W        W33121  27.579   1.842  10.425
69398W        W33122  41.370  11.675   3.344
69399W        W33123  37.898  18.265  11.087
69400W        W33124  44.494  36.461  11.104
69401W        W33125  22.565  40.868   1.392
69402W        W33126  36.092  44.460   0.344
69403W        W33127  33.022  23.553   0.459
69404W        W33128  41.372   8.180   1.366
69405W        W33129   7.196  32.440   2.322
69406W        W33130  33.620  25.522  10.547
69407W        W33131  31.111   3.442  12.946
69408W        W33132   7.899  10.718   0.433
69409W        W33133  31.093  36.850  13.802
69410W        W33134  34.923   4.382  11.445
69411W        W33135  35.516  30.098  12.353
69412W        W33136   6.750  35.369  13.352
69413W        W33137  42.370  38.867  10.059
69414W        W33138  44.377  36.557  13.038
69415W        W33139  43.436  39.465  12.510
69416W        W33140   7.209  18.652  11.119
69417W        W33141  13.784  37.962  10.571
69418W        W33142  27.556  32.557   4.251
69419W        W33143  18.775  31.643   3.777
69420W        W33144   4.241  32.890  13.825
69421W        W33145  38.477  14.304  11.918
69422W        W33146  42.305  11.194   3.843
69423W        W33147   7.238  35.475  13.495
69424W        W33148  37.861  22.188  13.342
69425W        W33149  32.140  34.006  12.003
69426W        W33150  35.499  20.630  11.429
69427W        W33151  25.544  41.907  13.837
69428W        W33152  23.003  33.447  11.874
69429W        W33153  22.127  16.720  12.067
69430W        W33154  41.319  18.297   2.380
69431W        W33155  40.398  33.974   1.800
69432W        W33156  33.005  14.811   1.706
69433W        W33157  38.436  22.105  13.487
69434W        W33158  34.060  23.118  11.052
69435W        W33159  31.477  43.002   1.339
69436W        W33160  24.674  32.500   3.855
69437W        W33161   5.708  29.635   2.781
69438W        W33162  32.073  17.790   1.324
69439W        W33163  13.172  17.626   0.839
69440W        W33164  36.995  19.169  10.937
69441W        W33165  25.097  44.903   4.163
69442W        W33166  10.704  16.690   3.771
69443W        W33167  29.026  11.803   2.760
69444W        W33168  42.838  44.378  12.427
69445W        W33169  14.328  16.115  14.916
69446W        W33170  41.413  15.289  11.085
69447W        W33171  22.518  23.576   1.388
69448W        W33172  19.261   3.725  11.942
69449W        W33173  21.689  31.617   3.834
69450W        W33174  40.506  33.027  11.859
69451W        W33175  43.893   9.801   1.429
69452W        W33176  17.180   3.719  14.396
69453W        W33177   2.357  30.086  14.833
69454W        W33178  42.514  12.851  10.604
69455W        W33179  26.978  17.297   2.307
69456W        W33180  21.658  42.877   5.212
69457W        W33181   2.726  14.338   0.429
69458W        W33182  42.031  30.423  13.000
69459W        W33183  38.826  30.105  10.418
69460W        W33184  24.126   8.333   4.620
69461W        W33185  41.461   8.666   1.211
69462W        W33186  17.161  23.671   5.249
69463W        W33187  21.093   7.410   1.312
69464W        W33188  40.989   4.386  14.778
69465W        W33189  13.221   9.181   2.310
69466W        W33190  26.141  40.468   3.776
69467W        W33191  31.550  29.046  12.539
69468W        W33192  24.489  34.406  13.894
69469W        W33193  40.327  41.351   4.642
69470W        W33194   4.912  42.510  10.037
69471W        W33195   3.770  13.302  10.554
69472W        W33196  19.777  44.298  11.460
69473W        W33197   7.758  31.511   2.878
69474W        W33198   1.337  40.431   0.960
69475W        W33199  19.219  42.868  11.504
69476W        W33200  24.704  44.830  12.538
69477W        W33201   8.168  13.233   3.795
69478W        W33202  18.722  36.008   4.807
69479W        W33203  37.491   0.769   2.314
69480W        W33204  16.238  15.182  10.420
69481W        W33205   4.254  37.007   2.695
69482W        W33206  13.624  42.488   0.443
69483W        W33207  39.511  44.841   3.806
69484W        W33208  36.569  14.156  14.482
69485W        W33209  27.049  21.717  10.947
69486W        W33210  23.177  43.987  12.507
69487W        W33211  42.288  35.588   3.712
69488W        W33212  41.885  17.670  11.122
69489W        W33213  36.981  13.753   1.310
69490W        W33214  14.718  12.682  10.429
69491W        W33215  15.601  13.105  11.904
69492W        W33216  44.814  29.135   1.215
69493W        W33217  28.066  23.654  12.935
69494W        W33218  21.593  34.605  11.990
69495W        W33219   1.762   2.408  13.930
69496W        W33220  28.564  32.577  12.013
69497W        W33221  30.133   6.343  11.399
69498W        W33222  24.169  39.549   3.385
69499W        W33223  28.014   7.868  10.907
69500W        W33224  25.006  22.507   3.665
69501W        W33225  40.376  27.093  14.922
69502W        W33226  18.673  29.920  12.979
69503W        W33227  32.534  17.706  11.419
69504W        W33228  36.978  34.108   1.866
69505W        W33229  39.821  29.056   2.392
69506W        W33230  31.404  41.521   3.752
69507W        W33231  39.343  25.190  13.342
69508W        W33232  43.313   9.878   1.321
69509W        W33233  22.065  43.466  12.896
69510W        W33234  24.630  18.617   2.317
69511W        W33235  17.752  25.972  10.492
69512W        W33236  40.547  28.993  12.437
69513W        W33237   8.749  41.362  11.461
69514W        W33238   0.852   6.370   4.756
69515W        W33239  41.504   6.282   0.282
69516W        W33240  13.195  29.618   0.892
69517W        W33241  29.070  30.542  10.957
69518W        W33242   0.858   8.754   4.337
69519W        W33243  41.020   6.301   0.448
69520W        W33244  41.859  14.178  13.062
69521W        W33245  41.418  35.439   0.466
69522W        W33246  28.108   0.915   1.845
69523W        W33247  16.774  19.071   4.772
69524W        W33248  18.255   9.727  10.566
69525W        W33249   5.873  43.972   1.381
69526W        W33250  12.121  42.395   0.382
69527W        W33251  43.276  24.130   9.559
69528W        W33252  35.371   0.905   1.887
69529W        W33253  43.384  41.423   2.819
69530W        W33254   8.402  33.025  11.086
69531W        W33255  40.054  28.134  11.596
69532W        W33256  16.721   8.376   1.794
69533W        W33257  22.054  38.017  13.469
69534W        W33258  42.830  24.157   4.675
69535W        W33259   0.398  35.539   1.440
69536W        W33260  20.665   4.839   1.245
69537W        W33261  16.584  27.184   1.222
69538W        W33262  11.217  38.960   0.268
69539W        W33263  42.848  39.999  14.800
69540W        W33264  23.736  21.029  11.946
69541W        W33265  42.417   2.280  14.275
69542W        W33266  21.602  30.575  12.570
69543W        W33267  37.342  24.097   2.761
69544W        W33268  35.595   1.358   2.253
69545W        W33269  32.130  14.639   9.587
69546W        W33270  17.793  35.097   3.805
69547W        W33271   3.289  29.588   2.394
69548W        W33272  26.136  40.021   1.310
69549W        W33273  39.468  14.629   0.875
69550W        W33274  10.264   1.407   1.222
69551W        W33275  36.963  40.859  11.123
69552W        W33276  22.532  22.635  12.520
69553W        W33277  18.268  28.013   1.442
69554W        W33278   6.730  27.493  13.343
69555W        W33279  43.842   7.344  11.373
69556W        W33280  23.229   4.816   2.281
69557W        W33281  28.548  14.818  11.937
69558W        W33282  36.419  13.259  11.431
69559W        W33283  28.014  33.005  10.922
69560W        W33284  37.430  18.108  10.890
69561W        W33285  11.848  27.092  13.979
69562W        W33286   0.808  15.107   2.395
69563W        W33287   4.391  11.681  14.800
69564W        W33288  36.996  34.912  11.425
69565W        W33289  13.187   1.837   3.724
69566W        W33290  36.545  13.732  13.992
69567W        W33291  36.033  32.538  13.983
69568W        W33292  28.469  18.244  10.951
69569W        W33293  29.983  30.077  11.508
69570W        W33294  33.495  27.107   1.374
69571W        W33295   8.793   5.358  13.360
69572W        W33296  30.950  23.517   0.366
69573W        W33297  42.791   6.755   3.255
69574W        W33298  32.946   4.731   3.312
69575W        W33299   0.387  11.241  10.967
69576W        W33300   7.811  29.033  11.859
69577W        W33301  36.860  15.772  10.419
69578W        W33302  40.390  14.119  14.834
69579W        W33303  44.494  36.039   3.722
69580W        W33304  32.481  23.104  12.507
69581W        W33305   9.277  18.177   1.297
69582W        W33306  41.989   3.417  13.488
69583W        W33307  42.997  37.922   1.278
69584W        W33308  19.224  24.636   2.245
69585W        W33309  30.427   3.264   4.355
69586W        W33310  33.592   9.232  12.391
69587W        W33311  35.388  44.840   4.188
69588W        W33312  21.707  27.141  14.850
69589W        W33313   2.431  21.661  11.970
69590W        W33314  41.854  36.429   0.346
69591W        W33315   8.668  35.858  12.557
69592W        W33316  35.863  42.887   1.851
69593W        W33317  31.515  35.603   4.712
69594W        W33318  35.103  35.400   2.287
69595W        W33319  10.762  26.650   5.143
69596W        W33320  11.781  41.018   0.369
69597W        W33321  39.854  38.929   3.353
69598W        W33322  29.561  14.169   0.383
69599W        W33323  21.525  15.085  14.016
69600W        W33324  34.491  15.809   0.872
69601W        W33325  10.842  18.727   3.645
69602W        W33326   1.443  13.774  13.454
69603W        W33327  23.679  30.059  14.328
69604W        W33328  28.041  19.552   3.342
69605W        W33329  32.542   6.831  13.390
69606W        W33330  44.470  22.165  12.968
69607W        W33331  29.150  14.696   4.294
69608W        W33332   6.891  18.747   1.217
69609W        W33333   9.735  14.737  11.913
69610W        W33334  34.547  42.496  11.047
69611W        W33335  41.910  25.686  14.466
69612W        W33336  28.947  14.226  12.945
69613W        W33337  29.035  18.681  12.543
69614W        W33338  36.569  17.103  10.159
69615W        W33339  30.124  44.829   0.895
69616W        W33340  27.096  30.532  11.591
69617W        W33341  12.688   7.672  12.403
69618W        W33342  41.808  39.816   2.871
69619W        W33343  21.204  20.701   4.119
69620W        W33344  40.809  38.391  12.067
69621W        W33345   1.887   6.398   4.298
69622W        W33346  23.677  16.306  13.424
69623W        W33347   5.353   4.357  13.817
69624W        W33348  26.146   9.738   2.325
69625W        W33349  39.858  15.189  14.403
69626W        W33350  10.247  11.629  13.397
69627W        W33351  21.737  38.890   3.261
69628W        W33352   4.923   7.402  14.441
69629W        W33353  33.915   7.824   1.725
69630W        W33354   4.915  30.011  14.315
69631W        W33355   0.869   6.909   4.755
69632W        W33356  30.421  10.637  12.517
69633W        W33357   4.807  14.191   3.235
69634W        W33358   3.865  26.999  14.859
69635W        W33359  21.167   3.815  10.639
69636W        W33360   5.734  24.207  12.893
69637W        W33361  38.927   5.400  12.401
69638W        W33362  17.282  11.354   1.413
69639W        W33363  10.289  25.594  12.881
69640W        W33364  40.498   3.375  12.518
69641W        W33365  11.300   2.917   1.752
69642W        W33366   8.700  18.270   0.966
69643W        W33367  23.017  37.076  12.486
69644W        W33368  18.138  17.786   0.467
69645W        W33369  40.949  34.943   4.240
69646W        W33370  36.853   4.733   3.356
69647W        W33371  34.998  31.635   3.779
69648W        W33372   5.428  16.258  14.931
69649W        W33373   7.706  42.944   5.234
69650W        W33374   0.877  39.056  10.523
69651W        W33375   8.886  27.999  12.845
69652W        W33376  32.571   4.922  12.469
69653W        W33377  19.197  42.788   2.674
69654W        W33378  22.075  12.730  12.396
69655W        W33379  24.594  29.478  11.437
69656W        W33380  17.091  22.649   3.366
69657W        W33381  25.100  31.012   3.294
69658W        W33382  36.896   7.315  14.490
69659W        W33383  21.103  11.866  11.073
69660W        W33384  40.398  24.133  13.481
69661W        W33385  36.488  20.567  10.589
69662W        W33386  39.022   0.455  11.539
69663W        W33387  25.525   9.388   1.436
69664W        W33388  18.553  36.436  13.379
69665W        W33389  42.434  30.078  12.502
69666W        W33390  12.610  24.553   3.867
69667W        W33391  10.762  15.202  10.448
69668W        W33392  31.507  42.808  14.446
69669W        W33393  31.085   0.884   2.229
69670W        W33394  19.727  25.665   1.266
69671W        W33395  27.498   9.669   3.731
69672W        W33396  13.790  34.428  14.768
69673W        W33397   5.323  20.556   1.336
69674W        W33398  25.686   0.922   0.294
69675W        W33399  41.019  14.698   2.689
69676W        W33400  32.913   2.471   3.171
69677W        W33401  18.690   6.275   0.937
69678W        W33402  19.270   4.735   2.700
69679W        W33403  33.916  28.009  12.346
69680W        W33404  14.827   1.270   1.857
69681W        W33405  36.585  21.040  12.447
69682W        W33406  27.018   9.761   3.777
69683W        W33407  13.342   8.281   2.236
69684W        W33408   4.235  18.734  11.977
69685W        W33409  34.943   4.383   1.397
69686W        W33410  12.312  17.233   2.805
69687W        W33411  18.568  17.106   9.944
69688W        W33412  14.221  23.077   0.906
69689W        W33413  40.312   7.777  14.851
69690W        W33414  28.660   2.939  14.941
69691W        W33415  10.253  33.380   5.130
69692W        W33416   6.428  38.982   3.841
69693W        W33417  37.377  28.633   0.773
69694W        W33418   6.368  30.033   4.705
69695W        W33419  44.817  15.642   2.214
69696W        W33420  24.568  31.409   9.986
69697W        W33421  19.723  11.250   2.785
69698W        W33422  14.813  24.103  12.024
69699W        W33423  36.941  16.743   2.345
69700W        W33424  10.775  24.615  13.059
69701W        W33425  38.864  10.380  14.899
69702W        W33426  40.303  31.121  14.827
69703W        W33427  44.907  32.407   1.806
69704W        W33428  18.101  17.130  13.037
69705W        W33429  35.100   5.702  13.508
69706W        W33430   9.392  22.682   0.344
69707W        W33431  31.135  38.477   4.675
69708W        W33432  38.409  14.759  11.106
69709W        W33433  19.747  17.131   1.259
69710W        W33434   2.924  13.338  11.012
69711W        W33435   8.195  42.843   0.482
69712W        W33436  26.140  11.127  11.574
69713W        W33437  21.553   4.940   3.749
69714W        W33438  25.163  15.289  14.385
69715W        W33439  19.102   7.912  13.455
69716W        W33440  44.417   7.221  12.357
69717W        W33441  10.753  34.962  12.874
69718W        W33442  13.782  10.283  11.909
69719W        W33443   9.368  44.289   0.863
69720W        W33444  23.529  34.956  12.951
69721W        W33445  28.166  10.712   0.269
69722W        W33446  17.713   8.299  14.418
69723W        W33447  10.227  13.328   4.636
69724W        W33448   1.467  26.958  12.554
69725W        W33449   0.479  17.182   3.248
69726W        W33450  33.468  37.336  14.915
69727W        W33451   9.218  16.639   2.313
69728W        W33452   2.897   5.722   0.390
69729W        W33453  14.662  24.171  12.524
69730W        W33454  30.449  36.533  13.010
69731W        W33455   7.240   3.740  10.431
69732W        W33456  20.238  37.853   3.311
69733W        W33457  44.439  44.454  10.920
69734W        W33458  20.117   9.204  13.858
69735W        W33459  11.763  39.809  10.943
69736W        W33460  11.745   7.813   2.825
69737W        W33461  15.138  25.481  11.466
69738W        W33462  18.193  35.427  10.421
69739W        W33463  13.619  17.705  12.851
69740W        W33464  35.547  23.658   4.226
69741W        W33465  25.153  19.662   3.347
69742W        W33466  32.141  18.161  14.874
69743W        W33467  14.199  37.941   0.930
69744W        W33468  17.157   3.321   4.701
69745W        W33469  18.702  10.738   1.702
69746W        W33470  14.712  22.608  12.970
69747W        W33471   3.890  43.851  10.904
69748W        W33472  30.934   9.689  14.465
69749W        W33473  21.582  28.120  11.511
69750W        W33474   4.699  42.781  11.528
69751W        W33475   9.847   1.799  12.357
69752W        W33476  21.625  27.168  13.467
69753W        W33477   5.752   9.832   1.287
69754W        W33478  31.536  10.341   2.370
69755W        W33479  37.451  39.556   3.255
69756W        W33480  38.044  39.320   3.367
69757W        W33481  26.571  11.736  14.021
69758W        W33482  13.174  17.597  12.076
69759W        W33483   9.257  23.682   0.315
69760W        W33484  40.331  16.267   2.699
69761W        W33485   9.264  41.855  11.014
69762W        W33486  25.545  36.081   0.878
69763W        W33487  16.583  24.637  11.864
69764W        W33488  44.870   0.346   4.707
69765W        W33489  14.204  29.131  11.116
69766W        W33490  44.945   5.715  13.478
69767W        W33491  12.847   3.299  11.000
69768W        W33492   9.777  29.473  12.421
69769W        W33493  19.051  28.627   0.457
69770W        W33494  37.976  12.798  13.921
69771W        W33495  22.691   1.332   4.243
69772W        W33496   4.222  42.935   2.401
69773W        W33497  24.149  28.066  13.000
69774W        W33498  32.457  27.962  10.063
69775W        W33499  19.713  34.959  10.947
69776W        W33500  24.005  32.587   1.835
69777W        W33501   5.841  44.945  14.024
69778W        W33502   6.777  13.203  10.947
69779W        W33503  17.570  35.400  13.318
69780W        W33504  11.222  27.954   0.929
69781W        W33505  20.181   9.662   4.792
69782W        W33506  17.558   6.862  13.861
69783W        W33507   9.702   3.412   3.706
69784W        W33508  14.207  29.982  12.856
69785W        W33509  12.209  31.986   1.407
69786W        W33510   1.811   3.756   4.613
69787W        W33511   0.328  31.582   0.967
69788W        W33512  32.918  31.043   3.232
69789W        W33513  38.889   3.300   4.201
69790W        W33514  43.356  40.486  11.919
69791W        W33515  42.991  31.945  13.309
69792W        W33516  29.511  34.523   4.225
69793W        W33517  12.720  34.097   0.734
69794W        W33518  42.814   9.303   0.298
69795W        W33519  25.085  31.594  11.090
69796W        W33520  13.750  35.861   3.853
69797W        W33521  25.667  15.634   3.283
69798W        W33522  22.119  42.431  10.017
69799W        W33523  41.443  16.682  12.514
69800W        W33524  42.961  33.459  11.447
69801W        W33525   3.709  30.112   3.665
69802W        W33526  31.125  16.738  12.977
69803W        W33527  14.216  23.198  13.982
69804W        W33528   9.736   3.714  12.097
69805W        W33529  17.762  27.994   1.442
69806W        W33530  44.362   8.855  14.416
69807W        W33531   2.903  23.658   2.337
69808W        W33532   8.314  19.047  12.880
69809W        W33533  15.597   5.866   0.355
69810W        W33534  27.581  17.611  10.568
69811W        W33535  25.504  34.538  11.005
69812W        W33536   1.247   6.337   2.741
69813W        W33537  26.101  33.477  14.375
69814W        W33538   9.260  44.334  11.913
69815W        W33539  18.608  31.149  13.483
69816W        W33540  18.578  14.254   2.704
69817W        W33541  39.364   7.835  11.512
69818W        W33542   0.820  23.576   0.753
69819W        W33543  34.482  30.911   0.734
69820W        W33544  25.591  29.970  11.015
69821W        W33545  40.858  31.574   2.797
69822W        W33546  39.942  18.660   2.400
69823W        W33547   5.404  42.379  14.860
69824W        W33548   5.751  19.553   1.401
69825W        W33549  10.711  34.405  11.473
69826W        W33550  21.110   3.796  14.292
69827W        W33551   7.678  31.130  11.043
69828W        W33552  30.513  11.228   1.701
69829W        W33553   9.650  27.646  14.914
69830W        W33554  28.184  27.017  12.983
69831W        W33555  38.826  18.222  14.758
69832W        W33556   6.360  12.775  10.624
69833W        W33557  10.344  40.004  12.851
69834W        W33558  12.622   8.712   3.683
69835W        W33559  30.608  31.909  14.889
69836W        W33560  15.635  16.770   2.370
69837W        W33561  23.571  27.093  13.952
69838W        W33562  31.551  43.289   3.153
69839W        W33563   4.204  24.104  11.543
69840W        W33564   0.348  27.515   4.802
69841W        W33565   0.799  35.539   4.139
69842W        W33566  41.452   6.401  12.834
69843W        W33567  16.290  19.566   5.200
69844W        W33568  15.704  23.114  14.346
69845W        W33569  22.587  40.520  11.043
69846W        W33570  10.801  17.725  12.851
69847W        W33571  29.530  31.121  11.859
69848W        W33572  17.262   7.790  11.563
69849W        W33573  35.989   3.440   0.939
69850W        W33574  23.686   2.959  10.990
69851W        W33575  35.445   9.726   0.803
69852W        W33576  37.572  19.193   1.857
69853W        W33577   7.254  43.288   2.179
69854W        W33578  12.209  14.730   4.743
69855W        W33579  28.949  27.966   1.838
69856W        W33580   4.870  34.465  12.542
69857W        W33581   2.465  26.552  14.842
69858W        W33582  42.307  34.433  14.792
69859W        W33583   3.767  15.155  13.814
69860W        W33584   6.709  23.678   4.604
69861W        W33585  36.871  42.022  10.914
69862W        W33586  35.575   1.951   1.809
69863W        W33587   1.820   0.907   0.414
69864W        W33588  36.458  36.547   1.764
69865W        W33589   3.834  39.906   2.211
69866W        W33590  18.736   8.349   1.773
69867W        W33591  13.220  21.020  13.798
69868W        W33592  27.055   0.274  13.803
69869W        W33593  43.465  22.726  10.112
69870W        W33594  21.047   4.342  14.882
69871W        W33595  40.922  13.244  11.939
69872W        W33596  24.688  38.075   0.333
69873W        W33597  12.817  13.693  11.536
69874W        W33598   8.233   4.291   0.763
69875W        W33599  11.756   4.386   5.239
69876W        W33600  25.154  20.760   2.388
69877W        W33601  19.626  38.393  10.512
69878W        W33602  31.428   2.333   0.372
69879W        W33603  28.588  16.284   3.236
69880W        W33604  22.743  37.548   0.843
69881W        W33605  17.167  42.884  10.513
69882W        W33606   7.283  19.671   3.382
69883W        W33607   4.224  18.168  12.367
69884W        W33608  37.571  36.482  12.344
69885W        W33609  14.710  42.332   1.865
69886W        W33610  37.992  12.349  10.455
69887W        W33611  42.803  30.551   4.750
69888W        W33612  43.968  35.421   2.359
69889W        W33613   4.876   2.799   4.239
69890W        W33614  32.630  22.678  10.439
69891W        W33615  27.670   4.867  14.972
69892W        W33616   3.290  16.093   3.362
69893W        W33617  27.023  16.126  11.104
69894W        W33618  21.127   5.926  11.047
69895W        W33619   9.164  23.149  14.305
69896W        W33620   5.296  31.624   4.267
69897W        W33621   8.381   9.344  10.531
69898W        W33622  17.797   1.765  12.050
69899W        W33623  22.244  29.455   3.857
69900W        W33624  19.657   5.407   1.710
69901W        W33625  10.696  28.088   0.412
69902W        W33626  21.521   2.460  11.065
69903W        W33627  34.491  29.611   1.823
69904W        W33628  39.411  43.871  10.543
69905W        W33629  33.571  12.286  14.014
69906W        W33630  16.233  42.000   2.216
69907W        W33631  23.524  14.186   4.222
69908W        W33632  19.180  31.549  11.464
69909W        W33633   3.942  29.481   0.901
69910W        W33634   7.386   2.846   4.150
69911W        W33635   9.365  22.121   4.121
69912W        W33636  42.954   5.697  13.874
69913W        W33637  38.359  43.821  12.972
69914W        W33638   9.652  32.077   2.345
69915W        W33639   5.235   0.361  14.418
69916W        W33640   3.936  10.757   3.728
69917W        W33641  16.211  42.947  11.902
69918W        W33642   3.224  21.123  10.606
69919W        W33643  19.090  14.156   2.326
69920W        W33644  21.234  24.635  13.891
69921W        W33645  44.961   8.676   3.760
69922W        W33646  22.043  41.960  10.558
69923W        W33647  13.267  24.222  14.509
69924W        W33648  22.035  29.450  13.958
69925W        W33649   8.273   3.347   0.861
69926W        W33650  40.406   3.954   4.258
69927W        W33651  27.107  43.926  12.437
69928W        W33652   7.758  31.456   2.221
69929W        W33653  29.446  44.770   1.416
69930W        W33654  44.299  32.006  14.400
69931W        W33655  44.993  14.722   4.794
69932W        W33656  18.274  19.163   3.320
69933W        W33657   6.860  24.695  12.377
69934W        W33658  33.581  22.160   4.700
69935W        W33659  42.783   6.188  11.063
69936W        W33660   7.296  15.704  14.426
69937W        W33661  44.907  44.992  14.500
69938W        W33662  24.665  30.501   5.766
69939W        W33663  39.948  22.638  10.921
69940W        W33664  20.614  38.872  12.904
69941W        W33665   1.390   2.857   2.191
69942W        W33666   5.846  35.474  10.565
69943W        W33667  37.873  16.262   0.869
69944W        W33668   3.445  32.999   4.613
69945W        W33669  17.800  14.634   4.348
69946W        W33670  38.347  31.520   2.322
69947W        W33671  37.970  23.702   0.404
69948W        W33672  22.537  18.263  11.878
69949W        W33673  29.042  18.091   2.288
69950W        W33674  36.512   2.450   2.735
69951W        W33675  21.569   8.754  11.066
69952W        W33676  27.189  37.014  14.891
69953W        W33677  31.077  26.584  10.608
69954W        W33678  13.687   9.805  12.496
69955W        W33679  24.034   1.240  12.463
69956W        W33680  19.569   1.888   3.779
69957W        W33681  15.600  13.329   3.316
69958W        W33682  33.535   9.835   0.958
69959W        W33683  30.445  44.471  14.768
69960W        W33684  15.651  17.714  13.439
69961W        W33685  19.199  32.406   1.775
69962W        W33686   0.311  13.801  12.398
69963W        W33687  36.050  34.976  11.530
69964W        W33688  44.758  26.109  14.947
69965W        W33689  22.064  25.028  13.512
69966W        W33690   4.377  37.891  12.442
69967W        W33691  15.152  39.349   0.389
69968W        W33692   7.354  21.097   3.802
69969W        W33693  10.784  11.810   3.228
69970W        W33694  40.873   7.274   0.866
69971W        W33695  31.634  42.436   2.372
69972W        W33696  15.175  34.001   0.926
69973W        W33697  12.147  20.617   2.823
69974W        W33698  10.266  12.324  13.020
69975W        W33699  33.559   1.473  12.891
69976W        W33700  26.557  29.651  12.507
69977W        W33701  29.936  21.513  11.966
69978W        W33702  15.601  26.596   1.370
69979W        W33703  15.270  13.694  12.007
69980W        W33704  12.640  12.617  11.082
69981W        W33705  21.630  11.638  11.384
69982W        W33706  16.770  26.530   2.778
69983W        W33707  11.251   1.939   0.443
69984W        W33708   2.731  26.100  11.945
69985W        W33709   5.252  40.807  12.420
69986W        W33710  11.634  14.742  11.428
69987W        W33711  33.471  28.097   0.312
69988W        W33712  44.259   8.351   2.780
69989W        W33713  25.081  38.052  10.572
69990W        W33714  24.092  11.696   4.338
69991W        W33715  16.138  26.989  13.474
69992W        W33716  23.160  12.352   4.728
69993W        W33717  15.770  34.394  14.299
69994W        W33718  26.578  15.136   0.876
69995W        W33719   8.766   1.452   2.699
69996W        W33720  43.853  22.504   3.733
69997W        W33721  39.983  35.033  11.520
69998W        W33722  26.132   0.934  14.447
69999W        W33723  23.146   3.443   4.803
70000W        W33724   2.809  20.723  14.835
70001W        W33725  23.041  34.987  12.498
70002W        W33726  40.530   2.406   0.915
70003W        W33727  21.244  25.966  13.006
70004W        W33728  23.133  23.621  13.959
70005W        W33729  43.821  22.590   9.961
70006W        W33730  27.086  25.109  13.344
70007W        W33731  23.223   6.210   0.447
70008W        W33732  13.225  28.633   4.194
70009W        W33733  10.819  10.294   2.739
70010W        W33734  30.048  11.855  11.403
70011W        W33735  30.491  17.255  11.087
70012W        W33736  38.851   1.310  13.325
70013W        W33737  13.271  39.359  12.074
70014W        W33738   2.384  34.468   0.761
70015W        W33739   2.872  29.589   4.230
70016W        W33740  18.679  23.673  11.880
70017W        W33741  22.567  37.374  11.995
70018W        W33742  13.141  27.687   0.847
70019W        W33743  16.673  33.589  11.382
70020W        W33744   8.883   6.317  11.557
70021W        W33745   6.389  36.847   2.206
70022W        W33746  40.963   4.322  10.497
70023W        W33747  40.327  30.546  11.894
70024W        W33748  34.450   5.257   0.736
70025W        W33749  36.550   8.356  14.860
70026W        W33750  34.611  28.185  14.496
70027W        W33751  22.140   2.878  13.045
70028W        W33752   0.363  35.886   2.730
70029W        W33753   5.339  12.287   4.120
70030W        W33754   0.397   9.742  13.308
70031W        W33755  10.213  27.455  11.554
70032W        W33756  31.980  18.613  13.059
70033W        W33757  33.472   1.333   4.770
70034W        W33758  23.057  43.474  12.363
70035W        W33759  21.150  18.198   1.291
70036W        W33760   2.943  40.406  12.480
70037W        W33761  35.962  13.164   3.716
70038W        W33762  41.024  39.038   3.291
70039W        W33763   7.818  27.063  12.078
70040W        W33764   1.930  26.036   4.759
70041W        W33765   1.329  44.759   3.841
70042W        W33766   5.768   7.750   1.293
70043W        W33767  19.633  36.020  13.984
70044W        W33768   8.369   2.271   0.902
70045W        W33769  33.406  35.956   2.677
70046W        W33770  40.354   8.270   1.262
70047W        W33771  24.696  21.070   2.408
70048W        W33772   3.339  42.857  14.812
70049W        W33773  39.317  27.482  12.543
70050W        W33774  10.315   1.870   4.635
70051W        W33775  35.465   1.276  10.965
70052W        W33776  31.106  30.104  14.933
70053W        W33777  23.695   4.796   4.277
70054W        W33778  23.699  29.426   3.821
70055W        W33779  37.841  36.873   3.650
70056W        W33780  21.647  42.858   1.422
70057W        W33781  10.319  16.316  13.398
70058W        W33782  23.689  36.075  10.491
70059W        W33783  40.029  14.129  12.896
70060W        W33784  12.803  21.622   3.723
70061W        W33785  27.559  29.958   0.820
70062W        W33786   3.239  10.772  13.446
70063W        W33787  19.763  12.171  11.948
70064W        W33788  30.130  43.281   3.220
70065W        W33789   1.731  27.057   4.121
70066W        W33790  43.779  21.162   1.717
70067W        W33791   0.945  31.925   2.846
70068W        W33792   7.736  37.519  14.898
70069W        W33793  11.823   5.875   1.793
70070W        W33794   8.656  30.508  10.470
70071W        W33795   1.238   1.350  11.092
70072W        W33796  35.592   0.949   2.344
70073W        W33797  25.594  43.508  14.497
70074W        W33798  38.021  18.596  14.384
70075W        W33799  38.971  39.843   0.912
70076W        W33800  43.362  41.466  10.643
70077W        W33801   7.367  18.248   3.637
70078W        W33802  20.064  29.115   1.783
70079W        W33803   8.195  21.666  13.375
70080W        W33804  44.457   0.308  10.424
70081W        W33805  39.405  38.980  10.096
70082W        W33806  11.192  27.477   4.312
70083W        W33807  33.474  10.789  13.841
70084W        W33808  21.588  42.456   3.842
70085W        W33809  17.186  34.378   9.929
70086W        W33810  14.797  33.561   2.216
70087W        W33811   9.679   7.848   0.402
70088W        W33812  16.698  37.937   4.675
70089W        W33813   6.318  44.866  14.436
70090W        W33814  34.985  40.331  13.451
70091W        W33815  15.246  36.554   3.636
70092W        W33816  37.424   3.811  12.404
70093W        W33817   9.777  42.288   0.356
70094W        W33818  23.499   2.922  11.949
70095W        W33819  14.316   0.907  11.042
70096W        W33820  32.558  22.071   2.880
70097W        W33821  22.130  18.133  14.848
70098W        W33822   2.852  10.293  12.400
70099W        W33823  40.405   9.180   3.287
70100W        W33824  22.710   4.385  10.623
70101W        W33825  18.733  33.058   0.787
70102W        W33826  18.679  16.722   5.302
70103W        W33827  40.442  40.007   2.295
70104W        W33828  28.144  20.220   4.330
70105W        W33829  14.713  20.264  14.322
70106W        W33830   7.785   9.646   4.121
70107W        W33831  19.731   2.757   4.313
70108W        W33832  35.874   5.866  13.063
70109W        W33833  42.380  34.107   4.223
70110W        W33834  38.988   5.741  13.937
70111W        W33835  38.534  15.187   3.336
70112W        W33836  16.096   4.820  12.030
70113W        W33837  24.593  27.584  13.332
70114W        W33838  28.939  15.809   4.166
70115W        W33839  20.141  29.598   4.755
70116W        W33840  37.485  15.593  14.458
70117W        W33841  33.998  30.988   0.349
70118W        W33842  33.440  32.462   3.308
70119W        W33843  15.179  32.497  12.005
70120W        W33844  23.592  15.602   0.344
70121W        W33845  39.560  38.926   0.325
70122W        W33846  14.817   6.360   5.194
70123W        W33847  28.028   6.814  14.406
70124W        W33848  21.190   5.732  10.069
70125W        W33849  11.370  40.437  12.881
70126W        W33850  18.589  42.366  11.050
70127W        W33851   3.765   7.839  11.506
70128W        W33852   3.740  29.005   1.792
70129W        W33853  34.097  11.189  10.458
70130W        W33854  42.474  38.398  10.423
70131W        W33855  31.550  18.583   3.183
70132W        W33856  36.937  35.363  12.905
70133W        W33857  13.747   2.942   9.555
70134W        W33858  13.292  37.857   4.598
70135W        W33859  30.963  43.823   3.795
70136W        W33860  19.241   3.303  10.571
70137W        W33861  12.654  38.440  12.870
70138W        W33862   2.896  21.614  13.944
70139W        W33863   2.395  32.888   2.212
70140W        W33864  28.540  14.270   2.890
70141W        W33865  32.427  23.124   3.240
70142W        W33866  28.488  39.044  13.846
70143W        W33867  32.904  26.669   1.311
70144W        W33868  34.436  29.108   2.338
70145W        W33869  33.007  40.322  10.604
70146W        W33870  19.191  17.697   3.157
70147W        W33871   2.767  13.183  13.369
70148W        W33872   5.392  43.470   2.289
70149W        W33873  12.202  38.529   4.272
70150W        W33874   3.309  43.507   3.232
70151W        W33875  24.016   9.157  10.565
70152W        W33876  17.283  29.511  13.339
70153W        W33877  42.463  27.686  14.842
70154W        W33878   4.349  32.047  14.857
70155W        W33879  16.306   6.183  11.063
70156W        W33880   8.853  37.058  13.864
70157W        W33881  13.320   7.304   2.188
70158W        W33882  35.979  28.670  11.499
70159W        W33883  38.957  39.556  10.938
70160W        W33884  31.641   9.878   1.305
70161W        W33885  23.608   2.423  14.015
70162W        W33886   9.205  41.320  10.021
70163W        W33887  13.755   6.784  13.498
70164W        W33888  20.059  10.138   0.746
70165W        W33889  41.819  31.629   4.265
70166W        W33890  15.122  25.091  11.611
70167W        W33891  21.259  37.547   0.277
70168W        W33892  10.856  18.138   3.356
70169W        W33893   1.805  39.005   3.292
70170W        W33894  30.618  19.682  11.119
70171W        W33895  22.706  20.198   2.329
70172W        W33896  34.490  19.747  13.360
70173W        W33897   9.382  13.249   5.317
70174W        W33898  29.042   4.782  14.494
70175W        W33899  29.161  31.112  14.908
70176W        W33900  20.105   1.856   3.650
70177W        W33901  19.663  43.824   2.861
70178W        W33902  32.626   0.411   1.927
70179W        W33903   2.458  38.997  12.088
70180W        W33904   9.710   6.409  11.955
70181W        W33905  38.483   9.176  10.453
70182W        W33906  34.507  20.549  11.929
70183W        W33907   2.316  38.954   4.329
70184W        W33908  32.122  27.446   2.692
70185W        W33909  29.161  24.148  12.896
70186W        W33910  20.706  32.087  13.795
70187W        W33911  24.529  26.189   4.659
70188W        W33912   0.448  15.655   1.316
70189W        W33913  24.637  14.721  12.828
70190W        W33914   0.809  42.520  11.436
70191W        W33915  24.578   1.977   0.371
70192W        W33916  25.578  14.312   1.231
70193W        W33917   5.253  34.542  14.373
70194W        W33918  12.173  12.641  14.966
70195W        W33919  14.236  19.209   0.369
70196W        W33920  39.993  14.614   0.882
70197W        W33921  29.154   7.725   2.328
70198W        W33922   5.890  32.107  10.466
70199W        W33923   6.396  16.191  10.460
70200W        W33924   9.221  28.076  10.153
70201W        W33925  35.953  23.999   2.304
70202W        W33926   0.955   4.875  11.959
70203W        W33927  14.721   9.873   1.893
70204W        W33928  13.200  26.107  13.433
70205W        W33929  14.763  34.925   3.335
70206W        W33930  14.778  40.841   3.650
70207W        W33931   8.760  27.662   0.274
70208W        W33932   2.231   0.370   2.686
70209W        W33933  16.627  41.424   2.323
70210W        W33934   3.775   0.768   3.843
70211W        W33935  16.079  30.644   2.893
70212W        W33936  10.192  12.822   1.876
70213W        W33937  22.718  23.618   0.251
70214W        W33938  26.972  26.699  14.029
70215W        W33939  38.988   6.890   2.670
70216W        W33940  20.647  35.021  12.892
70217W        W33941  25.659   0.877  14.846
70218W        W33942  36.968   5.872  13.478
70219W        W33943  21.721  15.186  10.418
70220W        W33944   6.723  43.805  12.870
70221W        W33945  15.610   1.263  12.579
70222W        W33946  17.628  30.992  13.907
70223W        W33947  23.135  31.479  14.463
70224W        W33948  28.481  30.657   4.266
70225W        W33949  32.056  15.613   2.395
70226W        W33950   3.270   2.861  10.986
70227W        W33951   0.941  33.566  12.905
70228W        W33952  39.514  11.259  14.499
70229W        W33953  44.468   5.247  10.431
70230W        W33954   5.421  40.311  13.898
70231W        W33955  24.616  35.558   2.812
70232W        W33956  13.273  25.216  13.461
70233W        W33957  39.939  36.038   2.387
70234W        W33958  29.614  15.201   3.634
70235W        W33959   3.796  37.360   3.183
70236W        W33960  23.698  24.171  11.521
70237W        W33961  14.805   0.800  10.478
70238W        W33962  30.658   6.774   4.657
70239W        W33963  37.869  25.211  13.307
70240W        W33964  26.677  42.853   2.261
70241W        W33965  27.192  43.515   3.322
70242W        W33966  26.656  12.669  10.481
70243W        W33967  34.007   6.885   3.656
70244W        W33968   6.779  10.667   0.892
70245W        W33969  30.062   3.926   2.233
70246W        W33970  13.819  22.164   1.450
70247W        W33971  24.110  25.162  12.037
70248W        W33972   5.736  22.199  11.559
70249W        W33973   4.221  35.476  14.410
70250W        W33974   7.253  44.298  13.900
70251W        W33975  15.125  15.730  14.859
70252W        W33976  40.878  43.972  14.813
70253W        W33977  31.990  42.835  11.082
70254W        W33978  22.658  29.961   1.830
70255W        W33979   1.752   8.659   3.369
70256W        W33980   6.762  24.155  12.517
70257W        W33981  13.339  44.001  14.310
70258W        W33982  17.179  18.105   2.343
70259W        W33983  41.860  30.929  11.448
70260W        W33984  29.555  31.563   0.349
70261W        W33985  14.804  36.467  13.513
70262W        W33986   4.225  25.594   1.333
70263W        W33987  35.913  17.192  11.885
70264W        W33988  14.818  10.226   9.979
70265W        W33989  26.477   4.449   4.310
70266W        W33990  11.715  37.431   3.802
70267W        W33991   7.256   7.316   1.897
70268W        W33992   6.786  10.645  12.469
70269W        W33993   8.289  12.166   0.329
70270W        W33994  44.976  23.091   2.676
70271W        W33995   1.974   0.404  10.460
70272W        W33996  44.879   8.169  10.467
70273W        W33997   6.320  11.129   2.674
70274W        W33998   8.403  28.148  11.997
70275W        W33999  30.025  37.457  13.321
70276W        W34000  27.956  35.445  14.872
70277W        W34001  31.951  25.534   5.316
70278W        W34002   2.235   4.867   2.225
70279W        W34003  43.470  30.928   4.828
70280W        W34004  13.683  34.438  13.795
70281W        W34005   3.719   5.769   3.239
70282W        W34006   7.203   5.814   3.369
70283W        W34007  24.040  34.083  14.012
70284W        W34008  18.118  21.157   0.922
70285W        W34009  31.976  42.517  12.427
70286W        W34010  30.421  41.316  14.875
70287W        W34011  39.840   7.863  11.465
70288W        W34012   0.340  11.242  14.361
70289W        W34013  43.993  29.169   2.836
70290W        W34014   0.805  42.311  10.473
70291W        W34015   7.795  19.602   5.315
70292W        W34016  25.011   2.279   0.369
70293W        W34017  22.031  16.275   3.385
70294W        W34018  23.158   7.826   2.765
70295W        W34019  19.121  14.184   0.316
70296W        W34020  11.671  34.899   3.867
70297W        W34021  24.024   1.420   2.272
70298W        W34022  24.544  17.091   4.193
70299W        W34023  38.565  28.472   2.710
70300W        W34024  17.696   1.438   1.826
70301W        W34025  37.397  18.739   5.276
70302W        W34026   1.747  26.208  11.912
70303W        W34027  33.578  28.494   2.256
70304W        W34028  34.099  44.372  11.558
70305W        W34029   8.800   0.317  14.412
70306W        W34030  13.837  28.955   0.437
70307W        W34031  33.909  33.013  11.891
70308W        W34032   8.885  20.172   3.700
70309W        W34033  30.055   2.418  12.510
70310W        W34034  21.035   3.796   3.187
70311W        W34035  12.730  39.507   3.283
70312W        W34036  19.188  40.367   2.211
70313W        W34037  16.794   1.860  10.546
70314W        W34038   5.331  29.130  14.487
70315W        W34039  34.085  29.044   4.149
70316W        W34040  23.059  21.666  12.031
70317W        W34041  29.431  23.517   3.802
70318W        W34042  32.454  21.149   5.156
70319W        W34043  11.649   8.883   2.825
70320W        W34044   8.371  13.222   2.729
70321W        W34045  29.995  19.716  10.405
70322W        W34046  19.542  23.578  13.544
70323W        W34047  36.578   7.192   3.241
70324W        W34048  28.664  18.194   2.369
70325W        W34049   7.828  35.931   2.708
70326W        W34050  42.013  14.155  11.072
70327W        W34051   6.404   2.887   4.778
70328W        W34052   0.427  36.096  12.961
70329W        W34053  10.742  37.923   3.724
70330W        W34054  23.595  11.255  11.596
70331W        W34055  42.012  27.635  12.005
70332W        W34056  21.140  35.443   3.735
70333W        W34057   4.718  23.163  11.075
70334W        W34058  28.177   3.234  11.558
70335W        W34059  24.066  20.156   1.215
70336W        W34060  10.694   5.223  12.457
70337W        W34061  28.165  31.132   3.689
70338W        W34062  22.725  23.233  14.479
70339W        W34063  12.224  35.367  13.033
70340W        W34064   6.335  15.124   4.340
70341W        W34065  20.704  20.691   2.307
70342W        W34066  23.594  34.566   3.860
70343W        W34067  16.660   3.345  10.060
70344W        W34068  17.642  22.097  12.350
70345W        W34069  30.976   9.360   1.807
70346W        W34070  31.629  13.145  10.139
70347W        W34071  19.627  16.085  13.910
70348W        W34072  10.835  37.421   0.385
70349W        W34073  21.600  10.672   2.686
70350W        W34074  37.503   9.674   4.169
70351W        W34075  11.766   1.282   0.787
70352W        W34076  24.070  30.473  11.600
70353W        W34077  14.272  10.361  10.102
70354W        W34078   8.350  40.391   0.327
70355W        W34079  34.863   1.810   4.192
70356W        W34080   0.805  14.592  11.900
70357W        W34081  15.595  35.538  12.572
70358W        W34082  39.936  38.013  11.056
70359W        W34083   5.313  22.573  14.913
70360W        W34084  29.173  34.542   1.431
70361W        W34085   3.220  21.685  13.392
70362W        W34086  27.569  19.095  13.908
70363W        W34087  44.906  30.629  13.475
70364W        W34088  43.931   9.155  11.556
70365W        W34089  19.047  16.135   5.766
70366W        W34090  31.470  17.633   4.148
70367W        W34091   5.735  27.517   2.862
70368W        W34092  40.509  18.711   2.335
70369W        W34093   8.281  28.118  14.959
70370W        W34094  24.721  21.514   3.188
70371W        W34095  37.512  22.142  11.088
70372W        W34096  36.097  25.088   4.286
70373W        W34097  35.912  42.879   4.305
70374W        W34098   5.259  37.403  10.080
70375W        W34099  12.358   4.446   9.621
70376W        W34100  27.537  37.903   4.673
70377W        W34101  20.079  21.715   0.885
70378W        W34102   0.821  19.154  12.499
70379W        W34103  32.472  36.014   3.750
70380W        W34104  14.189  30.117  13.838
70381W        W34105  29.983  17.134  10.460
70382W        W34106  22.667  36.526  12.387
70383W        W34107   8.176   8.247  11.571
70384W        W34108  30.452  16.595   0.933
70385W        W34109  32.129   6.251  11.045
70386W        W34110  10.166  37.356   0.835
70387W        W34111  10.379  27.179   4.278
70388W        W34112  20.693   2.471  12.487
70389W        W34113  12.845  40.397   0.932
70390W        W34114  16.682  26.009   0.850
70391W        W34115  14.326  27.127   0.365
70392W        W34116  23.658  15.284   3.632
70393W        W34117   5.817  25.149   3.384
70394W        W34118  25.995  14.763   2.231
70395W        W34119  17.204  43.406  11.381
70396W        W34120  18.134  29.952  11.554
70397W        W34121  23.146  32.524   1.294
70398W        W34122  30.926  34.573   3.149
70399W        W34123  31.907  30.546   2.670
70400W        W34124  12.621   3.370   0.748
70401W        W34125  19.557   6.701   1.311
70402W        W34126   3.742  34.469   2.400
70403W        W34127  33.094  24.712   0.261
70404W        W34128   4.360  44.990   4.352
70405W        W34129   9.775   9.822   4.753
70406W        W34130  12.643  26.023   2.770
70407W        W34131  39.432  31.563  14.403
70408W        W34132  18.099  26.466  10.026
70409W        W34133   6.821  23.193  13.002
70410W        W34134  10.161  29.576  12.060
70411W        W34135  33.988  18.097  10.474
70412W        W34136  29.991  27.631   3.751
70413W        W34137  10.757  21.710  13.318
70414W        W34138  39.027  37.497   2.392
70415W        W34139  34.583  21.028   4.185
70416W        W34140  42.453  14.800   3.728
70417W        W34141  39.436  41.483  10.113
70418W        W34142  42.448  41.488  10.951
70419W        W34143   5.798  13.730   5.084
70420W        W34144  27.488  34.871  12.355
70421W        W34145  20.247  25.176  12.438
70422W        W34146  11.694  44.778   2.876
70423W        W34147  31.582  12.624  12.457
70424W        W34148  30.452  40.542   4.143
70425W        W34149  10.645  25.087   5.261
70426W        W34150  32.092  29.104  10.037
70427W        W34151   7.877  30.460   4.190
70428W        W34152  22.732  36.842   2.319
70429W        W34153  43.904  24.614   5.092
70430W        W34154  35.515  42.500   4.145
70431W        W34155  37.354  38.995  10.548
70432W        W34156  37.962  44.870  13.317
70433W        W34157  16.616  35.560  11.604
70434W        W34158  44.358  13.749   2.674
70435W        W34159   4.943  10.215  14.468
70436W        W34160   3.819   3.760  14.379
70437W        W34161  22.574   9.823   3.329
70438W        W34162  24.667  33.460   2.343
70439W        W34163  25.120   3.786  10.587
70440W        W34164  29.078  41.494  13.400
70441W        W34165  29.118  36.473   3.317
70442W        W34166  40.946  36.893   0.846
70443W        W34167  13.106  13.803  12.988
70444W        W34168  16.797  14.221  14.288
70445W        W34169  23.659  24.561   3.386
70446W        W34170  24.555  32.410  14.328
70447W        W34171  19.578   0.464   4.607
70448W        W34172  44.387   7.205   4.350
70449W        W34173   2.918  25.199  12.505
70450W        W34174  26.112  13.149   1.357
70451W        W34175  15.159  13.672   2.249
70452W        W34176   2.243   8.780   1.253
70453W        W34177  14.801  44.978   1.423
70454W        W34178  34.933  25.536  12.463
70455W        W34179  32.503  10.269  11.965
70456W        W34180  44.825  17.124  14.906
70457W        W34181  28.027  19.077   3.249
70458W        W34182   0.942   6.887   3.771
70459W        W34183  38.949   9.688   0.408
70460W        W34184   7.757  39.016  14.950
70461W        W34185  32.093  18.178   0.912
70462W        W34186  25.210  40.955   3.244
70463W        W34187  25.977  22.508   3.660
70464W        W34188  36.572   3.738   4.750
70465W        W34189   1.259   2.764   4.234
70466W        W34190  24.092  38.349  11.855
70467W        W34191  18.598  40.883  12.001
70468W        W34192  39.869  31.935   3.698
70469W        W34193  33.527  22.591   3.363
70470W        W34194  26.671  19.277   1.235
70471W        W34195  44.003   4.379  13.803
70472W        W34196  31.146  39.889  11.485
70473W        W34197  12.157  40.830   0.830
70474W        W34198  42.804  24.490  13.391
70475W        W34199  39.554  42.929  10.926
70476W        W34200  32.122  35.093  13.846
70477W        W34201  31.495  36.525   0.893
70478W        W34202  19.090  23.715   0.963
70479W        W34203   1.433  16.102   0.283
70480W        W34204  19.652  18.732  12.430
70481W        W34205   4.239  22.617   4.654
70482W        W34206   4.876  32.589  13.062
70483W        W34207   6.344  28.983  13.313
70484W        W34208  22.587  27.956  12.383
70485W        W34209   3.753  10.709  12.442
70486W        W34210  28.991  24.091   4.316
70487W        W34211  22.252   1.976  12.883
70488W        W34212   4.794  25.527  11.544
70489W        W34213  14.763  30.624  12.971
70490W        W34214   4.333  40.017   3.760
70491W        W34215   0.966  27.631   3.801
70492W        W34216   0.813   6.259  12.027
70493W        W34217  43.289  44.417  11.080
70494W        W34218   2.308  35.467   1.905
70495W        W34219  28.991   1.277   2.862
70496W        W34220  28.474  22.695   0.294
70497W        W34221  24.197  30.443  14.016
70498W        W34222   3.858  36.897  13.796
70499W        W34223   3.460  21.621   1.335
70500W        W34224  32.950  27.078   1.450
70501W        W34225  23.148  38.368   9.550
70502W        W34226  10.718  42.383   4.831
70503W        W34227  23.728  43.361  10.891
70504W        W34228   5.334  16.264   1.697
70505W        W34229  22.042  15.794   2.272
70506W        W34230  31.488   6.918   0.292
70507W        W34231   2.359  42.360  11.966
70508W        W34232  23.719   3.303   3.699
70509W        W34233  29.646  15.121   1.831
70510W        W34234  23.623  26.167   2.264
70511W        W34235  15.668   7.712  14.875
70512W        W34236  11.260  10.844   2.710
70513W        W34237  39.377  14.305  11.905
70514W        W34238  23.578  27.133   1.380
70515W        W34239  31.044   0.263  12.347
70516W        W34240  35.892  44.954  14.468
70517W        W34241  27.121  26.519   4.668
70518W        W34242  28.477  24.130   4.271
70519W        W34243   5.928  36.076   0.805
70520W        W34244  15.093  13.623   3.860
70521W        W34245   4.762  37.466   5.082
70522W        W34246   9.165  16.151   0.391
70523W        W34247  27.526   7.850   2.712
70524W        W34248  42.876  16.735   3.344
70525W        W34249  30.608  37.965   4.239
70526W        W34250  44.753   1.315   2.353
70527W        W34251  20.146  42.928  11.480
70528W        W34252  23.241  20.768  11.980
70529W        W34253   2.931  25.199  12.907
70530W        W34254  34.084   2.788  11.562
70531W        W34255  12.139   6.794   2.225
70532W        W34256  23.490  19.111  11.071
70533W        W34257  32.007  43.820   3.219
70534W        W34258  12.773  31.579  12.916
70535W        W34259  27.026  14.097  11.387
70536W        W34260  27.498  23.058  14.493
70537W        W34261  21.521  14.707  10.558
70538W        W34262  14.160  32.978   4.117
70539W        W34263   7.754  20.233   4.352
70540W        W34264  41.485  42.304  12.944
70541W        W34265  34.581  35.591  10.533
70542W        W34266  41.340  21.171   5.261
70543W        W34267  42.450  18.610  11.986
70544W        W34268  29.084   8.205  13.548
70545W        W34269  40.030  22.716  14.428
70546W        W34270  40.354  35.387   3.185
70547W        W34271   6.836  39.459  11.864
70548W        W34272  44.844  10.829   2.383
70549W        W34273  10.731  26.672  14.862
70550W        W34274   2.302  37.071  12.402
70551W        W34275   7.355   0.451  12.965
70552W        W34276   6.792   6.334  11.501
70553W        W34277  22.140  37.444  14.285
70554W        W34278  28.094   0.280   3.637
70555W        W34279  38.914  37.068  12.389
70556W        W34280  37.351  23.114   2.204
70557W        W34281   4.720   6.708   2.419
70558W        W34282  17.263   7.671   2.763
70559W        W34283  12.331  39.940   1.307
70560W        W34284   8.836  23.679   4.302
70561W        W34285   1.460  11.623  14.863
70562W        W34286  17.219  39.839   3.362
70563W        W34287  30.613  44.393   2.398
70564W        W34288  43.866   1.929  14.414
70565W        W34289  24.215  11.851   0.401
70566W        W34290  35.424  38.526   1.914
70567W        W34291   5.309  43.299  12.479
70568W        W34292  43.431   0.948  11.033
70569W        W34293  16.672   6.706  14.882
70570W        W34294  13.277   4.329   4.198
70571W        W34295  43.457  40.373   2.754
70572W        W34296   0.382  26.199   2.367
70573W        W34297  28.498  18.586   1.279
70574W        W34298  20.061  12.807  13.898
70575W        W34299  28.974  10.203   3.716
70576W        W34300  10.313  44.346   4.700
70577W        W34301  36.966  23.202   3.847
70578W        W34302  13.240   5.880   1.727
70579W        W34303   0.392   6.879  11.396
70580W        W34304  12.310  28.996   0.788
70581W        W34305  18.691  21.126  11.910
70582W        W34306  18.225   5.928  12.939
70583W        W34307  41.017  39.394  13.313
70584W        W34308   2.325  16.086  13.480
70585W        W34309   1.320  17.699   1.430
70586W        W34310  17.769   7.799   2.353
70587W        W34311  28.644  34.012   3.657
70588W        W34312  17.139  40.528   3.863
70589W        W34313  37.566  33.959  13.813
70590W        W34314  42.879  36.456   2.304
70591W        W34315   2.723  28.578  11.448
70592W        W34316  42.446  42.019   5.143
70593W        W34317  44.876  41.824  11.502
70594W        W34318  24.983  38.983  14.430
70595W        W34319  17.716  25.491   4.778
70596W        W34320  44.804   7.876   0.759
70597W        W34321  12.767   4.741   2.375
70598W        W34322  31.004  15.809  14.993
70599W        W34323  44.896   8.341   0.775
70600W        W34324  29.518   5.246   3.738
70601W        W34325  19.770  39.042   3.823
70602W        W34326   1.397  28.997  12.844
70603W        W34327  30.025  27.559  12.556
70604W        W34328  15.214  13.350  12.012
70605W        W34329  29.106  41.301  14.275
70606W        W34330  25.158  26.195  11.052
70607W        W34331  36.934  26.997   3.838
70608W        W34332  30.994   0.344  13.950
70609W        W34333  34.492   9.711  11.982
70610W        W34334   7.349  30.485   4.175
70611W        W34335  43.338  34.902   4.182
70612W        W34336  43.296  10.189   1.920
70613W        W34337  36.546  44.373   2.785
70614W        W34338   3.849  39.002   3.312
70615W        W34339  32.623  23.168   4.805
70616W        W34340  20.102  17.719  12.503
70617W        W34341  10.148  27.649   3.693
70618W        W34342   4.275  20.524  13.041
70619W        W34343   4.300   2.738  13.967
70620W        W34344  10.324  32.533   4.126
70621W        W34345  31.612  24.572   3.752
70622W        W34346  44.779  39.023  10.096
70623W        W34347  36.975  30.916  11.906
70624W        W34348  31.524  12.832   0.420
70625W        W34349  38.560   9.821   0.400
70626W        W34350   2.910  43.392  10.980
70627W        W34351  10.275   0.402   3.354
70628W        W34352  26.030   9.764  12.978
70629W        W34353  14.673  12.215  12.377
70630W        W34354  12.805  16.224  14.957
70631W        W34355  40.029  30.970  12.882
70632W        W34356  40.543  35.587   2.815
70633W        W34357  28.070  19.179   1.387
70634W        W34358  15.179   4.842   0.876
70635W        W34359  35.967   9.702   2.316
70636W        W34360   9.360  28.963  12.936
70637W        W34361   7.201  23.053   3.798
70638W        W34362  29.473  31.046  11.384
70639W        W34363  36.417   6.838   2.383
70640W        W34364  34.997  31.554   1.727
70641W        W34365  23.045  42.401   0.482
70642W        W34366  42.007  37.523   1.849
70643W        W34367  31.479  30.003  11.561
70644W        W34368   6.877  30.561  12.433
70645W        W34369  28.090  44.336  12.951
70646W        W34370  18.651   6.351   3.765
70647W        W34371  24.705  11.805  10.888
70648W        W34372  42.520   7.714   0.262
70649W        W34373  23.650  44.433   4.118
70650W        W34374  26.521  31.421   0.266
70651W        W34375   6.338  42.500  13.525
70652W        W34376  18.197  20.248  12.865
70653W        W34377  33.034  12.770   3.273
70654W        W34378  28.064   8.399   1.334
70655W        W34379  26.583   1.385   0.303
70656W        W34380   1.792  14.640  13.407
70657W        W34381  14.677  11.657  12.096
70658W        W34382  11.712  33.614  13.346
70659W        W34383  44.775  34.941   2.849
70660W        W34384  43.772   6.843   3.367
70661W        W34385  39.451  41.510   9.548
70662W        W34386  15.144  11.326   3.269
70663W        W34387  39.546  30.948  11.476
70664W        W34388  28.491  20.707  10.956
70665W        W34389   3.880  10.646   2.295
70666W        W34390   5.377  20.064   3.749
70667W        W34391  31.546  16.649   1.890
70668W        W34392  27.483  43.514   1.720
70669W        W34393   0.804  36.927  11.925
70670W        W34394  44.367   3.377   3.186
70671W        W34395  39.530  40.378  10.043
70672W        W34396  31.077  41.469  10.009
70673W        W34397  35.037  41.815  14.291
70674W        W34398  22.178   8.692  12.508
70675W        W34399  24.639  34.924   0.462
70676W        W34400  42.375   3.934  13.472
70677W        W34401  10.342  18.567   2.876
70678W        W34402  25.034  16.300   2.838
70679W        W34403  13.225  32.089  12.001
70680W        W34404  10.383  17.557   4.809
70681W        W34405  27.013  42.385  12.343
70682W        W34406  35.079  43.946   0.856
70683W        W34407  11.284  44.452  14.456
70684W        W34408  35.079  26.082   3.634
70685W        W34409   1.930  31.123  14.497
70686W        W34410   4.922   0.957   3.182
70687W        W34411  32.433  11.232  13.965
70688W        W34412  24.037  41.866  14.448
70689W        W34413   5.218  13.646   1.366
70690W        W34414   0.926  22.630  12.869
70691W        W34415  18.259  26.514   4.741
70692W        W34416  26.133  34.015  14.933
70693W        W34417  26.569  11.855  10.036
70694W        W34418  14.227  27.015   4.219
70695W        W34419  37.482  29.572  13.920
70696W        W34420   7.703  21.048   3.758
70697W        W34421  26.610  23.012  11.515
70698W        W34422  41.933  17.758  13.851
70699W        W34423  35.488  15.129   3.184
70700W        W34424  16.646  28.446   3.659
70701W        W34425  41.797   7.214   1.269
70702W        W34426   7.764  12.328   4.151
70703W        W34427  28.949   7.716  11.112
70704W        W34428  24.491  16.158   0.421
70705W        W34429  27.084  10.816  13.922
70706W        W34430  19.261  12.756  12.577
70707W        W34431   2.278  27.000  12.418
70708W        W34432  36.544  16.231  11.394
70709W        W34433  14.209  36.853  13.462
70710W        W34434  41.481  41.410   0.930
70711W        W34435   3.417  13.808  11.039
70712W        W34436   6.427  28.988   3.250
70713W        W34437  34.566  20.692   2.201
70714W        W34438  12.768   0.404  11.113
70715W        W34439  22.103  18.263   3.745
70716W        W34440   1.875  15.687  14.791
70717W        W34441  34.005  14.833   3.190
70718W        W34442  16.792  26.587   4.176
70719W        W34443   4.204  11.373   3.695
70720W        W34444  44.953  42.015  13.816
70721W        W34445   1.351  39.866   3.358
70722W        W34446  29.644  25.642   0.307
70723W        W34447  30.947   7.775   1.304
70724W        W34448  11.242  31.624   3.656
70725W        W34449   7.694   2.232  12.501
70726W        W34450   9.185   6.401   3.268
70727W        W34451  40.012  26.636  11.061
70728W        W34452   3.954  13.146   4.838
70729W        W34453  24.722  19.209  11.026
70730W        W34454  35.008  19.603   2.393
70731W        W34455  14.156   6.723   2.889
70732W        W34456  39.999  18.065  13.469
70733W        W34457  23.530  30.973   1.337
70734W        W34458  31.078  15.094  12.408
70735W        W34459  22.062  42.409   5.168
70736W        W34460  40.511   3.909  10.993
70737W        W34461  28.106  15.783  10.581
70738W        W34462  21.726   8.311   2.813
70739W        W34463  17.683  10.702   1.935
70740W        W34464  42.797  26.695   3.200
70741W        W34465  27.191  41.388   0.317
70742W        W34466  43.319  27.029  13.509
70743W        W34467   0.352   3.934   0.728
70744W        W34468  11.792  42.449   3.706
70745W        W34469  21.054  18.184   0.758
70746W        W34470   5.881   2.388   4.336
70747W        W34471  19.216  11.244  11.413
70748W        W34472  24.653  11.688  13.331
70749W        W34473  25.070  11.744  11.021
70750W        W34474  41.340   5.710   0.858
70751W        W34475  38.425  34.576   2.881
70752W        W34476  23.065  27.190  13.806
70753W        W34477  15.155  24.989  14.364
70754W        W34478   4.734   8.265  14.307
70755W        W34479   2.318  20.594  13.319
70756W        W34480   6.713  13.134  13.906
70757W        W34481  41.298  25.566  12.537
70758W        W34482  39.860  27.633  11.582
70759W        W34483   6.851  19.220   0.382
70760W        W34484   3.239   5.810   0.469
70761W        W34485  32.443  22.632   4.135
70762W        W34486  30.942  26.552  11.917
70763W        W34487   3.724  22.236   3.769
70764W        W34488  38.967  37.066   0.908
70765W        W34489  35.994  23.540   2.180
70766W        W34490  38.913  40.039   1.801
70767W        W34491  15.146  21.563   4.702
70768W        W34492  24.098  11.369   2.220
70769W        W34493  35.537  15.758   0.856
70770W        W34494  35.553  42.888  13.336
70771W        W34495   7.267   2.882   3.811
70772W        W34496   6.829  18.746   2.260
70773W        W34497  10.226  22.093   4.835
70774W        W34498  42.505  17.755  11.470
70775W        W34499  37.853  19.264   1.815
70776W        W34500   9.241   5.909  11.496
70777W        W34501  36.490  39.376   0.342
70778W        W34502  27.684  27.578   1.387
70779W        W34503   8.832  42.888   1.407
70780W        W34504  23.647  38.971  14.280
70781W        W34505  14.597  29.098  13.462
70782W        W34506   5.332  16.778   3.818
70783W        W34507  29.615  42.294  13.360
70784W        W34508  17.250  39.428   3.342
70785W        W34509  25.098   8.219  10.085
70786W        W34510   6.878  14.801  12.523
70787W        W34511  22.608  28.580   4.755
70788W        W34512  39.851  33.514   2.886
70789W        W34513  41.866  35.038  11.485
70790W        W34514  22.742   1.928   0.244
70791W        W34515  23.543  28.437   3.719
70792W        W34516  43.397  44.964  13.347
70793W        W34517  19.053   2.831   4.293
70794W        W34518  24.548  21.700  14.960
70795W        W34519   6.912  24.171   3.789
70796W        W34520   7.332  38.387   4.705
70797W        W34521  10.875  24.129   2.856
70798W        W34522  44.963  36.422  11.497
70799W        W34523  20.540  21.729  14.412
70800W        W34524  36.040  23.239   4.249
70801W        W34525  24.160  29.921  10.635
70802W        W34526   3.920   2.434  14.420
70803W        W34527  34.033  12.142   1.348
70804W        W34528  42.019   5.424  13.403
70805W        W34529  40.458  32.492   2.303
70806W        W34530   4.265  24.592   1.221
70807W        W34531  11.203  34.524  10.496
70808W        W34532   1.331  13.713  12.492
70809W        W34533  31.581  33.507   3.857
70810W        W34534  18.551   6.707  11.448
70811W        W34535  42.404  41.403   3.792
70812W        W34536  15.159   7.297  12.835
70813W        W34537  22.241   5.924  12.830
70814W        W34538  15.163  14.819   0.738
70815W        W34539   1.849  19.650   1.290
70816W        W34540  43.828  17.222  14.394
70817W        W34541  31.536  32.584  10.470
70818W        W34542  44.361  35.565   3.712
70819W        W34543  35.923   7.354  13.797
70820W        W34544   5.802  42.333   4.713
70821W        W34545   7.400   9.770  13.511
70822W        W34546  16.804   6.254   1.315
70823W        W34547   6.912  44.352   3.310
70824W        W34548  42.466   5.794   0.901
70825W        W34549  31.514  23.516  10.965
70826W        W34550  11.670  12.219  12.498
70827W        W34551  32.888  38.332  14.500
70828W        W34552  31.428  29.533  11.947
70829W        W34553  13.722  17.761   0.842
70830W        W34554  26.128  40.453   0.816
70831W        W34555  15.809   9.650  13.317
70832W        W34556   7.851  30.988   2.868
70833W        W34557  19.148  38.545   1.906
70834W        W34558  29.022  20.055  12.457
70835W        W34559  29.656  32.555   2.202
70836W        W34560   2.945  21.059   2.901
70837W        W34561  21.700  20.750  14.994
70838W        W34562  34.493  23.162  13.021
70839W        W34563  28.170  22.244  13.965
70840W        W34564   0.929  15.674  13.407
70841W        W34565  28.531  28.022  11.128
70842W        W34566  23.236  44.909  13.403
70843W        W34567  13.654  16.182   3.292
70844W        W34568   2.288  25.060  10.969
70845W        W34569  28.064   0.334   3.235
70846W        W34570  15.699   7.855  11.955
70847W        W34571  18.609  20.691  13.864
70848W        W34572   2.808  44.358   2.260
70849W        W34573  20.571   0.283  10.593
70850W        W34574  32.995  22.246  11.930
70851W        W34575  41.851  24.485   4.725
70852W        W34576  27.542   5.823   2.375
70853W        W34577  16.578  17.655   4.190
70854W        W34578  28.158   4.256  13.534
70855W        W34579   3.738   9.678   0.787
70856W        W34580  11.331  24.599  14.365
70857W        W34581  32.419   0.866  11.457
70858W        W34582   5.812   5.296   2.186
70859W        W34583  32.605  41.401   3.778
70860W        W34584  11.229   2.450   3.187
70861W        W34585  21.520   8.288   4.674
70862W        W34586  35.011  11.623   3.717
70863W        W34587  14.834  12.777  12.003
70864W        W34588  28.184  20.081  14.514
70865W        W34589  28.468  12.818   2.813
70866W        W34590  24.106  24.153  15.000
70867W        W34591   3.813   1.467   1.385
70868W        W34592  34.486  14.097   2.901
70869W        W34593   0.780  39.953  11.863
70870W        W34594  20.157  21.550  11.097
70871W        W34595  30.439  23.522   1.249
70872W        W34596  25.092  25.999  14.829
70873W        W34597   2.470  35.456   3.716
70874W        W34598   6.251  43.888   2.704
70875W        W34599  20.625  21.149   1.242
70876W        W34600   1.309  44.328   3.747
70877W        W34601   3.389  18.723   5.300
70878W        W34602  12.260   3.854   4.153
70879W        W34603  36.415  16.738   0.753
70880W        W34604  20.663  43.807   0.478
70881W        W34605  17.242   6.856   1.241
70882W        W34606  31.581  23.553   4.699
70883W        W34607  26.953  44.868   4.165
70884W        W34608   7.751  20.092  12.341
70885W        W34609   7.393  33.601  13.544
70886W        W34610  42.856  21.719   0.441
70887W        W34611  15.234  35.882  12.991
70888W        W34612   9.863  18.161  11.994
70889W        W34613  31.433  24.699   1.700
70890W        W34614   1.902  24.569  14.368
70891W        W34615  40.828   5.933  13.010
70892W        W34616   7.303  11.844   4.273
70893W        W34617  23.492  17.303   4.670
70894W        W34618  44.905  43.884  11.946
70895W        W34619  32.885  31.486   0.937
70896W        W34620   7.344  43.830  12.089
70897W        W34621   4.434  19.046   2.316
70898W        W34622  36.844  42.793  12.896
70899W        W34623  22.039  15.689   0.730
70900W        W34624  30.451  36.417  12.425
70901W        W34625   2.917  17.192  13.845
70902W        W34626   6.918  44.297   3.831
70903W        W34627  34.932  23.725   1.863
70904W        W34628  42.499  11.809  10.621
70905W        W34629  11.720   2.908  12.913
70906W        W34630  42.375  31.577   4.200
70907W        W34631  18.755   6.799  13.003
70908W        W34632  28.518  33.400   2.318
70909W        W34633  15.708  27.623  12.428
70910W        W34634  24.513   4.728  10.437
70911W        W34635  37.072  35.057   4.292
70912W        W34636  10.248  20.567  11.007
70913W        W34637   7.746  38.554   4.129
70914W        W34638  26.669  15.250  13.023
70915W        W34639  25.974  35.604   4.288
70916W        W34640  40.874  42.985  12.967
70917W        W34641   7.882  27.633  10.930
70918W        W34642  40.042  32.996  11.005
70919W        W34643  25.638  15.788   1.284
70920W        W34644  20.035   0.347   2.282
70921W        W34645  33.549  17.630  10.116
70922W        W34646  41.374   0.395  13.367
70923W        W34647  12.711  43.419   1.828
70924W        W34648  11.242   2.278  11.046
70925W        W34649  29.506  34.067  13.513
70926W        W34650  31.606  25.558   1.212
70927W        W34651   9.209  41.445  14.301
70928W        W34652  42.498  11.268  11.391
70929W        W34653  25.059  34.531   9.937
70930W        W34654  12.762  28.052  14.359
70931W        W34655   5.896   0.279  12.006
70932W        W34656   0.771  30.622   0.251
70933W        W34657  10.689  16.738   0.307
70934W        W34658  36.884  18.230   4.143
70935W        W34659  43.815  35.999  10.636
70936W        W34660   3.954  25.515   4.627
70937W        W34661   0.820  23.675   9.940
70938W        W34662   3.949  37.502  13.340
70939W        W34663   4.846   4.210  11.902
70940W        W34664  24.569  20.096   3.742
70941W        W34665  44.002  42.447  10.922
70942W        W34666  40.970   7.881   4.602
70943W        W34667  10.744  32.064  14.483
70944W        W34668   5.713  35.964   4.298
70945W        W34669  20.223  27.522  13.801
70946W        W34670  26.114  40.487   1.879
70947W        W34671   4.251  35.436   1.275
70948W        W34672   2.872  22.679   2.376
70949W        W34673  26.571  10.790   2.271
70950W        W34674  39.931  11.311   2.226
70951W        W34675   2.729  17.743  14.031
70952W        W34676  27.462  35.037   0.800
70953W        W34677   7.399   2.294   0.256
70954W        W34678  23.692   4.323  10.539
70955W        W34679  38.829  43.005   1.403
70956W        W34680  39.345   3.260  11.930
70957W        W34681  20.136  33.448  11.985
70958W        W34682   1.954  42.929  14.394
70959W        W34683   3.255  12.714   3.668
70960W        W34684  33.068  11.339   0.917
70961W        W34685  29.629  34.494  12.002
70962W        W34686   4.297   0.833  12.041
70963W        W34687  27.129  39.921   4.341
70964W        W34688  14.150   2.810   2.898
70965W        W34689  26.516  31.538   2.397
70966W        W34690  23.230  18.677   4.277
70967W        W34691  21.732  24.136   2.706
70968W        W34692  15.234  20.230  14.793
70969W        W34693  28.943  26.078   1.268
70970W        W34694  38.384  11.266  13.493
70971W        W34695  19.277   0.444   3.183
70972W        W34696  33.487  35.949  12.879
70973W        W34697  19.217  31.469   3.672
70974W        W34698  15.620  27.503  14.469
70975W        W34699  24.087  18.645   0.738
70976W        W34700  34.023  44.008   2.705
70977W        W34701  17.307  12.844   3.314
70978W        W34702  10.380  25.702   3.161
70979W        W34703  22.243   8.261  11.449
70980W        W34704  37.939  18.590   4.758
70981W        W34705   1.297  18.610   3.721
70982W        W34706  12.342  40.991  13.398
70983W        W34707   5.812  20.254   0.917
70984W        W34708  23.644  33.592   3.672
70985W        W34709  31.523  41.357  11.390
70986W        W34710  24.613  24.489  11.110
70987W        W34711  32.032  22.620  13.948
70988W        W34712   8.340  17.591  10.614
70989W        W34713  31.995   9.186  14.414
70990W        W34714  15.237  41.397   4.652
70991W        W34715  36.031   8.792   3.303
70992W        W34716   1.480  22.038  14.446
70993W        W34717   5.707  37.005   0.886
70994W        W34718  21.187  16.575   1.837
70995W        W34719  25.045  14.727  11.033
70996W        W34720  29.665   1.270   3.324
70997W        W34721   9.787  12.136   4.168
70998W        W34722  24.591  18.098   1.257
70999W        W34723  30.577   9.319   2.682
71000W        W34724  41.811  38.522  13.516
71001W        W34725  23.199   4.717  14.293
71002W        W34726   2.360  10.809   1.805
71003W        W34727  35.089   9.303   1.860
71004W        W34728  21.243  14.238   5.298
71005W        W34729  23.692  20.053   4.759
71006W        W34730  34.923   5.732  12.462
71007W        W34731  33.523  36.396   4.632
71008W        W34732  26.184  23.991  10.925
71009W        W34733  34.505  34.863  13.951
71010W        W34734  32.050  28.493   0.253
71011W        W34735  23.507  16.227   3.689
71012W        W34736   5.317  42.401  11.994
71013W        W34737  36.427  17.203   1.768
71014W        W34738  41.534  12.226   2.700
71015W        W34739  25.514  13.131  10.639
71016W        W34740  23.064  43.343   4.793
71017W        W34741  30.648   9.737  12.350
71018W        W34742  44.798   3.435  14.908
71019W        W34743  11.144  15.272   4.254
71020W        W34744  29.630   6.785   4.208
71021W        W34745  13.647   2.839  10.567
71022W        W34746  40.320   6.740  11.372
71023W        W34747  26.655   6.202   4.195
71024W        W34748  32.137   0.393   0.769
71025W        W34749  26.037   6.331  13.512
71026W        W34750  44.386   5.906  13.890
71027W        W34751  40.014   1.253   2.410
71028W        W34752  21.623   9.240  13.822
71029W        W34753   0.339   8.269   0.374
71030W        W34754  11.755  35.073   1.378
71031W        W34755  23.105  17.735  10.437
71032W        W34756   1.882   2.777   0.390
71033W        W34757   0.403   2.908   2.403
71034W        W34758  29.000  29.527   4.317
71035W        W34759  44.912  13.842   1.228
71036W        W34760  25.041   1.388   0.328
71037W        W34761  39.481  41.393   0.319
71038W        W34762  19.284  40.498  14.292
71039W        W34763  30.646  38.881   3.637
71040W        W34764  33.942  13.180   4.600
71041W        W34765  39.323  15.095  11.417
71042W        W34766  11.708  30.488   2.285
71043W        W34767  23.209   8.396   2.693
71044W        W34768  41.890  15.818  13.924
71045W        W34769  33.900  28.054   1.829
71046W        W34770  19.536   0.384   0.818
71047W        W34771  19.205  39.019   5.189
71048W        W34772  13.665  11.266  10.911
71049W        W34773  44.374  11.799   5.217
71050W        W34774  11.715   6.372  11.521
71051W        W34775  14.811   9.389  13.857
71052W        W34776  11.263  34.577   4.344
71053W        W34777  12.649   2.813  14.837
71054W        W34778  26.174  37.561   1.448
71055W        W34779  39.550   7.326  10.430
71056W        W34780  31.529  31.638  11.884
71057W        W34781  25.208  39.844   3.287
71058W        W34782   5.915  29.491  10.485
71059W        W34783   2.428   3.323   2.812
71060W        W34784  15.184  38.364  12.538
71061W        W34785  36.363  28.136  10.575
71062W        W34786  34.096   2.812   1.221
71063W        W34787   4.904  21.057   3.190
71064W        W34788  40.936  36.958  14.781
71065W        W34789   2.940  22.502   4.156
71066W        W34790  12.826  34.918  14.300
71067W        W34791   7.229   9.286  14.352
71068W        W34792  30.068   0.820  13.946
71069W        W34793  39.930  29.140  14.847
71070W        W34794  24.053  22.739   3.641
71071W        W34795  33.896  21.116  12.962
71072W        W34796  12.187  17.110   4.330
71073W        W34797  16.570  42.833   3.243
71074W        W34798  22.515  36.584  13.863
71075W        W34799  20.610   4.726  14.002
71076W        W34800  21.253   5.694   1.764
71077W        W34801  16.127  44.998  11.902
71078W        W34802  41.907   7.754   4.665
71079W        W34803  11.826  15.704   0.475
71080W        W34804   8.697   0.871   1.761
71081W        W34805  24.170  30.482   1.301
71082W        W34806  29.159   7.747   4.171
71083W        W34807   7.293  21.245   3.250
71084W        W34808  13.225  40.980   0.768
71085W        W34809  19.578  19.171  12.831
71086W        W34810  34.905   8.742  11.890
71087W        W34811  34.385  44.437  11.479
71088W        W34812  35.431   8.691   2.843
71089W        W34813  15.631  28.493  11.491
71090W        W34814  15.258  28.092   0.291
71091W        W34815  15.279  39.993  14.406
71092W        W34816   7.204   3.252  11.955
71093W        W34817  27.514   5.264  13.903
71094W        W34818  31.557  24.515   2.256
71095W        W34819  14.292  13.721  11.054
71096W        W34820  38.378  16.636   2.860
71097W        W34821  31.109  32.039  12.063
71098W        W34822  10.296  24.668  14.327
71099W        W34823  43.009   1.270  11.566
71100W        W34824  31.609   9.151  13.956
71101W        W34825  15.610  12.322  13.793
71102W        W34826   0.421  22.240   1.310
71103W        W34827  29.162  41.536   1.260
71104W        W34828  34.572  28.459  12.990
71105W        W34829   7.786  25.213  10.458
71106W        W34830   1.329  33.502  10.500
71107W        W34831  24.011  14.609   0.372
71108W        W34832  24.643  20.735   3.807
71109W        W34833  38.061  21.040  12.487
71110W        W34834  14.705  33.075  14.767
71111W        W34835  41.898   3.439  12.892
71112W        W34836  31.017  19.711   3.685
71113W        W34837   4.441  34.937  12.432
71114W        W34838   8.794  11.283   0.854
71115W        W34839   6.841  41.437  14.458
71116W        W34840  21.172   6.754  12.969
71117W        W34841  11.284  25.164   2.878
71118W        W34842  16.732  10.743   0.728
71119W        W34843  31.029   9.380  14.862
71120W        W34844  13.602  25.589   4.122
71121W        W34845   5.228  18.140   0.731
71122W        W34846  42.003  19.207  12.421
71123W        W34847  21.668  38.471  10.933
71124W        W34848  30.083  18.760   2.270
71125W        W34849   5.909  23.182   4.208
71126W        W34850  35.470  20.227   0.909
71127W        W34851  40.825  41.801   1.372
71128W        W34852  43.971  37.958  14.769
71129W        W34853  42.027  37.923   3.749
71130W        W34854  43.965  42.965  11.487
71131W        W34855  10.873  18.249  11.058
71132W        W34856  38.538   9.368  12.064
71133W        W34857  13.259  43.317  10.495
71134W        W34858  22.696  18.731   0.784
71135W        W34859  16.696  39.511   3.268
71136W        W34860  39.846  44.490   1.738
71137W        W34861   9.699  13.826  13.349
71138W        W34862   5.273  19.052   2.245
71139W        W34863  25.128  16.782  14.776
71140W        W34864  34.099   4.231  11.888
71141W        W34865  44.899  25.220  14.496
71142W        W34866  39.872   1.367   2.795
71143W        W34867   1.246  29.084   4.747
71144W        W34868  16.243  25.115   1.315
71145W        W34869  39.035  36.896   2.395
71146W        W34870   1.861  33.580   5.182
71147W        W34871  29.430  21.093   0.789
71148W        W34872  10.352  35.997  12.075
71149W        W34873  40.037  33.572  14.983
71150W        W34874  40.493  43.929  11.573
71151W        W34875   7.187  16.763   2.769
71152W        W34876  30.562  27.032  12.513
71153W        W34877  28.118  12.337   1.872
71154W        W34878  40.949  20.595   0.761
71155W        W34879  42.993  33.128   2.225
71156W        W34880   8.208  19.661  10.956
71157W        W34881  22.685  24.566  12.095
71158W        W34882  22.623  31.506   2.186
71159W        W34883   6.859   1.891   2.180
71160W        W34884  43.291  32.137  14.879
71161W        W34885  15.578  31.529   4.335
71162W        W34886  38.536  19.560   0.465
71163W        W34887   5.819   3.949   3.230
71164W        W34888  20.047  13.274  14.836
71165W        W34889  17.712  30.028   2.190
71166W        W34890  19.558   2.855  13.964
71167W        W34891  17.219  41.812   3.306
71168W        W34892  15.286   0.351  14.446
71169W        W34893  33.597   6.907   9.991
71170W        W34894  25.076  15.701  12.039
71171W        W34895  41.973  39.331   2.760
71172W        W34896  36.028   5.266   2.342
71173W        W34897  24.013  28.632   4.612
71174W        W34898   7.357  29.999  14.815
71175W        W34899   6.921  42.440  11.544
71176W        W34900  28.955  36.581  12.540
71177W        W34901  38.556  29.133  12.438
71178W        W34902  30.104  32.062  12.427
71179W        W34903   0.837  37.482  14.010
71180W        W34904  16.293  22.607  14.032
71181W        W34905   8.246  35.008  13.394
71182W        W34906  25.562   2.861  10.470
71183W        W34907  27.570  37.415   2.836
71184W        W34908   8.193   6.201  12.483
71185W        W34909  28.449  22.645   4.288
71186W        W34910  14.813  23.547   2.889
71187W        W34911   7.331  25.661   3.863
71188W        W34912  23.100  32.517  11.387
71189W        W34913  15.311  22.236  12.059
71190W        W34914  10.228  18.144   3.657
71191W        W34915   5.693  20.598  14.331
71192W        W34916  13.663  35.430  14.283
71193W        W34917   0.958  14.265   2.782
71194W        W34918  43.340   9.827   4.730
71195W        W34919  16.682  22.571  13.447
71196W        W34920  10.781   2.249   3.640
71197W        W34921  28.534  35.408  10.469
71198W        W34922  12.354  28.663  13.035
71199W        W34923  30.589  30.581  13.050
71200W        W34924  37.018  33.067  14.282
71201W        W34925  40.019   1.778   3.242
71202W        W34926  26.642   2.240  14.958
71203W        W34927  24.112  13.123   5.234
71204W        W34928   5.379  11.778  12.077
71205W        W34929  35.561  25.501   1.725
71206W        W34930  38.044  13.617  11.029
71207W        W34931  10.635  19.738  13.429
71208W        W34932  44.920   0.817   4.766
71209W        W34933  27.071  43.277  14.894
71210W        W34934   5.250  27.570  12.928
71211W        W34935  25.987  28.142   0.367
71212W        W34936  29.099  44.808   1.819
71213W        W34937  28.599  37.906   1.798
71214W        W34938  20.623  21.262  11.035
71215W        W34939  18.070  23.671  13.040
71216W        W34940  27.958  42.863  11.002
71217W        W34941  13.822  27.463  10.483
71218W        W34942  31.968  25.580  13.998
71219W        W34943  33.101  40.994  12.363
71220W        W34944  44.840  22.634   4.237
71221W        W34945  14.816  25.216   4.281
71222W        W34946   8.826  18.079   4.338
71223W        W34947  33.114  19.558  11.514
71224W        W34948   6.427   0.844   3.206
71225W        W34949  40.532  43.806  13.791
71226W        W34950  10.184  32.570   1.437
71227W        W34951  39.971  25.477   1.401
71228W        W34952   7.200  36.917   3.738
71229W        W34953  22.677  37.843  11.927
71230W        W34954  16.218  18.178   1.358
71231W        W34955   5.918  21.150   4.701
71232W        W34956  35.469   1.910  14.790
71233W        W34957  44.917  42.906   0.743
71234W        W34958   7.377  31.504  13.956
71235W        W34959   1.901  22.034  13.351
71236W        W34960   8.174  37.972   4.646
71237W        W34961  39.881   1.868  13.822
71238W        W34962  17.618   2.386   2.730
71239W        W34963  20.698  29.034   1.328
71240W        W34964  20.704  43.955   1.888
71241W        W34965  14.240  39.489   0.450
71242W        W34966  36.846  10.371   1.712
71243W        W34967  22.745  32.041   4.209
71244W        W34968  23.594  43.798  13.428
71245W        W34969  44.843   9.653   2.834
71246W        W34970  33.048   6.754  14.847
71247W        W34971  17.705   2.232   3.220
71248W        W34972  35.924  43.273   2.207
71249W        W34973  11.743  37.048   4.344
71250W        W34974   5.289   0.946  14.837
71251W        W34975  42.883  13.786   4.694
71252W        W34976   5.359  31.599  10.421
71253W        W34977  11.671  28.122   5.122
71254W        W34978  24.102  38.551   3.257
71255W        W34979  17.106  23.732   4.650
71256W        W34980  28.149  33.128   1.418
71257W        W34981  24.031  39.521  14.765
71258W        W34982  16.575  18.670   3.166
71259W        W34983  34.550  28.021   4.792
71260W        W34984  22.637   5.393  12.039
71261W        W34985  19.042  29.158  14.317
71262W        W34986  38.547  32.452   1.247
71263W        W34987  40.447  33.124  14.309
71264W        W34988   1.324  26.178  14.902
71265W        W34989  31.977  30.999  13.995
71266W        W34990  22.169  36.416  10.116
71267W        W34991  40.010  37.366  13.819
71268W        W34992  41.000  19.042  10.949
71269W        W34993  42.869  11.771  12.055
71270W        W34994  35.526  17.125   2.369
71271W        W34995   1.793   8.380  13.962
71272W        W34996  33.113   0.949  12.068
71273W        W34997  32.066  21.703  13.821
71274W        W34998  26.655  32.593  13.370
71275W        W34999  41.332  27.986  11.014
71276W        W35000  15.327   0.291  12.913
71277W        W35001  27.081  11.634  13.477
71278W        W35002   0.835   1.787  13.856
71279W        W35003  12.640   4.323   0.254
71280W        W35004  34.015  24.131   4.615
71281W        W35005  20.605  37.019  12.961
71282W        W35006  38.012  29.442   4.767
71283W        W35007  30.491  38.939  10.601
71284W        W35008  23.118   5.926  10.458
71285W        W35009  22.189  31.943  14.410
71286W        W35010  36.923  10.340   0.388
71287W        W35011  11.313  28.490   4.278
71288W        W35012  34.568  36.012   2.689
71289W        W35013  22.666  17.152   4.788
71290W        W35014   7.279  18.564  14.328
71291W        W35015  37.830  38.829  14.332
71292W        W35016  12.325   0.261   2.261
71293W        W35017  29.455  17.144  12.837
71294W        W35018   8.308  20.753  10.485
71295W        W35019   0.848  31.435   2.208
71296W        W35020   6.851  29.637  13.444
71297W        W35021  22.215   0.463   3.193
71298W        W35022  20.711  30.566  11.054
71299W        W35023   7.910  43.816   0.728
71300W        W35024  33.923   1.742   0.358
71301W        W35025  38.416  43.350  11.513
71302W        W35026   8.655   6.864   1.859
71303W        W35027  29.428  33.614   1.777
71304W        W35028  16.577   4.247  14.493
71305W        W35029  12.322   5.411   3.812
71306W        W35030  34.606  36.560  14.369
71307W        W35031  14.735  22.155  10.951
71308W        W35032   5.827  27.687  10.589
71309W        W35033   7.807  11.625  11.971
71310W        W35034  13.264  42.955  12.380
71311W        W35035   5.365  22.058  14.391
71312W        W35036  43.814  19.677  11.415
71313W        W35037  26.648  21.683   2.402
71314W        W35038  31.078  30.054  13.845
71315W        W35039  25.642  42.350   2.354
71316W        W35040  27.514  33.625   4.251
71317W        W35041  29.597  19.079  12.055
71318W        W35042  13.786  25.976   3.227
71319W        W35043  33.939  36.963   2.889
71320W        W35044  27.175  39.401   1.379
71321W        W35045  32.624   2.401  12.549
71322W        W35046  40.829  43.501  13.008
71323W        W35047  33.900  26.961   1.925
71324W        W35048  24.137  33.121   1.905
71325W        W35049  41.502  41.531   0.369
71326W        W35050  18.635  36.070   1.838
71327W        W35051  32.901  42.784  10.558
71328W        W35052  32.940  40.974  13.478
71329W        W35053  11.762  36.560  11.969
71330W        W35054  25.134   9.156   2.206
71331W        W35055  19.070  16.314   0.347
71332W        W35056   6.259  42.947   2.289
71333W        W35057  35.880   4.884  14.968
71334W        W35058  12.187  29.581   2.395
71335W        W35059  21.575  41.423  13.017
71336W        W35060   8.831  34.968   2.868
71337W        W35061  11.288   5.750  12.929
71338W        W35062  19.610  29.114   0.310
71339W        W35063  13.795  13.156  13.797
71340W        W35064   7.795  25.043   5.251
71341W        W35065  37.450  42.032  10.576
71342W        W35066  37.526  17.111   0.340
71343W        W35067  10.145  17.728   3.802
71344W        W35068  43.499  23.212  13.796
71345W        W35069  33.070   1.378   0.396
71346W        W35070  24.007  38.049   1.216
71347W        W35071  35.030  14.692  10.451
71348W        W35072  28.139  36.896  11.984
71349W        W35073  14.772  38.887  14.983
71350W        W35074  40.911  11.719  14.805
71351W        W35075   1.794  38.935   4.722
71352W        W35076  31.906  41.949   4.609
71353W        W35077  28.553   4.215   0.466
71354W        W35078  35.432   8.166  14.432
71355W        W35079   6.749  38.568   0.431
71356W        W35080  22.081  44.381  14.890
71357W        W35081  21.572  32.412  11.867
71358W        W35082  17.137  15.163   4.636
71359W        W35083  17.791  43.454  13.942
71360W        W35084   7.902   8.303  14.839
71361W        W35085  25.602  32.012   5.125
71362W        W35086  40.827  43.498   2.898
71363W        W35087  28.029  10.313  13.443
71364W        W35088  27.108  26.507   4.289
71365W        W35089   3.917  19.617  11.380
71366W        W35090  26.635  23.656  14.846
71367W        W35091  29.154  15.756  14.769
71368W        W35092   7.910  32.057   5.150
71369W        W35093  35.884  11.771  12.018
71370W        W35094  39.978  27.096  13.043
71371W        W35095  14.591  10.222   4.114
71372W        W35096  29.097  12.740  13.485
71373W        W35097  21.204  25.597   4.166
71374W        W35098  38.953  35.460   2.867
71375W        W35099  32.926  12.740  10.468
71376W        W35100  23.077  11.738   0.273
71377W        W35101   3.789  13.131  14.465
71378W        W35102  18.171  22.113  12.047
71379W        W35103  41.015  33.969   1.847
71380W        W35104  10.697  27.506  11.111
71381W        W35105  13.253  22.174  11.953
71382W        W35106  40.477  34.035  14.279
71383W        W35107  13.293  20.556  13.001
71384W        W35108  35.030  10.864   3.200
71385W        W35109   7.235  40.021  13.535
71386W        W35110  44.896  31.491  13.451
71387W        W35111  35.378  40.885  13.509
71388W        W35112   5.425  17.773  12.342
71389W        W35113  23.564  36.980  13.382
71390W        W35114  41.975  25.217  12.040
71391W        W35115  19.200  30.602   0.372
71392W        W35116  44.375  18.774   0.727
71393W        W35117  29.989  19.152  12.395
71394W        W35118  43.380  27.962   1.770
71395W        W35119  40.925  34.422  13.876
71396W        W35120  22.070  39.013   2.744
71397W        W35121  42.953  37.046   1.401
71398W        W35122  16.135   0.288  13.806
71399W        W35123  28.663  37.367   0.419
71400W        W35124  32.986  34.913   3.172
71401W        W35125  44.310  39.406  11.474
71402W        W35126  38.426  31.594  11.402
71403W        W35127  22.650  40.405  14.448
71404W        W35128  42.824  38.899   2.211
71405W        W35129  26.167  34.949   2.761
71406W        W35130  20.584  36.551  13.825
71407W        W35131  26.128  16.132   3.855
71408W        W35132  12.652   0.462  12.958
71409W        W35133  42.290  13.800   3.653
71410W        W35134  26.549  42.970   1.875
71411W        W35135  36.088  13.321   2.339
71412W        W35136  21.515   5.427  13.522
71413W        W35137   6.909  40.002  13.974
71414W        W35138  36.934  33.485  10.953
71415W        W35139   2.910   2.292   3.865
71416W        W35140  39.502   0.296  10.579
71417W        W35141   2.332   4.441  12.997
71418W        W35142  29.162  38.994   3.654
71419W        W35143  17.126  39.834  13.985
71420W        W35144   1.480  42.783   1.750
71421W        W35145  29.529  20.725  14.806
71422W        W35146  12.614   3.406   1.766
71423W        W35147  19.227   8.171   2.714
71424W        W35148  25.633  39.530  14.848
71425W        W35149  39.841   6.703   3.793
71426W        W35150  25.969  33.557  11.033
71427W        W35151  38.944  23.056   0.879
71428W        W35152  43.918   9.859   0.756
71429W        W35153  39.436  34.599  10.493
71430W        W35154   1.253  44.870   3.148
71431W        W35155  14.099  42.361  13.546
71432W        W35156  42.294  28.004   1.884
71433W        W35157  17.766  34.573  14.349
71434W        W35158  32.063   7.770  11.515
71435W        W35159  39.821  28.547  10.954
71436W        W35160  33.942  20.698  11.982
71437W        W35161  41.532  10.342  14.989
71438W        W35162  21.150  36.397  12.886
71439W        W35163  33.480  33.045  11.974
71440W        W35164  16.606   0.322  12.055
71441W        W35165  30.985  18.597   1.263
71442W        W35166  19.702   6.923  11.486
71443W        W35167  33.891   7.215  13.453
71444W        W35168  34.510  41.338  10.958
71445W        W35169  23.601  29.476  11.474
71446W        W35170  41.337   9.195  11.124
71447W        W35171   1.847  34.448   0.393
71448W        W35172   5.311   5.703  14.921
71449W        W35173  27.964   0.266  13.833
71450W        W35174  32.026   8.715  10.611
71451W        W35175  42.384  37.412   2.326
71452W        W35176  40.959  15.806   1.319
71453W        W35177   7.793  34.865   0.769
71454W        W35178  29.110  30.108  12.065
71455W        W35179  42.867  31.076  13.913
71456W        W35180  11.778  39.443   2.869
71457W        W35181  35.854  25.015   1.726
71458W        W35182   0.900  33.015  14.903
71459W        W35183  31.925  24.134   4.295
71460W        W35184   4.399   9.324   1.258
71461W        W35185  20.633  14.155  12.835
71462W        W35186  17.696  40.900   3.738
71463W        W35187  36.048   0.852   3.240
71464W        W35188  30.115  43.371  12.556
71465W        W35189  18.098  44.414   1.745
71466W        W35190  13.662  20.586  10.914
71467W        W35191  29.504  32.441  13.530
71468W        W35192   3.430   5.693   1.420
71469W        W35193  38.990   8.885   4.143
71470W        W35194  13.212  20.673  10.494
71471W        W35195  23.998   2.460   3.217
71472W        W35196  20.068  26.606   4.642
71473W        W35197  28.469  15.307  13.382
71474W        W35198  31.099  36.921  13.530
71475W        W35199  21.096  25.138   3.665
71476W        W35200  40.978  29.529   4.258
71477W        W35201  25.564  31.907  13.816
71478W        W35202   3.273   3.233   3.233
71479W        W35203  32.903  22.226   4.187
71480W        W35204   8.718  43.334   1.922
71481W        W35205  41.992  38.033  14.804
71482W        W35206  42.012  33.040   1.265
71483W        W35207  18.137  20.760   2.322
71484W        W35208  39.831   0.344  11.016
71485W        W35209   0.311  42.957   0.785
71486W        W35210  29.964  36.559  11.377
71487W        W35211   7.810   5.923  10.976
71488W        W35212  11.341  16.734   2.710
71489W        W35213   0.822   7.812   3.259
71490W        W35214   5.287  26.074   4.241
71491W        W35215  34.382   5.732  13.892
71492W        W35216  22.548  33.583   3.737
71493W        W35217  40.937   5.252  10.615
71494W        W35218   8.865  38.336  13.043
71495W        W35219  19.109  30.945  13.531
71496W        W35220  17.703   0.403   0.446
71497W        W35221  22.536   2.403  13.397
71498W        W35222  36.466   7.293   1.786
71499W        W35223   0.935  10.348  11.060
71500W        W35224   2.376  12.697   4.224
71501W        W35225   3.777  41.342  10.466
71502W        W35226  10.721   9.856   4.722
71503W        W35227  31.417  32.393   0.394
71504W        W35228  20.200  38.981  11.521
71505W        W35229  31.977  11.168  10.905
71506W        W35230  32.518  33.456   0.812
71507W        W35231  16.612  33.465   3.258
71508W        W35232  15.802  30.524  10.936
71509W        W35233  31.097   2.742   2.743
71510W        W35234  13.793   1.746  11.552
71511W        W35235  40.856  12.250   1.908
71512W        W35236   5.396  35.920   0.472
71513W        W35237  15.124  41.899  13.388
71514W        W35238  39.932   0.384   4.622
71515W        W35239  37.058  19.735   2.695
71516W        W35240  14.131  11.679  12.080
71517W        W35241  14.216  32.492  11.053
71518W        W35242  31.648   7.707  11.379
71519W        W35243   3.911  16.778  12.844
71520W        W35244   9.195  40.872   0.463
71521W        W35245  29.518  36.870   0.314
71522W        W35246  14.121  18.235   0.750
71523W        W35247  28.484  40.463   1.744
71524W        W35248  29.155   0.793   0.331
71525W        W35249  35.582  11.632  13.942
71526W        W35250  31.444  15.144  10.046
71527W        W35251   4.315  20.181  14.349
71528W        W35252  37.555  31.083  12.516
71529W        W35253  18.292  18.559   2.845
71530W        W35254  16.706  18.620   3.704
71531W        W35255  33.442  42.813  12.420
71532W        W35256  38.979  15.787  13.840
71533W        W35257  11.759  11.361   0.931
71534W        W35258  14.209   9.327   1.711
71535W        W35259  30.122  35.503   4.227
71536W        W35260  15.118  40.328  13.926
71537W        W35261  28.614  29.017  10.493
71538W        W35262  10.743  25.211  14.930
71539W        W35263  32.397  28.117   1.728
71540W        W35264  42.913  13.148  12.919
71541W        W35265  38.990  38.455   1.867
71542W        W35266  18.748   5.887   0.320
71543W        W35267  29.959  37.921  11.023
71544W        W35268  22.017   9.832   3.868
71545W        W35269  38.494   1.909   1.755
71546W        W35270  35.038  24.523  13.307
71547W        W35271  33.445  36.872  10.111
71548W        W35272  39.052  26.629   0.947
71549W        W35273  28.671  38.566  12.463
71550W        W35274  29.076   3.314  14.984
71551W        W35275   8.823  19.735   2.325
71552W        W35276  29.455  33.478  10.996
71553W        W35277  27.567  28.438  10.933
71554W        W35278  10.194   6.273   2.388
71555W        W35279  35.424  32.451   4.721
71556W        W35280   3.443   5.902  11.479
71557W        W35281  18.574  33.555   5.228
71558W        W35282  16.602  32.618   0.286
71559W        W35283  30.529  26.181  11.946
71560W        W35284   0.988   0.409  13.967
71561W        W35285  17.620   9.866   3.201
71562W        W35286  29.593  35.871  11.598
71563W        W35287  28.502  38.409   0.796
71564W        W35288  42.964  32.075  12.418
71565W        W35289  20.655   7.382  10.552
71566W        W35290  29.958   7.891  11.561
71567W        W35291  24.207  16.145  11.565
71568W        W35292  34.469   0.955   2.275
71569W        W35293   5.274  18.111   0.347
71570W        W35294  23.632  37.984   4.645
71571W        W35295  15.201  25.079   1.801
71572W        W35296  23.117  14.201   0.887
71573W        W35297  30.613  43.412  14.397
71574W        W35298  24.640  13.685   4.265
71575W        W35299  42.965  39.461   2.380
71576W        W35300   2.361  27.512  10.459
71577W        W35301  29.490  43.344   1.772
71578W        W35302  41.969  12.623   3.687
71579W        W35303   5.393  13.625   3.336
71580W        W35304  34.094  13.216  13.993
71581W        W35305   6.383  32.546   1.780
71582W        W35306  23.116  32.503   0.368
71583W        W35307  38.441  24.724  13.803
71584W        W35308  42.797  12.231  12.375
71585W        W35309  42.506  21.136  13.871
71586W        W35310  20.685  40.971   0.778
71587W        W35311  25.128  34.014   4.199
71588W        W35312  25.502  35.567  11.038
71589W        W35313  36.375  35.986   0.950
71590W        W35314   6.245  33.523  10.476
71591W        W35315  20.219   4.704  10.548
71592W        W35316  20.688  24.479  11.968
71593W        W35317  16.632  14.825  12.445
71594W        W35318  21.645  10.252   1.332
71595W        W35319  33.047  38.473  11.011
71596W        W35320  25.482  11.147  14.763
71597W        W35321  40.397  21.755  13.830
71598W        W35322  18.240  15.663   9.627
71599W        W35323  16.149  43.861  14.435
71600W        W35324  22.234   9.723  13.006
71601W        W35325  41.908   5.364  13.966
71602W        W35326   8.720  42.347  11.052
71603W        W35327  18.188  42.995  14.825
71604W        W35328  38.881  23.514  13.939
71605W        W35329  36.538  12.738   2.329
71606W        W35330   8.820   8.871  12.520
71607W        W35331  14.677  25.182  12.898
71608W        W35332  19.275  27.658  11.011
71609W        W35333  30.429  38.502  10.961
71610W        W35334  31.130  14.816  10.888
71611W        W35335  33.611   9.319   2.242
71612W        W35336  35.871  24.098   1.864
71613W        W35337  43.479  36.355   1.285
71614W        W35338  30.119   3.460   2.356
71615W        W35339  22.133  44.285  11.861
71616W        W35340  11.227   1.959   2.882
71617W        W35341  14.750   7.690   3.381
71618W        W35342  25.095  12.696   0.959
71619W        W35343  26.047  12.777  10.485
71620W        W35344   6.355  30.992   4.157
71621W        W35345   0.923   9.159  11.541
71622W        W35346  35.423  32.428  12.034
71623W        W35347   8.332  44.292   3.678
71624W        W35348   2.813  17.698  12.001
71625W        W35349   9.838  32.890  10.633
71626W        W35350   4.328  20.103   2.402
71627W        W35351  42.390   2.792  14.764
71628W        W35352  41.297  30.446  13.991
71629W        W35353  16.702  16.089   1.441
71630W        W35354  20.539  19.770   4.199
71631W        W35355  33.975   6.245  11.486
71632W        W35356  20.048   4.258  11.547
71633W        W35357  10.308  15.818  13.335
71634W        W35358  28.664  37.441  11.065
71635W        W35359  33.606  30.511   2.187
71636W        W35360  10.860  13.273  12.462
71637W        W35361  22.144  20.690   3.233
71638W        W35362  14.225   8.304   3.777
71639W        W35363  44.006  35.909  10.898
71640W        W35364  40.535  37.522   2.902
71641W        W35365  34.506   3.862   4.148
71642W        W35366  17.264  36.481   3.224
71643W        W35367  19.197  31.455  12.826
71644W        W35368  34.426  23.649  11.949
71645W        W35369  41.407  30.622   4.658
71646W        W35370   2.824   9.362  13.927
71647W        W35371  33.499   0.423   1.276
71648W        W35372  22.608  30.503  13.988
71649W        W35373  16.277  38.029   4.215
71650W        W35374   1.253  32.536   2.258
71651W        W35375  15.086   3.460  10.102
71652W        W35376  31.900   3.870  14.017
71653W        W35377  17.278  17.588   0.838
71654W        W35378  13.643  19.702   4.121
71655W        W35379  24.011   2.907  11.082
71656W        W35380  20.732  25.010  13.803
71657W        W35381  12.152   7.783   1.834
71658W        W35382  29.666  32.911   3.211
71659W        W35383   8.327  28.111  10.895
71660W        W35384  28.959  39.030   0.481
71661W        W35385  22.644  10.383   4.670
71662W        W35386  13.662  17.685  14.858
71663W        W35387  32.544  39.896  12.035
71664W        W35388  35.105   6.216   3.651
71665W        W35389  43.355  22.181   3.307
71666W        W35390  34.114  16.810  13.928
71667W        W35391  23.587  21.651  13.909
71668W        W35392   1.947  34.072   3.177
71669W        W35393  36.553  11.764  11.112
71670W        W35394   7.177  33.397   3.793
71671W        W35395  31.463  17.231  11.937
71672W        W35396  12.831  20.654  10.483
71673W        W35397  20.656  25.702  13.499
71674W        W35398  25.556  38.025   1.427
71675W        W35399  31.135  31.978  11.454
71676W        W35400  32.459  35.552  14.334
71677W        W35401  21.557  41.878   4.618
71678W        W35402  24.516  10.823  14.935
71679W        W35403  43.929  42.913   3.634
71680W        W35404  17.765  38.865   4.703
71681W        W35405  22.742  25.036   9.964
71682W        W35406  44.267   6.793  14.823
71683W        W35407  32.109  27.601  10.466
71684W        W35408  20.572   3.375   4.327
71685W        W35409  34.114  19.123  13.862
71686W        W35410  39.989   7.677   4.155
71687W        W35411  36.050  25.536  13.048
71688W        W35412  11.694  12.118   3.694
71689W        W35413  15.271  18.228  10.510
71690W        W35414   5.756  12.291   1.385
71691W        W35415  22.225  24.479   3.199
71692W        W35416  14.191   5.896  13.819
71693W        W35417  32.590  31.981   4.209
71694W        W35418  27.514  12.357   2.882
71695W        W35419  42.404  42.870   0.369
71696W        W35420   2.292  25.707   2.353
71697W        W35421   7.299  30.057   3.853
71698W        W35422  38.464  20.216   1.384
71699W        W35423   7.847  32.622   3.266
71700W        W35424  23.609   8.738  13.441
71701W        W35425  14.145  16.669   4.656
71702W        W35426   2.259  27.009   1.314
71703W        W35427  15.615   7.767  13.466
71704W        W35428   5.780   5.890   4.201
71705W        W35429   3.295  25.504  11.014
71706W        W35430  39.033  31.424   0.876
71707W        W35431  22.205  42.406   2.292
71708W        W35432  10.808  26.538  11.982
71709W        W35433  41.868   5.899   2.361
71710W        W35434  11.209  11.858  10.444
71711W        W35435  11.181  25.706   3.766
71712W        W35436  36.907  41.842  13.018
71713W        W35437  25.019  34.007  10.554
71714W        W35438   6.916  42.812   2.308
71715W        W35439  27.090   4.317   2.350
71716W        W35440  29.152   1.470  14.275
71717W        W35441  35.563  38.325   3.655
71718W        W35442  19.572   3.803   4.318
71719W        W35443   9.687  16.626   1.879
71720W        W35444  13.630   9.742  13.052
71721W        W35445   3.805  28.674   0.453
71722W        W35446  31.425  40.845   2.706
71723W        W35447  15.213  16.134  10.485
71724W        W35448  35.900  41.002   3.285
71725W        W35449  11.712  12.647   1.212
71726W        W35450  42.880  42.454  14.430
71727W        W35451  40.366   7.395  13.014
71728W        W35452  24.664   2.440  11.077
71729W        W35453   8.400  20.553   2.290
71730W        W35454  11.322  32.021  14.514
71731W        W35455  34.479  38.489   0.866
71732W        W35456   0.833  11.167   2.722
71733W        W35457   1.975  17.707   3.681
71734W        W35458  43.851  13.337   4.273
71735W        W35459  15.209  11.773  12.015
71736W        W35460  40.961  43.851  14.298
71737W        W35461  39.993  43.491  13.972
71738W        W35462   0.348  33.576  12.837
71739W        W35463  20.682   4.296   2.709
71740W        W35464   7.678   1.333   0.732
71741W        W35465  30.088  16.243   2.245
71742W        W35466  36.475  36.995  12.579
71743W        W35467  43.905  29.935   3.723
71744W        W35468  34.962  23.062  11.050
71745W        W35469   7.242  12.613   5.672
71746W        W35470  18.188   5.346  13.817
71747W        W35471  40.546   6.698  11.886
71748W        W35472  40.929   8.303  11.895
71749W        W35473  37.086  44.371  12.919
71750W        W35474  37.036  22.143  10.506
71751W        W35475  35.965  38.362   1.804
71752W        W35476  19.533   0.774  13.428
71753W        W35477  27.995  33.528  10.590
71754W        W35478  33.111  25.116  13.050
71755W        W35479  19.114  36.032   2.679
71756W        W35480  40.896  34.865  10.107
71757W        W35481   5.744   2.425   2.353
71758W        W35482  24.165   3.406   2.245
71759W        W35483   9.160  23.716  14.840
71760W        W35484  12.314   8.261   3.642
71761W        W35485   0.749  16.149  13.926
71762W        W35486  15.584  34.571  13.834
71763W        W35487   5.766   5.232   1.241
71764W        W35488  39.944  36.896  13.379
71765W        W35489  31.644  18.144   4.838
71766W        W35490  35.477  38.860   1.807
71767W        W35491  23.220  28.549  11.582
71768W        W35492   1.260  37.932  12.547
71769W        W35493  11.230  10.378   2.806
71770W        W35494  28.600   8.235  12.428
71771W        W35495  28.070  36.970   4.826
71772W        W35496  17.683  14.181  12.380
71773W        W35497  38.413  38.553  11.075
71774W        W35498  40.922  18.738   1.856
71775W        W35499  20.091  31.105   1.245
71776W        W35500  30.940  27.655  10.576
71777W        W35501  38.351  18.200   3.677
71778W        W35502   7.709   5.708  11.878
71779W        W35503  25.051  16.180   0.954
71780W        W35504  37.959  10.322  12.831
71781W        W35505  11.137   5.225  12.410
71782W        W35506   9.202  10.287   2.272
71783W        W35507   1.823  11.678   5.089
71784W        W35508  15.739  28.078  12.404
71785W        W35509   9.779  28.547  10.914
71786W        W35510   6.754   2.306   0.852
71787W        W35511  28.502  20.714  12.010
71788W        W35512  31.065  24.663  14.322
71789W        W35513  33.549  41.432  10.136
71790W        W35514   2.339  26.020  11.075
71791W        W35515   0.746  23.118   0.417
71792W        W35516  10.274  42.448  10.473
71793W        W35517  31.449  29.072   1.790
71794W        W35518  44.827  32.480  11.585
71795W        W35519  34.529  38.889  14.893
71796W        W35520  13.748   4.776  11.512
71797W        W35521  14.692  18.277  11.536
71798W        W35522  30.989  36.465  13.001
71799W        W35523  31.538  22.210   2.204
71800W        W35524  38.419  11.795   1.899
71801W        W35525  35.928  14.816   1.306
71802W        W35526   0.284  36.935   3.236
71803W        W35527  10.816  36.553   2.223
71804W        W35528  44.454  27.546   4.671
71805W        W35529   5.924  22.022   3.635
71806W        W35530   7.411  20.257  11.072
71807W        W35531  19.238  16.187  10.593
71808W        W35532  10.701  22.545  14.379
71809W        W35533  11.246  11.817   3.386
71810W        W35534  38.462  40.966   0.967
71811W        W35535  21.049   5.333   0.889
71812W        W35536   9.848  22.675   3.219
71813W        W35537  19.105  44.931   3.833
71814W        W35538  28.603  10.764  12.878
71815W        W35539   1.874  14.138  11.979
71816W        W35540  36.552  31.618  14.973
71817W        W35541  33.975  14.249   9.932
71818W        W35542  38.403  12.275   0.956
71819W        W35543  19.206   3.946  14.786
71820W        W35544   8.191  24.696   2.227
71821W        W35545  23.039  11.859  11.954
71822W        W35546  15.123  27.668   0.437
71823W        W35547   4.926  13.192  14.457
71824W        W35548  26.576  17.557   0.245
71825W        W35549   0.448  11.345  12.989
71826W        W35550   3.280  24.149  13.369
71827W        W35551  25.481   4.704   4.334
71828W        W35552  35.363  43.434   3.724
71829W        W35553  29.511  38.361   4.701
71830W        W35554  15.109   9.656  10.913
71831W        W35555  30.914  33.580   2.278
71832W        W35556  10.160  28.644   1.373
71833W        W35557  20.228  33.530  10.573
71834W        W35558  38.837  39.058  10.987
71835W        W35559  41.292   3.931  12.532
71836W        W35560  22.246  32.621   1.774
71837W        W35561  10.712  21.063  10.624
71838W        W35562   4.746  32.397  10.081
71839W        W35563  11.727   0.774   1.309
71840W        W35564  40.432  18.219  14.792
71841W        W35565  24.485  11.347   0.831
71842W        W35566  23.525   4.329   3.154
71843W        W35567   3.721  41.385  11.531
71844W        W35568  38.446  38.911  11.587
71845W        W35569  20.262   2.345   1.924
71846W        W35570  29.633   6.249  14.767
71847W        W35571  15.218   8.210  13.059
71848W        W35572   6.187  23.658   4.624
71849W        W35573  27.962   5.315  11.438
71850W        W35574  27.107  32.956  11.403
71851W        W35575  29.997   1.460   0.895
71852W        W35576  23.694   9.658  14.828
71853W        W35577   3.307   1.406  13.034
71854W        W35578   4.220  30.950   0.373
71855W        W35579  16.139  39.907   2.758
71856W        W35580   6.808  36.527   3.721
71857W        W35581  43.474  14.721   3.380
71858W        W35582  28.049  36.920  11.050
71859W        W35583  25.130  34.491   4.275
71860W        W35584  19.092   2.919  13.342
71861W        W35585  13.828  42.800  14.840
71862W        W35586  36.916  31.455   0.804
71863W        W35587  26.114  23.519  10.592
71864W        W35588  27.078  43.371  10.639
71865W        W35589  17.743  20.698   4.670
71866W        W35590  38.527   4.752   4.714
71867W        W35591  31.010  33.456   2.804
71868W        W35592  18.710   4.389   4.706
71869W        W35593  11.769  29.997   2.312
71870W        W35594  31.405  42.009   1.912
71871W        W35595  21.138  22.528  10.948
71872W        W35596   1.348   5.851   1.912
71873W        W35597   5.303  33.915  13.966
71874W        W35598  18.675  38.402   0.325
71875W        W35599  33.607   8.360  11.596
71876W        W35600  12.681  43.880   2.755
71877W        W35601  43.306  20.221  12.432
71878W        W35602  26.159  17.225   1.697
71879W        W35603   8.736  36.901   1.742
71880W        W35604  19.175  13.809   5.269
71881W        W35605  15.610  29.601   1.250
71882W        W35606  11.165  16.191   0.419
71883W        W35607   3.339  32.511  10.451
71884W        W35608  31.125  31.070  11.963
71885W        W35609   9.682  28.120  10.517
71886W        W35610  34.451  40.440  12.489
71887W        W35611   7.220  16.208  10.437
71888W        W35612   6.844   4.877  14.312
71889W        W35613  13.642  21.225  10.893
71890W        W35614   0.891  39.035  12.963
71891W        W35615  27.545  17.768   1.428
71892W        W35616  38.391  17.757   4.174
71893W        W35617  33.993  35.907  14.465
71894W        W35618  23.684  27.460  14.876
71895W        W35619   4.931   1.754   3.706
71896W        W35620  18.566  12.362   0.292
71897W        W35621  31.416  29.664   1.703
71898W        W35622  31.980   0.360   2.692
71899W        W35623  17.250  31.150   1.928
71900W        W35624  23.155  28.179   2.384
71901W        W35625   0.904  12.344   2.849
71902W        W35626  35.070  32.978   4.264
71903W        W35627   0.843   7.752   4.238
71904W        W35628   4.721   5.217  12.881
71905W        W35629  16.579  40.021   4.647
71906W        W35630  41.988  15.319   3.227
71907W        W35631  31.040  23.571   3.633
71908W        W35632  42.955  12.121   1.728
71909W        W35633  24.516   5.195   1.898
71910W        W35634   3.862  13.620   4.691
71911W        W35635  44.437  33.128  11.491
71912W        W35636  27.549   3.266   1.451
71913W        W35637  19.535   2.442   4.163
71914W        W35638  11.854  14.750  14.352
71915W        W35639  38.359   2.953   4.627
71916W        W35640  33.578  43.486   4.745
71917W        W35641  15.228  42.502   1.403
71918W        W35642  11.138  15.710   1.846
71919W        W35643  37.838  27.669   4.734
71920W        W35644  27.954  16.610   4.699
71921W        W35645  33.885  36.351  11.873
71922W        W35646  15.762  35.362  13.958
71923W        W35647  40.907  24.637   1.421
71924W        W35648  28.549  34.985   0.752
71925W        W35649   4.772  17.635  12.049
71926W        W35650  35.000  44.351  14.940
71927W        W35651   0.945  11.205   3.263
71928W        W35652  26.544  16.121   2.331
71929W        W35653  44.761  36.527   5.791
71930W        W35654  29.986  34.370  11.480
71931W        W35655   6.904  14.625  14.023
71932W        W35656   2.965  42.296  14.493
71933W        W35657  13.701   7.188   1.231
71934W        W35658  12.239  38.410   1.765
71935W        W35659  36.972  21.682   0.864
71936W        W35660  38.358  15.584  14.382
71937W        W35661  43.952   4.908   0.425
71938W        W35662  33.537   9.307   3.283
71939W        W35663  12.723  41.031   4.807
71940W        W35664  28.657   8.722  11.465
71941W        W35665   9.888  17.267   3.349
71942W        W35666  31.592  42.409  10.501
71943W        W35667   4.822  11.680  12.883
71944W        W35668   2.951  14.712  14.446
71945W        W35669  14.716  12.676   2.203
71946W        W35670  21.190  14.205   0.373
71947W        W35671  42.491  16.099  11.413
71948W        W35672  11.710  41.341  14.458
71949W        W35673  23.556  36.347  12.022
71950W        W35674  31.010  13.285  13.412
71951W        W35675   7.667   9.852   3.356
71952W        W35676  33.396  12.713   3.283
71953W        W35677  16.291  24.573  12.447
71954W        W35678   6.194  39.341   1.915
71955W        W35679  17.777  33.568  10.409
71956W        W35680   6.805  40.485   0.351
71957W        W35681  19.049   0.329   4.235
71958W        W35682   7.256  25.175   2.216
71959W        W35683  26.207  24.651  13.447
71960W        W35684  14.315  16.144   3.770
71961W        W35685  35.417  27.166   0.466
71962W        W35686  19.727  44.303   1.841
71963W        W35687  22.126   8.681   1.355
71964W        W35688  41.913  27.998   9.940
71965W        W35689  22.103   5.213   0.833
71966W        W35690  13.713  26.074  14.854
71967W        W35691  38.909  21.093  10.483
71968W        W35692  21.548  20.196   3.643
71969W        W35693  26.199  11.665  13.819
71970W        W35694  36.459  20.664  11.932
71971W        W35695  10.761  32.028   4.741
71972W        W35696  10.282  38.559  13.831
71973W        W35697   5.811  18.697   4.351
71974W        W35698  35.980  30.025   3.356
71975W        W35699   9.324  14.625  13.964
71976W        W35700  10.266  38.860  12.042
71977W        W35701  40.549  25.174   2.342
71978W        W35702  33.971  35.546   3.354
71979W        W35703  38.919  36.560   0.738
71980W        W35704  26.090   5.921  11.426
71981W        W35705  17.638   9.305   0.757
71982W        W35706  27.989  26.208   0.314
71983W        W35707  38.861  25.620   4.808
71984W        W35708   1.268  28.932  12.578
71985W        W35709  38.046  32.926   4.755
71986W        W35710  43.830  41.878   0.763
71987W        W35711  18.154   8.395   0.939
71988W        W35712  38.350   2.264   1.890
71989W        W35713  20.633  34.565   2.684
71990W        W35714  39.383  11.353  13.323
71991W        W35715  23.005   1.310  12.413
71992W        W35716  33.567  39.023   4.640
71993W        W35717  38.368  15.661   3.170
71994W        W35718  38.360  13.247   0.253
71995W        W35719  23.559  34.937  10.955
71996W        W35720  34.447  16.566  13.460
71997W        W35721  24.587   3.285  11.978
71998W        W35722  30.543  38.045   0.783
71999W        W35723  40.312  24.653  14.993
72000W        W35724   7.858  43.424   3.234
72001W        W35725  13.334   9.779   4.716
72002W        W35726   8.356  44.924   4.630
72003W        W35727  21.515  22.166  14.996
72004W        W35728  17.565  27.578  14.417
72005W        W35729  14.686  32.625  14.836
72006W        W35730  19.674   2.450  11.964
72007W        W35731  15.097  27.174   1.839
72008W        W35732  25.146  28.541   0.892
72009W        W35733  42.936  38.491   1.395
72010W        W35734  39.884   6.749  13.390
72011W        W35735   9.855  33.515   2.730
72012W        W35736  12.286  22.093  11.915
72013W        W35737  14.209  26.154  11.059
72014W        W35738  41.991   6.336   5.278
72015W        W35739  43.291  21.716   0.289
72016W        W35740  20.117  25.133  10.047
72017W        W35741  36.463  36.561  12.488
72018W        W35742  25.203  11.829  13.858
72019W        W35743  14.283  23.644   1.344
72020W        W35744  31.958  43.945   4.748
72021W        W35745  38.374   0.433   4.833
72022W        W35746  15.131  20.626  10.967
72023W        W35747  27.038  25.513  12.521
72024W        W35748  24.620  41.031   4.250
72025W        W35749  13.135  22.540   3.859
72026W        W35750   9.840  11.689   4.310
72027W        W35751  41.368  36.574  14.476
72028W        W35752  32.500  21.740  11.477
72029W        W35753  37.883  22.639   0.427
72030W        W35754  43.462  33.077   3.686
72031W        W35755  25.548  13.333   2.832
72032W        W35756  32.612   6.831   2.349
72033W        W35757  17.105  20.650  10.551
72034W        W35758  24.172  38.954  11.001
72035W        W35759  11.205  19.207   1.300
72036W        W35760  10.368  39.529   3.355
72037W        W35761  24.220  11.652  12.538
72038W        W35762  22.193   0.809  11.575
72039W        W35763  33.950  23.174  14.777
72040W        W35764  31.018  31.097   1.800
72041W        W35765  31.152  23.226   4.352
72042W        W35766   0.389   8.734   3.646
72043W        W35767  14.192   1.768  13.367
72044W        W35768   6.781  16.081   0.742
72045W        W35769   3.379   2.901   0.326
72046W        W35770   4.846  36.010  12.001
72047W        W35771  42.392  12.243   3.196
72048W        W35772  36.426  36.987   4.774
72049W        W35773  17.168  17.187   0.877
72050W        W35774  19.066  42.969   2.299
72051W        W35775  16.622  21.116   3.366
72052W        W35776  19.179   2.237  12.577
72053W        W35777  43.313  23.184  12.412
72054W        W35778  40.380  34.948   2.824
72055W        W35779   6.428  41.519   1.362
72056W        W35780  34.910  29.102  14.003
72057W        W35781  23.001  14.181  11.432
72058W        W35782  38.052  26.089  11.021
72059W        W35783  12.701  32.124   4.263
72060W        W35784   3.717  40.006   3.744
72061W        W35785  22.620  31.085   3.333
72062W        W35786  41.898  44.368   2.317
72063W        W35787  23.998  16.775   4.689
72064W        W35788  40.844  35.594   1.286
72065W        W35789  24.007  10.247  14.969
72066W        W35790  22.176  43.382   1.857
72067W        W35791  34.083  22.174  14.027
72068W        W35792  41.821  14.694   1.826
72069W        W35793  17.270   7.774  13.341
72070W        W35794  41.837   8.180  13.049
72071W        W35795   5.807  34.467  12.871
72072W        W35796  29.975   2.733  13.876
72073W        W35797  14.676  27.540   4.633
72074W        W35798   6.265  10.381  11.398
72075W        W35799  15.719  15.218  14.366
72076W        W35800  22.037  33.059  11.881
72077W        W35801   4.257   2.345  13.855
72078W        W35802  19.175   6.216  13.811
72079W        W35803  38.025  35.078   4.254
72080W        W35804  37.850  37.335   0.452
72081W        W35805  26.965  16.111   1.888
72082W        W35806   2.227  22.662  12.975
72083W        W35807  19.637  35.470   2.847
72084W        W35808   7.299  37.893   2.825
72085W        W35809  11.738  37.915  14.463
72086W        W35810  36.555   2.936   4.807
72087W        W35811  38.934  10.201  13.385
72088W        W35812  11.853  10.309  12.481
72089W        W35813  23.663   9.245  12.001
72090W        W35814  17.101  22.690   0.443
72091W        W35815  39.870  15.807  13.331
72092W        W35816  40.409  24.068  14.891
72093W        W35817  26.163   6.366   0.957
72094W        W35818  13.609  27.524   3.239
72095W        W35819  22.243   4.278   1.292
72096W        W35820  19.653  13.665  13.528
72097W        W35821  11.231   0.780   2.828
72098W        W35822  29.971   0.827   3.246
72099W        W35823  31.065  29.001   4.756
72100W        W35824  17.640  24.632  14.884
72101W        W35825  22.198  23.193   2.707
72102W        W35826  41.007   6.398  12.482
72103W        W35827  30.937  31.479  10.963
72104W        W35828   0.975  38.506   0.843
72105W        W35829  40.318  17.213   2.734
72106W        W35830   7.669  27.145  13.383
72107W        W35831  28.146  26.669  13.811
72108W        W35832  23.504  19.180   4.817
72109W        W35833  30.649  28.008   2.414
72110W        W35834   9.851  25.553  12.362
72111W        W35835  32.066  12.274  10.961
72112W        W35836  29.150  38.873  10.558
72113W        W35837  18.626  24.168  12.845
72114W        W35838  16.622   1.352  14.933
72115W        W35839   9.880  14.266   5.224
72116W        W35840  12.812   3.918  11.875
72117W        W35841  35.555  11.662   3.247
72118W        W35842   8.701  42.913  13.901
72119W        W35843  36.979   3.313  11.089
72120W        W35844  15.708  30.450  14.763
72121W        W35845  16.787   2.766  13.483
72122W        W35846  43.335   6.299  14.900
72123W        W35847  22.593  18.190  13.423
72124W        W35848   4.249  31.543   0.843
72125W        W35849   2.921  39.817  12.499
72126W        W35850   0.348  11.801  14.765
72127W        W35851  16.734  42.852   0.863
72128W        W35852  35.359  30.548  11.050
72129W        W35853  29.615  37.459  11.563
72130W        W35854  39.966  10.765  14.282
72131W        W35855  38.040   1.974  14.887
72132W        W35856  11.704   3.375   3.693
72133W        W35857  44.981   1.384   4.666
72134W        W35858   4.875  23.602   2.401
72135W        W35859  21.529  24.491  12.827
72136W        W35860  10.226  10.796   4.693
72137W        W35861   8.678  21.024   0.815
72138W        W35862  32.015  37.505   1.292
72139W        W35863  17.708   4.842   1.214
72140W        W35864   5.337  23.163   2.808
72141W        W35865  33.996  11.286   4.760
72142W        W35866  40.434  21.235   0.945
72143W        W35867  44.839   3.896  11.058
72144W        W35868  16.152  10.813   1.704
72145W        W35869  35.855  42.501   2.272
72146W        W35870   2.853  34.960   1.322
72147W        W35871   2.839  11.691  12.937
72148W        W35872  19.136  33.055   1.784
72149W        W35873  18.054   7.878  12.833
72150W        W35874  35.996   4.317   2.239
72151W        W35875  38.480  31.552  12.451
72152W        W35876  26.187  29.009   2.263
72153W        W35877  41.838  11.356   1.404
72154W        W35878  10.316   8.685  12.534
72155W        W35879  30.443  44.781  13.990
72156W        W35880  12.653  11.734  10.541
72157W        W35881  14.296   3.716  12.042
72158W        W35882  29.973  21.128  13.035
72159W        W35883  20.084  13.257   4.612
72160W        W35884   8.655  19.770   0.306
72161W        W35885  33.605   4.427  14.332
72162W        W35886  28.677  35.934   4.155
72163W        W35887  39.958   5.216  12.398
72164W        W35888   2.320  17.189  11.060
72165W        W35889  31.084   8.702   1.258
72166W        W35890  17.615  29.470  14.974
72167W        W35891  23.644  36.358   4.605
72168W        W35892  38.984  37.981  14.317
72169W        W35893   1.268   4.303  11.019
72170W        W35894   9.239  17.608  10.953
72171W        W35895  19.199   9.760  10.616
72172W        W35896  12.161  39.400  12.873
72173W        W35897  41.818  13.209   2.402
72174W        W35898  20.651  36.377   2.371
72175W        W35899  16.252  26.990   4.349
72176W        W35900  39.331  24.056   0.316
72177W        W35901  42.356  31.525   4.793
72178W        W35902  16.667   6.354   0.874
72179W        W35903  33.587  30.943   2.381
72180W        W35904  17.589   3.439   2.415
72181W        W35905  18.268  28.586  13.976
72182W        W35906  39.462  34.041  14.779
72183W        W35907  26.984  19.552   2.359
72184W        W35908   2.444  30.013  12.015
72185W        W35909   4.446  15.189  12.359
72186W        W35910   0.806  32.549  13.501
72187W        W35911   9.838   8.671  10.527
72188W        W35912   4.782  15.281  13.473
72189W        W35913  42.845  37.018  11.589
72190W        W35914  22.585   4.882   1.388
72191W        W35915  25.105  38.960  11.986
72192W        W35916   4.800   9.265  13.038
72193W        W35917  25.702   5.197   2.397
72194W        W35918   6.401  16.258  14.493
72195W        W35919  34.417  44.933   3.207
72196W        W35920  16.729  11.689  11.612
72197W        W35921   8.208   6.232   2.411
72198W        W35922  31.122  26.208  13.969
72199W        W35923  26.972   8.796   0.300
72200W        W35924  21.554  44.879  12.847
72201W        W35925   2.883  41.809  12.519
72202W        W35926   3.868  41.795   1.427
72203W        W35927  40.358  16.297  14.791
72204W        W35928   9.303  23.495   9.977
72205W        W35929   9.861  40.882   1.257
72206W        W35930  29.102  20.122  14.293
72207W        W35931  29.016  33.915  13.479
72208W        W35932  34.921  18.232   1.786
72209W        W35933  29.583  43.419  12.061
72210W        W35934  22.608  31.444  14.387
72211W        W35935  15.239   1.280  14.457
72212W        W35936  29.538  41.835   4.273
72213W        W35937  27.508  19.222  12.386
72214W        W35938  25.105  15.102   4.159
72215W        W35939  31.569   6.764   0.909
72216W        W35940   8.707   8.784   1.823
72217W        W35941   4.912   8.661  14.918
72218W        W35942  25.117  33.987  11.512
72219W        W35943  33.456   0.831   0.753
72220W        W35944  25.139  21.739  10.500
72221W        W35945  33.928  24.668   1.412
72222W        W35946  16.230  19.749   0.754
72223W        W35947   7.885  23.061   0.281
72224W        W35948  44.355  17.792   2.218
72225W        W35949  40.539  10.723  13.819
72226W        W35950   6.341  31.045  12.360
72227W        W35951  14.286   8.798   0.316
72228W        W35952  17.223  17.269   5.187
72229W        W35953  33.411  38.989  11.078
72230W        W35954  13.797  42.434  12.399
72231W        W35955  34.528  24.222   2.734
72232W        W35956  11.791  12.712   2.202
72233W        W35957  40.335   1.314   2.306
72234W        W35958   2.808  19.717  11.503
72235W        W35959  38.536  30.616   1.741
72236W        W35960   3.448  17.718   0.250
72237W        W35961  24.707  19.285  11.912
72238W        W35962   2.841  13.245   3.235
72239W        W35963  31.076  11.192  13.384
72240W        W35964  40.407  39.846  10.942
72241W        W35965  18.667  40.853   4.328
72242W        W35966  37.958  40.397   0.471
72243W        W35967  41.939   4.370   3.846
72244W        W35968  27.134  21.143  13.024
72245W        W35969  22.028  29.023  14.788
72246W        W35970   9.712  19.726  14.467
72247W        W35971  36.984  37.852  11.920
72248W        W35972  31.060  14.689   0.313
72249W        W35973  25.643   5.790  11.462
72250W        W35974  33.445   2.774  12.843
72251W        W35975  43.274  16.280  14.777
72252W        W35976  12.230  31.005  13.919
72253W        W35977  21.715  27.994  11.127
72254W        W35978  38.522  34.919   2.677
72255W        W35979  18.114  31.522   2.849
72256W        W35980  42.504  43.279   0.759
72257W        W35981  34.094   0.404  11.390
72258W        W35982  41.384  35.028   2.764
72259W        W35983  31.926  28.167  13.376
72260W        W35984   1.328  32.909  12.010
72261W        W35985   7.775  34.492  12.527
72262W        W35986  29.023  26.535   2.267
72263W        W35987  41.831   2.437   0.330
72264W        W35988   9.735  35.043  13.032
72265W        W35989  35.053   8.378  11.524
72266W        W35990  15.084  14.618   1.759
72267W        W35991   6.273  30.953  13.895
72268W        W35992  42.304  15.610  11.505
72269W        W35993  35.602  23.212   4.183
72270W        W35994  38.914  43.434  13.952
72271W        W35995  43.971  14.726  10.923
72272W        W35996  42.381  35.083  12.361
72273W        W35997  25.590   6.784  10.594
72274W        W35998  36.365   8.339   0.897
72275W        W35999  44.469  25.096  12.498
72276W        W36000   1.790  31.059  11.419
72277W        W36001  40.411   6.363   3.661
72278W        W36002  27.954  22.236  10.569
72279W        W36003  12.318  23.086   4.675
72280W        W36004  12.790  37.074  14.032
72281W        W36005  25.040   4.887   0.316
72282W        W36006  27.986   4.223  11.416
72283W        W36007   6.327  33.486  12.038
72284W        W36008  31.143  41.449   3.671
72285W        W36009  25.533  40.050   0.270
72286W        W36010  33.084  18.609  14.966
72287W        W36011   7.381  15.601   5.190
72288W        W36012   9.257  30.548  12.064
72289W        W36013  28.053  24.057  11.103
72290W        W36014  25.554  10.859  11.004
72291W        W36015  21.039   8.334   3.309
72292W        W36016  36.868  27.541  13.509
72293W        W36017  21.683   8.669   0.787
72294W        W36018  38.380   4.324   2.336
72295W        W36019  17.261   5.222  10.583
72296W        W36020  12.230  42.430   2.753
72297W        W36021  40.802  27.680  10.521
72298W        W36022  36.540  44.755   4.288
72299W        W36023  39.318   4.736   1.793
72300W        W36024  44.367  41.864  10.451
72301W        W36025   6.234   7.397   1.310
72302W        W36026   6.382  35.079  14.294
72303W        W36027   3.937   0.824   1.910
72304W        W36028  11.837  44.939   1.427
72305W        W36029  29.426  41.380  11.611
72306W        W36030  33.495  34.510   3.745
72307W        W36031  32.064  28.600   3.631
72308W        W36032   9.289  26.618   2.205
72309W        W36033  18.072  35.927   4.691
72310W        W36034  24.189  28.510   0.827
72311W        W36035  32.461  26.649  10.555
72312W        W36036   7.827  29.983   0.800
72313W        W36037  27.963  12.632   3.739
72314W        W36038   3.823   4.810   3.375
72315W        W36039  21.619  26.163  14.317
72316W        W36040  16.597  23.717  12.952
72317W        W36041  42.493  28.971  14.398
72318W        W36042   4.837   9.809   1.314
72319W        W36043  35.979  29.028   4.259
72320W        W36044  19.749  31.453   0.465
72321W        W36045  33.918  20.741   2.307
72322W        W36046  10.158  42.966  14.310
72323W        W36047  22.643   7.867   4.765
72324W        W36048  23.580   3.251  14.931
72325W        W36049   3.804  14.244  14.380
72326W        W36050  42.813  40.888  14.390
72327W        W36051  40.549  15.623  12.835
72328W        W36052  21.020   3.299  13.418
72329W        W36053  14.211  22.098   0.878
72330W        W36054  20.274   5.254   3.172
72331W        W36055  36.378  43.970   4.637
72332W        W36056  19.103   9.195  11.468
72333W        W36057  40.815  19.715   5.109
72334W        W36058  37.032  40.396   4.282
72335W        W36059   0.782  43.420   1.303
72336W        W36060  44.847  41.362  14.410
72337W        W36061  35.482  25.003  11.869
72338W        W36062  12.678  34.064   1.413
72339W        W36063  39.388  42.797   0.365
72340W        W36064  13.133   1.378   3.271
72341W        W36065   0.484  35.948   3.849
72342W        W36066  24.554  24.576  12.929
72343W        W36067  32.115  37.438   0.907
72344W        W36068   7.400  19.280   2.693
72345W        W36069  34.535  19.230   2.818
72346W        W36070  21.085   1.251   3.766
72347W        W36071  25.665  28.444  13.003
72348W        W36072  36.500  33.980   3.187
72349W        W36073   0.832  41.365  11.529
72350W        W36074  34.874  25.710  14.304
72351W        W36075  44.272  19.680  10.122
72352W        W36076   6.727  26.593  12.398
72353W        W36077  31.122  14.785   4.242
72354W        W36078  10.681   2.347   4.266
72355W        W36079  29.976  42.783  13.546
72356W        W36080  37.948  41.965  13.494
72357W        W36081  39.360  34.880  10.120
72358W        W36082   6.370   6.417   1.790
72359W        W36083   2.894  33.888   1.372
72360W        W36084  31.950   3.312  12.861
72361W        W36085  29.549  10.780   2.889
72362W        W36086  35.389  17.204   4.300
72363W        W36087  15.270   0.352  10.638
72364W        W36088   3.347  14.689  13.496
72365W        W36089  29.938  26.520  13.871
72366W        W36090   0.907  32.036   1.367
72367W        W36091  36.574  17.675  14.420
72368W        W36092  38.910  10.802   1.888
72369W        W36093  11.290  27.952   4.695
72370W        W36094  26.166  35.428  13.902
72371W        W36095  31.137  12.829  11.897
72372W        W36096  33.977   0.284   3.680
72373W        W36097  33.966  20.644   0.808
72374W        W36098  16.661  33.928  11.053
72375W        W36099  33.084  10.835  11.890
72376W        W36100  11.850  40.837  10.461
72377W        W36101  30.058   2.877  12.389
72378W        W36102   8.333  42.803  14.463
72379W        W36103  23.988  27.677  14.459
72380W        W36104  18.229  37.992   2.243
72381W        W36105  33.018  32.595  14.807
72382W        W36106  33.516  23.641   2.419
72383W        W36107  30.582  44.427   5.207
72384W        W36108  16.686  29.143   2.343
72385W        W36109  31.522  23.624  14.918
72386W        W36110  30.556  41.871  13.037
72387W        W36111  25.044  26.044   2.278
72388W        W36112  29.637  26.491  14.786
72389W        W36113  43.286  26.540   0.411
72390W        W36114  25.163   1.317  11.028
72391W        W36115  30.126  21.213  10.957
72392W        W36116  35.455  25.492   3.741
72393W        W36117  30.081   5.778  11.403
72394W        W36118  13.682  30.947  12.936
72395W        W36119   9.817  18.124   4.138
72396W        W36120   6.282  30.015   3.827
72397W        W36121  18.601   8.787  10.893
72398W        W36122  38.338  13.168  12.984
72399W        W36123  10.727  28.604   2.400
72400W        W36124  20.563  33.091   1.896
72401W        W36125  40.485  20.533   0.948
72402W        W36126  22.661  18.171   0.859
72403W        W36127   9.795   2.939   1.889
72404W        W36128  25.562  25.698  12.835
72405W        W36129  31.434   8.166  11.554
72406W        W36130   4.709   9.876   9.481
72407W        W36131  15.696  22.611  13.438
72408W        W36132  11.841  30.093   4.241
72409W        W36133  20.034  16.188  13.867
72410W        W36134  33.512  30.645  14.450
72411W        W36135   4.364   8.678   5.263
72412W        W36136  42.486  40.532  10.550
72413W        W36137  39.519  44.797  13.905
72414W        W36138  26.085  20.579  10.553
72415W        W36139  20.111  12.207  11.585
72416W        W36140  35.596  38.896  10.429
72417W        W36141  29.664  33.437  13.321
72418W        W36142   6.258  22.226  12.998
72419W        W36143  44.366   5.404   1.405
72420W        W36144  10.700   8.229  14.332
72421W        W36145  17.184  19.686   2.326
72422W        W36146  39.336  23.179  12.352
72423W        W36147  11.145   2.883  12.868
72424W        W36148  15.225  20.134   4.143
72425W        W36149  19.552  22.672  13.524
72426W        W36150  10.673   8.709   2.852
72427W        W36151  43.516   7.705  13.050
72428W        W36152  20.681   9.386   2.781
72429W        W36153  16.298  42.444  10.629
72430W        W36154  39.046  38.933   3.318
72431W        W36155   6.740  23.683   0.959
72432W        W36156  15.097  39.020  14.858
72433W        W36157  19.634   4.260   2.356
72434W        W36158  21.146   5.416  13.381
72435W        W36159  22.187  38.470   1.877
72436W        W36160  33.579  34.995   1.916
72437W        W36161   3.441   2.814   2.865
72438W        W36162  12.296   6.384  12.963
72439W        W36163  29.993  42.342   3.325
72440W        W36164  19.738  41.322  14.332
72441W        W36165  13.782  29.968   4.734
72442W        W36166   5.861  24.227   4.619
72443W        W36167  37.559  22.520  13.881
72444W        W36168   5.385  14.170  10.510
72445W        W36169  32.898  26.143   0.383
72446W        W36170  37.395  44.323   2.798
72447W        W36171  32.004  31.545   3.214
72448W        W36172  26.692  14.165   3.364
72449W        W36173  29.616  36.563  14.962
72450W        W36174  14.701  35.953  11.044
72451W        W36175  41.980  40.405  13.957
72452W        W36176  38.533  20.622  10.983
72453W        W36177  30.505   5.238   4.746
72454W        W36178  41.950   8.242   0.276
72455W        W36179   8.372  36.873  10.471
72456W        W36180  21.739  28.538  12.960
72457W        W36181  23.696  36.364  11.391
72458W        W36182   1.883  16.686  11.574
72459W        W36183   0.470  24.604  12.964
72460W        W36184   7.851  38.967   0.887
72461W        W36185  44.425  19.741   4.331
72462W        W36186  21.565  30.997  12.520
72463W        W36187   5.274   8.855  12.889
72464W        W36188  29.604  20.694  13.392
72465W        W36189  40.524   7.888   0.435
72466W        W36190   0.344  41.827  11.044
72467W        W36191  27.054  15.181  13.921
72468W        W36192  28.663  32.605   0.270
72469W        W36193  30.525   1.383  12.405
72470W        W36194  29.930  23.061  11.531
72471W        W36195  34.091   3.221   0.945
72472W        W36196   5.791   9.155  12.882
72473W        W36197  16.233  38.934   1.925
72474W        W36198  32.046   8.669  13.040
72475W        W36199  22.721  22.244  13.810
72476W        W36200  18.761  39.901  12.540
72477W        W36201  15.809  30.467   3.364
72478W        W36202   2.914  21.199  11.098
72479W        W36203   5.843  13.282   0.376
72480W        W36204  38.974  17.760   4.222
72481W        W36205  18.762  27.477   1.326
72482W        W36206  41.389  31.491   0.958
72483W        W36207  43.294  21.168   0.323
72484W        W36208  28.449   2.312  14.816
72485W        W36209  39.523  28.119   2.896
72486W        W36210   1.845  32.061   1.295
72487W        W36211   0.861  18.239   0.936
72488W        W36212  34.045  16.707   3.234
72489W        W36213  12.142  40.401   2.375
72490W        W36214   8.351  39.345   0.948
72491W        W36215  18.243  31.456  14.464
72492W        W36216   0.848  25.504  14.860
72493W        W36217  39.992  14.753  12.019
72494W        W36218  24.086  38.422  13.542
72495W        W36219  36.990  30.480  10.407
72496W        W36220   3.785  25.630  11.407
72497W        W36221   1.912  44.462  11.546
72498W        W36222  31.096   7.241   2.809
72499W        W36223  23.050   7.238  13.976
72500W        W36224  30.536  26.008   3.646
72501W        W36225   3.327  36.018   1.258
72502W        W36226  30.557  25.048   4.199
72503W        W36227  12.666  34.971   4.273
72504W        W36228  18.594  39.909   2.346
72505W        W36229  27.598  40.535  12.392
72506W        W36230   3.952  32.031  11.062
72507W        W36231  15.292  31.947   2.867
72508W        W36232  36.864   4.205   0.957
72509W        W36233  20.616  41.325  12.459
72510W        W36234  44.452  33.075  10.432
72511W        W36235   5.825   4.248  14.317
72512W        W36236  42.480  28.443   2.342
72513W        W36237   6.901  26.206  11.055
72514W        W36238  22.102  14.630  14.952
72515W        W36239  44.346  28.525  14.490
72516W        W36240  12.344  17.722   1.395
72517W        W36241  12.143  16.149  12.035
72518W        W36242  32.400   4.907  11.533
72519W        W36243   0.936  39.485   4.644
72520W        W36244   1.820   1.440   1.826
72521W        W36245  41.342  44.872  11.569
72522W        W36246  18.633   7.298  12.995
72523W        W36247  11.640   5.866  14.861
72524W        W36248  18.631  27.674   0.747
72525W        W36249  39.930  19.715   3.341
72526W        W36250  41.325  36.456   5.262
72527W        W36251  30.934   4.433  11.031
72528W        W36252  41.297  32.052  13.540
72529W        W36253  43.276   2.909   4.204
72530W        W36254   2.940  29.595   3.774
72531W        W36255  15.677  38.358  13.330
72532W        W36256  30.160   1.282   3.247
72533W        W36257   5.855   5.398  13.894
72534W        W36258  32.088   0.921  12.095
72535W        W36259  28.159   3.294   3.162
72536W        W36260  20.716  30.608  11.529
72537W        W36261  14.315  11.356   4.732
72538W        W36262  26.665  24.980  12.406
72539W        W36263  13.311  27.482  11.078
72540W        W36264  35.897  19.682  10.526
72541W        W36265  35.948  10.196  13.875
72542W        W36266  31.015   1.828   4.790
72543W        W36267  36.916   4.450   2.221
72544W        W36268  40.331  41.504   3.150
72545W        W36269  42.283  28.141   2.767
72546W        W36270  11.773  10.265  14.842
72547W        W36271   6.766  24.072   2.737
72548W        W36272  32.005  15.283  10.150
72549W        W36273  21.645  32.037   4.610
72550W        W36274  28.159  27.575  12.416
72551W        W36275  27.059  24.157  11.512
72552W        W36276   3.266   6.266   4.767
72553W        W36277  13.700  11.684   0.935
72554W        W36278   4.212   1.411  13.524
72555W        W36279  39.314  10.353   2.671
72556W        W36280   4.265  44.405   4.804
72557W        W36281  44.791  10.359  13.316
72558W        W36282   1.482  14.602   3.656
72559W        W36283  39.338  12.120  12.414
72560W        W36284  26.513  29.527   2.836
72561W        W36285  28.657  13.616   4.277
72562W        W36286  21.570  13.658  13.878
72563W        W36287  11.779  34.478   1.279
72564W        W36288  20.661  16.255   3.150
72565W        W36289  14.230  40.967  14.947
72566W        W36290   3.422  39.367  13.513
72567W        W36291  10.163  27.100  12.383
72568W        W36292  43.299  26.484   2.330
72569W        W36293  27.559   9.281  14.484
72570W        W36294  29.926  25.118   2.830
72571W        W36295   4.819  12.729  10.407
72572W        W36296  44.881  15.708  11.938
72573W        W36297   6.189  13.809  11.543
72574W        W36298  35.045  33.054   1.890
72575W        W36299  23.028  13.774  10.984
72576W        W36300  28.509  22.512   2.748
72577W        W36301  10.635   6.294   1.922
72578W        W36302  15.745  15.804  13.872
72579W        W36303   4.857  30.030   1.409
72580W        W36304  25.217   9.324   0.762
72581W        W36305  18.773  40.526  13.423
72582W        W36306  15.784   8.252  14.446
72583W        W36307   9.347  24.093  13.542
72584W        W36308  33.910  20.655  13.899
72585W        W36309   4.944  38.904   2.879
72586W        W36310  17.717   8.240   3.739
72587W        W36311  26.196  28.436   9.564
72588W        W36312   8.750  17.206  12.037
72589W        W36313   1.844  11.692  14.287
72590W        W36314  23.618  35.917   3.738
72591W        W36315   8.864  11.842   2.776
72592W        W36316  40.948  32.505  11.522
72593W        W36317  26.603  37.487   4.270
72594W        W36318   4.755  43.973  13.347
72595W        W36319  26.459  31.428   0.740
72596W        W36320  15.590  37.888   2.331
72597W        W36321  14.718  10.339   4.778
72598W        W36322  16.698   4.840   0.276
72599W        W36323  31.425  31.534   2.271
72600W        W36324  16.147   4.326  14.798
72601W        W36325  26.570  29.502  11.490
72602W        W36326  41.295  15.587   3.184
72603W        W36327  31.039  11.824   9.921
72604W        W36328  37.411  39.448  11.605
72605W        W36329  18.753   6.421   5.167
72606W        W36330  12.252  34.417   4.120
72607W        W36331  14.600  41.794   3.298
72608W        W36332  19.752   4.434   1.390
72609W        W36333  43.006  20.167   5.100
72610W        W36334  28.168  42.379   3.815
72611W        W36335   8.778  10.315   3.264
72612W        W36336  32.566  36.973  14.957
72613W        W36337  35.887   8.719   2.762
72614W        W36338   6.690  26.670   3.659
72615W        W36339  18.778  28.081  10.435
72616W        W36340  35.988   7.332  10.501
72617W        W36341  19.684   1.463  13.928
72618W        W36342  38.392  10.230   4.336
72619W        W36343   7.219  22.149  14.383
72620W        W36344   7.856  42.427  14.985
72621W        W36345  39.896  24.042  12.369
72622W        W36346  37.470  12.145   1.829
72623W        W36347  35.949   1.382   4.675
72624W        W36348  16.672  35.041   1.268
72625W        W36349  16.566  15.814   3.798
72626W        W36350  12.840  27.161  13.887
72627W        W36351  29.990  23.672   3.207
72628W        W36352  20.530   4.371  12.888
72629W        W36353  34.434  40.989   2.662
72630W        W36354  28.602  42.950  14.498
72631W        W36355  27.080   4.707  14.486
72632W        W36356   3.310  17.723   1.862
72633W        W36357  31.468  26.616   3.805
72634W        W36358  30.092  14.331  12.038
72635W        W36359  44.865  24.721  13.351
72636W        W36360  25.578  30.128  14.471
72637W        W36361  12.175   7.314   0.361
72638W        W36362  34.988  21.095  13.364
72639W        W36363  30.430   9.796   1.381
72640W        W36364  37.858   7.306  10.967
72641W        W36365  33.941   1.808   1.767
72642W        W36366  26.611  37.873   3.787
72643W        W36367  34.970   1.964   3.630
72644W        W36368  20.185  41.789   1.275
72645W        W36369   4.370  43.994  13.324
72646W        W36370  14.713  39.454  10.959
72647W        W36371  15.612  37.434   0.383
72648W        W36372   1.926  32.916   2.830
72649W        W36373  41.496  33.564   4.778
72650W        W36374  38.492  43.889   9.948
72651W        W36375   6.346  26.479   2.346
72652W        W36376  23.526  37.563   0.766
72653W        W36377  20.672  40.428   4.298
72654W        W36378   5.740  43.417  14.820
72655W        W36379  29.511  26.676   0.846
72656W        W36380  16.568  28.937   0.341
72657W        W36381  35.052   0.824   1.929
72658W        W36382  38.499  23.000  10.029
72659W        W36383   6.916  24.172  14.881
72660W        W36384  36.853  13.682   1.823
72661W        W36385  40.821  23.148  13.389
72662W        W36386  23.657   6.222  14.764
72663W        W36387  32.095  20.594  13.472
72664W        W36388  15.791   3.291  12.994
72665W        W36389  26.099  21.250  13.048
72666W        W36390  30.067  28.515   4.243
72667W        W36391   6.764  18.058   1.282
72668W        W36392  22.190  27.584   4.819
72669W        W36393   0.384  16.080  14.781
72670W        W36394  36.379  39.973   4.655
72671W        W36395  13.724  12.804   4.127
72672W        W36396  42.479  10.312  13.910
72673W        W36397  14.267  29.464  13.513
72674W        W36398  39.013  41.948   4.138
72675W        W36399  17.253  15.173   2.882
72676W        W36400  14.758  38.955  10.512
72677W        W36401  13.327  23.673   1.806
72678W        W36402  16.138  32.535  11.480
72679W        W36403  37.845  18.248   5.096
72680W        W36404  13.202  11.745   2.415
72681W        W36405  10.727  17.663   0.292
72682W        W36406   5.864  41.872  12.516
72683W        W36407  37.996  25.507  13.491
72684W        W36408   7.385  10.167   5.224
72685W        W36409  22.555  25.176  11.566
72686W        W36410  10.714  32.593  10.610
72687W        W36411  33.916   4.288   4.604
72688W        W36412   7.323  24.647   3.229
72689W        W36413   4.424  44.773  13.540
72690W        W36414  31.002  36.903   1.354
72691W        W36415  39.480  26.528  13.055
72692W        W36416  21.603  38.520   3.813
72693W        W36417  31.122  12.697   3.716
72694W        W36418  18.072  41.918  12.438
72695W        W36419  42.373  30.031   4.137
72696W        W36420   5.892  34.503   0.274
72697W        W36421   6.804  23.225  11.558
72698W        W36422  13.687  24.572   2.317
72699W        W36423  41.967  37.423  12.478
72700W        W36424  32.976   3.842   3.272
72701W        W36425   7.823   0.484  10.482
72702W        W36426  21.047   7.344   4.352
72703W        W36427   1.909  22.663  12.351
72704W        W36428   7.323  34.884  12.405
72705W        W36429  28.942  19.285   1.753
72706W        W36430  21.045  44.985   4.214
72707W        W36431   5.715  38.841  13.056
72708W        W36432  14.176   7.215  10.473
72709W        W36433  26.075  16.715   2.258
72710W        W36434  13.107  33.006   1.269
72711W        W36435  29.542  31.641  11.431
72712W        W36436  11.263  38.506  14.384
72713W        W36437  20.522  25.178  14.962
72714W        W36438  27.526  16.756  13.979
72715W        W36439  29.084  43.390   0.880
72716W        W36440  11.215   8.195  10.623
72717W        W36441  25.574  29.490  11.889
72718W        W36442  25.993  30.608  13.929
72719W        W36443  24.230  33.928   4.718
72720W        W36444  35.049   9.788  11.997
72721W        W36445  40.526  13.348   0.302
72722W        W36446   9.381  10.699   3.367
72723W        W36447  37.551  26.641  11.390
72724W        W36448  20.536  22.606   1.421
72725W        W36449  11.625  41.803  13.320
72726W        W36450  39.048  27.671   4.713
72727W        W36451  25.140  10.203   5.296
72728W        W36452  18.235  38.566   1.411
72729W        W36453  16.307  33.521   2.324
72730W        W36454   7.684   8.832  12.558
72731W        W36455  43.301  33.589   1.430
72732W        W36456   1.387  35.547   2.823
72733W        W36457  13.629   6.351  12.385
72734W        W36458  23.034   6.233   2.266
72735W        W36459   7.346  12.317   0.886
72736W        W36460  41.025  18.637  14.782
72737W        W36461  19.622  34.547   0.863
72738W        W36462  19.676  14.730   3.156
72739W        W36463  33.014  44.849  12.914
72740W        W36464  30.537   1.384   0.810
72741W        W36465  38.367  42.493  12.971
72742W        W36466  41.001  25.684  14.492
72743W        W36467  41.979  22.100   2.343
72744W        W36468   5.696   2.457   3.683
72745W        W36469  10.192  31.115   2.192
72746W        W36470  13.750  10.246  14.416
72747W        W36471  26.657  39.047  14.785
72748W        W36472  25.155  14.644   2.824
72749W        W36473  21.625   3.258  11.981
72750W        W36474   5.737   8.885  10.918
72751W        W36475  32.021  39.858  12.350
72752W        W36476   4.339  14.131   2.373
72753W        W36477  21.065  33.601  12.067
72754W        W36478  22.231  29.131  10.996
72755W        W36479  15.247  19.741   2.730
72756W        W36480  11.330  30.632   0.452
72757W        W36481  30.938  11.268   3.362
72758W        W36482  36.086  21.650   1.293
72759W        W36483  27.655  32.961   3.215
72760W        W36484   0.457  10.753   1.773
72761W        W36485  12.263  35.543  12.442
72762W        W36486   6.695   5.364  13.841
72763W        W36487   5.833   0.314   1.733
72764W        W36488  11.857   2.464  13.321
72765W        W36489  14.783   9.863  14.385
72766W        W36490   1.930   8.282   1.808
72767W        W36491  38.071  14.644   1.249
72768W        W36492   5.352  42.496   4.183
72769W        W36493  35.434  17.193  14.891
72770W        W36494  33.497  18.627  13.976
72771W        W36495  11.265   7.807   3.715
72772W        W36496  24.229  25.596  14.463
72773W        W36497   0.272  11.296   3.703
72774W        W36498   5.924  35.444  11.036
72775W        W36499  22.695  22.251   4.654
72776W        W36500  23.603  21.555  11.588
72777W        W36501   0.858   2.809  14.781
72778W        W36502  12.739   2.382   4.213
72779W        W36503  30.965   2.236  10.639
72780W        W36504  35.570  33.063  14.891
72781W        W36505  15.702  23.545   3.799
72782W        W36506   8.341  40.327   2.837
72783W        W36507  27.675  14.588  10.622
72784W        W36508  27.557   3.915   3.840
72785W        W36509   8.231  28.071  10.633
72786W        W36510  24.701  17.739   3.243
72787W        W36511  41.437  14.303   0.908
72788W        W36512  21.547  28.952  14.810
72789W        W36513   1.256  36.986  14.024
72790W        W36514  40.302  43.891   0.364
72791W        W36515   1.408   3.860   2.233
72792W        W36516  39.848  10.155   3.670
72793W        W36517  13.256  35.922  13.820
72794W        W36518  13.687  33.037   0.783
72795W        W36519  19.252  19.686   3.309
72796W        W36520  30.026   0.438  14.886
72797W        W36521  26.506  21.585  13.058
72798W        W36522  18.156  15.326  13.953
72799W        W36523  35.515  41.509   0.259
72800W        W36524  37.509  38.380   2.839
72801W        W36525   5.876  41.409  11.107
72802W        W36526  14.124   5.861  14.326
72803W        W36527  14.235  26.555  10.404
72804W        W36528  17.685  34.369   3.317
72805W        W36529  38.891  30.479   3.164
72806W        W36530   7.398   6.394   0.898
72807W        W36531  19.544  27.446  14.512
72808W        W36532   8.718  20.537  14.331
72809W        W36533  43.886   4.761  12.575
72810W        W36534  28.098  16.219   2.342
72811W        W36535  37.877  36.478   1.769
72812W        W36536  42.514  33.006  10.547
72813W        W36537   8.726  40.445  14.347
72814W        W36538  43.991  31.471  11.388
72815W        W36539   6.313  37.576   2.791
72816W        W36540  38.852   5.716  12.385
72817W        W36541   6.847  34.052  13.337
72818W        W36542  31.106  43.386   1.228
72819W        W36543  13.760  12.716   1.876
72820W        W36544  28.029  15.760   2.851
72821W        W36545  18.646  41.320  12.407
72822W        W36546  19.712   9.730  10.564
72823W        W36547  33.952   7.745  14.300
72824W        W36548  40.529  38.365   4.834
72825W        W36549  37.371   6.320  11.060
72826W        W36550  12.690  42.028   4.706
72827W        W36551  12.324  22.010  12.484
72828W        W36552  40.303  15.232  11.469
72829W        W36553  29.476  33.467   0.244
72830W        W36554  26.606  40.480   4.747
72831W        W36555   1.361  25.583   2.775
72832W        W36556  42.451  38.398  12.349
72833W        W36557  41.452  21.124  12.374
72834W        W36558  19.563   5.246  13.338
72835W        W36559  30.157  35.023   4.795
72836W        W36560  24.993  27.024  10.566
72837W        W36561  23.118  17.228  13.951
72838W        W36562  42.399  29.999   3.272
72839W        W36563  26.112   1.959  11.575
72840W        W36564  17.578  44.294   1.888
72841W        W36565   1.453  26.654   1.841
72842W        W36566  37.466  37.904   3.204
72843W        W36567  16.073  15.247  11.527
72844W        W36568  44.789   8.301   1.872
72845W        W36569  40.523   8.255  11.067
72846W        W36570  41.857  30.523   0.802
72847W        W36571  28.180  39.859  13.938
72848W        W36572  26.526   5.912  12.468
72849W        W36573  42.918   7.283  10.510
72850W        W36574  25.682   2.424  14.419
72851W        W36575  36.889  16.690  11.089
72852W        W36576   3.448  41.402  13.895
72853W        W36577   3.215  13.208  13.888
72854W        W36578  13.196  25.136  10.467
72855W        W36579   7.751  33.987   4.790
72856W        W36580  42.851  34.985   1.798
72857W        W36581  19.074   2.320  14.866
72858W        W36582  28.620  35.999   2.338
72859W        W36583  29.579   7.206   0.297
72860W        W36584  16.131  41.814   3.195
72861W        W36585  29.645  29.631  13.050
72862W        W36586  40.005   7.407  11.542
72863W        W36587   3.864   9.372   2.710
72864W        W36588  38.468  28.618   0.329
72865W        W36589   6.346   3.390   1.846
72866W        W36590  43.802  14.607   0.333
72867W        W36591  11.774  19.748   0.450
72868W        W36592  34.896  12.264   3.844
72869W        W36593  37.927   5.388   0.796
72870W        W36594   9.867   8.359   1.770
72871W        W36595  23.652  18.091  11.078
72872W        W36596   7.395  12.723   1.783
72873W        W36597  11.628   2.247  14.382
72874W        W36598   7.900   5.846  14.968
72875W        W36599  24.989  22.059   0.456
72876W        W36600  16.103  21.737  14.860
72877W        W36601  29.142  43.824  12.399
72878W        W36602  27.573   2.312   0.932
72879W        W36603  21.555   1.274  14.918
72880W        W36604  14.690   8.874  14.431
72881W        W36605  13.809  18.751   2.792
72882W        W36606  15.708   4.254   5.735
72883W        W36607  38.388  30.138   1.362
72884W        W36608  44.389   5.835  11.102
72885W        W36609  39.049   7.733  14.846
72886W        W36610   5.910   1.290   1.354
72887W        W36611  28.156  23.998  14.932
72888W        W36612  27.184   0.807   3.750
72889W        W36613  31.522  26.079   0.386
72890W        W36614  11.700   0.941  10.907
72891W        W36615  21.209  32.031  10.894
72892W        W36616   4.898  38.508  10.558
72893W        W36617  21.161   2.331   2.195
72894W        W36618  30.450   9.789   4.191
72895W        W36619  40.961  14.270   0.873
72896W        W36620  30.023  39.458  12.415
72897W        W36621  20.730  17.217   5.296
72898W        W36622  40.856  15.166  11.005
72899W        W36623  24.057  19.168   4.663
72900W        W36624  33.015  35.597  12.056
72901W        W36625  21.614  37.466   4.753
72902W        W36626  16.775  30.433   2.850
72903W        W36627  41.503   2.441  11.993
72904W        W36628  34.410   6.679   2.847
72905W        W36629  36.956  11.691   3.259
72906W        W36630  18.055   6.327   4.660
72907W        W36631   6.191   4.326   2.411
72908W        W36632  11.325   2.763  14.802
72909W        W36633   4.398  13.830  11.081
72910W        W36634  24.701  40.450   0.479
72911W        W36635   7.254  14.781   5.623
72912W        W36636  16.655  30.999   4.814
72913W        W36637   9.171   4.738  11.495
72914W        W36638  29.955  39.028   2.802
72915W        W36639  36.496  11.664   1.709
72916W        W36640  40.463  19.068   1.342
72917W        W36641  26.658  34.020   4.741
72918W        W36642  11.144  38.514   0.819
72919W        W36643  28.562  42.389  13.423
72920W        W36644   2.346  44.787   1.437
72921W        W36645  17.764  42.476  13.485
72922W        W36646  13.161  23.215  14.386
72923W        W36647   4.940  32.958   1.440
72924W        W36648   1.750   3.232  11.887
72925W        W36649  24.165  29.936   3.260
72926W        W36650  28.518  13.725  11.570
72927W        W36651  28.639   1.419   2.808
72928W        W36652  19.672  34.450  12.443
72929W        W36653  34.497  33.525   0.806
72930W        W36654  15.677  40.311  12.488
72931W        W36655  24.161   2.266   4.123
72932W        W36656   7.741  30.046  13.484
72933W        W36657  37.894  40.415  13.829
72934W        W36658  37.914   4.785  12.974
72935W        W36659  10.673   8.793   4.600
72936W        W36660  32.480  38.341  14.354
72937W        W36661   3.928   6.746  11.581
72938W        W36662   8.315  24.502  12.473
72939W        W36663   2.916  44.417  11.888
72940W        W36664  28.085  24.116   9.959
72941W        W36665   3.315  27.190   4.669
72942W        W36666   4.733   8.697   4.148
72943W        W36667   3.231  22.702  11.465
72944W        W36668  29.498  29.120   3.314
72945W        W36669  28.141  20.648   3.270
72946W        W36670  16.243  44.900  14.848
72947W        W36671  16.596  27.949   1.353
72948W        W36672  20.041   8.677   1.861
72949W        W36673  19.062  38.966   4.192
72950W        W36674  41.334  34.419   9.584
72951W        W36675  21.584  35.412   4.656
72952W        W36676  34.044   6.278  13.035
72953W        W36677  21.734  39.846   1.363
72954W        W36678  42.331  36.047  11.421
72955W        W36679  31.414  22.609  13.401
72956W        W36680   2.254   1.374   4.201
72957W        W36681  15.740  40.873   2.884
72958W        W36682   4.787  39.399  12.369
72959W        W36683  42.468  28.158  10.535
72960W        W36684  24.580  10.160  11.612
72961W        W36685  33.552  18.598  13.526
72962W        W36686  21.620  11.220  14.001
72963W        W36687  44.966  30.636   1.873
72964W        W36688  12.288  32.043   2.848
72965W        W36689  42.287  27.032   2.212
72966W        W36690   8.839  14.592   4.144
72967W        W36691  13.695   0.298   3.651
72968W        W36692  16.183  15.137  12.075
72969W        W36693  22.699   4.874   3.840
72970W        W36694  36.861  35.023   2.179
72971W        W36695  32.107   0.334  14.452
72972W        W36696  30.155   3.711   2.703
72973W        W36697   9.832  21.682  11.875
72974W        W36698  21.682  24.603   0.777
72975W        W36699   2.226  10.660   0.916
72976W        W36700  43.932  21.556   2.769
72977W        W36701  22.680  35.558  13.412
72978W        W36702  12.325  11.808  10.581
72979W        W36703  16.756  38.035  13.018
72980W        W36704  28.476   4.746  14.005
72981W        W36705  24.591  41.800  14.284
72982W        W36706  36.531   8.852   1.385
72983W        W36707  18.200  27.054   0.760
72984W        W36708  29.521  20.055   4.223
72985W        W36709  39.431  15.646   4.761
72986W        W36710  27.187  18.167  13.998
72987W        W36711  17.250  10.191   0.315
72988W        W36712  23.711  39.531   0.761
72989W        W36713  13.809  23.692   0.413
72990W        W36714  35.909  28.063   2.901
72991W        W36715  13.769   0.955   2.724
72992W        W36716  37.534  33.482   1.917
72993W        W36717  36.984  43.913   0.932
72994W        W36718  30.018   9.189  12.922
72995W        W36719  30.485  17.679  13.891
72996W        W36720  20.203  38.038   4.350
72997W        W36721  41.424  34.061   5.719
72998W        W36722  30.113  35.098  11.436
72999W        W36723  16.811   4.205  10.030
73000W        W36724   1.408  25.523   4.342
73001W        W36725  23.720  35.107  11.389
73002W        W36726  21.747   5.724  11.935
73003W        W36727  42.438  20.108  11.866
73004W        W36728  42.314  26.471   2.686
73005W        W36729  28.537  22.701   3.345
73006W        W36730  38.046  44.314  10.562
73007W        W36731  15.650  15.305  13.959
73008W        W36732  12.141  23.531  14.772
73009W        W36733   6.247  28.011  11.965
73010W        W36734   6.195  19.228   2.362
73011W        W36735  38.072  34.491   0.859
73012W        W36736  35.952  40.040  14.001
73013W        W36737  37.862  38.345   2.275
73014W        W36738  35.374  28.059   1.916
73015W        W36739   4.426   9.749  14.344
73016W        W36740  29.997  12.318  13.044
73017W        W36741  37.581  43.833   3.776
73018W        W36742  40.358  12.127   3.711
73019W        W36743  38.474   0.359   4.335
73020W        W36744  25.123   5.750   3.223
73021W        W36745  28.975  33.899   1.362
73022W        W36746  38.370  40.314  11.911
73023W        W36747   1.287  12.197   0.462
73024W        W36748  15.162  22.080  12.868
73025W        W36749  35.489  26.155   4.826
73026W        W36750  33.874  14.744   1.231
73027W        W36751  44.853  44.491   3.236
73028W        W36752  37.008  36.570  12.388
73029W        W36753  30.948  19.093  11.040
73030W        W36754  37.831  37.545  14.861
73031W        W36755  10.344  12.646   3.169
73032W        W36756  36.994  28.559   1.699
73033W        W36757  18.169   6.754   2.332
73034W        W36758  20.151   3.396   0.392
73035W        W36759  20.032  33.551  13.815
73036W        W36760   4.862   2.752  11.428
73037W        W36761  43.969  29.559  13.312
73038W        W36762  34.432  32.005   4.741
73039W        W36763  29.453  21.537   1.754
73040W        W36764   6.688  12.727  11.569
73041W        W36765   1.280  33.985  14.506
73042W        W36766  43.449  38.562   3.769
73043W        W36767  15.245  17.557  13.871
73044W        W36768  32.426   7.835  10.977
73045W        W36769   8.179   1.742  13.438
73046W        W36770   5.223  37.886   3.854
73047W        W36771   0.955  19.653   0.246
73048W        W36772   6.916   5.839  10.494
73049W        W36773   2.304  23.048  12.452
73050W        W36774  19.099  41.320  14.446
73051W        W36775  15.278  35.413   0.922
73052W        W36776  27.562  19.664   4.178
73053W        W36777  35.510  16.666   2.322
73054W        W36778  38.022  44.339   4.131
73055W        W36779  10.205  26.083   1.834
73056W        W36780  15.688  36.486  14.997
73057W        W36781   9.868   1.430  13.815
73058W        W36782  28.612   2.729  13.344
73059W        W36783  44.900   3.429  10.891
73060W        W36784  36.498  34.949  13.341
73061W        W36785  29.436  19.747   4.170
73062W        W36786   7.317  12.233   2.891
73063W        W36787  33.473  25.132  13.902
73064W        W36788   6.383  34.478  11.467
73065W        W36789  23.993  18.081  13.362
73066W        W36790   4.408   2.774  13.035
73067W        W36791  23.116  25.117  10.518
73068W        W36792   4.243   7.854  14.881
73069W        W36793  40.003  27.142   2.770
73070W        W36794  33.584  24.643  11.451
73071W        W36795   9.761  37.852   4.328
73072W        W36796  31.942  25.977   1.436
73073W        W36797   3.886  31.899   1.278
73074W        W36798  21.751  40.439  11.426
73075W        W36799  25.574  30.032   3.654
73076W        W36800   7.720  18.187  14.783
73077W        W36801  35.880  44.497   2.299
73078W        W36802  26.131  38.494   4.174
73079W        W36803  26.686   5.751   2.899
73080W        W36804   8.299  21.087  14.516
73081W        W36805  12.233   5.402  11.596
73082W        W36806  24.588  27.168   3.827
73083W        W36807  12.670  11.626   4.238
73084W        W36808   9.208  31.013   2.307
73085W        W36809   3.342  24.177   1.847
73086W        W36810  12.685  20.596   3.855
73087W        W36811  43.881  22.646   4.298
73088W        W36812  13.124  34.478  13.987
73089W        W36813  39.395  31.123   3.665
73090W        W36814   5.688  18.633  14.369
73091W        W36815  32.137  43.286   0.458
73092W        W36816  30.612  13.731   1.885
73093W        W36817   0.373  44.822  14.853
73094W        W36818  18.213  23.553   0.321
73095W        W36819   9.279  40.939  13.816
73096W        W36820  21.152  11.362   1.411
73097W        W36821  24.571  28.141  14.359
73098W        W36822   8.360  24.191  10.910
73099W        W36823  18.156  39.449  10.513
73100W        W36824  40.008  20.093   1.815
73101W        W36825  32.499  10.738   3.870
73102W        W36826  24.005   3.223   2.734
73103W        W36827  40.924  20.670  12.862
73104W        W36828   7.301  24.506   3.825
73105W        W36829  12.667  21.682  13.484
73106W        W36830   5.303   5.721   3.218
73107W        W36831  14.122  24.482   1.872
73108W        W36832  35.486  19.658   3.676
73109W        W36833   8.225  24.135  13.002
73110W        W36834   0.865  27.521  13.981
73111W        W36835   4.303   4.274   2.408
73112W        W36836   9.238  16.306   4.124
73113W        W36837  14.767  14.296  11.913
73114W        W36838  34.481  28.068  12.951
73115W        W36839  26.034   4.945   1.266
73116W        W36840  39.941  24.580  13.824
73117W        W36841  41.836  38.004  10.064
73118W        W36842  40.034   6.908  11.097
73119W        W36843  28.107  42.449   0.470
73120W        W36844  15.309  44.964   3.813
73121W        W36845  23.584  10.786   1.886
73122W        W36846  20.554  18.074   0.871
73123W        W36847  22.727  44.006   2.316
73124W        W36848  20.723  41.304  10.510
73125W        W36849  43.452  29.055   3.669
73126W        W36850  22.105  40.054   5.291
73127W        W36851  40.484  44.376   2.820
73128W        W36852  42.449  38.954  14.975
73129W        W36853  10.804  23.005   0.781
73130W        W36854  14.788   9.349  13.042
73131W        W36855  44.312  29.633  14.867
73132W        W36856  43.279  14.712   1.399
73133W        W36857  10.722  32.456  13.480
73134W        W36858  24.167  30.024  14.275
73135W        W36859  25.639  11.801  13.010
73136W        W36860  15.252  38.021   1.221
73137W        W36861  11.299  38.547  10.894
73138W        W36862  11.247  17.640  11.040
73139W        W36863  18.106   7.698   1.923
73140W        W36864  24.086  14.628  11.404
73141W        W36865   0.893   7.175   3.335
73142W        W36866  17.270  10.264   2.215
73143W        W36867  40.449  11.765   5.313
73144W        W36868  26.688  12.633  10.110
73145W        W36869  17.141  12.178   1.342
73146W        W36870  18.168  40.876   1.240
73147W        W36871  16.676  33.081   2.248
73148W        W36872  15.672   1.276  14.997
73149W        W36873  31.533  20.261   2.832
73150W        W36874  13.810  28.129  13.988
73151W        W36875  40.007  23.214   4.255
73152W        W36876  15.642   5.267  14.925
73153W        W36877  37.498  23.714  14.005
73154W        W36878  21.150  39.333   2.375
73155W        W36879  32.958  15.208  12.521
73156W        W36880  10.663  25.033   1.447
73157W        W36881  11.245  40.548   0.741
73158W        W36882  37.852  42.815  13.836
73159W        W36883   1.820  33.066  14.513
73160W        W36884  39.862  13.304  13.973
73161W        W36885  41.024  31.930  10.934
73162W        W36886  27.503  10.171   4.709
73163W        W36887  26.980   0.919  11.584
73164W        W36888  10.330  24.991   2.295
73165W        W36889   7.864  28.087   2.805
73166W        W36890   5.894  12.360   2.210
73167W        W36891  32.048   1.930  14.463
73168W        W36892   6.387   8.788   1.391
73169W        W36893  33.114  43.402   4.730
73170W        W36894  30.956  43.875   1.745
73171W        W36895  21.521  36.868   3.295
73172W        W36896  44.754  44.278  11.382
73173W        W36897   0.965   2.346   4.127
73174W        W36898  26.629  21.070  11.565
73175W        W36899  33.096  44.943   3.215
73176W        W36900  29.035  10.270  11.517
73177W        W36901  10.265  22.529   0.282
73178W        W36902  34.407  13.333  13.522
73179W        W36903  39.923  18.621   1.814
73180W        W36904  43.767  21.128  10.904
73181W        W36905  36.075   3.428  11.408
73182W        W36906   5.795  24.227   3.298
73183W        W36907  38.496   2.831  11.022
73184W        W36908   4.892  35.057   4.114
73185W        W36909  31.636  32.051  11.528
73186W        W36910  12.805  12.223   3.324
73187W        W36911  11.855  10.669  10.032
73188W        W36912  14.188  12.123   4.248
73189W        W36913   8.836  19.702   0.743
73190W        W36914  32.104  37.567  13.994
73191W        W36915   8.804  28.958  10.970
73192W        W36916  20.598  28.488   3.333
73193W        W36917  32.548  16.662   3.319
73194W        W36918  41.381  37.412   3.322
73195W        W36919  33.916  26.071   4.344
73196W        W36920  33.462  41.362  14.276
73197W        W36921  37.084   0.828   2.262
73198W        W36922   6.231   1.393  13.503
73199W        W36923  21.518  37.890   5.581
73200W        W36924  18.593   3.338  10.459
73201W        W36925  16.665   9.213  12.465
73202W        W36926  44.385  25.502   4.256
73203W        W36927  33.976  20.713   1.210
73204W        W36928  44.308  30.635   4.340
73205W        W36929  12.817  16.688  13.425
73206W        W36930  23.238  38.478   5.710
73207W        W36931  20.607  32.109   2.348
73208W        W36932  42.494  14.335   4.190
73209W        W36933  31.923  15.709   1.881
73210W        W36934  28.941   6.352  13.497
73211W        W36935  33.055  41.830   1.329
73212W        W36936   5.195   8.845  10.996
73213W        W36937   9.653  41.489  11.080
73214W        W36938  31.911   6.226  14.325
73215W        W36939   0.878  35.981  12.918
73216W        W36940  10.748  26.001  12.501
73217W        W36941  31.932  12.797  12.416
73218W        W36942  20.725  41.946   5.159
73219W        W36943  38.556   6.419  10.405
73220W        W36944  35.985  35.437   1.381
73221W        W36945   6.362   0.360  12.506
73222W        W36946  37.350  35.103   4.642
73223W        W36947  41.425  14.789  14.295
73224W        W36948  18.790  41.364  10.988
73225W        W36949  25.164  37.484   1.695
73226W        W36950   7.171  23.608  13.424
73227W        W36951  20.245  33.477   1.291
73228W        W36952  17.663   3.724  13.005
73229W        W36953  40.886  39.365  10.549
73230W        W36954  41.339   6.769  13.868
73231W        W36955  17.761  41.442   1.854
73232W        W36956   9.277  16.251  10.897
73233W        W36957  30.990   3.299  13.348
73234W        W36958  18.619  34.581  12.479
73235W        W36959  39.407  25.514   3.854
73236W        W36960   9.859  12.785   1.445
73237W        W36961   6.288  44.438  14.364
73238W        W36962   4.405   7.792  12.476
73239W        W36963  41.451  23.194  14.020
73240W        W36964   7.758  10.317  12.513
73241W        W36965  33.595   8.763   0.941
73242W        W36966  28.669  37.920  14.845
73243W        W36967  25.151  35.954   2.886
73244W        W36968   8.327  14.284  10.025
73245W        W36969  13.333  36.073   4.341
73246W        W36970   8.404  39.000   0.413
73247W        W36971  31.566  35.898   0.464
73248W        W36972  42.445  40.421   1.223
73249W        W36973  38.350   5.437   1.387
73250W        W36974  19.774  16.689   4.169
73251W        W36975  41.918  33.961  13.390
73252W        W36976  15.730  22.039   2.332
73253W        W36977  12.715   2.872  12.060
73254W        W36978  13.781  15.642  12.021
73255W        W36979  34.878  30.454   2.680
73256W        W36980  14.814  38.011   4.251
73257W        W36981   5.718  26.637  11.015
73258W        W36982   0.792  37.907   3.371
73259W        W36983   1.277  10.649   3.269
73260W        W36984  22.695   9.699   2.243
73261W        W36985   8.340  44.373   4.295
73262W        W36986  15.738  19.734   0.929
73263W        W36987  34.392   8.655   2.768
73264W        W36988  15.748  11.205  12.995
73265W        W36989  43.013  21.022   0.808
73266W        W36990  23.714  17.609  13.047
73267W        W36991  30.067  33.080   1.826
73268W        W36992   9.259   2.938   2.816
73269W        W36993   1.309  36.088  12.002
73270W        W36994  18.730   2.471   3.282
73271W        W36995   1.766  32.579   4.655
73272W        W36996  37.371  31.148   2.777
73273W        W36997  16.245   2.784   1.401
73274W        W36998   2.758   2.843  13.426
73275W        W36999  39.457  16.751  13.542
73276W        W37000   6.194  40.049  13.371
73277W        W37001  19.078  12.819   3.319
73278W        W37002  27.061  26.578   1.933
73279W        W37003  41.995  40.984   9.642
73280W        W37004   4.305  31.608   3.837
73281W        W37005   1.818  14.136  11.577
73282W        W37006  32.448  22.047  13.399
73283W        W37007   6.822  24.009  11.607
73284W        W37008  15.633  44.459   1.340
73285W        W37009  20.054  24.046   1.331
73286W        W37010  39.414  40.488   4.753
73287W        W37011  13.691  31.401   2.190
73288W        W37012   0.944   7.815   2.405
73289W        W37013  28.654  16.672   0.359
73290W        W37014  39.326  26.526  13.910
73291W        W37015  26.680  37.023  13.794
73292W        W37016  15.647  39.990   0.277
73293W        W37017  42.966  11.139   1.777
73294W        W37018  41.023  33.995   1.333
73295W        W37019  22.197   5.922  14.470
73296W        W37020  19.264   6.784   1.914
73297W        W37021  31.998  27.531  11.430
73298W        W37022  44.993  14.132   0.253
73299W        W37023  26.503  32.034   2.830
73300W        W37024  43.996  37.548  11.522
73301W        W37025   1.387  13.156   3.716
73302W        W37026  20.648  40.486  13.515
73303W        W37027   8.330  17.689   2.850
73304W        W37028  43.347  24.060   5.739
73305W        W37029  41.305  40.007   1.729
73306W        W37030   4.847   1.280   2.820
73307W        W37031  31.423  26.599  11.590
73308W        W37032  30.539   2.226   0.393
73309W        W37033   5.916  18.613   1.365
73310W        W37034  27.027  22.055   2.228
73311W        W37035  24.709   4.258   4.718
73312W        W37036  13.131  33.392  13.965
73313W        W37037  39.333  16.777  14.292
73314W        W37038  35.013  31.591  13.314
73315W        W37039  43.316   6.219   2.294
73316W        W37040  37.019  19.598  12.392
73317W        W37041  40.319   2.926   1.431
73318W        W37042  19.277  12.162   1.804
73319W        W37043  15.679   9.805  13.990
73320W        W37044  19.205   6.820   3.637
73321W        W37045  34.521  15.819   0.376
73322W        W37046  42.849  42.830   1.904
73323W        W37047   1.481  15.665  10.942
73324W        W37048  42.910   0.881   3.309
73325W        W37049  26.027   1.257  11.885
73326W        W37050  13.631  29.109  13.996
73327W        W37051  15.215  33.576   1.368
73328W        W37052  26.644   2.891  11.537
73329W        W37053  28.134  19.652   1.318
73330W        W37054  12.119  37.984   0.390
73331W        W37055  12.354  33.937   3.835
73332W        W37056   7.827  20.647   0.463
73333W        W37057  33.974   5.408  14.509
73334W        W37058  39.810  32.466  10.620
73335W        W37059  16.162  11.794  12.841
73336W        W37060  21.692   9.275  11.583
73337W        W37061  30.496   8.696   4.663
73338W        W37062  39.029  25.964  13.827
73339W        W37063  36.891   5.218   1.855
73340W        W37064  27.555  21.196  11.459
73341W        W37065  26.092  41.423   2.380
73342W        W37066   0.317   6.696  14.294
73343W        W37067  19.203  22.013   3.263
73344W        W37068  19.560  26.056  13.869
73345W        W37069  15.596   3.390   4.324
73346W        W37070  25.016   7.343   4.606
73347W        W37071  44.959  44.896  12.577
73348W        W37072  20.743   0.282   1.344
73349W        W37073  30.014  15.674   3.828
73350W        W37074  27.061   9.266  11.899
73351W        W37075  19.109  42.959  14.868
73352W        W37076   5.217  10.281  13.014
73353W        W37077   6.325   1.779  13.007
73354W        W37078   1.370  21.089   2.761
73355W        W37079  19.584  25.206   4.212
73356W        W37080  24.017   1.804  10.616
73357W        W37081  43.424  27.599   0.750
73358W        W37082  34.928   6.272   2.406
73359W        W37083  37.923  41.987   0.923
73360W        W37084  13.649  30.974   4.634
73361W        W37085  44.480  35.049  12.032
73362W        W37086   8.344  38.901   2.846
73363W        W37087  12.836  30.060  13.060
73364W        W37088   3.835  11.170  14.302
73365W        W37089  34.603  11.732   4.777
73366W        W37090  35.530   1.244   4.212
73367W        W37091  32.935  37.365  12.835
73368W        W37092  16.632   1.763   1.742
73369W        W37093  29.453  10.185   4.739
73370W        W37094   9.708  41.940  13.449
73371W        W37095  23.036  14.829  11.473
73372W        W37096  39.542  37.923  11.433
73373W        W37097  25.637  26.034   0.377
73374W        W37098   2.432   1.978  13.348
73375W        W37099   7.393  35.417   1.791
73376W        W37100   9.354  42.488   0.480
73377W        W37101  17.283  21.174   2.765
73378W        W37102  34.118  42.792   3.632
73379W        W37103   8.844  44.923  10.435
73380W        W37104  28.949  30.061   1.371
73381W        W37105  35.042  31.103  13.967
73382W        W37106   2.860  43.865  13.059
73383W        W37107  31.452  10.850  12.364
73384W        W37108  12.173  27.945  12.947
73385W        W37109  20.196  23.614   9.972
73386W        W37110  21.615   6.778  11.085
73387W        W37111  13.333  29.089  10.448
73388W        W37112  36.368   1.278   1.703
73389W        W37113  30.647  15.716   1.383
73390W        W37114  39.872   6.183   2.719
73391W        W37115  41.385  34.467  14.781
73392W        W37116  43.906  16.612  13.520
73393W        W37117  20.184   7.407  12.508
73394W        W37118  40.906  38.848  13.314
73395W        W37119   2.321  11.250  12.526
73396W        W37120  30.031  16.234  11.395
73397W        W37121  42.341  29.007  14.768
73398W        W37122  20.556  16.139   0.303
73399W        W37123  41.513  16.611  10.592
73400W        W37124  27.666  40.310   4.141
73401W        W37125  25.098  16.721   1.790
73402W        W37126  37.410   6.910   1.409
73403W        W37127  43.957  22.728  12.040
73404W        W37128  37.461   9.195  11.030
73405W        W37129  23.718  43.826  10.539
73406W        W37130   8.182  35.457  12.498
73407W        W37131  20.575  10.801   2.375
73408W        W37132  18.079   0.324   0.367
73409W        W37133  12.784  42.420  10.492
73410W        W37134  20.563   8.866   2.775
73411W        W37135  26.467  32.542   0.944
73412W        W37136  16.287  28.614   2.884
73413W        W37137  26.576  12.189  13.432
73414W        W37138   4.914  29.663  12.561
73415W        W37139   2.779  34.400  13.522
73416W        W37140  37.448  13.665  12.912
73417W        W37141  35.457  43.996   0.259
73418W        W37142  37.372  20.157  12.425
73419W        W37143  43.387  33.414   4.662
73420W        W37144  26.172   8.886  14.766
73421W        W37145  10.218  17.777  13.473
73422W        W37146  29.654  30.498   5.143
73423W        W37147  25.657  14.644  10.601
73424W        W37148  35.030  39.424   0.865
73425W        W37149  39.509  23.239   4.294
73426W        W37150  23.646   8.176  14.509
73427W        W37151  33.428  13.187  13.307
73428W        W37152   8.779  34.029   0.749
73429W        W37153  26.186  34.505   2.303
73430W        W37154  37.543  39.025  14.774
73431W        W37155  32.118  24.637  13.942
73432W        W37156  15.755  38.389  12.892
73433W        W37157  21.188  25.013  12.374
73434W        W37158  29.033  42.978  11.381
73435W        W37159  14.588   9.369  11.015
73436W        W37160  37.875  13.252   4.240
73437W        W37161  30.510  21.756  14.881
73438W        W37162  10.237  31.999   0.924
73439W        W37163  21.198  18.683  14.949
73440W        W37164  27.990   2.854  10.944
73441W        W37165  41.323   8.828   0.958
73442W        W37166  10.861   5.714  10.926
73443W        W37167  26.971  34.581  13.975
73444W        W37168  41.947  27.008   2.340
73445W        W37169  33.579  29.662   1.834
73446W        W37170  31.560   2.902  10.508
73447W        W37171   9.190  13.791  10.012
73448W        W37172  22.571  11.716  10.541
73449W        W37173  20.687  36.578   3.188
73450W        W37174  13.631  38.873   1.225
73451W        W37175  37.919  13.134  14.806
73452W        W37176  19.115  30.966  11.027
73453W        W37177   1.444   7.750   2.384
73454W        W37178  16.782  15.745   1.369
73455W        W37179  11.208  37.493   1.303
73456W        W37180   5.753  16.730   2.344
73457W        W37181  42.991  24.229   0.450
73458W        W37182  41.040  30.414  14.986
73459W        W37183   3.762  20.247   4.257
73460W        W37184  40.422  23.076   1.784
73461W        W37185  29.138  11.219   0.273
73462W        W37186  27.049  10.211  11.059
73463W        W37187  31.139  12.693  12.856
73464W        W37188  10.751  33.044   4.712
73465W        W37189  38.857   7.255   3.217
73466W        W37190  18.150  23.023   0.832
73467W        W37191  10.643  27.512  14.337
73468W        W37192  34.035  42.342   2.378
73469W        W37193  33.027  32.063  11.417
73470W        W37194  10.311  23.678  12.944
73471W        W37195  24.152   7.678   0.857
73472W        W37196  18.196  27.021   1.712
73473W        W37197  13.318   8.797  13.002
73474W        W37198   7.339   4.819  11.942
73475W        W37199   6.755  30.455   0.418
73476W        W37200   0.292  26.208  11.464
73477W        W37201   2.465   8.832   0.325
73478W        W37202  42.779  36.593  10.044
73479W        W37203  38.977  26.554  11.973
73480W        W37204  32.958  35.920   1.425
73481W        W37205  13.620  37.352   1.740
73482W        W37206   3.839   9.291  10.468
73483W        W37207  10.271  25.995  12.833
73484W        W37208  35.048  16.653  11.988
73485W        W37209  43.766  11.177  10.914
73486W        W37210  14.129  41.906  12.983
73487W        W37211   3.845   8.252  13.533
73488W        W37212   7.273  16.098   1.916
73489W        W37213   2.454  28.606  12.051
73490W        W37214   7.390  14.261   1.914
73491W        W37215  11.359  14.311   3.715
73492W        W37216  34.512   0.450  11.932
73493W        W37217  34.447  30.153   2.290
73494W        W37218  20.640  36.013   3.730
73495W        W37219  41.362  40.917   3.149
73496W        W37220  19.063   4.326  12.058
73497W        W37221  18.596  37.938   4.611
73498W        W37222  20.231  19.211  13.883
73499W        W37223  12.355   5.348  12.367
73500W        W37224  32.492  38.062   3.147
73501W        W37225  41.508  33.535  14.813
73502W        W37226  20.101  16.206  12.566
73503W        W37227  37.500   2.732   4.740
73504W        W37228  17.648  35.974   3.640
73505W        W37229  27.456  15.783  12.568
73506W        W37230  35.922   0.486  13.990
73507W        W37231  43.477  15.793  11.557
73508W        W37232   3.744   2.743   0.754
73509W        W37233  23.029  13.634   3.719
73510W        W37234  22.119  14.599   1.303
73511W        W37235  19.567  11.155   1.815
73512W        W37236  32.454  36.948  14.472
73513W        W37237  35.911  39.489   4.251
73514W        W37238  12.350  11.167   3.197
73515W        W37239  15.222  32.051  12.391
73516W        W37240   0.950  22.142  13.457
73517W        W37241  15.805   3.429   1.380
73518W        W37242  37.548   2.377   4.345
73519W        W37243  38.527   0.408  12.041
73520W        W37244  33.426  28.017  11.435
73521W        W37245  31.023   8.837   0.328
73522W        W37246  40.809  35.952  12.922
73523W        W37247  19.722  44.935  14.407
73524W        W37248   4.292  38.533   4.679
73525W        W37249  44.351   5.420   0.757
73526W        W37250  34.114  39.910  12.356
73527W        W37251  36.945  44.958  11.924
73528W        W37252  16.615  29.443   0.961
73529W        W37253  24.177  44.457   1.797
73530W        W37254  30.912  37.931  10.457
73531W        W37255  15.215  37.381  14.899
73532W        W37256  33.621   3.782  11.095
73533W        W37257  43.378   0.278   3.355
73534W        W37258  26.093  32.601   1.902
73535W        W37259  24.024  44.879  11.936
73536W        W37260  18.587  28.081   1.251
73537W        W37261   3.847  41.835  14.837
73538W        W37262  43.987   9.731   3.170
73539W        W37263  39.387  19.544  11.419
73540W        W37264   5.848  37.364  11.573
73541W        W37265  23.627   6.274  12.030
73542W        W37266  15.121  17.649   1.437
73543W        W37267   4.443  37.041  13.011
73544W        W37268   6.313  40.000  11.883
73545W        W37269  39.439  24.185  11.865
73546W        W37270  39.036   9.243   2.827
73547W        W37271  29.049  26.197  13.386
73548W        W37272  34.103  21.175  14.911
73549W        W37273   4.705  36.469   4.342
73550W        W37274  37.565  34.083  14.385
73551W        W37275  36.577   1.811   1.360
73552W        W37276  18.125  20.527   4.306
73553W        W37277  16.774  20.714  14.885
73554W        W37278  16.103  21.260  13.045
73555W        W37279   9.761  42.500  14.787
73556W        W37280  44.975  22.126  14.309
73557W        W37281  19.086  27.620  12.069
73558W        W37282  31.113  19.259   1.235
73559W        W37283   0.822  29.604  10.519
73560W        W37284  37.575  40.324  11.482
73561W        W37285  43.906  16.628  14.983
73562W        W37286  31.943  18.215  11.876
73563W        W37287   1.456   4.441   4.180
73564W        W37288  38.561  39.499  11.882
73565W        W37289  11.636   0.881  13.932
73566W        W37290  32.142  10.658  13.393
73567W        W37291  24.112  34.405  13.391
73568W        W37292   9.723  10.322   3.707
73569W        W37293   8.712   5.427   2.273
73570W        W37294  42.797  14.224   0.473
73571W        W37295  43.458  29.117  10.403
73572W        W37296  23.660   3.303  14.011
73573W        W37297  28.967  10.190  13.927
73574W        W37298  28.971  14.834   0.780
73575W        W37299  29.604  35.467  12.480
73576W        W37300   3.344  35.057  14.833
73577W        W37301  19.108   7.849  12.393
73578W        W37302  39.876  24.520   4.635
73579W        W37303  10.274   9.712   2.306
73580W        W37304  17.202  15.192  11.918
73581W        W37305   4.743   2.266  11.990
73582W        W37306  44.919  20.585  13.798
73583W        W37307   3.830   1.375  12.525
73584W        W37308   6.763  21.700  10.569
73585W        W37309  14.807  10.273  12.012
73586W        W37310  10.812   0.756   4.323
73587W        W37311  32.098  40.830   3.784
73588W        W37312   2.744  25.678   4.324
73589W        W37313  16.594   2.735  12.010
73590W        W37314  26.181  32.012  13.792
73591W        W37315  28.017  30.628   1.267
73592W        W37316  10.168   0.321  12.014
73593W        W37317  34.907  24.069   4.201
73594W        W37318  30.471  38.554   0.742
73595W        W37319  43.890  32.111  12.416
73596W        W37320  14.261  28.665   0.795
73597W        W37321  43.896  24.199   0.915
73598W        W37322  19.165  19.649  11.060
73599W        W37323  10.331  40.853  11.909
73600W        W37324   7.707   5.324  14.891
73601W        W37325   2.897  18.704   2.260
73602W        W37326  24.705  32.431   3.365
73603W        W37327   8.399   3.841  13.979
73604W        W37328  23.079   2.262  14.341
73605W        W37329  28.556   8.258   3.195
73606W        W37330  13.734  32.489  10.945
73607W        W37331  42.790   7.345   3.275
73608W        W37332  44.414  41.854   5.285
73609W        W37333   7.706  36.505   2.299
73610W        W37334  24.588  27.020   5.296
73611W        W37335  44.425  16.632   2.876
73612W        W37336  18.698  23.165   2.810
73613W        W37337   5.375  43.422  14.313
73614W        W37338  11.728  35.077  13.928
73615W        W37339  33.582  24.067  12.943
73616W        W37340   8.782   9.292   3.635
73617W        W37341   8.729   6.412   4.332
73618W        W37342  26.577  17.705  13.058
73619W        W37343  40.327  35.056   1.767
73620W        W37344  11.355  20.583   4.235
73621W        W37345  12.285  31.549   3.638
73622W        W37346   7.807  19.221   1.307
73623W        W37347  14.756  25.186  12.388
73624W        W37348  14.769  40.493  12.363
73625W        W37349  26.087  19.682   2.883
73626W        W37350  17.100  30.524   0.316
73627W        W37351  12.623  16.263  10.580
73628W        W37352  24.108  41.343  11.949
73629W        W37353  17.603  10.327  10.573
73630W        W37354  30.642  35.388   0.265
73631W        W37355   2.272  34.383   1.242
73632W        W37356  18.217  24.491  11.391
73633W        W37357  17.584  31.624   2.681
73634W        W37358  41.892  43.325   5.287
73635W        W37359  42.885  41.424  10.939
73636W        W37360   4.212   2.356   1.427
73637W        W37361  28.485  13.234   2.363
73638W        W37362  17.600  36.989   1.417
73639W        W37363  39.441   9.335   2.875
73640W        W37364  34.884  24.187   1.920
73641W        W37365  39.035  27.039  14.970
73642W        W37366  38.435   1.852  12.562
73643W        W37367  15.097   6.326   3.202
73644W        W37368  30.602  27.628  10.518
73645W        W37369  14.669  13.166   4.282
73646W        W37370  33.587  12.777   5.798
73647W        W37371  13.746  38.051   3.177
73648W        W37372  26.202  14.110   0.848
73649W        W37373  37.864  42.032   4.716
73650W        W37374  31.507   3.840  12.441
73651W        W37375  23.114   8.318  14.982
73652W        W37376  11.633  23.137   3.315
73653W        W37377   4.772   4.803   3.631
73654W        W37378   4.300  38.545  12.351
73655W        W37379  35.907   7.789   2.328
73656W        W37380  18.736  11.334   2.275
73657W        W37381  25.986  39.987   0.812
73658W        W37382   2.747   7.341  10.971
73659W        W37383  43.877  15.144  10.487
73660W        W37384   4.901  17.660   2.866
73661W        W37385  19.212   8.768   2.340
73662W        W37386   5.776   5.908  12.858
73663W        W37387  40.513  44.791   4.784
73664W        W37388   4.212   2.308  12.895
73665W        W37389  22.998  31.558  12.486
73666W        W37390  16.601  35.010   0.807
73667W        W37391  16.279  43.828   0.775
73668W        W37392  24.180  33.109   0.871
73669W        W37393   6.735   2.317   2.787
73670W        W37394   1.776  13.629  13.543
73671W        W37395  31.607  40.945   3.637
73672W        W37396  21.561  11.211  10.539
73673W        W37397  35.991  12.642   2.197
73674W        W37398   7.872  25.543  10.484
73675W        W37399   5.863  35.967   4.634
73676W        W37400  40.901  23.030   1.885
73677W        W37401  29.123  38.438  11.081
73678W        W37402  25.024  26.589   1.252
73679W        W37403  29.616  10.382  10.104
73680W        W37404   0.450   1.936   3.289
73681W        W37405  34.097  32.966  12.429
73682W        W37406  40.519  32.464   1.253
73683W        W37407   7.758   6.398  14.288
73684W        W37408  26.995  36.919   4.256
73685W        W37409  22.154  40.363  11.565
73686W        W37410  41.875  38.337   2.254
73687W        W37411  40.334   9.809   3.283
73688W        W37412   3.377  20.189   4.766
73689W        W37413   0.405  27.640   2.787
73690W        W37414  41.419  20.102   0.430
73691W        W37415  23.133  26.028   3.385
73692W        W37416  20.641   1.801  12.971
73693W        W37417   9.178  44.503  11.068
73694W        W37418  22.641   0.901  13.053
73695W        W37419  23.133  44.307  13.876
73696W        W37420  26.169   5.721  10.584
73697W        W37421  15.681  43.782  12.025
73698W        W37422  26.954  26.050  13.472
73699W        W37423  29.988  23.162   0.943
73700W        W37424  24.536  32.036   2.792
73701W        W37425  41.401  20.737   1.807
73702W        W37426  24.978   3.935   2.361
73703W        W37427  26.048  22.661  12.425
73704W        W37428  13.330  44.406   4.114
73705W        W37429  26.646  16.238   1.809
73706W        W37430  41.934  32.136   3.179
73707W        W37431   1.343  11.244   3.783
73708W        W37432   6.810  35.885  13.541
73709W        W37433  26.577   9.755   2.352
73710W        W37434  10.312   2.789   2.184
73711W        W37435  43.867   9.682   2.704
73712W        W37436  22.564  16.696   2.221
73713W        W37437  26.075   1.821  14.876
73714W        W37438  30.064   4.422   3.375
73715W        W37439   7.261  36.032  10.986
73716W        W37440  19.562  35.453  12.884
73717W        W37441   2.878  23.564  12.996
73718W        W37442   2.357  26.976   3.221
73719W        W37443   5.330   3.431   1.223
73720W        W37444  15.754  17.799   0.879
73721W        W37445   3.435   5.847  10.118
73722W        W37446  31.050  18.639  10.007
73723W        W37447   2.887  26.187   0.824
73724W        W37448  21.204  36.496  12.015
73725W        W37449  27.560  29.107  10.967
73726W        W37450   4.411  30.977   2.250
73727W        W37451  39.023  29.456  12.564
73728W        W37452  42.360   4.706  13.983
73729W        W37453  42.801  34.056  10.409
73730W        W37454  21.646   0.982   2.673
73731W        W37455  22.161  44.877   0.929
73732W        W37456   6.364  20.563   4.639
73733W        W37457   9.643  43.993  11.385
73734W        W37458  34.059   7.348  12.891
73735W        W37459  30.088   4.442  14.282
73736W        W37460  27.047  36.409   2.226
73737W        W37461  38.833  14.095   0.792
73738W        W37462  19.751  18.063   4.243
73739W        W37463  16.590   0.410   1.815
73740W        W37464  12.155   3.248  13.434
73741W        W37465  42.411  41.870  13.543
73742W        W37466  29.998  42.286   1.354
73743W        W37467  42.287  34.016  12.480
73744W        W37468  32.931  11.830  14.451
73745W        W37469  24.053  34.075   4.252
73746W        W37470  39.358  10.777   4.782
73747W        W37471  13.622  10.768  11.548
73748W        W37472  38.914  31.541  12.504
73749W        W37473  22.572  19.740   2.391
73750W        W37474  38.418  36.072   3.309
73751W        W37475  39.448  24.497  10.483
73752W        W37476   7.788   5.332  11.932
73753W        W37477  29.461  24.532  14.443
73754W        W37478   4.433   9.185   4.817
73755W        W37479  35.378  28.572   2.208
73756W        W37480  20.711  23.552  10.978
73757W        W37481  11.333  39.953  10.559
73758W        W37482  33.990  31.409   1.725
73759W        W37483  21.019  18.626   2.796
73760W        W37484  33.128  30.995   4.147
73761W        W37485  32.101  21.087  13.385
73762W        W37486   7.315  30.019  11.455
73763W        W37487  38.071  37.449  13.860
73764W        W37488  31.010  30.062   2.212
73765W        W37489  19.687  28.521  11.931
73766W        W37490  28.510  28.176  14.910
73767W        W37491  37.944  28.621   0.845
73768W        W37492  41.534  17.761  13.998
73769W        W37493  33.483   6.183   4.242
73770W        W37494  29.172   0.413   0.363
73771W        W37495  20.039  29.430   3.295
73772W        W37496  34.593  31.944  14.767
73773W        W37497  28.968  22.188  10.430
73774W        W37498  10.794   8.302  12.954
73775W        W37499  11.261  24.689  12.919
73776W        W37500   4.441  13.735  11.397
73777W        W37501  27.624   5.712  12.984
73778W        W37502  28.168   1.897  13.805
73779W        W37503  27.977  32.007   5.243
73780W        W37504  12.802  27.562  11.485
73781W        W37505  16.591  18.772   4.810
73782W        W37506  42.889  14.758   5.312
73783W        W37507  16.603   8.266  13.820
73784W        W37508  29.041   2.472  13.378
73785W        W37509   6.830  39.026  14.311
73786W        W37510   6.397   4.764   2.326
73787W        W37511  37.546  33.604   1.323
73788W        W37512  18.199   0.297   3.370
73789W        W37513  41.305  13.176  11.940
73790W        W37514  34.531  41.823  14.920
73791W        W37515  43.958  33.463  11.551
73792W        W37516   5.899  22.192  13.416
73793W        W37517  21.549  14.280   5.171
73794W        W37518  12.792   5.832  14.464
73795W        W37519   6.830  15.316   1.871
73796W        W37520   0.436   4.917   1.421
73797W        W37521   1.348  21.022   2.307
73798W        W37522  23.122  40.379   3.811
73799W        W37523  14.705   8.359  11.463
73800W        W37524  34.060  15.671  13.530
73801W        W37525  23.530   8.689   0.270
73802W        W37526  16.314   2.755  12.066
73803W        W37527  27.465   5.782   3.804
73804W        W37528  19.270  41.323   0.858
73805W        W37529   4.355  39.319   0.961
73806W        W37530  38.430  37.481   2.185
73807W        W37531   6.207  39.445  10.555
73808W        W37532   4.264  30.485  13.452
73809W        W37533  34.075  11.777   2.273
73810W        W37534  32.140  31.998   1.751
73811W        W37535   7.203  36.043  11.477
73812W        W37536  15.737  44.868  11.399
73813W        W37537  25.695  18.171  14.841
73814W        W37538  19.049  33.472  12.467
73815W        W37539  23.130  44.394  10.409
73816W        W37540  27.966   7.374   4.600
73817W        W37541   7.727  35.586  11.572
73818W        W37542  18.563  30.963   2.836
73819W        W37543  11.320  26.116  13.054
73820W        W37544  35.495  22.724  13.546
73821W        W37545   0.402  16.658   0.749
73822W        W37546  17.589  30.058   2.697
73823W        W37547  40.502   6.789  12.393
73824W        W37548  14.754  43.912   2.304
73825W        W37549  43.485   5.260  12.959
73826W        W37550  10.351   8.317   3.309
73827W        W37551  26.970  10.695   3.850
73828W        W37552  29.021  25.493  11.077
73829W        W37553   3.789   1.913   4.758
73830W        W37554  20.655  11.753  12.091
73831W        W37555  22.509  38.349   3.803
73832W        W37556   2.270   9.200  14.807
73833W        W37557  29.139  35.601  14.019
73834W        W37558  16.173   7.791   0.424
73835W        W37559  14.811  26.045   3.656
73836W        W37560   6.696  43.349  10.576
73837W        W37561   3.414  20.237   3.250
73838W        W37562   7.288  35.383   0.457
73839W        W37563   2.762   0.906   1.935
73840W        W37564  11.362  22.031   3.287
73841W        W37565   4.812  23.101   2.869
73842W        W37566  19.159  12.165   0.773
73843W        W37567  17.709  10.648  11.096
73844W        W37568   5.829  40.363   1.219
73845W        W37569  41.300  35.415  13.064
73846W        W37570  31.917  36.878  12.835
73847W        W37571  39.320  19.663  14.003
73848W        W37572   1.734  22.113  13.862
73849W        W37573  37.419  40.430   1.392
73850W        W37574  14.831  21.682  12.013
73851W        W37575  33.892  20.538   0.470
73852W        W37576   0.770   8.867  10.998
73853W        W37577  19.755  41.385   4.246
73854W        W37578  26.589  13.766  11.000
73855W        W37579  20.124  13.623   3.167
73856W        W37580   3.288  29.582  10.530
73857W        W37581  31.560   7.864  14.419
73858W        W37582   5.423  19.774  14.780
73859W        W37583  10.288  14.130   3.168
73860W        W37584  21.183  40.923  14.368
73861W        W37585  17.765  41.518   0.262
73862W        W37586   2.303  43.437  14.784
73863W        W37587  40.966  30.964  10.582
73864W        W37588  42.310   9.792   2.303
73865W        W37589  13.837  33.541  12.450
73866W        W37590  29.920  35.010  13.446
73867W        W37591   1.946  16.116  11.387
73868W        W37592   4.316  25.714   4.227
73869W        W37593  24.586  31.591  10.424
73870W        W37594  15.634  18.052  10.060
73871W        W37595  31.060  39.975   4.193
73872W        W37596  32.081  38.545  11.417
73873W        W37597  34.576  10.838  14.904
73874W        W37598  15.728  42.979  13.889
73875W        W37599  10.258   6.913  14.781
73876W        W37600  29.534  35.877   4.152
73877W        W37601  13.743  31.898  14.299
73878W        W37602  39.004   6.352   3.720
73879W        W37603  10.289  35.510   2.695
73880W        W37604  10.754  32.464   3.805
73881W        W37605  43.512  16.099  11.058
73882W        W37606   4.447  24.067   2.694
73883W        W37607   9.379  32.596  12.554
73884W        W37608  37.854  40.408  10.495
73885W        W37609  44.293  39.884   4.239
73886W        W37610  40.986  42.030  11.076
73887W        W37611  38.049  12.231  12.909
73888W        W37612  22.029  18.631  11.498
73889W        W37613  40.969   1.923   2.182
73890W        W37614  10.834   2.319  10.482
73891W        W37615  36.030  21.703   0.795
73892W        W37616   0.911   7.760  11.981
73893W        W37617  29.998  16.568   0.434
73894W        W37618  11.354  21.522  10.483
73895W        W37619  33.973  44.434   0.728
73896W        W37620   9.830  26.074  11.904
73897W        W37621  23.149  12.662  11.102
73898W        W37622  16.627  13.716   1.423
73899W        W37623  13.728   7.300  14.903
73900W        W37624  28.529  43.968  14.417
73901W        W37625  39.413  39.451  12.947
73902W        W37626   4.701  16.084   0.867
73903W        W37627  43.933  40.971  13.888
73904W        W37628   0.380   4.822   2.767
73905W        W37629  27.084  35.421   3.223
73906W        W37630   2.901  20.601   2.799
73907W        W37631  13.778  12.736   3.169
73908W        W37632  29.464  13.737  12.883
73909W        W37633  16.635   0.913   1.718
73910W        W37634   8.691  34.057  10.907
73911W        W37635  13.171   1.336  12.069
73912W        W37636  34.496   9.176   2.393
73913W        W37637  38.365  34.467  11.021
73914W        W37638  28.976  41.840  14.456
73915W        W37639   1.743  24.591  12.966
73916W        W37640  44.941  23.074   3.777
73917W        W37641  33.422   9.764   4.687
73918W        W37642  41.500  15.770   2.342
73919W        W37643   9.194  13.284   3.638
73920W        W37644  10.703  41.791   3.301
73921W        W37645  11.863  27.084   2.299
73922W        W37646  42.367  13.695   4.233
73923W        W37647  16.283  38.473   3.673
73924W        W37648   2.844   0.940   3.709
73925W        W37649  18.114   5.880  11.515
73926W        W37650  22.154  39.864  13.417
73927W        W37651  31.502   5.304  14.997
73928W        W37652  29.945  23.039  11.052
73929W        W37653  43.909  21.612   3.816
73930W        W37654  23.498   8.758   4.760
73931W        W37655  17.745  22.056   4.653
73932W        W37656   3.766  27.963  12.879
73933W        W37657  37.947  19.777   4.344
73934W        W37658   3.354   4.878   3.356
73935W        W37659   4.741   5.826   3.703
73936W        W37660  30.943  32.082   0.323
73937W        W37661  11.353  39.877  12.518
73938W        W37662  37.923  24.195   3.171
73939W        W37663   7.846   4.739  10.467
73940W        W37664   3.270  14.150   3.755
73941W        W37665  17.119  21.617  13.417
73942W        W37666  17.186  30.633  14.433
73943W        W37667  18.069   2.458   0.440
73944W        W37668   8.865  37.929  14.319
73945W        W37669  43.297  15.694  11.913
73946W        W37670  39.962  17.789   2.855
73947W        W37671  34.875  17.738   5.192
73948W        W37672  12.771   2.314  11.550
73949W        W37673  12.645  17.153   2.767
73950W        W37674  13.795  35.413   4.820
73951W        W37675  31.482  11.372   2.803
73952W        W37676  27.465   8.873  10.943
73953W        W37677  34.001  18.166  12.464
73954W        W37678   7.818  14.655  14.446
73955W        W37679  42.995  38.554  10.484
73956W        W37680  30.959  10.297   2.204
73957W        W37681  40.435  34.594   5.708
73958W        W37682   3.831  23.985   4.757
73959W        W37683  36.514  11.632   3.161
73960W        W37684  31.603  43.461   2.374
73961W        W37685  27.585  35.989  12.925
73962W        W37686  44.484  21.182   0.941
73963W        W37687  38.824   3.853  13.818
73964W        W37688  27.635  39.440  11.107
73965W        W37689   1.347  42.841  14.857
73966W        W37690  30.437  40.348  14.443
73967W        W37691  17.636   0.275   1.408
73968W        W37692  14.676  39.527   2.178
73969W        W37693  32.540  27.015  12.055
73970W        W37694  32.624  13.827   5.118
73971W        W37695   9.846  29.670  10.925
73972W        W37696  16.295  42.842  12.379
73973W        W37697  15.824  19.260   1.415
73974W        W37698  32.472  22.239  12.414
73975W        W37699  18.625  36.998   4.628
73976W        W37700   3.822  15.813   4.610
73977W        W37701   1.240  31.133   0.850
73978W        W37702  14.186   5.350   2.355
73979W        W37703   1.778  13.751   3.179
73980W        W37704   1.353  26.191   3.261
73981W        W37705  14.302  44.281   5.128
73982W        W37706  17.752  41.959  10.910
73983W        W37707  12.197  30.645  13.424
73984W        W37708  32.432   2.726   2.802
73985W        W37709  42.915   7.343   2.362
73986W        W37710  17.603  41.537   3.235
73987W        W37711   5.902  27.949   2.231
73988W        W37712  21.742  20.634   4.284
73989W        W37713   1.310  34.589  10.601
73990W        W37714  18.167   9.722   1.335
73991W        W37715  13.653   3.408   4.662
73992W        W37716  39.874   8.862  14.877
73993W        W37717   7.762  27.970  12.859
73994W        W37718  12.643  28.495   0.242
73995W        W37719   9.662  26.457  12.447
73996W        W37720  19.246  23.119   0.405
73997W        W37721  35.088  19.234   0.837
73998W        W37722  26.554   8.337   3.212
73999W        W37723   4.926  18.673   2.216
74000W        W37724  18.596  43.281  11.042
74001W        W37725  10.383  20.141   5.183
74002W        W37726  36.921   8.401  10.520
74003W        W37727  35.395  16.082  13.961
74004W        W37728  16.131  36.533   2.372
74005W        W37729  28.160   4.861  14.962
74006W        W37730  32.080  35.912  11.556
74007W        W37731  23.086  42.477  10.498
74008W        W37732  22.648  14.236   3.677
74009W        W37733   0.304  15.163   3.205
74010W        W37734  42.876  22.108   0.783
74011W        W37735  31.957  40.826  11.518
74012W        W37736  23.177  32.118  11.023
74013W        W37737  30.531  23.500   3.842
74014W        W37738  27.151  28.446  14.324
74015W        W37739  34.887  31.092  12.095
74016W        W37740  32.433  38.877  11.079
74017W        W37741   9.707  33.053  13.450
74018W        W37742   6.226  19.085  14.811
74019W        W37743  11.186  31.552  12.002
74020W        W37744  25.503  15.629   2.368
74021W        W37745  13.293  17.639  14.963
74022W        W37746  37.898   4.904   4.770
74023W        W37747  29.573  26.166  12.380
74024W        W37748  29.503  24.075   0.827
74025W        W37749   4.741  25.655  13.015
74026W        W37750  40.889   2.767   0.353
74027W        W37751  34.544  12.248   2.418
74028W        W37752  29.649   9.203   0.434
74029W        W37753   8.897   1.382   0.730
74030W        W37754  27.065   0.267   4.203
74031W        W37755   3.789   6.255   1.338
74032W        W37756   6.805  43.318  14.505
74033W        W37757   5.814  27.552   0.269
74034W        W37758  34.011  13.683  14.404
74035W        W37759  41.801  27.540   1.706
74036W        W37760  32.090  43.838  14.974
74037W        W37761  42.399  30.097   1.713
74038W        W37762  10.829  43.008  10.563
74039W        W37763  12.850  25.163  11.414
74040W        W37764  13.705  21.574   0.739
74041W        W37765  33.431  25.085  10.462
74042W        W37766  22.245  44.910  11.009
74043W        W37767   0.354  12.736  13.938
74044W        W37768  26.602  23.216   3.331
74045W        W37769  16.779  15.134   4.150
74046W        W37770  25.192   7.356   1.803
74047W        W37771  37.512  34.570  14.485
74048W        W37772   3.944  36.973   3.848
74049W        W37773  15.746  44.892   4.171
74050W        W37774  12.315   0.868   4.286
74051W        W37775  29.139  18.638  10.563
74052W        W37776  15.675  35.462   3.740
74053W        W37777   7.709  18.214  10.618
74054W        W37778  24.518  38.499   2.721
74055W        W37779  44.911  15.665   4.824
74056W        W37780  16.799  35.501   2.186
74057W        W37781  10.375  34.605   3.714
74058W        W37782   8.375   7.868  10.589
74059W        W37783  29.033  30.576  11.577
74060W        W37784   2.448  11.175  11.963
74061W        W37785  39.446  17.573  10.914
74062W        W37786  35.966   3.720  13.845
74063W        W37787  12.322  34.377   1.430
74064W        W37788   3.726  23.095   2.696
74065W        W37789  28.499  31.466   4.301
74066W        W37790   8.844   8.293  11.567
74067W        W37791   2.903   5.247  12.930
74068W        W37792   5.290   6.859   2.878
74069W        W37793  13.251  13.654  11.087
74070W        W37794  43.277  28.072  11.375
74071W        W37795  11.700   1.351   1.709
74072W        W37796  33.979  17.626  11.602
74073W        W37797   3.822  26.586  14.905
74074W        W37798  41.327   1.470   3.329
74075W        W37799   2.332   8.900  10.991
74076W        W37800   7.785  33.475   2.272
74077W        W37801  42.841  37.990  12.066
74078W        W37802  21.576  15.693  11.090
74079W        W37803   4.430  13.766  13.497
74080W        W37804  14.101  22.192   3.817
74081W        W37805  27.601  15.138   2.804
74082W        W37806  18.681  39.326   3.724
74083W        W37807  27.165  28.001   4.322
74084W        W37808  35.586  30.096  10.932
74085W        W37809  43.509  16.221  14.319
74086W        W37810  39.427  13.804  12.523
74087W        W37811  38.859  13.143   1.364
74088W        W37812  21.192  12.337  14.934
74089W        W37813  17.582  41.321   4.319
74090W        W37814  31.469   8.221  10.563
74091W        W37815   6.875   7.368   1.915
74092W        W37816  40.963  30.571  10.443
74093W        W37817  34.081   4.234  12.548
74094W        W37818  28.094  30.068   1.705
74095W        W37819   6.339  12.207   9.659
74096W        W37820  25.171  39.837  12.446
74097W        W37821  38.408  32.398  12.898
74098W        W37822   9.669   8.264  12.491
74099W        W37823  15.811  22.531  14.417
74100W        W37824  31.601  12.654   3.338
74101W        W37825  27.160  31.023  14.812
74102W        W37826  35.461  28.930   2.727
74103W        W37827  25.058   5.235   4.680
74104W        W37828  15.162  44.378   2.702
74105W        W37829  41.469  33.901   4.831
74106W        W37830  17.297  14.326   9.582
74107W        W37831  41.865  34.493   2.328
74108W        W37832  32.143   0.850   0.460
74109W        W37833  15.738  41.792   3.208
74110W        W37834  32.022  42.964   1.348
74111W        W37835  10.803   1.341   1.334
74112W        W37836  11.349  35.958  10.556
74113W        W37837  19.606  18.146  12.423
74114W        W37838  41.391  36.005   4.811
74115W        W37839   6.394  25.095   1.816
74116W        W37840  22.235  20.069   1.240
74117W        W37841  33.892  14.704   2.255
74118W        W37842  12.230  15.617   0.394
74119W        W37843  15.670  11.862   4.818
74120W        W37844  42.029  38.481   2.688
74121W        W37845  10.273  26.059   3.777
74122W        W37846  42.447  19.697  14.023
74123W        W37847  31.915  39.871  14.967
74124W        W37848  29.066  28.591   0.921
74125W        W37849  17.277  12.689   0.911
74126W        W37850  22.706   8.380   1.791
74127W        W37851  15.302  37.450   1.713
74128W        W37852   0.266  18.181  11.937
74129W        W37853  34.509  29.589   4.802
74130W        W37854   9.297  42.425   3.219
74131W        W37855  38.552  28.669   4.117
74132W        W37856  21.571  44.338  11.015
74133W        W37857  19.086  17.068   0.911
74134W        W37858   5.689   6.353   2.268
74135W        W37859  26.477  30.931   3.153
74136W        W37860  43.445  42.999   0.397
74137W        W37861  11.645  28.668  11.591
74138W        W37862  44.950  34.922  14.856
74139W        W37863  18.751  29.577  11.381
74140W        W37864  27.571  21.192   5.238
74141W        W37865   6.730  19.757   3.819
74142W        W37866  31.555  44.983  12.834
74143W        W37867   6.834   4.322   3.315
74144W        W37868  22.683  11.773   3.202
74145W        W37869  16.207  43.381   2.245
74146W        W37870   7.800   9.307   0.739
74147W        W37871  18.759  25.209   0.358
74148W        W37872  29.134  40.317   3.730
74149W        W37873  27.015  38.870  13.533
74150W        W37874   5.834  14.615  13.327
74151W        W37875   4.836  37.522   4.663
74152W        W37876  32.579   8.725  13.849
74153W        W37877  26.664  27.488  13.438
74154W        W37878  38.998  43.931   3.647
74155W        W37879  42.467  19.174   2.309
74156W        W37880  22.705  36.058   3.723
74157W        W37881  19.708  14.281   0.919
74158W        W37882  42.828  19.542   0.735
74159W        W37883  31.072  10.762   3.690
74160W        W37884  23.225  21.568  10.439
74161W        W37885  42.940   5.890  10.413
74162W        W37886  31.124  41.413   2.337
74163W        W37887  34.110  28.009  11.861
74164W        W37888  25.494  24.055   3.732
74165W        W37889  40.420   2.300   4.608
74166W        W37890  35.910  33.963   4.155
74167W        W37891   2.433  38.855   2.705
74168W        W37892  34.876  21.026   0.933
74169W        W37893  18.076  14.244   2.307
74170W        W37894  15.197  27.182   4.818
74171W        W37895   4.218  43.296  12.980
74172W        W37896   4.886  32.885   2.810
74173W        W37897  44.312  22.650   0.866
74174W        W37898  42.343   3.267  14.919
74175W        W37899  32.534  32.520   4.708
74176W        W37900  21.561  29.424   0.405
74177W        W37901  32.134   1.404   0.284
74178W        W37902  15.763  30.588  10.613
74179W        W37903  33.111  43.391   2.303
74180W        W37904  32.483  25.072   3.689
74181W        W37905  41.815  24.608  11.571
74182W        W37906  11.801  16.213   1.261
74183W        W37907  15.609  36.871   4.232
74184W        W37908  37.942   3.248   3.843
74185W        W37909  23.621  32.468  14.311
74186W        W37910   1.811  35.994   0.955
74187W        W37911  25.010  23.617   4.620
74188W        W37912  42.309  39.530  12.052
74189W        W37913  43.376  33.888  11.497
74190W        W37914  12.773   8.395   4.159
74191W        W37915  40.362  23.116  11.953
74192W        W37916   5.915  27.483  11.982
74193W        W37917   7.698   3.349   4.271
74194W        W37918  38.859  41.874   1.869
74195W        W37919   3.254  22.220   2.763
74196W        W37920   1.733  20.626   1.232
74197W        W37921  37.358  38.049   0.436
74198W        W37922  22.034  35.560  11.007
74199W        W37923  26.629  10.380   1.386
74200W        W37924  17.747   5.925   1.366
74201W        W37925   3.289   4.927   4.730
74202W        W37926   5.692  26.037   0.812
74203W        W37927  10.822  31.926   3.842
74204W        W37928  35.084  17.075   2.285
74205W        W37929  44.864  32.107  12.567
74206W        W37930   2.374   8.865  14.991
74207W        W37931  41.385  27.451   3.199
74208W        W37932   6.232  28.590  12.910
74209W        W37933  14.200  30.432  12.888
74210W        W37934  11.678  24.582   4.615
74211W        W37935  24.169  34.442  13.954
74212W        W37936  34.588   2.441  13.459
74213W        W37937  24.506  10.328  10.539
74214W        W37938  14.813   2.862  14.414
74215W        W37939  28.042   3.722   4.630
74216W        W37940  41.835  34.091   3.347
74217W        W37941  33.900  35.431  12.421
74218W        W37942   3.368  17.261  10.547
74219W        W37943  29.602  44.971  13.051
74220W        W37944  28.981  16.734   4.127
74221W        W37945   0.803   7.748   2.679
74222W        W37946   8.860  18.190   3.677
74223W        W37947  11.366  10.672  14.290
74224W        W37948  12.706  11.759  12.494
74225W        W37949   0.421   0.477   0.872
74226W        W37950   5.733  29.972  14.374
74227W        W37951  37.582  24.493   0.312
74228W        W37952  15.676  29.051   2.740
74229W        W37953  13.674   7.835   1.790
74230W        W37954  17.303   5.896   5.744
74231W        W37955   7.340  21.207   4.761
74232W        W37956   8.840  42.339   1.907
74233W        W37957  17.113   5.826   4.137
74234W        W37958   7.301  24.708  13.976
74235W        W37959  23.537  17.801   2.750
74236W        W37960  15.268  36.929  11.593
74237W        W37961  24.011  22.019   4.643
74238W        W37962  25.469  38.023  14.342
74239W        W37963  13.118  15.098  13.385
74240W        W37964   1.905  39.417   3.215
74241W        W37965  13.711  26.151  12.533
74242W        W37966  21.256  18.656   1.836
74243W        W37967   4.281  24.031   4.316
74244W        W37968   5.214  12.660  10.528
74245W        W37969  28.028  26.200   1.399
74246W        W37970  20.213   6.255   3.725
74247W        W37971  10.313   2.346  14.780
74248W        W37972   5.896  35.086  10.419
74249W        W37973   5.268  24.103   4.164
74250W        W37974  20.678  32.122  13.384
74251W        W37975  14.231  24.573  13.994
74252W        W37976  41.459  25.974  10.493
74253W        W37977  18.256  38.900   1.330
74254W        W37978  16.088  36.544   0.389
74255W        W37979   6.755   9.768   0.362
74256W        W37980  13.109  14.188   0.852
74257W        W37981  27.154  13.664   3.865
74258W        W37982   4.307   9.163  10.469
74259W        W37983   2.853  20.730  10.988
74260W        W37984  36.044  24.513  11.864
74261W        W37985   4.438  43.429  14.514
74262W        W37986  13.132  29.049   0.856
74263W        W37987   9.168  19.598  14.325
74264W        W37988  23.162  19.176  11.488
74265W        W37989  41.442   0.938  14.449
74266W        W37990   7.864   7.883   2.380
74267W        W37991  15.699  19.622   3.696
74268W        W37992  16.230  38.907  14.426
74269W        W37993  30.486  10.820  10.913
74270W        W37994   3.366   3.264   0.733
74271W        W37995  32.608  15.105   4.697
74272W        W37996   8.277  11.368   3.849
74273W        W37997  34.119   9.724  12.909
74274W        W37998  36.862  39.830   1.346
74275W        W37999   4.449   3.832   0.770
74276W        W38000  26.172  18.105  14.805
74277W        W38001  20.231   3.809  13.891
74278W        W38002  28.169   2.771  14.328
74279W        W38003  16.813  30.659   4.671
74280W        W38004   5.194  29.941  14.316
74281W        W38005  17.139  13.347  10.427
74282W        W38006  11.177  24.176   2.775
74283W        W38007  11.198  41.020   2.389
74284W        W38008  41.393   2.471   4.609
74285W        W38009  43.365   5.200   2.325
74286W        W38010  28.999   4.222   1.406
74287W        W38011  28.452  41.407  14.762
74288W        W38012  30.116   8.216  10.549
74289W        W38013  20.530  12.722  10.571
74290W        W38014  44.406  43.018   0.907
74291W        W38015  12.359  33.090   4.824
74292W        W38016  31.487  12.166  11.965
74293W        W38017  42.861   0.306   2.292
74294W        W38018  34.050  33.942   4.287
74295W        W38019  31.590  17.776  12.502
74296W        W38020   1.784  44.833   1.857
74297W        W38021  36.871  35.088   4.753
74298W        W38022   6.398  11.209  12.035
74299W        W38023  29.525  25.596   2.900
74300W        W38024   9.184  36.998  12.941
74301W        W38025  38.326  38.909   0.738
74302W        W38026   1.303  27.185  13.942
74303W        W38027  32.578  20.056  11.394
74304W        W38028  40.416  18.691  12.401
74305W        W38029   6.356   0.972   2.801
74306W        W38030  23.724   8.677  11.438
74307W        W38031  44.349  23.041  13.874
74308W        W38032  37.897  41.009  12.839
74309W        W38033   9.394  29.637  10.405
74310W        W38034  44.383  39.028  10.428
74311W        W38035  30.600  12.292   1.764
74312W        W38036   7.210  13.625   0.967
74313W        W38037  19.608  27.055   1.806
74314W        W38038  25.654  19.539  12.870
74315W        W38039  23.591  27.119  14.796
74316W        W38040  10.652  38.496  10.962
74317W        W38041  25.131   6.383   3.780
74318W        W38042  13.661  10.685  12.393
74319W        W38043  19.132  32.439  13.329
74320W        W38044   0.834  30.971  10.589
74321W        W38045  11.134  17.659   3.830
74322W        W38046  21.592  26.542  12.893
74323W        W38047   6.882  20.631  11.896
74324W        W38048   4.424  26.458   5.118
74325W        W38049  42.524  16.172   1.409
74326W        W38050   0.446   9.271  11.067
74327W        W38051  40.520  14.633  13.835
74328W        W38052  41.350  33.436  11.992
74329W        W38053   4.764  34.057   1.795
74330W        W38054  12.751  37.500   1.249
74331W        W38055  29.664  12.793   3.810
74332W        W38056  16.748  36.445   1.697
74333W        W38057  35.505  27.601  11.547
74334W        W38058   7.690  19.577  11.980
74335W        W38059  10.143  15.138  11.898
74336W        W38060  37.907   4.262   0.467
74337W        W38061   0.985  13.307   1.334
74338W        W38062   8.667  33.553  12.898
74339W        W38063  28.153   7.296   3.709
74340W        W38064  26.065  29.105  12.433
74341W        W38065  17.161  30.438   2.699
74342W        W38066  30.088  22.546   1.895
74343W        W38067  37.557   6.188   3.239
74344W        W38068  41.044   2.963   2.792
74345W        W38069  11.249   9.683  11.109
74346W        W38070  41.815  27.191  12.407
74347W        W38071  43.907  18.282  13.850
74348W        W38072  43.383  42.391  13.415
74349W        W38073  42.944  35.086  11.025
74350W        W38074  38.062   3.872   3.148
74351W        W38075   9.729  12.714  11.505
74352W        W38076  26.968  20.603  14.360
74353W        W38077  41.922  33.011   2.202
74354W        W38078  27.156  26.567  10.502
74355W        W38079   8.207  35.992   2.309
74356W        W38080  16.627  31.646  11.586
74357W        W38081   8.336  14.623  13.832
74358W        W38082  40.518  15.097   1.878
74359W        W38083   9.187  40.520  10.999
74360W        W38084   9.735  15.792   4.833
74361W        W38085  35.557  19.220  10.921
74362W        W38086  43.275  26.505  10.485
74363W        W38087  21.620  30.454   4.669
74364W        W38088  10.656  43.509  13.330
74365W        W38089   1.331  23.572   1.314
74366W        W38090   2.272  26.578  14.377
74367W        W38091  14.628  41.301  10.611
74368W        W38092  17.760  26.589  13.494
74369W        W38093  41.987  37.883  10.917
74370W        W38094  34.561  39.810   4.730
74371W        W38095  26.603  34.872   0.739
74372W        W38096  44.427  37.951  12.532
74373W        W38097   2.247  14.135   0.265
74374W        W38098  43.468  17.246   3.353
74375W        W38099  43.272  17.775  14.832
74376W        W38100  13.654   7.858  12.860
74377W        W38101  20.563  36.514   2.842
74378W        W38102   7.706  25.708   1.835
74379W        W38103  41.394  31.044  11.544
74380W        W38104  13.148  11.755  13.902
74381W        W38105  10.206   1.920  12.084
74382W        W38106  21.696  25.975   3.671
74383W        W38107  27.483  37.050  11.966
74384W        W38108  23.175  38.844   1.446
74385W        W38109  11.797   8.793   0.812
74386W        W38110  20.535  31.027  12.893
74387W        W38111  28.958  20.097  13.473
74388W        W38112  12.851  14.157   1.810
74389W        W38113   2.926  35.449  11.019
74390W        W38114  35.466  25.069   2.377
74391W        W38115  13.277   6.805   0.396
74392W        W38116  40.392  40.329  12.566
74393W        W38117  12.711  29.152  14.762
74394W        W38118  15.199  26.953  13.968
74395W        W38119   7.676  31.914  10.092
74396W        W38120  11.850  34.020  14.352
74397W        W38121  17.730  40.394  12.882
74398W        W38122   3.415  14.265  10.969
74399W        W38123  28.539  32.894   1.865
74400W        W38124   0.857  38.071  14.280
74401W        W38125   8.664  43.502   0.808
74402W        W38126  42.328  16.674   4.351
74403W        W38127   1.358  13.201  13.529
74404W        W38128  42.932  13.701  11.943
74405W        W38129  11.133  20.615   2.210
74406W        W38130   9.305   0.288  10.080
74407W        W38131  27.967   5.319  10.437
74408W        W38132  31.551   4.726   2.849
74409W        W38133  22.552  17.789   0.875
74410W        W38134  41.422  32.534  13.012
74411W        W38135  38.041   5.797   2.269
74412W        W38136  26.510  40.988   0.964
74413W        W38137   9.888   0.899  11.400
74414W        W38138  32.468   3.253  11.527
74415W        W38139  30.083  23.137  13.317
74416W        W38140  20.760  38.009   0.452
74417W        W38141  18.715  26.142   4.354
74418W        W38142   0.968  41.908  11.071
74419W        W38143  10.671  28.059   4.798
74420W        W38144   1.946   0.759  14.477
74421W        W38145  22.570  10.189   0.461
74422W        W38146  15.086  17.567  12.418
74423W        W38147  29.972  37.030  14.921
74424W        W38148  40.883  29.018  11.052
74425W        W38149  15.627  42.967   2.241
74426W        W38150   8.294   4.722  13.485
74427W        W38151   7.861   3.268   3.712
74428W        W38152  38.999  42.012  12.946
74429W        W38153  41.525  43.421  12.980
74430W        W38154  16.147   5.754  11.552
74431W        W38155  36.901  39.876   3.346
74432W        W38156  27.187   4.855  11.576
74433W        W38157  12.712  25.149  13.996
74434W        W38158  15.698  17.610  12.910
74435W        W38159  29.929  13.780  12.939
74436W        W38160  40.436  15.712  13.987
74437W        W38161  44.881  25.165  14.932
74438W        W38162  31.116  38.455  12.895
74439W        W38163   1.780   0.292   1.722
74440W        W38164  41.351  27.621  14.366
74441W        W38165  18.252   3.734  12.935
74442W        W38166   5.748  38.383  11.948
74443W        W38167   3.850  16.181  13.344
74444W        W38168  28.524  13.805   1.223
74445W        W38169  26.643  10.718  13.465
74446W        W38170   0.920  18.207   2.744
74447W        W38171  44.310  38.430  11.934
74448W        W38172  27.177  16.807  12.025
74449W        W38173   4.230  44.491  13.390
74450W        W38174  44.826  13.764   3.288
74451W        W38175  42.509  39.831   0.401
74452W        W38176   4.845  28.146   2.738
74453W        W38177  11.746  11.660   4.714
74454W        W38178  40.893  39.998   3.694
74455W        W38179  41.449  20.764  11.613
74456W        W38180  28.661  37.475   1.380
74457W        W38181   2.365  17.765   2.890
74458W        W38182  28.973  39.497  11.889
74459W        W38183  37.575  11.799  13.949
74460W        W38184   7.344  37.539   4.238
74461W        W38185  18.750  27.663  12.369
74462W        W38186   1.328   3.290  11.042
74463W        W38187  11.658  28.183  14.805
74464W        W38188  42.937  30.005  11.906
74465W        W38189  44.423  30.085  10.966
74466W        W38190  13.197  32.888   4.775
74467W        W38191   5.722  25.506  13.329
74468W        W38192  19.276   4.300   3.172
74469W        W38193  13.844   8.348  12.386
74470W        W38194  23.618  38.446   1.775
74471W        W38195  16.797  22.517   2.358
74472W        W38196  26.962  27.481  14.430
74473W        W38197  22.642  25.609  12.076
74474W        W38198   4.353  12.704  14.354
74475W        W38199   8.766   3.882   5.196
74476W        W38200  41.792  31.003   4.812
74477W        W38201  33.062  25.146  14.935
74478W        W38202  20.734   6.247   2.392
74479W        W38203  23.588   8.670   3.230
74480W        W38204  16.738  23.019   4.597
74481W        W38205   3.748   9.816  12.375
74482W        W38206   4.211   6.193   2.268
74483W        W38207  24.184   4.862  12.041
74484W        W38208  19.262  17.694   2.708
74485W        W38209  44.011  35.902   9.955
74486W        W38210  27.559  43.415   3.183
74487W        W38211  36.592  24.078   1.337
74488W        W38212  11.706  19.164   2.358
74489W        W38213  39.859  32.406  11.908
74490W        W38214  29.571  10.858   3.804
74491W        W38215  41.029   8.369   4.343
74492W        W38216  26.091  34.573  12.376
74493W        W38217  18.623   1.852  13.848
74494W        W38218  15.783  17.757   2.700
74495W        W38219  21.545  33.467  10.552
74496W        W38220  35.097  17.184   3.855
74497W        W38221  21.147  36.074   0.951
74498W        W38222  29.150  36.441  13.411
74499W        W38223   6.237   6.919   3.785
74500W        W38224  24.154  21.132  10.918
74501W        W38225  19.705  40.509  10.994
74502W        W38226   2.358  37.989  14.417
74503W        W38227   3.828  15.710  11.040
74504W        W38228  32.526   5.848  13.388
74505W        W38229  24.217  35.006  14.805
74506W        W38230  34.067  18.289   1.827
74507W        W38231  32.902  42.025  11.050
74508W        W38232  27.124  17.605  11.975
74509W        W38233  31.096  32.971  11.553
74510W        W38234  38.929  28.677  11.394
74511W        W38235  23.561  41.828   2.810
74512W        W38236  36.482  35.428  14.514
74513W        W38237  40.529  33.617  10.463
74514W        W38238   5.435  43.873  12.844
74515W        W38239  38.361  29.112  13.350
74516W        W38240  17.238  41.996   1.216
74517W        W38241  35.950  41.454   4.126
74518W        W38242  17.263   3.846   1.786
74519W        W38243   0.424   3.369  13.032
74520W        W38244  25.016  22.705  10.480
74521W        W38245  13.139  18.195  10.966
74522W        W38246  25.618  42.467  12.954
74523W        W38247  18.064  17.138  10.581
74524W        W38248  34.444  40.825  10.621
74525W        W38249  27.070  18.083  13.529
74526W        W38250  28.078   5.213   2.745
74527W        W38251   9.681  23.177  14.927
74528W        W38252   4.849  15.745  11.398
74529W        W38253  17.216  44.442  11.977
74530W        W38254   4.863   3.228   4.179
74531W        W38255  22.605  18.075  14.395
74532W        W38256  44.838  42.847   1.312
74533W        W38257  43.915  40.051  14.332
74534W        W38258  15.822   7.771  11.067
74535W        W38259   0.493  22.608   4.619
74536W        W38260  23.191  16.581   3.825
74537W        W38261  13.332  34.405   4.291
74538W        W38262  31.013  24.704  12.047
74539W        W38263  17.172  42.474   0.850
74540W        W38264  20.640   3.801   1.437
74541W        W38265  34.080   8.656   1.288
74542W        W38266  19.101  19.227  14.451
74543W        W38267  20.170   3.286  14.469
74544W        W38268  37.361  20.606  13.935
74545W        W38269  18.777   1.283   0.858
74546W        W38270  37.555  43.873   4.716
74547W        W38271  29.528  15.718  12.865
74548W        W38272  22.593   8.675  10.030
74549W        W38273  31.448   0.895  10.406
74550W        W38274  17.235   9.699   0.737
74551W        W38275  39.948  21.164   0.882
74552W        W38276  19.116  30.997   0.437
74553W        W38277   5.265  31.599   1.809
74554W        W38278  31.135  16.623   2.288
74555W        W38279  27.687  37.878   1.257
74556W        W38280  26.958  42.994   1.773
74557W        W38281   1.434  24.525   1.409
74558W        W38282  31.053  38.835  13.511
74559W        W38283  27.973   5.210   4.697
74560W        W38284  41.477  13.641  10.631
74561W        W38285  22.012   6.813  11.920
74562W        W38286   4.403  38.840   1.856
74563W        W38287  41.412  10.324   3.826
74564W        W38288  40.947  26.038  13.964
74565W        W38289  10.837  22.728  11.050
74566W        W38290  31.070  17.678   4.801
74567W        W38291  27.473   6.905   4.210
74568W        W38292  17.761  35.384  10.612
74569W        W38293  26.699  33.122  11.387
74570W        W38294  32.633   5.365   3.188
74571W        W38295  22.023  20.137   4.137
74572W        W38296  26.623   7.361   4.698
74573W        W38297  16.711  14.780   1.813
74574W        W38298  34.390  14.802  12.549
74575W        W38299   4.914  42.853   3.651
74576W        W38300  10.290  28.573  14.277
74577W        W38301  35.415  20.116  13.338
74578W        W38302   7.280  26.469   4.153
74579W        W38303  29.090  26.470   0.870
74580W        W38304  37.448  18.789   0.838
74581W        W38305  21.228  14.827  12.857
74582W        W38306   2.946   2.358   4.160
74583W        W38307  42.432  36.590   0.312
74584W        W38308  43.930   1.977  13.431
74585W        W38309  42.451  36.961  12.474
74586W        W38310  15.182  39.477  14.385
74587W        W38311  38.401  43.364  13.883
74588W        W38312   8.318  44.454  10.933
74589W        W38313  24.982   4.732   1.898
74590W        W38314  41.873  44.871  10.488
74591W        W38315  15.610  33.616   1.918
74592W        W38316  27.958  12.708  14.374
74593W        W38317  41.302   4.217  11.038
74594W        W38318   9.220   6.897   1.800
74595W        W38319  28.123  38.995  13.443
74596W        W38320  16.246  18.607  13.326
74597W        W38321  36.072   4.716   1.811
74598W        W38322  39.533  28.641  14.503
74599W        W38323  42.471   5.336   1.877
74600W        W38324  40.998  28.564   1.435
74601W        W38325  25.616  33.004  14.472
74602W        W38326  27.573  21.555  12.079
74603W        W38327   9.383   8.354  12.355
74604W        W38328  35.873  23.089   3.731
74605W        W38329  32.030   7.781  12.854
74606W        W38330  20.735  24.023  12.946
74607W        W38331   6.392  36.437  11.856
74608W        W38332  18.224  10.276   0.399
74609W        W38333  25.066  32.432   0.435
74610W        W38334  18.757  30.127   2.367
74611W        W38335  23.735  28.955  11.053
74612W        W38336   2.893  18.103   1.882
74613W        W38337  14.177  38.936   2.396
74614W        W38338  27.513  36.575   2.678
74615W        W38339  28.099  33.520  14.001
74616W        W38340  18.574  40.964   4.610
74617W        W38341   1.392   3.828  11.084
74618W        W38342   9.317   0.358   2.759
74619W        W38343   1.415  11.295   1.772
74620W        W38344  32.979  32.007   2.257
74621W        W38345  36.077  31.600   2.198
74622W        W38346   2.338  31.476  12.835
74623W        W38347  13.264   0.422   1.422
74624W        W38348  12.208   0.486  11.946
74625W        W38349  37.047  41.029  14.275
74626W        W38350  12.147  15.818   2.210
74627W        W38351  31.531  12.799  14.804
74628W        W38352  31.940  33.936  11.426
74629W        W38353  30.566   9.845  10.532
74630W        W38354   5.881  28.497   0.414
74631W        W38355  35.425  19.742  11.998
74632W        W38356  13.279  42.445  11.399
74633W        W38357  24.094  12.276  11.021
74634W        W38358  31.930  43.414   1.800
74635W        W38359   1.930  30.648   2.184
74636W        W38360  33.463  28.177   1.778
74637W        W38361  19.196  10.299  11.987
74638W        W38362  42.480  37.915   1.748
74639W        W38363  20.093   1.803  12.869
74640W        W38364  25.063   9.277  13.324
74641W        W38365  13.184   6.896   4.771
74642W        W38366  38.458  22.120   1.342
74643W        W38367  44.800  17.782  13.393
74644W        W38368  18.752  27.095   0.478
74645W        W38369   4.442  35.058   0.321
74646W        W38370  14.095   3.745  12.492
74647W        W38371  41.335  21.219  10.980
74648W        W38372  25.637  42.963  10.895
74649W        W38373   1.750  22.540  10.535
74650W        W38374  34.584  32.040  14.395
74651W        W38375   5.857  23.209   2.334
74652W        W38376   8.677   3.799   3.677
74653W        W38377   6.919  34.013   0.765
74654W        W38378  19.638  16.304  12.432
74655W        W38379  17.161  12.178  11.949
74656W        W38380  25.100   4.928   1.274
74657W        W38381  25.535   3.741   0.287
74658W        W38382  15.226  44.757   4.188
74659W        W38383  35.559  24.134  14.911
74660W        W38384  36.389  16.227   0.936
74661W        W38385  22.129  29.471   4.601
74662W        W38386  16.571  13.634   2.766
74663W        W38387   5.770  11.247  14.326
74664W        W38388  28.635   2.804   0.301
74665W        W38389  14.724   7.225  10.503
74666W        W38390  22.021  12.289   1.837
74667W        W38391  41.862   3.399   0.740
74668W        W38392  24.125   3.315  10.925
74669W        W38393  41.458  38.862  11.396
74670W        W38394  43.392  35.455  10.572
74671W        W38395  21.213  28.607   2.412
74672W        W38396  29.973  16.776  11.464
74673W        W38397  15.242   0.826  13.448
74674W        W38398  17.235  42.984  11.421
74675W        W38399  37.947  21.099  11.092
74676W        W38400  28.949  42.288   3.203
74677W        W38401  41.834   5.341   2.194
74678W        W38402  41.393  37.500  10.103
74679W        W38403  25.622  29.563   0.875
74680W        W38404  10.798  42.920  13.927
74681W        W38405  22.707  31.919   1.795
74682W        W38406  41.815  39.539  12.037
74683W        W38407  41.492   0.923   1.276
74684W        W38408   3.375  16.238  13.434
74685W        W38409   4.923  14.216   4.606
74686W        W38410  40.402  23.192   0.368
74687W        W38411  36.495  21.512   1.703
74688W        W38412  41.531  38.555   2.369
74689W        W38413  27.949  31.039  12.049
74690W        W38414  16.191  39.917   4.184
74691W        W38415  41.830   9.681   2.233
74692W        W38416  21.112  36.591  14.316
74693W        W38417  44.273  10.188  11.429
74694W        W38418  19.701  16.607   9.990
74695W        W38419  20.227  11.807  10.997
74696W        W38420  23.610   3.821  14.893
74697W        W38421   5.914   8.159   3.182
74698W        W38422  23.183   2.899   2.236
74699W        W38423  28.678  41.416   4.267
74700W        W38424  30.608  41.517   1.818
74701W        W38425  31.469  31.918  10.456
74702W        W38426  24.987  10.373  11.927
74703W        W38427  38.893  17.625   3.228
74704W        W38428  13.263  34.495   2.820
74705W        W38429  37.999   2.760  13.473
74706W        W38430  26.998  13.138  11.984
74707W        W38431  28.474  34.508   1.845
74708W        W38432  22.655  33.897   0.766
74709W        W38433  41.032  14.242  10.537
74710W        W38434   8.739  38.853   0.844
74711W        W38435  41.928  41.896  13.977
74712W        W38436  10.161  38.839   4.131
74713W        W38437  32.001  22.009   1.847
74714W        W38438  29.143  21.611   2.696
74715W        W38439  40.960  44.463  13.342
74716W        W38440  32.935  19.611  13.540
74717W        W38441  22.640  18.239  11.018
74718W        W38442  26.017  19.710  11.574
74719W        W38443  38.025  28.610   4.176
74720W        W38444  36.947  24.169  11.085
74721W        W38445  33.123   6.862   4.619
74722W        W38446  40.962  42.873  10.513
74723W        W38447  44.006  16.799  14.508
74724W        W38448  43.819  15.237  12.015
74725W        W38449  38.543  14.272   4.139
74726W        W38450   1.257  10.162  10.892
74727W        W38451  26.535   5.264   1.850
74728W        W38452  23.542  13.787  11.484
74729W        W38453  18.787  29.479   4.253
74730W        W38454  33.562  35.905   0.742
74731W        W38455  43.789  25.195   1.307
74732W        W38456  26.580  27.083   1.697
74733W        W38457  21.198   2.435  14.346
74734W        W38458  22.995   9.660  12.572
74735W        W38459  26.496  30.092  12.006
74736W        W38460  11.293   2.274  11.979
74737W        W38461  39.534  34.962   3.243
74738W        W38462  17.213  28.476   2.365
74739W        W38463   4.373  40.509  12.403
74740W        W38464  32.087  34.440   2.760
74741W        W38465  34.117  10.210  12.510
74742W        W38466  20.186  37.945  13.809
74743W        W38467  19.260  16.796   2.375
74744W        W38468  36.927  32.922   1.342
74745W        W38469  26.548  28.157  14.956
74746W        W38470  44.309  28.170   4.258
74747W        W38471   5.870  35.488   4.691
74748W        W38472  44.346  23.200  14.923
74749W        W38473  20.751   9.263  11.424
74750W        W38474  23.232  29.492  11.002
74751W        W38475  13.172   2.310  10.451
74752W        W38476  32.108   5.838   2.732
74753W        W38477  38.560  29.953   3.289
74754W        W38478  44.304  44.776   3.766
74755W        W38479  19.118  44.866  11.042
74756W        W38480   6.330   5.813  11.997
74757W        W38481   9.238  27.125   3.867
74758W        W38482  25.113  18.266   2.839
74759W        W38483  23.066   8.362  13.887
74760W        W38484   7.788   2.869  11.383
74761W        W38485  10.144  32.004   5.198
74762W        W38486  27.122  42.891  13.813
74763W        W38487  43.854  29.027   2.340
74764W        W38488   3.312  12.281   3.203
74765W        W38489  23.557  33.895   1.282
74766W        W38490  30.585  13.330  10.909
74767W        W38491  10.318  23.048   4.255
74768W        W38492  19.627  34.996   2.789
74769W        W38493   9.859  27.031  13.331
74770W        W38494   2.966  35.547   0.959
74771W        W38495   7.906  19.635   0.912
74772W        W38496  18.197  36.489  13.539
74773W        W38497  33.054   5.292  14.946
74774W        W38498  43.846  17.617   0.803
74775W        W38499  30.927  28.986  13.439
74776W        W38500  14.825  30.628   4.813
74777W        W38501  30.553   7.791  13.394
74778W        W38502  44.901  40.525   9.951
74779W        W38503   6.916   0.411   1.375
74780W        W38504  19.172  24.528  13.014
74781W        W38505  10.176   7.687   3.723
74782W        W38506   4.776  19.544  11.090
74783W        W38507  38.837  40.533  14.797
74784W        W38508  34.905  34.920  12.370
74785W        W38509   7.874  28.677  12.909
74786W        W38510  36.932  23.237  12.934
74787W        W38511  11.780  10.868  11.429
74788W        W38512  19.636  27.155   3.251
74789W        W38513  25.511  33.604   1.217
74790W        W38514   7.844  41.899  14.317
74791W        W38515  26.175  10.738   1.397
74792W        W38516  32.041   7.771   4.147
74793W        W38517   6.852  11.335   0.764
74794W        W38518  28.931  34.002   2.779
74795W        W38519  17.238  27.949   1.786
74796W        W38520   8.689  15.162  10.978
74797W        W38521  14.728  13.113   0.421
74798W        W38522  37.528  17.167   1.292
74799W        W38523   7.742  19.727   2.840
74800W        W38524  34.120   8.218  10.458
74801W        W38525  39.443  33.105   0.404
74802W        W38526   7.312  21.742  13.802
74803W        W38527  41.402   2.915   4.709
74804W        W38528   9.835  21.541  12.489
74805W        W38529  20.130  11.817  13.365
74806W        W38530  44.471   0.988   5.181
74807W        W38531  39.926  16.085  10.926
74808W        W38532  17.774  23.625   2.325
74809W        W38533  39.492  37.919   1.304
74810W        W38534  10.186  44.754   0.871
74811W        W38535  14.736  37.473   0.878
74812W        W38536  11.832   3.787   3.257
74813W        W38537   3.391  27.638   2.342
74814W        W38538  13.217   2.463  12.431
74815W        W38539  12.359  12.691   2.353
74816W        W38540  29.474  29.938   1.261
74817W        W38541  14.264  35.377   3.649
74818W        W38542   7.189  26.526   0.776
74819W        W38543  26.698  13.824  12.415
74820W        W38544  29.624  25.690  11.391
74821W        W38545  25.075  21.220  12.918
74822W        W38546  42.937  38.836   0.813
74823W        W38547  37.403  15.765  11.005
74824W        W38548   7.337  21.548   1.317
74825W        W38549  42.011  33.442  14.277
74826W        W38550   5.345  24.163  14.326
74827W        W38551  15.226   8.885   0.811
74828W        W38552  13.127  40.050   2.246
74829W        W38553  11.278  15.590   1.437
74830W        W38554  29.073   8.865   0.415
74831W        W38555   4.752  15.281   2.878
74832W        W38556  18.127  18.089   3.658
74833W        W38557  21.073  27.005   1.370
74834W        W38558  35.053  11.350   0.267
74835W        W38559  42.453   2.253   2.183
74836W        W38560   5.693   6.847  10.449
74837W        W38561   5.201   5.732  14.345
74838W        W38562  38.872  12.262   0.866
74839W        W38563   5.860  13.321   2.220
74840W        W38564  17.209  40.940  11.103
74841W        W38565  24.712  35.863  12.893
74842W        W38566  33.481  41.454   5.174
74843W        W38567  26.148  35.592   0.375
74844W        W38568  22.567  31.915  14.790
74845W        W38569   0.940  36.546   1.220
74846W        W38570   8.680  15.581   3.200
74847W        W38571  21.722  36.446   3.230
74848W        W38572  15.642  10.357  12.953
74849W        W38573  25.084  11.707  12.428
74850W        W38574  32.113  32.079  13.798
74851W        W38575  35.921  36.897  14.437
74852W        W38576  38.435  22.739  11.412
74853W        W38577  28.562  26.062  14.385
74854W        W38578  14.252  42.995   5.315
74855W        W38579  36.527  44.793  12.932
74856W        W38580   8.706  14.177   3.804
74857W        W38581  41.808  14.337   1.241
74858W        W38582  11.776  12.620  10.101
74859W        W38583  23.547   7.807  11.058
74860W        W38584  30.144  18.267   1.423
74861W        W38585  34.952   8.402  12.972
74862W        W38586  41.315  37.982   2.194
74863W        W38587  16.079  20.634  12.049
74864W        W38588  41.357  26.652  10.908
74865W        W38589   9.686  11.670  11.475
74866W        W38590   6.847  13.617   3.336
74867W        W38591  19.560  13.290   4.633
74868W        W38592  10.320   8.203   1.445
74869W        W38593  39.496  40.312  11.929
74870W        W38594   5.320  33.928  12.504
74871W        W38595  21.086  23.134  11.892
74872W        W38596   5.206  20.579   0.934
74873W        W38597  17.081  22.624  12.567
74874W        W38598  43.873  26.694  12.964
74875W        W38599  32.954  25.015   3.837
74876W        W38600  38.820  10.140   4.692
74877W        W38601  20.109  39.892  10.073
74878W        W38602  10.820  34.414  10.465
74879W        W38603   5.402  28.957  12.513
74880W        W38604  39.838  38.558   1.234
74881W        W38605   7.227  10.725  14.373
74882W        W38606  24.649  34.099  12.037
74883W        W38607  20.167  22.210  10.549
74884W        W38608  12.341  39.001   1.752
74885W        W38609  23.567  11.364   2.803
74886W        W38610  20.160  35.489  11.905
74887W        W38611  22.560  43.772  10.937
74888W        W38612  43.504   5.405   2.751
74889W        W38613  21.673  43.883  13.965
74890W        W38614  41.866  11.866  11.923
74891W        W38615   0.779  20.221   2.769
74892W        W38616  29.939   1.334   4.113
74893W        W38617  31.922  25.569   3.202
74894W        W38618  15.734  38.969  13.846
74895W        W38619  11.222  29.479   2.227
74896W        W38620  38.038   8.216  14.904
74897W        W38621  19.558  35.414  12.395
74898W        W38622  13.225  15.707   3.674
74899W        W38623  20.601  42.775   0.387
74900W        W38624  30.996   8.657  12.379
74901W        W38625   9.724  11.868  11.988
74902W        W38626   0.419   8.264   2.699
74903W        W38627  18.070  14.279  14.770
74904W        W38628  15.156  24.229  13.928
74905W        W38629  10.175  12.827  14.986
74906W        W38630  25.124  18.280  12.966
74907W        W38631   6.693  40.814  14.759
74908W        W38632  10.695  20.070  12.081
74909W        W38633  33.577   5.315  13.015
74910W        W38634  40.518  22.202  11.098
74911W        W38635   7.777   0.781  13.809
74912W        W38636  39.849  28.934   3.207
74913W        W38637   2.796  33.406   3.271
74914W        W38638   0.429   5.880  11.927
74915W        W38639  34.580  27.000   4.234
74916W        W38640   9.727  40.429  13.959
74917W        W38641  34.612  20.542   3.755
74918W        W38642  25.520   9.738  14.841
74919W        W38643   7.796  15.175   3.718
74920W        W38644  31.044  24.105  11.062
74921W        W38645  26.590  13.835   1.756
74922W        W38646  35.975  27.941   5.201
74923W        W38647   1.818   2.339  13.319
74924W        W38648  29.951   1.481  11.926
74925W        W38649  30.633  31.973   2.386
74926W        W38650   8.317  13.158  12.040
74927W        W38651   1.337  20.171  12.052
74928W        W38652  34.029  12.723   5.627
74929W        W38653  11.862  21.105  13.378
74930W        W38654   5.227  13.747  14.428
74931W        W38655  16.106  19.583   0.273
74932W        W38656  32.083  42.785  12.354
74933W        W38657  28.156  19.535   0.415
74934W        W38658  42.809  43.835  14.965
74935W        W38659   5.366  12.811  11.933
74936W        W38660  10.722  40.503  13.840
74937W        W38661  18.105  11.857  11.900
74938W        W38662  19.587  21.538   0.265
74939W        W38663  40.962  26.956  12.367
74940W        W38664   0.419   1.835   4.786
74941W        W38665  15.635  36.065   1.736
74942W        W38666   6.891  10.321   2.346
74943W        W38667  22.509  36.548   4.344
74944W        W38668  20.055   0.487   3.262
74945W        W38669   9.188  13.186   4.782
74946W        W38670   5.264  22.080   3.235
74947W        W38671  35.878  16.279   2.367
74948W        W38672  13.313  44.287   4.638
74949W        W38673  33.126   4.736   0.793
74950W        W38674  22.666  14.100  10.994
74951W        W38675  18.786   0.451  14.849
74952W        W38676  13.835  11.731  12.467
74953W        W38677  42.899  18.236  12.878
74954W        W38678  10.669  22.621  12.464
74955W        W38679  29.153  44.921   2.394
74956W        W38680   2.360   5.244   0.382
74957W        W38681  43.892  16.646   1.443
74958W        W38682   1.768  17.570  13.911
74959W        W38683   4.798  44.855  12.498
74960W        W38684  38.936   5.771  14.871
74961W        W38685  17.754  40.875   1.232
74962W        W38686  35.601   2.449   0.938
74963W        W38687  37.014  25.706   1.781
74964W        W38688   2.456  35.888  12.375
74965W        W38689  37.005  21.737   3.338
74966W        W38690  14.728  10.847  14.413
74967W        W38691  44.394  44.339  12.847
74968W        W38692  31.574  24.658   4.713
74969W        W38693  32.619  32.074  10.533
74970W        W38694   9.308  11.675   2.874
74971W        W38695  41.423  21.071  11.964
74972W        W38696  12.749  20.677  14.849
74973W        W38697  10.642  19.577  14.964
74974W        W38698  41.974  16.727  14.321
74975W        W38699   5.209  19.643   1.210
74976W        W38700  30.055  40.866   3.668
74977W        W38701  42.966   9.762  13.389
74978W        W38702  43.838  43.931  10.894
74979W        W38703   3.442  23.584   2.255
74980W        W38704  30.073  41.872  13.965
74981W        W38705  19.146  41.023  14.306
74982W        W38706   9.819   0.882  14.762
74983W        W38707  42.028   9.294  13.444
74984W        W38708  33.112  42.485  11.856
74985W        W38709  10.758  10.803   5.129
74986W        W38710  40.908   2.354   4.234
74987W        W38711  36.404  14.286   5.200
74988W        W38712   0.367   3.333  10.621
74989W        W38713  20.250  22.514  11.128
74990W        W38714  12.361  21.216   0.474
74991W        W38715   3.712   9.194  13.958
74992W        W38716  13.114  44.884  12.048
74993W        W38717  41.345  37.893   0.411
74994W        W38718   6.409  35.603   3.852
74995W        W38719  26.485  20.060  13.493
74996W        W38720  38.958  15.615  14.514
74997W        W38721  37.012  16.657   3.836
74998W        W38722  10.207  11.136   1.291
74999W        W38723  38.915   3.391   0.868
75000W        W38724  17.182   2.441  10.927
75001W        W38725  24.480  31.943  14.959
75002W        W38726  11.832  19.217   3.705
75003W        W38727  39.531  10.850  14.298
75004W        W38728  35.092  25.602  10.539
75005W        W38729  16.133  17.135   3.211
75006W        W38730   5.738  37.870  14.944
75007W        W38731  30.559   8.380  11.398
75008W        W38732  14.152  44.349  11.435
75009W        W38733   1.317  12.279   0.851
75010W        W38734  21.249  24.159  14.889
75011W        W38735  12.727  44.835   0.934
75012W        W38736  27.965  17.085  13.548
75013W        W38737  37.410  38.975   4.794
75014W        W38738  28.505  14.789  14.505
75015W        W38739  18.734  44.366   4.263
75016W        W38740  36.081   8.843  12.498
75017W        W38741  24.499  11.702   2.817
75018W        W38742  27.460   1.394  14.369
75019W        W38743  44.768  26.026  13.429
75020W        W38744   0.979  25.180   4.646
75021W        W38745  31.924  15.295  12.452
75022W        W38746  31.579  40.863   3.323
75023W        W38747   8.404  28.974   2.864
75024W        W38748  24.531  33.111  13.810
75025W        W38749  32.404   5.430  10.621
75026W        W38750   4.932  31.946  12.898
75027W        W38751  44.482  43.349   2.805
75028W        W38752  44.378  18.236   2.213
75029W        W38753  35.441  30.148   2.187
75030W        W38754   5.841  26.476   5.111
75031W        W38755  14.254  25.518  12.912
75032W        W38756   2.244   8.683   3.226
75033W        W38757  23.577  33.612   4.136
75034W        W38758  34.055  42.474   3.755
75035W        W38759   2.869  15.588  14.950
75036W        W38760  17.591  31.517   0.856
75037W        W38761  16.283   5.432   3.342
75038W        W38762  15.807  31.582  11.552
75039W        W38763  22.093  28.586   0.903
75040W        W38764   8.257  40.313  10.559
75041W        W38765  44.932  16.211  13.941
75042W        W38766  44.966  24.551   1.428
75043W        W38767  32.076  27.984   3.766
75044W        W38768  36.924  15.266   4.810
75045W        W38769  23.134   4.854  10.972
75046W        W38770  17.659  12.202  14.507
75047W        W38771  10.201  12.698   1.339
75048W        W38772  41.317  40.391   0.938
75049W        W38773   3.814   5.402   0.484
75050W        W38774  18.683  21.066   4.683
75051W        W38775  28.957  10.168  13.531
75052W        W38776  14.594   4.864   3.161
75053W        W38777  22.197   3.932   3.287
75054W        W38778  31.519  37.482  11.397
75055W        W38779  23.518  23.072   2.206
75056W        W38780   9.654  18.610  12.366
75057W        W38781  39.460   8.676   2.897
75058W        W38782  28.112   7.738  10.580
75059W        W38783  39.042  35.980  12.888
75060W        W38784   6.238  18.742   0.761
75061W        W38785  34.461   7.390   1.316
75062W        W38786  10.234  36.985   0.251
75063W        W38787  33.449  25.130   1.283
75064W        W38788  10.650  12.197  12.548
75065W        W38789  11.242  39.977  14.862
75066W        W38790  10.782  29.015   4.267
75067W        W38791  10.326   7.284   4.152
75068W        W38792   4.210  40.986   2.903
75069W        W38793  18.062  32.442  11.445
75070W        W38794  24.180  33.463  14.898
75071W        W38795  42.397  14.132   1.724
75072W        W38796  30.564  35.547   2.716
75073W        W38797  37.035   4.933   3.698
75074W        W38798  23.516   7.194   4.143
75075W        W38799  31.645   6.703   1.833
75076W        W38800  16.102  33.946  13.317
75077W        W38801   7.895  40.424   2.197
75078W        W38802  40.539  31.448  11.530
75079W        W38803   1.851   6.357   2.272
75080W        W38804  31.927  40.438   0.782
75081W        W38805  33.380  26.670  13.993
75082W        W38806  11.143  41.878  14.437
75083W        W38807  30.948  24.492   4.661
75084W        W38808   5.766  12.651   2.802
75085W        W38809  18.610   1.976   0.835
75086W        W38810  20.263  35.551  14.503
75087W        W38811  21.222  33.985   0.449
75088W        W38812  12.315  28.645  14.464
75089W        W38813  16.716   2.828   1.357
75090W        W38814  18.557   8.335  13.929
75091W        W38815   6.894  38.981   0.812
75092W        W38816  22.130  27.533  11.542
75093W        W38817  17.724  30.490  13.856
75094W        W38818  30.607  44.501   3.716
75095W        W38819   6.247   9.368   0.395
75096W        W38820  13.151  35.992   3.838
75097W        W38821  21.092   4.359  13.892
75098W        W38822  32.963  15.595   4.800
75099W        W38823  15.669  20.557  14.808
75100W        W38824  33.571   8.194   3.780
75101W        W38825  30.909   7.246   4.236
75102W        W38826   9.329  34.559   1.769
75103W        W38827   9.181  43.916   4.155
75104W        W38828   3.296  24.698   4.782
75105W        W38829  20.546   0.267   2.382
75106W        W38830  17.304  35.567   2.227
75107W        W38831  21.697  40.992  10.009
75108W        W38832   6.240  14.229   2.857
75109W        W38833  44.450   4.901   9.950
75110W        W38834  42.830  24.006  14.788
75111W        W38835  29.551  41.300  14.514
75112W        W38836   1.237  18.115   1.376
75113W        W38837  23.223   6.720  10.900
75114W        W38838  21.111  34.978  13.540
75115W        W38839   9.368  25.622  11.873
75116W        W38840  22.627  10.770  13.854
75117W        W38841   0.404   5.227  10.931
75118W        W38842  24.700  16.283  10.414
75119W        W38843  27.052  19.083  11.437
75120W        W38844  33.121  26.700  13.917
75121W        W38845  39.537  14.327   3.280
75122W        W38846  10.275  35.015   2.865
75123W        W38847   1.297  41.950   4.750
75124W        W38848  15.320   1.316   3.630
75125W        W38849   3.845  33.464  12.494
75126W        W38850  36.097  15.627   5.268
75127W        W38851  24.013  33.925   3.695
75128W        W38852  23.107  21.702  14.358
75129W        W38853   2.442   5.401  12.548
75130W        W38854   6.406   6.190  12.997
75131W        W38855  21.073  23.684   1.716
75132W        W38856  15.805  11.844  11.020
75133W        W38857  44.877  44.389   1.441
75134W        W38858  24.071   3.262  10.410
75135W        W38859  29.038  31.147  11.530
75136W        W38860   1.948  11.177   4.675
75137W        W38861  11.771  38.066   3.250
75138W        W38862  13.312   5.888  14.352
75139W        W38863  29.436  18.275  10.447
75140W        W38864  38.974  13.804   1.298
75141W        W38865  35.912  10.801   4.119
75142W        W38866  35.097  39.546  13.312
75143W        W38867  36.559  28.946   1.315
75144W        W38868  25.587  13.644   4.233
75145W        W38869  38.850   9.828  11.923
75146W        W38870  33.395  10.281   5.247
75147W        W38871  11.706   4.837  10.070
75148W        W38872   1.839  18.771  12.823
75149W        W38873  16.192  14.729  13.965
75150W        W38874  37.525  24.520   1.422
75151W        W38875  38.522  10.703   4.242
75152W        W38876  40.451  31.900   0.264
75153W        W38877  40.948   1.963  12.499
75154W        W38878  15.179  25.985  13.815
75155W        W38879   8.806  15.618  10.485
75156W        W38880  43.340  19.117  11.060
75157W        W38881  12.341  16.186   2.810
75158W        W38882   4.433   9.781   1.391
75159W        W38883   9.316  44.395  10.010
75160W        W38884  43.826  20.111  12.373
75161W        W38885  38.002  20.709   0.922
75162W        W38886  39.535  40.870   5.230
75163W        W38887  25.204  26.145   4.634
75164W        W38888  10.227  17.708   2.212
75165W        W38889  20.127  10.190  11.417
75166W        W38890  19.059  20.110   4.296
75167W        W38891   8.246  40.986  10.897
75168W        W38892   4.862  36.522  10.624
75169W        W38893   2.295   5.727   4.721
75170W        W38894  31.613  29.097   1.367
75171W        W38895  23.154   6.811  10.531
75172W        W38896  40.827  21.263  11.994
75173W        W38897   7.784   2.841  12.493
75174W        W38898  17.166  20.256  13.916
75175W        W38899  35.373  22.742   3.227
75176W        W38900  23.241  26.030   4.715
75177W        W38901  44.269  29.016   4.668
75178W        W38902  41.883  26.525   0.911
75179W        W38903  28.501  44.294   2.829
75180W        W38904  25.564  11.702   2.321
75181W        W38905  27.127  26.144   1.447
75182W        W38906   8.789   3.382  13.822
75183W        W38907  24.557  37.355   9.988
75184W        W38908   6.237  26.608   0.813
75185W        W38909  40.054  13.300  12.437
75186W        W38910  10.253  41.952  13.853
75187W        W38911  37.077  31.102   0.825
75188W        W38912  10.685  21.086  10.088
75189W        W38913  20.105  18.724  14.473
75190W        W38914  29.424  44.287   3.227
75191W        W38915  18.657  41.013  14.465
75192W        W38916  25.699  40.830  11.099
75193W        W38917   9.786  32.397  10.958
75194W        W38918  17.689  35.474   1.791
75195W        W38919   6.224  13.333  11.989
75196W        W38920   7.316  31.639   4.823
75197W        W38921   1.948  32.634   0.402
75198W        W38922  36.067  32.554  14.386
75199W        W38923  18.573  38.467   3.266
75200W        W38924  25.705  23.013  13.438
75201W        W38925  33.990  44.786  12.864
75202W        W38926  26.526  34.542  14.456
75203W        W38927  43.400  38.001   1.810
75204W        W38928  21.588  25.150  11.468
75205W        W38929  10.373  44.480   0.809
75206W        W38930  11.764  41.799  11.451
75207W        W38931  39.409  35.056  12.565
75208W        W38932  42.777  34.489   3.233
75209W        W38933  16.196  16.073  14.901
75210W        W38934  19.172   6.238  12.406
75211W        W38935  44.867  21.173  12.859
75212W        W38936  27.678  11.171  10.490
75213W        W38937   7.234  17.777  14.862
75214W        W38938  29.543  40.802  10.892
75215W        W38939  23.067  24.151  11.067
75216W        W38940  33.393  42.402   1.755
75217W        W38941  43.793  33.882   1.416
75218W        W38942  15.264  33.118  12.946
75219W        W38943  41.833  22.734  12.579
75220W        W38944  11.234  33.563  14.345
75221W        W38945  30.577  22.726   4.728
75222W        W38946  13.714  12.211  11.416
75223W        W38947  25.993  36.348  12.940
75224W        W38948   3.251  13.182   4.668
75225W        W38949  14.764  26.635  12.470
75226W        W38950  21.593  37.920  12.406
75227W        W38951  34.892  35.879   5.105
75228W        W38952  10.713  35.538   3.238
75229W        W38953  21.615  35.106  12.857
75230W        W38954   0.273  10.694   3.831
75231W        W38955  31.529  37.902   3.202
75232W        W38956   1.239   9.874   2.217
75233W        W38957  39.025  15.718  13.428
75234W        W38958  44.799  10.702  11.034
75235W        W38959  31.897  37.057   1.716
75236W        W38960  26.468  33.417  10.944
75237W        W38961  34.058  10.687   2.760
75238W        W38962   8.748  10.383  11.421
75239W        W38963  12.359  33.074   4.149
75240W        W38964  44.876  19.104  12.496
75241W        W38965  31.954  40.000   1.695
75242W        W38966  15.138  35.045  11.466
75243W        W38967   3.939  20.668  13.025
75244W        W38968  28.063   3.801   1.899
75245W        W38969  21.101  22.060  14.371
75246W        W38970  26.200  19.056   0.758
75247W        W38971  23.055  41.810  10.009
75248W        W38972  19.154   3.308  11.115
75249W        W38973  23.042  34.498  14.796
75250W        W38974   0.921  26.643   3.821
75251W        W38975   8.260  19.567  12.070
75252W        W38976  11.795   3.435   0.779
75253W        W38977  38.039  31.903  12.873
75254W        W38978  44.999  17.070  10.111
75255W        W38979  11.839  28.982  14.012
75256W        W38980  10.693  41.026   2.350
75257W        W38981  12.314  17.146  10.986
75258W        W38982  38.558   2.762  12.458
75259W        W38983   5.816  23.690   3.341
75260W        W38984   6.338  29.022  11.558
75261W        W38985  16.705  13.713   3.155
75262W        W38986  16.172  36.477  14.802
75263W        W38987  30.492  14.737   1.720
75264W        W38988  40.436  40.877   1.323
75265W        W38989  12.710  10.750  10.523
75266W        W38990  38.018  30.544  10.621
75267W        W38991  38.329  19.240   3.298
75268W        W38992  12.170  11.170   3.856
75269W        W38993  13.119  20.166   3.655
75270W        W38994  22.693  36.047   2.676
75271W        W38995   4.267  38.409   3.288
75272W        W38996  18.124  37.875  11.422
75273W        W38997   5.791   9.383   3.330
75274W        W38998  26.688  44.809   3.705
75275W        W38999  27.450   9.361  12.963
75276W        W39000   7.710   4.776  14.414
75277W        W39001  20.579  10.857  11.943
75278W        W39002  35.105  37.897  11.513
75279W        W39003  44.871  30.140  14.779
75280W        W39004   0.328   1.437   3.366
75281W        W39005  44.910   9.195  13.059
75282W        W39006   4.308   7.291  11.495
75283W        W39007  23.565  31.095   0.941
75284W        W39008   8.740  25.674   3.271
75285W        W39009  17.281  32.480   2.347
75286W        W39010   8.860  15.792   4.220
75287W        W39011  20.650  15.690  13.442
75288W        W39012  34.865  25.658  11.584
75289W        W39013   1.416  36.501  10.899
75290W        W39014  27.065  13.137   0.421
75291W        W39015  11.719  34.099  13.384
75292W        W39016  26.611  26.509   2.406
75293W        W39017  23.057  32.396  10.973
75294W        W39018  38.513  42.430   3.786
75295W        W39019   1.915  43.780   1.735
75296W        W39020   3.742   5.241   0.775
75297W        W39021  35.973  29.983  13.892
75298W        W39022  24.156  42.299   1.285
75299W        W39023  10.165   6.407  11.421
75300W        W39024  24.222   6.781   4.243
75301W        W39025  44.844   2.724   4.599
75302W        W39026   7.864   5.302   4.639
75303W        W39027  17.645  27.570  14.924
75304W        W39028  26.070  18.742  14.950
75305W        W39029   2.288   0.809  14.978
75306W        W39030  21.109  35.078  11.911
75307W        W39031  33.451  19.145  13.957
75308W        W39032  20.235   0.797   2.885
75309W        W39033  17.670  43.833   1.330
75310W        W39034   1.851  44.345   4.270
75311W        W39035   0.761  43.307   1.858
75312W        W39036  40.900  25.011   4.670
75313W        W39037  22.685  15.182  13.857
75314W        W39038   0.925  42.492  13.968
75315W        W39039  21.548  12.354   0.879
75316W        W39040  34.868   2.421  14.297
75317W        W39041  25.156  21.235   2.216
75318W        W39042  18.104   4.390   2.372
75319W        W39043   6.683  12.724   4.804
75320W        W39044  23.615  28.611   0.846
75321W        W39045  20.680  44.476   1.752
75322W        W39046   6.689  35.023  12.537
75323W        W39047  40.999  40.830   4.755
75324W        W39048  36.353  42.847  12.361
75325W        W39049   5.394  19.684  13.429
75326W        W39050  39.813  16.076   2.777
75327W        W39051  14.221  34.527   1.889
75328W        W39052  26.181   4.252  14.299
75329W        W39053   7.845  22.660   1.713
75330W        W39054  22.057  43.342  11.516
75331W        W39055  32.636  14.225   2.265
75332W        W39056  20.246  31.637  14.838
75333W        W39057  13.136   1.834   1.828
75334W        W39058   6.334   9.692   0.842
75335W        W39059  38.833  23.022  12.009
75336W        W39060  26.138   5.295  14.435
75337W        W39061   5.711  13.733  12.068
75338W        W39062   1.350   3.386   3.260
75339W        W39063  18.697  33.395   4.212
75340W        W39064  32.637  20.057  14.850
75341W        W39065  21.582  26.501  11.979
75342W        W39066  14.708  12.789   0.371
75343W        W39067  28.033  15.706   0.867
75344W        W39068  38.458  35.492   4.833
75345W        W39069  21.179  29.076  12.433
75346W        W39070   5.201  10.752  10.035
75347W        W39071  31.906  29.568   1.239
75348W        W39072  39.894   9.249  11.440
75349W        W39073  10.735  34.557  11.086
75350W        W39074  26.083  28.554   5.689
75351W        W39075  30.576  41.935   0.374
75352W        W39076  12.666  41.500  13.335
75353W        W39077   4.303   7.908  11.422
75354W        W39078  21.687  40.465  12.454
75355W        W39079  10.366  20.207  11.030
75356W        W39080   6.216  19.693  10.960
75357W        W39081  25.709   1.975  12.461
75358W        W39082   5.740  34.491  11.533
75359W        W39083   3.280  18.629  12.568
75360W        W39084  21.647   2.409   1.745
75361W        W39085  41.413   2.391   2.196
75362W        W39086  36.904  17.688   3.150
75363W        W39087   9.368  37.830   1.382
75364W        W39088   1.312   9.329   4.713
75365W        W39089  30.646   3.405   0.449
75366W        W39090  22.681  31.113   3.658
75367W        W39091  29.507   2.747  12.480
75368W        W39092  33.603  40.399   5.141
75369W        W39093   7.175   6.794  13.039
75370W        W39094  13.136   8.208  11.049
75371W        W39095   1.895  10.209   1.429
75372W        W39096  31.904  23.526   3.642
75373W        W39097   3.900   8.328  12.507
75374W        W39098  42.818  23.221  13.459
75375W        W39099  31.507  16.606  11.085
75376W        W39100   1.374  37.927   2.200
75377W        W39101  23.615  22.083   1.904
75378W        W39102  21.754  36.909   4.808
75379W        W39103  30.924  14.767   2.783
75380W        W39104   3.343  39.065  12.566
75381W        W39105  43.458  42.291   4.742
75382W        W39106  41.359  19.215  14.925
75383W        W39107   1.371  16.647   1.800
75384W        W39108  18.548  43.427  11.497
75385W        W39109  16.134  30.969  12.360
75386W        W39110  17.750  32.004  10.528
75387W        W39111  30.446  25.997   1.720
75388W        W39112  16.632  18.657   2.836
75389W        W39113  17.210   1.392   0.270
75390W        W39114  19.776  25.690   0.308
75391W        W39115  19.226   2.303   2.827
75392W        W39116  16.779  42.510   4.220
75393W        W39117   4.272  33.558  13.828
75394W        W39118  42.908  29.922   0.729
75395W        W39119   6.249  24.056   2.269
75396W        W39120  39.408  21.032  14.839
75397W        W39121  31.439  44.386  13.508
75398W        W39122  30.445  40.904  14.780
75399W        W39123  41.971   1.742   3.703
75400W        W39124  19.642   2.885  13.413
75401W        W39125   3.891   5.249  12.087
75402W        W39126   9.849   9.163  14.824
75403W        W39127  31.998  28.168  12.512
75404W        W39128  12.801   9.289  13.514
75405W        W39129  36.021  41.825  13.949
75406W        W39130  23.105  37.562  14.871
75407W        W39131  24.666  18.139   1.696
75408W        W39132  32.012  41.380  11.523
75409W        W39133  43.376   4.210  10.432
75410W        W39134  29.449  38.896   3.711
75411W        W39135  19.251  12.218   1.434
75412W        W39136  26.522  24.052   5.227
75413W        W39137  14.703   2.411   0.882
75414W        W39138  20.258  33.001   4.642
75415W        W39139   4.219  31.954   3.738
75416W        W39140  20.186  32.129   0.911
75417W        W39141  12.739  29.065   3.752
75418W        W39142  29.554   3.814  13.458
75419W        W39143  23.496   6.322   4.175
75420W        W39144   1.851   6.196  12.514
75421W        W39145   9.814   3.220   2.345
75422W        W39146  40.946  35.954  12.475
75423W        W39147   1.845  13.320   3.708
75424W        W39148  39.906   4.209  11.970
75425W        W39149  27.179   1.369   0.924
75426W        W39150  24.997  23.009  13.483
75427W        W39151   3.887   7.396  12.422
75428W        W39152  39.942  24.529  11.044
75429W        W39153   5.836  20.068  13.503
75430W        W39154   8.382  16.610   1.867
75431W        W39155  33.565  11.154  13.040
75432W        W39156   0.405  14.704  13.419
75433W        W39157  17.775   7.729  11.005
75434W        W39158  44.928  41.527   4.705
75435W        W39159   7.718  29.610   0.882
75436W        W39160  16.122  38.963  13.994
75437W        W39161  24.024  12.287  13.515
75438W        W39162   3.383  19.667  12.356
75439W        W39163  41.890  20.695  13.504
75440W        W39164  39.000  36.538  13.493
75441W        W39165  33.572  44.504   2.819
75442W        W39166   2.752   8.861   1.920
75443W        W39167  16.257  44.492  14.840
75444W        W39168   1.931  22.028  14.362
75445W        W39169  44.470  33.599  13.318
75446W        W39170  37.358  21.017  13.535
75447W        W39171  25.638   4.851   3.727
75448W        W39172  41.360  21.696  12.551
75449W        W39173  17.682   0.277   4.654
75450W        W39174  34.873  30.159   3.357
75451W        W39175  33.061  20.671  14.451
75452W        W39176  36.018  31.547   1.748
75453W        W39177  14.146  27.529   0.462
75454W        W39178  30.941   9.359  14.515
75455W        W39179  10.301   6.751  10.934
75456W        W39180   3.342  43.006   0.770
75457W        W39181  43.404  31.451   3.182
75458W        W39182  28.662  15.643   1.433
75459W        W39183  40.493  41.409   5.090
75460W        W39184  42.508  38.950   4.286
75461W        W39185  29.966  28.123   2.828
75462W        W39186  40.454  31.028   3.148
75463W        W39187   3.851  39.428  10.484
75464W        W39188  40.031   9.686  12.823
75465W        W39189  36.435  21.553   3.329
75466W        W39190   8.251  44.906   0.332
75467W        W39191  18.270  15.675  14.955
75468W        W39192  35.575  23.532  10.641
75469W        W39193  13.697  26.471   2.790
75470W        W39194  16.722  43.006  11.419
75471W        W39195  16.569  40.824   2.293
75472W        W39196  39.540  10.640  11.924
75473W        W39197  21.109  26.499   0.946
75474W        W39198   4.266  10.163  14.013
75475W        W39199  13.222  36.512   2.328
75476W        W39200  34.893  31.425  11.981
75477W        W39201   3.856  16.229  14.274
75478W        W39202  43.500  37.852  14.815
75479W        W39203  33.563  22.654   0.742
75480W        W39204  15.135  18.111   1.845
75481W        W39205  16.779  18.260   3.847
75482W        W39206  10.144  21.659  12.528
75483W        W39207  20.672  34.917  14.834
75484W        W39208  42.918  37.076   2.691
75485W        W39209  20.062  19.629  14.838
75486W        W39210  10.236   2.385   3.292
75487W        W39211   0.955  25.532  12.540
75488W        W39212   9.775  21.754  14.028
75489W        W39213  10.160   0.779  11.119
75490W        W39214  31.071  34.993   3.311
75491W        W39215   8.346  22.609   2.374
75492W        W39216  18.159  44.409   0.411
75493W        W39217  34.426  29.168   3.696
75494W        W39218  11.352  42.961  12.888
75495W        W39219  16.744  19.153   2.821
75496W        W39220   6.302  35.578   4.760
75497W        W39221  29.669  33.878  12.976
75498W        W39222   0.850  14.665   0.421
75499W        W39223  17.178  18.549  14.899
75500W        W39224   9.321  19.702   3.805
75501W        W39225   2.228  12.144   2.185
75502W        W39226  23.606  28.597  13.478
75503W        W39227  12.764  42.820   2.276
75504W        W39228  20.083  31.639   3.720
75505W        W39229  23.597  35.560  14.413
75506W        W39230  11.807  39.371  12.043
75507W        W39231  40.843  36.476  13.391
75508W        W39232  26.198  20.030   1.731
75509W        W39233  23.033  19.240  11.019
75510W        W39234  36.013  34.093  14.786
75511W        W39235  39.313  26.991   3.235
75512W        W39236  24.478   6.717  10.421
75513W        W39237  20.273  37.841   4.711
75514W        W39238  23.017  30.041  13.429
75515W        W39239  43.020   5.707   1.924
75516W        W39240  24.192  15.739   2.212
75517W        W39241   0.288  36.544   4.699
75518W        W39242  11.782  33.413   4.821
75519W        W39243  14.598  40.879   4.247
75520W        W39244  21.654  24.686  12.381
75521W        W39245  18.073   1.317   3.262
75522W        W39246   0.856  39.039   2.714
75523W        W39247  11.309  26.503  12.381
75524W        W39248  10.313  15.717  12.862
75525W        W39249  23.537  22.644   1.882
75526W        W39250  27.659  31.492   1.864
75527W        W39251  28.035  37.926   1.843
75528W        W39252  27.188  17.610   3.773
75529W        W39253  29.114  15.144   3.361
75530W        W39254  29.073  38.367   0.787
75531W        W39255   2.364   8.788  14.296
75532W        W39256  19.231  14.636   0.469
75533W        W39257  37.336  29.471   0.767
75534W        W39258  40.849   2.426   0.860
75535W        W39259  43.012  14.631  10.496
75536W        W39260  34.534  16.179   3.686
75537W        W39261  37.900  15.804  10.585
75538W        W39262  30.020   7.297   0.882
75539W        W39263  24.680  24.036  11.938
75540W        W39264   9.766  10.682  14.810
75541W        W39265  41.402  28.025   4.141
75542W        W39266   7.417  10.742  12.946
75543W        W39267  38.907  36.996  13.037
75544W        W39268  43.386  24.999  13.520
75545W        W39269   0.888  12.820   0.776
75546W        W39270  19.750  22.511   1.866
75547W        W39271  22.123  36.007  10.127
75548W        W39272  12.329  18.780   0.458
75549W        W39273   2.373  42.001  11.959
75550W        W39274  28.563  24.987   1.846
75551W        W39275   9.833  39.515   2.875
75552W        W39276   8.332  40.010   2.862
75553W        W39277  33.933  25.124   1.716
75554W        W39278  22.630  34.591   0.311
75555W        W39279  42.432   7.887   3.335
75556W        W39280   3.885   1.790  14.453
75557W        W39281  22.120   4.234  14.789
75558W        W39282  20.046  43.923   0.889
75559W        W39283   5.688  10.230   5.096
75560W        W39284  19.722  34.379   4.834
75561W        W39285  29.648  41.470  10.631
75562W        W39286  38.934  13.213   0.479
75563W        W39287  38.049  30.480   4.202
75564W        W39288  11.627  11.181  12.452
75565W        W39289  35.939   1.970  14.785
75566W        W39290  15.604  22.620   3.643
75567W        W39291  15.123  23.582   4.354
75568W        W39292  30.152  30.501  11.935
75569W        W39293  21.656   1.777  13.436
75570W        W39294  18.157  40.532  11.557
75571W        W39295   0.474  30.437  14.491
75572W        W39296   4.774  10.383  12.540
75573W        W39297   8.858  23.731  13.489
75574W        W39298   8.188  30.489   3.355
75575W        W39299  29.522  36.963   4.817
75576W        W39300  23.507  33.079  12.834
75577W        W39301  22.250  43.851  10.568
75578W        W39302  15.699   5.753  12.422
75579W        W39303  43.938  40.310   3.650
75580W        W39304  38.037  42.780  14.434
75581W        W39305  41.305  39.025  13.497
75582W        W39306   6.875  16.675  11.602
75583W        W39307  10.789  39.395   2.713
75584W        W39308   8.775   4.288  11.433
75585W        W39309  39.501  32.912   1.832
75586W        W39310  27.053  17.063   2.850
75587W        W39311  23.234  35.949   2.740
75588W        W39312  27.542  27.079   3.185
75589W        W39313   3.270   9.704  12.375
75590W        W39314  11.347  33.587  11.508
75591W        W39315  29.480  43.499  10.563
75592W        W39316  23.142  33.510  13.308
75593W        W39317  43.475  42.942  13.039
75594W        W39318  43.348  17.211  10.461
75595W        W39319   2.868  40.041   4.606
75596W        W39320  34.398  42.987   0.837
75597W        W39321   5.395  40.395  14.777
75598W        W39322  23.092  22.023   0.318
75599W        W39323  11.301  34.476   1.434
75600W        W39324  22.648  38.957   2.870
75601W        W39325  37.061  26.565  10.034
75602W        W39326  37.980  41.492   3.648
75603W        W39327  10.723  14.248   2.902
75604W        W39328  44.903   7.709  13.494
75605W        W39329   4.273   8.178  10.575
75606W        W39330   6.695   8.233   0.777
75607W        W39331  15.730  38.369  11.608
75608W        W39332  22.512  43.803   0.768
75609W        W39333   9.165  37.974   0.433
75610W        W39334  25.978  28.183  11.428
75611W        W39335   8.160  25.548   4.210
75612W        W39336   5.312  31.457  11.082
75613W        W39337  44.418   1.368   2.777
75614W        W39338  43.984  24.215  14.795
75615W        W39339  24.562   1.441   0.959
75616W        W39340   2.324  27.619  13.839
75617W        W39341  10.790  28.449  12.830
75618W        W39342  27.966   6.890   2.283
75619W        W39343  29.629  32.621   2.888
75620W        W39344   8.250  41.462  14.812
75621W        W39345  22.007  10.259   4.266
75622W        W39346   0.895  13.666   2.897
75623W        W39347  24.211  19.565   4.220
75624W        W39348  43.969  40.515  14.456
75625W        W39349  10.237  31.974  13.890
75626W        W39350  43.472  34.082  12.370
75627W        W39351  26.702  15.735   1.870
75628W        W39352  15.710  21.173   0.476
75629W        W39353   8.405   6.690  12.524
75630W        W39354  32.033  42.456  12.945
75631W        W39355  43.930  13.641  11.998
75632W        W39356  30.916  39.327   3.801
75633W        W39357  22.192  22.553  12.040
75634W        W39358  35.502  44.755   2.786
75635W        W39359   2.336  36.520  14.798
75636W        W39360  28.009  18.700   2.351
75637W        W39361  40.817  14.635   3.337
75638W        W39362  19.097  39.416   3.776
75639W        W39363   6.317  37.887  10.635
75640W        W39364  10.674  16.594   1.336
75641W        W39365  25.712  30.469   3.854
75642W        W39366  44.407  21.598   1.787
75643W        W39367  29.605  34.603  10.981
75644W        W39368   9.206  43.903   0.836
75645W        W39369   9.869   3.748   2.811
75646W        W39370   3.761   2.443   4.187
75647W        W39371   5.705   7.668   2.718
75648W        W39372  34.102  28.012  13.992
75649W        W39373  23.211   7.812  10.989
75650W        W39374  22.645  19.124  13.899
75651W        W39375   2.887  27.075   2.857
75652W        W39376   1.239   4.740  11.043
75653W        W39377  16.276  44.338  14.032
75654W        W39378   8.708   4.907  10.112
75655W        W39379   5.252  41.021  13.534
75656W        W39380  31.004  37.886   0.846
75657W        W39381   1.766  16.673  12.356
75658W        W39382  36.851  27.037  10.461
75659W        W39383  21.071  38.823  13.866
75660W        W39384  19.621  15.121   0.475
75661W        W39385  35.950  14.179  11.463
75662W        W39386  16.620  34.902  12.364
75663W        W39387  32.622  28.056  10.640
75664W        W39388  33.523  40.333  14.835
75665W        W39389  43.972  21.601   2.189
75666W        W39390  13.674  21.524  14.816
75667W        W39391   9.336  21.200  13.442
75668W        W39392  25.026   8.223  12.011
75669W        W39393  19.728  18.577  14.342
75670W        W39394   5.300  42.981  14.891
75671W        W39395   9.659  24.567  12.000
75672W        W39396  29.951  11.253   3.247
75673W        W39397  16.595  32.016   3.859
75674W        W39398  25.067  37.902  12.446
75675W        W39399  13.133  20.643   4.150
75676W        W39400  44.463  44.977  11.446
75677W        W39401  26.601  40.321  10.544
75678W        W39402  12.671  23.723  10.579
75679W        W39403  31.925  37.504  10.958
75680W        W39404   2.447   1.454   1.241
75681W        W39405  15.088   8.704   1.300
75682W        W39406  35.586   1.445   1.731
75683W        W39407  32.082  14.818   4.311
75684W        W39408  17.773  40.891   2.767
75685W        W39409  18.739  29.008  14.307
75686W        W39410   8.284  37.062  13.891
75687W        W39411  19.123  22.070  11.930
75688W        W39412   8.761   3.802  14.476
75689W        W39413  35.467   0.896   0.823
75690W        W39414  16.568  20.142   3.387
75691W        W39415  14.797   2.823  13.041
75692W        W39416  26.037  23.005  11.506
75693W        W39417  32.519  43.795   1.261
75694W        W39418  20.261  44.281   0.729
75695W        W39419  39.824   1.785   2.896
75696W        W39420  30.964   7.794  11.886
75697W        W39421   1.263  26.003   2.191
75698W        W39422   3.344  42.949   1.308
75699W        W39423   2.255  34.938  13.911
75700W        W39424  23.177  25.536  10.924
75701W        W39425  36.036   0.265  11.994
75702W        W39426   6.833  41.498  12.864
75703W        W39427  38.481  28.446   1.915
75704W        W39428  43.393  39.460  10.618
75705W        W39429  23.010  21.587   2.218
75706W        W39430   1.440  40.909  12.435
75707W        W39431  14.646  19.682  11.382
75708W        W39432  23.130  32.106   4.220
75709W        W39433  20.605   1.417  13.869
75710W        W39434  23.510  12.648  14.305
75711W        W39435   5.821  20.089  11.902
75712W        W39436   5.351  12.138  12.975
75713W        W39437  34.417  12.757   5.680
75714W        W39438  20.548   8.819  10.579
75715W        W39439   7.912  27.671   1.706
75716W        W39440   3.395  26.522   3.841
75717W        W39441  17.121   4.902   0.265
75718W        W39442   8.214  28.651   3.308
75719W        W39443  17.264   8.251   4.829
75720W        W39444   4.807  40.027  13.840
75721W        W39445  10.384  11.709   0.440
75722W        W39446   8.260  15.809  14.382
75723W        W39447  26.687   6.686  10.626
75724W        W39448  23.002  37.973   0.352
75725W        W39449  24.543  28.067   0.353
75726W        W39450  28.666   6.877   2.695
75727W        W39451   6.848   2.383   3.694
75728W        W39452  39.529  40.982  11.012
75729W        W39453  44.336  10.878   2.810
75730W        W39454  25.101   9.244  14.995
75731W        W39455  11.139  41.021   2.792
75732W        W39456  43.924   0.962  12.387
75733W        W39457   9.375  16.640   3.299
75734W        W39458   6.337   4.361   2.698
75735W        W39459  36.944  29.501  10.944
75736W        W39460  22.248  30.117   1.384
75737W        W39461  10.807   3.258   1.379
75738W        W39462  34.432  12.224  11.485
75739W        W39463   2.297  21.524   1.782
75740W        W39464  26.173   6.839   1.833
75741W        W39465  43.345  10.164  10.420
75742W        W39466  32.527  20.566   4.765
75743W        W39467  36.454  17.649   1.280
75744W        W39468  29.016  17.785   2.855
75745W        W39469  30.093  10.278   4.221
75746W        W39470  37.909  11.829  12.989
75747W        W39471  10.811  29.120  10.589
75748W        W39472  27.143   7.716  13.865
75749W        W39473  25.522   8.746   0.926
75750W        W39474  14.715  30.026   3.719
75751W        W39475  16.271  35.405   3.664
75752W        W39476  35.375   2.358   2.870
75753W        W39477  32.412   7.670  14.787
75754W        W39478   4.716  31.585   2.302
75755W        W39479  42.489  28.976  11.525
75756W        W39480  24.983  13.280  14.830
75757W        W39481  38.472   2.823  14.761
75758W        W39482  24.190  30.020  11.867
75759W        W39483  17.090  28.140  11.569
75760W        W39484   2.723  23.995   4.248
75761W        W39485  42.786  44.496   5.167
75762W        W39486  30.478  17.231   2.345
75763W        W39487  40.958  15.249  12.848
75764W        W39488  44.996  23.009  11.856
75765W        W39489  14.265  39.856  10.088
75766W        W39490  44.366   2.900  11.905
75767W        W39491  10.770  11.232  14.457
75768W        W39492  38.062  34.908   0.941
75769W        W39493  31.909  43.503  14.503
75770W        W39494   5.240  17.129  14.877
75771W        W39495   5.921  40.860   2.286
75772W        W39496  18.124  15.246   2.836
75773W        W39497  42.962  24.171  14.467
75774W        W39498  26.994  26.074   1.763
75775W        W39499  24.133  28.125   2.776
75776W        W39500  24.604  23.639  13.851
75777W        W39501  27.677  16.599   2.392
75778W        W39502  21.583  14.164  10.959
75779W        W39503  40.383  39.902  13.949
75780W        W39504  40.976  42.968   0.418
75781W        W39505   6.810  33.499   2.211
75782W        W39506  15.754  21.692   4.124
75783W        W39507  36.429  18.697   0.447
75784W        W39508  14.196  38.946   0.888
75785W        W39509  17.652  23.714  11.065
75786W        W39510  13.177   6.827  12.415
75787W        W39511  33.100   4.267  14.327
75788W        W39512  41.802  12.356   0.436
75789W        W39513  37.445  31.496  12.057
75790W        W39514   3.274  20.742   4.301
75791W        W39515  44.305  19.740   3.704
75792W        W39516  14.743  37.842   0.469
75793W        W39517  31.117  31.533  13.057
75794W        W39518   8.213  31.477   4.838
75795W        W39519   3.944   0.859   2.252
75796W        W39520   1.315  27.118  11.922
75797W        W39521  38.981   2.764   1.373
75798W        W39522   5.222   8.269  12.531
75799W        W39523   7.709  31.413   0.727
75800W        W39524  35.563  35.427   1.404
75801W        W39525  11.715  41.027   0.854
75802W        W39526  24.089   9.813  12.425
75803W        W39527  27.126   2.760   4.790
75804W        W39528  42.966  11.369  14.514
75805W        W39529  10.224  19.194   4.655
75806W        W39530  31.635  36.394  12.855
75807W        W39531  43.992  11.868   2.758
75808W        W39532  17.061  41.981   2.703
75809W        W39533   7.218   0.346   0.842
75810W        W39534   2.266  23.712  12.384
75811W        W39535   7.766   3.361   3.376
75812W        W39536  12.742  33.005  10.565
75813W        W39537  11.360  40.538   2.219
75814W        W39538  29.548  24.529  14.995
75815W        W39539  12.325  26.185   2.817
75816W        W39540  14.232  40.407   3.634
75817W        W39541  21.734  11.145  12.528
75818W        W39542  23.060   2.890   0.951
75819W        W39543  38.355  23.566   0.796
75820W        W39544   2.274  34.116   3.845
75821W        W39545  11.366   0.376  10.583
75822W        W39546  11.290  24.057  11.489
75823W        W39547   5.755  21.558  14.810
75824W        W39548  35.986   2.965   3.333
75825W        W39549  27.611  30.648  14.890
75826W        W39550  20.559  33.959   1.799
75827W        W39551  13.601  15.301   3.827
75828W        W39552   4.368  23.623  12.090
75829W        W39553  40.398  36.538   3.852
75830W        W39554  26.953  34.071   4.200
75831W        W39555  26.460  42.410  14.870
75832W        W39556  18.251  38.511   4.178
75833W        W39557  40.870  44.952  14.917
75834W        W39558  38.518  30.131  11.123
75835W        W39559  20.261  34.040   0.875
75836W        W39560  44.900  28.657  14.863
75837W        W39561  22.580  29.114  12.071
75838W        W39562  32.599  41.932  13.050
75839W        W39563  29.983  20.164  10.583
75840W        W39564  29.010  23.491  13.497
75841W        W39565   7.348  26.081  12.016
75842W        W39566   0.785   7.820  11.431
75843W        W39567  11.173  41.033   3.254
75844W        W39568  26.020  25.001   3.164
75845W        W39569  35.100   9.156  14.492
75846W        W39570   3.926   1.925   0.270
75847W        W39571  34.108  15.223  14.400
75848W        W39572   7.739  19.129  13.313
75849W        W39573  28.978  12.709   2.344
75850W        W39574   4.228  39.859   2.892
75851W        W39575  42.891  32.517   3.371
75852W        W39576  33.495  19.643   1.307
75853W        W39577  28.034  30.599   4.194
75854W        W39578  32.931   5.387   3.760
75855W        W39579  11.677  14.775  13.993
75856W        W39580  36.048  39.319  14.288
75857W        W39581  16.568  33.596   1.394
75858W        W39582  18.754  33.949   3.171
75859W        W39583  25.105  44.319  10.557
75860W        W39584   0.390  35.377  12.454
75861W        W39585  40.901  24.102  12.972
75862W        W39586  22.504   6.681  12.852
75863W        W39587  33.464  43.389  13.827
75864W        W39588  18.653  38.402  12.956
75865W        W39589  41.524  40.860   4.203
75866W        W39590   9.229  25.556   4.206
75867W        W39591  33.074  38.890  11.860
75868W        W39592  29.171  30.909   4.337
75869W        W39593  20.531  35.095   4.717
75870W        W39594  10.689  34.476   0.817
75871W        W39595  32.136  44.961  14.778
75872W        W39596  32.062  27.650   4.621
75873W        W39597   2.432   3.828   0.816
75874W        W39598  12.348  20.257   2.403
75875W        W39599  35.100   4.392  13.470
75876W        W39600  26.678  10.759   0.302
75877W        W39601   7.750   5.796   2.343
75878W        W39602  11.200  31.426  14.986
75879W        W39603  32.973  37.538  13.841
75880W        W39604  18.244  21.097   1.885
75881W        W39605  24.584  37.988   4.282
75882W        W39606  31.418   4.421  10.566
75883W        W39607  26.110  33.027  14.025
75884W        W39608  33.115  11.812  13.807
75885W        W39609   7.684  26.646  11.888
75886W        W39610  44.761   7.393   0.774
75887W        W39611   9.366  41.888  12.880
75888W        W39612  36.890  44.901  10.597
75889W        W39613  15.789  42.032  11.446
75890W        W39614   9.392  18.727  14.898
75891W        W39615  44.772   8.727   5.219
75892W        W39616  42.934  16.606   2.194
75893W        W39617  16.157   2.343   2.804
75894W        W39618  31.950  11.745   0.855
75895W        W39619  10.150  30.515  13.391
75896W        W39620  36.519   1.921   0.923
75897W        W39621  28.038  19.157  14.851
75898W        W39622   1.751   1.887  11.984
75899W        W39623  11.841  13.146   1.932
75900W        W39624  16.100   5.419  12.868
75901W        W39625   9.166  43.910   4.622
75902W        W39626  39.427  21.257   4.303
75903W        W39627  17.290   6.268  14.388
75904W        W39628  44.388  11.226   4.677
75905W        W39629  32.445  39.032  13.307
75906W        W39630  15.630  15.786   2.847
75907W        W39631  20.546  29.056   0.280
75908W        W39632  37.899   9.281   1.277
75909W        W39633  25.494  26.596  12.011
75910W        W39634  44.260  36.579  13.844
75911W        W39635  27.589   1.767   4.345
75912W        W39636  10.753  15.737  11.057
75913W        W39637  22.608   6.205  13.864
75914W        W39638   5.275  18.702  11.067
75915W        W39639  32.611  30.045  11.055
75916W        W39640   4.721   7.331   5.298
75917W        W39641   4.913  12.161  11.559
75918W        W39642  22.210   1.368  12.523
75919W        W39643  22.212  30.584   3.784
75920W        W39644  13.305  18.598   2.209
75921W        W39645  42.999  10.314  11.490
75922W        W39646  29.544  41.852   0.254
75923W        W39647  20.630   6.357  13.430
75924W        W39648  36.354  30.523   2.250
75925W        W39649  14.258   7.723  12.439
75926W        W39650  38.514  18.596   0.340
75927W        W39651   7.723  20.532  12.889
75928W        W39652  11.230  14.782  11.055
75929W        W39653   7.274   6.222   2.727
75930W        W39654  37.067  38.446   4.799
75931W        W39655  10.673  28.133   1.926
75932W        W39656  20.220  32.539   0.391
75933W        W39657  35.045  15.264   1.331
75934W        W39658  20.636  10.819  11.598
75935W        W39659   2.856  18.605   4.162
75936W        W39660  17.595  12.189  11.519
75937W        W39661   5.715  15.199   1.779
75938W        W39662  40.479  34.437  10.031
75939W        W39663  39.924  43.005   0.881
75940W        W39664   8.400  42.842  12.367
75941W        W39665  10.789  17.786   2.867
75942W        W39666   9.302  43.967   0.301
75943W        W39667  26.136  36.003  12.930
75944W        W39668   5.419  37.388   3.346
75945W        W39669  27.625  42.008  11.512
75946W        W39670  12.270  12.739   2.669
75947W        W39671  30.542   3.886  13.518
75948W        W39672  27.624  25.512  12.847
75949W        W39673  43.320   7.207   1.772
75950W        W39674  37.886  37.834   2.841
75951W        W39675  18.740  30.935   0.861
75952W        W39676  13.821  15.739  11.572
75953W        W39677  43.401  36.560  10.158
75954W        W39678   2.780  34.465  12.559
75955W        W39679  22.593  11.205   0.893
75956W        W39680   2.434   9.768   0.945
75957W        W39681   6.769  33.094   1.875
75958W        W39682  31.016  32.128  10.087
75959W        W39683  24.658  43.272   4.257
75960W        W39684  41.881  13.154  11.997
75961W        W39685  30.977  26.546   0.402
75962W        W39686  10.671  23.615   1.809
75963W        W39687   9.803  26.098  13.351
75964W        W39688  27.501  34.874  12.978
75965W        W39689   7.871  20.130   3.826
75966W        W39690  22.174   4.773  14.359
75967W        W39691  15.308  34.438  10.569
75968W        W39692  13.689  11.198  13.356
75969W        W39693  24.145  12.218  12.521
75970W        W39694  27.692  16.807  11.882
75971W        W39695   2.302  13.233   4.702
75972W        W39696  15.770  11.305   4.250
75973W        W39697  29.025   4.334  14.930
75974W        W39698  26.000  14.743  14.429
75975W        W39699  32.916   4.770  14.382
75976W        W39700  11.283  44.807   2.389
75977W        W39701  14.290  35.597  13.307
75978W        W39702  30.644  33.998  12.937
75979W        W39703   4.766  42.996   4.348
75980W        W39704  44.408  21.115  13.497
75981W        W39705  26.013  21.055  11.079
75982W        W39706  12.801   2.289  14.929
75983W        W39707  17.245   0.278   0.891
75984W        W39708  39.893  41.521   9.451
75985W        W39709  19.656  18.601   0.850
75986W        W39710  43.471  32.405  10.924
75987W        W39711  16.699  24.016   0.430
75988W        W39712  29.631  32.114  10.606
75989W        W39713  30.074  39.419   4.237
75990W        W39714   4.858  43.431  14.822
75991W        W39715  26.619  40.337   0.258
75992W        W39716  19.665  34.951   0.952
75993W        W39717  21.127  27.539   1.711
75994W        W39718  26.610  33.920  14.395
75995W        W39719  28.677  43.366   4.609
75996W        W39720  36.037  29.657   4.125
75997W        W39721  43.811  18.564   2.769
75998W        W39722  34.404  41.945   3.750
75999W        W39723   3.412  32.891   0.364
76000W        W39724  21.743   8.720  12.012
76001W        W39725  12.161  34.510   1.889
76002W        W39726  37.561   2.269   4.772
76003W        W39727   2.241  32.411  12.543
76004W        W39728   1.318   6.247  11.588
76005W        W39729  37.550  23.033   2.791
76006W        W39730  24.068  18.664  14.766
76007W        W39731  43.793  38.018  12.008
76008W        W39732  19.625   1.350   1.712
76009W        W39733  43.280   5.700   2.211
76010W        W39734   9.806   3.897  14.955
76011W        W39735  26.598  21.115  10.608
76012W        W39736  36.986  39.810  12.080
76013W        W39737  21.032  34.509  10.902
76014W        W39738   0.941  17.123   4.697
76015W        W39739  41.516  23.587   3.833
76016W        W39740  11.769  30.986   3.176
76017W        W39741  34.427   6.413   3.716
76018W        W39742   0.961  17.788   3.823
76019W        W39743  27.957   4.898  13.805
76020W        W39744  25.525  40.541   3.679
76021W        W39745  12.644   7.235   5.243
76022W        W39746  35.388  35.548   2.825
76023W        W39747  22.169  22.024   0.397
76024W        W39748  32.586  13.297  11.483
76025W        W39749  37.842  14.095  12.420
76026W        W39750  14.184  11.162   4.268
76027W        W39751  27.501  32.096   3.671
76028W        W39752  41.416  20.193  13.929
76029W        W39753  12.797  40.896   1.854
76030W        W39754  33.116  32.061   3.788
76031W        W39755  32.951  16.222  14.876
76032W        W39756  36.465  40.411   2.794
76033W        W39757  12.298  14.176   0.822
76034W        W39758  13.609  33.520  11.539
76035W        W39759  22.109  35.591   3.214
76036W        W39760  43.416  18.065   1.386
76037W        W39761  15.304   3.828   3.772
76038W        W39762  30.655  38.448   2.226
76039W        W39763  44.359  30.147   4.762
76040W        W39764  39.535  16.682  11.991
76041W        W39765  14.250  24.987  12.080
76042W        W39766  28.609  27.531   0.402
76043W        W39767  10.176  29.518   1.737
76044W        W39768   9.224  33.123  13.352
76045W        W39769  13.163  38.510   3.360
76046W        W39770  27.993   6.300  10.568
76047W        W39771   5.309   4.324  14.290
76048W        W39772  42.784  39.984   4.169
76049W        W39773   2.865  34.589  11.943
76050W        W39774   4.233  31.028  11.006
76051W        W39775   2.774   0.348   4.298
76052W        W39776   5.878   8.787  11.459
76053W        W39777  42.326  39.517  10.578
76054W        W39778  25.688  12.217  13.932
76055W        W39779  24.997   0.279   3.362
76056W        W39780  37.972  10.666  12.080
76057W        W39781  41.005  43.784  13.861
76058W        W39782  17.249  41.458   1.873
76059W        W39783  15.197  32.009  14.450
76060W        W39784   8.225  30.632   3.642
76061W        W39785  43.935  12.134  13.041
76062W        W39786  43.904  33.440   4.755
76063W        W39787  21.075  31.404   4.323
76064W        W39788  36.470  10.261   3.342
76065W        W39789  43.791  31.946  13.993
76066W        W39790   9.809   2.898   4.720
76067W        W39791   9.276  12.696   0.742
76068W        W39792  30.958  26.002   3.371
76069W        W39793   1.898   1.767  13.925
76070W        W39794  36.050  33.389  14.809
76071W        W39795   8.320  21.732   0.917
76072W        W39796  38.530  11.331   0.388
76073W        W39797  15.708  22.163  12.060
76074W        W39798  37.015  25.180  13.989
76075W        W39799  11.292   0.861   3.351
76076W        W39800   5.363  17.695   0.924
76077W        W39801  25.082  34.915   3.859
76078W        W39802  10.681  37.504  10.536
76079W        W39803  12.628  11.139  14.363
76080W        W39804  13.834   5.249  13.982
76081W        W39805  12.307   5.835   5.180
76082W        W39806  17.146  37.509   3.767
76083W        W39807  30.959  43.870   2.263
76084W        W39808   9.362  26.140   3.368
76085W        W39809  11.762  20.711  12.887
76086W        W39810  19.265  16.106   0.729
76087W        W39811  34.069   7.716   0.908
76088W        W39812  34.069  14.827   0.760
76089W        W39813  30.930  32.486  14.378
76090W        W39814  24.172  26.055   0.282
76091W        W39815  11.330  39.495   0.443
76092W        W39816  12.334  23.697   2.209
76093W        W39817  40.347  44.414   5.694
76094W        W39818  18.133  21.560   3.237
76095W        W39819  15.175  43.955   0.895
76096W        W39820  41.984   7.762  13.903
76097W        W39821  42.030   3.937   1.360
76098W        W39822   2.833   5.924  11.024
76099W        W39823  28.561  34.492   2.256
76100W        W39824  20.129  12.306   4.717
76101W        W39825  42.840  41.039  13.028
76102W        W39826  15.302  16.138   3.160
76103W        W39827  12.361  15.326  13.436
76104W        W39828   3.336  24.542   3.381
76105W        W39829  11.754   1.266   1.391
76106W        W39830  17.138  15.218   4.254
76107W        W39831  15.105  24.579   4.253
76108W        W39832  42.390  13.138  11.084
76109W        W39833  39.033  17.772   0.911
76110W        W39834  32.979  17.254  14.946
76111W        W39835  23.614   3.284  10.411
76112W        W39836  12.178   0.785   3.821
76113W        W39837  17.744  36.078  10.632
76114W        W39838  40.364  33.614  11.960
76115W        W39839  39.477   5.307   4.139
76116W        W39840  22.216  25.190   2.338
76117W        W39841  36.547  20.032  13.942
76118W        W39842  35.361   3.264   4.655
76119W        W39843   1.841  40.476  14.278
76120W        W39844  34.600  13.256   2.276
76121W        W39845  17.152  28.462   0.432
76122W        W39846  32.453   7.363  11.413
76123W        W39847  31.425  20.038  10.897
76124W        W39848  18.614  28.952  13.003
76125W        W39849  24.106   5.929  11.435
76126W        W39850  43.020  20.039   4.145
76127W        W39851  40.444   6.380   0.867
76128W        W39852  40.019   7.261  14.846
76129W        W39853  35.040  21.691  12.476
76130W        W39854  34.405  24.604   2.762
76131W        W39855   8.255  23.001  11.970
76132W        W39856  27.620   3.366   0.466
76133W        W39857  15.705  39.871   4.615
76134W        W39858  17.180  19.095   2.734
76135W        W39859  31.913  26.009  10.595
76136W        W39860  18.233  15.585   2.811
76137W        W39861   8.655  36.016  12.964
76138W        W39862  39.825  31.416   0.335
76139W        W39863  41.796   4.722   1.882
76140W        W39864  21.163  39.863  14.321
76141W        W39865  22.530  11.283   1.917
76142W        W39866  14.102   4.373  11.970
76143W        W39867   3.938  37.972  13.319
76144W        W39868   3.422  41.494  13.350
76145W        W39869  24.490  44.872  13.351
76146W        W39870   9.186  33.613   0.922
76147W        W39871  36.954  43.933  10.976
76148W        W39872  35.384  39.053  11.536
76149W        W39873  35.560  22.655   4.140
76150W        W39874   7.827  35.459   4.638
76151W        W39875  27.151  14.137  11.030
76152W        W39876  27.554  34.416  13.329
76153W        W39877  36.859  25.492   4.308
76154W        W39878  18.549   8.830  12.067
76155W        W39879  19.200  33.129  11.537
76156W        W39880  30.499  26.137  14.783
76157W        W39881  35.538  37.913   1.800
76158W        W39882  25.097  26.610   0.953
76159W        W39883  25.015  41.986   2.186
76160W        W39884  13.812  18.787   4.290
76161W        W39885  18.633  17.557  12.505
76162W        W39886  44.986  37.053   5.258
76163W        W39887  33.983  43.836   3.256
76164W        W39888   7.210  11.197  13.513
76165W        W39889   3.341   9.850  13.805
76166W        W39890  18.188  10.337  11.378
76167W        W39891  21.601  34.501  14.485
76168W        W39892  26.017  25.984   4.341
76169W        W39893  20.604   7.696  13.477
76170W        W39894  19.548  35.463   3.852
76171W        W39895  31.606   0.375   2.821
76172W        W39896  32.949   0.794  12.460
76173W        W39897  13.148  23.145   4.333
76174W        W39898   0.355  33.024  10.466
76175W        W39899   7.748  31.405   4.307
76176W        W39900   2.818   0.366  14.402
76177W        W39901   9.665  33.418   4.267
76178W        W39902   8.248  26.206   3.792
76179W        W39903  20.638  18.549  13.967
76180W        W39904  39.532  26.514  11.030
76181W        W39905  33.570  29.981   0.430
76182W        W39906  15.177  12.673   4.260
76183W        W39907   5.411  28.060   4.757
76184W        W39908  41.525  15.621  10.501
76185W        W39909  37.994   2.804   1.297
76186W        W39910   0.418  43.380   1.280
76187W        W39911   5.227   3.417  10.559
76188W        W39912  28.040  40.003  10.893
76189W        W39913   0.964  24.722  13.797
76190W        W39914   8.773  15.613  11.465
76191W        W39915  21.727  24.114   4.266
76192W        W39916   8.894  20.132   4.288
76193W        W39917  27.051  10.374  12.922
76194W        W39918  40.849   9.754  12.042
76195W        W39919   5.279   8.742  14.448
76196W        W39920  24.597   6.221   0.900
76197W        W39921  31.444   6.329  13.969
76198W        W39922  12.350   8.767  10.636
76199W        W39923   1.396  21.689   4.704
76200W        W39924  32.132  35.960   3.746
76201W        W39925  21.040   3.426  14.360
76202W        W39926  28.092  27.173   4.149
76203W        W39927  29.154   8.169   3.809
76204W        W39928  40.316  11.203   0.908
76205W        W39929   4.213  24.115   3.336
76206W        W39930  16.201  29.957   0.931
76207W        W39931  41.905  44.499  13.059
76208W        W39932  39.548  40.390  12.948
76209W        W39933  38.893  40.037  13.386
76210W        W39934  40.517   1.786  11.959
76211W        W39935  28.456  24.624   4.326
76212W        W39936  21.161   9.672   3.286
76213W        W39937  31.918   7.332  13.843
76214W        W39938  18.758  41.361   4.706
76215W        W39939  31.026  32.507  11.422
76216W        W39940   9.211  26.616  12.501
76217W        W39941  13.738  40.928   4.309
76218W        W39942  29.429   1.925   3.834
76219W        W39943  13.717  10.718   1.781
76220W        W39944  39.459  41.333   2.224
76221W        W39945  30.978  18.765   0.413
76222W        W39946  11.726  21.096  12.570
76223W        W39947  20.205  23.617   2.401
76224W        W39948  20.739  40.007  13.380
76225W        W39949  42.392   5.317   3.846
76226W        W39950   5.392  20.267   0.940
76227W        W39951   6.742  11.156   1.866
76228W        W39952   4.769  11.226   4.213
76229W        W39953  15.106  32.616  12.450
76230W        W39954  27.115  37.370  14.792
76231W        W39955  33.026  34.037  10.404
76232W        W39956  31.588  18.669   2.259
76233W        W39957  11.294  34.613   1.719
76234W        W39958  35.595   1.950  13.866
76235W        W39959  27.603  44.318   4.121
76236W        W39960  10.314  22.697  11.508
76237W        W39961  25.698   6.213  14.872
76238W        W39962  29.097  22.227   1.277
76239W        W39963   2.897  28.016   3.160
76240W        W39964   6.183  20.604   3.164
76241W        W39965  26.959  19.582   1.223
76242W        W39966  27.951  15.725   1.698
76243W        W39967  13.842  32.968   0.377
76244W        W39968  31.064  40.543   3.305
76245W        W39969  41.872   5.789  14.515
76246W        W39970  23.208  30.612   4.707
76247W        W39971  15.284  29.575   2.878
76248W        W39972  39.887  42.861   2.312
76249W        W39973   3.325   9.197  13.481
76250W        W39974  21.128   0.364   4.627
76251W        W39975  31.074  41.890   3.841
76252W        W39976   6.762  44.476   4.683
76253W        W39977  17.693  21.564   3.833
76254W        W39978  10.371  12.759  14.459
76255W        W39979  13.757  33.930  12.859
76256W        W39980  29.431   4.698  11.018
76257W        W39981  42.359  14.671   2.732
76258W        W39982  27.062  21.135   0.285
76259W        W39983  31.583  23.231   0.250
76260W        W39984  12.129  24.676   1.902
76261W        W39985  34.541  32.513  12.387
76262W        W39986  43.400  37.048   1.378
76263W        W39987  31.568  14.815   2.726
76264W        W39988  14.260  14.330  10.105
76265W        W39989  26.668   3.726  10.988
76266W        W39990  34.958  11.827  10.535
76267W        W39991  33.889  19.147  14.416
76268W        W39992  30.082  16.582   2.850
76269W        W39993  41.382  43.919  10.121
76270W        W39994  25.591  15.645  14.937
76271W        W39995  20.270  19.251   1.364
76272W        W39996  21.749  35.592  10.501
76273W        W39997  38.007  29.577  12.370
76274W        W39998  30.056  10.758   3.652
76275W        W39999   4.791  10.220  11.514
76276W        W40000   7.401   9.806  13.919
76277W        W40001  21.585  38.061   4.682
76278W        W40002  10.226  17.741   0.797
76279W        W40003  44.810  42.957   2.282
76280W        W40004  22.047  13.275  10.557
76281W        W40005  22.028  38.386  11.428
76282W        W40006  12.830  39.978  12.546
76283W        W40007  35.029  42.396  14.502
76284W        W40008  17.197  32.013  12.087
76285W        W40009  34.481   7.221   4.189
76286W        W40010  28.117  28.470   1.818
76287W        W40011  40.411   5.817  11.610
76288W        W40012  26.200  12.177  12.498
76289W        W40013  38.047  18.219  14.793
76290W        W40014  44.466  32.475   3.215
76291W        W40015  23.165  34.568  13.316
76292W        W40016  34.967  30.573  12.054
76293W        W40017  39.532  28.161   0.958
76294W        W40018  28.469  31.961  11.918
76295W        W40019  38.829  21.032  12.421
76296W        W40020  21.037   1.297   1.722
76297W        W40021  27.149   4.444  10.427
76298W        W40022  36.930  42.992   0.729
76299W        W40023  23.166  11.360   4.223
76300W        W40024  29.026   1.873   1.322
76301W        W40025  11.192  12.809   4.663
76302W        W40026   6.732  23.208   4.175
76303W        W40027  21.245  12.805  12.036
76304W        W40028  42.291  42.877   4.145
76305W        W40029  17.144  36.362   1.217
76306W        W40030   5.888  20.674  10.460
76307W        W40031   0.915  43.379  10.556
76308W        W40032  30.640  32.459   0.897
76309W        W40033  27.616  17.765   4.148
76310W        W40034  19.070  21.059   4.145
76311W        W40035  38.338  21.092   4.290
76312W        W40036  13.348  33.481   5.156
76313W        W40037  41.825  24.626  14.490
76314W        W40038  34.068  39.482   1.717
76315W        W40039  40.460  27.490  12.826
76316W        W40040  24.052   3.903   4.623
76317W        W40041  10.276  31.439  12.375
76318W        W40042   0.755   9.267  11.971
76319W        W40043  35.033  18.622   3.701
76320W        W40044   8.280   9.883  14.936
76321W        W40045  13.140   6.772   3.792
76322W        W40046   6.818  22.545   2.746
76323W        W40047  35.548  31.457   4.613
76324W        W40048  37.051  24.110   1.932
76325W        W40049   0.493   1.285  10.489
76326W        W40050   6.319  13.723  13.463
76327W        W40051  11.245  17.797  10.433
76328W        W40052  23.633  20.660  13.003
76329W        W40053   1.746  28.481  12.399
76330W        W40054  24.000  29.161   2.330
76331W        W40055  18.156  17.270   3.268
76332W        W40056  15.248   4.759  14.934
76333W        W40057  12.777  31.978  10.048
76334W        W40058  22.648  41.003   9.648
76335W        W40059  36.457  30.152  13.525
76336W        W40060  12.648  20.567  11.930
76337W        W40061  34.926  25.145   4.627
76338W        W40062  14.171  37.027  10.050
76339W        W40063  44.770  19.721  12.493
76340W        W40064  43.954  10.865  14.482
76341W        W40065  11.864  34.451   3.692
76342W        W40066  29.636  21.723   1.427
76343W        W40067   0.439  25.713   2.273
76344W        W40068   9.227  29.452  12.006
76345W        W40069  12.188  35.471   2.667
76346W        W40070   7.269  15.822  11.922
76347W        W40071  10.677  15.294   4.751
76348W        W40072  34.936   4.272  14.286
76349W        W40073  30.000   6.407  11.006
76350W        W40074   1.791  23.060  10.500
76351W        W40075  34.420  38.977  14.490
76352W        W40076  43.957  16.600  12.043
76353W        W40077  19.774  28.068   0.468
76354W        W40078   6.263  25.584  11.955
76355W        W40079  41.970  15.579   0.817
76356W        W40080   9.650  34.912   0.793
76357W        W40081  27.670   4.702  11.869
76358W        W40082  15.598  28.510  11.099
76359W        W40083   9.212  26.151   3.688
76360W        W40084  10.344  40.466   5.237
76361W        W40085  24.073   3.225  14.406
76362W        W40086   5.812  17.571   4.635
76363W        W40087   4.234   6.357  10.897
76364W        W40088  37.994  11.725  14.506
76365W        W40089  23.071  16.602  11.051
76366W        W40090  17.132  25.142  12.995
76367W        W40091   3.245  26.065  10.911
76368W        W40092  38.976  11.327   4.152
76369W        W40093  35.027  44.995   3.848
76370W        W40094  10.140  42.470   0.790
76371W        W40095  45.000  22.252   1.730
76372W        W40096  39.375  16.226  14.961
76373W        W40097  11.351  28.947   4.817
76374W        W40098  42.394   0.466  10.511
76375W        W40099  32.472  36.359   3.145
76376W        W40100   9.244   4.323   1.412
76377W        W40101  22.504   5.319   2.418
76378W        W40102  31.153  16.081  11.470
76379W        W40103  41.830  14.764  13.389
76380W        W40104  12.850  41.025   0.382
76381W        W40105  37.958  12.783   4.623
76382W        W40106  16.270   3.353   3.234
76383W        W40107  41.482  18.124   2.851
76384W        W40108  44.800   4.906  12.447
76385W        W40109  38.825  25.018  10.957
76386W        W40110  42.999  40.826   4.672
76387W        W40111  40.921  15.183   3.659
76388W        W40112  43.392  43.991  10.630
76389W        W40113  16.137  42.975   3.699
76390W        W40114   7.324  14.325  14.016
76391W        W40115  31.914  31.137  12.403
76392W        W40116   9.301  28.518   1.874
76393W        W40117   5.732  32.978   2.273
76394W        W40118   7.676  17.200  14.865
76395W        W40119   9.230   0.403  13.383
76396W        W40120   8.843  31.963   0.356
76397W        W40121  40.908  21.077  10.566
76398W        W40122   1.456  13.337   4.164
76399W        W40123  39.029   9.295  10.900
76400W        W40124  27.537  19.136   3.710
76401W        W40125  33.017   7.690   0.318
76402W        W40126  32.067  31.935   4.755
76403W        W40127  30.566  32.634  10.964
76404W        W40128  39.905  44.473   9.653
76405W        W40129  44.885   3.926   1.392
76406W        W40130  43.375  20.161   3.295
76407W        W40131   3.917  40.880   2.780
76408W        W40132   0.306  31.598  12.355
76409W        W40133  34.976  40.462   3.869
76410W        W40134  29.133   8.183   5.232
76411W        W40135  43.781  22.726  11.001
76412W        W40136   2.383  37.464   5.110
76413W        W40137  21.195   0.981  13.453
76414W        W40138   1.405  13.755  12.081
76415W        W40139  39.486  12.140   3.744
76416W        W40140   0.477   2.230  11.937
76417W        W40141   7.251  20.118   2.395
76418W        W40142   5.766  29.582   0.325
76419W        W40143  10.803   4.257   0.738
76420W        W40144  38.065  43.322  11.870
76421W        W40145  38.941  17.066  11.575
76422NA+    NA+40146  26.616   4.725   1.238
76423NA+    NA+40147  35.566   7.289   0.866
76424NA+    NA+40148  26.461   4.856   3.777
76425NA+    NA+40149  35.853  21.534  14.450
76426NA+    NA+40150  18.580  25.103   0.835
76427NA+    NA+40151  29.972  26.983   1.784
76428NA+    NA+40152  23.638  35.062   1.274
76429NA+    NA+40153  32.476  35.873   5.255
76430NA+    NA+40154   1.876   3.358  10.621
76431NA+    NA+40155  11.200  42.480   1.755
76432NA+    NA+40156  42.346  29.093   1.741
76433NA+    NA+40157  19.155  16.132  13.047
76434NA+    NA+40158   4.776   6.272   0.892
76435NA+    NA+40159  44.325  20.614  12.472
76436NA+    NA+40160  20.049   8.797  14.325
76437NA+    NA+40161   5.374   9.673  14.365
76438NA+    NA+40162  32.446  20.113  13.465
76439NA+    NA+40163  38.055  40.841   4.190
76440NA+    NA+40164  26.598  13.743  11.434
76441NA+    NA+40165   1.740  29.539  13.314
76442NA+    NA+40166  30.449  10.815  11.483
76443NA+    NA+40167  24.078  17.072   1.776
76444NA+    NA+40168  25.532  12.260  13.437
76445NA+    NA+40169  14.153   1.929   2.278
76446NA+    NA+40170  33.946  29.992  14.849
76447NA+    NA+40171  19.767   4.303   1.901
76448NA+    NA+40172  14.153   2.415   4.697
76449NA+    NA+40173  31.924  40.305   2.186
76450NA+    NA+40174  14.187  26.489  13.327
76451NA+    NA+40175  40.049  31.897  12.459
76452NA+    NA+40176  36.534   8.784   0.860
76453NA+    NA+40177   3.954  17.257   2.844
76454NA+    NA+40178  21.081   9.309  10.598
76455NA+    NA+40179  44.309  20.244   1.261
76456NA+    NA+40180  15.660  30.067   3.817
76457NA+    NA+40181  23.717  21.193  13.324
76458NA+    NA+40182  21.110  36.492   1.723
76459NA+    NA+40183  33.001  26.668  14.387
76460NA+    NA+40184  30.970  44.337   3.792
76461NA+    NA+40185  26.628  35.943  12.972
76462NA+    NA+40186  43.433  35.880   3.229
76463NA+    NA+40187  19.703  31.569   4.604
76464NA+    NA+40188  15.761  34.901   2.181
76465NA+    NA+40189  14.615  43.808  11.038
76466NA+    NA+40190  21.626  19.608  11.463
76467NA+    NA+40191   7.176   2.464   2.314
76468NA+    NA+40192  43.924  12.277  12.379
76469NA+    NA+40193  16.717  14.130  12.573
76470NA+    NA+40194  17.588  40.494  13.883
76471NA+    NA+40195   6.798  21.163   3.660
76472NA+    NA+40196  20.040  39.919   3.694
76473NA+    NA+40197  16.195  28.073  13.421
76474NA+    NA+40198  29.989  41.972   2.289
76475NA+    NA+40199   6.874  26.056  10.597
76476NA+    NA+40200   1.384  16.772  11.465
76477NA+    NA+40201   1.377  36.961  11.956
76478NA+    NA+40202  16.083   8.706  11.977
76479NA+    NA+40203  44.923  36.401   2.772
76480NA+    NA+40204  23.100  25.690  10.439
76481NA+    NA+40205  16.773  42.848  13.421
76482NA+    NA+40206  28.133  24.206   1.730
76483NA+    NA+40207  11.193  13.222  13.343
76484NA+    NA+40208  24.511   4.925   2.864
76485NA+    NA+40209  40.029  24.504   2.896
76486NA+    NA+40210  31.995  34.913   3.750
76487NA+    NA+40211  15.167   7.879  13.879
76488NA+    NA+40212  21.162  21.529   2.695
76489NA+    NA+40213   0.353  22.184   3.311
76490NA+    NA+40214  33.939   3.898   1.392
76491NA+    NA+40215  12.339  23.131   4.147
76492NA+    NA+40216   5.704   0.989  11.403
76493NA+    NA+40217   5.881  10.280  11.461
76494NA+    NA+40218  39.504  22.063  11.867
76495NA+    NA+40219   4.233  43.417   4.671
76496NA+    NA+40220  35.503  20.096   3.200
76497NA+    NA+40221  11.221  19.177   0.245
76498NA+    NA+40222  28.519  28.006   1.696
76499NA+    NA+40223  10.731  13.716   4.734
76500NA+    NA+40224   5.881  13.118  13.544
76501NA+    NA+40225  19.050  24.697  13.518
76502NA+    NA+40226  23.039   4.421  11.394
76503NA+    NA+40227   6.364  13.135   4.788
76504NA+    NA+40228  38.025  22.186   2.752
76505NA+    NA+40229   2.833  38.473  14.903
76506NA+    NA+40230   0.955  22.669   4.237
76507NA+    NA+40231  19.161  10.834  14.808
76508NA+    NA+40232  11.350   5.297   3.835
76509NA+    NA+40233   7.208  10.749   4.716
76510NA+    NA+40234  33.481   0.291  12.882
76511NA+    NA+40235  34.893  20.190  14.775
76512NA+    NA+40236  10.177  17.637   1.398
76513NA+    NA+40237  12.653  20.197   2.768
76514NA+    NA+40238  21.226   3.756   4.333
76515NA+    NA+40239  12.162  14.734  10.600
76516NA+    NA+40240  16.573  33.518   4.611
76517NA+    NA+40241  43.377  29.652  12.466
76518NA+    NA+40242  10.342  38.928   3.760
76519NA+    NA+40243   6.686   2.403  13.318
76520NA+    NA+40244  10.140  17.627  10.981
76521NA+    NA+40245  17.205  20.768   1.805
76522NA+    NA+40246  40.891   9.730   0.370
76523NA+    NA+40247  32.493   3.809  11.448
76524NA+    NA+40248   2.924   4.410   1.294
76525NA+    NA+40249  27.134  42.373   1.356
76526NA+    NA+40250  29.536   6.395  14.443
76527NA+    NA+40251  44.845  14.219   3.295
76528NA+    NA+40252  22.591  27.607  11.515
76529NA+    NA+40253   7.671  18.707  14.492
76530NA+    NA+40254  20.039  26.671  14.952
76531NA+    NA+40255  40.519  42.931   2.283
76532NA+    NA+40256  25.644  14.683   0.920
76533NA+    NA+40257   8.250   6.880  13.882
76534NA+    NA+40258  18.639   2.729   0.892
76535NA+    NA+40259  19.267  26.110   2.390
76536NA+    NA+40260  23.092  13.614  13.426
76537NA+    NA+40261  42.926  10.268   4.621
76538NA+    NA+40262  23.717  22.082  14.474
76539NA+    NA+40263   2.452  21.567   2.754
76540NA+    NA+40264  32.143  34.569   0.344
76541NA+    NA+40265   3.307  38.021   2.249
76542NA+    NA+40266   3.375  30.498   1.708
76543NA+    NA+40267  44.878  12.721   0.881
76544NA+    NA+40268  22.058  30.941  13.413
76545NA+    NA+40269  23.695  28.112   4.177
76546NA+    NA+40270  28.557  22.037   3.754
76547NA+    NA+40271  13.133  40.453   4.268
76548NA+    NA+40272  44.807  19.545  10.956
76549NA+    NA+40273  28.562  43.500   3.219
76550NA+    NA+40274  44.487  41.451   0.354
76551NA+    NA+40275  19.598  31.642  14.514
76552NA+    NA+40276  14.704  38.945   3.251
76553NA+    NA+40277  26.108   0.300  12.880
76554NA+    NA+40278  10.688   6.686  14.797
76555NA+    NA+40279  42.365  18.612  14.018
76556NA+    NA+40280  44.274  28.062   0.761
76557NA+    NA+40281   1.462  32.411  10.544
76558NA+    NA+40282   9.659  17.166  12.047
76559NA+    NA+40283   6.367  42.468  10.637
76560NA+    NA+40284  33.099  30.440   0.817
76561NA+    NA+40285  30.998  12.171  12.844
76562NA+    NA+40286  24.087  29.482   4.261
76563NA+    NA+40287  17.198  38.864  13.371
76564NA+    NA+40288  35.008  31.068  11.023
76565NA+    NA+40289  38.012  28.445   2.682
76566NA+    NA+40290  11.292  11.345   3.754
76567NA+    NA+40291  19.210   1.256  10.467
76568NA+    NA+40292  26.045  31.611   9.528
76569NA+    NA+40293  30.146  10.828   0.268
76570NA+    NA+40294  22.701  17.192   1.406
76571NA+    NA+40295  32.449   9.154  12.537
76572NA+    NA+40296  37.535   2.250   2.822
76573NA+    NA+40297  42.425  16.591  12.478
76574NA+    NA+40298  14.285   3.943   2.736
76575NA+    NA+40299   2.359  26.638  11.607
76576NA+    NA+40300  27.544   3.418   0.917
76577NA+    NA+40301  44.338  17.587   4.657
76578NA+    NA+40302  28.106  13.814   1.815
76579NA+    NA+40303  12.636  21.736   0.292
76580NA+    NA+40304  10.822  43.851   0.423
76581NA+    NA+40305  44.979   6.738  14.418
76582NA+    NA+40306  37.501  26.684   3.304
76583NA+    NA+40307  28.087  16.626   0.752
76584NA+    NA+40308  42.791  26.017   3.286
76585NA+    NA+40309  28.662  23.734  12.075
76586NA+    NA+40310  10.217  14.103  10.070
76587NA+    NA+40311  21.569  34.464   0.399
76588NA+    NA+40312  11.211  42.883   2.717
76589NA+    NA+40313  18.273   5.900   3.200
76590NA+    NA+40314  14.229   1.326  13.013
76591NA+    NA+40315  27.016  39.019   3.370
76592NA+    NA+40316  17.618   0.368  11.391
76593NA+    NA+40317   0.408  25.985  14.459
76594NA+    NA+40318  13.791  38.341  12.472
76595NA+    NA+40319  22.624  26.953  14.774
76596NA+    NA+40320  26.633  11.714   3.256
76597NA+    NA+40321  40.417  34.517  11.393
76598NA+    NA+40322  44.361  39.415   9.922
76599NA+    NA+40323  30.417  13.624  12.468
76600NA+    NA+40324   2.379  41.524   3.222
76601NA+    NA+40325   4.436  32.622  14.924
76602NA+    NA+40326  42.303  28.590  10.556
76603NA+    NA+40327  21.262  35.858  10.463
76604NA+    NA+40328  39.540  24.045  13.452
76605NA+    NA+40329  23.700  32.888   4.614
76606NA+    NA+40330  42.409  21.138  10.067
76607NA+    NA+40331  38.932  36.996  14.847
76608NA+    NA+40332  26.175   9.379   3.238
76609NA+    NA+40333  17.252  12.851   2.264
76610NA+    NA+40334  28.459   3.835  10.513
76611NA+    NA+40335  25.176  27.102  11.433
76612NA+    NA+40336  30.545  22.219  12.975
76613NA+    NA+40337  34.978  40.377   4.205
76614NA+    NA+40338  33.615   8.183   2.282
76615NA+    NA+40339  38.936  43.331   9.663
76616NA+    NA+40340   1.379  25.161  13.822
76617NA+    NA+40341  29.150  26.551  14.290
76618NA+    NA+40342  16.665  14.728   4.198
76619NA+    NA+40343  12.257   9.701   4.727
76620NA+    NA+40344  10.870  24.594  13.928
76621NA+    NA+40345  21.517  36.902  13.384
76622NA+    NA+40346   4.747  24.218  14.761
76623NA+    NA+40347  24.578  44.340  10.514
76624NA+    NA+40348   9.159  34.565   3.210
76625NA+    NA+40349  41.417  44.382  14.513
76626NA+    NA+40350   5.308  26.688  11.106
76627NA+    NA+40351  16.665  44.970  12.931
76628NA+    NA+40352  44.387  14.268   4.251
76629NA+    NA+40353  38.369  15.174  11.901
76630NA+    NA+40354  39.398  30.025   2.892
76631NA+    NA+40355   5.206  11.814  13.492
76632NA+    NA+40356  41.907  12.684   0.807
76633NA+    NA+40357  39.366  34.406  11.454
76634NA+    NA+40358  13.756   4.218  10.937
76635NA+    NA+40359  30.639  19.177   4.228
76636NA+    NA+40360  42.507  18.076  10.936
76637NA+    NA+40361  36.555  23.156  13.536
76638NA+    NA+40362  29.543  41.332   1.237
76639NA+    NA+40363  19.142   2.867  14.782
76640NA+    NA+40364  36.915  35.393  11.047
76641NA+    NA+40365  25.640  36.062  12.354
76642NA+    NA+40366  39.413   6.358   1.282
76643NA+    NA+40367  26.047  42.392  10.640
76644NA+    NA+40368   1.300  30.108   0.746
76645NA+    NA+40369  18.125  22.999   4.700
76646NA+    NA+40370  29.585  26.586   9.969
76647NA+    NA+40371   8.901  39.906   1.718
76648NA+    NA+40372  20.586  32.954   0.444
76649NA+    NA+40373  16.160  36.030   2.751
76650NA+    NA+40374  22.210  44.282  12.461
76651NA+    NA+40375   8.196  13.277   0.258
76652NA+    NA+40376  22.204  32.097  13.934
76653NA+    NA+40377  13.728  12.157  14.328
76654NA+    NA+40378  25.624  12.160  14.868
76655NA+    NA+40379   4.293  26.965  11.420
76656NA+    NA+40380  33.445   4.856   3.335
76657NA+    NA+40381  23.541  38.508  14.477
76658NA+    NA+40382  18.558  17.598   1.372
76659NA+    NA+40383   4.718  17.123  12.498
76660NA+    NA+40384  38.429  16.169  13.478
76661NA+    NA+40385  29.435  40.872   2.322
76662NA+    NA+40386  33.469  39.454   1.293
76663NA+    NA+40387  42.500  40.819  10.913
76664NA+    NA+40388  11.272  22.163  11.983
76665NA+    NA+40389  28.667  20.038   2.698
76666NA+    NA+40390  43.865  39.332  11.913
76667NA+    NA+40391  39.026  15.155  10.525
76668NA+    NA+40392  44.373  23.734  13.997
76669NA+    NA+40393  18.694  34.964  12.979
76670NA+    NA+40394  26.998  25.641  10.472
76671NA+    NA+40395   5.363  17.599   4.188
76672NA+    NA+40396  36.469  33.426   1.905
76673NA+    NA+40397  21.108  26.156   1.211
76674NA+    NA+40398  37.012  15.280   2.188
76675NA+    NA+40399  12.187  39.880   2.329
76676NA+    NA+40400  37.356  13.743  14.431
76677NA+    NA+40401  18.773  24.523   1.881
76678NA+    NA+40402  25.143  16.792  13.882
76679NA+    NA+40403  22.185  16.692  12.945
76680NA+    NA+40404  32.571  21.144   0.841
76681NA+    NA+40405  16.773  25.477  14.804
76682NA+    NA+40406  44.977  26.691  13.400
76683NA+    NA+40407  17.690  13.819  12.083
76684NA+    NA+40408  31.634  41.908  13.987
76685NA+    NA+40409   9.727   5.238   1.842
76686NA+    NA+40410  35.051  16.760  12.885
76687NA+    NA+40411  25.215  13.295  10.513
76688NA+    NA+40412   9.884  44.768   0.800
76689NA+    NA+40413   2.230   5.727  14.009
76690NA+    NA+40414  24.097  34.419  11.082
76691NA+    NA+40415  29.066  12.655   1.414
76692NA+    NA+40416  35.965  39.420  11.477
76693NA+    NA+40417   4.843  15.725   2.674
76694NA+    NA+40418  40.464  41.320  10.479
76695NA+    NA+40419   9.239  36.539   3.197
76696NA+    NA+40420  16.215  37.505   3.767
76697NA+    NA+40421  39.004  11.330  11.483
76698NA+    NA+40422  20.676  25.549  12.930
76699NA+    NA+40423  32.966  30.075  14.365
76700NA+    NA+40424  34.002  27.970  14.913
76701NA+    NA+40425  29.966  25.967   3.184
76702NA+    NA+40426  37.460  40.500   5.139
76703NA+    NA+40427  24.659  38.343  10.995
76704NA+    NA+40428  44.480   5.307  12.036
76705NA+    NA+40429   5.771  20.183  13.937
76706NA+    NA+40430  41.019  17.611  11.061
76707NA+    NA+40431  16.280  12.844  14.323
76708NA+    NA+40432  31.634   8.880   1.722
76709NA+    NA+40433  31.033  34.602   1.699
76710NA+    NA+40434  20.247  23.000  12.001
76711NA+    NA+40435   7.706   9.885  12.385
76712NA+    NA+40436  19.697  19.572  13.850
76713NA+    NA+40437  33.120  26.975   4.621
76714NA+    NA+40438  35.526  22.186  12.507
76715NA+    NA+40439  22.029  13.729   4.601
76716NA+    NA+40440  33.417  11.661   3.332
76717NA+    NA+40441  26.659  12.807  11.540
76718NA+    NA+40442  19.189   5.819  13.887
76719NA+    NA+40443   9.748  24.982  14.472
76720NA+    NA+40444  32.925  39.358   0.384
76721NA+    NA+40445  39.832  30.559  10.577
76722NA+    NA+40446  18.726   9.375  14.450
76723NA+    NA+40447  16.617  32.938  11.878
76724NA+    NA+40448   4.243  18.663   2.377
76725NA+    NA+40449  19.758  24.537   0.936
76726NA+    NA+40450  24.576  38.898  12.484
76727NA+    NA+40451  40.367  26.159   1.285
76728NA+    NA+40452   9.249  16.710   3.727
76729NA+    NA+40453  40.858   1.863  11.560
76730NA+    NA+40454  36.406   8.812   2.803
76731NA+    NA+40455  41.382   1.356  11.425
76732NA+    NA+40456   4.247  23.147  14.357
76733NA+    NA+40457   9.156  32.565   4.782
76734NA+    NA+40458  34.526   8.696  14.028
76735NA+    NA+40459   7.397  14.660   2.752
76736NA+    NA+40460   3.253  39.524  14.384
76737NA+    NA+40461  13.206  35.509   2.689
76738NA+    NA+40462  44.795   3.741   1.837
76739NA+    NA+40463  16.707   8.806   0.267
76740NA+    NA+40464  19.662   8.183  14.999
76741NA+    NA+40465   5.918  28.991   3.671
76742NA+    NA+40466  43.975   8.787   4.152
76743NA+    NA+40467  22.043   8.207   0.911
76744NA+    NA+40468   9.264  14.741  13.036
76745NA+    NA+40469  42.324   5.775   0.274
76746NA+    NA+40470  15.245   6.726  14.985
76747NA+    NA+40471  17.692  36.406  14.002
76748NA+    NA+40472   4.858  39.904  11.496
76749NA+    NA+40473  34.071   8.357  12.539
76750NA+    NA+40474   0.954  41.015  11.453
76751NA+    NA+40475   1.444  16.269  14.516
76752NA+    NA+40476  11.759  27.158  13.511
76753NA+    NA+40477  15.753  26.098   4.234
76754NA+    NA+40478  23.711  39.066   2.267
76755NA+    NA+40479  40.411  20.236   3.175
76756NA+    NA+40480   9.251  34.526   4.731
76757NA+    NA+40481  33.068  32.490  10.636
76758NA+    NA+40482   7.686  29.489   1.261
76759NA+    NA+40483  43.428   1.838  10.087
76760NA+    NA+40484   8.176  20.574   0.921
76761NA+    NA+40485  22.675   7.755   5.231
76762NA+    NA+40486  18.290   8.363  11.102
76763NA+    NA+40487  43.792  27.540  10.515
76764NA+    NA+40488  23.735  40.485   4.140
76765NA+    NA+40489  39.460  17.623   1.399
76766NA+    NA+40490  30.521  23.722   0.803
76767NA+    NA+40491  18.725  10.304  11.570
76768NA+    NA+40492  11.155  36.368   4.236
76769NA+    NA+40493  44.767   2.824  11.517
76770NA+    NA+40494  30.513   0.472   1.325
76771NA+    NA+40495   1.810   0.349   1.318
76772NA+    NA+40496   4.806  11.253  11.493
76773NA+    NA+40497  26.182  18.667  12.343
76774NA+    NA+40498  35.039  18.655   0.751
76775NA+    NA+40499   9.864   5.390   4.258
76776NA+    NA+40500  22.067  43.399   3.176
76777NA+    NA+40501   6.797  16.296  11.949
76778NA+    NA+40502   7.898  35.462   3.167
76779NA+    NA+40503  33.588   6.731  13.469
76780NA+    NA+40504  10.197  17.677  14.862
76781NA+    NA+40505   7.796  27.542  12.826
76782NA+    NA+40506  32.395  20.666   2.797
76783NA+    NA+40507  16.146  25.526  13.461
76784NA+    NA+40508  16.713   0.409  12.984
76785NA+    NA+40509  20.060  24.202   3.729
76786NA+    NA+40510  35.426  34.603  14.395
76787NA+    NA+40511  25.175   3.346  13.332
76788NA+    NA+40512   9.852   9.717   4.267
76789NA+    NA+40513  26.962  38.852   4.697
76790NA+    NA+40514  16.240  23.075  12.985
76791NA+    NA+40515  26.199  21.210  11.408
76792NA+    NA+40516  33.088  39.939   3.740
76793NA+    NA+40517   8.731  35.429  11.540
76794NA+    NA+40518  12.710   9.672   1.829
76795NA+    NA+40519   7.272  11.681  13.489
76796NA+    NA+40520  26.579  21.152   3.770
76797NA+    NA+40521  24.180  17.200   3.200
76798NA+    NA+40522  18.567  12.212  14.344
76799NA+    NA+40523   6.276  37.403  11.926
76800NA+    NA+40524  13.139  24.493  12.007
76801NA+    NA+40525  39.038  16.177  11.437
76802NA+    NA+40526  22.038  21.142   5.250
76803NA+    NA+40527  38.389  10.796   1.880
76804NA+    NA+40528  24.165  18.678  10.449
76805NA+    NA+40529  10.279  40.843  12.448
76806NA+    NA+40530  42.985  35.998   1.446
76807NA+    NA+40531   1.934  30.969   1.911
76808NA+    NA+40532  12.211   5.300  14.303
76809NA+    NA+40533  10.339  37.014  13.998
76810NA+    NA+40534  38.537  40.505  13.463
76811NA+    NA+40535   7.247  10.194  14.380
76812NA+    NA+40536  26.161  28.031  10.534
76813NA+    NA+40537  39.966   5.326   0.912
76814NA+    NA+40538   7.765   0.419   1.288
76815NA+    NA+40539   7.762  15.814  13.502
76816NA+    NA+40540  40.917  10.758   2.774
76817NA+    NA+40541  22.600   3.266  13.424
76818NA+    NA+40542  17.736  16.812  12.922
76819NA+    NA+40543  23.693  24.670   1.419
76820NA+    NA+40544  26.650   5.254   4.779
76821NA+    NA+40545  30.915  37.550  10.904
76822NA+    NA+40546  24.109  43.011   2.760
76823NA+    NA+40547  14.779   4.409   1.334
76824NA+    NA+40548   7.389   0.451   2.231
76825NA+    NA+40549  16.784  29.554  14.391
76826NA+    NA+40550  30.603  39.837   1.369
76827NA+    NA+40551  30.924  41.998  13.981
76828NA+    NA+40552  38.868  15.760   2.333
76829NA+    NA+40553  43.288  23.555  14.293
76830NA+    NA+40554  10.160  22.738   2.783
76831NA+    NA+40555  23.087  23.573   2.672
76832NA+    NA+40556   6.764  37.049   4.122
76833NA+    NA+40557  16.784  43.379  14.903
76834NA+    NA+40558  26.160  42.880   3.773
76835NA+    NA+40559  31.504   8.851   3.302
76836NA+    NA+40560  29.611  13.716   1.228
76837NA+    NA+40561  15.187  44.444   2.361
76838NA+    NA+40562  28.047  17.208   3.276
76839NA+    NA+40563   8.162  25.202   1.929
76840NA+    NA+40564  13.643   8.228  11.958
76841NA+    NA+40565   5.718  15.279   3.673
76842NA+    NA+40566  33.532   8.295  10.549
76843NA+    NA+40567  21.608  26.640  14.511
76844NA+    NA+40568   6.746  10.845   4.221
76845NA+    NA+40569  15.654  23.987   4.245
76846NA+    NA+40570  24.681  28.604   1.281
76847NA+    NA+40571   3.794  13.213   1.802
76848NA+    NA+40572  10.739  43.940  14.953
76849NA+    NA+40573  36.021  13.261  13.841
76850NA+    NA+40574   8.381   0.846   4.149
76851NA+    NA+40575   3.340  18.566   0.790
76852NA+    NA+40576  31.972  19.129   1.901
76853NA+    NA+40577   5.795  42.935   1.335
76854NA+    NA+40578  14.593  29.165  12.406
76855NA+    NA+40579  41.954  11.372  12.074
76856NA+    NA+40580   3.434   6.373   4.316
76857NA+    NA+40581  32.010  31.453  14.841
76858NA+    NA+40582   9.215  15.211   1.700
76859NA+    NA+40583  33.529  20.629   1.824
76860NA+    NA+40584  36.075   2.377  10.929
76861NA+    NA+40585  37.965  44.315   1.263
76862NA+    NA+40586  21.735   8.738   2.200
76863NA+    NA+40587  15.297  27.160  11.513
76864NA+    NA+40588  10.849  12.713  10.952
76865NA+    NA+40589  30.962  40.922   4.677
76866NA+    NA+40590  27.136  38.941   2.222
76867NA+    NA+40591  24.166  27.650  12.973
76868NA+    NA+40592  44.789  30.049  13.980
76869NA+    NA+40593  42.876  29.949   2.418
76870NA+    NA+40594  18.624  16.752   3.695
76871NA+    NA+40595  18.277  19.617   3.699
76872NA+    NA+40596  18.688  21.134   9.969
76873NA+    NA+40597  36.407  36.528   2.338
76874NA+    NA+40598  33.877  38.847   2.256
76875NA+    NA+40599  33.878  18.231  13.466
76876NA+    NA+40600   8.851  38.047   4.601
76877NA+    NA+40601  19.119  29.589   0.833
76878NA+    NA+40602  11.798  10.660   3.297
76879NA+    NA+40603  17.568  29.531   0.772
76880NA+    NA+40604  11.187  24.663   2.234
76881NA+    NA+40605  38.980  24.532  13.934
76882NA+    NA+40606  11.270   3.324  14.835
76883NA+    NA+40607  22.223  11.306   3.634
76884NA+    NA+40608  33.425  21.106   4.831
76885NA+    NA+40609  12.311  36.438   1.821
76886NA+    NA+40610  22.161  33.108  10.904
76887NA+    NA+40611  33.489  28.137   2.883
76888NA+    NA+40612  10.372  43.276   0.964
76889NA+    NA+40613  13.218  23.173  11.057
76890NA+    NA+40614   0.295  42.482   0.771
76891NA+    NA+40615  40.037  19.534   1.726
76892NA+    NA+40616  42.284   1.347  10.639
76893NA+    NA+40617  15.612  19.632   1.906
76894NA+    NA+40618  23.717   4.783   0.749
76895NA+    NA+40619  20.731  18.092   1.274
76896NA+    NA+40620  11.743  42.008  10.438
76897NA+    NA+40621  37.415  42.451   3.160
76898NA+    NA+40622  25.504   5.272  10.465
76899NA+    NA+40623  32.537  37.436  12.858
76900NA+    NA+40624  37.512  41.458   5.202
76901NA+    NA+40625   0.341  10.773  11.896
76902NA+    NA+40626  40.321  43.495   0.924
76903NA+    NA+40627  22.641  26.976   4.812
76904NA+    NA+40628  15.678   0.837  11.449
76905NA+    NA+40629  17.208  29.954  12.580
76906NA+    NA+40630  30.433   3.914  14.759
76907NA+    NA+40631   8.703  40.968  12.996
76908NA+    NA+40632  37.918  42.777  11.076
76909NA+    NA+40633  35.864  23.987   1.436
76910NA+    NA+40634  43.448  35.362   2.394
76911NA+    NA+40635  18.730   1.401  13.915
76912NA+    NA+40636  36.973  44.306   2.847
76913NA+    NA+40637  20.173  36.372   1.847
76914NA+    NA+40638  23.508  27.620  10.153
76915NA+    NA+40639  29.523  41.401   2.859
76916NA+    NA+40640  38.492  23.220   4.683
76917NA+    NA+40641   5.809   9.825   2.779
76918NA+    NA+40642   6.771   1.836  11.071
76919NA+    NA+40643  13.309  38.342   0.828
76920NA+    NA+40644   3.929  35.397  11.872
76921NA+    NA+40645  41.032  33.075   4.257
76922NA+    NA+40646  29.060   1.287  13.812
76923NA+    NA+40647   4.423  14.765   1.273
76924NA+    NA+40648  15.093  16.184   2.679
76925NA+    NA+40649  32.912   3.952  12.560
76926NA+    NA+40650  24.479  20.042   4.243
76927NA+    NA+40651  29.539   6.801   0.738
76928NA+    NA+40652  28.963  42.883  12.916
76929NA+    NA+40653  13.673  33.385   3.631
76930NA+    NA+40654  13.644  23.189  11.611
76931NA+    NA+40655  32.578  40.434   3.764
76932NA+    NA+40656  22.231  40.371   2.775
76933NA+    NA+40657   3.255  36.560   2.225
76934NA+    NA+40658   4.858  33.989  14.867
76935NA+    NA+40659   1.451  25.558  12.538
76936NA+    NA+40660  36.935  20.153   0.462
76937NA+    NA+40661  37.544   0.378   3.793
76938NA+    NA+40662  37.927  18.148  11.477
76939NA+    NA+40663   3.780  29.139  10.616
76940NA+    NA+40664  33.579   6.380   4.756
76941NA+    NA+40665   9.328  17.740  13.941
76942NA+    NA+40666   8.756   5.249   3.797
76943NA+    NA+40667  29.082   9.387  11.955
76944NA+    NA+40668  17.280  22.248   3.217
76945NA+    NA+40669  23.494  34.495  11.416
76946NA+    NA+40670  12.308  29.090   2.693
76947NA+    NA+40671   0.817  18.263  10.089
76948NA+    NA+40672  19.628  37.950   1.843
76949NA+    NA+40673  33.101  25.555   0.775
76950NA+    NA+40674  11.768  42.377  14.412
76951NA+    NA+40675  44.933   9.654   0.858
76952NA+    NA+40676  14.112   4.886  14.283
76953NA+    NA+40677  41.988  38.549   3.355
76954NA+    NA+40678  24.000  24.492   0.772
76955NA+    NA+40679  42.457  41.358   1.811
76956NA+    NA+40680  42.341   3.260   4.273
76957NA+    NA+40681  11.217  14.749  11.432
76958NA+    NA+40682  21.197   6.249  11.898
76959NA+    NA+40683  44.489  38.559  11.034
76960NA+    NA+40684  26.976  27.069  11.891
76961NA+    NA+40685   0.828  44.884  13.317
76962NA+    NA+40686   8.297   6.336  10.987
76963NA+    NA+40687  15.704  26.642  10.558
76964NA+    NA+40688  23.227  36.976  10.627
76965NA+    NA+40689  16.710  21.227  10.575
76966NA+    NA+40690  14.313  28.979   2.285
76967NA+    NA+40691  32.455  23.011  12.944
76968NA+    NA+40692  38.401  29.639   2.679
76969NA+    NA+40693   1.777  38.530  13.373
76970NA+    NA+40694  34.993   7.767  13.865
76971NA+    NA+40695  28.126   4.905   4.686
76972NA+    NA+40696   0.436   5.205  13.893
76973NA+    NA+40697  22.171  41.387  13.819
76974NA+    NA+40698  24.705  40.961  11.488
76975NA+    NA+40699  25.614   2.751   1.326
76976NA+    NA+40700  12.725  24.039   0.850
76977NA+    NA+40701  22.592  21.134   4.635
76978NA+    NA+40702  23.100  13.784  14.806
76979NA+    NA+40703   5.353  42.402  13.851
76980NA+    NA+40704  11.795  41.414  14.906
76981NA+    NA+40705  28.956  43.912   1.809
76982NA+    NA+40706   4.347  20.048  10.950
76983NA+    NA+40707  24.119  42.812   3.219
76984NA+    NA+40708  29.631  25.015  11.946
76985NA+    NA+40709  27.953  13.106  13.988
76986NA+    NA+40710  27.640   6.854   2.825
76987NA+    NA+40711  30.433  19.266   0.301
76988NA+    NA+40712  43.324  42.401  13.919
76989NA+    NA+40713  30.936   8.242  12.394
76990NA+    NA+40714  23.221   8.887   0.932
76991NA+    NA+40715  16.772  27.992   4.218
76992NA+    NA+40716  41.872  31.056   3.697
76993NA+    NA+40717  39.040  17.224  13.894
76994NA+    NA+40718  13.653  44.935   4.216
76995NA+    NA+40719  18.263  34.093  14.774
76996NA+    NA+40720  14.158   6.308   9.927
76997NA+    NA+40721  15.125  17.672   1.858
76998NA+    NA+40722  17.684  20.604  12.437
76999NA+    NA+40723  20.594   4.761  14.803
77000NA+    NA+40724   5.816  12.356  14.432
77001NA+    NA+40725  26.674   8.184  13.037
77002NA+    NA+40726  41.807  28.077   3.366
77003NA+    NA+40727  13.162  24.586  14.379
77004NA+    NA+40728  25.037   0.270   4.301
77005NA+    NA+40729  18.216  42.997  13.947
77006NA+    NA+40730  19.624   9.784   4.644
77007NA+    NA+40731  24.569  30.628   5.157
77008NA+    NA+40732  17.685  40.805   4.609
77009NA+    NA+40733  37.907   2.417   1.309
77010NA+    NA+40734   9.645  13.607   2.242
77011NA+    NA+40735  25.058  40.010  11.034
77012NA+    NA+40736  36.577  44.947   1.931
77013NA+    NA+40737  15.297   6.790   1.428
77014NA+    NA+40738  11.263  31.977   4.693
77015NA+    NA+40739  31.475  18.129  11.464
77016NA+    NA+40740  27.070  36.059   1.411
77017NA+    NA+40741   2.268  36.048   1.826
77018NA+    NA+40742  26.615  32.016  14.020
77019NA+    NA+40743  44.418   2.263   4.278
77020NA+    NA+40744  32.112  17.090   0.425
77021NA+    NA+40745  42.470   7.297   2.697
77022NA+    NA+40746  18.267  36.399  11.112
77023NA+    NA+40747  38.882   5.860   4.304
77024NA+    NA+40748  34.061  43.309   0.440
77025NA+    NA+40749  13.711  38.883   0.943
77026NA+    NA+40750   4.394  29.066  14.788
77027NA+    NA+40751  33.003   2.733  11.456
77028NA+    NA+40752  17.072  30.477  13.453
77029NA+    NA+40753  39.403  41.893  11.403
77030NA+    NA+40754  35.030  19.266   4.785
77031NA+    NA+40755  18.093  25.203   3.266
77032NA+    NA+40756  19.770  10.282   0.812
77033NA+    NA+40757  35.981   3.921   0.738
77034NA+    NA+40758  21.028  41.827  11.408
77035NA+    NA+40759  15.245  43.860   0.287
77036NA+    NA+40760  41.399  39.529  13.368
77037NA+    NA+40761   5.262  36.537  13.536
77038NA+    NA+40762  24.986  25.137   2.235
77039NA+    NA+40763  33.091  38.330  13.489
77040NA+    NA+40764  22.121  12.117   2.788
77041NA+    NA+40765  42.373  17.257   1.899
77042NA+    NA+40766   4.934  35.426  10.431
77043NA+    NA+40767  12.719  30.413  14.848
77044NA+    NA+40768  19.250  22.195   1.873
77045NA+    NA+40769  14.675  44.886  13.322
77046NA+    NA+40770  35.929   7.697   0.933
77047NA+    NA+40771  16.207  19.598   2.752
77048NA+    NA+40772  23.513  11.178  12.935
77049NA+    NA+40773   4.906   8.288   2.830
77050NA+    NA+40774  17.735  33.536  12.923
77051NA+    NA+40775  29.970   6.786  11.477
77052NA+    NA+40776  29.089   4.361   3.267
77053NA+    NA+40777  34.891   3.256  11.003
77054NA+    NA+40778  15.148  11.842  12.942
77055NA+    NA+40779  24.011  14.760   0.865
77056NA+    NA+40780  26.605   3.274  10.505
77057NA+    NA+40781  13.261  33.989  11.493
77058NA+    NA+40782  33.031  28.030  10.440
77059NA+    NA+40783  27.061  24.721   1.293
77060NA+    NA+40784  42.471  42.948  13.359
77061NA+    NA+40785   8.681  44.991  11.106
77062NA+    NA+40786  16.723  28.014  12.359
77063NA+    NA+40787  40.803   5.380   1.745
77064NA+    NA+40788  24.069   0.422  13.427
77065NA+    NA+40789  34.876  32.091   3.267
77066NA+    NA+40790   0.747  37.403  13.402
77067NA+    NA+40791  30.652   9.886  13.858
77068NA+    NA+40792  37.577  32.421  12.546
77069NA+    NA+40793  21.134  36.453  14.759
77070NA+    NA+40794  39.030  18.221   1.833
77071NA+    NA+40795  15.772  11.277  10.624
77072NA+    NA+40796  17.613  30.050   1.837
77073NA+    NA+40797  31.441  14.605   3.244
77074NA+    NA+40798   0.768   8.234   4.264
77075NA+    NA+40799   3.948  40.966   4.758
77076NA+    NA+40800  31.991  14.170   4.149
77077NA+    NA+40801   3.369  38.491  11.061
77078NA+    NA+40802  11.343   0.793  10.512
77079NA+    NA+40803  38.524  14.195  10.940
77080NA+    NA+40804  13.318  38.463  11.468
77081NA+    NA+40805  24.479  36.043   2.850
77082NA+    NA+40806  16.661   9.207   0.937
77083NA+    NA+40807  30.573  14.110   2.720
77084NA+    NA+40808  25.989  25.154  10.489
77085NA+    NA+40809  15.178  40.356  10.504
77086NA+    NA+40810  36.505  29.631   1.355
77087NA+    NA+40811  44.412   9.793   3.337
77088NA+    NA+40812  23.091  28.074  10.893
77089NA+    NA+40813  42.308  13.241  12.970
77090NA+    NA+40814  14.127   2.387   4.145
77091NA+    NA+40815  23.717  41.455   2.850
77092NA+    NA+40816  18.158  43.474   1.292
77093NA+    NA+40817  31.542   5.803  10.411
77094NA+    NA+40818  13.672   2.254  12.525
77095NA+    NA+40819  35.985  16.092   2.709
77096NA+    NA+40820  41.019  43.973  13.327
77097NA+    NA+40821  18.261   0.278   4.331
77098NA+    NA+40822  42.010  25.603  11.032
77099NA+    NA+40823  23.724  33.467   0.832
77100NA+    NA+40824  34.497  22.588   1.384
77101NA+    NA+40825  37.019  11.698  13.436
77102NA+    NA+40826  26.118  17.791  12.084
77103NA+    NA+40827  24.021  16.778  10.524
77104NA+    NA+40828   4.745  16.671   4.148
77105NA+    NA+40829   6.404  43.365  13.344
77106NA+    NA+40830   7.738  12.224   3.387
77107NA+    NA+40831  42.990  42.946  12.987
77108NA+    NA+40832   0.469   5.419   2.313
77109NA+    NA+40833  44.837   6.916  11.941
77110NA+    NA+40834   4.753  23.020  14.023
77111NA+    NA+40835  31.953  29.059   4.762
77112NA+    NA+40836  16.642  31.629   2.663
77113NA+    NA+40837  18.157  39.320  14.873
77114NA+    NA+40838  40.419  32.122   3.198
77115NA+    NA+40839  28.149  33.066  10.067
77116NA+    NA+40840   2.357  34.867   2.831
77117NA+    NA+40841  21.021  32.012  11.971
77118NA+    NA+40842   7.862  25.536  14.381
77119NA+    NA+40843  39.841  41.032  11.114
77120NA+    NA+40844  10.757  42.029   0.458
77121NA+    NA+40845   6.413  42.978   2.880
77122NA+    NA+40846  12.305  32.428  12.087
77123NA+    NA+40847  38.857  35.066   1.922
77124NA+    NA+40848  32.074   1.898  13.012
77125NA+    NA+40849   8.387   4.345   0.418
77126NA+    NA+40850   0.318  30.483   2.368
77127NA+    NA+40851  17.792  17.702   3.249
77128NA+    NA+40852  26.989  24.135  12.460
77129NA+    NA+40853  30.594   1.975   4.823
77130NA+    NA+40854  12.221   0.775  12.839
77131NA+    NA+40855  44.284   6.760  11.510
77132NA+    NA+40856  28.613  12.615  13.946
77133NA+    NA+40857  20.173  20.639  13.791
77134NA+    NA+40858  21.722   4.357  13.431
77135NA+    NA+40859   1.416  43.801   2.894
77136NA+    NA+40860  21.233  26.655  12.343
77137NA+    NA+40861  10.643  32.539  14.434
77138NA+    NA+40862  34.603  23.062  14.316
77139NA+    NA+40863   8.691   3.933   2.374
77140NA+    NA+40864  34.415  34.584   3.816
77141NA+    NA+40865  22.195  39.882  11.548
77142NA+    NA+40866   1.871  42.484  14.347
77143NA+    NA+40867  29.526  23.201   3.355
77144NA+    NA+40868  29.598  26.182  12.026
77145NA+    NA+40869  40.313  33.094   0.759
77146NA+    NA+40870  32.433   5.320  12.448
77147NA+    NA+40871  18.255  44.414   2.782
77148NA+    NA+40872   2.239  20.098  10.561
77149NA+    NA+40873  18.694   9.243   0.370
77150NA+    NA+40874  41.904   8.769   0.440
77151NA+    NA+40875  22.553  34.417   3.379
77152NA+    NA+40876  18.559  14.652   4.293
77153NA+    NA+40877  33.020  39.048   2.792
77154NA+    NA+40878  23.585  19.640   4.826
77155NA+    NA+40879  15.146  38.515  12.994
77156NA+    NA+40880  42.916  40.456  11.008
77157NA+    NA+40881  26.578  33.086   2.867
77158NA+    NA+40882  27.043  29.492  14.807
77159NA+    NA+40883  39.907  37.440   3.649
77160NA+    NA+40884  43.434   8.168  11.062
77161NA+    NA+40885  11.206  14.280  14.859
77162NA+    NA+40886   1.347  35.465  12.984
77163NA+    NA+40887  34.388  25.153  12.516
77164NA+    NA+40888  12.701  22.671   4.636
77165NA+    NA+40889   8.868   5.409  14.009
77166NA+    NA+40890  11.745  37.894   4.296
77167NA+    NA+40891  27.478  30.941   1.892
77168NA+    NA+40892  26.146  36.975  11.927
77169NA+    NA+40893  17.575  44.790   4.675
77170NA+    NA+40894  44.851  18.708  12.397
77171NA+    NA+40895   9.748  39.411   0.268
77172NA+    NA+40896  34.905  17.230  14.771
77173NA+    NA+40897   7.339  40.380  13.499
77174NA+    NA+40898  19.090  33.454  12.015
77175NA+    NA+40899  11.773  27.960  11.961
77176NA+    NA+40900  17.276  12.174  10.015
77177NA+    NA+40901  10.818  39.467  11.416
77178NA+    NA+40902  17.771  17.596  14.916
77179NA+    NA+40903  18.601   6.295   3.228
77180NA+    NA+40904  20.260  30.043   3.369
77181NA+    NA+40905  41.845  27.642  11.001
77182NA+    NA+40906   7.206  12.279  12.880
77183NA+    NA+40907  28.172  24.061  10.518
77184NA+    NA+40908  14.749  23.070  13.809
77185NA+    NA+40909  32.933   1.832  14.962
77186NA+    NA+40910  31.910  37.397   2.385
77187NA+    NA+40911  43.904  35.034   0.449
77188NA+    NA+40912  27.510  40.938  10.642
77189NA+    NA+40913  28.048  36.996   2.858
77190NA+    NA+40914  36.366  25.542  11.419
77191NA+    NA+40915  30.574  16.224   4.287
77192NA+    NA+40916  18.116  35.889   2.235
77193NA+    NA+40917   4.376  44.904   0.862
77194NA+    NA+40918  36.984   8.300  11.992
77195NA+    NA+40919   0.754   2.795  11.999
77196NA+    NA+40920  15.817  21.017  14.417
77197NA+    NA+40921  10.239  21.559  13.334
77198NA+    NA+40922  30.953  25.611   0.270
77199NA+    NA+40923  26.172  23.634  12.931
77200NA+    NA+40924  41.855  26.977   4.146
77201NA+    NA+40925  32.539  37.048   0.893
77202NA+    NA+40926  15.671  41.375  11.400
77203NA+    NA+40927  34.891  14.138  11.438
77204NA+    NA+40928  29.446  40.470   1.331
77205NA+    NA+40929  25.992  12.306  13.888
77206NA+    NA+40930  27.690  26.046   4.833
77207NA+    NA+40931  43.349  42.366  11.544
77208NA+    NA+40932  20.175  34.038   3.385
77209NA+    NA+40933  22.738  17.208   4.126
77210NA+    NA+40934   3.881  20.158   2.887
77211NA+    NA+40935  15.155  29.456   4.353
77212NA+    NA+40936   0.339  40.005   2.203
77213NA+    NA+40937  41.983   5.205  10.415
77214NA+    NA+40938  27.552  30.555   0.872
77215NA+    NA+40939   5.372  15.641  11.873
77216NA+    NA+40940  32.088  18.293  14.021
77217NA+    NA+40941   2.852  12.229   2.716
77218NA+    NA+40942  43.315  26.166  13.446
77219NA+    NA+40943  26.171  11.759  12.965
77220NA+    NA+40944  40.415  31.967  11.005
77221NA+    NA+40945  41.040   0.772  14.885
77222NA+    NA+40946  41.881  26.149   4.162
77223NA+    NA+40947   9.165   7.680  11.577
77224NA+    NA+40948   9.666  25.189   0.880
77225NA+    NA+40949   7.839  23.092  11.925
77226NA+    NA+40950   9.220   8.794   4.173
77227NA+    NA+40951  15.808  13.834  14.846
77228NA+    NA+40952  29.494  32.508  14.029
77229NA+    NA+40953  33.071  36.990  10.645
77230NA+    NA+40954  20.128  24.652   3.795
77231NA+    NA+40955  24.106   4.246  10.983
77232NA+    NA+40956   0.428  39.881   1.404
77233NA+    NA+40957  26.104  21.629   4.298
77234NA+    NA+40958  17.646  40.521  10.929
77235NA+    NA+40959  25.615   9.288   5.686
77236NA+    NA+40960   2.226  44.905  14.863
77237NA+    NA+40961  18.559   0.324   2.744
77238NA+    NA+40962  41.901   1.839   4.290
77239NA+    NA+40963  40.325  11.314  13.413
77240NA+    NA+40964  17.220  32.482   0.792
77241NA+    NA+40965  21.644  43.356   2.303
77242NA+    NA+40966  17.673  44.924  13.482
77243NA+    NA+40967  12.742  42.433  14.347
77244NA+    NA+40968  38.065  36.410  12.031
77245NA+    NA+40969  19.116  26.028  14.888
77246NA+    NA+40970   0.787   0.305   3.365
77247NA+    NA+40971  17.268   4.250  10.006
77248NA+    NA+40972   6.268  25.668   3.311
77249NA+    NA+40973  40.003   7.265   2.349
77250NA+    NA+40974  11.684  30.135   0.764
77251NA+    NA+40975  12.788   2.319   1.300
77252NA+    NA+40976  35.859  39.389  14.929
77253NA+    NA+40977  22.562  35.463  12.505
77254NA+    NA+40978  26.982  38.416   0.760
77255NA+    NA+40979  12.123  14.717   0.282
77256NA+    NA+40980   8.886  16.769   4.191
77257NA+    NA+40981   4.827   7.830  10.590
77258NA+    NA+40982   9.263   3.710   0.367
77259NA+    NA+40983  28.053   2.904   4.665
77260NA+    NA+40984   4.722  44.877   0.951
77261NA+    NA+40985  12.707  10.857   2.844
77262NA+    NA+40986  24.566  34.929  14.940
77263NA+    NA+40987  13.780   2.470   2.711
77264NA+    NA+40988   7.304   0.450   1.761
77265NA+    NA+40989  13.683  42.946   2.386
77266NA+    NA+40990  16.171  29.996   4.799
77267NA+    NA+40991   8.766  16.087   2.387
77268NA+    NA+40992  37.081  33.048   3.360
77269NA+    NA+40993   3.292  32.923   4.286
77270NA+    NA+40994   8.718  33.020   2.754
77271NA+    NA+40995  11.733  27.549  13.545
77272NA+    NA+40996  36.056   7.672  11.067
77273NA+    NA+40997  22.587   1.914   5.320
77274NA+    NA+40998  25.975  32.044  11.452
77275NA+    NA+40999   7.793  32.059  14.973
77276NA+    NA+41000  30.458   3.453   2.311
77277NA+    NA+41001  39.939  10.671  11.406
77278NA+    NA+41002  41.930  33.995  12.917
77279NA+    NA+41003   1.967  23.030  14.773
77280NA+    NA+41004   7.377  33.035   3.283
77281NA+    NA+41005  29.446  31.505   2.310
77282NA+    NA+41006  42.333   1.840   3.824
77283NA+    NA+41007   3.219  44.310   4.122
77284NA+    NA+41008  26.960  32.885   2.346
77285NA+    NA+41009   4.869  11.847   0.800
77286NA+    NA+41010  11.653  42.848   1.698
77287NA+    NA+41011   5.688   6.350  14.490
77288NA+    NA+41012  32.979  12.203  14.980
77289NA+    NA+41013  13.215   0.850   0.776
77290NA+    NA+41014  17.169   3.414   2.723
77291NA+    NA+41015  20.555   6.832  14.441
77292NA+    NA+41016  41.875  44.938   0.462
77293NA+    NA+41017  14.243  26.980  11.046
77294NA+    NA+41018  32.509   8.316  14.783
77295NA+    NA+41019  24.582  28.014   2.268
77296NA+    NA+41020  32.000  30.062  11.020
77297NA+    NA+41021  31.036  23.095  14.386
77298NA+    NA+41022  26.473  16.126   0.846
77299NA+    NA+41023  22.509  30.115  11.526
77300NA+    NA+41024  32.027   5.332  10.918
77301NA+    NA+41025  22.200  29.601   5.239
77302NA+    NA+41026  20.113   6.401   0.951
77303NA+    NA+41027  35.028   3.781  12.496
77304NA+    NA+41028  44.312  19.166  12.540
77305NA+    NA+41029  38.367  25.167  12.443
77306NA+    NA+41030  11.675  15.206  14.441
77307NA+    NA+41031  28.112   8.835   1.764
77308NA+    NA+41032  28.642  32.076  14.921
77309NA+    NA+41033   3.250  36.477   4.674
77310NA+    NA+41034  40.894   2.469   1.432
77311NA+    NA+41035  33.927  38.940   9.937
77312NA+    NA+41036   2.776  43.881  10.544
77313NA+    NA+41037   5.428  43.876  11.428
77314NA+    NA+41038   6.331   2.457   4.657
77315NA+    NA+41039  23.580   6.247  12.522
77316NA+    NA+41040   3.723  21.149  11.081
77317NA+    NA+41041  27.608  19.620   0.861
77318NA+    NA+41042  28.044  38.876  10.623
77319NA+    NA+41043   6.210  11.236  11.469
77320NA+    NA+41044   6.681  14.194  10.494
77321NA+    NA+41045  19.271  18.652   4.331
77322NA+    NA+41046  37.398  35.992  12.373
77323NA+    NA+41047  28.118   5.822   1.244
77324NA+    NA+41048  13.650  20.728   1.284
77325NA+    NA+41049  30.980   1.450   2.851
77326NA+    NA+41050  21.700  13.338   1.415
77327NA+    NA+41051  32.061  18.703  14.885
77328NA+    NA+41052   7.855  27.602  10.533
77329NA+    NA+41053  26.625  42.937  11.545
77330NA+    NA+41054  43.287  39.057   4.633
77331NA+    NA+41055  40.996  22.042  14.283
77332NA+    NA+41056   0.480   6.893   2.704
77333NA+    NA+41057  13.821  27.189   1.780
77334NA+    NA+41058  18.178   7.796  12.449
77335NA+    NA+41059   0.452  14.131  13.465
77336NA+    NA+41060  26.630   1.337   4.735
77337NA+    NA+41061  33.935  23.625  12.945
77338NA+    NA+41062   9.752  12.624   3.778
77339NA+    NA+41063   2.452  22.574  11.999
77340NA+    NA+41064  32.098   1.915   3.290
77341NA+    NA+41065  15.735  33.512  11.098
77342NA+    NA+41066  38.479  43.485  14.412
77343NA+    NA+41067  37.457  42.978  10.631
77344NA+    NA+41068  31.432  36.385   1.319
77345NA+    NA+41069   6.858  21.524   0.882
77346NA+    NA+41070   7.799  14.277   1.403
77347NA+    NA+41071  19.155  28.512  10.933
77348NA+    NA+41072  42.987  12.167   4.724
77349NA+    NA+41073   6.870  23.674   2.247
77350NA+    NA+41074  14.607  42.457   3.271
77351NA+    NA+41075   5.377  22.744   2.805
77352NA+    NA+41076  41.439  20.652   4.182
77353NA+    NA+41077  36.874  23.984  13.430
77354NA+    NA+41078   8.656  16.177  11.964
77355NA+    NA+41079  23.088  15.305  13.812
77356NA+    NA+41080  24.665  37.467  13.332
77357NA+    NA+41081  11.706  21.187   3.785
77358NA+    NA+41082  34.382  43.416   2.178
77359NA+    NA+41083  22.633   5.880   4.257
77360NA+    NA+41084  44.909  25.183  11.536
77361NA+    NA+41085  35.482  21.645   2.839
77362NA+    NA+41086  15.325   6.886   0.257
77363NA+    NA+41087  21.254  17.163  14.798
77364NA+    NA+41088  21.046  36.007   9.989
77365NA+    NA+41089   0.965  33.053  13.405
77366NA+    NA+41090  29.994  33.427  11.936
77367NA+    NA+41091  16.733  12.777   4.310
77368NA+    NA+41092  16.743  28.490   1.390
77369NA+    NA+41093  30.458   8.813  10.405
77370NA+    NA+41094  16.764  16.708  10.535
77371NA+    NA+41095  18.259   9.841  14.923
77372NA+    NA+41096  17.085  34.894   0.418
77373NA+    NA+41097  34.561  28.980   0.421
77374NA+    NA+41098   2.272   7.289  11.055
77375NA+    NA+41099  31.081  13.216  12.475
77376NA+    NA+41100   9.867  29.663   1.886
77377NA+    NA+41101   9.250  26.147  14.848
77378NA+    NA+41102  22.045  25.649  12.899
77379NA+    NA+41103  18.068   4.323  13.373
77380NA+    NA+41104  43.012  23.493   2.315
77381NA+    NA+41105   4.367  17.662   4.621
77382NA+    NA+41106  32.483  17.235  11.997
77383NA+    NA+41107  23.590  27.953  13.969
77384NA+    NA+41108   2.874   4.238  14.456
77385NA+    NA+41109  44.802  39.053   4.716
77386NA+    NA+41110  20.602  22.738   1.774
77387NA+    NA+41111  40.877  25.046   4.334
77388NA+    NA+41112   9.257  17.572   1.780
77389NA+    NA+41113  17.167  43.912  10.552
77390NA+    NA+41114  29.522  14.789   4.139
77391NA+    NA+41115  24.613   3.714   1.392
77392NA+    NA+41116  21.592  16.134  10.562
77393NA+    NA+41117  19.226  42.891   1.289
77394NA+    NA+41118  42.782  22.612   1.892
77395NA+    NA+41119  19.775   7.710   1.798
77396NA+    NA+41120  38.894  20.743   5.209
77397NA+    NA+41121  31.564  13.599   5.256
77398NA+    NA+41122  15.717  12.303  14.505
77399NA+    NA+41123   9.760   2.442  10.936
77400NA+    NA+41124   7.284  10.209   5.659
77401NA+    NA+41125  36.443  24.550  10.634
77402NA+    NA+41126  13.809  33.975  13.830
77403NA+    NA+41127  10.204  27.550   4.603
77404NA+    NA+41128  15.297  32.586   0.848
77405NA+    NA+41129  38.352  26.974   1.368
77406NA+    NA+41130  24.111   3.807   3.267
77407NA+    NA+41131  35.567   0.283   2.796
77408NA+    NA+41132  31.545  29.082  10.408
77409NA+    NA+41133   6.295  22.698  12.011
77410NA+    NA+41134   3.368  22.108  11.374
77411NA+    NA+41135   7.770  11.309   0.285
77412NA+    NA+41136  42.295  13.723  12.455
77413NA+    NA+41137  39.818  44.306  11.542
77414NA+    NA+41138   5.414  12.666  14.425
77415NA+    NA+41139  22.029  10.270   3.229
77416NA+    NA+41140  28.580  17.576  14.021
77417NA+    NA+41141  17.100  28.946   3.832
77418NA+    NA+41142   9.319  30.505   1.337
77419NA+    NA+41143   2.309  11.263  14.903
77420NA+    NA+41144  38.366  25.090   4.824
77421NA+    NA+41145  14.781   1.339  12.032
77422NA+    NA+41146  38.543  13.239   1.450
77423NA+    NA+41147  27.094  26.513  10.893
77424NA+    NA+41148  10.707  15.132  14.790
77425NA+    NA+41149  15.824   6.745  14.925
77426NA+    NA+41150   3.418  21.576   3.851
77427NA+    NA+41151  40.989   9.274   3.365
77428NA+    NA+41152  16.170  40.514  14.315
77429NA+    NA+41153  30.942   1.775  11.082
77430NA+    NA+41154   7.246  13.243   0.778
77431NA+    NA+41155  22.010  41.873   9.986
77432NA+    NA+41156   3.746  26.205  12.867
77433NA+    NA+41157   9.199   8.726   4.650
77434NA+    NA+41158  14.265  25.053   4.285
77435NA+    NA+41159  27.117  40.324  10.959
77436NA+    NA+41160  14.287  35.856  11.072
77437NA+    NA+41161  21.571  20.646  13.792
77438NA+    NA+41162   2.938  30.635  12.842
77439NA+    NA+41163  16.078  39.957   1.907
77440NA+    NA+41164  25.585  31.054  14.867
77441NA+    NA+41165   7.693  43.316  14.003
77442NA+    NA+41166   2.264  11.682   3.305
77443NA+    NA+41167  30.585  40.540  14.809
77444NA+    NA+41168  12.714  10.278  14.956
77445NA+    NA+41169  40.894  21.696  14.348
77446NA+    NA+41170   7.750  10.331   2.873
77447NA+    NA+41171  30.091  35.460  14.389
77448NA+    NA+41172   5.364   5.233  11.906
77449NA+    NA+41173  25.160   7.320  13.934
77450NA+    NA+41174  11.231  11.758   3.702
77451NA+    NA+41175   9.389  19.695   3.376
77452NA+    NA+41176  21.036  15.749   5.171
77453NA+    NA+41177  28.936  13.237  10.970
77454NA+    NA+41178  37.579  10.179  13.439
77455NA+    NA+41179  31.526  18.579  14.500
77456NA+    NA+41180  13.697  14.336  11.963
77457NA+    NA+41181  36.907   2.237  12.568
77458NA+    NA+41182  40.549   6.707   2.237
77459NA+    NA+41183  27.532  38.392  11.012
77460NA+    NA+41184   1.788  17.233  13.932
77461NA+    NA+41185  22.043  25.624   2.834
77462NA+    NA+41186  43.019  25.468  13.009
77463NA+    NA+41187   4.762  24.721  12.832
77464NA+    NA+41188  32.606  17.560   2.801
77465NA+    NA+41189   8.171  37.425  14.371
77466NA+    NA+41190   3.720  20.200  10.937
77467NA+    NA+41191  29.496  24.185  11.033
77468NA+    NA+41192   1.890  31.083  11.904
77469NA+    NA+41193  37.342  35.100  11.503
77470NA+    NA+41194   9.750  23.725   0.483
77471NA+    NA+41195   9.390  42.891  11.391
77472NA+    NA+41196   0.814   6.205  13.412
77473NA+    NA+41197  42.483  12.224   3.827
77474NA+    NA+41198  18.166   4.391  14.794
77475NA+    NA+41199  21.061  18.210  12.533
77476NA+    NA+41200  29.961  34.940   3.369
77477NA+    NA+41201  33.915  14.267   2.221
77478NA+    NA+41202  43.004  33.626  13.828
77479NA+    NA+41203  34.371  29.547   3.813
77480NA+    NA+41204  18.175  44.784   4.173
77481NA+    NA+41205  42.474   4.229   2.765
77482NA+    NA+41206  38.990   7.409  10.893
77483NA+    NA+41207  14.250  31.151   3.712
77484NA+    NA+41208  42.303  42.388   3.271
77485NA+    NA+41209  13.208  20.580   0.867
77486NA+    NA+41210  30.601  16.313  13.940
77487NA+    NA+41211  32.567  17.161   2.289
77488NA+    NA+41212  42.838  21.218   2.230
77489NA+    NA+41213  42.493  26.697  13.054
77490NA+    NA+41214   1.867  13.271   4.835
77491NA+    NA+41215  39.336  41.497   2.802
77492NA+    NA+41216  37.359   6.316   1.218
77493NA+    NA+41217  26.082  31.967  14.892
77494NA+    NA+41218  16.245  23.645   1.769
77495NA+    NA+41219  22.503  40.954   4.204
77496NA+    NA+41220   2.391   5.883  14.460
77497NA+    NA+41221   0.894  11.272  10.994
77498NA+    NA+41222  38.542  36.886   3.775
77499NA+    NA+41223  40.006  31.003   4.227
77500NA+    NA+41224  35.852  18.099  14.788
77501NA+    NA+41225  31.447  14.308   5.176
77502NA+    NA+41226  38.993  42.470   2.334
77503NA+    NA+41227   0.484  28.636  12.415
77504NA+    NA+41228  42.994   5.805  11.518
77505NA+    NA+41229  33.607   4.351  11.502
77506NA+    NA+41230  43.804   6.221   2.743
77507NA+    NA+41231  14.794  16.789   0.768
77508NA+    NA+41232   5.277  30.123   1.731
77509NA+    NA+41233  23.645   2.790  14.999
77510NA+    NA+41234  24.170  11.829   4.598
77511NA+    NA+41235  41.419  27.105  11.449
77512NA+    NA+41236  28.121   9.863   0.865
77513NA+    NA+41237  15.156  38.950  12.079
77514NA+    NA+41238  25.501  23.100   2.894
77515NA+    NA+41239  13.331  37.034  10.925
77516NA+    NA+41240  25.475   1.849   4.116
77517NA+    NA+41241  13.722  33.065   2.741
77518NA+    NA+41242  34.472  28.519  13.506
77519NA+    NA+41243  12.725  28.042  11.071
77520NA+    NA+41244  31.507  44.808  10.955
77521NA+    NA+41245  28.488  41.395   3.805
77522NA+    NA+41246   0.913   4.724   3.723
77523NA+    NA+41247   7.870  29.628   5.162
77524NA+    NA+41248  36.090  10.184  10.438
77525NA+    NA+41249  29.570  12.206  11.022
77526NA+    NA+41250   1.278  33.905  13.467
77527NA+    NA+41251  20.228  20.196  11.119
77528NA+    NA+41252  34.933  30.083   2.244
77529NA+    NA+41253  13.641  40.530   1.898
77530NA+    NA+41254  24.644   3.802  10.587
77531NA+    NA+41255   3.759  20.726  13.851
77532NA+    NA+41256   8.246  40.380  12.569
77533NA+    NA+41257  41.486  36.023   0.786
77534NA+    NA+41258  22.661  12.623   1.290
77535NA+    NA+41259  28.474  28.177   3.361
77536NA+    NA+41260   3.214  27.049  13.438
77537NA+    NA+41261  40.357  32.479   0.418
77538NA+    NA+41262  26.059  37.948   1.873
77539NA+    NA+41263  35.880  39.034   0.353
77540NA+    NA+41264   3.314  32.063  11.993
77541NA+    NA+41265   4.822  41.504   3.762
77542NA+    NA+41266  26.573  29.487   3.288
77543NA+    NA+41267  13.633   2.316  10.962
77544NA+    NA+41268  35.898  35.097   0.933
77545NA+    NA+41269   9.758  21.691   1.431
77546NA+    NA+41270   6.297   4.844  12.537
77547NA+    NA+41271  16.768  16.097  14.369
77548NA+    NA+41272  44.387   4.319  13.540
77549NA+    NA+41273  42.373  18.765   1.876
77550NA+    NA+41274  42.812  32.032  11.968
77551NA+    NA+41275  38.441  19.560   0.846
77552NA+    NA+41276  39.931  43.791   0.902
77553NA+    NA+41277  39.364  17.303  12.496
77554NA+    NA+41278  25.062  37.425  10.581
77555NA+    NA+41279   0.410   5.744   3.381
77556NA+    NA+41280  30.923  14.731  14.485
77557NA+    NA+41281   8.663  20.690  11.574
77558NA+    NA+41282  27.529   3.769  12.086
77559NA+    NA+41283  27.992  37.416   1.736
77560NA+    NA+41284   3.784   7.899   3.866
77561NA+    NA+41285  30.055   5.264   4.258
77562NA+    NA+41286   9.198  21.041  14.963
77563NA+    NA+41287  16.232  41.906   4.606
77564NA+    NA+41288   3.731  39.484   2.879
77565NA+    NA+41289   2.894  20.760   3.678
77566NA+    NA+41290   9.318  18.064  12.578
77567NA+    NA+41291  16.140  23.986  13.938
77568NA+    NA+41292  17.149  30.658   4.177
77569NA+    NA+41293   0.256  15.309  13.393
77570NA+    NA+41294  35.411  23.115   3.359
77571NA+    NA+41295  19.691  28.148   3.830
77572NA+    NA+41296  38.836   2.351  14.305
77573NA+    NA+41297  41.814  28.052   1.269
77574NA+    NA+41298  27.586  22.108   3.214
77575NA+    NA+41299  36.937  13.604   2.856
77576NA+    NA+41300  29.439  11.262   2.336
77577NA+    NA+41301  11.232  41.795   0.843
77578NA+    NA+41302  38.055  40.904  12.066
77579NA+    NA+41303  37.545  15.694  14.776
77580NA+    NA+41304   0.885   5.877   2.838
77581NA+    NA+41305  15.711   9.381   4.740
77582NA+    NA+41306  34.373  15.646  11.071
77583NA+    NA+41307   6.411  30.415   2.378
77584NA+    NA+41308  31.128  43.343   2.307
77585NA+    NA+41309  26.092   2.324  10.429
77586NA+    NA+41310   2.418   9.237  11.388
77587NA+    NA+41311  32.431  31.637  13.395
77588NA+    NA+41312  16.097  38.348  13.338
77589NA+    NA+41313  29.577  39.428   2.731
77590NA+    NA+41314  21.528   8.193  13.385
77591NA+    NA+41315  21.031  35.482   0.930
77592NA+    NA+41316  10.741   7.257   1.918
77593NA+    NA+41317  35.908   4.939  13.355
77594NA+    NA+41318  43.429  44.766   1.450
77595NA+    NA+41319  10.644  32.428  11.507
77596NA+    NA+41320  39.823  41.839  12.381
77597NA+    NA+41321   8.680  22.230  11.887
77598NA+    NA+41322  43.981  16.193   2.202
77599NA+    NA+41323  16.810   9.770  13.315
77600NA+    NA+41324  26.035  37.854  13.372
77601NA+    NA+41325   2.749  18.076  14.929
77602NA+    NA+41326  13.170  43.302  14.409
77603NA+    NA+41327   6.364  11.244  12.504
77604NA+    NA+41328  43.332  34.966   2.236
77605NA+    NA+41329  12.672  35.962  11.410
77606NA+    NA+41330  32.136  20.271  14.930
77607NA+    NA+41331  35.431   8.750  11.026
77608NA+    NA+41332  37.465  43.450  12.930
77609NA+    NA+41333   8.392   0.796   1.904
77610NA+    NA+41334  23.242  32.396  13.512
77611NA+    NA+41335  29.488  28.052   3.240
77612NA+    NA+41336   4.904  37.076  14.411
77613NA+    NA+41337  14.707  35.862  10.065
77614NA+    NA+41338  21.748  38.562   1.210
77615NA+    NA+41339  23.544  27.628  14.372
77616NA+    NA+41340  32.142  27.531   1.800
77617NA+    NA+41341  17.722  12.678  12.025
77618NA+    NA+41342  43.828  30.048  11.960
77619NA+    NA+41343  44.484  34.478  14.864
77620NA+    NA+41344  20.083   3.347  13.794
77621NA+    NA+41345  13.649   5.706  13.029
77622NA+    NA+41346   7.881  42.807   3.703
77623NA+    NA+41347  16.632  34.929  11.424
77624NA+    NA+41348  39.889  35.361   1.258
77625NA+    NA+41349  42.878  32.120  13.038
77626NA+    NA+41350  21.716  39.530   2.361
77627NA+    NA+41351   9.727  41.966   1.439
77628NA+    NA+41352  15.713  44.456  12.011
77629NA+    NA+41353   1.481   3.427   2.380
77630NA+    NA+41354  30.134  28.462  14.404
77631NA+    NA+41355  33.482  32.447  14.457
77632NA+    NA+41356  26.066   7.237  11.030
77633NA+    NA+41357  34.000  42.418  11.417
77634NA+    NA+41358  37.574  10.674  13.483
77635NA+    NA+41359   3.899  22.068  10.582
77636NA+    NA+41360  28.028  28.140  12.955
77637NA+    NA+41361  29.558  30.602  10.619
77638NA+    NA+41362  44.923  16.575  10.906
77639NA+    NA+41363  21.138  21.056  11.910
77640NA+    NA+41364   4.233   5.209  14.871
77641NA+    NA+41365  21.047  13.181   0.283
77642NA+    NA+41366  18.169  37.913   0.380
77643NA+    NA+41367  36.007   9.383   3.766
77644NA+    NA+41368   2.798  27.161   1.233
77645NA+    NA+41369  33.982  20.068  14.976
77646NA+    NA+41370  23.542  35.071   1.869
77647NA+    NA+41371   0.315  11.316  12.071
77648NA+    NA+41372  34.400  21.716  14.822
77649NA+    NA+41373   6.334   9.193  13.513
77650NA+    NA+41374  36.900  27.551   3.723
77651NA+    NA+41375  22.685   9.258   2.741
77652NA+    NA+41376  44.410  41.869  14.887
77653NA+    NA+41377  10.373   7.892  12.074
77654NA+    NA+41378   5.702  12.796   2.318
77655NA+    NA+41379  36.406  42.940   3.366
77656NA+    NA+41380  14.321  41.926  13.535
77657NA+    NA+41381  27.002  42.886  10.488
77658NA+    NA+41382  14.308  23.189  11.527
77659NA+    NA+41383  28.442  44.261   0.478
77660NA+    NA+41384  13.642  30.636   0.478
77661NA+    NA+41385  16.593   1.478  11.581
77662NA+    NA+41386  13.766   9.715   4.148
77663NA+    NA+41387  22.123  42.408  13.014
77664NA+    NA+41388  12.285  26.490  13.494
77665NA+    NA+41389  15.715  12.772   3.292
77666NA+    NA+41390  20.032   0.462   0.354
77667NA+    NA+41391   4.775  20.273   2.302
77668NA+    NA+41392  14.758  43.955  11.887
77669NA+    NA+41393  43.457  37.419   2.351
77670NA+    NA+41394  13.620  26.544  11.388
77671NA+    NA+41395   3.938   6.912   4.788
77672NA+    NA+41396   5.374  24.640   2.815
77673NA+    NA+41397  37.900   3.855  13.919
77674NA+    NA+41398  26.511  33.102   0.764
77675NA+    NA+41399  14.671   3.909  10.528
77676NA+    NA+41400  29.045  40.836   3.313
77677NA+    NA+41401  19.764   8.660   4.677
77678NA+    NA+41402   3.901  35.971  12.523
77679NA+    NA+41403  13.133  29.086   0.409
77680NA+    NA+41404  42.408   2.818  11.473
77681NA+    NA+41405  27.170  30.063   4.732
77682NA+    NA+41406  18.725  43.786   2.902
77683NA+    NA+41407  28.174  15.159  12.904
77684NA+    NA+41408   0.904  14.821   0.928
77685NA+    NA+41409   6.419  40.829  12.449
77686NA+    NA+41410  16.572  31.152  12.554
77687NA+    NA+41411   2.752  19.249   3.147
77688NA+    NA+41412  12.810  38.016  10.903
77689NA+    NA+41413  20.154  42.980  10.975
77690NA+    NA+41414   6.240  22.023  10.443
77691NA+    NA+41415  16.688  41.857  10.553
77692NA+    NA+41416  44.498   4.738  13.058
77693NA+    NA+41417  14.813   3.456  10.598
77694NA+    NA+41418  40.444   9.859   4.299
77695NA+    NA+41419  44.925  25.075   3.809
77696NA+    NA+41420  17.068  25.544   0.892
77697NA+    NA+41421  31.043  43.948  13.499
77698NA+    NA+41422   5.267  29.663  13.810
77699NA+    NA+41423  15.201   4.233   2.214
77700NA+    NA+41424  10.665   8.349   1.452
77701NA+    NA+41425  12.621  44.816  14.805
77702NA+    NA+41426  18.264   8.405  13.890
77703NA+    NA+41427  44.790  12.141   3.739
77704NA+    NA+41428  22.144  33.938  14.846
77705NA+    NA+41429  25.069  11.369  10.618
77706NA+    NA+41430  34.396  11.317   0.806
77707NA+    NA+41431  22.048   9.684   2.381
77708NA+    NA+41432  31.507  41.524   1.806
77709NA+    NA+41433   6.353  12.749   3.853
77710NA+    NA+41434  22.591   7.844  10.602
77711NA+    NA+41435  11.344  37.398  13.958
77712NA+    NA+41436  33.916  20.144  12.861
77713NA+    NA+41437   5.886  28.475   2.299
77714NA+    NA+41438  31.900  24.599  12.410
77715NA+    NA+41439  12.762   1.335   0.811
77716NA+    NA+41440  17.607  21.152   3.184
77717NA+    NA+41441  36.078  24.044  14.944
77718NA+    NA+41442  13.307  27.666  12.401
77719NA+    NA+41443  44.868  32.482  13.897
77720NA+    NA+41444  25.523  13.737   3.362
77721NA+    NA+41445  36.903   6.216  11.877
77722NA+    NA+41446  15.141  37.836   3.819
77723NA+    NA+41447  12.806  19.227  13.363
77724NA+    NA+41448  13.332  18.259   0.927
77725NA+    NA+41449  21.164  23.145   2.808
77726NA+    NA+41450  36.997  18.055   0.428
77727NA+    NA+41451  35.375   4.388   1.882
77728NA+    NA+41452  28.519  12.725  11.886
77729NA+    NA+41453  36.030  28.596   2.851
77730NA+    NA+41454  38.044  34.028  14.759
77731NA+    NA+41455  20.037  32.505  14.360
77732NA+    NA+41456  41.312   0.368  14.810
77733NA+    NA+41457  10.753  14.162   4.129
77734NA+    NA+41458  34.962  20.588  12.370
77735NA+    NA+41459  42.294  37.059  11.888
77736NA+    NA+41460  36.037  34.082   3.669
77737NA+    NA+41461   1.942  44.495   1.337
77738NA+    NA+41462   8.693  40.028   2.825
77739NA+    NA+41463  18.116  35.941  10.548
77740NA+    NA+41464   3.786  41.526  11.123
77741NA+    NA+41465  26.577   8.346  14.760
77742NA+    NA+41466   3.436  25.596  13.520
77743NA+    NA+41467  15.173   1.348  14.843
77744NA+    NA+41468   7.874  35.046   1.803
77745NA+    NA+41469  39.496   0.467   1.337
77746NA+    NA+41470  17.195  28.932  12.031
77747NA+    NA+41471  40.022  32.591   0.255
77748NA+    NA+41472  27.997  44.904   4.673
77749NA+    NA+41473   1.766  17.666  10.537
77750NA+    NA+41474   5.885  16.746  11.495
77751NA+    NA+41475   2.720  35.940  11.120
77752NA+    NA+41476  34.871  41.024  13.952
77753NA+    NA+41477  18.749  20.175  11.414
77754NA+    NA+41478   4.442  22.619  12.951
77755NA+    NA+41479   8.865   9.708   4.310
77756NA+    NA+41480  39.920   2.853   2.181
77757NA+    NA+41481  15.150  15.270   2.390
77758NA+    NA+41482  33.017  29.479   1.221
77759NA+    NA+41483   9.232  21.025  11.889
77760NA+    NA+41484   4.717  23.090   0.744
77761NA+    NA+41485  37.880  15.742  12.876
77762NA+    NA+41486  25.973  17.741   4.240
77763NA+    NA+41487  10.821  18.167  13.814
77764NA+    NA+41488  25.531  21.558   1.357
77765NA+    NA+41489  39.557  15.253  14.853
77766NA+    NA+41490   3.849  22.741  10.041
77767NA+    NA+41491  43.796   3.726  14.015
77768NA+    NA+41492  36.886  27.544   2.180
77769NA+    NA+41493  32.459  13.714   9.485
77770NA+    NA+41494  33.949  43.946  11.128
77771NA+    NA+41495  13.329  28.068   0.760
77772NA+    NA+41496  28.614  19.089   1.926
77773NA+    NA+41497  13.607   7.184   0.344
77774NA+    NA+41498   0.908  16.695   3.864
77775NA+    NA+41499  40.348  43.323   2.213
77776NA+    NA+41500  43.852  44.999  12.344
77777NA+    NA+41501  24.022  33.037  12.836
77778NA+    NA+41502  16.302  19.160   1.370
77779NA+    NA+41503  24.225   6.203  10.428
77780NA+    NA+41504   3.311  36.965   4.190
77781NA+    NA+41505  24.648  39.437   3.685
77782NA+    NA+41506  23.014   8.270   4.777
77783NA+    NA+41507  20.667  20.078   1.260
77784NA+    NA+41508   4.350   2.446   1.881
77785NA+    NA+41509  12.740  32.502  12.560
77786NA+    NA+41510  13.127  14.738  10.888
77787NA+    NA+41511  44.937  29.436  10.522
77788NA+    NA+41512   1.960  18.155   1.872
77789NA+    NA+41513  31.637  26.054  13.030
77790NA+    NA+41514  31.941  28.038  13.851
77791NA+    NA+41515   7.178  26.171  13.829
77792NA+    NA+41516  40.888  28.166   4.674
77793NA+    NA+41517   2.746  28.141   4.165
77794NA+    NA+41518  33.563   8.809   1.715
77795NA+    NA+41519   2.397   6.267  11.554
77796NA+    NA+41520  10.754  31.579  10.919
77797NA+    NA+41521  31.520  16.600  11.389
77798NA+    NA+41522  36.938  14.155  14.865
77799NA+    NA+41523  40.331  30.908   2.379
77800NA+    NA+41524   4.733  23.622  13.865
77801NA+    NA+41525   4.409  21.647   1.924
77802NA+    NA+41526  30.585  44.838  14.291
77803NA+    NA+41527  29.624  35.055  11.461
77804NA+    NA+41528  24.139  40.832   1.290
77805NA+    NA+41529  23.643  18.757   4.772
77806NA+    NA+41530  25.503   5.197  14.373
77807NA+    NA+41531  28.950   4.385  12.386
77808NA+    NA+41532  37.074  20.154  14.783
77809NA+    NA+41533  41.533  14.593   4.741
77810NA+    NA+41534  40.967  33.001   2.880
77811NA+    NA+41535   2.326   2.721  13.521
77812NA+    NA+41536   9.161   7.855  13.807
77813NA+    NA+41537   7.287  29.089  14.934
77814NA+    NA+41538  43.477  28.019   0.255
77815NA+    NA+41539   2.848  36.846   4.712
77816NA+    NA+41540   4.291  24.646  11.400
77817NA+    NA+41541  14.732  21.142   1.779
77818NA+    NA+41542  11.307   6.885   2.320
77819NA+    NA+41543  34.429  22.105  11.388
77820NA+    NA+41544   9.368  23.642   5.152
77821NA+    NA+41545  29.138  37.527   0.935
77822NA+    NA+41546  35.916  17.199  13.955
77823NA+    NA+41547  44.349  25.210  11.480
77824NA+    NA+41548  34.044  27.143  13.349
77825NA+    NA+41549   1.276  39.884   0.795
77826NA+    NA+41550  41.791  14.194  11.510
77827NA+    NA+41551  21.732  32.633   1.307
77828NA+    NA+41552  14.735  29.019   3.152
77829NA+    NA+41553  35.006  36.897  14.302
77830NA+    NA+41554  22.663  32.022  10.463
77831NA+    NA+41555   8.676  18.120   1.746
77832NA+    NA+41556  33.126  39.454   2.388
77833NA+    NA+41557  19.586  29.569   4.294
77834NA+    NA+41558  23.521  17.254  12.005
77835NA+    NA+41559  38.879  33.963  11.066
77836NA+    NA+41560  35.884  16.152   1.718
77837NA+    NA+41561  42.522  34.376   2.836
77838NA+    NA+41562  16.749   6.249   5.246
77839NA+    NA+41563   3.426  27.185   1.742
77840NA+    NA+41564  22.727  23.649  12.440
77841NA+    NA+41565   3.934  16.257   0.371
77842NA+    NA+41566  22.663  40.965  11.101
77843NA+    NA+41567  18.224   8.272   0.282
77844NA+    NA+41568   3.323  42.385  14.420
77845NA+    NA+41569   6.838  21.731   2.416
77846NA+    NA+41570  34.586  34.973   1.819
77847NA+    NA+41571   3.931  15.149   0.766
77848NA+    NA+41572  24.124  30.613  14.947
77849NA+    NA+41573  35.408   4.813   3.253
77850NA+    NA+41574   2.845  19.211  14.468
77851NA+    NA+41575  10.878  13.182   4.609
77852NA+    NA+41576  42.364   3.258   2.265
77853NA+    NA+41577  21.125  27.999   5.172
77854NA+    NA+41578  34.491  30.162   3.246
77855NA+    NA+41579  43.347  16.190  13.397
77856NA+    NA+41580  30.482  11.202   0.837
77857NA+    NA+41581  23.653  44.322  12.036
77858NA+    NA+41582   1.892   4.775  13.854
77859NA+    NA+41583  20.761   2.381  10.598
77860NA+    NA+41584  29.639   3.402  13.848
77861NA+    NA+41585  35.855  42.991  14.323
77862NA+    NA+41586   0.916  16.119  10.411
77863NA+    NA+41587  17.222  42.970   5.135
77864NA+    NA+41588  34.445  43.436  10.957
77865NA+    NA+41589   8.253  33.060  13.310
77866NA+    NA+41590  35.035  38.012   0.484
77867NA+    NA+41591  19.172  12.656   2.881
77868NA+    NA+41592  40.027   8.306   0.819
77869NA+    NA+41593   1.324   8.676  14.350
77870NA+    NA+41594   2.421  41.043  13.470
77871NA+    NA+41595  15.219   5.370  13.850
77872NA+    NA+41596  11.364  41.474  11.001
77873NA+    NA+41597  42.890  39.499   0.458
77874NA+    NA+41598  40.364   2.813  14.887
77875NA+    NA+41599  41.800  22.032  13.876
77876NA+    NA+41600  34.442  20.274   1.775
77877NA+    NA+41601  43.897   4.251  13.432
77878NA+    NA+41602  21.520  17.243   2.722
77879NA+    NA+41603  15.129  41.023  12.835
77880NA+    NA+41604   6.236   6.194  14.020
77881NA+    NA+41605   7.693  35.878   5.250
77882NA+    NA+41606  32.098  30.415  12.403
77883NA+    NA+41607  17.190  14.617   2.218
77884NA+    NA+41608  30.446  33.960   1.720
77885NA+    NA+41609  20.150  16.727  14.351
77886NA+    NA+41610  37.890  20.165  12.885
77887NA+    NA+41611  40.399  29.449   1.354
77888NA+    NA+41612  43.797  24.702  11.383
77889NA+    NA+41613   4.419  41.402  10.938
77890NA+    NA+41614  11.275  35.083  14.932
77891NA+    NA+41615   2.876  32.016  14.997
77892NA+    NA+41616  35.024  19.544  10.059
77893NA+    NA+41617  44.873   7.728   4.197
77894NA+    NA+41618  42.895  13.290  12.478
77895NA+    NA+41619  41.538   6.869  14.813
77896NA+    NA+41620  38.532  35.862  12.464
77897NA+    NA+41621  30.658  22.043   2.678
77898NA+    NA+41622  17.651   9.787  13.970
77899NA+    NA+41623  29.644   3.233   2.233
77900NA+    NA+41624   9.277  33.060  14.997
77901NA+    NA+41625  17.783  43.015  12.483
77902NA+    NA+41626  31.075   1.961   3.185
77903NA+    NA+41627  21.649  32.901  12.835
77904NA+    NA+41628  42.282  13.165   1.311
77905NA+    NA+41629  20.670   9.673  13.357
77906NA+    NA+41630  12.730  38.354  14.407
77907NA+    NA+41631   8.836  19.183   3.155
77908NA+    NA+41632  29.174  33.529   2.362
77909NA+    NA+41633  31.004  40.971  11.590
77910NA+    NA+41634   4.286  12.170   4.281
77911NA+    NA+41635   4.870  13.316   5.199
77912NA+    NA+41636  20.613   0.897   2.204
77913NA+    NA+41637  23.704  19.652  13.339
77914NA+    NA+41638  29.514  15.791   2.200
77915NA+    NA+41639   1.975  15.811  13.348
77916NA+    NA+41640  26.965   1.395  11.998
77917NA+    NA+41641  21.225  14.820   2.290
77918NA+    NA+41642  37.462  24.695   3.701
77919NA+    NA+41643  38.984  23.130   3.222
77920NA+    NA+41644  11.252  44.483   4.823
77921NA+    NA+41645   5.857  40.464  13.019
77922NA+    NA+41646  42.417  41.382  12.843
77923NA+    NA+41647  23.693  36.985   9.448
77924NA+    NA+41648  19.564  26.980  13.838
77925NA+    NA+41649  38.518  38.354  10.432
77926NA+    NA+41650  41.362  44.318   3.193
77927NA+    NA+41651  13.602  23.240   0.914
77928NA+    NA+41652  35.004  30.075  14.339
77929NA+    NA+41653  26.553  14.215   0.961
77930NA+    NA+41654  43.350  31.497  13.343
77931NA+    NA+41655   3.294   7.269   3.301
77932NA+    NA+41656   9.225  34.048   3.784
77933NA+    NA+41657  22.068  28.937   0.448
77934NA+    NA+41658  22.695  22.732  10.968
77935NA+    NA+41659   2.786  32.045   3.667
77936NA+    NA+41660  30.023  12.305   3.245
77937NA+    NA+41661  11.273  32.921   1.335
77938NA+    NA+41662  10.177  12.825  10.442
77939NA+    NA+41663  44.310  37.008  10.101
77940NA+    NA+41664  42.898  19.603   1.240
77941NA+    NA+41665  20.687  42.846   4.187
77942NA+    NA+41666  28.132  27.174   0.292
77943NA+    NA+41667  43.000   0.410   4.623
77944NA+    NA+41668  19.148   1.777   2.823
77945NA+    NA+41669  18.558  23.205  12.969
77946NA+    NA+41670  13.299  17.149   4.731
77947NA+    NA+41671  36.852   8.178   0.483
77948NA+    NA+41672   0.954  24.147  11.964
77949NA+    NA+41673  20.605  27.532   3.219
77950NA+    NA+41674  25.972   0.843   4.188
77951NA+    NA+41675  20.550  21.071  10.595
77952NA+    NA+41676   7.303   7.667  12.989
77953NA+    NA+41677   5.721   3.273   4.616
77954NA+    NA+41678  24.176  13.251  11.120
77955NA+    NA+41679  20.075   3.716   2.194
77956NA+    NA+41680  18.133  24.555   1.228
77957NA+    NA+41681  23.600  21.623   3.336
77958NA+    NA+41682   3.902  34.602  12.990
77959NA+    NA+41683  14.204   5.433  14.317
77960NA+    NA+41684   8.263  28.170  13.404
77961NA+    NA+41685   4.854  25.002   2.357
77962NA+    NA+41686  41.000  41.297   2.877
77963NA+    NA+41687  22.612  24.219  11.949
77964NA+    NA+41688  32.966  21.197   1.259
77965NA+    NA+41689  20.078  24.020   3.348
77966NA+    NA+41690  29.626  30.504  13.015
77967NA+    NA+41691   5.700  39.885   4.300
77968NA+    NA+41692  34.417  42.783  12.374
77969NA+    NA+41693   1.912  39.941   0.874
77970NA+    NA+41694  15.787  39.521  10.441
77971NA+    NA+41695  26.176  36.926   0.291
77972NA+    NA+41696  30.444   3.920  11.468
77973NA+    NA+41697   6.352   1.241  14.400
77974NA+    NA+41698  23.646  16.620  13.884
77975NA+    NA+41699  32.986  22.032  13.419
77976NA+    NA+41700  25.191  25.135  11.885
77977NA+    NA+41701   0.327  43.366   0.439
77978NA+    NA+41702  31.124  27.548  11.464
77979NA+    NA+41703  40.330   1.816  10.614
77980NA+    NA+41704   5.894  31.421   3.870
77981NA+    NA+41705   3.252  34.464  12.372
77982NA+    NA+41706  36.442  24.049  14.463
77983NA+    NA+41707  38.463  31.984  13.949
77984NA+    NA+41708  11.822  31.018  14.380
77985NA+    NA+41709   7.172  20.725  13.811
77986NA+    NA+41710   8.220  41.296   1.701
77987NA+    NA+41711  21.168   0.475  12.891
77988NA+    NA+41712  44.824  30.460   3.685
77989NA+    NA+41713  11.341  27.986   2.673
77990NA+    NA+41714  33.446   4.757   2.217
77991NA+    NA+41715  18.673  42.803  10.069
77992NA+    NA+41716  10.736  36.415   1.838
77993NA+    NA+41717  34.439   9.731  11.103
77994NA+    NA+41718  27.567   3.781   4.213
77995NA+    NA+41719  21.116  41.511  11.101
77996NA+    NA+41720  43.407  16.632   0.286
77997NA+    NA+41721  40.916  21.254  12.521
77998NA+    NA+41722  13.726  18.574  14.908
77999NA+    NA+41723   2.454  33.583  12.870
78000NA+    NA+41724   2.948   8.850  14.905
78001NA+    NA+41725   1.460  21.662  12.904
78002NA+    NA+41726  29.060  36.891   2.321
78003NA+    NA+41727  34.884  27.963   5.283
78004NA+    NA+41728  26.483   3.718  10.546
78005NA+    NA+41729  26.962  18.637  10.466
78006NA+    NA+41730   6.832  19.062   2.352
78007NA+    NA+41731  37.366  25.176  13.355
78008NA+    NA+41732  18.582  29.575  14.970
78009NA+    NA+41733  42.905  38.908   2.825
78010NA+    NA+41734  43.513  30.570   4.802
78011NA+    NA+41735   8.197  39.523   1.916
78012NA+    NA+41736  31.633  41.439   4.643
78013NA+    NA+41737  22.061  19.538   2.693
78014NA+    NA+41738  43.435  14.634  10.513
78015NA+    NA+41739  30.629  15.106  14.516
78016NA+    NA+41740  26.166   3.459   0.321
78017NA+    NA+41741  10.712  18.668  13.359
78018NA+    NA+41742  11.866  37.032   4.638
78019NA+    NA+41743  44.805   2.919   3.224
78020NA+    NA+41744  38.870  20.099   3.278
78021NA+    NA+41745  30.988  39.014  10.096
78022NA+    NA+41746  34.905   1.942   0.779
78023NA+    NA+41747  27.617   5.893  14.343
78024NA+    NA+41748  27.615  32.497   4.698
78025NA+    NA+41749  17.145  22.040   0.893
78026NA+    NA+41750  19.676   5.745   4.146
78027NA+    NA+41751  30.045  44.299   3.324
78028NA+    NA+41752   8.811  12.813   5.264
78029NA+    NA+41753  43.987  15.733   1.709
78030NA+    NA+41754   4.755  17.257  10.018
78031NA+    NA+41755  38.535  38.476  11.380
78032NA+    NA+41756  14.807  44.755  11.383
78033NA+    NA+41757   0.827  34.515   0.780
78034NA+    NA+41758  11.653   2.336   2.313
78035NA+    NA+41759  31.008   5.213  10.948
78036NA+    NA+41760   6.306  24.534  11.973
78037NA+    NA+41761  34.005  34.921  12.979
78038NA+    NA+41762  25.085   0.319   0.940
78039NA+    NA+41763  15.668  38.498   0.954
78040NA+    NA+41764   5.696  16.757   3.815
78041NA+    NA+41765  11.259   3.301   4.260
78042NA+    NA+41766  24.021  25.979  12.386
78043NA+    NA+41767   9.653  31.610  13.404
78044NA+    NA+41768   2.297  27.029  11.916
78045NA+    NA+41769  31.484  43.355   0.748
78046NA+    NA+41770  41.913  11.685  10.422
78047NA+    NA+41771  23.608  42.945  13.527
78048NA+    NA+41772  26.462  26.674  11.122
78049NA+    NA+41773  17.270  19.236  14.986
78050NA+    NA+41774  24.067  20.665   1.243
78051NA+    NA+41775  11.353  37.841  13.824
78052NA+    NA+41776  29.112  22.653   3.677
78053NA+    NA+41777   3.409  38.880  13.860
78054NA+    NA+41778  18.271  42.426  12.357
78055NA+    NA+41779  40.324   6.752   2.689
78056NA+    NA+41780  39.426  32.024   2.846
78057NA+    NA+41781  18.109   5.361  11.052
78058NA+    NA+41782   7.285  26.572   1.718
78059NA+    NA+41783  44.808   4.264   1.268
78060NA+    NA+41784  31.500  44.821   4.771
78061NA+    NA+41785  25.532  11.191   3.691
78062NA+    NA+41786  18.646   1.733   5.214
78063NA+    NA+41787  33.596  16.666  13.899
78064NA+    NA+41788  26.565  11.663   3.830
78065NA+    NA+41789  22.548  41.501   3.339
78066NA+    NA+41790  44.279  23.498   1.405
78067NA+    NA+41791   3.732  10.253  10.560
78068NA+    NA+41792  39.339  38.074  14.027
78069NA+    NA+41793  13.347  34.895  11.910
78070NA+    NA+41794  32.018  37.470   4.134
78071NA+    NA+41795   3.845   7.209  12.911
78072NA+    NA+41796  11.311  13.160   2.281
78073NA+    NA+41797  10.181  17.219  14.972
78074NA+    NA+41798  11.637   3.753   0.752
78075NA+    NA+41799  42.021  22.198   1.898
78076NA+    NA+41800   2.391  36.009   1.318
78077NA+    NA+41801  27.669  41.857   2.200
78078NA+    NA+41802  36.420  20.574   2.234
78079NA+    NA+41803  31.456   1.828  14.330
78080NA+    NA+41804  11.307  32.902   0.280
78081NA+    NA+41805  42.908   3.322   4.348
78082NA+    NA+41806  29.488  34.988   4.827
78083NA+    NA+41807   2.800   9.173   4.235
78084NA+    NA+41808   8.736  26.131   0.277
78085NA+    NA+41809  26.550  14.297  14.028
78086NA+    NA+41810  17.791   3.953   4.779
78087NA+    NA+41811  43.830  13.627   4.311
78088NA+    NA+41812  38.004   3.391   0.307
78089NA+    NA+41813  39.845   2.405  13.392
78090NA+    NA+41814   9.652  23.493  13.421
78091NA+    NA+41815  15.793  37.077  13.061
78092NA+    NA+41816  27.022  41.381   1.731
78093NA+    NA+41817  32.935   5.864   3.287
78094NA+    NA+41818  34.938  33.047  10.537
78095NA+    NA+41819  43.011  33.625  11.983
78096NA+    NA+41820  14.611  28.675  11.916
78097NA+    NA+41821  16.631  42.895   2.854
78098NA+    NA+41822  20.172  37.366  14.358
78099NA+    NA+41823  34.919  35.915   3.201
78100NA+    NA+41824  21.668  22.179  12.428
78101NA+    NA+41825   8.320  12.821  14.384
78102NA+    NA+41826  20.239  27.577   0.825
78103NA+    NA+41827  32.498  20.608  14.854
78104NA+    NA+41828   2.787  38.423  13.059
78105NA+    NA+41829  15.200  27.624  10.450
78106NA+    NA+41830  40.348   6.428  13.834
78107NA+    NA+41831  33.983  33.981  12.903
78108NA+    NA+41832  12.753  33.624  11.605
78109NA+    NA+41833   8.659  40.984   3.779
78110NA+    NA+41834  10.163  12.734   0.293
78111NA+    NA+41835  36.515   7.211  11.541
78112NA+    NA+41836  17.760   6.391  14.905
78113NA+    NA+41837  39.978  36.426   5.707
78114NA+    NA+41838  12.856  12.773  11.377
78115NA+    NA+41839  31.960  34.909   0.765
78116NA+    NA+41840   9.744  11.646   0.373
78117NA+    NA+41841   3.877  26.097   2.370
78118NA+    NA+41842  40.331  20.676  12.008
78119NA+    NA+41843  33.092  44.395  11.515
78120NA+    NA+41844  26.630  13.248   0.275
78121NA+    NA+41845  19.768   5.788  14.833
78122NA+    NA+41846  44.288   0.818   3.686
78123NA+    NA+41847  42.785  37.899   3.793
78124NA+    NA+41848  21.577  20.203   0.850
78125NA+    NA+41849  39.503  12.358  11.427
78126NA+    NA+41850  23.188  15.091   1.279
78127NA+    NA+41851  13.608  19.602  10.426
78128NA+    NA+41852  14.111   7.328   3.146
78129NA+    NA+41853   9.230  15.817  14.915
78130NA+    NA+41854  37.047  44.936  12.824
78131NA+    NA+41855  28.950   9.854  10.003
78132NA+    NA+41856  24.021  39.040  14.299
78133NA+    NA+41857  13.197  12.673  10.508
78134NA+    NA+41858  37.378  44.936   4.678
78135NA+    NA+41859   5.431  39.471   4.170
78136NA+    NA+41860  14.255  21.095   1.442
78137NA+    NA+41861  33.933  25.991  13.938
78138NA+    NA+41862  39.534  43.852   4.652
78139NA+    NA+41863  29.423   9.725   3.311
78140NA+    NA+41864   6.848  35.059  14.321
78141NA+    NA+41865  18.296   9.701   1.863
78142NA+    NA+41866   3.759  38.518   2.801
78143NA+    NA+41867  16.211  27.566  10.642
78144NA+    NA+41868  14.748  38.020   3.340
78145NA+    NA+41869  41.021   0.879   0.430
78146NA+    NA+41870  40.456  35.870  14.792
78147NA+    NA+41871  36.419   1.376  12.551
78148NA+    NA+41872   2.368  28.650   1.406
78149NA+    NA+41873  15.179  42.370   3.319
78150NA+    NA+41874  38.874  24.089  10.063
78151NA+    NA+41875  27.684  44.850  13.023
78152NA+    NA+41876   4.260  18.156   0.443
78153NA+    NA+41877  39.827  19.112   3.378
78154NA+    NA+41878  29.444   6.800  10.145
78155NA+    NA+41879   9.387  32.440  10.543
78156NA+    NA+41880  19.127  40.327   5.143
78157NA+    NA+41881  38.858  22.040  12.933
78158NA+    NA+41882  34.901  14.780  14.364
78159NA+    NA+41883  27.520  23.643   3.258
78160NA+    NA+41884  27.451  32.480  14.382
78161NA+    NA+41885  38.019   4.757   3.650
78162NA+    NA+41886  22.084  41.848  10.920
78163NA+    NA+41887  18.232   0.908  13.418
78164NA+    NA+41888  29.423  32.969   4.269
78165NA+    NA+41889  33.013  29.154   4.750
78166NA+    NA+41890  12.216   4.821  11.067
78167NA+    NA+41891   0.310  29.489   2.179
78168NA+    NA+41892  27.613  42.025  13.846
78169NA+    NA+41893  21.721  39.357   3.386
78170NA+    NA+41894  44.843  21.045   3.635
78171NA+    NA+41895  28.533   1.470  13.495
78172NA+    NA+41896  26.132   6.363   4.253
78173NA+    NA+41897  12.793  39.456  11.030
78174NA+    NA+41898  36.459  12.621  14.774
78175NA+    NA+41899  32.403  33.578   4.734
78176NA+    NA+41900  15.225  20.104   4.612
78177NA+    NA+41901   0.352  13.126   4.200
78178NA+    NA+41902  42.795  32.531   4.215
78179NA+    NA+41903   3.415  18.094   4.231
78180NA+    NA+41904   0.857  21.637   1.889
78181NA+    NA+41905  11.158  28.013   1.795
78182NA+    NA+41906  41.040  16.772   2.261
78183NA+    NA+41907  17.156  24.645   1.355
78184NA+    NA+41908  38.885  33.571  14.358
78185NA+    NA+41909  10.227  28.126  12.485
78186NA+    NA+41910   3.926  16.276   4.132
78187NA+    NA+41911  21.553   4.733   0.862
78188NA+    NA+41912   4.277  25.978  13.546
78189NA+    NA+41913  33.961  12.854   3.736
78190NA+    NA+41914  10.805   3.295   4.195
78191NA+    NA+41915  30.136  23.604   4.138
78192NA+    NA+41916  17.117   2.226   0.940
78193NA+    NA+41917  33.107  21.690   0.915
78194NA+    NA+41918  41.925  24.689   3.774
78195NA+    NA+41919  10.754  13.775   1.734
78196NA+    NA+41920  11.341  10.193  13.406
78197NA+    NA+41921  10.177  23.689  12.555
78198NA+    NA+41922  14.641   7.840   2.187
78199NA+    NA+41923   8.242  17.745   4.249
78200NA+    NA+41924  20.131  44.476   3.342
78201NA+    NA+41925  11.131  35.509  14.372
78202NA+    NA+41926  14.118  23.539   3.310
78203NA+    NA+41927  32.927   2.901  13.412
78204NA+    NA+41928  27.624  11.343  11.560
78205NA+    NA+41929   5.864  39.550   3.381
78206NA+    NA+41930   9.191  28.665   0.867
78207NA+    NA+41931  43.383  25.668  11.443
78208NA+    NA+41932  23.705   6.246   4.636
78209NA+    NA+41933   0.987  32.633  12.382
78210NA+    NA+41934  11.358  25.642  14.800
78211NA+    NA+41935  27.020  20.570  12.379
78212NA+    NA+41936  31.441   8.758  12.507
78213NA+    NA+41937   6.265  32.402   0.778
78214NA+    NA+41938  24.544   0.848   2.274
78215NA+    NA+41939  11.722  41.872   2.897
78216NA+    NA+41940  36.512  20.044   3.800
78217NA+    NA+41941  27.634  38.398   2.881
78218NA+    NA+41942   6.416   3.366   5.171
78219NA+    NA+41943  20.598  38.383   2.323
78220NA+    NA+41944  43.374   2.431  13.328
78221NA+    NA+41945  42.520  11.808  13.044
78222NA+    NA+41946   3.804   7.364   0.439
78223NA+    NA+41947  25.994  18.205  12.464
78224NA+    NA+41948  16.670  28.464   2.272
78225NA+    NA+41949  28.069  23.198  14.955
78226NA+    NA+41950  37.915  10.370   4.640
78227NA+    NA+41951  36.568  16.240   2.669
78228NA+    NA+41952  38.385  34.468  13.332
78229NA+    NA+41953  36.500  14.634  10.892
78230NA+    NA+41954  29.550  23.735  11.118
78231NA+    NA+41955  11.824  21.628   2.668
78232NA+    NA+41956  27.589  14.198   3.203
78233NA+    NA+41957  29.448  39.939  11.055
78234NA+    NA+41958  28.537  34.464   2.786
78235NA+    NA+41959   9.370  37.525   1.248
78236NA+    NA+41960  18.176   7.817  11.868
78237NA+    NA+41961  15.661  10.147   2.781
78238NA+    NA+41962  42.348  34.079  10.983
78239NA+    NA+41963  16.290  44.960  13.947
78240NA+    NA+41964  15.628   3.822  14.487
78241NA+    NA+41965  37.854   9.290  13.989
78242NA+    NA+41966  27.063  41.406   1.437
78243NA+    NA+41967  35.508  31.474   2.293
78244NA+    NA+41968   8.335  44.986   2.848
78245NA+    NA+41969   4.218  43.293   2.791
78246NA+    NA+41970   1.412  16.197   1.820
78247NA+    NA+41971   9.346  26.637   0.462
78248NA+    NA+41972  31.521  19.594  13.335
78249NA+    NA+41973  23.515  17.186   2.199
78250NA+    NA+41974  44.912   4.362   3.788
78251CL-    CL-41975  40.453  20.262   0.306
78252CL-    CL-41976   6.844  32.970  11.936
78253CL-    CL-41977  33.464  23.594  14.376
78254CL-    CL-41978  27.537   5.255   2.415
78255CL-    CL-41979  31.481  32.522   1.783
78256CL-    CL-41980  43.819   1.257  12.931
78257CL-    CL-41981  24.566  29.566  14.951
78258CL-    CL-41982  14.281  28.515   4.207
78259CL-    CL-41983  13.733  17.760  12.359
78260CL-    CL-41984  12.293  15.269  10.440
78261CL-    CL-41985  42.924   0.308   4.173
78262CL-    CL-41986  25.121  25.001  11.095
78263CL-    CL-41987  22.119  17.640  13.533
78264CL-    CL-41988  41.419  35.096   1.390
78265CL-    CL-41989  34.372  35.473   0.897
78266CL-    CL-41990  33.067  21.713   0.439
78267CL-    CL-41991  14.745   6.691  13.308
78268CL-    CL-41992   5.199  27.957  12.046
78269CL-    CL-41993  29.023   6.746  14.824
78270CL-    CL-41994  24.481   7.324   4.701
78271CL-    CL-41995   3.733  14.171  14.854
78272CL-    CL-41996  29.549  27.675  12.392
78273CL-    CL-41997  32.410  10.870   2.303
78274CL-    CL-41998   5.713  21.745   1.694
78275CL-    CL-41999  40.839  39.556  11.958
78276CL-    CL-42000   1.898  12.280  14.008
78277CL-    CL-42001  35.446   9.358  11.923
78278CL-    CL-42002  15.805  24.069   0.469
78279CL-    CL-42003   3.431  12.233   4.814
78280CL-    CL-42004  19.082  44.007   3.331
78281CL-    CL-42005  43.824  10.825   2.384
78282CL-    CL-42006  13.265  29.618  12.423
78283CL-    CL-42007  25.093  20.619  12.839
78284CL-    CL-42008  30.536  30.598   4.795
78285CL-    CL-42009  32.138  17.073  14.386
78286CL-    CL-42010  15.662  44.380   1.872
78287CL-    CL-42011   6.788  40.448  13.410
78288CL-    CL-42012  32.471  12.123  10.999
78289CL-    CL-42013  39.397  35.374  14.015
78290CL-    CL-42014  42.005  25.536  12.969
78291CL-    CL-42015  41.039  22.067   3.682
78292CL-    CL-42016  29.542   4.834   0.333
78293CL-    CL-42017  36.508   5.386  11.090
78294CL-    CL-42018  26.482  36.577   3.814
78295CL-    CL-42019  18.665   7.893   2.800
78296CL-    CL-42020  23.567  13.320  13.429
78297CL-    CL-42021  10.824  41.828  10.489
78298CL-    CL-42022  24.719  25.659   1.216
78299CL-    CL-42023  18.629  32.922   1.306
78300CL-    CL-42024  26.007  34.955  14.773
78301CL-    CL-42025  20.258   3.354   0.763
78302CL-    CL-42026  32.049  44.908  12.022
78303CL-    CL-42027  34.113  39.321  14.913
78304CL-    CL-42028  21.755  29.634  12.923
78305CL-    CL-42029   0.985  38.545  12.934
78306CL-    CL-42030  20.669  14.329  14.419
78307CL-    CL-42031  39.494  36.513   4.242
78308CL-    CL-42032  32.954   8.398   1.333
78309CL-    CL-42033   2.321   7.820   3.792
78310CL-    CL-42034  29.599  28.530  11.025
78311CL-    CL-42035  40.865  12.627   2.849
78312CL-    CL-42036  25.543  11.748  13.967
78313CL-    CL-42037  42.386  15.653  13.335
78314CL-    CL-42038  29.488  18.288   1.419
78315CL-    CL-42039  26.974  36.467   3.176
78316CL-    CL-42040  15.215  14.163  12.955
78317CL-    CL-42041  12.150   6.256  14.487
78318CL-    CL-42042  33.427  28.091  10.519
78319CL-    CL-42043   1.816  39.015   3.756
78320CL-    CL-42044  15.714   0.980  14.819
78321CL-    CL-42045  12.255  42.847   2.384
78322CL-    CL-42046  32.544   0.749   4.221
78323CL-    CL-42047  16.681  43.796  14.777
78324CL-    CL-42048   0.760   0.371   4.221
78325CL-    CL-42049  21.700  21.080  13.846
78326CL-    CL-42050  34.578   0.408   1.437
78327CL-    CL-42051  41.456  13.332  12.503
78328CL-    CL-42052  40.500  34.413  10.545
78329CL-    CL-42053   7.334  15.799  10.521
78330CL-    CL-42054  17.735  30.097  11.602
78331CL-    CL-42055  22.604  12.224   3.752
78332CL-    CL-42056  37.980  44.774   4.309
78333CL-    CL-42057  14.209   3.729   5.607
78334CL-    CL-42058  18.115  16.794   0.373
78335CL-    CL-42059   4.361  26.108   1.906
78336CL-    CL-42060  27.188   9.884  11.082
78337CL-    CL-42061  10.864  12.790   3.151
78338CL-    CL-42062   5.429  22.625  11.056
78339CL-    CL-42063   5.926  18.283  11.400
78340CL-    CL-42064  10.739  25.146   4.161
78341CL-    CL-42065  32.544   6.264  12.866
78342CL-    CL-42066  26.545  43.359  13.921
78343CL-    CL-42067  16.699  23.617   0.249
78344CL-    CL-42068  31.081  13.808  13.535
78345CL-    CL-42069  23.132   5.256  13.402
78346CL-    CL-42070  41.907  40.448  12.399
78347CL-    CL-42071  33.081  42.402  13.018
78348CL-    CL-42072  27.489  22.029   1.769
78349CL-    CL-42073  19.719  21.167   2.357
78350CL-    CL-42074   7.183  11.131  11.496
78351CL-    CL-42075   4.702  34.566   5.292
78352CL-    CL-42076   3.220  10.758   1.932
78353CL-    CL-42077  17.676  34.494   1.320
78354CL-    CL-42078  12.309  12.213  12.542
78355CL-    CL-42079   5.322  25.487  10.534
78356CL-    CL-42080  30.527  33.420   4.720
78357CL-    CL-42081   0.913  35.053  12.560
78358CL-    CL-42082  12.811  31.038  14.987
78359CL-    CL-42083  41.365   8.164  12.358
78360CL-    CL-42084  36.877   2.420   2.759
78361CL-    CL-42085  34.499  41.335  10.547
78362CL-    CL-42086  13.117  38.011  11.502
78363CL-    CL-42087  33.992  39.552  12.053
78364CL-    CL-42088  33.932  26.683   2.262
78365CL-    CL-42089  18.104  42.299  10.459
78366CL-    CL-42090  14.143  14.307  11.553
78367CL-    CL-42091  32.577  37.565   2.816
78368CL-    CL-42092  14.293  28.124   4.310
78369CL-    CL-42093  35.603  26.540   3.214
78370CL-    CL-42094   5.916   5.730   2.350
78371CL-    CL-42095  20.556   8.220  11.895
78372CL-    CL-42096   2.243   3.727   3.767
78373CL-    CL-42097   4.818   7.341   1.235
78374CL-    CL-42098   1.283  41.471  13.897
78375CL-    CL-42099  15.801   2.942   2.364
78376CL-    CL-42100  26.628  16.193   4.239
78377CL-    CL-42101  28.965  17.192   0.836
78378CL-    CL-42102  24.151  33.508  14.487
78379CL-    CL-42103  33.383  20.619  14.934
78380CL-    CL-42104  23.066  10.374  14.342
78381CL-    CL-42105   7.808   6.697   2.722
78382CL-    CL-42106  30.158  24.542  13.394
78383CL-    CL-42107  11.736  12.618   3.281
78384CL-    CL-42108  28.565  37.524  12.368
78385CL-    CL-42109  24.583  11.723  14.340
78386CL-    CL-42110  43.486   3.840  12.886
78387CL-    CL-42111  25.989  19.584   3.331
78388CL-    CL-42112  35.093  39.534   1.226
78389CL-    CL-42113  37.456  44.922  12.354
78390CL-    CL-42114   3.861  41.535   4.337
78391CL-    CL-42115  21.729  34.012   2.192
78392CL-    CL-42116   2.732  31.969  12.952
78393CL-    CL-42117  36.588  10.859  11.005
78394CL-    CL-42118  27.016  20.696   2.246
78395CL-    CL-42119   6.269  16.715  12.035
78396CL-    CL-42120  21.525  18.777   2.903
78397CL-    CL-42121  32.517  17.191  13.012
78398CL-    CL-42122  16.773  40.906  10.486
78399CL-    CL-42123   3.263  31.639   2.891
78400CL-    CL-42124   6.186  26.992  13.834
78401CL-    CL-42125  21.747  15.326   1.929
78402CL-    CL-42126  25.149  21.636  11.047
78403CL-    CL-42127  16.588  34.427  12.435
78404CL-    CL-42128   2.799  36.088  12.830
78405CL-    CL-42129  36.497  26.952  14.960
78406CL-    CL-42130  20.126   8.176  13.956
78407CL-    CL-42131  20.266  30.452  12.033
78408CL-    CL-42132  41.819  43.318   0.348
78409CL-    CL-42133   6.840  15.667  10.960
78410CL-    CL-42134   6.241  40.518  14.408
78411CL-    CL-42135   4.262  21.245   1.381
78412CL-    CL-42136   2.237   7.695   2.900
78413CL-    CL-42137  16.687   9.678  14.431
78414CL-    CL-42138  16.184  21.620   4.712
78415CL-    CL-42139   6.710   7.865  11.127
78416CL-    CL-42140   8.880  44.408   4.354
78417CL-    CL-42141  37.999   1.265   2.386
78418CL-    CL-42142  34.546  31.465   4.294
78419CL-    CL-42143  34.475  24.646  10.523
78420CL-    CL-42144  36.933  15.240  13.441
78421CL-    CL-42145  37.356   9.264   2.775
78422CL-    CL-42146   0.408  24.205   1.800
78423CL-    CL-42147  22.024  23.672   3.344
78424CL-    CL-42148   7.827  19.269   3.287
78425CL-    CL-42149   6.796   7.191  12.067
78426CL-    CL-42150  30.985  10.726   4.634
78427CL-    CL-42151  33.931   2.793   3.262
78428CL-    CL-42152  14.189  25.045  11.031
78429CL-    CL-42153  19.106   3.896   1.814
78430CL-    CL-42154   5.376  27.063   1.230
78431CL-    CL-42155  21.052  12.292  14.012
78432CL-    CL-42156  14.821  31.042  13.866
78433CL-    CL-42157  18.614  37.554   1.920
78434CL-    CL-42158  39.837  40.358   3.692
78435CL-    CL-42159   3.837   7.891   1.421
78436CL-    CL-42160   6.195  28.562   0.310
78437CL-    CL-42161  14.820  23.090  13.358
78438CL-    CL-42162  44.463  19.116   1.789
78439CL-    CL-42163   0.984  43.956   2.364
78440CL-    CL-42164  11.659  20.625   3.274
78441CL-    CL-42165   0.396  41.042   4.772
78442CL-    CL-42166   4.376  42.333   4.742
78443CL-    CL-42167  24.989  20.233  13.829
78444CL-    CL-42168  20.680  28.122  14.400
78445CL-    CL-42169  18.161  20.178  12.394
78446CL-    CL-42170   4.389  25.033   1.261
78447CL-    CL-42171  40.500  37.009  14.283
78448CL-    CL-42172  24.149  31.518  10.499
78449CL-    CL-42173  43.978  12.618  14.863
78450CL-    CL-42174  39.809  33.958   1.259
78451CL-    CL-42175   1.784   1.951  14.369
78452CL-    CL-42176   8.373  32.538  13.819
78453CL-    CL-42177  43.817   2.374  11.944
78454CL-    CL-42178  28.486  40.995  11.907
78455CL-    CL-42179  42.010   2.855   1.310
78456CL-    CL-42180  24.167  43.867   4.206
78457CL-    CL-42181  34.980  35.998   1.270
78458CL-    CL-42182  39.556  22.202   3.181
78459CL-    CL-42183  28.026   0.486  14.885
78460CL-    CL-42184  15.180  29.065  10.596
78461CL-    CL-42185  31.614  22.601   3.744
78462CL-    CL-42186   1.337  26.987   3.660
78463CL-    CL-42187  40.033  17.157  14.456
78464CL-    CL-42188   8.164  18.683   3.258
78465CL-    CL-42189  23.526  32.075  11.021
78466CL-    CL-42190  43.990   3.406  11.904
78467CL-    CL-42191  13.623  23.040   3.303
78468CL-    CL-42192  12.673   2.846  10.017
78469CL-    CL-42193  38.830  26.608  12.532
78470CL-    CL-42194  27.544   6.747   1.836
78471CL-    CL-42195  20.103   9.794   4.314
78472CL-    CL-42196  38.564  30.627  10.588
78473CL-    CL-42197   4.877   0.831  10.945
78474CL-    CL-42198  35.057   3.313  11.920
78475CL-    CL-42199   6.357   7.222   3.332
78476CL-    CL-42200  41.356  31.022  13.823
78477CL-    CL-42201  14.813   3.260   0.364
78478CL-    CL-42202  41.863  34.544  13.968
78479CL-    CL-42203   3.268  18.284   2.342
78480CL-    CL-42204  11.291  10.194  13.888
78481CL-    CL-42205  26.998   3.882   0.283
78482CL-    CL-42206  37.383   8.695  13.475
78483CL-    CL-42207  25.191  23.201  14.908
78484CL-    CL-42208   7.406  29.562   2.282
78485CL-    CL-42209   0.900  16.073   4.827
78486CL-    CL-42210   8.809  38.469   2.198
78487CL-    CL-42211  22.999   6.323  11.585
78488CL-    CL-42212  42.480  39.036  14.499
78489CL-    CL-42213  34.429   3.277  13.998
78490CL-    CL-42214   7.215  24.124  14.350
78491CL-    CL-42215  21.532  37.848  10.028
78492CL-    CL-42216  20.229  30.064   4.207
78493CL-    CL-42217  34.073   8.746  10.951
78494CL-    CL-42218  21.727  36.578   4.274
78495CL-    CL-42219  22.673  19.727   4.210
78496CL-    CL-42220   9.676  39.557  13.541
78497CL-    CL-42221  29.584   5.291  14.876
78498CL-    CL-42222  23.134   1.466   1.242
78499CL-    CL-42223  36.041  17.641   2.846
78500CL-    CL-42224  34.404  42.879   4.329
78501CL-    CL-42225   7.322  41.815  12.838
78502CL-    CL-42226  26.083  11.347   4.265
78503CL-    CL-42227  26.657   4.289   1.891
78504CL-    CL-42228   1.443   7.759  10.526
78505CL-    CL-42229  40.850  38.341   2.343
78506CL-    CL-42230  29.663  22.584   3.159
78507CL-    CL-42231  35.041   5.264   0.838
78508CL-    CL-42232  37.890   2.773   4.218
78509CL-    CL-42233  14.175  27.081  14.292
78510CL-    CL-42234  33.531  28.990  11.915
78511CL-    CL-42235   9.335  22.737   2.746
78512CL-    CL-42236   5.717   8.664  10.632
78513CL-    CL-42237  16.601  11.326  10.584
78514CL-    CL-42238  37.520  40.372   3.765
78515CL-    CL-42239  35.027  27.632  12.007
78516CL-    CL-42240  15.314   0.759  14.438
78517CL-    CL-42241  14.602  18.695  13.493
78518CL-    CL-42242  31.550  22.720   2.811
78519CL-    CL-42243  29.116  18.738  13.973
78520CL-    CL-42244  28.020  23.593  10.924
78521CL-    CL-42245  30.471  33.016  12.080
78522CL-    CL-42246  16.616  25.143   5.180
78523CL-    CL-42247  44.786  15.653   4.318
78524CL-    CL-42248  12.835  29.610  14.774
78525CL-    CL-42249  39.547  27.524  14.808
78526CL-    CL-42250  35.060  25.158   2.797
78527CL-    CL-42251  24.001  27.974  11.112
78528CL-    CL-42252  27.497  31.120  13.974
78529CL-    CL-42253  12.783   3.950   9.948
78530CL-    CL-42254   9.276  32.088   2.401
78531CL-    CL-42255  18.726  30.625   3.776
78532CL-    CL-42256  24.633   9.169   3.860
78533CL-    CL-42257  44.482  12.306  11.561
78534CL-    CL-42258   3.350  12.356  13.354
78535CL-    CL-42259   9.810  19.688   4.718
78536CL-    CL-42260   6.183  37.379   0.344
78537CL-    CL-42261  10.859   1.311  12.952
78538CL-    CL-42262  21.738  27.600   2.707
78539CL-    CL-42263   9.789  23.143   1.213
78540CL-    CL-42264  31.625  11.774   2.740
78541CL-    CL-42265  34.114  40.518   3.815
78542CL-    CL-42266  17.068  27.100   3.748
78543CL-    CL-42267  14.206  38.399  14.786
78544CL-    CL-42268   1.783   3.930   3.270
78545CL-    CL-42269  10.829   6.697  12.366
78546CL-    CL-42270  41.517   8.286   2.195
78547CL-    CL-42271   8.700  12.149  10.026
78548CL-    CL-42272  30.555  35.021  10.531
78549CL-    CL-42273   4.426   8.292  14.345
78550CL-    CL-42274  36.544  42.017  10.446
78551CL-    CL-42275  42.313   6.283  13.391
78552CL-    CL-42276  35.510  16.094  13.009
78553CL-    CL-42277  16.724  38.040   2.724
78554CL-    CL-42278  31.926   1.835  11.550
78555CL-    CL-42279  32.912   3.873  10.499
78556CL-    CL-42280  37.337  25.512  12.912
78557CL-    CL-42281   5.734   7.210  12.461
78558CL-    CL-42282   1.439  33.428   3.244
78559CL-    CL-42283  32.005  42.428   2.247
78560CL-    CL-42284   0.828   3.217  11.071
78561CL-    CL-42285  21.530  36.054   9.988
78562CL-    CL-42286  15.319  30.562   4.347
78563CL-    CL-42287   7.230   2.340  14.295
78564CL-    CL-42288  44.964  38.557  11.473
78565CL-    CL-42289   6.677  27.000   4.120
78566CL-    CL-42290   8.296  26.058  11.083
78567CL-    CL-42291   9.676   7.705   4.770
78568CL-    CL-42292  29.451  12.236   1.920
78569CL-    CL-42293  23.578  14.639   1.341
78570CL-    CL-42294   8.186   7.355   3.268
78571CL-    CL-42295   0.921  38.451  13.311
78572CL-    CL-42296   9.257  41.360   2.225
78573CL-    CL-42297  24.606   4.754  13.386
78574CL-    CL-42298  27.044  44.440  12.090
78575CL-    CL-42299   3.229   5.294   2.226
78576CL-    CL-42300  34.964  36.861  13.794
78577CL-    CL-42301  13.713  41.501   1.826
78578CL-    CL-42302  17.096  27.959   0.791
78579CL-    CL-42303  12.658  20.531  11.097
78580CL-    CL-42304  15.146  39.952   3.285
78581CL-    CL-42305   7.373   0.896  12.550
78582CL-    CL-42306  29.468   4.298   3.778
78583CL-    CL-42307  24.511  39.454  11.434
78584CL-    CL-42308  21.623  28.629  14.337
78585CL-    CL-42309  21.043  44.794  13.948
78586CL-    CL-42310  26.469  40.001   2.722
78587CL-    CL-42311   4.400   4.892  12.479
78588CL-    CL-42312  44.802   1.480  12.985
78589CL-    CL-42313  12.171  28.519   0.792
78590CL-    CL-42314   6.330  25.603  11.490
78591CL-    CL-42315  18.085  26.627   2.203
78592CL-    CL-42316  41.386  19.605   0.924
78593CL-    CL-42317   5.734   2.365   4.742
78594CL-    CL-42318  29.143  44.334   0.468
78595CL-    CL-42319  18.563  24.129   1.866
78596CL-    CL-42320  34.938   2.780  13.979
78597CL-    CL-42321  19.212  11.176   4.206
78598CL-    CL-42322  14.703  14.132  10.989
78599CL-    CL-42323   7.234  28.142   1.726
78600CL-    CL-42324  34.080  34.958   0.783
78601CL-    CL-42325  34.493  31.561  11.902
78602CL-    CL-42326  34.891  38.883  10.626
78603CL-    CL-42327  34.120  37.449   2.274
78604CL-    CL-42328  28.589  12.362  12.997
78605CL-    CL-42329  33.414  31.109   0.260
78606CL-    CL-42330  43.966  34.074   5.667
78607CL-    CL-42331  15.821  17.243   3.812
78608CL-    CL-42332  41.877  25.186  12.371
78609CL-    CL-42333  19.276  18.664   0.353
78610CL-    CL-42334  19.093  25.131   3.293
78611CL-    CL-42335  21.566  24.707  11.482
78612CL-    CL-42336  23.571   7.705   2.277
78613CL-    CL-42337  26.622  21.243   1.287
78614CL-    CL-42338  15.590  36.097   4.207
78615CL-    CL-42339  17.668  21.221   0.254
78616CL-    CL-42340   6.280  40.854  13.436
78617CL-    CL-42341   4.889  36.855  10.122
78618CL-    CL-42342   6.914  23.180   2.386
78619CL-    CL-42343  23.204   4.929   1.857
78620CL-    CL-42344   3.827  42.525  14.881
78621CL-    CL-42345   7.357  35.073   2.839
78622CL-    CL-42346   7.768  24.125  11.999
78623CL-    CL-42347   9.312  30.634   2.266
78624CL-    CL-42348  40.035  37.411   2.213
78625CL-    CL-42349   4.937  15.147  11.987
78626CL-    CL-42350  19.054  17.246  10.009
78627CL-    CL-42351  29.150   8.815  11.522
78628CL-    CL-42352  41.338  17.732  14.437
78629CL-    CL-42353  38.344  41.007  14.012
78630CL-    CL-42354  26.607  12.291  10.983
78631CL-    CL-42355  14.182   6.821  11.382
78632CL-    CL-42356   1.953   1.332   3.162
78633CL-    CL-42357   6.415  35.484  12.830
78634CL-    CL-42358  35.996  21.565  10.455
78635CL-    CL-42359  37.367   6.311  13.055
78636CL-    CL-42360   9.647  38.037  10.425
78637CL-    CL-42361  11.702  30.418  10.941
78638CL-    CL-42362   7.881  42.836   1.728
78639CL-    CL-42363  21.704  30.987   9.548
78640CL-    CL-42364  19.537  29.536  10.477
78641CL-    CL-42365  36.347  20.560   1.252
78642CL-    CL-42366  23.139  16.680   4.261
78643CL-    CL-42367  38.434  31.043  12.541
78644CL-    CL-42368  21.239  27.585  11.419
78645CL-    CL-42369  19.253   6.894   2.252
78646CL-    CL-42370  25.011  24.607  10.606
78647CL-    CL-42371   4.835  11.637  10.035
78648CL-    CL-42372  25.584  24.131  11.888
78649CL-    CL-42373   1.867  30.600  11.869
78650CL-    CL-42374  39.423   4.859   4.251
78651CL-    CL-42375  37.389   1.391  11.990
78652CL-    CL-42376  15.681  29.138  11.496
78653CL-    CL-42377  43.424   0.445  11.961
78654CL-    CL-42378  27.031  18.296   1.296
78655CL-    CL-42379  31.942  30.125   0.781
78656CL-    CL-42380  16.099  19.252  12.931
78657CL-    CL-42381  34.488  19.613  11.431
78658CL-    CL-42382   9.319  33.073  12.366
78659CL-    CL-42383   1.820  14.730   1.837
78660CL-    CL-42384   9.650  20.236  11.956
78661CL-    CL-42385  13.300  18.669   2.770
78662CL-    CL-42386  12.261  37.979  14.464
78663CL-    CL-42387  12.788   5.244   4.325
78664CL-    CL-42388  39.454  36.516  10.909
78665CL-    CL-42389  19.247  27.507   4.668
78666CL-    CL-42390  12.706   6.187   3.164
78667CL-    CL-42391  42.008  33.904   3.803
78668CL-    CL-42392   3.376  13.744  14.382
78669CL-    CL-42393  39.500  10.698  11.420
78670CL-    CL-42394   2.306  21.557   4.788
78671CL-    CL-42395   2.341  20.160   0.827
78672CL-    CL-42396  40.337  21.080  10.526
78673CL-    CL-42397   9.789  14.173   4.341
78674CL-    CL-42398  33.453  31.987  10.475
78675CL-    CL-42399  11.752  21.570  13.971
78676CL-    CL-42400  18.145  29.074  11.102
78677CL-    CL-42401  13.149   5.397   2.386
78678CL-    CL-42402   0.459  29.620   1.332
78679CL-    CL-42403  38.519  21.147  10.945
78680CL-    CL-42404   6.376  23.039   1.739
78681CL-    CL-42405   7.214  33.488  10.986
78682CL-    CL-42406   8.182  37.946   4.293
78683CL-    CL-42407  10.691   6.416   2.237
78684CL-    CL-42408   3.233  14.163  11.909
78685CL-    CL-42409  30.094  20.627  11.951
78686CL-    CL-42410  19.739  38.958   0.317
78687CL-    CL-42411  10.257  31.141   3.635
78688CL-    CL-42412  26.689  43.278   2.742
78689CL-    CL-42413  16.110  42.406  13.853
78690CL-    CL-42414   0.381   9.192   0.407
78691CL-    CL-42415  35.034   8.401   4.705
78692CL-    CL-42416  42.332   3.920  13.962
78693CL-    CL-42417  31.023  15.193  10.625
78694CL-    CL-42418  16.723   3.429   2.821
78695CL-    CL-42419  26.050  41.385   2.878
78696CL-    CL-42420  27.192   2.864  14.415
78697CL-    CL-42421   7.389  18.767   2.355
78698CL-    CL-42422  19.180  31.534  10.950
78699CL-    CL-42423  20.267  15.603   5.211
78700CL-    CL-42424   5.226  39.992   1.881
78701CL-    CL-42425   4.388  21.646   4.246
78702CL-    CL-42426  42.479  21.064  10.895
78703CL-    CL-42427  15.635  13.264   4.276
78704CL-    CL-42428  35.990  23.714  11.007
78705CL-    CL-42429  26.151  31.618   9.919
78706CL-    CL-42430  12.154  42.967  10.937
78707CL-    CL-42431  26.169  42.020  14.866
78708CL-    CL-42432   2.402  25.667  11.883
78709CL-    CL-42433   0.768  38.460   4.636
78710CL-    CL-42434   9.275  30.158  12.833
78711CL-    CL-42435  36.921  15.757  14.982
78712CL-    CL-42436   0.936  31.453  12.567
78713CL-    CL-42437  21.176  14.121   1.717
78714CL-    CL-42438  28.086  12.336   3.213
78715CL-    CL-42439  12.166  23.665   0.783
78716CL-    CL-42440  16.316  35.105   4.649
78717CL-    CL-42441  39.972  26.590  13.001
78718CL-    CL-42442   8.393  44.888   0.830
78719CL-    CL-42443  27.596  37.384  11.387
78720CL-    CL-42444  41.966   7.173   3.146
78721CL-    CL-42445   8.679  23.037   3.745
78722CL-    CL-42446  10.324   4.225  10.972
78723CL-    CL-42447   9.777  15.083  10.533
78724CL-    CL-42448  20.677  21.715   0.314
78725CL-    CL-42449  30.479   4.806  13.402
78726CL-    CL-42450  33.953  26.549   3.147
78727CL-    CL-42451  38.469  44.481  10.466
78728CL-    CL-42452  24.034  43.776  11.031
78729CL-    CL-42453   1.833  32.953  11.586
78730CL-    CL-42454  38.950  40.869   2.670
78731CL-    CL-42455   8.383  19.672   2.305
78732CL-    CL-42456   6.422   6.351  10.923
78733CL-    CL-42457  24.003  10.320  12.873
78734CL-    CL-42458   6.216   9.866   4.254
78735CL-    CL-42459  34.106  32.978   4.328
78736CL-    CL-42460  38.464  27.190  13.307
78737CL-    CL-42461  12.700  13.679   1.786
78738CL-    CL-42462   9.347  22.665   1.252
78739CL-    CL-42463  43.391  22.592   0.424
78740CL-    CL-42464  14.773  42.464  11.032
78741CL-    CL-42465  30.520  28.568   0.462
78742CL-    CL-42466  12.789   2.727   2.746
78743CL-    CL-42467  13.204  21.608   2.885
78744CL-    CL-42468  31.141  44.452   3.313
78745CL-    CL-42469  14.096  43.876  10.637
78746CL-    CL-42470  29.455  28.979  12.943
78747CL-    CL-42471  35.384  13.624   0.249
78748CL-    CL-42472   4.268  12.220  10.000
78749CL-    CL-42473  10.739  36.433   4.177
78750CL-    CL-42474   4.261  41.311   0.279
78751CL-    CL-42475  13.263  34.038  12.095
78752CL-    CL-42476   3.906  10.153   1.796
78753CL-    CL-42477   5.271   6.877  14.282
78754CL-    CL-42478   4.791  28.520  14.474
78755CL-    CL-42479   8.794   0.312  13.523
78756CL-    CL-42480  10.773  27.978   4.312
78757CL-    CL-42481   9.360  40.344   4.227
78758CL-    CL-42482  39.409  16.183  12.944
78759CL-    CL-42483   2.240  25.973   3.225
78760CL-    CL-42484  26.561  10.806   3.692
78761CL-    CL-42485  15.302  16.204  12.941
78762CL-    CL-42486  42.401   0.339  14.485
78763CL-    CL-42487  24.120  12.619   3.251
78764CL-    CL-42488  34.429  38.004   2.732
78765CL-    CL-42489  33.062   2.856   3.293
78766CL-    CL-42490  14.323  30.027  11.474
78767CL-    CL-42491  15.247   1.885   1.772
78768CL-    CL-42492  42.325  38.514  13.873
78769CL-    CL-42493  18.217  31.594   3.376
78770CL-    CL-42494  36.556  40.326  12.378
78771CL-    CL-42495  29.129  28.163   2.713
78772CL-    CL-42496  43.907  12.831  11.423
78773CL-    CL-42497  10.305  27.944  10.643
78774CL-    CL-42498  32.562  43.925   2.702
78775CL-    CL-42499  31.553  34.890  11.466
78776CL-    CL-42500  18.755  25.710   4.672
78777CL-    CL-42501  26.989  19.075   4.205
78778CL-    CL-42502  11.656  44.301  12.918
78779CL-    CL-42503  30.477  31.582  13.362
78780CL-    CL-42504   9.251  24.073   4.247
78781CL-    CL-42505  40.831  11.330   2.416
78782CL-    CL-42506  11.815  24.497  11.376
78783CL-    CL-42507   8.188   8.720  13.010
78784CL-    CL-42508  38.519  29.618  11.567
78785CL-    CL-42509   7.186  14.332   5.118
78786CL-    CL-42510  39.929  11.682   0.306
78787CL-    CL-42511  30.038  18.242   2.414
78788CL-    CL-42512  20.244  25.072   5.199
78789CL-    CL-42513  41.415  18.166  13.977
78790CL-    CL-42514  21.169   9.310   1.216
78791CL-    CL-42515  44.291   3.301   1.869
78792CL-    CL-42516  30.958  11.757  12.052
78793CL-    CL-42517  37.925   1.414   4.245
78794CL-    CL-42518  25.206  22.541  14.440
78795CL-    CL-42519   7.269  42.399  14.902
78796CL-    CL-42520  27.028  27.026   4.310
78797CL-    CL-42521  26.564  11.140   1.734
78798CL-    CL-42522  13.649   8.690   0.879
78799CL-    CL-42523  12.735  32.433   0.426
78800CL-    CL-42524   1.402   2.871  11.901
78801CL-    CL-42525  21.076  20.200  10.573
78802CL-    CL-42526  11.686   0.778   2.877
78803CL-    CL-42527  42.780   0.806  14.500
78804CL-    CL-42528  37.379  37.403   4.649
78805CL-    CL-42529  21.745  34.104   0.464
78806CL-    CL-42530  23.059  38.540  13.536
78807CL-    CL-42531   0.758  24.494  10.615
78808CL-    CL-42532  16.771  44.396  13.824
78809CL-    CL-42533  31.956  11.219  13.413
78810CL-    CL-42534   6.703  28.958   4.239
78811CL-    CL-42535  17.565  26.988  12.890
78812CL-    CL-42536  35.996   3.372   0.455
78813CL-    CL-42537  24.621  38.954   2.832
78814CL-    CL-42538  39.523  20.573  13.925
78815CL-    CL-42539  25.091  40.030   1.766
78816CL-    CL-42540  36.366  10.360  13.900
78817CL-    CL-42541  30.631  30.113  13.446
78818CL-    CL-42542  16.753  34.486  14.472
78819CL-    CL-42543  35.891   5.352  11.066
78820CL-    CL-42544   9.344  10.669  10.541
78821CL-    CL-42545  24.567  28.448  12.878
78822CL-    CL-42546  24.526  14.315  12.986
78823CL-    CL-42547  17.639  32.012  12.860
78824CL-    CL-42548  17.271  29.974   2.688
78825CL-    CL-42549  10.669  12.315   5.108
78826CL-    CL-42550   8.163  29.647  11.440
78827CL-    CL-42551  43.837  13.839   0.805
78828CL-    CL-42552  32.475   8.816  11.964
78829CL-    CL-42553  32.402   5.698   1.379
78830CL-    CL-42554  32.120   5.690   4.141
78831CL-    CL-42555  43.305   5.738  13.855
78832CL-    CL-42556  16.151  11.217   1.904
78833CL-    CL-42557  12.242   1.420  10.464
78834CL-    CL-42558  23.603   2.766   1.284
78835CL-    CL-42559   8.712  33.480   5.276
78836CL-    CL-42560  23.192  37.075   0.817
78837CL-    CL-42561   4.384   4.263  14.986
78838CL-    CL-42562  27.592  25.542   4.742
78839CL-    CL-42563  25.647  44.773   0.438
78840CL-    CL-42564  14.323  32.956  13.484
78841CL-    CL-42565  43.809   2.903   1.397
78842CL-    CL-42566  41.296  26.952   3.151
78843CL-    CL-42567   4.801  33.499  14.856
78844CL-    CL-42568  36.377  41.485  14.953
78845CL-    CL-42569  44.800  21.155   2.230
78846CL-    CL-42570  32.630  26.481  14.773
78847CL-    CL-42571  20.641  26.467  10.950
78848CL-    CL-42572   5.278  44.815  11.998
78849CL-    CL-42573  28.566  16.257   1.212
78850CL-    CL-42574  20.535  38.359   1.892
78851CL-    CL-42575  33.977  35.034  12.450
78852CL-    CL-42576  35.554  18.586   3.323
78853CL-    CL-42577   9.688  34.032   3.794
78854CL-    CL-42578  18.644  25.131  10.595
78855CL-    CL-42579  31.501  28.078   4.241
78856CL-    CL-42580   4.881  17.173   0.247
78857CL-    CL-42581  13.233  18.584  10.971
78858CL-    CL-42582  24.601  27.627   5.110
78859CL-    CL-42583  33.086   5.353  13.918
78860CL-    CL-42584  28.646  42.336   2.281
78861CL-    CL-42585  36.055   5.841  13.466
78862CL-    CL-42586   9.315  33.545   0.423
78863CL-    CL-42587  29.665   4.277  12.540
78864CL-    CL-42588  28.469  10.645  12.558
78865CL-    CL-42589  24.487  11.146   2.359
78866CL-    CL-42590  31.029  31.114  13.805
78867CL-    CL-42591   1.278  44.844  12.057
78868CL-    CL-42592   6.897  24.564   4.339
78869CL-    CL-42593  24.667   3.816   2.884
78870CL-    CL-42594  14.280  24.160  13.321
78871CL-    CL-42595  20.593  10.203  13.799
78872CL-    CL-42596  41.424  21.730   5.315
78873CL-    CL-42597  12.199  25.972  13.477
78874CL-    CL-42598   8.268   4.806   2.803
78875CL-    CL-42599  43.318  15.770   3.296
78876CL-    CL-42600  32.894  19.040  12.489
78877CL-    CL-42601   0.278  12.771   2.373
78878CL-    CL-42602  16.098  17.256  13.889
78879CL-    CL-42603  40.516  11.137   0.277
78880CL-    CL-42604  21.064   8.305  13.331
78881CL-    CL-42605  33.048  37.992  11.506
78882CL-    CL-42606  15.810  12.244   0.249
78883CL-    CL-42607   2.945   4.751  13.515
78884CL-    CL-42608   0.462  20.617   1.762
78885CL-    CL-42609  22.742   0.965  14.815
78886CL-    CL-42610  21.512  44.359   4.665
78887CL-    CL-42611  44.866  10.791  10.603
78888CL-    CL-42612  29.167  43.022   0.461
78889CL-    CL-42613  38.532  36.060  12.086
78890CL-    CL-42614  30.414  29.166   1.907
78891CL-    CL-42615   1.393   8.720   2.835
78892CL-    CL-42616  27.567  12.247   0.407
78893CL-    CL-42617  42.331  33.073   2.311
78894CL-    CL-42618  26.005  39.458   3.784
78895CL-    CL-42619  38.056  17.621  13.028
78896CL-    CL-42620   4.394  15.802   2.337
78897CL-    CL-42621  39.985  12.165  13.823
78898CL-    CL-42622  20.561  44.003  12.503
78899CL-    CL-42623  14.589  34.934  13.824
78900CL-    CL-42624  43.361  18.550   0.773
78901CL-    CL-42625  11.672   3.874   2.769
78902CL-    CL-42626  32.530  14.217   2.897
78903CL-    CL-42627  32.889  44.757   0.282
78904CL-    CL-42628  43.940  14.729   1.830
78905CL-    CL-42629  37.486  36.384   0.428
78906CL-    CL-42630  31.037  30.636  14.933
78907CL-    CL-42631  12.700  44.784  11.576
78908CL-    CL-42632  15.088  43.277   2.714
78909CL-    CL-42633  29.457  15.230  12.896
78910CL-    CL-42634  23.674  34.961  13.534
78911CL-    CL-42635  29.549   9.161   2.249
78912CL-    CL-42636  17.119   0.979  10.081
78913CL-    CL-42637  41.844  31.547   0.356
78914CL-    CL-42638  21.605  36.065  10.541
78915CL-    CL-42639  27.546  36.897  14.842
78916CL-    CL-42640  33.980  39.858   4.259
78917CL-    CL-42641  14.741   0.857  10.966
78918CL-    CL-42642  34.913  29.464   0.840
78919CL-    CL-42643  29.036  30.933  11.954
78920CL-    CL-42644  31.605   6.860  14.361
78921CL-    CL-42645  33.390  21.211  13.000
78922CL-    CL-42646  43.997  21.027  12.901
78923CL-    CL-42647  43.350  22.694   2.263
78924CL-    CL-42648  25.185  26.573   2.887
78925CL-    CL-42649  16.292  39.497  11.949
78926CL-    CL-42650  14.804  17.773   4.204
78927CL-    CL-42651  10.363  25.510  14.406
78928CL-    CL-42652  14.321  42.508   0.255
78929CL-    CL-42653   1.424   0.494   3.309
78930CL-    CL-42654  17.191  11.338  14.471
78931CL-    CL-42655  13.207  40.541  11.950
78932CL-    CL-42656  19.563   5.877   3.648
78933CL-    CL-42657  34.034  16.151  10.890
78934CL-    CL-42658  14.115  26.620   3.781
78935CL-    CL-42659  27.187   5.738   2.766
78936CL-    CL-42660  34.506  37.837  10.489
78937CL-    CL-42661  13.196  12.721  14.339
78938CL-    CL-42662  29.656  42.522  13.026
78939CL-    CL-42663   4.436  14.209   1.273
78940CL-    CL-42664   0.354  19.726  10.891
78941CL-    CL-42665  10.193  22.514   0.931
78942CL-    CL-42666  28.595  28.552  13.903
78943CL-    CL-42667  28.018  15.703   9.990
78944CL-    CL-42668  41.451  41.334  13.031
78945CL-    CL-42669  40.348  11.804   3.773
78946CL-    CL-42670   4.731   3.884   2.819
78947CL-    CL-42671   0.919  32.981   1.762
78948CL-    CL-42672  40.489  15.674   3.228
78949CL-    CL-42673  25.554  41.475   2.380
78950CL-    CL-42674  23.524  15.769   1.707
78951CL-    CL-42675  22.503   1.904   4.344
78952CL-    CL-42676  15.171  10.862  14.955
78953CL-    CL-42677   1.418  31.077  13.376
78954CL-    CL-42678  20.244  32.958   3.367
78955CL-    CL-42679   2.428  31.031  12.087
78956CL-    CL-42680  28.099  17.140   2.335
78957CL-    CL-42681   4.731  41.835   4.212
78958CL-    CL-42682  21.159   8.199   2.361
78959CL-    CL-42683  13.695  39.057  11.062
78960CL-    CL-42684  40.973  34.110   9.972
78961CL-    CL-42685  23.097  11.158  12.016
78962CL-    CL-42686  20.137  15.629  14.347
78963CL-    CL-42687  14.674  32.574   1.278
78964CL-    CL-42688  13.764  43.877  10.925
78965CL-    CL-42689  36.427  11.306  13.875
78966CL-    CL-42690  19.198  18.601  10.456
78967CL-    CL-42691  26.145   7.178  11.933
78968CL-    CL-42692  17.139  37.012  13.501
78969CL-    CL-42693  19.151  12.157  13.413
78970CL-    CL-42694  24.603  27.962   1.870
78971CL-    CL-42695  10.374  10.724   0.275
78972CL-    CL-42696  10.749  21.592  14.009
78973CL-    CL-42697   1.279  40.963   2.230
78974CL-    CL-42698  23.604  32.553   4.826
78975CL-    CL-42699   9.337   5.858  13.823
78976CL-    CL-42700  24.046  12.125  12.980
78977CL-    CL-42701   2.343  38.509   4.225
78978CL-    CL-42702   1.286  11.751  14.350
78979CL-    CL-42703  31.075  42.909   0.795
78980CL-    CL-42704  13.216   6.777  14.973
78981CL-    CL-42705   6.763  40.937  14.279
78982CL-    CL-42706  23.024  33.431  10.992
78983CL-    CL-42707  44.258  11.312   3.683
78984CL-    CL-42708  26.174  22.740   2.367
78985CL-    CL-42709  44.891  26.161   2.903
78986CL-    CL-42710  35.411   6.829   1.743
78987CL-    CL-42711  34.568  10.383  14.455
78988CL-    CL-42712  11.287  43.804   1.907
78989CL-    CL-42713   5.376  36.489   0.338
78990CL-    CL-42714  33.093  27.953   1.241
78991CL-    CL-42715  25.710  24.580  12.470
78992CL-    CL-42716  34.376   8.880  10.538
78993CL-    CL-42717  20.527  26.502  14.943
78994CL-    CL-42718  11.665  25.158   0.841
78995CL-    CL-42719  20.139  39.502   1.400
78996CL-    CL-42720  34.548  41.923   4.250
78997CL-    CL-42721  29.659  35.983  13.871
78998CL-    CL-42722  24.039  17.073  12.871
78999CL-    CL-42723   8.256  20.672  12.500
79000CL-    CL-42724  41.296  17.714   3.182
79001CL-    CL-42725  35.589   4.292  12.427
79002CL-    CL-42726  36.593  38.533   4.793
79003CL-    CL-42727  18.726  37.883   1.325
79004CL-    CL-42728  20.652  28.510  11.609
79005CL-    CL-42729   0.761   2.813   3.808
79006CL-    CL-42730  15.247  15.727  11.472
79007CL-    CL-42731   2.906   1.860  10.538
79008CL-    CL-42732  24.600  21.707   4.346
79009CL-    CL-42733  34.393  33.429  14.439
79010CL-    CL-42734  32.578  22.613   0.267
79011CL-    CL-42735  20.119  30.413   4.748
79012CL-    CL-42736  24.514  44.381  14.386
79013CL-    CL-42737  27.621  34.507   4.607
79014CL-    CL-42738  21.516   1.348   0.411
79015CL-    CL-42739  10.352  25.161   0.775
79016CL-    CL-42740  35.482  21.706  13.979
79017CL-    CL-42741  43.846  33.941   3.295
79018CL-    CL-42742  15.124  12.146  14.823
79019CL-    CL-42743  33.435   7.389  12.093
79020CL-    CL-42744  21.140  21.617  11.606
79021CL-    CL-42745   4.401  31.986   1.699
79022CL-    CL-42746  28.639  34.992  12.569
79023CL-    CL-42747  26.608   9.254  14.489
79024CL-    CL-42748  23.141  11.134   1.900
79025CL-    CL-42749  42.791  17.600   3.347
79026CL-    CL-42750  39.032  39.918  10.527
79027CL-    CL-42751  36.081   9.740  13.491
79028CL-    CL-42752   2.332  29.108  13.461
79029CL-    CL-42753  16.250  29.485   1.790
79030CL-    CL-42754   6.287  24.086   0.364
79031CL-    CL-42755  15.135  31.437  11.456
79032CL-    CL-42756   0.773  14.304   0.405
79033CL-    CL-42757   7.408  30.653   1.912
79034CL-    CL-42758  20.231  35.521   3.651
79035CL-    CL-42759  30.464  39.005   4.632
79036CL-    CL-42760  26.482  36.881   4.114
79037CL-    CL-42761  18.621  39.816  14.868
79038CL-    CL-42762  44.993  35.042   9.969
79039CL-    CL-42763  42.982  37.408  14.470
79040CL-    CL-42764  21.220  33.395   3.639
79041CL-    CL-42765   3.317  36.428   4.293
79042CL-    CL-42766  16.736  18.285   0.396
79043CL-    CL-42767  26.567  10.228   2.759
79044CL-    CL-42768  26.089  44.982   3.201
79045CL-    CL-42769  12.193  37.059  10.629
79046CL-    CL-42770  40.800  31.408   2.250
79047CL-    CL-42771  15.581   3.876  11.886
79048CL-    CL-42772  33.379  37.579   2.374
79049CL-    CL-42773  38.867   7.885  10.455
79050CL-    CL-42774  31.142  38.906  14.858
79051CL-    CL-42775   3.459   9.680  12.084
79052CL-    CL-42776   5.284  22.134   1.439
79053CL-    CL-42777  27.094  43.971  13.397
79054CL-    CL-42778   3.283  40.519   0.460
79055CL-    CL-42779   8.321  38.458   2.198
79056CL-    CL-42780   7.365  38.017  12.394
79057CL-    CL-42781  35.360   4.408   3.673
79058CL-    CL-42782   5.210   9.173   3.305
79059CL-    CL-42783  35.531   7.263  13.987
79060CL-    CL-42784  35.459  42.317  11.922
79061CL-    CL-42785  36.004  24.542  13.526
79062CL-    CL-42786  14.595  36.895  12.547
79063CL-    CL-42787   9.876  13.194   1.706
79064CL-    CL-42788  32.496  14.605  12.999
79065CL-    CL-42789  28.679  40.544   1.249
79066CL-    CL-42790   6.364  25.632  12.516
79067CL-    CL-42791   1.953  27.184  13.935
79068CL-    CL-42792  24.701  15.746   4.826
79069CL-    CL-42793  38.393  11.276   4.807
79070CL-    CL-42794  31.501  29.596  13.844
79071CL-    CL-42795  20.581  28.498   2.855
79072CL-    CL-42796  30.604  22.572  11.384
79073CL-    CL-42797   4.268  40.805  14.378
79074CL-    CL-42798  23.992  33.000   3.818
79075CL-    CL-42799  38.832  23.505  11.577
79076CL-    CL-42800  41.866  42.340  11.030
79077CL-    CL-42801   3.364  10.769   2.859
79078CL-    CL-42802  13.293  20.264   1.304
79079CL-    CL-42803  35.393   8.301  12.560
79080CL-    CL-42804  32.004   3.221   2.868
79081CL-    CL-42805  30.017  14.832   3.715
79082CL-    CL-42806  42.375  42.446   0.415
79083CL-    CL-42807   5.726  34.112  14.330
79084CL-    CL-42808  28.442  14.803   4.252
79085CL-    CL-42809   7.684  37.536   3.713
79086CL-    CL-42810  18.774  44.444  10.118
79087CL-    CL-42811  15.137   7.741   3.854
79088CL-    CL-42812  13.219   5.337   3.212
79089CL-    CL-42813  31.429  20.746  10.479
79090CL-    CL-42814  22.527  10.712  12.538
79091CL-    CL-42815  26.038  33.120   2.399
79092CL-    CL-42816  40.498  44.443   2.259
79093CL-    CL-42817   0.883  37.355  12.433
79094CL-    CL-42818  39.461  32.111   4.800
79095CL-    CL-42819  20.598  16.731   1.441
79096CL-    CL-42820   2.299  38.378  11.008
79097CL-    CL-42821  28.081  43.430  13.308
79098CL-    CL-42822  38.529   1.302  14.810
79099CL-    CL-42823  17.576   4.880   3.802
79100CL-    CL-42824  10.759  15.328   3.781
79101CL-    CL-42825  33.418   6.339  11.482
79102CL-    CL-42826  37.559  21.573  11.592
79103CL-    CL-42827   8.258  36.984  14.398
79104CL-    CL-42828  37.432  28.962  11.506
79105CL-    CL-42829  23.671  39.856  12.373
79106CL-    CL-42830  10.648  37.014   0.273
79107CL-    CL-42831  12.697   3.297  11.940
79108CL-    CL-42832  35.600  43.329  13.351
79109CL-    CL-42833  36.364  31.067  13.830
79110CL-    CL-42834  13.666  30.538  13.957
79111CL-    CL-42835  22.013  13.114   4.781
79112CL-    CL-42836  25.519  17.653  14.380
79113CL-    CL-42837   5.204  12.140  11.895
79114CL-    CL-42838  15.587  40.809  14.355
79115CL-    CL-42839   9.653  26.071  14.398
79116CL-    CL-42840   2.816   5.344   3.150
79117CL-    CL-42841  40.358  12.208   1.227
79118CL-    CL-42842   1.416  39.475   3.196
79119CL-    CL-42843  18.154  27.509   3.827
79120CL-    CL-42844  15.778   9.736   1.852
79121CL-    CL-42845  40.819  24.001   2.872
79122CL-    CL-42846  30.985   3.787  14.787
79123CL-    CL-42847  44.872  18.066  13.000
79124CL-    CL-42848  36.015  40.453   3.835
79125CL-    CL-42849   1.841  22.734  11.491
79126CL-    CL-42850  25.106  30.917   1.285
79127CL-    CL-42851  17.092  27.061  11.102
79128CL-    CL-42852  21.564  20.251   4.834
79129CL-    CL-42853  29.015  27.072  11.472
79130CL-    CL-42854  22.186  24.487   4.174
79131CL-    CL-42855  10.165  23.126   2.783
79132CL-    CL-42856  26.068  36.023   4.683
79133CL-    CL-42857   7.907  30.515  12.029
79134CL-    CL-42858  17.152   6.724   4.172
79135CL-    CL-42859  44.825  34.992   0.966
79136CL-    CL-42860   8.677  16.729  14.950
79137CL-    CL-42861  41.991  30.448  13.376
79138CL-    CL-42862  42.006  25.633   9.612
79139CL-    CL-42863   5.689  29.515  13.871
79140CL-    CL-42864   0.795  24.507   2.255
79141CL-    CL-42865  13.750  24.002   0.966
79142CL-    CL-42866  19.206  39.033   1.764
79143CL-    CL-42867  21.226  26.533   1.901
79144CL-    CL-42868  25.655  30.057   4.134
79145CL-    CL-42869  42.490   2.292   0.763
79146CL-    CL-42870   7.878  27.172   4.208
79147CL-    CL-42871  29.921  16.266   1.338
79148CL-    CL-42872  31.533   2.362  14.372
79149CL-    CL-42873  33.039  28.526   4.687
79150CL-    CL-42874  31.439  11.692  12.919
79151CL-    CL-42875  12.674  19.266  11.987
79152CL-    CL-42876  11.761  21.177  13.956
79153CL-    CL-42877  22.680  42.372  13.912
79154CL-    CL-42878  40.471  28.678  12.404
79155CL-    CL-42879   1.926  37.356   0.894
79156CL-    CL-42880  25.518   4.847  10.564
79157CL-    CL-42881  44.944  24.644  12.422
79158CL-    CL-42882  41.526   1.278  14.432
79159CL-    CL-42883  27.483  44.819   4.146
79160CL-    CL-42884   2.725  39.449   4.609
79161CL-    CL-42885   3.402  34.529  11.090
79162CL-    CL-42886  32.420   7.849   0.822
79163CL-    CL-42887  14.256  41.404  10.562
79164CL-    CL-42888   3.744  10.148  11.609
79165CL-    CL-42889  44.261   2.461  11.444
79166CL-    CL-42890  30.115  35.077   1.238
79167CL-    CL-42891  13.842  42.325  13.509
79168CL-    CL-42892   9.833  29.647  13.481
79169CL-    CL-42893  39.491  41.889   1.836
79170CL-    CL-42894  35.401  10.235   3.728
79171CL-    CL-42895   4.391  39.327   3.284
79172CL-    CL-42896  40.388   5.880  14.353
79173CL-    CL-42897  11.670   9.395  11.389
79174CL-    CL-42898  31.403  43.333  14.893
79175CL-    CL-42899  30.985  16.311  12.352
79176CL-    CL-42900  44.904  28.461  11.932
79177CL-    CL-42901  29.481  20.181   1.299
79178CL-    CL-42902  37.398  35.857  13.063
79179CL-    CL-42903  36.407  44.312   3.288
79180CL-    CL-42904  11.848  39.811   0.793
79181CL-    CL-42905   3.321   9.883   0.411
79182CL-    CL-42906  18.736  40.036   3.700
79183CL-    CL-42907  35.077  21.224   2.395
79184CL-    CL-42908  37.974  18.062   3.296
79185CL-    CL-42909  11.284  13.160  14.399
79186CL-    CL-42910  27.963  31.469  11.859
79187CL-    CL-42911   9.856  39.880   4.692
79188CL-    CL-42912  14.696  41.977   2.795
79189CL-    CL-42913  18.177   1.466  13.318
79190CL-    CL-42914  34.867  37.065   4.309
79191CL-    CL-42915  35.388   0.445  13.510
79192CL-    CL-42916  41.959  30.523   9.953
79193CL-    CL-42917   3.711   7.911   4.752
79194CL-    CL-42918  39.383  26.964  10.477
79195CL-    CL-42919  16.695  42.341  14.948
79196CL-    CL-42920  28.056   7.256  11.889
79197CL-    CL-42921  44.995  22.182   2.400
79198CL-    CL-42922   3.712  23.006  12.872
79199CL-    CL-42923   5.731   6.202   1.747
79200CL-    CL-42924  26.118  37.961   3.221
79201CL-    CL-42925  12.814  15.578   1.838
79202CL-    CL-42926   7.237  35.973   1.746
79203CL-    CL-42927  27.472   8.289  13.797
79204CL-    CL-42928  44.376  24.706   0.289
79205CL-    CL-42929  11.650   4.324  13.371
79206CL-    CL-42930  25.187  28.552  11.459
79207CL-    CL-42931  25.008  44.282   3.717
79208CL-    CL-42932   9.772  42.871  11.502
79209CL-    CL-42933   9.645  20.660   2.828
79210CL-    CL-42934  39.832   6.412  14.351
79211CL-    CL-42935  39.371  22.083   1.855
79212CL-    CL-42936   8.730  19.712   3.147
79213CL-    CL-42937   2.424  13.672   2.411
79214CL-    CL-42938  32.533  35.865  14.896
79215CL-    CL-42939  14.712  40.483  14.987
79216CL-    CL-42940   5.195  33.605  11.402
79217CL-    CL-42941  26.091  26.081   0.811
79218CL-    CL-42942  13.764  22.032   2.671
79219CL-    CL-42943  31.921  16.275   0.462
79220CL-    CL-42944  15.618  15.701   4.831
79221CL-    CL-42945   8.293   8.697  10.097
79222CL-    CL-42946  17.199  16.745   2.893
79223CL-    CL-42947  28.547  28.613  13.475
79224CL-    CL-42948   9.668  15.603   3.746
79225CL-    CL-42949  15.707  36.367  10.488
79226CL-    CL-42950  22.541  12.327  10.594
79227CL-    CL-42951  16.180  13.681  13.009
79228CL-    CL-42952  44.766  14.274  13.314
79229CL-    CL-42953  41.451  29.613   1.793
79230CL-    CL-42954  37.861   5.803   2.763
79231CL-    CL-42955  15.666  38.938  12.466
79232CL-    CL-42956  39.421  13.266   3.356
79233CL-    CL-42957  32.635  34.870  12.842
79234CL-    CL-42958  41.846  33.493  14.969
79235CL-    CL-42959  21.071   7.307   1.850
79236CL-    CL-42960  17.591  30.633   2.198
79237CL-    CL-42961  16.317   2.762   3.211
79238CL-    CL-42962  29.630   2.958  13.375
79239CL-    CL-42963  42.388  10.273  13.447
79240CL-    CL-42964  29.535  37.077  12.093
79241CL-    CL-42965   3.919  41.422  12.388
79242CL-    CL-42966  31.584  23.211  14.955
79243CL-    CL-42967  41.396  26.994  13.369
79244CL-    CL-42968  13.276  38.041  12.055
79245CL-    CL-42969   1.456   9.825   3.713
79246CL-    CL-42970  25.160  34.975   4.156
79247CL-    CL-42971  41.415  34.961   0.809
79248CL-    CL-42972  23.677  41.001  13.323
79249CL-    CL-42973  27.542  12.619  13.830
79250CL-    CL-42974  38.327   8.892   4.756
79251CL-    CL-42975   5.315  23.606   3.860
79252CL-    CL-42976  10.639  29.072  14.831
79253CL-    CL-42977  19.546   7.849  14.285
79254CL-    CL-42978  43.876  33.531  14.824
79255CL-    CL-42979   5.313  39.438   3.354
79256CL-    CL-42980  32.537  32.401  12.875
79257CL-    CL-42981  37.550  42.450   9.944
79258CL-    CL-42982   9.774  25.076   4.169
79259CL-    CL-42983  17.781  30.945   2.765
79260CL-    CL-42984  33.039  39.315  10.974
79261CL-    CL-42985  39.066  23.731   5.095
79262CL-    CL-42986  37.342  11.214  11.513
79263CL-    CL-42987  27.497  32.427   0.776
79264CL-    CL-42988  29.439  13.613   0.727
79265CL-    CL-42989  31.055   4.777   4.661
79266CL-    CL-42990  33.925  44.475  12.554
79267CL-    CL-42991  10.165  37.436   3.796
79268CL-    CL-42992   2.315   1.480  11.611
79269CL-    CL-42993  17.153  41.037   0.260
79270CL-    CL-42994   6.764  29.104  10.951
79271CL-    CL-42995  21.689  17.167   0.347
79272CL-    CL-42996  26.028   2.882  10.590
79273CL-    CL-42997  36.447  43.336   1.776
79274CL-    CL-42998  41.002  42.833  11.920
79275CL-    CL-42999  31.084  14.629   0.902
79276CL-    CL-43000  31.500  33.930   2.676
79277CL-    CL-43001  18.591  26.077   3.685
79278CL-    CL-43002  25.172  17.728   1.312
79279CL-    CL-43003  29.169  24.999  10.544
79280CL-    CL-43004  17.603  39.820  14.385
79281CL-    CL-43005   3.439  32.489  14.940
79282CL-    CL-43006  27.035  33.886  11.460
79283CL-    CL-43007  25.587  10.237  13.870
79284CL-    CL-43008  19.533  42.928   0.331
79285CL-    CL-43009  41.843  35.441  14.327
79286CL-    CL-43010  20.561  27.611   4.669
79287CL-    CL-43011  27.181  43.463   4.291
79288CL-    CL-43012  30.941   3.787   2.380
79289CL-    CL-43013  40.502  11.795   2.689
79290CL-    CL-43014  41.813  10.325   4.742
79291CL-    CL-43015  20.706  28.628  14.871
79292CL-    CL-43016  24.555   7.839   2.200
79293CL-    CL-43017  29.542   7.680   1.327
79294CL-    CL-43018  26.481  18.660   5.259
79295CL-    CL-43019  31.105  12.292   3.182
79296CL-    CL-43020  36.535  18.102  10.581
79297CL-    CL-43021  40.871  17.773   0.429
79298CL-    CL-43022  25.534  29.656   3.276
79299CL-    CL-43023  34.040  11.267  12.568
79300CL-    CL-43024  39.898  17.713   1.210
79301CL-    CL-43025   5.859  31.980  12.059
79302CL-    CL-43026  34.968  21.581  14.292
79303CL-    CL-43027  38.332  28.667  10.643
79304CL-    CL-43028  40.860  36.407  11.428
79305CL-    CL-43029  35.951  21.077   0.965
79306CL-    CL-43030  39.884  10.317   3.306
79307CL-    CL-43031  33.416  24.592   2.853
79308CL-    CL-43032   3.757   1.434  11.937
79309CL-    CL-43033  11.158  31.583  13.882
79310CL-    CL-43034  30.117  15.240   2.190
79311CL-    CL-43035  13.637   3.220  11.912
79312CL-    CL-43036   0.434  12.767   3.841
79313CL-    CL-43037   3.281  40.982   2.178
79314CL-    CL-43038   9.784  26.961   0.430
79315CL-    CL-43039  15.810  27.636   1.731
79316CL-    CL-43040  34.490  20.130   3.817
79317CL-    CL-43041  15.760   3.442  11.045
79318CL-    CL-43042  42.988  26.490  12.569
79319CL-    CL-43043   8.303  11.729   1.753
79320CL-    CL-43044  27.091  42.445  11.436
79321CL-    CL-43045  33.550   4.881  13.792
79322CL-    CL-43046  18.761  36.529  11.905
79323CL-    CL-43047   7.783  23.572   3.840
79324CL-    CL-43048  30.537   2.748  13.496
79325CL-    CL-43049  29.936   7.367  14.345
79326CL-    CL-43050   6.309  43.352  14.383
79327CL-    CL-43051   5.268   4.325   0.762
79328CL-    CL-43052  28.060   4.872  12.580
79329CL-    CL-43053  35.430  41.489   1.244
79330CL-    CL-43054  33.555  17.800   2.319
79331CL-    CL-43055  20.571  37.534   4.646
79332CL-    CL-43056   4.873  27.971  11.531
79333CL-    CL-43057  11.673  22.132  13.342
79334CL-    CL-43058   4.361  25.041  14.823
79335CL-    CL-43059  38.870  20.559  14.508
79336CL-    CL-43060  15.646  39.957  10.642
79337CL-    CL-43061  23.020  37.942   2.258
79338CL-    CL-43062  42.876   5.210  11.972
79339CL-    CL-43063  40.364   3.779  11.978
79340CL-    CL-43064  34.977  26.142  13.308
79341CL-    CL-43065  14.277  43.862   1.912
79342CL-    CL-43066  30.476  23.210  11.001
79343CL-    CL-43067  21.704  39.931  14.884
79344CL-    CL-43068  25.016  13.116  14.302
79345CL-    CL-43069  17.066  24.626  13.311
79346CL-    CL-43070  15.204  25.700   3.315
79347CL-    CL-43071  35.441  11.268  10.500
79348CL-    CL-43072   7.225   6.708   1.397
79349CL-    CL-43073  31.019  33.990  10.527
79350CL-    CL-43074  10.192   0.293   4.713
79351CL-    CL-43075   3.312  24.014   0.931
79352CL-    CL-43076   7.795  29.605  13.943
79353CL-    CL-43077  15.799  23.657   2.843
79354CL-    CL-43078  41.381  35.475  13.403
79355CL-    CL-43079  44.782  39.412   2.210
79356CL-    CL-43080  16.654  25.550  10.455
79357CL-    CL-43081  38.336  13.818  12.881
79358CL-    CL-43082  30.568  29.661  11.870
79359CL-    CL-43083   7.211  17.683  14.008
79360CL-    CL-43084  16.089  24.481   3.803
79361CL-    CL-43085  23.138   8.297   1.275
79362CL-    CL-43086  13.706  11.340   0.456
79363CL-    CL-43087  36.947   7.356  11.424
79364CL-    CL-43088  14.650  24.033  14.326
79365CL-    CL-43089   5.227   3.873  11.539
79366CL-    CL-43090   4.791  43.868   3.218
79367CL-    CL-43091   2.255  38.957  10.608
79368CL-    CL-43092   5.909  25.505  10.643
79369CL-    CL-43093  44.498  38.049  10.935
79370CL-    CL-43094  27.017   1.362  12.835
79371CL-    CL-43095  25.527  26.539   4.790
79372CL-    CL-43096  36.535   6.381  12.572
79373CL-    CL-43097  44.270  27.580   0.279
79374CL-    CL-43098  25.130   7.291   9.994
79375CL-    CL-43099  35.376  13.170   4.185
79376CL-    CL-43100   7.370  38.002   2.325
79377CL-    CL-43101  25.640  29.147  13.371
79378CL-    CL-43102  29.989  43.780   4.231
79379CL-    CL-43103  40.533  33.932   2.803
79380CL-    CL-43104  33.025  11.843  14.886
79381CL-    CL-43105   8.685  37.002  11.517
79382CL-    CL-43106  24.660  18.191   3.784
79383CL-    CL-43107   7.876  11.785   3.348
79384CL-    CL-43108   6.781  30.140   4.617
79385CL-    CL-43109   2.463  28.176  10.946
79386CL-    CL-43110  18.643  31.124  14.498
79387CL-    CL-43111  33.441  31.899   2.872
79388CL-    CL-43112  21.090   8.279   1.874
79389CL-    CL-43113  22.159   0.764  10.454
79390CL-    CL-43114  23.565  44.474  10.915
79391CL-    CL-43115   5.859  34.436  13.926
79392CL-    CL-43116  25.609  38.902  12.900
79393CL-    CL-43117  35.110  15.621  13.313
79394CL-    CL-43118  42.984  10.754  12.533
79395CL-    CL-43119  12.734  23.721   4.658
79396CL-    CL-43120  10.251   9.663  11.079
79397CL-    CL-43121  12.716  37.874   4.240
79398CL-    CL-43122  35.357  37.010   2.782
79399CL-    CL-43123  12.798  17.595  14.885
79400CL-    CL-43124   1.837  41.958  13.538
79401CL-    CL-43125   1.959  38.513  11.506
79402CL-    CL-43126  36.037  39.905  11.936
79403CL-    CL-43127  26.562  41.994  10.527
79404CL-    CL-43128  19.770   0.459  14.420
79405CL-    CL-43129  29.071  43.836  13.799
79406CL-    CL-43130  16.150  19.541   4.702
79407CL-    CL-43131  25.610  13.183  12.400
79408CL-    CL-43132  35.984  34.384  14.966
79409CL-    CL-43133  22.040  24.571   3.779
79410CL-    CL-43134  25.612  34.526  10.555
79411CL-    CL-43135   8.800  38.983   2.786
79412CL-    CL-43136  38.895  10.336  12.063
79413CL-    CL-43137  34.454  42.818   4.815
79414CL-    CL-43138  25.620  35.436   3.820
79415CL-    CL-43139  16.265   4.314   1.333
79416CL-    CL-43140  31.464  20.655   0.967
79417CL-    CL-43141  30.052  27.445  11.867
79418CL-    CL-43142  33.025  13.141  12.339
79419CL-    CL-43143   4.351  44.382  13.838
79420CL-    CL-43144  31.026  25.023   2.778
79421CL-    CL-43145   8.756  42.343  13.982
79422CL-    CL-43146  22.588  29.625  10.937
79423CL-    CL-43147  26.543  30.592   1.883
79424CL-    CL-43148  35.592  34.047  10.428
79425CL-    CL-43149  10.811  27.047  13.891
79426CL-    CL-43150  20.526  24.004  10.457
79427CL-    CL-43151  12.183  23.198   3.328
79428CL-    CL-43152  11.662  21.561   3.160
79429CL-    CL-43153   1.812   0.969  12.981
79430CL-    CL-43154  44.771   0.325  13.843
79431CL-    CL-43155  14.113  15.187  13.341
79432CL-    CL-43156  11.289  42.333  14.877
79433CL-    CL-43157  21.607   6.892   3.372
79434CL-    CL-43158  15.672  31.120   1.832
79435CL-    CL-43159  29.500  28.098   9.946
79436CL-    CL-43160  11.208   0.344   3.319
79437CL-    CL-43161  37.895  32.056   4.153
79438CL-    CL-43162  30.112  26.669  13.333
79439CL-    CL-43163   0.303   6.883   0.809
79440CL-    CL-43164   1.375  15.159  11.441
79441CL-    CL-43165  21.633  28.580  13.879
79442CL-    CL-43166  10.673  42.840   3.679
79443CL-    CL-43167  44.376  36.516   0.735
79444CL-    CL-43168  35.367  28.148  10.552
79445CL-    CL-43169  42.848  12.182   0.935
79446CL-    CL-43170   0.846  16.275  14.825
79447CL-    CL-43171  27.470  25.175   1.931
79448CL-    CL-43172  31.920  18.695   1.315
79449CL-    CL-43173  30.634   6.825  12.082
79450CL-    CL-43174  14.231  24.636  12.409
79451CL-    CL-43175  16.289  34.400  11.102
79452CL-    CL-43176  35.443   2.378  11.002
79453CL-    CL-43177  27.638   1.301  12.398
79454CL-    CL-43178  43.498  22.553   5.132
79455CL-    CL-43179  41.405  21.674  10.100
79456CL-    CL-43180  33.119  29.593  12.034
79457CL-    CL-43181   1.384   9.801  10.913
79458CL-    CL-43182  13.288  34.558  11.862
79459CL-    CL-43183  34.996  16.253   1.278
79460CL-    CL-43184  22.575  10.172  13.881
79461CL-    CL-43185  27.122  26.094   0.315
79462CL-    CL-43186  18.671  12.313   2.721
79463CL-    CL-43187   4.447  22.195   0.905
79464CL-    CL-43188   2.938  28.666  11.864
79465CL-    CL-43189  14.793  44.306  13.487
79466CL-    CL-43190  13.735  38.007   1.777
79467CL-    CL-43191  34.014  24.176  10.988
79468CL-    CL-43192  42.430  26.030  10.999
79469CL-    CL-43193  21.651  28.495   1.903
79470CL-    CL-43194   6.917  12.641   5.138
79471CL-    CL-43195  35.479  40.798  11.527
79472CL-    CL-43196  29.093  10.779  12.970
79473CL-    CL-43197  15.596  31.421  12.537
79474CL-    CL-43198  10.244   0.302   0.760
79475CL-    CL-43199  10.220  41.986  14.507
79476CL-    CL-43200   7.743  29.060   3.317
79477CL-    CL-43201  34.457  43.337   3.340
79478CL-    CL-43202  30.519  33.048   2.899
79479CL-    CL-43203   6.679  29.572   2.346
79480CL-    CL-43204   6.741  17.735   0.446
79481CL-    CL-43205   3.326  40.849  12.430
79482CL-    CL-43206  14.763  31.501   4.281
79483CL-    CL-43207  13.703  41.485  13.521
79484CL-    CL-43208  19.724  17.242  10.063
79485CL-    CL-43209  24.589   1.799   0.791
79486CL-    CL-43210  41.958  11.712   3.658
79487CL-    CL-43211  33.549  24.507  12.468
79488CL-    CL-43212   1.474  36.030   0.887
79489CL-    CL-43213   3.373  32.517   3.800
79490CL-    CL-43214  43.407  19.129  13.946
79491CL-    CL-43215  21.668   1.941  12.030
79492CL-    CL-43216  12.796  20.662   1.342
79493CL-    CL-43217  28.934  22.654   3.243
79494CL-    CL-43218  41.292  15.645   1.876
79495CL-    CL-43219  32.456  14.657  11.547
79496CL-    CL-43220   7.322  32.068   3.158
79497CL-    CL-43221  12.657  30.421   4.724
79498CL-    CL-43222  17.634   7.276   0.954
79499CL-    CL-43223  20.643  22.676  10.460
79500CL-    CL-43224  37.954  14.107   0.893
79501CL-    CL-43225  10.145   2.751   0.910
79502CL-    CL-43226  41.312   0.436  14.440
79503CL-    CL-43227   2.771  37.566  11.878
79504CL-    CL-43228  26.126  31.518   1.848
79505CL-    CL-43229  16.132  27.512   3.805
79506CL-    CL-43230  44.882  13.689   1.889
79507CL-    CL-43231   4.944  43.768  11.955
79508CL-    CL-43232  32.944   2.320  14.515
79509CL-    CL-43233  42.846  15.708  11.513
79510CL-    CL-43234  34.002   3.939  14.348
79511CL-    CL-43235   1.408  15.605   1.381
79512CL-    CL-43236   5.206  40.022  11.992
79513CL-    CL-43237  14.145   3.448   0.920
79514CL-    CL-43238  29.103  29.085  13.310
79515CL-    CL-43239  13.727  24.123  13.979
79516CL-    CL-43240  34.888   3.408  14.400
79517CL-    CL-43241  41.798  27.582  10.532
79518CL-    CL-43242  39.030  23.229   4.312
79519CL-    CL-43243  37.907   7.204   3.740
79520CL-    CL-43244  22.193  14.230   3.175
79521CL-    CL-43245  41.902  25.624   0.299
79522CL-    CL-43246   3.310  31.032  13.514
79523CL-    CL-43247  18.128  32.943   1.414
79524CL-    CL-43248  18.560  24.055   4.834
79525CL-    CL-43249  43.800  12.283   4.119
79526CL-    CL-43250  36.842  16.732  10.511
79527CL-    CL-43251   1.401  12.670  14.795
79528CL-    CL-43252  13.314  29.653   3.688
79529CL-    CL-43253  31.638  44.935  12.363
79530CL-    CL-43254  26.155  38.393  14.932
79531CL-    CL-43255  19.118  35.497  14.461
79532CL-    CL-43256  34.033  19.632  12.020
79533CL-    CL-43257  23.668  12.335   3.828
79534CL-    CL-43258  18.643  12.150   1.358
79535CL-    CL-43259  11.320  19.170  14.512
79536CL-    CL-43260  29.013  33.046   4.266
79537CL-    CL-43261  32.623  28.134  14.917
79538CL-    CL-43262  26.078  21.543  12.088
79539CL-    CL-43263  21.087  35.367   0.421
79540CL-    CL-43264  11.799  22.229   0.433
79541CL-    CL-43265  18.642  18.225   2.707
79542CL-    CL-43266   4.838  43.315   1.282
79543CL-    CL-43267  43.295  36.922   3.369
79544CL-    CL-43268  25.088  25.636  10.456
79545CL-    CL-43269   6.189  37.533  13.904
79546CL-    CL-43270  27.463  10.731  14.790
79547CL-    CL-43271   0.940  42.025   1.760
79548CL-    CL-43272  30.445  34.103   2.848
79549CL-    CL-43273  12.148  29.058   2.288
79550CL-    CL-43274  44.325   6.872  12.013
79551CL-    CL-43275  44.965  32.118  11.998
79552CL-    CL-43276  38.566   0.958   1.759
79553CL-    CL-43277  20.640  19.158   4.317
79554CL-    CL-43278   7.681  16.110   3.662
79555CL-    CL-43279   2.744  11.263   2.378
79556CL-    CL-43280   0.826  24.489  12.349
79557CL-    CL-43281   6.348  38.547   2.690
79558CL-    CL-43282  12.332  28.052  14.385
79559CL-    CL-43283  35.098  32.962  13.480
79560CL-    CL-43284  22.115  35.523   2.868
79561CL-    CL-43285  27.952  20.104  12.492
79562CL-    CL-43286  39.842  35.973   3.161
79563CL-    CL-43287  21.094   0.825  10.588
79564CL-    CL-43288  14.752  31.972   3.798
79565CL-    CL-43289  24.558  44.392  13.444
79566CL-    CL-43290  16.301  19.588   3.845
79567CL-    CL-43291  37.358  18.113  13.849
79568CL-    CL-43292  11.358  44.374  10.519
79569CL-    CL-43293   5.203  15.775  11.610
79570CL-    CL-43294  17.630  39.038   3.357
79571CL-    CL-43295   8.766  21.097  13.387
79572CL-    CL-43296  42.976  43.852  10.423
79573CL-    CL-43297   3.855  38.450  13.807
79574CL-    CL-43298   1.846  43.841  12.970
79575CL-    CL-43299  12.350  30.153   3.796
79576CL-    CL-43300  22.140  25.153  14.003
79577CL-    CL-43301  35.043  35.030  11.063
79578CL-    CL-43302  33.509  27.586   2.888
79579CL-    CL-43303   6.844  18.639   0.297
79580CL-    CL-43304   9.784  44.924  11.076
79581CL-    CL-43305   9.209  35.868   5.247
79582CL-    CL-43306  27.016   1.481  12.524
79583CL-    CL-43307  24.060   2.277   2.288
79584CL-    CL-43308  25.569  14.214   1.740
79585CL-    CL-43309  23.989  17.248   2.309
79586CL-    CL-43310  28.100  35.596  12.025
79587CL-    CL-43311  26.555  31.977   5.108
79588CL-    CL-43312  31.458  17.299   2.213
79589CL-    CL-43313   6.246  39.434   4.179
79590CL-    CL-43314  42.859  18.686   2.703
79591CL-    CL-43315  11.351  10.813  13.462
79592CL-    CL-43316  39.499  14.285   3.786
79593CL-    CL-43317   4.223   3.356   3.345
79594CL-    CL-43318  28.545  23.127  14.873
79595CL-    CL-43319  44.834  37.851   0.861
79596CL-    CL-43320   5.878  25.211   0.918
79597CL-    CL-43321  18.134  34.460   0.308
79598CL-    CL-43322  30.557   6.314   3.664
79599CL-    CL-43323  32.072  14.726  12.039
79600CL-    CL-43324  19.197  27.990  14.914
79601CL-    CL-43325  42.381  18.599  14.970
79602CL-    CL-43326  16.603  16.684   2.361
79603CL-    CL-43327  21.538   1.890   0.332
79604CL-    CL-43328  38.494   7.231   3.359
79605CL-    CL-43329  42.795   9.336   2.755
79606CL-    CL-43330  34.502  32.095   3.669
79607CL-    CL-43331  12.247   2.393   3.349
79608CL-    CL-43332  37.385  11.320  14.358
79609CL-    CL-43333   0.931   9.210  14.367
79610CL-    CL-43334   4.428  23.532   4.799
79611CL-    CL-43335  25.112  16.758   2.878
79612CL-    CL-43336  13.176  23.630  14.428
79613CL-    CL-43337  13.796  30.079  14.305
79614CL-    CL-43338  25.069  21.559   2.816
79615CL-    CL-43339  17.631  29.975  12.882
79616CL-    CL-43340  21.261  40.967   0.852
79617CL-    CL-43341  43.952  11.355  13.481
79618CL-    CL-43342  28.009  20.621  12.357
79619CL-    CL-43343  22.578  40.830  14.411
79620CL-    CL-43344  10.159   8.767   2.338
79621CL-    CL-43345   7.180   7.234   3.756
79622CL-    CL-43346  10.203  33.059  13.518
79623CL-    CL-43347  43.377  33.971  11.062
79624CL-    CL-43348  28.076  38.529  12.392
79625CL-    CL-43349  39.400  35.070   0.323
79626CL-    CL-43350  37.989  21.252   2.855
79627CL-    CL-43351  17.607  40.892  12.905
79628CL-    CL-43352   0.380  12.624  14.305
79629CL-    CL-43353  30.907   9.790   0.917
79630CL-    CL-43354  10.323  43.480   5.194
79631CL-    CL-43355  36.859  19.766  11.925
79632CL-    CL-43356  37.039  27.476   0.815
79633CL-    CL-43357   0.361  43.837   2.776
79634CL-    CL-43358  26.970  16.790  10.612
79635CL-    CL-43359  44.856   4.787  11.984
79636CL-    CL-43360  10.270  27.180   4.662
79637CL-    CL-43361  30.958  42.901   3.818
79638CL-    CL-43362   6.373  33.970  10.620
79639CL-    CL-43363  38.343  16.591  13.795
79640CL-    CL-43364  42.030  17.780   1.889
79641CL-    CL-43365   3.453  26.974  12.514
79642CL-    CL-43366  32.976  14.286   3.835
79643CL-    CL-43367  17.771  28.520   1.432
79644CL-    CL-43368  11.269  21.720   1.864
79645CL-    CL-43369   1.320  40.898  11.962
79646CL-    CL-43370   1.871   6.296   3.867
79647CL-    CL-43371  28.629  21.047   1.318
79648CL-    CL-43372  22.150   0.937   3.298
79649CL-    CL-43373  37.422  13.159  14.023
79650CL-    CL-43374  39.968  25.138   0.287
79651CL-    CL-43375  31.562  44.988   2.401
79652CL-    CL-43376  26.576  32.022  11.595
79653CL-    CL-43377  27.026  39.858   2.234
79654CL-    CL-43378  43.462  39.502   3.643
79655CL-    CL-43379   9.728   2.940   3.385
79656CL-    CL-43380  18.688  16.753   3.191
79657CL-    CL-43381  14.642   3.298  11.553
79658CL-    CL-43382  27.456  16.220   4.279
79659CL-    CL-43383  30.548  24.204   4.700
79660CL-    CL-43384  39.556  18.146   3.648
79661CL-    CL-43385  10.230  36.865  11.981
79662CL-    CL-43386  14.215  19.089  10.579
79663CL-    CL-43387   5.198  17.603  14.975
79664CL-    CL-43388  13.707  44.942  14.860
79665CL-    CL-43389  25.509  39.378   4.159
79666CL-    CL-43390  35.537  18.257  14.319
79667CL-    CL-43391  32.960  11.788   0.873
79668CL-    CL-43392  21.054  39.552  12.076
79669CL-    CL-43393  36.563  21.743   3.642
79670CL-    CL-43394  10.712   6.399   2.791
79671CL-    CL-43395  12.296  28.974  13.427
79672CL-    CL-43396   8.250  43.896   2.336
79673CL-    CL-43397  40.055   7.877   4.760
79674CL-    CL-43398  25.525  34.898  13.918
79675CL-    CL-43399  32.552  33.608   3.161
79676CL-    CL-43400  33.132  10.298  14.977
79677CL-    CL-43401  39.926  15.630   0.858
79678CL-    CL-43402  11.828  14.179  14.876
79679CL-    CL-43403  18.561  27.105  10.900
79680CL-    CL-43404  22.539   8.856  12.944
79681CL-    CL-43405   2.947  39.013   3.869
79682CL-    CL-43406  32.096   7.243  11.610
79683CL-    CL-43407  11.324   3.918   3.755
79684CL-    CL-43408  38.830  19.677  14.464
79685CL-    CL-43409   6.901  42.915   1.419
79686CL-    CL-43410  24.524  17.661  14.785
79687CL-    CL-43411   5.346  37.895  11.084
79688CL-    CL-43412  18.167  39.977   4.271
79689CL-    CL-43413  25.695  35.976  14.011
79690CL-    CL-43414  15.219  43.315  12.991
79691CL-    CL-43415  37.954  12.800  12.859
79692CL-    CL-43416   6.235   5.714  11.528
79693CL-    CL-43417  44.469  20.721   2.894
79694CL-    CL-43418  32.020  32.534   0.962
79695CL-    CL-43419  14.103   7.322  12.486
79696CL-    CL-43420  18.694  20.706  13.424
79697CL-    CL-43421  17.285  43.791  13.359
79698CL-    CL-43422   3.727  12.350  11.509
79699CL-    CL-43423  17.664   1.789   2.270
79700CL-    CL-43424  13.733   1.296   1.776
79701CL-    CL-43425  22.087   5.349   3.762
79702CL-    CL-43426   0.324  14.658  11.882
79703CL-    CL-43427  23.052  41.997  14.861
79704CL-    CL-43428  21.161  18.557  13.794
79705CL-    CL-43429  28.021   7.338   1.280
79706CL-    CL-43430   4.714  20.642   3.669
79707CL-    CL-43431  22.050   9.174  12.452
79708CL-    CL-43432  29.052   0.929  13.456
79709CL-    CL-43433   7.413   4.413  13.466
79710CL-    CL-43434   2.892  30.161   1.220
79711CL-    CL-43435  24.508  11.634  10.419
79712CL-    CL-43436   3.747  40.481  13.837
79713CL-    CL-43437  39.926  24.578   1.436
79714CL-    CL-43438  29.924  41.448   2.338
79715CL-    CL-43439   1.976  22.542  12.884
79716CL-    CL-43440  32.003  17.643  13.894
79717CL-    CL-43441  20.179  38.332  11.457
79718CL-    CL-43442  38.550  18.106   1.233
79719CL-    CL-43443  18.571   1.286   1.881
79720CL-    CL-43444  29.583  36.362   3.750
79721CL-    CL-43445  13.715  20.700  13.865
79722CL-    CL-43446  42.830  11.852   0.357
79723CL-    CL-43447  31.558   2.770   0.428
79724CL-    CL-43448  37.477  11.159   4.828
79725CL-    CL-43449   9.248  15.812  12.418
79726CL-    CL-43450  40.477  21.723   5.754
79727CL-    CL-43451  38.968  30.032  13.470
79728CL-    CL-43452  31.600  39.916   1.358
79729CL-    CL-43453  13.304  32.138  13.836
79730CL-    CL-43454  44.381  44.929  13.032
79731CL-    CL-43455  14.667  15.808  13.971
79732CL-    CL-43456  32.576   3.279  14.472
79733CL-    CL-43457   0.786  16.598  10.980
79734CL-    CL-43458  21.618  40.902  13.944
79735CL-    CL-43459  28.106  20.087  13.400
79736CL-    CL-43460   5.802   8.845   4.261
79737CL-    CL-43461  32.988  15.274  14.441
79738CL-    CL-43462   4.941  41.847   1.291
79739CL-    CL-43463  25.491  30.420  11.108
79740CL-    CL-43464   0.851  34.593  10.077
79741CL-    CL-43465  22.655  33.463  13.543
79742CL-    CL-43466  39.323   6.881  10.977
79743CL-    CL-43467  14.721  34.894  12.570
79744CL-    CL-43468   1.963   7.184  12.404
79745CL-    CL-43469  11.724  44.398  12.035
79746CL-    CL-43470  10.159  38.997   5.185
79747CL-    CL-43471  17.194   8.177   4.211
79748CL-    CL-43472  10.870  35.460   2.224
79749CL-    CL-43473  37.536   3.395  13.848
79750CL-    CL-43474   3.235   0.864  13.010
79751CL-    CL-43475  10.189  14.101  13.952
79752CL-    CL-43476   6.717  20.560   2.684
79753CL-    CL-43477  18.263  43.958  10.895
79754CL-    CL-43478  27.592  33.413  14.373
79755CL-    CL-43479  21.204  13.617  14.500
79756CL-    CL-43480  14.203  18.567   1.910
79757CL-    CL-43481  31.910   8.256   2.882
79758CL-    CL-43482  12.181  38.019   4.604
79759CL-    CL-43483   3.363  35.967   3.818
79760CL-    CL-43484   9.743   0.340  10.981
79761CL-    CL-43485  26.581  27.514   9.920
79762CL-    CL-43486  15.661  23.202  10.602
79763CL-    CL-43487  36.922  11.127  11.027
79764CL-    CL-43488  42.399  33.959   3.236
79765CL-    CL-43489  13.122  23.531  10.486
79766CL-    CL-43490  31.145   6.339  14.018
79767CL-    CL-43491   0.792  38.475   3.316
79768CL-    CL-43492  20.571   5.251   0.479
79769CL-    CL-43493   9.769  42.851  13.429
79770CL-    CL-43494  34.930  33.993   4.297
79771CL-    CL-43495   4.833  18.154  12.095
79772CL-    CL-43496   6.233  28.492   1.406
79773CL-    CL-43497   6.199  24.226  12.385
79774CL-    CL-43498  36.869  21.046   2.715
79775CL-    CL-43499  44.810  40.369  13.901
79776CL-    CL-43500  12.182  17.676   2.879
79777CL-    CL-43501   5.808  21.113   0.788
79778CL-    CL-43502  44.415   6.339   4.810
79779CL-    CL-43503  16.086  34.451   0.455
79780CL-    CL-43504  18.791   8.803   1.838
79781CL-    CL-43505  40.446  22.739  13.965
79782CL-    CL-43506  21.738   7.793   3.356
79783CL-    CL-43507  39.058  35.879   2.337
79784CL-    CL-43508  19.755   1.358   1.356
79785CL-    CL-43509  44.006  33.880   5.245
79786CL-    CL-43510  10.797  38.466   0.766
79787CL-    CL-43511  36.529  36.462   4.238
79788CL-    CL-43512  39.968  24.056  11.955
79789CL-    CL-43513   2.913   5.721  10.515
79790CL-    CL-43514  16.202  44.335  11.996
79791CL-    CL-43515  12.253  18.097   3.252
79792CL-    CL-43516  37.362   3.861  11.481
79793CL-    CL-43517  43.944  14.826   2.898
79794CL-    CL-43518  17.247  38.510  12.482
79795CL-    CL-43519  39.476  30.152   1.410
79796CL-    CL-43520  34.510  37.928  12.482
79797CL-    CL-43521  11.800   0.319  11.996
79798CL-    CL-43522  33.928  41.019   1.826
79799CL-    CL-43523  28.044  36.877   1.754
79800CL-    CL-43524   4.905  10.210   4.718
79801CL-    CL-43525   1.251   0.811  10.575
79802CL-    CL-43526  33.543   9.672   3.781
79803CL-    CL-43527   1.734   3.731   0.274
79804CL-    CL-43528  22.726  35.544   1.409
79805CL-    CL-43529  18.750  41.468  11.521
79806CL-    CL-43530  16.694  26.516   1.220
79807CL-    CL-43531  37.846  43.790  10.467
79808CL-    CL-43532   1.743  43.313   1.774
79809CL-    CL-43533   4.701  38.904  10.611
79810CL-    CL-43534  30.141  14.149   3.844
79811CL-    CL-43535  38.555   7.902   2.713
79812CL-    CL-43536  32.583  43.391  14.761
79813CL-    CL-43537  34.940  29.938  14.971
79814CL-    CL-43538  18.671   4.342   3.834
79815CL-    CL-43539  15.624  12.655  12.923
79816CL-    CL-43540  17.246  28.952   0.483
79817CL-    CL-43541  12.158  40.987   1.293
79818CL-    CL-43542  22.097  43.896   3.744
79819CL-    CL-43543  27.490  43.916  14.306
79820CL-    CL-43544  34.449  14.306  14.318
79821CL-    CL-43545  17.218  25.204   4.186
79822CL-    CL-43546  40.532   7.274  14.006
79823CL-    CL-43547  13.610  44.975  10.949
79824CL-    CL-43548  28.030  38.956   3.367
79825CL-    CL-43549  32.037   9.816   3.776
79826CL-    CL-43550  34.448  12.619   1.800
79827CL-    CL-43551  29.982  33.905   3.821
79828CL-    CL-43552  26.137  42.792  11.402
79829CL-    CL-43553   1.792   5.902  11.005
79830CL-    CL-43554  13.700  37.050   1.701
79831CL-    CL-43555  13.250   9.385   4.725
79832CL-    CL-43556  25.162   7.214   4.194
79833CL-    CL-43557  35.037  44.291   5.197
79834CL-    CL-43558  19.171  23.587   2.306
79835CL-    CL-43559  13.196  36.037  12.392
79836CL-    CL-43560   4.281   5.226   2.797
79837CL-    CL-43561  11.714  14.294   3.364
79838CL-    CL-43562  40.829  29.047   4.273
79839CL-    CL-43563  24.493  35.458  14.503
79840CL-    CL-43564   0.851  25.692   3.693
79841CL-    CL-43565  38.417  27.667  12.417
79842CL-    CL-43566  11.138   5.907  13.920
79843CL-    CL-43567  34.379  16.180   0.924
79844CL-    CL-43568  27.515  13.125   4.618
79845CL-    CL-43569  20.675   8.174  11.423
79846CL-    CL-43570  17.657  14.684  13.955
79847CL-    CL-43571  19.548   4.293   4.311
79848CL-    CL-43572  21.151  13.763  11.471
79849CL-    CL-43573  26.565  13.608  13.923
79850CL-    CL-43574  25.587  30.657  12.411
79851CL-    CL-43575  14.165  11.781  12.985
79852CL-    CL-43576  37.415  40.546  14.341
79853CL-    CL-43577  36.545  20.246  13.429
79854CL-    CL-43578   5.228  29.124   3.644
79855CL-    CL-43579  20.715   8.775  11.103
79856CL-    CL-43580  21.034  44.803  10.897
79857CL-    CL-43581  22.143  25.561  10.985
79858CL-    CL-43582  20.528  30.918  11.576
79859CL-    CL-43583  22.546  22.677   3.870
79860CL-    CL-43584   5.931  32.132  11.073
79861CL-    CL-43585  41.333  30.114   2.187
79862CL-    CL-43586  37.910  14.244   1.742
79863CL-    CL-43587   1.879  22.096  11.100
79864CL-    CL-43588   6.407  11.692  11.461
79865CL-    CL-43589   3.884  41.434  14.414
79866CL-    CL-43590  14.277  30.550   5.218
79867CL-    CL-43591  33.005  25.147   0.772
79868CL-    CL-43592   8.316  20.714   4.623
79869CL-    CL-43593  16.681  39.493   1.720
79870CL-    CL-43594  25.008  37.042  13.937
79871CL-    CL-43595  29.608  36.055   1.759
79872CL-    CL-43596  10.779  26.466   1.260
79873CL-    CL-43597  30.610  33.529  10.526
79874CL-    CL-43598  12.658  44.957  11.022
79875CL-    CL-43599  22.164  14.772  14.504
79876CL-    CL-43600  41.821  37.439   2.853
79877CL-    CL-43601  25.118   7.372   5.084
79878CL-    CL-43602   7.908  22.019  10.415
79879CL-    CL-43603  13.303  31.473  11.975
79880CL-    CL-43604  23.038   8.861  11.989
79881CL-    CL-43605  13.811  40.971  13.525
79882CL-    CL-43606   9.333  38.901   9.946
79883CL-    CL-43607  18.767   0.797  13.893
79884CL-    CL-43608  32.918   1.418   0.904
79885CL-    CL-43609  18.663  24.231   2.809
79886CL-    CL-43610  39.837  19.256  14.031
79887CL-    CL-43611  35.014   7.823   0.346
79888CL-    CL-43612  14.338  38.330  10.627
79889CL-    CL-43613  26.596   9.240   2.797
79890CL-    CL-43614  41.492  26.457  15.000
79891CL-    CL-43615   6.236  14.098  10.481
79892CL-    CL-43616  18.776  32.630   2.362
79893CL-    CL-43617  13.326  35.386   4.348
79894CL-    CL-43618  16.109  36.434  11.531
79895CL-    CL-43619  21.757  23.133  12.469
79896CL-    CL-43620  32.961  25.617   1.725
79897CL-    CL-43621  19.743  38.942   1.742
79898CL-    CL-43622  31.023   4.711   1.349
79899CL-    CL-43623  18.194  27.039  12.367
79900CL-    CL-43624  42.524  34.063  13.421
79901CL-    CL-43625  16.128   3.825   1.308
79902CL-    CL-43626  12.672  38.892   4.814
79903CL-    CL-43627  11.227  32.411  13.999
79904CL-    CL-43628   6.322  32.982   1.269
79905CL-    CL-43629  14.638   2.749   5.191
79906CL-    CL-43630   4.370  27.978   0.768
79907CL-    CL-43631   3.795  38.382  11.594
79908CL-    CL-43632  35.100  36.565   1.300
79909CL-    CL-43633  10.772  31.094  11.582
79910CL-    CL-43634  38.988  21.104  11.937
79911CL-    CL-43635  22.148  42.294   0.751
79912CL-    CL-43636  13.631  24.072  11.058
79913CL-    CL-43637   7.852  22.537  11.027
79914CL-    CL-43638  25.132  32.064   0.249
79915CL-    CL-43639  41.418  10.163   2.830
79916CL-    CL-43640  31.576  23.623  10.629
79917CL-    CL-43641  41.918  32.532   2.180
79918CL-    CL-43642   7.324   9.204   5.245
79919CL-    CL-43643   1.932  37.507   2.380
79920CL-    CL-43644  41.494  43.015  14.415
79921CL-    CL-43645  14.746  32.968  11.530
79922CL-    CL-43646   4.736  10.846   3.160
79923CL-    CL-43647   3.233  19.762  10.892
79924CL-    CL-43648  34.551  19.158  14.495
79925CL-    CL-43649  35.539  34.581   4.316
79926CL-    CL-43650  20.164  16.174   4.756
79927CL-    CL-43651  39.463  20.548  14.805
79928CL-    CL-43652  14.219   0.293   0.248
79929CL-    CL-43653  21.182   4.371   4.808
79930CL-    CL-43654  13.602  15.695   3.747
79931CL-    CL-43655  13.826   3.885   2.894
79932CL-    CL-43656  43.972  29.456   2.361
79933CL-    CL-43657   0.843  32.134   0.304
79934CL-    CL-43658  20.660  30.585  11.989
79935CL-    CL-43659   3.388  33.462  10.630
79936CL-    CL-43660   9.274  21.602   4.228
79937CL-    CL-43661  35.601  35.598  12.367
79938CL-    CL-43662  14.114  10.644   3.257
79939CL-    CL-43663  39.419  14.172   1.244
79940CL-    CL-43664  36.493  25.166  12.930
79941CL-    CL-43665  33.964  40.482   0.855
79942CL-    CL-43666  44.364  13.258  11.859
79943CL-    CL-43667  36.519  43.287   4.788
79944CL-    CL-43668  28.463   0.840   1.754
79945CL-    CL-43669  13.331  23.600   0.407
79946CL-    CL-43670  10.879  36.906   1.225
79947CL-    CL-43671  19.096  29.048   2.805
79948CL-    CL-43672   5.876  15.670   2.723
79949CL-    CL-43673   8.660  14.295   1.700
79950CL-    CL-43674  41.459  23.684   1.797
79951CL-    CL-43675  12.686  10.779  13.062
79952CL-    CL-43676   0.416  32.898   3.147
79953CL-    CL-43677  21.074  13.743  14.763
79954CL-    CL-43678  14.320  10.377  11.862
79955CL-    CL-43679  41.302  38.562   2.858
79956CL-    CL-43680  31.939   8.314   3.192
79957CL-    CL-43681  36.442   3.825   2.405
79958CL-    CL-43682  19.717  38.464  11.520
79959CL-    CL-43683  25.057  44.900   0.359
79960CL-    CL-43684   7.226   5.230   2.857
79961CL-    CL-43685   0.460  39.035   2.775
79962CL-    CL-43686  28.535  35.556  13.444
79963CL-    CL-43687  14.272  35.869   1.430
79964CL-    CL-43688  19.672  20.231  12.981
79965CL-    CL-43689  16.741  37.955   0.877
79966CL-    CL-43690  22.211  18.616  12.378
79967CL-    CL-43691  15.098  40.336  11.454
79968CL-    CL-43692  33.891   3.433  12.961
79969CL-    CL-43693  22.690  35.037  14.389
79970CL-    CL-43694  42.492   5.863  10.435
79971CL-    CL-43695  35.600  37.965  11.041
79972CL-    CL-43696   1.849  13.180   3.343
79973CL-    CL-43697  43.438  32.088   3.779
79974CL-    CL-43698   5.695  40.533   2.788
79975CL-    CL-43699  22.688   7.826   0.252
79976CL-    CL-43700  41.040   0.478   3.842
79977CL-    CL-43701  27.178   3.853  12.939
79978CL-    CL-43702   0.283  24.077  13.512
79979CL-    CL-43703  29.108  38.472  13.487
79980CL-    CL-43704   8.291  16.582  14.275
79981CL-    CL-43705  30.518  39.926   2.710
79982CL-    CL-43706  16.255   9.774  14.425
79983CL-    CL-43707   1.297   9.682  12.379
79984CL-    CL-43708  42.341  36.352   0.874
79985CL-    CL-43709  40.884  23.214  10.485
79986CL-    CL-43710  17.707  12.655   0.739
79987CL-    CL-43711  38.339  44.799   0.365
79988CL-    CL-43712  31.015  10.266   4.732
79989CL-    CL-43713  31.917   1.329  14.983
79990CL-    CL-43714  33.444   8.889  12.552
79991CL-    CL-43715   1.270  28.113   2.896
79992CL-    CL-43716   7.905  24.622  11.432
79993CL-    CL-43717  25.028   2.470   2.409
79994CL-    CL-43718  12.712  12.688   0.954
79995CL-    CL-43719  35.986  17.764   3.730
79996CL-    CL-43720  40.852   3.240   0.829
79997CL-    CL-43721   9.670  33.616  11.106
79998CL-    CL-43722  27.176  18.699  13.959
79999CL-    CL-43723  35.967  10.874  11.087
80000CL-    CL-43724   0.478  31.527   0.369
80001CL-    CL-43725  11.339  23.640  14.782
80002CL-    CL-43726   7.772   6.419  13.961
80003CL-    CL-43727  34.593  14.287  14.941
80004CL-    CL-43728  36.474  21.130   1.858
80005CL-    CL-43729  27.038  14.711  10.516
80006CL-    CL-43730  32.069  16.169  12.832
80007CL-    CL-43731  13.251   3.814   5.184
80008CL-    CL-43732   4.902  26.599  13.985
80009CL-    CL-43733   3.857  30.569  13.862
80010CL-    CL-43734   1.922   8.241  14.940
80011CL-    CL-43735  14.155  31.614   0.483
80012CL-    CL-43736  44.358   0.886   1.728
80013CL-    CL-43737  40.350  38.518  14.398
80014CL-    CL-43738  10.665  20.545   2.878
80015CL-    CL-43739  15.164   9.243  13.995
80016CL-    CL-43740  12.725  42.917  13.418
80017CL-    CL-43741  26.068   7.811  12.377
80018CL-    CL-43742  44.860  39.413   3.362
80019CL-    CL-43743   8.398  26.987  10.611
80020CL-    CL-43744  27.689  41.931  13.384
80021CL-    CL-43745  31.026  22.158   4.174
80022CL-    CL-43746  44.433  40.044  12.355
80023CL-    CL-43747  21.684   2.245  14.824
80024CL-    CL-43748   3.882  15.791   2.241
80025CL-    CL-43749  34.035  27.106  12.050
80026CL-    CL-43750   1.362  31.963  12.095
80027CL-    CL-43751  37.035  28.090  13.916
80028CL-    CL-43752   7.790  18.162   1.415
80029CL-    CL-43753   7.749  35.066   2.669
80030CL-    CL-43754  43.938   4.910   1.342
80031CL-    CL-43755   2.394   0.299   1.363
80032CL-    CL-43756   9.864  33.475  14.007
80033CL-    CL-43757  16.204   9.160  12.072
80034CL-    CL-43758   9.325  10.307   2.885
80035CL-    CL-43759  14.293  24.007   1.819
80036CL-    CL-43760  37.079  12.334   3.229
80037CL-    CL-43761  42.017  35.597  13.454
80038CL-    CL-43762  23.550   9.310  12.470
80039CL-    CL-43763  23.059  14.711   2.416
80040CL-    CL-43764  32.096  37.862   2.679
80041CL-    CL-43765  42.786   1.756  12.494
80042CL-    CL-43766  18.055  31.454  11.053
80043CL-    CL-43767  15.646   3.224   0.830
80044CL-    CL-43768  14.161  27.144  13.410
80045CL-    CL-43769  38.071   2.747   0.454
80046CL-    CL-43770  15.769  16.265   4.767
80047CL-    CL-43771   6.402   2.433  12.032
80048CL-    CL-43772  40.381  42.936   0.905
80049CL-    CL-43773  10.649   0.355   1.767
80050CL-    CL-43774  33.491  21.222  14.802
80051CL-    CL-43775   5.853   9.800   0.729
80052CL-    CL-43776  15.763  11.696   1.338
80053CL-    CL-43777  12.334  37.353   0.800
80054CL-    CL-43778   4.319  30.427  14.989
80055CL-    CL-43779   1.861  25.182  11.456
80056CL-    CL-43780  18.122   2.744  12.559
80057CL-    CL-43781  41.996   7.894  14.467
80058CL-    CL-43782  41.428  38.362  10.553
80059CL-    CL-43783  25.707   2.928   2.753
80060CL-    CL-43784  29.103  13.330   0.438
80061CL-    CL-43785  19.066  42.382  11.418
80062CL-    CL-43786  43.434  28.100  12.011
80063CL-    CL-43787   9.178  24.554   3.352
80064CL-    CL-43788  40.003  40.526  14.453
80065CL-    CL-43789  29.661  40.823  11.377
80066CL-    CL-43790  36.573  16.235   3.794
80067CL-    CL-43791   0.294  25.012  11.976
80068CL-    CL-43792  22.712  10.862   4.237
80069CL-    CL-43793  19.220  16.711   3.826
80070CL-    CL-43794  19.698  22.573   0.795
80071CL-    CL-43795  27.596  15.698  14.778
80072CL-    CL-43796   7.207  27.472   0.784
80073CL-    CL-43797  25.075  18.633  12.958
80074CL-    CL-43798  12.230  41.912   1.400
80075CL-    CL-43799  29.582  12.117  14.791
80076CL-    CL-43800  16.685   7.775  10.037
80077CL-    CL-43801  28.980   3.239   2.397
80078CL-    CL-43802  26.676  14.224   2.685
80079CL-    CL-43803  34.949   8.879  12.999
  45.00000  45.00000  15.00000   0.00000   0.00000   0.00000   0.00000   0.00000   0.00000

